Title
81392
    1CHL1    C3    1   5.381   2.321   9.945  0.0386 -0.0172 -0.7963
    1CHL1    H3    2   5.479   2.274   9.922  1.3708  1.8679  0.6903
    1CHL1    O3    3   5.367   2.304  10.090 -0.2477 -0.4764 -0.2904
    1CHL1   H3'    4   5.302   2.368  10.122 -0.2091 -1.2102  1.3545
    1CHL1    C4    5   5.373   2.470   9.916 -0.7987  0.3582 -0.2461
    1CHL1   H4A    6   5.277   2.508   9.958 -0.5226 -0.2874  1.0469
    1CHL1   H4B    7   5.456   2.519   9.971 -0.6112 -0.3611  0.1338
    1CHL1    C5    8   5.387   2.493   9.765  0.1303 -0.1073 -0.4392
    1CHL1    C6    9   5.489   2.568   9.720  0.4833 -0.6672 -0.4820
    1CHL1    H6   10   5.558   2.608   9.795  0.0456  0.4111 -0.6414
    1CHL1    C7   11   5.510   2.598   9.577 -0.7737 -0.0197  0.3916
    1CHL1   H7A   12   5.539   2.702   9.552 -1.9025 -0.0509 -1.2039
    1CHL1   H7B   13   5.592   2.529   9.546 -1.7672 -1.6596  1.2292
    1CHL1    C8   14   5.392   2.561   9.481 -0.0996  0.1848  0.7933
    1CHL1    H8   15   5.326   2.650   9.490  2.0131  2.1425 -1.6878
    1CHL1   C14   16   5.431   2.548   9.336 -0.0804 -0.0514  0.1657
    1CHL1   H14   17   5.497   2.459   9.325  0.4771  0.4506 -0.7060
    1CHL1   C15   18   5.510   2.660   9.276  0.1124 -1.0620  0.2077
    1CHL1  H15A   19   5.460   2.754   9.309 -0.2595 -1.3959  0.6153
    1CHL1  H15B   20   5.617   2.671   9.305  0.0641  2.1261 -0.4623
    1CHL1   C16   21   5.496   2.644   9.123 -0.0665 -0.4695  0.5386
    1CHL1  H16A   22   5.473   2.742   9.076  2.3026 -0.1272 -0.0049
    1CHL1  H16B   23   5.597   2.622   9.084 -0.3668  0.9102 -1.1371
    1CHL1   C17   24   5.391   2.527   9.106  0.8360  0.1622 -0.0645
    1CHL1   H17   25   5.446   2.432   9.092  1.1988  0.6519 -2.3001
    1CHL1   C13   26   5.318   2.518   9.241  0.2889 -0.6738  0.0572
    1CHL1   C18   27   5.219   2.639   9.252  1.0735 -0.1784  0.1714
    1CHL1  H18A   28   5.129   2.612   9.192  0.1051  2.6575  0.2097
    1CHL1  H18B   29   5.183   2.661   9.355 -0.3557  2.9475 -0.8753
    1CHL1  H18C   30   5.261   2.735   9.216  0.9732  0.9402  2.8369
    1CHL1   C12   31   5.248   2.385   9.283 -0.7120 -0.5549 -1.0808
    1CHL1  H12A   32   5.159   2.367   9.218 -1.6850 -0.5018  0.1968
    1CHL1  H12B   33   5.318   2.299   9.279 -0.0367  0.0184 -3.2380
    1CHL1   C11   34   5.200   2.386   9.433 -0.0932  0.0783 -0.4790
    1CHL1  H11A   35   5.114   2.456   9.439  0.2040  0.5598 -1.5894
    1CHL1  H11B   36   5.157   2.285   9.448  1.0513 -0.2317  0.8943
    1CHL1    C9   37   5.324   2.430   9.525  0.4234  0.2356  0.3962
    1CHL1    H9   38   5.403   2.352   9.518 -1.4371 -1.7707  0.7404
    1CHL1   C10   39   5.284   2.423   9.674  0.3713  0.5631 -1.1787
    1CHL1   C19   40   5.138   2.473   9.687 -0.0931 -0.0039 -0.5792
    1CHL1  H19A   41   5.113   2.493   9.793  0.4329 -0.8637 -0.2785
    1CHL1  H19B   42   5.125   2.569   9.633 -2.2227  1.0690  1.6048
    1CHL1  H19C   43   5.060   2.408   9.642  0.2556 -1.6208  1.0020
    1CHL1    C1   44   5.263   2.279   9.726 -0.9611  0.1910  0.6566
    1CHL1   H1A   45   5.168   2.245   9.680 -1.8874  1.6660  1.4198
    1CHL1   H1B   46   5.334   2.210   9.675 -3.0253 -2.7154  1.4224
    1CHL1    C2   47   5.268   2.252   9.873  0.0846  0.2800 -0.0128
    1CHL1   H2A   48   5.284   2.144   9.893  2.2600  0.5836  0.1697
    1CHL1   H2B   49   5.174   2.285   9.922 -0.2424  0.8819 -1.0206
    1CHL1   C20   50   5.315   2.546   8.972  0.1666 -0.2459 -0.1610
    1CHL1   H20   51   5.251   2.637   8.979 -1.0862 -0.9173 -2.0019
    1CHL1   C21   52   5.211   2.435   8.948 -0.0501 -0.2836 -0.3245
    1CHL1  H21A   53   5.144   2.402   9.031  0.4888 -1.8152 -0.4704
    1CHL1  H21B   54   5.263   2.347   8.904 -2.5704 -2.3091  0.4871
    1CHL1  H21C   55   5.143   2.466   8.866  0.4401 -0.0245 -0.6342
    1CHL1   C22   56   5.399   2.562   8.846 -0.8944  0.7304  0.5417
    1CHL1  H22A   57   5.465   2.651   8.850  1.6971 -1.1241  1.4556
    1CHL1  H22B   58   5.469   2.477   8.855  3.3283  3.9236  1.0015
    1CHL1   C23   59   5.335   2.557   8.706 -0.5002 -0.0616  0.5893
    1CHL1  H23A   60   5.413   2.553   8.627  1.0737  1.4909  1.9912
    1CHL1  H23B   61   5.271   2.468   8.687 -0.8986 -0.0142  1.6513
    1CHL1   C24   62   5.232   2.673   8.691 -0.6984 -0.1500  1.1518
    1CHL1  H24A   63   5.152   2.680   8.768 -1.3889  2.5244  0.3040
    1CHL1  H24B   64   5.285   2.770   8.697 -0.8783  0.1643 -1.3590
    1CHL1   C25   65   5.170   2.661   8.551 -0.0955  0.3089  0.3697
    1CHL1   H25   66   5.110   2.567   8.547 -1.9056  1.4424 -3.1794
    1CHL1   C26   67   5.086   2.781   8.512  0.1224  0.0674  0.1550
    1CHL1  H26A   68   5.027   2.769   8.418  1.7094  2.0537 -1.1813
    1CHL1  H26B   69   5.012   2.805   8.592  0.3501  2.2159 -0.2139
    1CHL1  H26C   70   5.147   2.874   8.505  0.0106  0.0125 -2.6025
    1CHL1   C27   71   5.273   2.643   8.438 -0.0264  0.4011  0.4508
    1CHL1  H27A   72   5.378   2.674   8.461 -0.4634  2.0658  0.3076
    1CHL1  H27B   73   5.284   2.540   8.398 -0.9907  1.1049 -1.7422
    1CHL1  H27C   74   5.247   2.704   8.349  1.7384  1.3348  0.5280
    2CHL1    C3   75   1.215   0.869   9.991  0.4542  0.1037  0.0328
    2CHL1    H3   76   1.146   0.785   9.969 -2.6698  2.5205  0.0153
    2CHL1    O3   77   1.199   0.900  10.130 -0.1709  0.7562 -0.0806
    2CHL1   H3'   78   1.255   0.978  10.135  1.1875 -0.1882 -0.0458
    2CHL1    C4   79   1.365   0.841   9.960 -0.0618  0.2842 -0.6704
    2CHL1   H4A   80   1.419   0.929  10.002 -0.1434 -0.1852  0.4489
    2CHL1   H4B   81   1.405   0.759  10.023  3.6931  1.8761 -0.7254
    2CHL1    C5   82   1.384   0.822   9.812  0.2390 -0.9935  0.2588
    2CHL1    C6   83   1.439   0.708   9.771 -0.1574  0.0204  0.3548
    2CHL1    H6   84   1.447   0.634   9.853 -1.8811  0.2469  0.7697
    2CHL1    C7   85   1.494   0.676   9.631 -0.2379 -0.0288 -0.2445
    2CHL1   H7A   86   1.600   0.641   9.629 -1.1459 -3.0277 -1.1869
    2CHL1   H7B   87   1.449   0.594   9.571 -0.0560  0.1583 -0.6467
    2CHL1    C8   88   1.480   0.803   9.543  0.1838  0.3673  0.4923
    2CHL1    H8   89   1.559   0.876   9.572 -0.0120 -0.0728  2.2528
    2CHL1   C14   90   1.481   0.761   9.394  0.5058  0.5059 -0.0525
    2CHL1   H14   91   1.386   0.707   9.376  0.0341  1.8902 -2.0392
    2CHL1   C15   92   1.583   0.653   9.347  0.1679 -0.0354 -0.4867
    2CHL1  H15A   93   1.683   0.699   9.362  0.2787 -0.1151 -0.9870
    2CHL1  H15B   94   1.559   0.556   9.395  0.9775 -0.1794 -0.3662
    2CHL1   C16   95   1.553   0.647   9.200  0.4114 -0.0784  0.3333
    2CHL1  H16A   96   1.637   0.644   9.127 -0.2879  0.6520 -0.5275
    2CHL1  H16B   97   1.482   0.565   9.175  0.8279 -0.2505 -0.3130
    2CHL1   C17   98   1.470   0.777   9.162  0.4045 -0.1335  0.0011
    2CHL1   H17   99   1.366   0.738   9.163 -0.0020  0.9400  0.1074
    2CHL1   C13  100   1.483   0.868   9.292  0.3209  0.0172  0.3107
    2CHL1   C18  101   1.619   0.942   9.290 -0.1407 -0.5258  0.4741
    2CHL1  H18A  102   1.708   0.895   9.243 -0.7192  0.1656 -1.4232
    2CHL1  H18B  103   1.601   1.044   9.248 -3.7975  0.0014  2.8675
    2CHL1  H18C  104   1.644   0.980   9.391 -0.5956 -0.3793  0.5339
    2CHL1   C12  105   1.356   0.959   9.321 -0.5043 -1.1078 -0.1632
    2CHL1  H12A  106   1.354   1.057   9.269  0.0101 -0.0076  1.7897
    2CHL1  H12B  107   1.262   0.910   9.288 -0.6787 -1.0903  0.2939
    2CHL1   C11  108   1.351   1.007   9.473 -0.4691  0.5973 -0.4708
    2CHL1  H11A  109   1.438   1.072   9.493 -1.0247  0.7214  1.8416
    2CHL1  H11B  110   1.259   1.068   9.491 -2.1641 -1.7719 -0.5674
    2CHL1    C9  111   1.358   0.889   9.569  0.0359 -0.5655  0.8070
    2CHL1    H9  112   1.264   0.832   9.551  0.0138 -0.0405 -0.9140
    2CHL1   C10  113   1.342   0.933   9.717  0.3662 -0.4080  0.0487
    2CHL1   C19  114   1.436   1.055   9.750  0.9760  0.2047  0.3127
    2CHL1  H19A  115   1.427   1.084   9.857  0.1426 -0.1980  0.3566
    2CHL1  H19B  116   1.544   1.037   9.730  0.1943 -2.3124 -2.3020
    2CHL1  H19C  117   1.405   1.147   9.696 -1.8029  0.8840  2.8004
    2CHL1    C1  118   1.200   0.978   9.758  0.3579  0.3073  0.6608
    2CHL1   H1A  119   1.176   1.076   9.713  0.5460  0.1451  0.2024
    2CHL1   H1B  120   1.128   0.896   9.734  0.1992 -0.1589  2.5723
    2CHL1    C2  121   1.172   0.991   9.912 -0.4064 -0.5177 -0.3982
    2CHL1   H2A  122   1.063   1.011   9.919 -0.5219 -0.8032 -1.2697
    2CHL1   H2B  123   1.230   1.080   9.946 -0.5816 -0.7887  0.6212
    2CHL1   C20  124   1.506   0.840   9.025  0.5513  0.1637  0.4734
    2CHL1   H20  125   1.603   0.894   9.015  0.9432 -0.6067 -0.0333
    2CHL1   C21  126   1.391   0.936   8.988  1.0224 -0.8698 -0.3155
    2CHL1  H21A  127   1.383   1.025   9.055 -1.3940 -2.3534  1.5200
    2CHL1  H21B  128   1.296   0.881   9.003  1.5487 -1.3874  1.3364
    2CHL1  H21C  129   1.397   0.976   8.884 -1.2122  0.8790  0.1421
    2CHL1   C22  130   1.503   0.738   8.906  0.2661  0.0203 -0.4625
    2CHL1  H22A  131   1.536   0.633   8.922 -0.1695 -0.1832 -0.8807
    2CHL1  H22B  132   1.398   0.724   8.873  0.4174 -1.4899 -0.3460
    2CHL1   C23  133   1.576   0.782   8.783 -0.4885  0.1253 -0.5767
    2CHL1  H23A  134   1.551   0.724   8.692  4.1682 -0.9536 -1.4303
    2CHL1  H23B  135   1.540   0.886   8.767  1.6371  1.2298  1.3746
    2CHL1   C24  136   1.726   0.776   8.792  0.2959 -0.5467 -0.5989
    2CHL1  H24A  137   1.755   0.841   8.877 -0.0112  1.9622 -2.2900
    2CHL1  H24B  138   1.762   0.671   8.795  1.1258 -0.2637 -0.2732
    2CHL1   C25  139   1.790   0.849   8.676 -0.1775 -0.4923  0.4346
    2CHL1   H25  140   1.738   0.947   8.683 -1.3163 -1.2052  3.0978
    2CHL1   C26  141   1.941   0.889   8.701  0.0010  0.5031 -0.1189
    2CHL1  H26A  142   2.015   0.808   8.714 -1.2264 -0.8801 -1.4453
    2CHL1  H26B  143   1.970   0.948   8.611 -0.7453 -1.1844 -1.5270
    2CHL1  H26C  144   1.948   0.958   8.788 -0.9352  0.4909 -0.0164
    2CHL1   C27  145   1.771   0.775   8.541  0.1873  0.2511 -0.3322
    2CHL1  H27A  146   1.666   0.748   8.518 -0.2646  0.9176  0.8363
    2CHL1  H27B  147   1.804   0.835   8.453  1.7640 -0.3350 -0.1808
    2CHL1  H27C  148   1.838   0.686   8.545  0.8139  0.7480  1.0054
    3CHL1    C3  149   3.500   6.009  10.142 -0.1281 -0.5135 -0.6447
    3CHL1    H3  150   3.420   5.938  10.115  1.7175 -2.6022 -0.8944
    3CHL1    O3  151   3.508   6.021  10.287 -0.6056 -0.0529 -0.1264
    3CHL1   H3'  152   3.589   6.072  10.296 -0.3614 -0.6031  0.8560
    3CHL1    C4  153   3.631   5.967  10.079 -0.1813  0.0983  0.4389
    3CHL1   H4A  154   3.713   6.036  10.109  0.5000 -0.8802  0.8755
    3CHL1   H4B  155   3.648   5.869  10.129  0.1855  0.8226  1.7848
    3CHL1    C5  156   3.618   5.954   9.927  0.0900  0.0400  0.2474
    3CHL1    C6  157   3.632   5.839   9.861  1.1002  0.2237 -0.0818
    3CHL1    H6  158   3.660   5.749   9.918 -3.0177 -0.7129  0.8056
    3CHL1    C7  159   3.626   5.834   9.713 -0.4926 -0.1784 -0.0388
    3CHL1   H7A  160   3.699   5.763   9.671 -1.0646 -1.3148  0.8444
    3CHL1   H7B  161   3.530   5.786   9.685 -0.6720  0.8625 -1.3422
    3CHL1    C8  162   3.637   5.971   9.643  0.2750  0.0023 -0.5400
    3CHL1    H8  163   3.739   6.014   9.652  0.4513 -0.6841  1.0864
    3CHL1   C14  164   3.587   5.951   9.501 -0.6455 -0.8626 -0.1873
    3CHL1   H14  165   3.480   5.925   9.517 -1.1080  0.1773 -1.4167
    3CHL1   C15  166   3.636   5.827   9.409  0.6885 -0.9012 -0.0921
    3CHL1  H15A  167   3.747   5.820   9.412  0.7803 -1.0413 -2.2737
    3CHL1  H15B  168   3.596   5.724   9.421  1.9803 -1.5173 -0.8619
    3CHL1   C16  169   3.596   5.871   9.265  0.1231 -0.4216  0.5288
    3CHL1  H16A  170   3.683   5.880   9.197  0.3220  1.3993  0.9744
    3CHL1  H16B  171   3.532   5.791   9.222  1.8365 -0.5262 -2.0011
    3CHL1   C17  172   3.523   6.013   9.277 -0.3778  0.3134  0.1692
    3CHL1   H17  173   3.419   5.982   9.301 -1.0124 -0.3878 -3.0609
    3CHL1   C13  174   3.582   6.074   9.410  0.3158 -0.0573  0.0104
    3CHL1   C18  175   3.722   6.131   9.389  0.2995 -0.6932 -0.0816
    3CHL1  H18A  176   3.789   6.063   9.332  0.2231 -0.6682 -0.2010
    3CHL1  H18B  177   3.709   6.221   9.327  0.9928  0.6010  1.5679
    3CHL1  H18C  178   3.770   6.156   9.486 -1.1325  0.1955  0.4203
    3CHL1   C12  179   3.499   6.177   9.478  0.1391 -0.1333 -0.3574
    3CHL1  H12A  180   3.507   6.271   9.418  1.7527  1.2188  1.8263
    3CHL1  H12B  181   3.392   6.146   9.478 -0.5766  2.1275 -0.4953
    3CHL1   C11  182   3.543   6.202   9.622  0.6213  1.0707  0.1701
    3CHL1  H11A  183   3.637   6.262   9.621  0.3270  1.5232 -0.8200
    3CHL1  H11B  184   3.473   6.274   9.668 -0.7518  1.2908 -2.1330
    3CHL1    C9  185   3.550   6.072   9.708  0.0968  0.0033 -0.2849
    3CHL1    H9  186   3.451   6.023   9.703  0.7724 -1.2948 -1.8403
    3CHL1   C10  187   3.579   6.088   9.861  0.5222  0.0177  0.1739
    3CHL1   C19  188   3.690   6.191   9.874 -0.3803  0.2438 -0.2296
    3CHL1  H19A  189   3.661   6.290   9.832  2.1193  0.7289 -0.9432
    3CHL1  H19B  190   3.718   6.207   9.980  1.5954  3.0208 -1.0532
    3CHL1  H19C  191   3.787   6.162   9.829 -0.4819 -0.0097 -0.2860
    3CHL1    C1  192   3.451   6.141   9.930 -0.6021 -0.5201  0.4880
    3CHL1   H1A  193   3.432   6.245   9.894 -1.7426 -0.8082  0.1933
    3CHL1   H1B  194   3.362   6.083   9.896 -0.0226 -0.7237 -0.7488
    3CHL1    C2  195   3.459   6.150  10.090 -0.1796 -0.4001 -0.0296
    3CHL1   H2A  196   3.358   6.179  10.124 -0.3110 -0.2763 -0.5149
    3CHL1   H2B  197   3.538   6.220  10.126  0.2891 -0.6787 -0.5029
    3CHL1   C20  198   3.527   6.108   9.159  0.3553 -0.1173 -0.0697
    3CHL1   H20  199   3.526   6.214   9.192 -0.9532  0.0580 -0.6062
    3CHL1   C21  200   3.392   6.091   9.079  0.3133 -0.1878  0.8067
    3CHL1  H21A  201   3.304   6.105   9.146 -0.3902 -4.0440  0.8965
    3CHL1  H21B  202   3.396   5.989   9.034  1.9764 -0.2959  1.1613
    3CHL1  H21C  203   3.382   6.164   8.996 -0.2452  0.4829  1.4428
    3CHL1   C22  204   3.641   6.089   9.060 -0.2003 -0.6220  0.1274
    3CHL1  H22A  205   3.737   6.088   9.116 -0.2112 -0.9984  0.1393
    3CHL1  H22B  206   3.625   5.986   9.021 -1.3571  0.0531 -1.2560
    3CHL1   C23  207   3.661   6.187   8.943 -0.0103 -0.1589 -0.1154
    3CHL1  H23A  208   3.590   6.166   8.860 -2.3253 -0.9343  1.9484
    3CHL1  H23B  209   3.652   6.289   8.985 -0.3914 -0.0513 -0.4572
    3CHL1   C24  210   3.804   6.182   8.884 -0.9173 -0.2926  0.1153
    3CHL1  H24A  211   3.880   6.174   8.964 -1.1360  1.3295  0.5222
    3CHL1  H24B  212   3.804   6.085   8.830 -0.7977 -0.8282  1.0658
    3CHL1   C25  213   3.833   6.299   8.793  0.0551  0.4225  0.1848
    3CHL1   H25  214   3.841   6.393   8.852  0.8819  2.7554 -3.3296
    3CHL1   C26  215   3.973   6.285   8.722  0.9344 -0.5270  0.2565
    3CHL1  H26A  216   3.994   6.372   8.656  3.4517 -0.8553  0.5392
    3CHL1  H26B  217   4.057   6.287   8.794  0.0630  2.3118  1.3624
    3CHL1  H26C  218   3.958   6.203   8.649 -2.4588 -0.6305  0.8954
    3CHL1   C27  219   3.719   6.324   8.694 -0.0057 -0.9340 -0.4069
    3CHL1  H27A  220   3.683   6.224   8.660 -1.5740 -0.5269 -0.0263
    3CHL1  H27B  221   3.636   6.385   8.736  1.6360  0.1039  1.4927
    3CHL1  H27C  222   3.742   6.387   8.605  2.2604  0.3172  0.9768
    4CHL1    C3  223   1.448   1.597  10.229 -0.2430  0.4980 -0.0198
    4CHL1    H3  224   1.548   1.571  10.188  0.1691  2.0676 -0.0745
    4CHL1    O3  225   1.463   1.613  10.367  0.0023  0.0008  0.5201
    4CHL1   H3'  226   1.386   1.664  10.396 -0.4676  0.4935 -1.4680
    4CHL1    C4  227   1.399   1.724  10.170 -0.2807  0.0832 -0.3114
    4CHL1   H4A  228   1.303   1.748  10.222 -0.0613 -2.7610  1.6242
    4CHL1   H4B  229   1.472   1.805  10.193 -0.4819  0.1818 -0.0114
    4CHL1    C5  230   1.381   1.704  10.018  0.2077  0.7088 -0.4253
    4CHL1    C6  231   1.443   1.786   9.930  0.5518 -0.1259 -0.5130
    4CHL1    H6  232   1.505   1.867   9.972  1.0447  0.5494 -2.4177
    4CHL1    C7  233   1.436   1.782   9.784  0.3792 -0.2222  0.3608
    4CHL1   H7A  234   1.408   1.882   9.745 -0.5332  0.4621  2.6145
    4CHL1   H7B  235   1.536   1.743   9.753  0.7272  0.4922  0.5560
    4CHL1    C8  236   1.326   1.681   9.736 -0.0732  0.4332  0.1821
    4CHL1    H8  237   1.230   1.736   9.730  0.0738  0.6079 -0.6398
    4CHL1   C14  238   1.356   1.624   9.596 -0.2221  0.0755 -0.0098
    4CHL1   H14  239   1.451   1.570   9.614 -1.8633 -2.8068  0.6179
    4CHL1   C15  240   1.393   1.725   9.498 -0.2737 -0.1348 -0.1471
    4CHL1  H15A  241   1.334   1.817   9.518 -1.6330 -1.1418  0.6047
    4CHL1  H15B  242   1.501   1.752   9.500 -0.0402 -0.9528 -1.0014
    4CHL1   C16  243   1.367   1.666   9.360  0.3666  0.3862  0.2611
    4CHL1  H16A  244   1.290   1.722   9.303 -0.5828 -0.6731  0.4466
    4CHL1  H16B  245   1.453   1.665   9.291 -0.3166  0.0456 -0.6063
    4CHL1   C17  246   1.315   1.515   9.392 -0.3010 -0.1212 -0.6502
    4CHL1   H17  247   1.406   1.453   9.401  1.0937  1.8518 -0.4083
    4CHL1   C13  248   1.256   1.531   9.532  0.2709 -0.0974 -0.3332
    4CHL1   C18  249   1.114   1.594   9.513  0.4846 -0.3213  0.6483
    4CHL1  H18A  250   1.078   1.600   9.618 -0.2222  1.0887  0.3407
    4CHL1  H18B  251   1.116   1.698   9.473 -1.3217  0.3014  2.0486
    4CHL1  H18C  252   1.050   1.521   9.460  0.2644 -0.2225  0.7782
    4CHL1   C12  253   1.236   1.410   9.628 -0.5966 -0.2482  0.0124
    4CHL1  H12A  254   1.159   1.337   9.595 -0.0292 -0.9267  0.1551
    4CHL1  H12B  255   1.330   1.352   9.620  0.2188  0.8413  1.3296
    4CHL1   C11  256   1.215   1.451   9.773 -0.4060  0.5638 -0.3096
    4CHL1  H11A  257   1.112   1.493   9.779 -0.1815  1.5554 -2.5147
    4CHL1  H11B  258   1.222   1.354   9.827 -1.4485 -1.4898 -3.5916
    4CHL1    C9  259   1.323   1.554   9.825  0.2337  0.1340  0.0618
    4CHL1    H9  260   1.424   1.509   9.821  0.7576  1.1136  1.5234
    4CHL1   C10  261   1.301   1.583   9.973 -0.8485 -0.8259  0.2229
    4CHL1   C19  262   1.151   1.624  10.006  0.1338  0.5540 -0.1914
    4CHL1  H19A  263   1.111   1.715   9.957 -0.8561  0.5998  0.6481
    4CHL1  H19B  264   1.083   1.538   9.989 -1.9100  1.5712  2.1483
    4CHL1  H19C  265   1.146   1.645  10.116 -0.9820 -0.4369 -0.0338
    4CHL1    C1  266   1.346   1.451  10.054  0.4934  0.0192 -0.0055
    4CHL1   H1A  267   1.281   1.365  10.029  2.2623 -0.9931 -1.3491
    4CHL1   H1B  268   1.448   1.419  10.025  0.2087 -1.2498  0.3475
    4CHL1    C2  269   1.355   1.475  10.202 -0.1757 -0.5146  0.3131
    4CHL1   H2A  270   1.390   1.380  10.247 -1.5293 -1.1997 -0.0107
    4CHL1   H2B  271   1.256   1.486  10.252 -0.0782 -0.9498  0.6052
    4CHL1   C20  272   1.233   1.455   9.279  0.5121 -0.0886 -0.0646
    4CHL1   H20  273   1.148   1.523   9.253  1.5781  0.9389 -0.9989
    4CHL1   C21  274   1.168   1.319   9.328 -0.2041  0.1858  0.7792
    4CHL1  H21A  275   1.091   1.317   9.407 -1.1967  0.0709 -0.1707
    4CHL1  H21B  276   1.250   1.251   9.359  2.1892  1.5298 -2.1043
    4CHL1  H21C  277   1.125   1.268   9.239  0.1602 -1.8310  1.7081
    4CHL1   C22  278   1.316   1.428   9.149 -0.3759 -0.2149  0.2251
    4CHL1  H22A  279   1.370   1.523   9.131 -0.6567 -0.3232 -1.3209
    4CHL1  H22B  280   1.392   1.349   9.168  1.1419  1.2887  0.6395
    4CHL1   C23  281   1.238   1.383   9.023 -0.0601  0.1102 -0.4263
    4CHL1  H23A  282   1.192   1.285   9.048 -0.4711  0.8477  2.0426
    4CHL1  H23B  283   1.155   1.453   9.000 -1.5313 -1.0312  1.1082
    4CHL1   C24  284   1.324   1.378   8.900 -0.7454  0.1202 -0.3405
    4CHL1  H24A  285   1.377   1.474   8.886 -0.5703 -0.2172 -2.2171
    4CHL1  H24B  286   1.399   1.298   8.919 -0.6099  0.1816 -0.6174
    4CHL1   C25  287   1.239   1.362   8.780 -0.0627  1.1724  0.2154
    4CHL1   H25  288   1.154   1.431   8.799 -0.1626  0.6133  2.0103
    4CHL1   C26  289   1.313   1.402   8.649  0.3529 -0.3673  0.5364
    4CHL1  H26A  290   1.245   1.433   8.568  1.3350  0.6358  0.0667
    4CHL1  H26B  291   1.384   1.487   8.662 -2.6115  2.2413  0.7431
    4CHL1  H26C  292   1.372   1.318   8.606 -0.3939  0.4652 -2.3377
    4CHL1   C27  293   1.176   1.222   8.754 -0.2633  0.6122 -0.8605
    4CHL1  H27A  294   1.121   1.191   8.845 -1.9789 -0.7530 -2.3014
    4CHL1  H27B  295   1.111   1.212   8.665 -1.9392 -1.8787  0.5219
    4CHL1  H27C  296   1.263   1.154   8.740  0.2968  1.0697  0.2875
    5CHL1    C3  297   3.018   4.564  10.052  0.6037  0.0251 -0.7642
    5CHL1    H3  298   2.996   4.455  10.046  1.5460 -0.1388 -1.3810
    5CHL1    O3  299   3.043   4.610  10.187 -0.1012 -0.1363  0.2879
    5CHL1   H3'  300   3.008   4.699  10.187  0.6723  0.2168 -1.6000
    5CHL1    C4  301   3.138   4.594   9.958  0.0067 -0.1996  0.0240
    5CHL1   H4A  302   3.147   4.703   9.977 -0.8720 -0.6057  3.4939
    5CHL1   H4B  303   3.233   4.557  10.001 -0.4013 -0.3831  0.7879
    5CHL1    C5  304   3.108   4.579   9.809  0.0147  0.8735  0.1294
    5CHL1    C6  305   3.184   4.501   9.729  0.5980 -0.3088 -0.2054
    5CHL1    H6  306   3.279   4.453   9.759 -0.4789 -2.7675 -0.4973
    5CHL1    C7  307   3.157   4.475   9.583 -0.2082  0.4840 -0.2684
    5CHL1   H7A  308   3.251   4.496   9.527 -0.8165  2.0006 -0.7594
    5CHL1   H7B  309   3.146   4.366   9.566 -0.4633  0.1147  1.9565
    5CHL1    C8  310   3.045   4.561   9.525 -0.4360  0.7430 -0.5746
    5CHL1    H8  311   3.084   4.665   9.526  1.0150  0.2314 -1.1815
    5CHL1   C14  312   3.002   4.508   9.381 -0.2345  0.4907  0.5111
    5CHL1   H14  313   2.971   4.403   9.401 -0.8127  0.4295 -0.6230
    5CHL1   C15  314   3.108   4.490   9.266 -0.4186  0.1433 -0.3737
    5CHL1  H15A  315   3.172   4.581   9.256  1.0987 -0.9555 -1.1530
    5CHL1  H15B  316   3.153   4.394   9.299 -0.1036 -0.1053 -1.4670
    5CHL1   C16  317   3.026   4.477   9.141  0.1642  0.6066 -0.5728
    5CHL1  H16A  318   3.052   4.553   9.064 -0.4100  0.5705 -0.8080
    5CHL1  H16B  319   3.032   4.372   9.108  0.3352  0.1066  0.9798
    5CHL1   C17  320   2.881   4.502   9.184  0.4663  0.5417 -0.4275
    5CHL1   H17  321   2.831   4.404   9.200  0.0875  0.1617 -3.4450
    5CHL1   C13  322   2.886   4.573   9.324 -0.6071 -0.4682  0.0959
    5CHL1   C18  323   2.921   4.718   9.285  0.1409 -0.0676 -0.2909
    5CHL1  H18A  324   2.837   4.782   9.252  1.2213  1.9428  0.6502
    5CHL1  H18B  325   2.952   4.777   9.374 -0.4583 -0.9015  0.4809
    5CHL1  H18C  326   2.994   4.715   9.201  0.7374  0.7006  0.1805
    5CHL1   C12  327   2.763   4.566   9.417  0.0710  0.2889 -0.3632
    5CHL1  H12A  328   2.679   4.623   9.372  0.3126  0.2529 -0.8691
    5CHL1  H12B  329   2.737   4.461   9.439 -0.1257  0.6896  1.4560
    5CHL1   C11  330   2.801   4.632   9.551 -0.3268 -0.2848 -0.3947
    5CHL1  H11A  331   2.811   4.741   9.536 -3.5292  0.1080 -0.4616
    5CHL1  H11B  332   2.715   4.616   9.619 -0.3973  0.5743 -0.2724
    5CHL1    C9  333   2.923   4.565   9.619 -0.6981  0.0133  0.1721
    5CHL1    H9  334   2.890   4.460   9.634 -1.3959  0.1477 -0.3702
    5CHL1   C10  335   2.969   4.629   9.761 -0.0136 -0.8577 -0.4283
    5CHL1   C19  336   2.984   4.783   9.749  0.8264 -0.1186 -1.2471
    5CHL1  H19A  337   3.062   4.815   9.675  0.5552 -0.3839 -1.6512
    5CHL1  H19B  338   2.896   4.844   9.718  1.1007  0.5465 -0.7429
    5CHL1  H19C  339   3.035   4.819   9.841 -1.1702 -0.5316  0.0862
    5CHL1    C1  340   2.859   4.591   9.860  0.7695 -0.2415  0.0230
    5CHL1   H1A  341   2.762   4.644   9.851  0.8507  0.0153  0.5974
    5CHL1   H1B  342   2.840   4.483   9.843  2.8385 -0.3164 -2.4543
    5CHL1    C2  343   2.889   4.624  10.005  0.0678 -0.1308 -0.6604
    5CHL1   H2A  344   2.807   4.586  10.069  1.0969  0.7445  1.2579
    5CHL1   H2B  345   2.892   4.734  10.018  1.2072 -0.0774 -1.2025
    5CHL1   C20  346   2.800   4.559   9.065  0.1287 -0.1898 -0.0639
    5CHL1   H20  347   2.841   4.659   9.039 -0.6175  0.5904  1.6400
    5CHL1   C21  348   2.650   4.606   9.099  0.1868  0.2872 -0.5036
    5CHL1  H21A  349   2.660   4.701   9.155 -1.0792 -0.1070  0.4481
    5CHL1  H21B  350   2.600   4.526   9.159 -3.0902  1.4217 -1.4929
    5CHL1  H21C  351   2.590   4.630   9.009  0.1707  1.3629 -0.2182
    5CHL1   C22  352   2.796   4.455   8.939 -0.2264 -0.0972  0.7496
    5CHL1  H22A  353   2.872   4.374   8.941  0.2150  0.3013  0.1818
    5CHL1  H22B  354   2.699   4.402   8.953  0.6637 -2.3214 -0.8507
    5CHL1   C23  355   2.806   4.521   8.801 -0.4214 -0.3354  0.3841
    5CHL1  H23A  356   2.729   4.599   8.784  0.6187  0.1718 -2.5711
    5CHL1  H23B  357   2.910   4.557   8.789 -0.3311 -0.6051  0.3526
    5CHL1   C24  358   2.790   4.409   8.698 -0.0142  0.0606  0.4066
    5CHL1  H24A  359   2.869   4.334   8.722  0.1195  0.3730  0.9632
    5CHL1  H24B  360   2.692   4.357   8.689 -0.5658  1.4238 -3.9908
    5CHL1   C25  361   2.814   4.448   8.550 -0.1408  0.4546 -0.2606
    5CHL1   H25  362   2.733   4.516   8.517 -1.5248  0.5858  2.9887
    5CHL1   C26  363   2.943   4.520   8.522 -0.1553 -0.1782 -0.5776
    5CHL1  H26A  364   2.946   4.544   8.413 -1.0419 -1.9185 -1.0254
    5CHL1  H26B  365   2.964   4.608   8.586  1.3686 -0.4257 -0.6989
    5CHL1  H26C  366   3.032   4.459   8.547 -0.5999 -0.6201 -0.0408
    5CHL1   C27  367   2.808   4.326   8.454  0.1533 -0.0879  0.5425
    5CHL1  H27A  368   2.796   4.368   8.352 -0.2998  0.7462  0.9277
    5CHL1  H27B  369   2.907   4.274   8.455 -0.0768 -0.7386 -2.1158
    5CHL1  H27C  370   2.729   4.253   8.481  1.5776 -1.4395  1.2229
    6CHL1    C3  371   5.945   2.117  10.062  0.0088 -0.1149  0.3780
    6CHL1    H3  372   5.979   2.013  10.044 -1.4328 -0.9723  2.2724
    6CHL1    O3  373   5.968   2.134  10.198 -0.1218  0.1135 -0.2677
    6CHL1   H3'  374   5.902   2.196  10.231 -1.8773  0.0438 -3.2957
    6CHL1    C4  375   6.020   2.218   9.982 -0.9849  0.0859 -0.7404
    6CHL1   H4A  376   6.003   2.326  10.003 -0.7928  0.0909 -0.6102
    6CHL1   H4B  377   6.127   2.198  10.003 -0.6012  0.9540 -1.8140
    6CHL1    C5  378   5.987   2.204   9.834  0.3246  0.4510 -0.2924
    6CHL1    C6  379   6.080   2.189   9.741 -0.5493 -0.0235 -0.2609
    6CHL1    H6  380   6.186   2.205   9.764 -0.6547  0.6531 -0.2099
    6CHL1    C7  381   6.063   2.177   9.597 -0.3434  0.6488  0.5775
    6CHL1   H7A  382   6.138   2.231   9.534  0.1742 -1.0931 -0.3563
    6CHL1   H7B  383   6.080   2.068   9.588  2.1550  0.9192  1.1058
    6CHL1    C8  384   5.922   2.213   9.547  0.2703  0.0995 -0.6976
    6CHL1    H8  385   5.916   2.324   9.549  1.8385  0.2136 -0.6516
    6CHL1   C14  386   5.881   2.149   9.413  0.2250  0.2658  0.3597
    6CHL1   H14  387   5.864   2.041   9.436 -0.3182  0.5357  1.2735
    6CHL1   C15  388   5.981   2.141   9.294 -0.3691 -0.5433  0.3751
    6CHL1  H15A  389   6.047   2.230   9.298 -1.0779  0.0934 -1.1730
    6CHL1  H15B  390   6.038   2.048   9.312  1.7779  0.7992  0.9620
    6CHL1   C16  391   5.893   2.136   9.168  0.2218  0.3321  0.7845
    6CHL1  H16A  392   5.911   2.228   9.108 -0.0411 -1.6249 -2.5688
    6CHL1  H16B  393   5.915   2.044   9.111 -0.3382  0.2509  0.6886
    6CHL1   C17  394   5.746   2.121   9.223  0.1864  0.0133 -0.2799
    6CHL1   H17  395   5.734   2.013   9.245  0.0298  0.3369  1.3384
    6CHL1   C13  396   5.750   2.200   9.359  0.4474 -0.2225  0.0574
    6CHL1   C18  397   5.764   2.353   9.324 -0.1400 -0.3364  0.4964
    6CHL1  H18A  398   5.765   2.413   9.417 -0.4204  0.6175 -0.0969
    6CHL1  H18B  399   5.858   2.367   9.266 -0.3511  1.5859  0.5799
    6CHL1  H18C  400   5.685   2.389   9.254 -1.4952 -0.6539  1.8071
    6CHL1   C12  401   5.640   2.172   9.462  0.2972  0.9314  0.2794
    6CHL1  H12A  402   5.551   2.225   9.421 -0.9425 -0.8418  0.5485
    6CHL1  H12B  403   5.610   2.065   9.454  0.5969  0.9321 -1.1993
    6CHL1   C11  404   5.672   2.215   9.603 -0.0557 -0.5781  0.1622
    6CHL1  H11A  405   5.657   2.325   9.609 -0.3207 -0.6752  1.6138
    6CHL1  H11B  406   5.595   2.173   9.671 -1.2431  0.7903 -0.2805
    6CHL1    C9  407   5.816   2.168   9.648  0.1944  1.2019 -0.6927
    6CHL1    H9  408   5.818   2.058   9.633 -1.7958  1.0746 -0.3212
    6CHL1   C10  409   5.840   2.200   9.800  0.3622  0.4836 -0.0728
    6CHL1   C19  410   5.779   2.338   9.829  0.0994 -0.5330  0.2348
    6CHL1  H19A  411   5.669   2.326   9.832 -0.1784  1.2394 -1.2867
    6CHL1  H19B  412   5.812   2.373   9.929  0.4447 -0.8768  0.2419
    6CHL1  H19C  413   5.807   2.410   9.750  1.3695 -0.0886  1.0546
    6CHL1    C1  414   5.767   2.095   9.887 -0.5061 -0.3355  0.6414
    6CHL1   H1A  415   5.660   2.114   9.863  0.0186  1.4078 -0.5306
    6CHL1   H1B  416   5.788   1.991   9.857 -0.6175 -0.2517  0.2720
    6CHL1    C2  417   5.792   2.112  10.037  0.3253  0.3691 -0.0035
    6CHL1   H2A  418   5.745   2.023  10.084 -0.8606  1.4239  0.8699
    6CHL1   H2B  419   5.747   2.207  10.072  0.9438  0.3305  0.8998
    6CHL1   C20  420   5.624   2.147   9.121 -0.6810 -0.5677 -0.0178
    6CHL1   H20  421   5.593   2.254   9.128  1.6884  0.3164 -1.7156
    6CHL1   C21  422   5.510   2.051   9.163  0.0841 -0.6425 -0.2326
    6CHL1  H21A  423   5.414   2.084   9.117 -0.2311 -2.0877 -0.6755
    6CHL1  H21B  424   5.487   2.057   9.272  2.4082  0.2477  0.2668
    6CHL1  H21C  425   5.540   1.950   9.128  1.1761 -1.0534  1.7384
    6CHL1   C22  426   5.662   2.123   8.975  0.3722 -0.1232  0.1285
    6CHL1  H22A  427   5.754   2.183   8.955  1.1930 -0.8167  1.5816
    6CHL1  H22B  428   5.693   2.017   8.962 -1.7539 -0.9691  1.4577
    6CHL1   C23  429   5.543   2.157   8.887 -0.2760 -0.3821  0.4989
    6CHL1  H23A  430   5.471   2.072   8.879 -1.1290  0.4156 -0.5279
    6CHL1  H23B  431   5.495   2.249   8.927  0.6311 -0.2308  1.2752
    6CHL1   C24  432   5.589   2.188   8.739 -0.9911 -0.5335  0.3065
    6CHL1  H24A  433   5.647   2.281   8.756 -0.9310 -1.0357  3.5068
    6CHL1  H24B  434   5.651   2.105   8.699  0.4322 -0.1692  1.6841
    6CHL1   C25  435   5.473   2.227   8.646 -0.9895  0.0769 -0.4089
    6CHL1   H25  436   5.400   2.288   8.704  0.8630  0.9505  1.1051
    6CHL1   C26  437   5.538   2.304   8.527 -0.0844  0.3471 -0.0831
    6CHL1  H26A  438   5.615   2.241   8.477  1.8931 -1.2141  4.4488
    6CHL1  H26B  439   5.453   2.333   8.462  0.0222  1.2455  0.1720
    6CHL1  H26C  440   5.596   2.395   8.553  1.5082  0.0523 -2.2464
    6CHL1   C27  441   5.401   2.097   8.606  0.0069 -0.2060  0.1709
    6CHL1  H27A  442   5.393   2.024   8.689 -0.5935 -0.8765 -0.4688
    6CHL1  H27B  443   5.301   2.118   8.564 -0.9054 -0.1621  2.2473
    6CHL1  H27C  444   5.440   2.046   8.516 -1.9435 -2.5796  0.5768
    7CHL1    C3  445   4.355   5.968  10.412  0.6299  0.1386 -0.2100
    7CHL1    H3  446   4.261   6.016  10.377  0.3047 -1.0617 -1.0678
    7CHL1    O3  447   4.368   5.977  10.557  0.2392 -0.0657 -0.3111
    7CHL1   H3'  448   4.425   6.052  10.577  1.9183 -1.1387 -0.7895
    7CHL1    C4  449   4.358   5.818  10.364  0.0030  0.1078 -0.2280
    7CHL1   H4A  450   4.452   5.785  10.413 -0.8306 -0.0662  1.2864
    7CHL1   H4B  451   4.267   5.767  10.400 -2.4000  1.3536 -3.9517
    7CHL1    C5  452   4.372   5.810  10.219  0.6873  0.2733 -0.0432
    7CHL1    C6  453   4.291   5.736  10.145  0.1196  0.7863  0.7142
    7CHL1    H6  454   4.203   5.683  10.184 -1.2616  2.2566 -0.2738
    7CHL1    C7  455   4.302   5.704   9.992  0.9754  0.2334  0.0922
    7CHL1   H7A  456   4.284   5.596   9.975 -2.0870  0.5827  0.5882
    7CHL1   H7B  457   4.228   5.764   9.935  0.3348  0.1734  0.8579
    7CHL1    C8  458   4.436   5.764   9.939 -0.8051  0.1167  0.1304
    7CHL1    H8  459   4.520   5.695   9.963 -1.0227 -0.2202 -0.0728
    7CHL1   C14  460   4.427   5.783   9.781 -0.4516 -0.1584 -0.4653
    7CHL1   H14  461   4.354   5.864   9.758  1.4184  0.9058 -3.1707
    7CHL1   C15  462   4.380   5.663   9.704 -0.1449  0.1632  0.1347
    7CHL1  H15A  463   4.435   5.574   9.742 -1.0986  0.3875  2.2195
    7CHL1  H15B  464   4.271   5.649   9.721 -0.1310 -0.6366 -0.3848
    7CHL1   C16  465   4.414   5.685   9.561 -0.7332 -0.2919  0.0105
    7CHL1  H16A  466   4.480   5.600   9.534 -0.4973  0.3828 -1.5894
    7CHL1  H16B  467   4.324   5.690   9.496 -0.5773  1.2184 -0.1051
    7CHL1   C17  468   4.511   5.813   9.563  0.2378  0.4726 -0.4904
    7CHL1   H17  469   4.444   5.896   9.533 -0.9851 -1.2566 -2.9655
    7CHL1   C13  470   4.558   5.826   9.714  0.1990 -0.7430 -0.3235
    7CHL1   C18  471   4.677   5.737   9.749  0.2876  0.4916  0.3687
    7CHL1  H18A  472   4.693   5.733   9.859 -2.3459  0.2413  0.8177
    7CHL1  H18B  473   4.652   5.632   9.724 -1.8937  0.7914  1.0534
    7CHL1  H18C  474   4.768   5.769   9.694  1.5314 -2.1971  0.7111
    7CHL1   C12  475   4.590   5.972   9.761  0.0279 -0.5676 -0.2079
    7CHL1  H12A  476   4.693   5.999   9.733 -0.6259  1.9879 -0.3791
    7CHL1  H12B  477   4.518   6.045   9.719  2.5792  0.1904 -3.6041
    7CHL1   C11  478   4.586   5.980   9.920  0.2580 -0.5890 -0.3687
    7CHL1  H11A  479   4.688   5.949   9.951  0.5234 -0.0701 -0.7075
    7CHL1  H11B  480   4.571   6.087   9.944 -0.6169 -0.6548 -0.5870
    7CHL1    C9  481   4.469   5.901   9.998  0.3563 -0.1816  0.4508
    7CHL1    H9  482   4.381   5.966   9.983  0.4243  0.4620  2.5622
    7CHL1   C10  483   4.490   5.889  10.155 -0.5299  0.6333 -0.3473
    7CHL1   C19  484   4.625   5.828  10.185  0.9060  0.1388  0.1529
    7CHL1  H19A  485   4.712   5.893  10.161  0.7216 -0.0881 -1.1938
    7CHL1  H19B  486   4.637   5.807  10.293  0.6105 -0.0518  0.1496
    7CHL1  H19C  487   4.626   5.727  10.138 -1.7390 -0.4514  1.1836
    7CHL1    C1  488   4.483   6.041  10.212 -0.7688 -0.1116 -0.8374
    7CHL1   H1A  489   4.572   6.098  10.178  0.4224  0.0068  2.1716
    7CHL1   H1B  490   4.395   6.094  10.170 -0.8215 -0.0670 -0.6686
    7CHL1    C2  491   4.471   6.043  10.362  0.4077 -0.4938  0.2855
    7CHL1   H2A  492   4.480   6.148  10.398  0.5091  0.6527 -2.7290
    7CHL1   H2B  493   4.567   5.995  10.389  1.6540  1.1464 -0.9601
    7CHL1   C20  494   4.620   5.805   9.455  0.3133  0.1133  0.6035
    7CHL1   H20  495   4.676   5.710   9.472 -0.4350 -0.0446  2.3227
    7CHL1   C21  496   4.724   5.925   9.459  0.4327 -0.1850 -0.2444
    7CHL1  H21A  497   4.669   6.017   9.429  0.9882  0.0763 -0.4719
    7CHL1  H21B  498   4.802   5.900   9.384  2.2169 -0.6013  1.6567
    7CHL1  H21C  499   4.765   5.944   9.561  0.8830  1.2088 -0.6753
    7CHL1   C22  500   4.545   5.789   9.314 -0.1729 -0.1443  0.5740
    7CHL1  H22A  501   4.459   5.720   9.327  0.2794 -0.6012  1.2030
    7CHL1  H22B  502   4.508   5.890   9.286  0.1649 -0.7316 -2.2983
    7CHL1   C23  503   4.637   5.731   9.205 -0.1825  0.0194  0.1291
    7CHL1  H23A  504   4.732   5.787   9.192 -0.5637  0.2565 -2.0554
    7CHL1  H23B  505   4.672   5.627   9.224  0.7121  0.1376 -0.7890
    7CHL1   C24  506   4.572   5.738   9.070  0.0667  0.0062  0.6815
    7CHL1  H24A  507   4.547   5.842   9.037 -3.2333  0.2696  3.3935
    7CHL1  H24B  508   4.645   5.695   8.999  0.6998  0.3044  1.1429
    7CHL1   C25  509   4.422   5.674   9.066  0.7189  0.4498  0.0864
    7CHL1   H25  510   4.353   5.706   9.147  1.6166 -1.0679  1.5120
    7CHL1   C26  511   4.346   5.694   8.942  0.3257 -0.0660  0.7003
    7CHL1  H26A  512   4.245   5.648   8.948 -0.1934  0.6938 -1.3351
    7CHL1  H26B  513   4.328   5.802   8.923 -0.1112 -0.3111 -0.3497
    7CHL1  H26C  514   4.392   5.640   8.857  0.4469  0.1648  0.6198
    7CHL1   C27  515   4.429   5.520   9.092 -0.2123  0.2345  0.6084
    7CHL1  H27A  516   4.455   5.521   9.200 -0.4136 -1.3103  0.6929
    7CHL1  H27B  517   4.326   5.477   9.089 -0.0102 -0.2426  0.4963
    7CHL1  H27C  518   4.506   5.472   9.028 -0.7174  2.4776 -1.8559
    8CHL1    C3  519   4.252   0.873  10.293  0.2579  0.3551 -0.3018
    8CHL1    H3  520   4.308   0.808  10.222 -0.5740 -1.2616  0.4572
    8CHL1    O3  521   4.275   0.847  10.428  0.5866 -0.6154  0.2018
    8CHL1   H3'  522   4.220   0.911  10.475 -0.4676 -0.2294 -1.4811
    8CHL1    C4  523   4.285   1.022  10.259  0.4667  0.6763 -0.2043
    8CHL1   H4A  524   4.234   1.096  10.324  0.8323 -0.7301  1.7613
    8CHL1   H4B  525   4.392   1.039  10.280  0.0990  1.8537  0.8326
    8CHL1    C5  526   4.259   1.045  10.108 -0.1647  0.1212 -0.2683
    8CHL1    C6  527   4.357   1.097  10.031  0.4727 -0.0268 -1.4456
    8CHL1    H6  528   4.449   1.117  10.086 -1.5948  1.7142  1.6980
    8CHL1    C7  529   4.337   1.122   9.883 -0.1906 -0.1565 -0.4352
    8CHL1   H7A  530   4.377   1.219   9.847 -3.4736  2.0330  1.2637
    8CHL1   H7B  531   4.398   1.044   9.833  0.3572  0.2538 -0.4228
    8CHL1    C8  532   4.190   1.108   9.836  0.3646  0.4052  0.2719
    8CHL1    H8  533   4.142   1.198   9.880  0.1489  0.2879  0.2762
    8CHL1   C14  534   4.185   1.106   9.685  0.1445  0.2822 -0.0856
    8CHL1   H14  535   4.241   1.010   9.674  0.6078  0.7422 -2.1350
    8CHL1   C15  536   4.259   1.212   9.601  0.4843 -0.7888 -0.5872
    8CHL1  H15A  537   4.247   1.315   9.641  2.8814 -1.3460  1.8489
    8CHL1  H15B  538   4.368   1.195   9.588  0.4558 -0.2500 -1.7218
    8CHL1   C16  539   4.188   1.206   9.469  0.7241  0.3439  0.2759
    8CHL1  H16A  540   4.132   1.300   9.449 -1.5731 -0.7181  1.2876
    8CHL1  H16B  541   4.253   1.181   9.383  1.1643  1.3412  0.3119
    8CHL1   C17  542   4.079   1.093   9.481 -0.2805  0.6762 -0.1198
    8CHL1   H17  543   4.135   0.997   9.476 -2.0907 -0.4768  0.8978
    8CHL1   C13  544   4.040   1.090   9.630 -0.3261  0.1683 -0.7991
    8CHL1   C18  545   3.953   1.217   9.663  0.5185  0.3781 -0.7794
    8CHL1  H18A  546   3.924   1.231   9.770  0.3046  0.0176 -0.7879
    8CHL1  H18B  547   3.999   1.313   9.631  1.3063  0.1133 -0.4779
    8CHL1  H18C  548   3.857   1.215   9.608  1.1676 -0.4941 -1.9137
    8CHL1   C12  549   3.984   0.958   9.688  1.0451 -0.0032  0.2429
    8CHL1  H12A  550   3.880   0.951   9.649  1.4689  3.2837 -1.7959
    8CHL1  H12B  551   4.039   0.872   9.646  1.7381 -0.3316  1.7416
    8CHL1   C11  552   3.982   0.965   9.841  0.1971 -0.3964  0.8312
    8CHL1  H11A  553   3.919   1.050   9.874  1.2048  0.6287  0.1839
    8CHL1  H11B  554   3.934   0.871   9.876 -0.5189 -0.0594  0.7780
    8CHL1    C9  555   4.121   0.988   9.901  0.3206 -0.1054 -0.0676
    8CHL1    H9  556   4.172   0.893   9.873 -0.0036 -0.8648  1.7530
    8CHL1   C10  557   4.121   0.992  10.054  0.7605 -0.0481 -0.2633
    8CHL1   C19  558   4.013   1.090  10.105  0.6783  0.1334 -0.6498
    8CHL1  H19A  559   4.022   1.081  10.215  1.2400 -0.5348 -0.7457
    8CHL1  H19B  560   4.036   1.194  10.073  0.1514  0.5469  0.2659
    8CHL1  H19C  561   3.906   1.067  10.086 -0.4799  2.1139  2.6834
    8CHL1    C1  562   4.084   0.846  10.109 -0.9340 -0.9743 -0.1596
    8CHL1   H1A  563   3.982   0.812  10.081 -1.3987 -1.6258  2.0749
    8CHL1   H1B  564   4.149   0.771  10.060  0.6402 -0.0464  0.4554
    8CHL1    C2  565   4.100   0.832  10.264  0.0476  0.0663  0.0338
    8CHL1   H2A  566   4.077   0.729  10.300 -0.8713 -0.4026 -1.7986
    8CHL1   H2B  567   4.025   0.904  10.304  0.6831  1.0327 -0.4701
    8CHL1   C20  568   3.970   1.089   9.371 -0.6774 -0.2645  0.4624
    8CHL1   H20  569   3.894   1.168   9.389  1.8727  2.8135 -1.1864
    8CHL1   C21  570   3.910   0.950   9.363 -0.0592  0.7327  0.2792
    8CHL1  H21A  571   3.836   0.935   9.445  1.0969 -0.9440  1.0851
    8CHL1  H21B  572   3.987   0.870   9.359  0.6684  1.4529 -0.8102
    8CHL1  H21C  573   3.839   0.936   9.279  1.4004 -2.7638 -0.5462
    8CHL1   C22  574   4.020   1.127   9.231  0.5391  0.5202 -0.1766
    8CHL1  H22A  575   4.101   1.203   9.233  0.1939  0.9688  3.9091
    8CHL1  H22B  576   4.067   1.040   9.180 -2.7057 -1.8509  0.5641
    8CHL1   C23  577   3.905   1.175   9.147  0.3443 -0.6417 -0.5751
    8CHL1  H23A  578   3.832   1.092   9.134 -0.2230 -0.3134  0.4563
    8CHL1  H23B  579   3.865   1.263   9.202 -0.7140  0.5255 -3.0772
    8CHL1   C24  580   3.953   1.234   9.012  0.2225 -0.0666 -0.5250
    8CHL1  H24A  581   3.996   1.334   9.038 -2.7697  0.9710  0.8768
    8CHL1  H24B  582   4.022   1.156   8.974  0.7735 -1.0650  2.2983
    8CHL1   C25  583   3.837   1.252   8.913 -0.6751  0.4201 -0.3443
    8CHL1   H25  584   3.810   1.145   8.903  3.6822 -1.1713  2.4025
    8CHL1   C26  585   3.722   1.331   8.975  0.2516 -0.1663 -0.1668
    8CHL1  H26A  586   3.760   1.431   9.006  1.2043 -0.4985 -0.2240
    8CHL1  H26B  587   3.639   1.332   8.901 -0.8089 -0.1147  0.9933
    8CHL1  H26C  588   3.680   1.289   9.069  0.8898  1.2719  0.7962
    8CHL1   C27  589   3.883   1.316   8.778 -0.1596 -0.4993 -0.3032
    8CHL1  H27A  590   3.914   1.422   8.796  0.0554 -0.6506  0.2387
    8CHL1  H27B  591   3.971   1.258   8.744 -0.9552 -2.9728  1.5382
    8CHL1  H27C  592   3.815   1.314   8.690  0.9282  2.2419 -1.3343
    9CHL1    C3  593   5.869   1.625  10.180  0.3848 -0.0611  0.8367
    9CHL1    H3  594   5.762   1.652  10.170  1.2406  2.8153 -1.8766
    9CHL1    O3  595   5.892   1.624  10.321 -0.1925 -0.2158 -0.0137
    9CHL1   H3'  596   5.959   1.559  10.344 -0.5651 -0.0145  1.8358
    9CHL1    C4  597   5.909   1.494  10.112 -0.5025 -0.5448 -0.2170
    9CHL1   H4A  598   6.014   1.480  10.146 -0.5066 -0.7035 -0.2691
    9CHL1   H4B  599   5.853   1.413  10.164 -1.0376  0.2982  0.5584
    9CHL1    C5  600   5.906   1.499   9.962 -0.0257  0.0407 -0.4240
    9CHL1    C6  601   5.828   1.403   9.898 -0.0559  1.1156  1.0685
    9CHL1    H6  602   5.773   1.329   9.958  1.9614 -0.7383  0.7319
    9CHL1    C7  603   5.810   1.408   9.746  0.0918  0.1852  0.0489
    9CHL1   H7A  604   5.825   1.306   9.704  0.5617 -0.4002  1.5734
    9CHL1   H7B  605   5.702   1.425   9.727 -0.1324 -2.7630 -1.9144
    9CHL1    C8  606   5.908   1.513   9.676  0.1438  0.7087  0.1234
    9CHL1    H8  607   6.006   1.460   9.675 -0.5941 -0.7863  1.4251
    9CHL1   C14  608   5.856   1.533   9.536  0.0369 -0.0080 -1.0217
    9CHL1   H14  609   5.763   1.593   9.544  1.1121  1.9549 -2.5183
    9CHL1   C15  610   5.810   1.410   9.453 -0.6267 -0.4419 -0.7275
    9CHL1  H15A  611   5.885   1.330   9.471  0.4855  0.3842 -1.5048
    9CHL1  H15B  612   5.706   1.379   9.477  0.2283 -2.9149  0.1147
    9CHL1   C16  613   5.811   1.462   9.310  0.3766 -0.4774  0.1367
    9CHL1  H16A  614   5.889   1.410   9.250  0.9480 -0.9523  1.2673
    9CHL1  H16B  615   5.709   1.465   9.266  0.7233  1.3758 -0.6372
    9CHL1   C17  616   5.862   1.612   9.315  0.8928  0.0431  0.0953
    9CHL1   H17  617   5.774   1.678   9.331  0.9513  0.1640 -0.0761
    9CHL1   C13  618   5.939   1.620   9.453  0.2742  0.2710  0.6149
    9CHL1   C18  619   6.083   1.554   9.435  0.0978  0.2584  0.4178
    9CHL1  H18A  620   6.152   1.616   9.374  0.9713  0.1918  1.3032
    9CHL1  H18B  621   6.137   1.550   9.533 -0.5041  0.0595  0.7442
    9CHL1  H18C  622   6.074   1.455   9.386  2.2974  0.6214 -0.8451
    9CHL1   C12  623   5.947   1.764   9.518  0.7823 -0.2887 -0.1369
    9CHL1  H12A  624   6.014   1.836   9.465 -0.8367  1.2533 -0.2023
    9CHL1  H12B  625   5.847   1.813   9.519  0.7540 -0.3201 -0.8792
    9CHL1   C11  626   5.978   1.757   9.665 -0.5941  0.7285 -0.3762
    9CHL1  H11A  627   6.087   1.740   9.660 -0.4902  1.6389 -1.7688
    9CHL1  H11B  628   5.947   1.850   9.717 -2.3328  0.1843 -0.3778
    9CHL1    C9  629   5.913   1.639   9.747  0.0537  0.0670  0.2235
    9CHL1    H9  630   5.806   1.662   9.766 -0.0011 -0.9486  1.2520
    9CHL1   C10  631   5.968   1.624   9.893 -0.6380  0.5301  0.3381
    9CHL1   C19  632   6.116   1.619   9.896  0.5023  0.0621  0.3437
    9CHL1  H19A  633   6.149   1.716   9.853 -2.9938  0.5963 -1.4212
    9CHL1  H19B  634   6.155   1.616  10.000 -2.2897  0.3610  1.4830
    9CHL1  H19C  635   6.159   1.541   9.830  2.6581  0.6249  0.9717
    9CHL1    C1  636   5.920   1.742   9.973 -0.0775 -0.1355 -0.2549
    9CHL1   H1A  637   5.975   1.829   9.931 -0.9302  0.4418 -0.2074
    9CHL1   H1B  638   5.811   1.755   9.957 -0.0509 -1.2698 -1.5430
    9CHL1    C2  639   5.950   1.741  10.125  0.5466  0.7463 -0.1929
    9CHL1   H2A  640   5.915   1.835  10.172 -0.9334 -1.5666  3.7788
    9CHL1   H2B  641   6.058   1.723  10.145  0.5661  1.0124 -0.0564
    9CHL1   C20  642   5.934   1.655   9.190 -0.4767  0.4126 -0.0489
    9CHL1   H20  643   6.012   1.578   9.169 -1.9545 -1.3265  0.6215
    9CHL1   C21  644   6.003   1.787   9.209 -0.5074  0.0353 -0.0525
    9CHL1  H21A  645   5.930   1.855   9.258 -0.7364 -0.4270  0.2579
    9CHL1  H21B  646   6.027   1.827   9.108 -1.1591 -0.4919 -0.4287
    9CHL1  H21C  647   6.099   1.781   9.264 -0.0205  2.2120 -0.6008
    9CHL1   C22  648   5.838   1.657   9.073 -0.2104  0.0126  0.4678
    9CHL1  H22A  649   5.762   1.579   9.096  1.2513 -1.0030  2.1565
    9CHL1  H22B  650   5.776   1.748   9.065 -1.7830 -0.9851  0.8260
    9CHL1   C23  651   5.909   1.631   8.943  0.4075  0.5929 -0.2154
    9CHL1  H23A  652   5.980   1.716   8.932  2.4111 -0.9036  0.5837
    9CHL1  H23B  653   5.963   1.533   8.944  1.4978  1.1683 -0.7421
    9CHL1   C24  654   5.822   1.635   8.815 -0.1601 -0.5646 -0.3620
    9CHL1  H24A  655   5.900   1.605   8.741  1.6981  0.8253  0.9621
    9CHL1  H24B  656   5.739   1.561   8.819 -0.4505 -0.2374 -0.2733
    9CHL1   C25  657   5.764   1.768   8.762 -0.3648 -0.1283  0.2509
    9CHL1   H25  658   5.695   1.804   8.842  2.0021  2.4751  1.2805
    9CHL1   C26  659   5.868   1.880   8.757 -0.4576 -0.0287  0.2158
    9CHL1  H26A  660   5.930   1.895   8.848 -1.3090 -0.2484  0.8537
    9CHL1  H26B  661   5.942   1.861   8.677 -0.8951 -0.1249 -0.1757
    9CHL1  H26C  662   5.830   1.981   8.732  0.3604  0.5802  1.3325
    9CHL1   C27  663   5.694   1.751   8.622 -0.2141 -0.5130 -0.7379
    9CHL1  H27A  664   5.767   1.697   8.558  0.6488  0.2270 -0.4101
    9CHL1  H27B  665   5.607   1.683   8.630  1.2640 -2.4065  0.1558
    9CHL1  H27C  666   5.671   1.850   8.577  0.5966 -0.1128 -0.3045
   10CHL1    C3  667   5.733   6.751   9.956  0.5250  0.0078  0.8014
   10CHL1    H3  668   5.671   6.659   9.945 -0.1789  0.4369  1.1281
   10CHL1    O3  669   5.730   6.795  10.089  0.4465  0.2625  0.3418
   10CHL1   H3'  670   5.783   6.875  10.094  0.1146  0.5124 -0.0502
   10CHL1    C4  671   5.880   6.718   9.913  0.2601  0.0537  0.1217
   10CHL1   H4A  672   5.940   6.805   9.948 -2.5062  1.3114  2.1602
   10CHL1   H4B  673   5.912   6.633   9.977 -1.0967 -0.3982  0.2457
   10CHL1    C5  674   5.899   6.693   9.766  0.8812  0.0207  0.0156
   10CHL1    C6  675   5.964   6.587   9.740 -0.6858  0.8326 -0.2206
   10CHL1    H6  676   5.998   6.517   9.818  0.5307  1.2403 -0.3637
   10CHL1    C7  677   5.982   6.534   9.599 -0.0624 -0.2456  0.4188
   10CHL1   H7A  678   6.083   6.501   9.567 -0.0797  0.3464 -0.2870
   10CHL1   H7B  679   5.912   6.451   9.576  0.5356 -1.2826  2.1656
   10CHL1    C8  680   5.938   6.638   9.487  1.0340 -0.3612  0.0108
   10CHL1    H8  681   6.018   6.715   9.481  0.0823  0.7628  1.1900
   10CHL1   C14  682   5.912   6.575   9.349 -0.0386 -0.3312  0.6550
   10CHL1   H14  683   5.816   6.522   9.366 -1.1518  0.0328 -3.5045
   10CHL1   C15  684   6.015   6.470   9.298 -0.7959  0.3899 -0.7183
   10CHL1  H15A  685   6.117   6.514   9.305 -1.0899  0.8612  1.1094
   10CHL1  H15B  686   6.000   6.387   9.370  0.2260  0.1578 -0.7642
   10CHL1   C16  687   5.982   6.455   9.150 -0.3885 -0.4478 -0.5618
   10CHL1  H16A  688   6.079   6.477   9.100  1.1062  0.4766  2.4625
   10CHL1  H16B  689   5.944   6.355   9.121 -1.1532  0.0973 -1.4771
   10CHL1   C17  690   5.873   6.564   9.112 -0.7315  0.3592  0.2571
   10CHL1   H17  691   5.777   6.508   9.107 -0.0797 -0.7087 -1.0824
   10CHL1   C13  692   5.884   6.671   9.227  0.5933  0.5377 -0.2899
   10CHL1   C18  693   6.016   6.758   9.210  0.7235  0.1419  0.1268
   10CHL1  H18A  694   6.099   6.695   9.172  0.8485  0.9253 -0.9291
   10CHL1  H18B  695   5.989   6.838   9.138 -2.4559  0.7419  1.7885
   10CHL1  H18C  696   6.046   6.810   9.303 -0.2458 -0.8646  1.0478
   10CHL1   C12  697   5.757   6.751   9.268  0.1168 -0.9223 -0.1379
   10CHL1  H12A  698   5.730   6.835   9.201  1.7394  0.6664  1.1194
   10CHL1  H12B  699   5.666   6.688   9.279 -0.3666 -0.1018  0.6067
   10CHL1   C11  700   5.773   6.821   9.404  0.1623  0.0173  0.3095
   10CHL1  H11A  701   5.852   6.899   9.411 -1.0478  1.2575  0.7129
   10CHL1  H11B  702   5.676   6.869   9.429  0.3350  2.1243 -2.4979
   10CHL1    C9  703   5.815   6.725   9.522  0.1511 -0.2233 -0.5235
   10CHL1    H9  704   5.731   6.653   9.526  1.0655 -1.2717  0.1410
   10CHL1   C10  705   5.816   6.785   9.666  0.1403 -0.2288 -0.0680
   10CHL1   C19  706   5.896   6.921   9.662  0.6340 -0.1348 -0.3968
   10CHL1  H19A  707   5.846   6.983   9.584 -1.6215 -2.6943 -1.1318
   10CHL1  H19B  708   5.910   6.977   9.757 -2.0183 -0.6591  0.3559
   10CHL1  H19C  709   6.000   6.911   9.623  0.1528 -1.3644 -1.4145
   10CHL1    C1  710   5.674   6.808   9.728  0.4466 -0.3071  0.5213
   10CHL1   H1A  711   5.625   6.881   9.660  2.1531  0.0655 -0.3911
   10CHL1   H1B  712   5.618   6.712   9.722  1.5646 -0.9600  0.2109
   10CHL1    C2  713   5.672   6.861   9.870 -0.2304  0.5514 -0.9387
   10CHL1   H2A  714   5.565   6.871   9.898  0.0144  1.1909 -0.1940
   10CHL1   H2B  715   5.730   6.954   9.885  0.9802 -0.5458  2.2137
   10CHL1   C20  716   5.886   6.617   8.961 -1.0225  0.1242 -0.1736
   10CHL1   H20  717   5.958   6.701   8.958 -0.2379 -0.5715 -1.2264
   10CHL1   C21  718   5.748   6.676   8.913 -0.4712  0.4052 -1.3374
   10CHL1  H21A  719   5.681   6.588   8.902  3.7528 -3.3540 -0.1473
   10CHL1  H21B  720   5.761   6.715   8.810  1.5666  1.8513 -0.5861
   10CHL1  H21C  721   5.716   6.756   8.983  1.8769  0.8169 -0.6378
   10CHL1   C22  722   5.929   6.508   8.858 -0.0968  0.7825  0.3582
   10CHL1  H22A  723   5.981   6.424   8.909  1.3460 -0.7436 -3.2953
   10CHL1  H22B  724   5.835   6.462   8.820  0.1365 -3.2390  3.9243
   10CHL1   C23  725   6.009   6.563   8.740  0.3747 -0.0539 -0.4584
   10CHL1  H23A  726   5.955   6.645   8.688 -0.0057  0.7650  1.1909
   10CHL1  H23B  727   6.110   6.598   8.766 -0.3121  2.9189 -1.4004
   10CHL1   C24  728   6.032   6.451   8.642  0.0072  0.2648  0.4151
   10CHL1  H24A  729   6.082   6.363   8.688  3.0616  0.4232 -2.2915
   10CHL1  H24B  730   5.936   6.413   8.601  0.5368  0.4461 -1.0373
   10CHL1   C25  731   6.131   6.474   8.525 -0.5936 -0.4968 -0.1740
   10CHL1   H25  732   6.113   6.578   8.491 -0.9121 -0.7330 -0.7459
   10CHL1   C26  733   6.279   6.444   8.572  0.0128 -0.2195  0.0061
   10CHL1  H26A  734   6.289   6.335   8.592 -0.9123 -1.0811 -3.6173
   10CHL1  H26B  735   6.347   6.470   8.488 -0.1619  3.1218  0.7619
   10CHL1  H26C  736   6.297   6.517   8.654 -1.1302  2.0807 -1.6879
   10CHL1   C27  737   6.103   6.387   8.405 -0.3990  0.5324 -0.2593
   10CHL1  H27A  738   6.178   6.386   8.323 -0.8547 -1.4334 -0.7185
   10CHL1  H27B  739   6.087   6.284   8.445 -4.7102  2.3164  3.4852
   10CHL1  H27C  740   6.006   6.407   8.355 -0.4736  0.1169 -0.2877
   11CHL1    C3  741   2.601   4.157  10.014 -0.3510 -0.1781 -0.2038
   11CHL1    H3  742   2.694   4.155   9.955  0.2426  0.6488  0.6820
   11CHL1    O3  743   2.629   4.152  10.153 -0.9961 -0.4060 -0.1592
   11CHL1   H3'  744   2.546   4.124  10.193 -1.0226  1.6807  1.4220
   11CHL1    C4  745   2.525   4.292  10.000 -0.1152 -0.2185  0.3295
   11CHL1   H4A  746   2.435   4.290  10.065 -0.1262 -0.0960  0.3182
   11CHL1   H4B  747   2.595   4.375  10.026 -0.4635 -0.5057  2.3422
   11CHL1    C5  748   2.470   4.302   9.858  0.3825 -0.7062  0.1686
   11CHL1    C6  749   2.509   4.417   9.788 -0.7376  0.1942  0.4894
   11CHL1    H6  750   2.569   4.489   9.844  0.3136 -0.7777  0.6452
   11CHL1    C7  751   2.471   4.436   9.644 -0.5528  0.1100  0.6440
   11CHL1   H7A  752   2.431   4.537   9.621 -0.4867  0.2619  1.1815
   11CHL1   H7B  753   2.558   4.435   9.575 -1.3176 -1.7516 -0.3746
   11CHL1    C8  754   2.373   4.330   9.591 -0.0102 -0.1489  0.1139
   11CHL1    H8  755   2.273   4.359   9.628  0.0827  0.6492 -0.2482
   11CHL1   C14  756   2.361   4.330   9.437  0.1805  0.3555  0.3113
   11CHL1   H14  757   2.463   4.305   9.402  0.2492  0.5614  0.3645
   11CHL1   C15  758   2.323   4.466   9.364 -0.3253 -0.0829  0.1679
   11CHL1  H15A  759   2.247   4.519   9.426  0.7051 -0.5158  1.8839
   11CHL1  H15B  760   2.414   4.529   9.358 -1.0155  1.0294  0.9296
   11CHL1   C16  761   2.285   4.424   9.221  0.1464 -0.2041 -0.2436
   11CHL1  H16A  762   2.178   4.452   9.208  0.2355  0.5027  0.4163
   11CHL1  H16B  763   2.353   4.472   9.147 -0.4777 -2.3690 -2.3269
   11CHL1   C17  764   2.287   4.270   9.227 -0.5678  0.2845 -0.1086
   11CHL1   H17  765   2.389   4.232   9.202 -0.7045 -1.8288  2.0628
   11CHL1   C13  766   2.265   4.231   9.377 -0.2768 -0.9655  0.4542
   11CHL1   C18  767   2.115   4.251   9.413  0.5441  0.3299  0.4746
   11CHL1  H18A  768   2.055   4.163   9.382 -0.8980  1.6351 -0.6054
   11CHL1  H18B  769   2.106   4.257   9.524 -0.4551  0.7849  0.3754
   11CHL1  H18C  770   2.073   4.350   9.385 -0.4006  0.1709  1.2692
   11CHL1   C12  771   2.312   4.087   9.420 -0.7998 -0.1054  0.0694
   11CHL1  H12A  772   2.251   3.999   9.393  0.2532 -0.3953 -1.4822
   11CHL1  H12B  773   2.418   4.067   9.396 -0.8473 -0.3528  0.0622
   11CHL1   C11  774   2.311   4.089   9.576  0.1281  0.3363  0.1801
   11CHL1  H11A  775   2.205   4.088   9.607 -0.1338  0.7702 -0.6659
   11CHL1  H11B  776   2.342   3.987   9.610 -3.0111  0.3940  3.8211
   11CHL1    C9  777   2.406   4.190   9.642  0.3761 -0.4929 -0.3417
   11CHL1    H9  778   2.511   4.178   9.607 -0.0086  0.4013 -1.9367
   11CHL1   C10  779   2.403   4.184   9.795 -0.1172 -0.4081 -0.2940
   11CHL1   C19  780   2.258   4.191   9.857 -0.9391  0.0500  0.0647
   11CHL1  H19A  781   2.190   4.111   9.822 -4.3564  2.6267  0.3361
   11CHL1  H19B  782   2.267   4.171   9.966  0.0532 -0.9856 -0.1852
   11CHL1  H19C  783   2.204   4.287   9.845 -0.8741  0.0105 -0.5729
   11CHL1    C1  784   2.474   4.050   9.834  0.4916  0.2687  0.5530
   11CHL1   H1A  785   2.398   3.970   9.821 -0.8610  1.3636  1.3908
   11CHL1   H1B  786   2.564   4.046   9.769  0.9577  0.2086  1.1962
   11CHL1    C2  787   2.511   4.037   9.982  0.2090 -0.4131 -0.0215
   11CHL1   H2A  788   2.571   3.945   9.999  0.6316 -0.6443 -2.4086
   11CHL1   H2B  789   2.425   4.040  10.051 -0.4721 -0.5088 -0.8507
   11CHL1   C20  790   2.179   4.221   9.124 -0.1161  0.5123  0.3569
   11CHL1   H20  791   2.083   4.269   9.152 -0.5825 -0.5941  0.7335
   11CHL1   C21  792   2.169   4.065   9.135 -0.0440  0.0377 -0.7778
   11CHL1  H21A  793   2.124   4.043   9.234  2.0709 -1.6604 -0.1167
   11CHL1  H21B  794   2.272   4.023   9.140  0.0086  0.1558 -0.8909
   11CHL1  H21C  795   2.109   4.006   9.063  0.6588 -0.5200 -0.9206
   11CHL1   C22  796   2.207   4.256   8.976  0.1720  0.1756  0.0306
   11CHL1  H22A  797   2.222   4.365   8.969 -2.0374  0.7490  2.4964
   11CHL1  H22B  798   2.298   4.208   8.935 -0.8899 -0.9800 -1.0606
   11CHL1   C23  799   2.090   4.215   8.880  0.0888 -0.1130 -0.0574
   11CHL1  H23A  800   2.089   4.104   8.874 -3.8078 -0.4375  2.6279
   11CHL1  H23B  801   1.991   4.246   8.921  0.5391 -0.0733  1.0124
   11CHL1   C24  802   2.110   4.278   8.745 -0.4763 -0.1131  0.3340
   11CHL1  H24A  803   2.096   4.388   8.755  1.1211  0.4906 -2.7195
   11CHL1  H24B  804   2.213   4.265   8.707 -0.8304  0.3706 -0.8634
   11CHL1   C25  805   2.006   4.236   8.636  0.3525  0.4421 -0.7084
   11CHL1   H25  806   1.974   4.132   8.658  0.6361  0.6344  0.6707
   11CHL1   C26  807   1.872   4.318   8.665 -0.0325 -0.0233  0.3211
   11CHL1  H26A  808   1.859   4.345   8.772  2.7085  1.5485  0.3687
   11CHL1  H26B  809   1.868   4.408   8.599 -1.1506 -1.0808 -1.1016
   11CHL1  H26C  810   1.785   4.263   8.625 -0.3363  0.1776  0.6961
   11CHL1   C27  811   2.058   4.251   8.489  0.0524 -0.4242 -0.0310
   11CHL1  H27A  812   1.976   4.233   8.416 -0.8507 -1.0520  1.0983
   11CHL1  H27B  813   2.102   4.351   8.470  0.1597 -0.6429 -0.9522
   11CHL1  H27C  814   2.134   4.171   8.485 -0.8381 -1.3164 -4.4684
   12CHL1    C3  815   3.993   6.203  10.127 -0.2992  0.6194 -0.0138
   12CHL1    H3  816   3.884   6.207  10.102 -0.8122  0.4673  2.0260
   12CHL1    O3  817   4.005   6.205  10.264 -0.4073 -0.3582  0.4615
   12CHL1   H3'  818   4.093   6.230  10.291  0.1674 -2.3909  0.6066
   12CHL1    C4  819   4.063   6.078  10.069  0.4622 -0.1636  0.0336
   12CHL1   H4A  820   4.158   6.071  10.128  0.3541 -2.4725  0.0421
   12CHL1   H4B  821   4.008   5.990  10.109  0.9434  0.6169  2.6540
   12CHL1    C5  822   4.088   6.079   9.921  0.3742 -0.4210  0.7817
   12CHL1    C6  823   4.042   5.978   9.845  1.0395 -0.0116 -0.3591
   12CHL1    H6  824   3.995   5.893   9.896 -1.2461  1.4542  0.1373
   12CHL1    C7  825   4.052   5.976   9.694 -0.1523  0.0143  0.0584
   12CHL1   H7A  826   4.087   5.877   9.656  1.8357 -0.5900  3.0798
   12CHL1   H7B  827   3.951   6.002   9.655  0.3899  1.3401 -0.5158
   12CHL1    C8  828   4.144   6.081   9.641 -0.3510  0.8053  0.2073
   12CHL1    H8  829   4.252   6.056   9.656  0.1573  0.8885 -2.7480
   12CHL1   C14  830   4.116   6.089   9.491  0.0566  0.0853 -0.3842
   12CHL1   H14  831   4.024   6.151   9.483 -0.3748 -0.3628  0.9041
   12CHL1   C15  832   4.111   5.965   9.406 -0.3231  0.2038 -0.2121
   12CHL1  H15A  833   4.191   5.897   9.442 -1.3988 -2.3715 -2.3605
   12CHL1  H15B  834   4.014   5.911   9.411 -0.0130 -0.4217 -0.8673
   12CHL1   C16  835   4.129   6.018   9.261  0.4317  0.1968  0.2336
   12CHL1  H16A  836   4.219   5.971   9.216  1.1085  0.8906  0.8308
   12CHL1  H16B  837   4.051   5.987   9.189  0.9419  0.3336 -0.3930
   12CHL1   C17  838   4.158   6.173   9.276 -0.2805  0.7349  0.0542
   12CHL1   H17  839   4.058   6.221   9.280 -0.8552 -0.2193 -1.6555
   12CHL1   C13  840   4.207   6.185   9.421  0.0422  0.6318  0.9423
   12CHL1   C18  841   4.355   6.137   9.429 -0.3993 -0.3471  0.4256
   12CHL1  H18A  842   4.404   6.133   9.528  1.9420  0.2728 -0.6301
   12CHL1  H18B  843   4.370   6.043   9.371 -1.7693 -1.1218  1.2707
   12CHL1  H18C  844   4.419   6.209   9.373 -2.0355 -0.2277 -1.3949
   12CHL1   C12  845   4.183   6.327   9.476 -0.9708  0.6649 -0.3734
   12CHL1  H12A  846   4.265   6.384   9.426  0.8673 -1.5608 -0.0458
   12CHL1  H12B  847   4.091   6.374   9.434 -0.4872  0.8861 -1.1957
   12CHL1   C11  848   4.200   6.329   9.634  0.2103  0.6073  0.2276
   12CHL1  H11A  849   4.305   6.306   9.662  0.1285  1.7558  1.5709
   12CHL1  H11B  850   4.176   6.431   9.671  1.1048  0.8157  0.2562
   12CHL1    C9  851   4.118   6.213   9.708 -0.2159  0.0757  0.2139
   12CHL1    H9  852   4.010   6.232   9.690 -0.2093  0.8951  1.0281
   12CHL1   C10  853   4.135   6.211   9.864  0.5435 -0.4980  0.5371
   12CHL1   C19  854   4.287   6.221   9.900  0.1936 -0.5656  0.2638
   12CHL1  H19A  855   4.352   6.152   9.840 -1.2607 -0.4084 -1.5715
   12CHL1  H19B  856   4.335   6.320   9.891  0.8063 -0.9218 -0.5396
   12CHL1  H19C  857   4.303   6.196  10.007  1.5579 -0.0961  0.1940
   12CHL1    C1  858   4.056   6.335   9.925 -0.0946  0.3525  0.0045
   12CHL1   H1A  859   4.109   6.426   9.890 -0.0906  0.7446  0.9867
   12CHL1   H1B  860   3.956   6.345   9.877  0.1713  0.1228 -0.6013
   12CHL1    C2  861   4.055   6.333  10.079 -0.6309  0.4671 -0.0073
   12CHL1   H2A  862   3.999   6.421  10.116  1.7249  1.7453  0.7296
   12CHL1   H2B  863   4.159   6.349  10.114 -1.2233  0.7657  1.6938
   12CHL1   C20  864   4.237   6.237   9.159 -0.5595 -0.3309 -0.1153
   12CHL1   H20  865   4.343   6.235   9.194 -0.6707 -3.5464  0.3446
   12CHL1   C21  866   4.196   6.393   9.151  0.3772  0.4959  0.1957
   12CHL1  H21A  867   4.240   6.450   9.236  0.0597 -0.4033  0.9832
   12CHL1  H21B  868   4.085   6.401   9.151  0.3493  0.1551 -0.5241
   12CHL1  H21C  869   4.235   6.436   9.057  2.4689  0.3794  0.9520
   12CHL1   C22  870   4.220   6.172   9.017  0.1420  0.2183 -0.3196
   12CHL1  H22A  871   4.249   6.065   9.018  0.7114  0.3726 -0.2370
   12CHL1  H22B  872   4.121   6.177   8.966  0.5556  1.1713 -1.0628
   12CHL1   C23  873   4.323   6.223   8.907  0.6040  0.2173  0.4444
   12CHL1  H23A  874   4.286   6.324   8.878  0.3376  0.0703  0.2790
   12CHL1  H23B  875   4.423   6.222   8.957 -0.7593  0.2906  3.3455
   12CHL1   C24  876   4.314   6.133   8.786 -0.1877  0.0270  0.6920
   12CHL1  H24A  877   4.291   6.027   8.813  1.1225  0.1016  2.3127
   12CHL1  H24B  878   4.225   6.165   8.729 -0.8770  0.2636  1.8694
   12CHL1   C25  879   4.440   6.140   8.697 -0.2866 -0.0312 -0.0565
   12CHL1   H25  880   4.446   6.248   8.672  1.3632  0.2342  1.3164
   12CHL1   C26  881   4.574   6.110   8.775 -0.7491  0.2637  0.2875
   12CHL1  H26A  882   4.663   6.110   8.708  1.4752  0.6349  3.0417
   12CHL1  H26B  883   4.597   6.197   8.840  1.6179  0.9125 -1.2719
   12CHL1  H26C  884   4.573   6.015   8.832 -0.3923  1.1349  1.8031
   12CHL1   C27  885   4.423   6.058   8.566 -0.1326 -0.1903 -0.1789
   12CHL1  H27A  886   4.490   6.111   8.494  2.1646 -1.1959  1.1082
   12CHL1  H27B  887   4.465   5.957   8.584  1.2379  0.6255  1.4794
   12CHL1  H27C  888   4.322   6.072   8.522  0.5446  2.6330 -1.0835
   13CHL1    C3  889   5.342   3.461   9.638 -0.8875 -0.6554  0.3100
   13CHL1    H3  890   5.344   3.366   9.580  1.2761 -0.4244 -0.0869
   13CHL1    O3  891   5.290   3.447   9.766  0.0979  0.4655 -0.3476
   13CHL1   H3'  892   5.289   3.534   9.807 -1.3839  1.0134 -1.4920
   13CHL1    C4  893   5.497   3.491   9.642  0.6463 -0.3932 -0.0152
   13CHL1   H4A  894   5.509   3.575   9.713 -1.3059  0.6252 -0.8300
   13CHL1   H4B  895   5.541   3.401   9.692 -0.0117  0.1188  1.5418
   13CHL1    C5  896   5.546   3.532   9.508 -0.2679 -0.1382 -0.8992
   13CHL1    C6  897   5.660   3.484   9.461  0.1887 -0.2063  0.6463
   13CHL1    H6  898   5.717   3.410   9.519 -2.4180 -3.2567 -0.3941
   13CHL1    C7  899   5.726   3.532   9.342 -0.5487  0.3228  0.2136
   13CHL1   H7A  900   5.830   3.568   9.361 -1.6175  3.6799  0.4619
   13CHL1   H7B  901   5.726   3.445   9.273  0.7436  0.2245  0.3044
   13CHL1    C8  902   5.658   3.650   9.266 -0.4199  0.6294 -0.1309
   13CHL1    H8  903   5.693   3.748   9.306  0.6648 -0.2897  1.2664
   13CHL1   C14  904   5.701   3.640   9.123  0.6890  0.4689 -0.6525
   13CHL1   H14  905   5.646   3.552   9.083  0.8686  0.4664 -0.8960
   13CHL1   C15  906   5.838   3.603   9.083  0.1071 -0.1025 -0.5377
   13CHL1  H15A  907   5.905   3.680   9.126  2.4822 -1.4121 -1.6771
   13CHL1  H15B  908   5.874   3.502   9.113 -1.0246 -0.3632 -0.0126
   13CHL1   C16  909   5.831   3.614   8.936 -0.1249  0.1865  0.3285
   13CHL1  H16A  910   5.926   3.662   8.904 -0.3266  2.0817  2.3613
   13CHL1  H16B  911   5.827   3.515   8.886  0.0865  0.8559 -1.0833
   13CHL1   C17  912   5.706   3.704   8.907 -0.9858 -0.3136 -0.0058
   13CHL1   H17  913   5.631   3.636   8.862  0.0002 -0.2548 -1.8339
   13CHL1   C13  914   5.645   3.760   9.037 -0.0641 -0.6514 -0.3844
   13CHL1   C18  915   5.721   3.889   9.080  0.2286 -0.7166  0.5182
   13CHL1  H18A  916   5.700   3.976   9.014  0.6153  0.9828  2.5398
   13CHL1  H18B  917   5.694   3.915   9.185  3.3113 -0.0034  1.2247
   13CHL1  H18C  918   5.832   3.882   9.076  0.1638 -1.6695  0.1461
   13CHL1   C12  919   5.490   3.770   9.055 -0.2216 -0.6167  0.2721
   13CHL1  H12A  920   5.457   3.866   9.009  2.4853 -0.3725 -1.4025
   13CHL1  H12B  921   5.455   3.683   8.994 -1.5838  0.0200  0.1044
   13CHL1   C11  922   5.444   3.768   9.201  0.5865  0.3037 -0.4392
   13CHL1  H11A  923   5.466   3.862   9.255 -0.0820  0.6141 -0.6908
   13CHL1  H11B  924   5.333   3.765   9.195  0.6003  0.2951 -0.7347
   13CHL1    C9  925   5.509   3.647   9.284 -0.5485  0.2570  0.2749
   13CHL1    H9  926   5.471   3.551   9.244  0.4443 -0.1274  0.2208
   13CHL1   C10  927   5.461   3.640   9.428 -0.0400  0.6890  0.1185
   13CHL1   C19  928   5.485   3.779   9.500 -0.0171  0.4402 -0.5418
   13CHL1  H19A  929   5.593   3.803   9.492 -0.1714  0.4551 -4.0864
   13CHL1  H19B  930   5.424   3.857   9.450 -0.1240  0.8443  0.2000
   13CHL1  H19C  931   5.479   3.787   9.611  4.8694  1.5858 -0.0979
   13CHL1    C1  932   5.312   3.603   9.430  0.4850 -0.4897 -0.5432
   13CHL1   H1A  933   5.256   3.678   9.369 -1.9595 -1.0459  0.9110
   13CHL1   H1B  934   5.305   3.501   9.387  2.2099 -1.5136  1.3906
   13CHL1    C2  935   5.263   3.581   9.572 -0.3365 -0.3375 -0.5953
   13CHL1   H2A  936   5.158   3.544   9.568 -0.4146 -0.1954  0.0395
   13CHL1   H2B  937   5.256   3.675   9.629 -3.6476 -0.3329 -0.8245
   13CHL1   C20  938   5.739   3.803   8.790 -0.5933 -0.3016  0.6456
   13CHL1   H20  939   5.813   3.875   8.828  2.7019 -1.3640 -3.1011
   13CHL1   C21  940   5.601   3.869   8.746  0.6683 -0.7283 -0.1579
   13CHL1  H21A  941   5.589   3.926   8.652 -0.7355 -0.5791  0.0808
   13CHL1  H21B  942   5.561   3.925   8.833 -0.3712 -0.4768 -0.7723
   13CHL1  H21C  943   5.531   3.782   8.738  0.4937 -0.4303 -2.4571
   13CHL1   C22  944   5.801   3.735   8.663 -0.3193 -0.0211  0.9601
   13CHL1  H22A  945   5.805   3.806   8.578 -3.5952 -0.4256  0.3281
   13CHL1  H22B  946   5.905   3.705   8.688 -1.0397 -1.2618  2.7128
   13CHL1   C23  947   5.731   3.601   8.626 -0.4489 -0.3790 -0.0456
   13CHL1  H23A  948   5.730   3.526   8.707  0.8336 -0.4657 -0.0899
   13CHL1  H23B  949   5.626   3.628   8.601 -0.0987 -0.5436 -1.8766
   13CHL1   C24  950   5.768   3.551   8.484 -0.0150  0.0451 -0.4419
   13CHL1  H24A  951   5.761   3.650   8.433 -1.6813  1.0444  1.6120
   13CHL1  H24B  952   5.872   3.511   8.478 -0.8233 -2.0534 -1.4424
   13CHL1   C25  953   5.670   3.451   8.422 -0.1756 -0.5860  1.2282
   13CHL1   H25  954   5.574   3.502   8.397 -0.3156 -1.1120  0.6677
   13CHL1   C26  955   5.718   3.405   8.282 -0.0528  0.0967 -0.5087
   13CHL1  H26A  956   5.800   3.333   8.300  1.1982  1.3265 -1.1060
   13CHL1  H26B  957   5.633   3.348   8.238  0.0868 -2.0063  1.7406
   13CHL1  H26C  958   5.727   3.499   8.223 -1.2733  0.6438  0.1355
   13CHL1   C27  959   5.654   3.325   8.505  0.2128  0.4785  0.2732
   13CHL1  H27A  960   5.756   3.293   8.535 -0.1055 -0.1361  0.7434
   13CHL1  H27B  961   5.596   3.345   8.598 -0.3708  3.4471 -0.6315
   13CHL1  H27C  962   5.602   3.247   8.446  0.0040 -0.3011  1.4517
   14CHL1    C3  963   4.510   5.406  10.224 -0.1710 -0.1801 -0.5199
   14CHL1    H3  964   4.485   5.504  10.179  1.2438  0.9116  0.9260
   14CHL1    O3  965   4.500   5.408  10.364 -0.2316  0.4670 -0.1595
   14CHL1   H3'  966   4.408   5.381  10.372 -0.7615  2.0930 -0.5718
   14CHL1    C4  967   4.429   5.293  10.168  0.7382 -0.6197 -0.8920
   14CHL1   H4A  968   4.451   5.200  10.224  0.1785 -0.7329 -0.8518
   14CHL1   H4B  969   4.320   5.308  10.179  1.0984  0.9571  1.0032
   14CHL1    C5  970   4.456   5.275  10.019  0.6882 -0.1168  0.3412
   14CHL1    C6  971   4.359   5.281   9.927 -0.4875  0.5349 -0.1644
   14CHL1    H6  972   4.255   5.296   9.960 -0.3463 -0.2706  0.7030
   14CHL1    C7  973   4.374   5.252   9.787 -0.5012 -0.1093 -0.3150
   14CHL1   H7A  974   4.294   5.179   9.763 -0.7085 -0.4130  1.2017
   14CHL1   H7B  975   4.350   5.337   9.720 -1.3225 -0.1273 -0.0567
   14CHL1    C8  976   4.506   5.191   9.737  0.3137  0.5558 -0.2514
   14CHL1    H8  977   4.500   5.081   9.749  2.4084  0.5359  1.2912
   14CHL1   C14  978   4.540   5.231   9.596 -0.2094 -1.1410 -0.2139
   14CHL1   H14  979   4.548   5.342   9.592 -0.2838 -1.1661 -1.7995
   14CHL1   C15  980   4.421   5.199   9.495 -0.5060 -0.6121  0.1830
   14CHL1  H15A  981   4.379   5.098   9.511 -0.4702 -0.3934  1.7653
   14CHL1  H15B  982   4.331   5.264   9.502 -0.9535 -1.4191  3.5047
   14CHL1   C16  983   4.496   5.206   9.356  0.5593  0.1295  0.0697
   14CHL1  H16A  984   4.481   5.109   9.304 -2.6579  0.7996 -0.4251
   14CHL1  H16B  985   4.452   5.293   9.304 -2.4822 -1.5171 -0.3139
   14CHL1   C17  986   4.655   5.228   9.390  0.1814 -0.3093  0.7755
   14CHL1   H17  987   4.672   5.337   9.395  1.2568 -0.2806 -1.9416
   14CHL1   C13  988   4.664   5.178   9.536  0.0450  0.2968 -0.2806
   14CHL1   C18  989   4.658   5.022   9.538  0.2900 -0.2003  0.1126
   14CHL1  H18A  990   4.660   4.977   9.639 -3.3802 -0.7483  0.0715
   14CHL1  H18B  991   4.559   4.997   9.493 -1.3102  2.0913  2.0969
   14CHL1  H18C  992   4.737   4.970   9.478  1.0142 -0.9026  1.6260
   14CHL1   C12  993   4.773   5.235   9.623 -0.4590  1.1445 -0.4480
   14CHL1  H12A  994   4.877   5.200   9.602 -0.7713 -0.5506  0.6358
   14CHL1  H12B  995   4.786   5.344   9.604  1.4916  1.0339 -0.0106
   14CHL1   C11  996   4.758   5.203   9.772 -0.4747 -0.7127  0.2144
   14CHL1  H11A  997   4.759   5.094   9.793  2.0307 -1.3772 -2.5841
   14CHL1  H11B  998   4.840   5.258   9.824 -0.6547 -0.3959  0.1665
   14CHL1    C9  999   4.623   5.252   9.819  0.7544 -0.9775  0.9329
   14CHL1    H9 1000   4.621   5.360   9.793  2.2274 -1.6971 -2.7185
   14CHL1   C10 1001   4.600   5.247   9.975 -0.1591 -0.1413 -0.0498
   14CHL1   C19 1002   4.645   5.116  10.036 -0.8584 -0.5703  0.1764
   14CHL1  H19A 1003   4.643   5.124  10.147  0.1612  2.1273  0.0674
   14CHL1  H19B 1004   4.592   5.027   9.995 -1.1902 -0.3519  0.1308
   14CHL1  H19C 1005   4.754   5.098  10.018 -0.9006 -0.8910  0.2263
   14CHL1    C1 1006   4.679   5.362  10.043  0.0827  0.1541 -0.0346
   14CHL1   H1A 1007   4.785   5.346  10.017  0.1755 -0.3490  0.6147
   14CHL1   H1B 1008   4.657   5.459   9.994 -0.7522  0.3895  0.7690
   14CHL1    C2 1009   4.659   5.380  10.194  0.2750  0.1221  0.7605
   14CHL1   H2A 1010   4.706   5.481  10.204  0.5882  0.0214  0.3353
   14CHL1   H2B 1011   4.709   5.303  10.256  0.4238 -0.0211  0.4655
   14CHL1   C20 1012   4.747   5.177   9.279 -1.0754  0.3457 -0.6575
   14CHL1   H20 1013   4.746   5.066   9.274 -1.1678  0.3022  0.1808
   14CHL1   C21 1014   4.888   5.219   9.321 -0.4404 -0.6489 -0.0475
   14CHL1  H21A 1015   4.964   5.197   9.243 -1.2312  1.0409 -1.3446
   14CHL1  H21B 1016   4.910   5.162   9.414 -2.4293  1.0427  1.5523
   14CHL1  H21C 1017   4.887   5.326   9.348  2.1121 -0.9490  1.5197
   14CHL1   C22 1018   4.710   5.243   9.139 -0.2131  1.0075  0.4449
   14CHL1  H22A 1019   4.605   5.213   9.119  0.0789 -0.4258  0.9784
   14CHL1  H22B 1020   4.714   5.354   9.147 -0.8482  1.0970 -0.3342
   14CHL1   C23 1021   4.797   5.194   9.024 -0.0126 -0.1740 -0.0031
   14CHL1  H23A 1022   4.905   5.210   9.045 -0.2586  0.0953  1.1093
   14CHL1  H23B 1023   4.795   5.084   9.012  0.7139 -0.2852  0.8133
   14CHL1   C24 1024   4.766   5.262   8.880 -0.6777  0.6561 -0.2983
   14CHL1  H24A 1025   4.828   5.204   8.809 -2.7429 -1.1886 -0.7088
   14CHL1  H24B 1026   4.663   5.227   8.857 -0.6806  1.9444 -2.5449
   14CHL1   C25 1027   4.781   5.415   8.871  1.3597  0.2544 -0.3149
   14CHL1   H25 1028   4.715   5.451   8.952  1.4629 -1.7898  0.7523
   14CHL1   C26 1029   4.919   5.468   8.906  0.5884 -0.6579  0.4375
   14CHL1  H26A 1030   4.947   5.441   9.010  0.0812 -1.6143  0.3418
   14CHL1  H26B 1031   4.987   5.405   8.844  0.1326 -1.0363  0.3214
   14CHL1  H26C 1032   4.923   5.576   8.879 -0.5941 -0.6264  0.3322
   14CHL1   C27 1033   4.742   5.462   8.734 -0.0474 -0.2922  0.5742
   14CHL1  H27A 1034   4.708   5.567   8.725  0.8847 -0.1110 -1.4457
   14CHL1  H27B 1035   4.823   5.451   8.658 -1.2496 -2.3193 -0.5075
   14CHL1  H27C 1036   4.657   5.400   8.698 -0.8815  1.8834 -1.4351
   15CHL1    C3 1037   2.705   5.082  10.090  0.0550  0.2397  0.3446
   15CHL1    H3 1038   2.813   5.059  10.096  0.3007  1.0362 -0.6050
   15CHL1    O3 1039   2.650   5.082  10.214 -0.6325  0.5324  0.0514
   15CHL1   H3' 1040   2.556   5.097  10.198 -0.3607  2.4448 -0.0609
   15CHL1    C4 1041   2.675   5.208  10.018  0.1741 -0.5857  0.1345
   15CHL1   H4A 1042   2.566   5.226  10.030  0.1758 -0.1554 -0.4985
   15CHL1   H4B 1043   2.716   5.292  10.078 -0.6623  0.3281 -0.5555
   15CHL1    C5 1044   2.710   5.219   9.874  1.0068  0.2433 -0.4619
   15CHL1    C6 1045   2.789   5.313   9.828  0.4081  0.0165  0.2538
   15CHL1    H6 1046   2.838   5.383   9.896  2.3944  0.6967 -1.7427
   15CHL1    C7 1047   2.829   5.320   9.684  0.5426 -0.4350  0.5433
   15CHL1   H7A 1048   2.836   5.424   9.645 -1.5334 -0.5704 -0.3247
   15CHL1   H7B 1049   2.927   5.272   9.661  1.4486  0.6775  1.8917
   15CHL1    C8 1050   2.726   5.244   9.587 -0.5436  0.3428  0.5515
   15CHL1    H8 1051   2.631   5.302   9.589 -0.8162 -0.1014  2.5955
   15CHL1   C14 1052   2.778   5.231   9.447  0.4582 -0.3680 -0.2590
   15CHL1   H14 1053   2.866   5.165   9.465 -0.2467 -0.9629  1.0755
   15CHL1   C15 1054   2.832   5.360   9.385 -0.0206  0.0342 -0.6529
   15CHL1  H15A 1055   2.758   5.442   9.396  1.2643  1.3726 -1.5470
   15CHL1  H15B 1056   2.923   5.390   9.442 -1.3235  0.6953  1.1781
   15CHL1   C16 1057   2.836   5.314   9.233  0.1976 -0.6933 -0.2064
   15CHL1  H16A 1058   2.778   5.382   9.167  0.2146  0.1486  0.6119
   15CHL1  H16B 1059   2.937   5.317   9.188  0.5691 -0.5281  0.6084
   15CHL1   C17 1060   2.772   5.173   9.218  0.1635  0.6723 -0.0677
   15CHL1   H17 1061   2.853   5.097   9.230  0.6929  1.2882  0.3178
   15CHL1   C13 1062   2.687   5.155   9.352 -0.1668  0.2607  0.2753
   15CHL1   C18 1063   2.550   5.228   9.337 -0.4131  0.5310  0.4565
   15CHL1  H18A 1064   2.475   5.180   9.269 -0.6133 -0.3731  1.2965
   15CHL1  H18B 1065   2.498   5.238   9.435 -2.0259  0.1992 -0.3259
   15CHL1  H18C 1066   2.570   5.332   9.302  2.5903  0.1137  0.6954
   15CHL1   C12 1067   2.676   5.009   9.408  0.5166  0.0416 -0.2810
   15CHL1  H12A 1068   2.605   4.947   9.349 -0.7202  1.1539 -0.0167
   15CHL1  H12B 1069   2.774   4.957   9.407  0.1197 -0.7540  0.5715
   15CHL1   C11 1070   2.628   4.999   9.555 -0.5865 -0.1402  0.9683
   15CHL1  H11A 1071   2.519   5.017   9.545 -0.1381  1.7187 -1.5252
   15CHL1  H11B 1072   2.636   4.899   9.603 -0.2506  0.1317  1.4935
   15CHL1    C9 1073   2.696   5.104   9.643 -0.2649 -0.5475 -0.9156
   15CHL1    H9 1074   2.796   5.058   9.656 -0.4866 -0.7579  0.1868
   15CHL1   C10 1075   2.638   5.104   9.792 -0.4341  0.8724  0.1788
   15CHL1   C19 1076   2.491   5.129   9.779 -0.4853  0.8444 -0.4960
   15CHL1  H19A 1077   2.425   5.061   9.721 -1.0653 -0.5593  1.7109
   15CHL1  H19B 1078   2.455   5.130   9.884 -1.4762  0.8314 -0.8213
   15CHL1  H19C 1079   2.468   5.235   9.754 -2.2379  0.8109  0.8030
   15CHL1    C1 1080   2.674   4.966   9.861 -0.4050  0.7771  0.8640
   15CHL1   H1A 1081   2.622   4.878   9.817  1.5767 -1.5443  2.9267
   15CHL1   H1B 1082   2.782   4.945   9.844 -0.7038 -0.6450  0.6029
   15CHL1    C2 1083   2.637   4.963  10.008 -0.6839  0.2435  0.3977
   15CHL1   H2A 1084   2.652   4.870  10.067  0.2680  0.3161  0.2918
   15CHL1   H2B 1085   2.527   4.976  10.015 -0.8207 -0.9368  0.5397
   15CHL1   C20 1086   2.694   5.149   9.088  0.0720  0.1194 -0.0415
   15CHL1   H20 1087   2.606   5.216   9.076  0.3755  0.1676 -2.3808
   15CHL1   C21 1088   2.644   5.006   9.077  0.1374  0.3862 -0.1711
   15CHL1  H21A 1089   2.722   4.932   9.104 -0.2559 -0.1073 -0.3725
   15CHL1  H21B 1090   2.606   4.982   8.975 -0.9869  0.4281  0.2257
   15CHL1  H21C 1091   2.561   5.003   9.150 -0.6322 -0.1817 -1.0491
   15CHL1   C22 1092   2.784   5.177   8.961  0.2485 -0.1571  0.1564
   15CHL1  H22A 1093   2.716   5.172   8.874 -0.7852  0.2645  0.9054
   15CHL1  H22B 1094   2.815   5.284   8.967 -1.7431  0.4340  0.9811
   15CHL1   C23 1095   2.910   5.088   8.951 -0.1961 -0.0698  0.0338
   15CHL1  H23A 1096   2.975   5.087   9.041 -0.8789  0.8872  0.5511
   15CHL1  H23B 1097   2.888   4.981   8.932  0.2016  0.3095 -3.1913
   15CHL1   C24 1098   3.011   5.128   8.838  0.1547 -0.0344 -0.1393
   15CHL1  H24A 1099   3.075   5.216   8.860 -2.3465  1.4700  1.7494
   15CHL1  H24B 1100   3.074   5.038   8.824 -1.6969 -1.2961 -0.7572
   15CHL1   C25 1101   2.953   5.135   8.690 -0.0482  0.2136 -0.2292
   15CHL1   H25 1102   2.865   5.203   8.702 -1.3219 -1.1548 -1.4783
   15CHL1   C26 1103   3.053   5.202   8.589 -0.6920 -0.5638 -0.4747
   15CHL1  H26A 1104   3.005   5.219   8.490 -1.9829  0.7553  0.3345
   15CHL1  H26B 1105   3.085   5.302   8.627 -0.5823 -1.1220  0.9517
   15CHL1  H26C 1106   3.144   5.138   8.577 -1.0345 -1.7969  2.6296
   15CHL1   C27 1107   2.902   5.005   8.622  0.2684 -0.1054 -0.1854
   15CHL1  H27A 1108   2.987   4.939   8.596 -1.2524 -1.8377 -0.9443
   15CHL1  H27B 1109   2.841   4.959   8.702  2.4362  3.0978  3.7052
   15CHL1  H27C 1110   2.838   5.023   8.533  0.0843  0.4114  0.0457
   16CHL1    C3 1111   0.658   5.238  10.324 -0.3295 -0.6448 -0.2419
   16CHL1    H3 1112   0.752   5.296  10.319 -0.6398  0.3642  3.0244
   16CHL1    O3 1113   0.611   5.222  10.462  0.5689 -0.3913  0.2076
   16CHL1   H3' 1114   0.521   5.256  10.456  0.7235 -0.2261 -1.7180
   16CHL1    C4 1115   0.553   5.319  10.246 -0.3217  0.1734  0.1821
   16CHL1   H4A 1116   0.455   5.266  10.241  0.8052 -1.9339 -1.0138
   16CHL1   H4B 1117   0.531   5.421  10.283  0.1862  0.4687 -0.3172
   16CHL1    C5 1118   0.591   5.333  10.099 -0.4801  0.2517 -0.2100
   16CHL1    C6 1119   0.613   5.454  10.044  0.5227  0.6856  0.1228
   16CHL1    H6 1120   0.599   5.545  10.103  1.9206  1.6591 -0.9654
   16CHL1    C7 1121   0.646   5.469   9.900 -0.5016 -0.6991 -0.0410
   16CHL1   H7A 1122   0.586   5.550   9.851 -0.5862 -1.5258 -1.3651
   16CHL1   H7B 1123   0.752   5.501   9.890 -0.8305 -0.1054 -2.0160
   16CHL1    C8 1124   0.646   5.345   9.815  0.6566  0.4765  0.0819
   16CHL1    H8 1125   0.540   5.321   9.790  0.3080 -0.9574  2.6125
   16CHL1   C14 1126   0.727   5.360   9.689  0.1966  0.1639 -0.2752
   16CHL1   H14 1127   0.831   5.342   9.724  1.7688  3.0594 -2.8805
   16CHL1   C15 1128   0.723   5.491   9.602 -0.0569  0.1332  0.1701
   16CHL1  H15A 1129   0.616   5.523   9.606  0.1345  0.8359 -0.2368
   16CHL1  H15B 1130   0.797   5.561   9.646  0.4256 -1.4378  2.0400
   16CHL1   C16 1131   0.775   5.448   9.470 -0.1140 -0.1935 -0.2906
   16CHL1  H16A 1132   0.697   5.472   9.394 -1.2706 -0.7435  0.7045
   16CHL1  H16B 1133   0.872   5.500   9.452 -0.4664  0.8907  0.7612
   16CHL1   C17 1134   0.792   5.294   9.474 -0.0541  0.9938 -0.2865
   16CHL1   H17 1135   0.898   5.269   9.496 -0.8160 -0.8661  1.5426
   16CHL1   C13 1136   0.709   5.241   9.589 -0.3487 -0.1744  0.1065
   16CHL1   C18 1137   0.573   5.234   9.533  0.4712 -0.0837 -0.0574
   16CHL1  H18A 1138   0.504   5.200   9.614  1.9008  0.3954  1.4148
   16CHL1  H18B 1139   0.543   5.321   9.470  2.2224  0.9168  0.4383
   16CHL1  H18C 1140   0.567   5.153   9.457 -0.2552  0.7931 -0.9708
   16CHL1   C12 1141   0.754   5.114   9.656  0.0581  0.0297 -0.0260
   16CHL1  H12A 1142   0.736   5.027   9.590  0.0768 -0.5002  0.6452
   16CHL1  H12B 1143   0.862   5.129   9.676  0.4219 -0.9203 -1.1596
   16CHL1   C11 1144   0.677   5.085   9.782  0.2959 -0.2981  0.1317
   16CHL1  H11A 1145   0.569   5.074   9.759  0.6896 -0.5982 -1.7309
   16CHL1  H11B 1146   0.706   4.994   9.838  1.5651 -0.0055 -0.0220
   16CHL1    C9 1147   0.688   5.213   9.883  0.0472 -0.3213 -0.2520
   16CHL1    H9 1148   0.796   5.229   9.903 -0.1621 -2.0288  2.8133
   16CHL1   C10 1149   0.620   5.203  10.022  0.4492 -0.0073 -0.4143
   16CHL1   C19 1150   0.490   5.115  10.004 -0.7739  0.0315  0.0286
   16CHL1  H19A 1151   0.413   5.153   9.933 -0.7517 -0.0793 -0.0552
   16CHL1  H19B 1152   0.527   5.020   9.959 -1.2958  0.5095 -1.5001
   16CHL1  H19C 1153   0.440   5.084  10.098  0.5055  1.3751  1.1925
   16CHL1    C1 1154   0.721   5.123  10.107  0.1363 -0.2668 -0.2781
   16CHL1   H1A 1155   0.742   5.026  10.058  2.2830 -0.8048  1.5920
   16CHL1   H1B 1156   0.813   5.186  10.102 -0.9637  1.6590  1.6803
   16CHL1    C2 1157   0.684   5.105  10.257  0.9230 -0.0673  0.5322
   16CHL1   H2A 1158   0.758   5.043  10.313 -0.6870 -1.2140  1.4847
   16CHL1   H2B 1159   0.587   5.051  10.256 -0.2757  1.9740 -1.0185
   16CHL1   C20 1160   0.787   5.235   9.331  0.9281 -0.2199  0.0164
   16CHL1   H20 1161   0.683   5.244   9.292  0.2552 -4.4217  0.3483
   16CHL1   C21 1162   0.832   5.088   9.330  0.5170  0.6361  0.4368
   16CHL1  H21A 1163   0.766   5.023   9.392  2.1434 -2.5584 -0.9756
   16CHL1  H21B 1164   0.936   5.079   9.368  0.0473  2.2699  2.2587
   16CHL1  H21C 1165   0.832   5.050   9.225 -1.6063  0.7629  0.3527
   16CHL1   C22 1166   0.881   5.314   9.228  0.2177  1.0027 -0.4178
   16CHL1  H22A 1167   0.845   5.419   9.231 -1.8847  0.3246 -0.2473
   16CHL1  H22B 1168   0.988   5.326   9.256  0.0174  0.7107  0.5026
   16CHL1   C23 1169   0.871   5.271   9.083  0.0899 -0.6163 -0.6539
   16CHL1  H23A 1170   0.901   5.167   9.058  0.8961 -0.3935 -0.6313
   16CHL1  H23B 1171   0.761   5.273   9.066  0.3318  0.9599 -2.3057
   16CHL1   C24 1172   0.945   5.375   8.996  0.7978 -0.5737  0.1469
   16CHL1  H24A 1173   0.927   5.482   9.021  0.0426 -0.4024 -1.0699
   16CHL1  H24B 1174   1.055   5.356   9.004  1.0362  1.3358  2.6432
   16CHL1   C25 1175   0.918   5.374   8.840  0.7811  0.1335  0.4835
   16CHL1   H25 1176   0.810   5.353   8.831  0.4046  2.3697 -1.1469
   16CHL1   C26 1177   0.953   5.512   8.786 -0.4095  0.3222 -0.3851
   16CHL1  H26A 1178   0.952   5.509   8.675 -1.7358 -1.1873 -0.3629
   16CHL1  H26B 1179   0.892   5.592   8.835  0.0332  0.8657 -0.7109
   16CHL1  H26C 1180   1.057   5.534   8.818 -1.0515  0.6300  1.6146
   16CHL1   C27 1181   0.982   5.264   8.753 -0.1809  0.7641  0.1887
   16CHL1  H27A 1182   0.953   5.281   8.647  0.2650  1.9322  0.2494
   16CHL1  H27B 1183   1.093   5.268   8.753 -0.1787  0.7085  0.0697
   16CHL1  H27C 1184   0.958   5.160   8.785  1.0314 -0.1287 -1.5755
   17CHL1    C3 1185   4.808   2.274   9.901  1.0552 -0.8789 -0.4720
   17CHL1    H3 1186   4.916   2.302   9.900  1.1663 -1.2024  0.7287
   17CHL1    O3 1187   4.787   2.248  10.041  0.4512  0.2497  0.0239
   17CHL1   H3' 1188   4.708   2.194  10.046 -0.8315  1.9707 -0.5986
   17CHL1    C4 1189   4.729   2.403   9.848  0.4457  0.3708 -0.5836
   17CHL1   H4A 1190   4.620   2.394   9.870  0.3956  3.2408  0.7609
   17CHL1   H4B 1191   4.768   2.489   9.905 -1.1392  0.4723  0.4041
   17CHL1    C5 1192   4.756   2.427   9.701  0.4656  0.5604  0.2063
   17CHL1    C6 1193   4.783   2.546   9.650 -0.4785 -0.0577 -0.1631
   17CHL1    H6 1194   4.791   2.626   9.725  0.1105 -1.5221  1.4036
   17CHL1    C7 1195   4.811   2.589   9.504  0.8864 -0.4870 -0.2366
   17CHL1   H7A 1196   4.766   2.689   9.483  0.1439 -0.4876  1.2656
   17CHL1   H7B 1197   4.919   2.588   9.479  0.4329  2.2695 -3.0099
   17CHL1    C8 1198   4.736   2.487   9.416 -0.0922  0.2269 -0.2196
   17CHL1    H8 1199   4.627   2.509   9.414 -0.1002  0.1267 -1.2085
   17CHL1   C14 1200   4.781   2.508   9.274 -0.0558 -0.1076  0.7229
   17CHL1   H14 1201   4.891   2.501   9.282 -0.0805  0.0120  1.2240
   17CHL1   C15 1202   4.752   2.643   9.211 -0.8873  0.0664  0.1297
   17CHL1  H15A 1203   4.648   2.681   9.212 -0.6275  0.7962  0.2192
   17CHL1  H15B 1204   4.814   2.728   9.247 -2.9699  2.2497 -1.1412
   17CHL1   C16 1205   4.781   2.611   9.069  0.2683 -0.0352  0.1686
   17CHL1  H16A 1206   4.708   2.659   9.000  0.0604 -1.4010 -0.6037
   17CHL1  H16B 1207   4.878   2.655   9.037 -0.0377 -0.6271 -1.7107
   17CHL1   C17 1208   4.794   2.457   9.049 -0.4072  0.1142 -0.1407
   17CHL1   H17 1209   4.900   2.428   9.067 -0.6911  0.4619  2.5742
   17CHL1   C13 1210   4.730   2.396   9.176 -0.1065 -0.5614  0.2180
   17CHL1   C18 1211   4.573   2.398   9.153  0.6119  0.1507 -0.3550
   17CHL1  H18A 1212   4.516   2.384   9.247  2.2342  2.5664  1.1017
   17CHL1  H18B 1213   4.532   2.489   9.102  1.7594 -0.0350 -1.6631
   17CHL1  H18C 1214   4.545   2.310   9.092 -1.0706 -1.6786  2.8295
   17CHL1   C12 1215   4.776   2.256   9.218 -0.2165  0.7132 -0.1275
   17CHL1  H12A 1216   4.735   2.181   9.147  0.8456 -0.0189  0.0075
   17CHL1  H12B 1217   4.887   2.251   9.211 -0.2207  2.2277 -2.1239
   17CHL1   C11 1218   4.729   2.225   9.364  0.2345 -0.7930  0.3859
   17CHL1  H11A 1219   4.619   2.212   9.365  0.2774 -1.1458  1.5353
   17CHL1  H11B 1220   4.773   2.128   9.396  1.8119  0.1024  1.0768
   17CHL1    C9 1221   4.769   2.341   9.466  0.4162  0.0040 -0.6912
   17CHL1    H9 1222   4.878   2.356   9.482  0.6134 -0.4469 -1.5427
   17CHL1   C10 1223   4.733   2.306   9.618  0.1180  0.1925  0.8232
   17CHL1   C19 1224   4.581   2.268   9.614  0.4805 -0.9343 -0.7024
   17CHL1  H19A 1225   4.566   2.168   9.569  1.3873 -1.6720  0.5928
   17CHL1  H19B 1226   4.526   2.254   9.710 -0.0671 -0.6328 -0.9640
   17CHL1  H19C 1227   4.533   2.341   9.545  0.2029  0.3216  0.7446
   17CHL1    C1 1228   4.813   2.183   9.666 -0.5519  0.1304  0.0848
   17CHL1   H1A 1229   4.777   2.098   9.604  0.7095  0.1879 -0.7671
   17CHL1   H1B 1230   4.921   2.200   9.647 -0.6737  0.0229 -0.7403
   17CHL1    C2 1231   4.794   2.156   9.818 -0.2070  0.4523 -0.5447
   17CHL1   H2A 1232   4.876   2.090   9.853  0.0287  1.3427  0.6461
   17CHL1   H2B 1233   4.692   2.115   9.829  0.1952 -0.1943  0.9289
   17CHL1   C20 1234   4.739   2.416   8.914  0.4809  0.2919 -1.0568
   17CHL1   H20 1235   4.640   2.461   8.891  0.1246 -0.4041 -0.9116
   17CHL1   C21 1236   4.718   2.263   8.901 -0.0164  0.0835 -0.3691
   17CHL1  H21A 1237   4.800   2.203   8.945  1.8567  1.3413 -1.9973
   17CHL1  H21B 1238   4.717   2.228   8.796 -0.6872 -0.8861 -0.0512
   17CHL1  H21C 1239   4.623   2.215   8.935  0.4736 -1.4190 -1.0367
   17CHL1   C22 1240   4.829   2.459   8.804 -0.3659  0.6219 -0.4231
   17CHL1  H22A 1241   4.867   2.562   8.822 -0.9951  0.4405  2.4287
   17CHL1  H22B 1242   4.906   2.379   8.792 -2.4803 -1.2159 -2.9238
   17CHL1   C23 1243   4.760   2.459   8.664  0.0794 -0.6533  0.1459
   17CHL1  H23A 1244   4.840   2.463   8.587  0.5781 -0.5354  0.6641
   17CHL1  H23B 1245   4.716   2.359   8.643 -1.8590  0.2714 -0.4580
   17CHL1   C24 1246   4.669   2.573   8.631 -0.2407  0.1406 -0.2412
   17CHL1  H24A 1247   4.594   2.591   8.711  0.5201  2.1563  0.0757
   17CHL1  H24B 1248   4.728   2.666   8.643 -1.0723  0.3642  3.4710
   17CHL1   C25 1249   4.614   2.566   8.484 -0.2096 -1.1974 -0.3614
   17CHL1   H25 1250   4.553   2.659   8.476  1.8672  0.3013  0.3199
   17CHL1   C26 1251   4.726   2.579   8.373  0.3140  0.0252  0.5526
   17CHL1  H26A 1252   4.685   2.613   8.275 -0.8994 -0.5919  0.8293
   17CHL1  H26B 1253   4.800   2.659   8.393 -0.1836  0.6318  0.0333
   17CHL1  H26C 1254   4.787   2.488   8.356 -0.3536 -0.2115 -0.7403
   17CHL1   C27 1255   4.514   2.450   8.459 -0.7593 -0.4283 -0.2624
   17CHL1  H27A 1256   4.555   2.356   8.502  0.0158 -0.4925 -1.1133
   17CHL1  H27B 1257   4.423   2.473   8.518 -1.3171 -2.0803 -0.4206
   17CHL1  H27C 1258   4.489   2.443   8.352 -2.0738 -0.6258  0.0463
   18CHL1    C3 1259   4.549   0.106  10.075  0.1449 -0.6415 -0.2883
   18CHL1    H3 1260   4.645   0.050  10.085  0.0967 -0.6110  0.3818
   18CHL1    O3 1261   4.478   0.102  10.202 -0.6932 -0.1130  0.0666
   18CHL1   H3' 1262   4.498   0.182  10.252 -2.5059  0.8556 -0.6565
   18CHL1    C4 1263   4.576   0.247  10.042 -0.2946 -0.4031 -0.3973
   18CHL1   H4A 1264   4.484   0.306  10.062  0.3197  0.9977 -1.4954
   18CHL1   H4B 1265   4.636   0.289  10.126 -1.2365  0.7651 -0.2819
   18CHL1    C5 1266   4.636   0.276   9.909 -0.5745 -0.2096  0.1435
   18CHL1    C6 1267   4.740   0.356   9.904 -1.0188 -0.2978 -0.2746
   18CHL1    H6 1268   4.786   0.389   9.998 -1.5189 -1.3414  0.3516
   18CHL1    C7 1269   4.804   0.394   9.770  0.0336  0.5348  0.0984
   18CHL1   H7A 1270   4.802   0.505   9.763  4.2901  0.7754  0.1278
   18CHL1   H7B 1271   4.911   0.363   9.769 -0.0363  0.1925  1.4688
   18CHL1    C8 1272   4.719   0.356   9.650 -0.4899  0.3193  0.1048
   18CHL1    H8 1273   4.638   0.429   9.630 -0.0952  0.5092 -0.8494
   18CHL1   C14 1274   4.810   0.343   9.527  0.2164 -1.0611 -0.2045
   18CHL1   H14 1275   4.890   0.273   9.559  2.6290  2.2446  1.7258
   18CHL1   C15 1276   4.893   0.471   9.485  0.4065 -0.6001 -0.8270
   18CHL1  H15A 1277   4.814   0.547   9.469  2.4066  1.0052 -3.8913
   18CHL1  H15B 1278   4.961   0.504   9.566  0.2150 -1.5455 -0.2634
   18CHL1   C16 1279   4.939   0.439   9.344 -0.4458  0.2975  0.1177
   18CHL1  H16A 1280   4.929   0.519   9.268  1.4970  0.4658 -0.0151
   18CHL1  H16B 1281   5.048   0.419   9.339 -0.4625  0.1191  0.4461
   18CHL1   C17 1282   4.864   0.310   9.292 -0.6000 -0.1717 -0.0757
   18CHL1   H17 1283   4.931   0.222   9.303  0.5624  0.9328  2.1630
   18CHL1   C13 1284   4.743   0.298   9.398 -0.2800  0.0422  0.2522
   18CHL1   C18 1285   4.633   0.397   9.349  0.7460  0.6559  0.0064
   18CHL1  H18A 1286   4.677   0.491   9.311  0.9040  0.5819  0.0086
   18CHL1  H18B 1287   4.569   0.348   9.271  0.1048  0.4199  0.6637
   18CHL1  H18C 1288   4.561   0.407   9.433  1.1278 -1.5815  0.6596
   18CHL1   C12 1289   4.695   0.149   9.420  0.0784 -0.1069 -0.1676
   18CHL1  H12A 1290   4.641   0.120   9.327  2.0054 -0.2436 -1.2997
   18CHL1  H12B 1291   4.783   0.083   9.440 -0.0729 -0.1152  0.4935
   18CHL1   C11 1292   4.595   0.149   9.541  0.0336 -0.0434 -0.5915
   18CHL1  H11A 1293   4.509   0.217   9.521  0.6192  1.3235  1.2262
   18CHL1  H11B 1294   4.562   0.045   9.562 -1.0733  0.8790  2.9050
   18CHL1    C9 1295   4.659   0.207   9.665 -0.1840 -0.3236  0.0285
   18CHL1    H9 1296   4.745   0.140   9.686 -0.6007 -1.1507 -0.8594
   18CHL1   C10 1297   4.571   0.206   9.789  0.0907 -0.0748  0.3771
   18CHL1   C19 1298   4.446   0.294   9.767  0.7851 -0.1064  0.4418
   18CHL1  H19A 1299   4.394   0.256   9.677  2.6028  1.3219 -1.2978
   18CHL1  H19B 1300   4.377   0.277   9.852 -0.2775  0.1144 -0.3500
   18CHL1  H19C 1301   4.455   0.404   9.749 -1.8765  0.0192 -0.6303
   18CHL1    C1 1302   4.533   0.062   9.823  0.5920 -0.3490 -0.0427
   18CHL1   H1A 1303   4.467   0.018   9.745 -0.8231  0.3488  0.7145
   18CHL1   H1B 1304   4.623  -0.003   9.825 -1.0101 -2.6782  1.4065
   18CHL1    C2 1305   4.466   0.043   9.959 -0.0847  0.0872 -0.1621
   18CHL1   H2A 1306   4.443  -0.066   9.963 -1.1985  0.3484  1.0746
   18CHL1   H2B 1307   4.366   0.089   9.968 -0.8170 -1.4712  0.0924
   18CHL1   C20 1308   4.841   0.312   9.139  1.0772  0.0844 -0.1352
   18CHL1   H20 1309   4.807   0.416   9.121  0.2823 -0.1791 -0.2101
   18CHL1   C21 1310   4.739   0.215   9.088 -0.4495  0.1747 -0.5779
   18CHL1  H21A 1311   4.725   0.223   8.978 -3.0633 -2.9355 -0.6113
   18CHL1  H21B 1312   4.639   0.205   9.135  0.5828 -1.8154  1.3564
   18CHL1  H21C 1313   4.783   0.113   9.092 -0.6604  0.1132  0.5325
   18CHL1   C22 1314   4.976   0.311   9.065 -0.2886 -0.3814 -0.3031
   18CHL1  H22A 1315   5.034   0.393   9.111  0.9352 -1.7831  0.7495
   18CHL1  H22B 1316   5.027   0.215   9.090 -1.1440 -0.8277 -0.1964
   18CHL1   C23 1317   4.970   0.330   8.916 -0.1977  0.3564 -0.7485
   18CHL1  H23A 1318   4.912   0.248   8.869  1.5302 -2.3631  1.5630
   18CHL1  H23B 1319   4.914   0.424   8.894  0.9760  0.9598 -1.3037
   18CHL1   C24 1320   5.112   0.342   8.855 -0.0095  0.1436  0.1996
   18CHL1  H24A 1321   5.168   0.413   8.919  1.0293  0.5666 -1.1235
   18CHL1  H24B 1322   5.169   0.249   8.836  5.4229  3.3409 -1.1085
   18CHL1   C25 1323   5.110   0.412   8.717  0.0034 -0.9236 -0.0148
   18CHL1   H25 1324   5.215   0.418   8.679 -0.6344 -2.4771 -2.2132
   18CHL1   C26 1325   5.040   0.328   8.613 -0.3595  0.3325  0.0048
   18CHL1  H26A 1326   5.059   0.375   8.514  0.1458 -1.7356 -0.9573
   18CHL1  H26B 1327   5.082   0.225   8.612 -0.7439  0.1179  2.0053
   18CHL1  H26C 1328   4.932   0.315   8.637 -0.5173 -1.1643 -1.3332
   18CHL1   C27 1329   5.051   0.561   8.723  0.9156 -0.0618 -1.0146
   18CHL1  H27A 1330   5.056   0.610   8.623  1.2057 -2.1161 -2.0701
   18CHL1  H27B 1331   4.947   0.558   8.760  1.2020  0.5625 -0.1212
   18CHL1  H27C 1332   5.107   0.613   8.804 -0.0428 -0.6823  0.0686
   19CHL1    C3 1333   3.492   4.307  10.115 -0.0614 -0.0105  0.5711
   19CHL1    H3 1334   3.402   4.370  10.096  0.3969  1.3716  2.6511
   19CHL1    O3 1335   3.518   4.308  10.250  0.3960 -0.3849 -0.0984
   19CHL1   H3' 1336   3.604   4.266  10.251  0.2169 -0.8005 -0.8772
   19CHL1    C4 1337   3.472   4.162  10.058 -0.6294 -0.3498  0.0437
   19CHL1   H4A 1338   3.565   4.109  10.086 -0.0045  0.5790 -0.2520
   19CHL1   H4B 1339   3.394   4.106  10.115 -0.4334 -1.5405 -0.8102
   19CHL1    C5 1340   3.461   4.153   9.912 -0.6626 -0.6367 -0.0344
   19CHL1    C6 1341   3.359   4.089   9.843 -0.5386 -0.4402 -0.9950
   19CHL1    H6 1342   3.288   4.035   9.908  1.0999 -2.1568 -0.5348
   19CHL1    C7 1343   3.341   4.087   9.693  0.1447  0.0460 -0.0893
   19CHL1   H7A 1344   3.330   3.983   9.656 -1.1146  1.2311 -3.3665
   19CHL1   H7B 1345   3.251   4.141   9.656  0.9068  0.0991 -1.9676
   19CHL1    C8 1346   3.465   4.125   9.607  0.1029  0.2396 -0.8809
   19CHL1    H8 1347   3.526   4.032   9.603  0.7772  0.5843  0.5053
   19CHL1   C14 1348   3.420   4.155   9.467  0.3676  0.3618  0.3325
   19CHL1   H14 1349   3.345   4.237   9.472 -2.3370 -1.9488  0.2138
   19CHL1   C15 1350   3.331   4.048   9.393 -0.4610 -0.5208  1.1881
   19CHL1  H15A 1351   3.361   3.942   9.408 -3.0521 -1.1609  2.6525
   19CHL1  H15B 1352   3.232   4.049   9.444 -0.9437  0.3311  0.2415
   19CHL1   C16 1353   3.334   4.106   9.246  0.1537 -0.0839  0.8939
   19CHL1  H16A 1354   3.359   4.021   9.179  1.0974 -0.0029  1.1297
   19CHL1  H16B 1355   3.236   4.147   9.217 -0.0500 -1.1258  0.0582
   19CHL1   C17 1356   3.432   4.222   9.244  0.3847  0.1987  0.1101
   19CHL1   H17 1357   3.371   4.310   9.273 -0.9114 -0.4994 -0.4665
   19CHL1   C13 1358   3.523   4.197   9.364 -0.3675  0.2335  0.0466
   19CHL1   C18 1359   3.620   4.076   9.345 -0.3035 -0.3759 -0.0882
   19CHL1  H18A 1360   3.649   4.035   9.444  2.2812 -0.6604 -0.8878
   19CHL1  H18B 1361   3.564   3.988   9.306 -1.3227 -0.6947  1.9725
   19CHL1  H18C 1362   3.705   4.094   9.276  0.8421 -2.8834  0.5602
   19CHL1   C12 1363   3.587   4.323   9.423 -0.0557 -0.1767  0.5804
   19CHL1  H12A 1364   3.669   4.367   9.362  1.6595 -2.6760  0.8695
   19CHL1  H12B 1365   3.515   4.407   9.412  0.3659 -0.0148 -1.1881
   19CHL1   C11 1366   3.644   4.312   9.574 -0.2917  0.2983  0.1529
   19CHL1  H11A 1367   3.739   4.256   9.570  2.4732  4.4932  1.0293
   19CHL1  H11B 1368   3.658   4.415   9.612  0.2244  0.5112 -0.5883
   19CHL1    C9 1369   3.535   4.245   9.668 -0.4853 -0.2529  0.4883
   19CHL1    H9 1370   3.455   4.322   9.666  0.0036  0.2770  0.8156
   19CHL1   C10 1371   3.572   4.224   9.822  0.7411  0.0103 -0.6004
   19CHL1   C19 1372   3.698   4.135   9.835  0.4630 -0.5289  0.3854
   19CHL1  H19A 1373   3.730   4.133   9.941  2.7848 -0.2476 -0.2486
   19CHL1  H19B 1374   3.681   4.037   9.786 -0.3666 -0.4541  0.5044
   19CHL1  H19C 1375   3.775   4.198   9.785  0.0053  0.4040  0.8397
   19CHL1    C1 1376   3.576   4.365   9.884 -0.2898  0.0270 -0.1143
   19CHL1   H1A 1377   3.658   4.420   9.834 -0.2533 -0.7763 -0.9488
   19CHL1   H1B 1378   3.492   4.434   9.863  0.1087  0.3281 -0.7364
   19CHL1    C2 1379   3.608   4.370  10.039  0.6758  0.5713  0.6319
   19CHL1   H2A 1380   3.616   4.478  10.066  0.5219  0.9176 -0.6804
   19CHL1   H2B 1381   3.709   4.325  10.050  0.8792  0.6561 -0.7683
   19CHL1   C20 1382   3.506   4.249   9.110  0.0689  0.0393  0.2690
   19CHL1   H20 1383   3.598   4.311   9.125 -0.6004  1.2682 -0.5635
   19CHL1   C21 1384   3.410   4.338   9.031  0.3234 -0.4362 -0.3550
   19CHL1  H21A 1385   3.438   4.361   8.926 -1.4386  0.2189 -0.7277
   19CHL1  H21B 1386   3.387   4.433   9.085 -2.3291 -0.3423 -1.4845
   19CHL1  H21C 1387   3.309   4.291   9.023  0.5850 -0.8255 -1.5661
   19CHL1   C22 1388   3.551   4.124   9.022 -0.0221  0.3053 -0.4011
   19CHL1  H22A 1389   3.574   4.037   9.087  1.0484  0.5971 -0.3634
   19CHL1  H22B 1390   3.464   4.095   8.960  0.5584  1.5660 -1.8930
   19CHL1   C23 1391   3.671   4.149   8.932 -0.1638  0.5541  0.7626
   19CHL1  H23A 1392   3.655   4.251   8.890 -0.4103  0.3578  0.3698
   19CHL1  H23B 1393   3.764   4.158   8.992  0.6416  0.5771 -0.4397
   19CHL1   C24 1394   3.690   4.038   8.824  0.2295 -0.7071  0.7862
   19CHL1  H24A 1395   3.733   3.945   8.865  1.7298 -0.2787  0.2574
   19CHL1  H24B 1396   3.598   4.016   8.765  1.2885 -0.8606 -0.8671
   19CHL1   C25 1397   3.793   4.083   8.710 -0.2587 -0.5093  0.3761
   19CHL1   H25 1398   3.759   4.182   8.671 -2.4242 -0.0587  3.0600
   19CHL1   C26 1399   3.937   4.091   8.766  0.5340 -0.4920 -0.1062
   19CHL1  H26A 1400   4.004   4.151   8.702  0.7818 -2.9150 -2.2624
   19CHL1  H26B 1401   3.923   4.141   8.864  0.2898  0.0036 -0.3874
   19CHL1  H26C 1402   3.968   3.986   8.783 -2.4621 -1.0296  3.5634
   19CHL1   C27 1403   3.778   3.990   8.588 -0.5986 -0.0799 -0.7666
   19CHL1  H27A 1404   3.797   3.889   8.630  0.8320  0.0705 -0.9939
   19CHL1  H27B 1405   3.673   3.994   8.553 -1.0360 -2.5209  0.1043
   19CHL1  H27C 1406   3.850   4.012   8.506  0.5660  1.9011  0.6799
   20CHL1    C3 1407   1.082   5.420  10.309 -0.3019  0.9295  0.6382
   20CHL1    H3 1408   1.007   5.340  10.328  0.2093  0.4742  0.7293
   20CHL1    O3 1409   1.092   5.501  10.421  0.3971  0.3768 -0.0055
   20CHL1   H3' 1410   1.144   5.576  10.393  0.3290  1.3903  2.3504
   20CHL1    C4 1411   1.224   5.340  10.283  1.1452 -0.2001 -0.9060
   20CHL1   H4A 1412   1.301   5.420  10.296 -1.0116  1.8343  0.1359
   20CHL1   H4B 1413   1.229   5.273  10.372 -0.2156  0.2698 -0.4563
   20CHL1    C5 1414   1.244   5.269  10.153 -0.1380  0.7272 -0.3624
   20CHL1    C6 1415   1.281   5.139  10.150  0.9569  0.5491 -1.3370
   20CHL1    H6 1416   1.306   5.083  10.242  0.7871  0.7172 -1.1877
   20CHL1    C7 1417   1.301   5.069  10.019  0.0644  0.8579 -0.7618
   20CHL1   H7A 1418   1.398   5.016  10.025 -0.6369 -0.5943 -1.7013
   20CHL1   H7B 1419   1.222   4.992  10.010  0.1613  0.4857  1.3083
   20CHL1    C8 1420   1.309   5.163   9.894  0.1112 -0.0371 -0.8244
   20CHL1    H8 1421   1.401   5.225   9.901 -0.0064  0.1393 -0.8291
   20CHL1   C14 1422   1.307   5.085   9.764 -0.1862 -0.4454  0.1524
   20CHL1   H14 1423   1.210   5.032   9.778 -0.4522 -0.3833 -1.2863
   20CHL1   C15 1424   1.420   4.983   9.747 -0.3296 -0.6632  0.0990
   20CHL1  H15A 1425   1.518   5.034   9.761  0.6908 -2.7164  0.8909
   20CHL1  H15B 1426   1.410   4.898   9.818 -3.2284 -0.5791 -0.0771
   20CHL1   C16 1427   1.416   4.944   9.601 -0.0346 -0.3777  0.3851
   20CHL1  H16A 1428   1.517   4.951   9.556  1.0592 -2.1469  2.3547
   20CHL1  H16B 1429   1.365   4.848   9.577  1.2586 -1.5730  2.0992
   20CHL1   C17 1430   1.315   5.049   9.535  0.0569  0.4827  0.1273
   20CHL1   H17 1431   1.212   5.006   9.538 -0.0597  0.7789  0.4617
   20CHL1   C13 1432   1.298   5.172   9.640  0.1681  0.6133 -0.0830
   20CHL1   C18 1433   1.419   5.254   9.613  0.0532  0.2904 -0.0245
   20CHL1  H18A 1434   1.405   5.320   9.525 -1.4156  0.0922  0.0199
   20CHL1  H18B 1435   1.443   5.316   9.702 -0.5020  0.6266 -0.1016
   20CHL1  H18C 1436   1.502   5.184   9.589  1.4369  1.3523  1.4348
   20CHL1   C12 1437   1.169   5.250   9.639  0.3671  0.5560 -0.6006
   20CHL1  H12A 1438   1.156   5.309   9.546  1.1968  1.0332 -0.4224
   20CHL1  H12B 1439   1.083   5.183   9.658 -0.1155  1.4501  0.5730
   20CHL1   C11 1440   1.166   5.346   9.766 -0.9584  0.1707  0.6380
   20CHL1  H11A 1441   1.248   5.420   9.754  0.6959 -1.6322  0.2727
   20CHL1  H11B 1442   1.074   5.407   9.773 -1.5735 -0.7615  0.7564
   20CHL1    C9 1443   1.193   5.263   9.899 -0.1708 -0.7185  0.0494
   20CHL1    H9 1444   1.099   5.204   9.910 -1.1076  0.8204  0.8007
   20CHL1   C10 1445   1.206   5.355  10.028  0.2356  1.0203 -0.1449
   20CHL1   C19 1446   1.318   5.465  10.010 -0.8124 -0.4132  0.5977
   20CHL1  H19A 1447   1.288   5.540   9.933  0.0180  0.8948  1.5217
   20CHL1  H19B 1448   1.340   5.502  10.112 -1.1576  1.7340 -0.0637
   20CHL1  H19C 1449   1.418   5.433   9.973 -1.6065 -2.1307 -0.1902
   20CHL1    C1 1450   1.062   5.414  10.057 -0.2823  0.0986 -0.1940
   20CHL1   H1A 1451   1.040   5.493   9.982  0.3587  0.2224 -0.2550
   20CHL1   H1B 1452   0.993   5.327  10.054  0.7008 -0.6721 -1.3311
   20CHL1    C2 1453   1.048   5.499  10.181 -0.2246  0.1900 -0.3497
   20CHL1   H2A 1454   0.943   5.534  10.188 -0.9006 -1.8967  0.8840
   20CHL1   H2B 1455   1.119   5.585  10.187 -1.2444  0.9811  0.8065
   20CHL1   C20 1456   1.348   5.073   9.384 -0.0093 -0.4227 -0.4086
   20CHL1   H20 1457   1.444   5.129   9.388  1.5696 -3.0134  2.5757
   20CHL1   C21 1458   1.232   5.151   9.312 -0.2519  0.0923 -0.1048
   20CHL1  H21A 1459   1.139   5.090   9.317 -0.5048  0.5737  1.9684
   20CHL1  H21B 1460   1.235   5.174   9.204 -1.1608  1.1995  0.0822
   20CHL1  H21C 1461   1.218   5.253   9.354  1.9057  1.1986 -1.9023
   20CHL1   C22 1462   1.374   4.946   9.302 -0.0824  0.1960 -0.6483
   20CHL1  H22A 1463   1.433   4.875   9.364  2.0868  2.7006  0.3329
   20CHL1  H22B 1464   1.282   4.886   9.281 -0.1392 -0.4895  1.3646
   20CHL1   C23 1465   1.430   4.971   9.162 -0.2585  0.1905 -0.0308
   20CHL1  H23A 1466   1.355   5.042   9.120  0.4851  1.8336  1.3195
   20CHL1  H23B 1467   1.516   5.039   9.177  0.3742 -0.2925 -1.3323
   20CHL1   C24 1468   1.463   4.836   9.085  0.4181  0.2126 -0.2841
   20CHL1  H24A 1469   1.525   4.770   9.150 -0.1448  0.3967  0.4552
   20CHL1  H24B 1470   1.363   4.789   9.075  0.0086  1.2091 -1.1255
   20CHL1   C25 1471   1.527   4.857   8.947  0.3917  0.3521  0.5569
   20CHL1   H25 1472   1.632   4.884   8.972 -0.0061 -0.0102  2.9403
   20CHL1   C26 1473   1.528   4.728   8.860  0.9329 -0.5033 -0.3617
   20CHL1  H26A 1474   1.581   4.736   8.763 -0.7458 -2.1862 -1.4750
   20CHL1  H26B 1475   1.577   4.645   8.916 -0.6001 -0.9771  0.3398
   20CHL1  H26C 1476   1.421   4.707   8.841  1.1167 -0.3383 -1.6679
   20CHL1   C27 1477   1.458   4.980   8.879  0.1958  0.2815  0.4734
   20CHL1  H27A 1478   1.507   5.074   8.912  1.1921  0.1493 -0.5507
   20CHL1  H27B 1479   1.482   4.968   8.771 -2.2247 -0.7809 -0.0043
   20CHL1  H27C 1480   1.348   4.976   8.887  0.2257 -2.8203  0.5680
   21CHL1    C3 1481   5.469   6.353  10.180 -0.0556 -0.4047  0.3193
   21CHL1    H3 1482   5.362   6.324  10.172 -0.2850  0.6688 -0.9373
   21CHL1    O3 1483   5.501   6.381  10.314 -0.1835  0.0530 -0.4791
   21CHL1   H3' 1484   5.463   6.307  10.364 -0.5659  1.7026  1.8600
   21CHL1    C4 1485   5.562   6.236  10.136 -0.1086 -0.2222  0.0865
   21CHL1   H4A 1486   5.666   6.264  10.160 -0.0725 -1.4520  1.4754
   21CHL1   H4B 1487   5.531   6.145  10.191 -0.3218 -1.1226 -1.4389
   21CHL1    C5 1488   5.544   6.207   9.985 -0.5172  0.0727  0.2509
   21CHL1    C6 1489   5.507   6.084   9.945 -0.1383  0.1022 -0.1237
   21CHL1    H6 1490   5.500   6.002  10.018  1.7869 -0.8384 -0.9249
   21CHL1    C7 1491   5.484   6.055   9.802  0.6040 -0.1271 -0.2291
   21CHL1   H7A 1492   5.520   5.953   9.775 -2.0742 -1.7531  1.8815
   21CHL1   H7B 1493   5.378   6.037   9.775  1.3164 -2.3782 -1.8845
   21CHL1    C8 1494   5.537   6.159   9.698  0.2005 -0.8085 -0.6568
   21CHL1    H8 1495   5.647   6.149   9.695  0.3308  0.3353 -0.0973
   21CHL1   C14 1496   5.485   6.150   9.558  0.1179 -0.2832  0.1735
   21CHL1   H14 1497   5.379   6.184   9.560 -0.0595 -0.8517  0.7628
   21CHL1   C15 1498   5.498   6.002   9.508  0.0506 -0.7345 -0.1546
   21CHL1  H15A 1499   5.596   5.963   9.542  0.0861  1.4949  2.7141
   21CHL1  H15B 1500   5.413   5.935   9.535 -1.7905  0.9282 -1.5242
   21CHL1   C16 1501   5.488   6.025   9.354 -0.8665  0.5338  0.2392
   21CHL1  H16A 1502   5.565   5.969   9.297 -0.6559 -0.8412  1.8054
   21CHL1  H16B 1503   5.394   5.981   9.315 -0.9751 -0.3617  1.4797
   21CHL1   C17 1504   5.486   6.177   9.326  0.2319 -0.3324 -0.3736
   21CHL1   H17 1505   5.378   6.201   9.334  0.0300  0.1885 -3.3018
   21CHL1   C13 1506   5.540   6.242   9.454 -0.5337  0.4292 -0.3143
   21CHL1   C18 1507   5.699   6.244   9.452  0.1817 -0.0224  0.3397
   21CHL1  H18A 1508   5.729   6.274   9.555  0.0919  1.5277 -0.0508
   21CHL1  H18B 1509   5.728   6.142   9.420 -0.7399  0.2552 -1.5169
   21CHL1  H18C 1510   5.725   6.315   9.371 -2.6206  1.1454  0.3671
   21CHL1   C12 1511   5.482   6.387   9.494  0.1068  0.1617  0.5458
   21CHL1  H12A 1512   5.502   6.478   9.432  0.9793  1.2496  2.3289
   21CHL1  H12B 1513   5.371   6.390   9.492  0.0255  1.6006  2.7526
   21CHL1   C11 1514   5.520   6.421   9.640  0.2112  0.1179 -0.5323
   21CHL1  H11A 1515   5.628   6.447   9.646  0.3132 -0.1572 -1.0639
   21CHL1  H11B 1516   5.469   6.514   9.673  0.5903  0.2570 -0.3403
   21CHL1    C9 1517   5.495   6.303   9.742  0.0789 -0.0282 -0.6995
   21CHL1    H9 1518   5.385   6.297   9.753  0.2415  1.0597  2.5204
   21CHL1   C10 1519   5.549   6.329   9.893 -0.0446 -0.4577  0.4698
   21CHL1   C19 1520   5.696   6.364   9.891 -0.4195 -0.0426 -0.3772
   21CHL1  H19A 1521   5.713   6.450   9.822 -0.5359 -0.3022 -0.7288
   21CHL1  H19B 1522   5.737   6.403   9.987 -0.3572  0.4234 -0.5875
   21CHL1  H19C 1523   5.763   6.281   9.861  1.4362  1.1372  0.3020
   21CHL1    C1 1524   5.464   6.449   9.953 -0.4886  0.4019  0.4257
   21CHL1   H1A 1525   5.479   6.546   9.901 -0.5876  1.4424  2.2501
   21CHL1   H1B 1526   5.356   6.421   9.962 -0.7319  1.1366 -0.0704
   21CHL1    C2 1527   5.493   6.475  10.105 -0.0190 -0.0213  0.2652
   21CHL1   H2A 1528   5.411   6.542  10.139 -3.9289 -3.6517 -1.1284
   21CHL1   H2B 1529   5.590   6.530  10.111 -0.8411  1.9161 -2.1995
   21CHL1   C20 1530   5.531   6.226   9.191  0.0465  0.0179 -0.2776
   21CHL1   H20 1531   5.642   6.224   9.195  0.0234  0.8481  2.2044
   21CHL1   C21 1532   5.477   6.364   9.159  0.0766 -0.1673 -0.2636
   21CHL1  H21A 1533   5.366   6.362   9.158  0.0591 -3.3338 -0.9726
   21CHL1  H21B 1534   5.519   6.387   9.059 -0.9697  0.8679 -0.4887
   21CHL1  H21C 1535   5.520   6.444   9.223  0.9258 -0.6486 -0.2244
   21CHL1   C22 1536   5.504   6.131   9.077  0.3453  0.1544  0.7349
   21CHL1  H22A 1537   5.556   6.034   9.084  0.9896  0.2426 -1.9613
   21CHL1  H22B 1538   5.394   6.120   9.065  0.1149  1.7860  1.0962
   21CHL1   C23 1539   5.546   6.164   8.928 -0.5299  0.3975 -0.4680
   21CHL1  H23A 1540   5.475   6.242   8.891 -3.9541 -2.4171 -0.3255
   21CHL1  H23B 1541   5.652   6.195   8.915  0.2298 -2.4618 -1.8626
   21CHL1   C24 1542   5.514   6.042   8.834  0.0998  0.1994 -0.7911
   21CHL1  H24A 1543   5.579   5.954   8.854  1.1153  0.0982 -3.9597
   21CHL1  H24B 1544   5.406   6.016   8.841  0.3384 -1.0081 -1.3818
   21CHL1   C25 1545   5.525   6.081   8.684  0.2551 -0.0231 -0.0268
   21CHL1   H25 1546   5.521   6.192   8.679 -0.8088 -0.0061  0.8874
   21CHL1   C26 1547   5.668   6.058   8.630 -0.7262 -0.2461 -0.3639
   21CHL1  H26A 1548   5.701   5.952   8.633  1.9356  0.4945 -0.7476
   21CHL1  H26B 1549   5.679   6.078   8.521 -3.0611  0.6890 -0.4780
   21CHL1  H26C 1550   5.739   6.118   8.692  0.5144 -1.5290 -0.4878
   21CHL1   C27 1551   5.419   6.017   8.589  0.0047 -0.8114 -0.0373
   21CHL1  H27A 1552   5.311   6.035   8.610 -0.0024 -2.3947  1.5407
   21CHL1  H27B 1553   5.448   6.048   8.487  0.8374 -1.1470  0.0898
   21CHL1  H27C 1554   5.429   5.907   8.602  0.2669 -1.0067 -1.7628
   22CHL1    C3 1555   2.376   0.879  10.058  1.1816  0.6618  0.2648
   22CHL1    H3 1556   2.291   0.945  10.029 -0.3474 -0.6705  1.5764
   22CHL1    O3 1557   2.372   0.843  10.195 -0.0925  0.6140 -0.1491
   22CHL1   H3' 1558   2.309   0.771  10.196  0.3186  0.1838 -1.5451
   22CHL1    C4 1559   2.367   0.755   9.958 -0.1788 -0.0110 -0.5862
   22CHL1   H4A 1560   2.449   0.689   9.992 -2.6950 -3.2936 -0.3359
   22CHL1   H4B 1561   2.268   0.706   9.972  0.0485 -0.3795 -0.2488
   22CHL1    C5 1562   2.399   0.780   9.816 -0.0679 -0.8629  0.0803
   22CHL1    C6 1563   2.314   0.740   9.719  0.0662 -0.9644 -0.4821
   22CHL1    H6 1564   2.230   0.673   9.743 -0.8568  0.6135  0.8317
   22CHL1    C7 1565   2.342   0.768   9.578  0.0056 -0.5873 -0.3403
   22CHL1   H7A 1566   2.319   0.682   9.512  0.6628  0.9252 -2.6937
   22CHL1   H7B 1567   2.275   0.849   9.543 -1.8543 -1.2845  1.4320
   22CHL1    C8 1568   2.488   0.814   9.550 -0.2755 -0.3885  0.4558
   22CHL1    H8 1569   2.557   0.728   9.555  2.6450  1.7064 -0.8595
   22CHL1   C14 1570   2.506   0.854   9.403 -0.3616  0.2192 -0.3522
   22CHL1   H14 1571   2.441   0.941   9.381  0.8015  0.9925 -0.8251
   22CHL1   C15 1572   2.454   0.757   9.294 -0.7716 -0.4252  0.8042
   22CHL1  H15A 1573   2.491   0.653   9.309  2.4709  0.7327  1.5763
   22CHL1  H15B 1574   2.344   0.754   9.282 -0.6471 -0.2530 -0.4732
   22CHL1   C16 1575   2.520   0.810   9.163 -0.2595  0.3888 -0.4295
   22CHL1  H16A 1576   2.579   0.726   9.120  1.7060 -0.1434  2.8766
   22CHL1  H16B 1577   2.459   0.847   9.078  2.9409  0.3247 -2.9522
   22CHL1   C17 1578   2.624   0.924   9.218  0.4827  0.3558 -0.2725
   22CHL1   H17 1579   2.581   1.027   9.218  1.3858  0.7952  2.3106
   22CHL1   C13 1580   2.643   0.899   9.364 -0.0091  0.0145 -0.4108
   22CHL1   C18 1581   2.751   0.790   9.386  0.2046  0.1601 -0.7420
   22CHL1  H18A 1582   2.739   0.760   9.493 -2.2493 -1.1673 -1.3231
   22CHL1  H18B 1583   2.733   0.701   9.324  0.4303 -0.3349 -0.1133
   22CHL1  H18C 1584   2.852   0.831   9.362 -0.0168  0.9101 -0.4418
   22CHL1   C12 1585   2.673   1.027   9.453 -0.0929  0.7356  0.2442
   22CHL1  H12A 1586   2.771   1.073   9.427 -0.8794  0.9599 -2.7801
   22CHL1  H12B 1587   2.597   1.104   9.428 -2.3815 -1.6512 -0.5568
   22CHL1   C11 1588   2.663   0.996   9.602  0.4278 -0.4084  0.6957
   22CHL1  H11A 1589   2.750   0.936   9.637  0.2653 -1.5977 -0.8652
   22CHL1  H11B 1590   2.661   1.091   9.660 -1.2274 -0.6342  1.0573
   22CHL1    C9 1591   2.527   0.920   9.648  0.3101 -0.2486 -0.6186
   22CHL1    H9 1592   2.451   1.001   9.648  1.0966  0.4928 -0.5529
   22CHL1   C10 1593   2.526   0.859   9.794 -0.5995 -0.0306  0.2187
   22CHL1   C19 1594   2.640   0.761   9.818 -0.2965  0.0497 -0.6945
   22CHL1  H19A 1595   2.644   0.669   9.755 -0.9911 -0.4782  0.0121
   22CHL1  H19B 1596   2.736   0.815   9.809 -1.7747  2.5631 -3.3104
   22CHL1  H19C 1597   2.636   0.730   9.924 -0.4247 -1.3352 -1.0824
   22CHL1    C1 1598   2.540   0.980   9.893  0.1209  0.5633 -0.1333
   22CHL1   H1A 1599   2.645   1.016   9.890  0.0791  1.0406  2.4535
   22CHL1   H1B 1600   2.473   1.062   9.858 -0.8596  0.0129  0.3998
   22CHL1    C2 1601   2.508   0.950  10.040  0.2815  0.3430 -0.1851
   22CHL1   H2A 1602   2.502   1.044  10.099 -0.5695  1.0176 -1.3172
   22CHL1   H2B 1603   2.601   0.897  10.072  0.3350 -0.0466 -0.9751
   22CHL1   C20 1604   2.755   0.941   9.136  0.0117  0.1972 -0.5705
   22CHL1   H20 1605   2.830   0.863   9.165 -0.5459  0.3449  1.4496
   22CHL1   C21 1606   2.832   1.072   9.169 -0.1088 -0.4259  0.3670
   22CHL1  H21A 1607   2.913   1.107   9.103 -0.0446 -0.5401  0.3860
   22CHL1  H21B 1608   2.874   1.065   9.272  0.4131  1.2787  0.2898
   22CHL1  H21C 1609   2.765   1.161   9.166 -0.6632 -0.8349  0.2655
   22CHL1   C22 1610   2.731   0.936   8.981 -0.8622  0.5914 -0.2770
   22CHL1  H22A 1611   2.682   0.841   8.952  0.8424 -0.2848 -0.4468
   22CHL1  H22B 1612   2.656   1.009   8.946 -2.3194 -0.9858 -0.5495
   22CHL1   C23 1613   2.859   0.952   8.894  0.1882 -0.1577  0.2132
   22CHL1  H23A 1614   2.883   1.061   8.900 -1.8437  0.5035 -1.9309
   22CHL1  H23B 1615   2.941   0.893   8.940 -0.7448 -1.2300  0.5531
   22CHL1   C24 1616   2.817   0.920   8.746  0.5945  0.1369  1.4178
   22CHL1  H24A 1617   2.761   0.826   8.732 -0.9527  1.2386 -0.2641
   22CHL1  H24B 1618   2.750   1.005   8.720 -0.5041 -0.8927  0.8202
   22CHL1   C25 1619   2.937   0.906   8.640  0.2904 -0.4483 -0.6388
   22CHL1   H25 1620   3.006   0.832   8.687 -0.6107 -0.0820  1.3448
   22CHL1   C26 1621   2.882   0.860   8.505 -0.0483 -0.4605  0.2540
   22CHL1  H26A 1622   2.803   0.927   8.466  0.1925 -0.4218 -0.1770
   22CHL1  H26B 1623   2.960   0.860   8.425 -0.3437  1.9623 -0.1142
   22CHL1  H26C 1624   2.826   0.766   8.523  0.7885 -0.6368  2.2837
   22CHL1   C27 1625   3.009   1.043   8.629 -0.4861  0.1245  0.0299
   22CHL1  H27A 1626   3.051   1.065   8.528 -0.2356  3.2788  0.7160
   22CHL1  H27B 1627   2.929   1.116   8.653 -0.0991  0.2598  0.9761
   22CHL1  H27C 1628   3.085   1.048   8.710 -0.3191  1.9017 -0.1995
   23CHL1    C3 1629   2.093   2.682  10.002 -0.4743 -0.6105 -0.1950
   23CHL1    H3 1630   2.201   2.660   9.983 -0.3549 -0.6673  0.4875
   23CHL1    O3 1631   2.073   2.731  10.134 -0.4148 -0.3761  0.1497
   23CHL1   H3' 1632   1.978   2.739  10.132 -0.5957 -2.0673 -2.2508
   23CHL1    C4 1633   2.037   2.786   9.898 -0.3639  0.2804  0.0935
   23CHL1   H4A 1634   1.935   2.792   9.942  0.8464 -1.7790  3.5568
   23CHL1   H4B 1635   2.094   2.881   9.896 -1.2645  0.8302 -1.8042
   23CHL1    C5 1636   2.030   2.732   9.759 -0.2226  0.5332 -0.1690
   23CHL1    C6 1637   2.086   2.792   9.658  0.4337  0.3919 -0.0061
   23CHL1    H6 1638   2.136   2.887   9.679  0.7774  0.1880  0.1080
   23CHL1    C7 1639   2.079   2.749   9.520  0.8766  0.4257 -0.3114
   23CHL1   H7A 1640   2.055   2.835   9.454 -0.0420  2.0940  2.0502
   23CHL1   H7B 1641   2.173   2.702   9.485 -0.1415 -0.4190 -1.9876
   23CHL1    C8 1642   1.973   2.636   9.495  0.2737  0.2603  0.2932
   23CHL1    H8 1643   1.881   2.697   9.481 -1.2501 -1.9806  0.0450
   23CHL1   C14 1644   1.995   2.567   9.368 -0.5601  0.3022  0.6634
   23CHL1   H14 1645   2.096   2.520   9.367 -0.2508  0.9356  0.9113
   23CHL1   C15 1646   2.025   2.652   9.247 -0.5947 -0.3908 -0.2510
   23CHL1  H15A 1647   1.961   2.742   9.253 -1.3459 -0.6491 -3.0509
   23CHL1  H15B 1648   2.132   2.681   9.236  0.0812 -0.5490  3.9892
   23CHL1   C16 1649   1.971   2.566   9.135  0.3498  0.0036  0.4869
   23CHL1  H16A 1650   1.880   2.613   9.093  1.2654  1.3200 -0.0803
   23CHL1  H16B 1651   2.062   2.552   9.073  0.4387 -1.5819  0.9246
   23CHL1   C17 1652   1.930   2.430   9.195  0.2334 -0.1377 -0.5211
   23CHL1   H17 1653   2.018   2.366   9.216 -0.2648 -0.2656  1.3674
   23CHL1   C13 1654   1.889   2.462   9.337 -0.3894  0.3742  0.2459
   23CHL1   C18 1655   1.743   2.528   9.328 -0.0165  0.5472 -0.5896
   23CHL1  H18A 1656   1.704   2.552   9.429 -0.6842  0.7095 -0.8847
   23CHL1  H18B 1657   1.740   2.619   9.263 -1.7871 -1.4995 -3.6253
   23CHL1  H18C 1658   1.677   2.461   9.270  1.4765 -1.2256 -0.3099
   23CHL1   C12 1659   1.902   2.356   9.439 -0.1641 -0.5687  0.5711
   23CHL1  H12A 1660   1.834   2.270   9.424 -0.9119 -0.1970  1.7352
   23CHL1  H12B 1661   2.009   2.325   9.438 -0.2462 -0.8523  0.2283
   23CHL1   C11 1662   1.884   2.409   9.577 -0.2589  0.2753 -0.5749
   23CHL1  H11A 1663   1.778   2.440   9.585  0.3055  2.3780 -0.6893
   23CHL1  H11B 1664   1.917   2.331   9.648  1.6059  1.3895 -0.1488
   23CHL1    C9 1665   1.977   2.532   9.600  0.5358 -0.1512  0.2920
   23CHL1    H9 1666   2.079   2.490   9.593  1.8085  2.6730  0.4974
   23CHL1   C10 1667   1.959   2.599   9.744 -0.0598  0.0508  0.5750
   23CHL1   C19 1668   1.810   2.626   9.773 -0.1330  0.5169  0.0018
   23CHL1  H19A 1669   1.796   2.667   9.875 -2.4404 -0.7821  0.2827
   23CHL1  H19B 1670   1.759   2.694   9.701 -1.0996 -1.1014 -0.9149
   23CHL1  H19C 1671   1.752   2.531   9.767  0.9111 -0.2463  1.3754
   23CHL1    C1 1672   2.025   2.499   9.841  0.6249  0.3274 -0.4864
   23CHL1   H1A 1673   1.973   2.401   9.834  0.4292  0.2745  1.2912
   23CHL1   H1B 1674   2.133   2.491   9.816  0.7447  0.1943  0.0737
   23CHL1    C2 1675   2.029   2.540   9.989 -0.2595 -0.3394 -0.2866
   23CHL1   H2A 1676   2.094   2.476  10.052  1.8802 -1.0393 -2.9858
   23CHL1   H2B 1677   1.926   2.553  10.028  0.9698  3.3847  2.1644
   23CHL1   C20 1678   1.845   2.369   9.085  0.7147 -0.1129  0.8334
   23CHL1   H20 1679   1.752   2.428   9.070  0.9469  0.0061 -0.2195
   23CHL1   C21 1680   1.784   2.231   9.128  0.1255 -0.2012 -0.2708
   23CHL1  H21A 1681   1.843   2.141   9.099  1.8530  0.4794  0.9411
   23CHL1  H21B 1682   1.688   2.225   9.073  1.0656  1.2246 -2.2044
   23CHL1  H21C 1683   1.763   2.227   9.237  1.3083  0.9776  0.0309
   23CHL1   C22 1684   1.913   2.349   8.949  0.9078  0.6944  0.3585
   23CHL1  H22A 1685   1.960   2.441   8.909  2.0492  0.8690  1.9713
   23CHL1  H22B 1686   1.996   2.277   8.969  0.5490  0.5520  1.3788
   23CHL1   C23 1687   1.822   2.302   8.832  0.1492  0.6317 -0.1004
   23CHL1  H23A 1688   1.780   2.203   8.861 -0.6735  1.3251  1.1533
   23CHL1  H23B 1689   1.745   2.380   8.820  0.2885  1.2295  2.3908
   23CHL1   C24 1690   1.905   2.296   8.700  0.4666 -0.1439 -0.0273
   23CHL1  H24A 1691   1.949   2.396   8.676 -0.9132  0.2151 -1.1466
   23CHL1  H24B 1692   1.987   2.222   8.715  0.6702  0.2828  1.1322
   23CHL1   C25 1693   1.829   2.257   8.573  1.0097 -1.0185 -0.1607
   23CHL1   H25 1694   1.733   2.312   8.557  1.0383 -1.0112 -0.3034
   23CHL1   C26 1695   1.924   2.290   8.453  0.4760  0.5178  0.4789
   23CHL1  H26A 1696   1.938   2.399   8.434  0.0905  0.4619 -0.1788
   23CHL1  H26B 1697   2.026   2.248   8.464 -0.0466 -0.9498 -0.0167
   23CHL1  H26C 1698   1.889   2.249   8.356  2.1435 -0.5484  0.2979
   23CHL1   C27 1699   1.802   2.104   8.576  0.5228  0.5165 -0.2075
   23CHL1  H27A 1700   1.893   2.059   8.622  0.4944 -0.8768 -1.4354
   23CHL1  H27B 1701   1.713   2.077   8.636  2.0373  0.2470  2.0529
   23CHL1  H27C 1702   1.784   2.059   8.476 -1.4371  1.1672 -0.1804
   24CHL1    C3 1703   2.468   5.637  10.054  0.3035 -0.5958 -0.3435
   24CHL1    H3 1704   2.430   5.536  10.026 -0.1120 -1.2153  2.2061
   24CHL1    O3 1705   2.492   5.618  10.192 -0.6429  0.1767 -0.0040
   24CHL1   H3' 1706   2.420   5.574  10.237 -0.4614  1.2229  1.4191
   24CHL1    C4 1707   2.596   5.672   9.978  0.0939 -0.0114  0.0988
   24CHL1   H4A 1708   2.627   5.768  10.024 -0.8023  1.1285 -1.5720
   24CHL1   H4B 1709   2.672   5.591   9.982  1.1949  0.8522 -1.9139
   24CHL1    C5 1710   2.571   5.705   9.830  0.5044  0.0921 -0.4057
   24CHL1    C6 1711   2.644   5.643   9.740 -0.1018  0.0965 -0.3552
   24CHL1    H6 1712   2.730   5.582   9.773 -0.3900 -0.5709 -0.8200
   24CHL1    C7 1713   2.639   5.672   9.592  0.1881  0.5756 -0.0321
   24CHL1   H7A 1714   2.739   5.675   9.543  0.7714  0.3756  1.1213
   24CHL1   H7B 1715   2.603   5.574   9.554  0.7254  0.5895 -0.5895
   24CHL1    C8 1716   2.552   5.791   9.556  0.6642 -0.3805  0.5342
   24CHL1    H8 1717   2.612   5.883   9.574 -1.0076  1.1975 -1.4038
   24CHL1   C14 1718   2.511   5.784   9.411  0.6724 -0.0378 -0.0081
   24CHL1   H14 1719   2.478   5.677   9.409  1.4276 -0.2868  0.4002
   24CHL1   C15 1720   2.624   5.774   9.300 -0.0731 -0.3557  0.7584
   24CHL1  H15A 1721   2.698   5.856   9.315 -0.7211  0.3368  0.2741
   24CHL1  H15B 1722   2.681   5.679   9.297  1.3374  0.4667 -2.7036
   24CHL1   C16 1723   2.538   5.794   9.176  0.3125 -0.4262 -0.3285
   24CHL1  H16A 1724   2.590   5.876   9.123 -0.3741  0.1843 -0.0772
   24CHL1  H16B 1725   2.537   5.701   9.115 -0.9753  0.2020 -1.3309
   24CHL1   C17 1726   2.390   5.830   9.219 -0.1295 -0.0641  0.2671
   24CHL1   H17 1727   2.345   5.730   9.236 -0.4653  0.3850  2.2529
   24CHL1   C13 1728   2.400   5.882   9.363 -0.6172 -0.0041  0.4843
   24CHL1   C18 1729   2.457   6.026   9.376 -0.0500  0.2298  1.0974
   24CHL1  H18A 1730   2.481   6.067   9.476 -3.1929  1.1230  1.5855
   24CHL1  H18B 1731   2.548   6.032   9.313 -1.3082  0.9598 -0.7457
   24CHL1  H18C 1732   2.386   6.101   9.335  0.9092  1.0196  0.8596
   24CHL1   C12 1733   2.279   5.865   9.454 -0.1015 -0.0828 -0.0132
   24CHL1  H12A 1734   2.200   5.935   9.420  1.6521  3.2452  2.2368
   24CHL1  H12B 1735   2.241   5.764   9.427  1.3168 -0.2494 -1.5063
   24CHL1   C11 1736   2.309   5.879   9.601  0.8056 -0.3659  0.3631
   24CHL1  H11A 1737   2.325   5.985   9.632  2.6980 -0.5179  0.0245
   24CHL1  H11B 1738   2.217   5.843   9.652 -2.1096  2.5724 -2.3050
   24CHL1    C9 1739   2.425   5.790   9.649 -0.1734 -0.6798  0.0743
   24CHL1    H9 1740   2.373   5.692   9.637 -3.2641  0.8644 -0.1811
   24CHL1   C10 1741   2.456   5.801   9.803  0.4045 -0.2837 -0.6088
   24CHL1   C19 1742   2.497   5.945   9.827  0.1969 -0.1691 -0.2795
   24CHL1  H19A 1743   2.595   5.969   9.779  1.2074 -1.7495  0.8933
   24CHL1  H19B 1744   2.421   6.025   9.814  0.0879 -0.0624  0.9109
   24CHL1  H19C 1745   2.520   5.969   9.933  1.2357 -2.0958 -0.0197
   24CHL1    C1 1746   2.329   5.767   9.890 -0.7370 -0.2178  0.3527
   24CHL1   H1A 1747   2.252   5.847   9.884 -1.8316 -1.1035  1.9196
   24CHL1   H1B 1748   2.297   5.669   9.849  2.1365 -0.7792 -0.8190
   24CHL1    C2 1749   2.358   5.740  10.040  0.9288  0.0245  0.4641
   24CHL1   H2A 1750   2.267   5.701  10.090  0.7255  0.4857  0.4642
   24CHL1   H2B 1751   2.383   5.832  10.097 -1.0468  0.0232  1.4064
   24CHL1   C20 1752   2.304   5.903   9.110  0.0939 -0.3936  0.6030
   24CHL1   H20 1753   2.203   5.934   9.146 -0.3861  1.6441 -2.2129
   24CHL1   C21 1754   2.273   5.793   9.001  0.0938  0.3657  0.0100
   24CHL1  H21A 1755   2.361   5.745   8.952  0.3141 -0.1207  0.8488
   24CHL1  H21B 1756   2.212   5.830   8.917  1.1919  1.1566 -0.4613
   24CHL1  H21C 1757   2.213   5.716   9.053 -1.8378 -0.3652 -3.1022
   24CHL1   C22 1758   2.360   6.030   9.044 -0.5570 -0.1752  0.9015
   24CHL1  H22A 1759   2.418   6.086   9.121  0.4829  2.1820 -1.4217
   24CHL1  H22B 1760   2.429   5.992   8.965 -0.8467 -0.0335  0.5769
   24CHL1   C23 1761   2.262   6.130   8.976  0.5276 -0.0942  0.6611
   24CHL1  H23A 1762   2.217   6.077   8.890 -2.3449  0.1182  1.9212
   24CHL1  H23B 1763   2.177   6.147   9.045  0.3793 -0.6354  0.6173
   24CHL1   C24 1764   2.314   6.273   8.945 -0.0431  0.1211 -0.0711
   24CHL1  H24A 1765   2.397   6.260   8.872  1.0860 -2.9967  1.5741
   24CHL1  H24B 1766   2.233   6.329   8.893  1.4604  0.7747 -1.8231
   24CHL1   C25 1767   2.352   6.355   9.068 -0.6479 -0.0615 -0.0260
   24CHL1   H25 1768   2.448   6.313   9.105 -1.1029 -0.2105  1.0395
   24CHL1   C26 1769   2.379   6.504   9.034 -0.4816  0.2962 -0.1608
   24CHL1  H26A 1770   2.280   6.542   9.002 -0.7655  0.2090  0.5895
   24CHL1  H26B 1771   2.426   6.555   9.121  0.0602 -2.1368  1.0636
   24CHL1  H26C 1772   2.445   6.512   8.945 -1.3070 -0.3456 -0.8396
   24CHL1   C27 1773   2.261   6.358   9.196  0.4132  0.2316  0.7300
   24CHL1  H27A 1774   2.232   6.253   9.219 -0.9245 -0.3360 -2.9792
   24CHL1  H27B 1775   2.321   6.391   9.284 -1.1645 -2.1385  2.8622
   24CHL1  H27C 1776   2.165   6.411   9.177  0.5065  0.5741  1.2024
   25CHL1    C3 1777   0.024   5.673  10.336  0.1874  0.2445 -0.5146
   25CHL1    H3 1778   0.058   5.567  10.344 -2.2785 -0.4354  4.1569
   25CHL1    O3 1779   0.013   5.732  10.465  0.4187  0.0318 -0.0923
   25CHL1   H3' 1780   0.000   5.826  10.449 -1.8119 -0.1221  0.5290
   25CHL1    C4 1781   0.140   5.739  10.262 -0.2434 -0.3550 -0.0040
   25CHL1   H4A 1782   0.104   5.843  10.247  0.1443 -0.4342 -1.6764
   25CHL1   H4B 1783   0.236   5.730  10.317  0.7268  0.5501 -1.4522
   25CHL1    C5 1784   0.152   5.676  10.119 -0.1958 -0.5454 -0.1883
   25CHL1    C6 1785   0.264   5.628  10.066  0.4182 -0.0072  0.0633
   25CHL1    H6 1786   0.356   5.625  10.127  0.0352 -0.2303  0.6447
   25CHL1    C7 1787   0.290   5.572   9.928  0.0791  0.0294 -0.2273
   25CHL1   H7A 1788   0.371   5.624   9.873  1.2881 -1.3100  0.2157
   25CHL1   H7B 1789   0.302   5.462   9.943  0.4629 -0.3708 -2.9131
   25CHL1    C8 1790   0.167   5.590   9.833  0.6060 -0.4465 -0.5040
   25CHL1    H8 1791   0.171   5.694   9.794  1.7519 -0.0745  0.5089
   25CHL1   C14 1792   0.179   5.492   9.722  0.4268 -0.0573 -0.4672
   25CHL1   H14 1793   0.168   5.395   9.775 -0.9128  0.0106 -0.5900
   25CHL1   C15 1794   0.308   5.471   9.646 -0.4427  0.4552  0.7019
   25CHL1  H15A 1795   0.368   5.560   9.620  1.4351 -1.0343 -0.3134
   25CHL1  H15B 1796   0.374   5.409   9.710  1.2801  2.5286  1.0065
   25CHL1   C16 1797   0.268   5.408   9.509  0.1477  0.2390 -0.1464
   25CHL1  H16A 1798   0.298   5.484   9.434  1.2984 -1.5983 -1.6750
   25CHL1  H16B 1799   0.310   5.306   9.490  0.2133 -0.1213  1.7606
   25CHL1   C17 1800   0.111   5.397   9.512  1.0453  0.1234 -0.0155
   25CHL1   H17 1801   0.085   5.296   9.550  0.2001 -0.8868 -2.9861
   25CHL1   C13 1802   0.066   5.495   9.622  0.6906 -0.6334  0.9405
   25CHL1   C18 1803   0.059   5.635   9.550 -0.4319 -0.6846 -0.3179
   25CHL1  H18A 1804   0.157   5.659   9.503 -0.0882 -1.2497  0.1005
   25CHL1  H18B 1805  -0.025   5.636   9.476 -1.1925  2.2067  0.4622
   25CHL1  H18C 1806   0.051   5.717   9.625  0.3862 -1.4432  0.6217
   25CHL1   C12 1807  -0.064   5.462   9.701 -0.0971 -0.2943  0.2909
   25CHL1  H12A 1808  -0.153   5.455   9.634 -0.1662 -0.9259  0.4421
   25CHL1  H12B 1809  -0.050   5.363   9.751  0.1364  0.6470  2.1535
   25CHL1   C11 1810  -0.096   5.568   9.816 -0.2368  0.1736 -0.3547
   25CHL1  H11A 1811  -0.097   5.670   9.772  0.1464  1.2585  2.0091
   25CHL1  H11B 1812  -0.198   5.552   9.857 -0.3755  1.0642 -0.3348
   25CHL1    C9 1813   0.030   5.580   9.908  0.4172  0.3886 -0.3069
   25CHL1    H9 1814   0.037   5.476   9.946  1.4611  0.2287 -0.9099
   25CHL1   C10 1815   0.016   5.675  10.040 -0.3936  0.3206  0.3763
   25CHL1   C19 1816   0.002   5.829   9.997 -0.2170  0.2644 -0.0100
   25CHL1  H19A 1817  -0.008   5.895  10.085 -1.1479 -2.8958  2.4533
   25CHL1  H19B 1818   0.089   5.858   9.935  0.9799  0.0326  1.5006
   25CHL1  H19C 1819  -0.095   5.840   9.944  1.1127 -0.1145 -2.6809
   25CHL1    C1 1820  -0.106   5.628  10.123 -0.0306 -0.0119 -0.7773
   25CHL1   H1A 1821  -0.201   5.670  10.082 -1.1244 -1.0315  0.6023
   25CHL1   H1B 1822  -0.127   5.519  10.125 -1.4072  0.2395  0.9806
   25CHL1    C2 1823  -0.103   5.687  10.266  0.0342  0.1767 -0.3502
   25CHL1   H2A 1824  -0.197   5.646  10.308  2.0496 -1.3710  3.0555
   25CHL1   H2B 1825  -0.121   5.796  10.258 -0.7216  0.3974  2.8657
   25CHL1   C20 1826   0.058   5.399   9.370 -0.8251 -0.6475 -0.0423
   25CHL1   H20 1827   0.082   5.493   9.316  0.2366 -0.7954  0.1517
   25CHL1   C21 1828  -0.090   5.381   9.380 -0.1185 -0.0500 -0.5295
   25CHL1  H21A 1829  -0.136   5.384   9.279 -1.2127 -1.1825 -0.1030
   25CHL1  H21B 1830  -0.140   5.466   9.432 -0.3473  1.1020 -2.5470
   25CHL1  H21C 1831  -0.119   5.281   9.419  1.1997 -0.4199 -0.4373
   25CHL1   C22 1832   0.110   5.290   9.273 -0.2206  0.1383  0.3746
   25CHL1  H22A 1833   0.221   5.281   9.278  0.0473  2.0880 -1.0445
   25CHL1  H22B 1834   0.067   5.197   9.316 -0.3874  0.8602  1.8106
   25CHL1   C23 1835   0.067   5.316   9.134  0.4498  0.0017  0.0104
   25CHL1  H23A 1836  -0.044   5.323   9.123  0.4410 -0.1439  0.0042
   25CHL1  H23B 1837   0.103   5.415   9.101  0.4615 -0.3786 -1.1688
   25CHL1   C24 1838   0.100   5.221   9.023  0.1471 -0.2748  0.8685
   25CHL1  H24A 1839   0.202   5.179   9.041  0.9419  1.7104  1.2184
   25CHL1  H24B 1840   0.044   5.125   9.027  0.7841 -0.7187 -0.3359
   25CHL1   C25 1841   0.096   5.273   8.882  0.8947  0.9229 -0.7482
   25CHL1   H25 1842  -0.010   5.302   8.865  0.1992 -0.7819  0.3018
   25CHL1   C26 1843   0.182   5.394   8.847  0.0789 -0.8296 -0.0293
   25CHL1  H26A 1844   0.124   5.473   8.899 -1.0700 -1.1829 -0.7437
   25CHL1  H26B 1845   0.285   5.363   8.877 -0.7477 -3.5367  0.2862
   25CHL1  H26C 1846   0.172   5.421   8.740 -0.3040 -0.4709  0.0956
   25CHL1   C27 1847   0.123   5.153   8.796  0.2693  0.1557 -0.6142
   25CHL1  H27A 1848   0.228   5.133   8.828 -0.0369  1.9339  1.8074
   25CHL1  H27B 1849   0.049   5.071   8.807  0.0248  0.2248 -1.6558
   25CHL1  H27C 1850   0.107   5.190   8.693 -0.7549 -1.0473 -0.9054
   26CHL1    C3 1851   4.876   6.698  10.061 -0.0349  0.2946  0.3159
   26CHL1    H3 1852   4.784   6.700   9.999 -0.9539 -2.8073  1.3616
   26CHL1    O3 1853   4.847   6.661  10.195  0.2918 -0.2679 -0.0295
   26CHL1   H3' 1854   4.928   6.638  10.241 -0.4782 -2.3393  0.3643
   26CHL1    C4 1855   4.967   6.589  10.003 -0.1696  0.0306 -1.0825
   26CHL1   H4A 1856   5.060   6.584  10.064 -0.7078 -0.3930 -0.2848
   26CHL1   H4B 1857   4.931   6.485  10.018  1.0722 -0.3657 -0.6713
   26CHL1    C5 1858   5.005   6.611   9.861 -0.5499 -0.9951  0.4917
   26CHL1    C6 1859   4.987   6.521   9.764  0.1414 -0.5425 -0.2492
   26CHL1    H6 1860   4.932   6.430   9.791 -1.4387  0.6008  0.5529
   26CHL1    C7 1861   5.037   6.536   9.629 -0.0736 -0.0302  0.0367
   26CHL1   H7A 1862   5.095   6.444   9.604 -0.6414 -1.2990  2.9665
   26CHL1   H7B 1863   4.955   6.551   9.555  0.3740  0.3609 -0.3805
   26CHL1    C8 1864   5.132   6.653   9.613  0.6869 -0.3817  0.4667
   26CHL1    H8 1865   5.236   6.619   9.633  0.9289  0.2092  0.2345
   26CHL1   C14 1866   5.143   6.697   9.463 -0.4834  0.3843  0.2623
   26CHL1   H14 1867   5.040   6.731   9.438 -1.3648 -2.5445 -0.6274
   26CHL1   C15 1868   5.165   6.582   9.352 -0.1091 -0.5796 -0.4294
   26CHL1  H15A 1869   5.250   6.516   9.379 -0.1939 -0.0719  1.1208
   26CHL1  H15B 1870   5.071   6.529   9.325  0.7946 -2.4175 -0.1315
   26CHL1   C16 1871   5.208   6.670   9.228  0.2392  0.0253 -0.1100
   26CHL1  H16A 1872   5.299   6.614   9.197 -0.4231 -1.6597  0.8196
   26CHL1  H16B 1873   5.132   6.660   9.148  0.2841 -1.5804  0.0026
   26CHL1   C17 1874   5.228   6.819   9.279  0.5652  0.0137 -0.4771
   26CHL1   H17 1875   5.129   6.866   9.260 -0.7262 -1.8531  1.2420
   26CHL1   C13 1876   5.240   6.815   9.430 -1.4394 -0.3263 -0.1882
   26CHL1   C18 1877   5.391   6.784   9.463  0.6781 -0.6391  0.2726
   26CHL1  H18A 1878   5.454   6.875   9.453 -1.2366  0.7275  0.0450
   26CHL1  H18B 1879   5.400   6.738   9.563 -1.3399 -2.5154 -0.3272
   26CHL1  H18C 1880   5.432   6.705   9.396  0.7818  0.0182 -0.4618
   26CHL1   C12 1881   5.186   6.935   9.503 -0.0059 -0.4037  0.5062
   26CHL1  H12A 1882   5.253   7.023   9.497 -0.2767 -0.1811  0.6903
   26CHL1  H12B 1883   5.089   6.973   9.464  0.3136 -0.7978 -0.6954
   26CHL1   C11 1884   5.173   6.903   9.654  0.2236  0.4393  0.3419
   26CHL1  H11A 1885   5.276   6.898   9.695  1.2311  0.5888 -1.9961
   26CHL1  H11B 1886   5.120   6.989   9.701  2.3167  0.2772  3.2587
   26CHL1    C9 1887   5.095   6.776   9.690 -0.4453  0.2020  0.0517
   26CHL1    H9 1888   4.993   6.802   9.654 -1.2326 -1.8205  0.7029
   26CHL1   C10 1889   5.073   6.749   9.841  0.4297  0.2323  0.1206
   26CHL1   C19 1890   5.205   6.756   9.911 -0.5007  0.2039  0.4667
   26CHL1  H19A 1891   5.276   6.687   9.861 -0.1970  0.3800  0.6499
   26CHL1  H19B 1892   5.243   6.859   9.895 -0.8170  0.1574 -0.6197
   26CHL1  H19C 1893   5.209   6.753  10.022  1.3296  0.3529  0.4404
   26CHL1    C1 1894   4.983   6.859   9.911 -0.0490  0.0449  0.0145
   26CHL1   H1A 1895   5.023   6.963   9.908  0.3550 -0.1429 -1.4247
   26CHL1   H1B 1896   4.889   6.876   9.855 -0.1046  2.4211  0.6890
   26CHL1    C2 1897   4.948   6.835  10.060  0.1889  0.3392 -0.8242
   26CHL1   H2A 1898   4.876   6.914  10.090  1.7273  1.8276 -0.8656
   26CHL1   H2B 1899   5.034   6.832  10.131 -0.0733  1.9882 -0.4022
   26CHL1   C20 1900   5.334   6.896   9.195  0.7721 -0.8479 -0.9764
   26CHL1   H20 1901   5.437   6.860   9.213  0.8607 -0.3167 -0.4016
   26CHL1   C21 1902   5.321   7.052   9.224 -0.7017  0.3199  0.2916
   26CHL1  H21A 1903   5.218   7.072   9.190 -1.0845 -1.4355  0.3191
   26CHL1  H21B 1904   5.386   7.120   9.165 -0.1479  1.0713  1.7048
   26CHL1  H21C 1905   5.325   7.080   9.332  0.2693  1.6859 -0.0741
   26CHL1   C22 1906   5.324   6.865   9.038  0.1181  0.4873 -0.3610
   26CHL1  H22A 1907   5.338   6.757   9.018  0.6817  0.6042 -0.5955
   26CHL1  H22B 1908   5.221   6.882   9.000 -0.3348 -3.3882 -1.2225
   26CHL1   C23 1909   5.420   6.951   8.950  0.3227  0.1246 -0.2488
   26CHL1  H23A 1910   5.369   7.047   8.927 -1.3842 -1.3339 -3.0685
   26CHL1  H23B 1911   5.512   6.965   9.010  0.7361  0.3890 -0.9471
   26CHL1   C24 1912   5.444   6.901   8.810  0.2515  0.0012  0.2482
   26CHL1  H24A 1913   5.463   6.793   8.825  0.4566  0.0725  0.5323
   26CHL1  H24B 1914   5.354   6.925   8.750  1.6488  0.2040 -1.8951
   26CHL1   C25 1915   5.567   6.959   8.739  1.0340 -0.4584 -0.3240
   26CHL1   H25 1916   5.652   6.973   8.810  0.4520 -0.4807  0.3991
   26CHL1   C26 1917   5.613   6.873   8.619  0.7006 -0.1290  0.2132
   26CHL1  H26A 1918   5.548   6.887   8.530  1.5999  0.8495 -0.3281
   26CHL1  H26B 1919   5.712   6.909   8.583 -0.7822  3.3666 -0.8433
   26CHL1  H26C 1920   5.619   6.766   8.648 -1.4631  0.0935  1.7116
   26CHL1   C27 1921   5.521   7.095   8.689  0.3925 -0.0700  0.2574
   26CHL1  H27A 1922   5.475   7.163   8.764 -0.0337  1.0929 -1.0076
   26CHL1  H27B 1923   5.607   7.159   8.660  0.0686 -0.5459 -1.9478
   26CHL1  H27C 1924   5.456   7.097   8.599 -0.1781 -0.4072  0.6579
   27CHL1    C3 1925   0.446   4.699  10.122  0.2998  0.2824  0.5264
   27CHL1    H3 1926   0.499   4.796  10.135  0.8587 -0.3331  3.8505
   27CHL1    O3 1927   0.403   4.647  10.251 -0.3255  0.7499  0.1723
   27CHL1   H3' 1928   0.358   4.565  10.232 -2.1391  1.1616  2.2322
   27CHL1    C4 1929   0.312   4.726  10.046  0.2748 -0.0571  0.0936
   27CHL1   H4A 1930   0.259   4.628  10.042  0.8189 -0.4432  1.7734
   27CHL1   H4B 1931   0.256   4.799  10.107 -1.4906 -0.2917 -1.1739
   27CHL1    C5 1932   0.324   4.774   9.899  0.3840  0.2723 -0.4814
   27CHL1    C6 1933   0.270   4.889   9.860  0.6578  0.6656  0.7605
   27CHL1    H6 1934   0.208   4.946   9.930  1.0823 -0.9417  2.5427
   27CHL1    C7 1935   0.284   4.938   9.717 -0.4326 -1.1938  0.3382
   27CHL1   H7A 1936   0.195   4.994   9.681  0.8959 -0.0290 -1.2834
   27CHL1   H7B 1937   0.361   5.014   9.740 -0.3972 -1.1847  0.1906
   27CHL1    C8 1938   0.341   4.839   9.624  0.3608  0.3294 -0.3725
   27CHL1    H8 1939   0.260   4.768   9.595 -0.0224  0.0091  1.3875
   27CHL1   C14 1940   0.385   4.908   9.497 -0.7413 -0.0548  0.1209
   27CHL1   H14 1941   0.471   4.966   9.537 -0.3016 -0.5603 -0.0906
   27CHL1   C15 1942   0.289   5.009   9.437 -0.6532 -0.1849 -0.0672
   27CHL1  H15A 1943   0.189   4.964   9.420 -1.1833  0.2684  1.6071
   27CHL1  H15B 1944   0.272   5.103   9.494  2.2999  0.5988 -0.3455
   27CHL1   C16 1945   0.360   5.033   9.302 -0.1272  0.2624 -0.3737
   27CHL1  H16A 1946   0.287   5.023   9.219  0.2263  2.0956 -0.9470
   27CHL1  H16B 1947   0.391   5.139   9.297 -1.1026  0.7805  2.5802
   27CHL1   C17 1948   0.475   4.925   9.287  0.1752  0.5591  0.4576
   27CHL1   H17 1949   0.570   4.970   9.322  0.5510  0.3233 -0.2450
   27CHL1   C13 1950   0.440   4.820   9.385  0.0822 -0.6274 -0.4609
   27CHL1   C18 1951   0.335   4.722   9.327  0.3052 -0.3942 -0.3387
   27CHL1  H18A 1952   0.298   4.647   9.400  1.1137 -2.3288 -1.8534
   27CHL1  H18B 1953   0.246   4.771   9.283 -1.8382 -3.8630 -0.2256
   27CHL1  H18C 1954   0.368   4.663   9.239 -0.2373 -2.0122  0.4979
   27CHL1   C12 1955   0.552   4.740   9.448 -0.1708  0.2878  0.2362
   27CHL1  H12A 1956   0.604   4.663   9.388  0.6029 -2.2145  3.7930
   27CHL1  H12B 1957   0.629   4.815   9.479  3.5611 -2.4606 -1.5334
   27CHL1   C11 1958   0.516   4.661   9.573  0.2874 -0.2392  0.5303
   27CHL1  H11A 1959   0.438   4.589   9.542  0.9534 -0.3785 -0.8879
   27CHL1  H11B 1960   0.611   4.616   9.608  1.2865  1.4485  0.0778
   27CHL1    C9 1961   0.444   4.749   9.683 -0.4943 -0.1286 -0.5745
   27CHL1    H9 1962   0.522   4.822   9.714 -2.3650  1.0645  1.6318
   27CHL1   C10 1963   0.405   4.684   9.815  0.2572  0.2867  0.5541
   27CHL1   C19 1964   0.318   4.551   9.783  0.3566 -0.1650  0.0038
   27CHL1  H19A 1965   0.274   4.514   9.878  0.2353 -0.1003 -0.0272
   27CHL1  H19B 1966   0.241   4.583   9.710  1.9621  2.6894 -0.5816
   27CHL1  H19C 1967   0.389   4.481   9.735 -0.2818  0.2848 -1.6813
   27CHL1    C1 1968   0.534   4.646   9.893 -0.3065 -0.4181 -0.1567
   27CHL1   H1A 1969   0.583   4.566   9.833 -1.7422 -0.7296 -0.9605
   27CHL1   H1B 1970   0.602   4.733   9.905 -0.5573  0.1273 -2.3611
   27CHL1    C2 1971   0.523   4.591  10.038  1.1823 -0.6422 -0.3651
   27CHL1   H2A 1972   0.628   4.581  10.071  0.6812 -1.3920  1.0808
   27CHL1   H2B 1973   0.472   4.492  10.039 -1.2515  0.5201 -0.9795
   27CHL1   C20 1974   0.499   4.888   9.137 -0.3645 -0.4040 -0.6552
   27CHL1   H20 1975   0.409   4.837   9.096 -1.5667 -0.0061  1.3154
   27CHL1   C21 1976   0.619   4.799   9.121  0.1339 -0.5663 -0.6225
   27CHL1  H21A 1977   0.710   4.846   9.164 -1.2062  1.5644  0.0460
   27CHL1  H21B 1978   0.630   4.775   9.013 -1.7606 -0.6725 -0.8232
   27CHL1  H21C 1979   0.612   4.706   9.180 -0.1283  0.1490  0.4986
   27CHL1   C22 1980   0.528   5.023   9.059 -0.5306  0.0256  0.2863
   27CHL1  H22A 1981   0.433   5.081   9.059 -0.9627 -0.6372 -1.1484
   27CHL1  H22B 1982   0.609   5.082   9.106 -2.3177  1.7243  1.3885
   27CHL1   C23 1983   0.549   5.005   8.904 -0.9719  0.1934  0.3698
   27CHL1  H23A 1984   0.642   4.944   8.892 -0.3632  1.1437  0.1625
   27CHL1  H23B 1985   0.475   4.929   8.871  0.5804 -1.2693  0.0627
   27CHL1   C24 1986   0.549   5.136   8.824 -0.5292  0.1065  0.2051
   27CHL1  H24A 1987   0.456   5.194   8.844 -1.6881 -0.8463 -2.0986
   27CHL1  H24B 1988   0.635   5.199   8.857 -0.0531  0.2181 -1.1844
   27CHL1   C25 1989   0.546   5.120   8.673  0.2065 -0.3770 -0.1602
   27CHL1   H25 1990   0.635   5.067   8.630  0.6224 -0.3888  0.6939
   27CHL1   C26 1991   0.427   5.039   8.610  0.2477  0.3533 -0.4987
   27CHL1  H26A 1992   0.412   4.939   8.655 -0.7908  0.5623 -0.3494
   27CHL1  H26B 1993   0.326   5.085   8.618 -0.3071 -1.0727  1.5047
   27CHL1  H26C 1994   0.447   5.028   8.501 -1.0750  2.9141 -1.0931
   27CHL1   C27 1995   0.554   5.258   8.600  0.5040  0.2951 -0.3496
   27CHL1  H27A 1996   0.542   5.252   8.489 -0.9806 -1.8198 -0.1446
   27CHL1  H27B 1997   0.461   5.302   8.644 -0.0359 -0.3691 -0.7995
   27CHL1  H27C 1998   0.645   5.310   8.635  0.7496 -1.3085  1.5183
   28CHL1    C3 1999   3.137   5.800  10.051  0.1234 -0.4084  0.1831
   28CHL1    H3 2000   3.192   5.895  10.068 -0.4152 -0.5778  3.9068
   28CHL1    O3 2001   3.097   5.753  10.178  0.3179  0.0420 -0.1541
   28CHL1   H3' 2002   3.033   5.685  10.155 -0.3550  0.3028  0.8700
   28CHL1    C4 2003   3.013   5.829   9.965 -0.5733 -0.8930  0.5300
   28CHL1   H4A 2004   2.931   5.754   9.971 -1.4451 -0.1108 -1.0900
   28CHL1   H4B 2005   2.974   5.922  10.012  1.1402 -0.5292  1.3522
   28CHL1    C5 2006   3.044   5.834   9.821 -0.5201 -0.1483  0.2001
   28CHL1    C6 2007   2.999   5.934   9.743  0.2481  0.6113  0.5334
   28CHL1    H6 2008   2.934   6.003   9.799  0.8602  0.1037  1.9312
   28CHL1    C7 2009   3.015   5.960   9.600  0.0755 -0.3978 -0.5221
   28CHL1   H7A 2010   2.925   5.989   9.542 -1.1371 -0.8080  1.0841
   28CHL1   H7B 2011   3.089   6.041   9.584  1.5453 -1.4895  0.4856
   28CHL1    C8 2012   3.071   5.829   9.532 -0.5497 -0.4115  0.0579
   28CHL1    H8 2013   2.983   5.761   9.541  0.2172 -1.6955 -1.6620
   28CHL1   C14 2014   3.104   5.848   9.378  0.2894  0.0609 -0.3148
   28CHL1   H14 2015   3.194   5.912   9.369  1.4705 -1.3944  0.6195
   28CHL1   C15 2016   2.996   5.901   9.289  0.1228  0.9133 -0.1625
   28CHL1  H15A 2017   2.899   5.851   9.315  0.7194 -0.1509  0.0933
   28CHL1  H15B 2018   3.005   6.011   9.299 -0.3720  0.9582 -0.1645
   28CHL1   C16 2019   3.042   5.865   9.148  0.9419 -0.5483 -0.7056
   28CHL1  H16A 2020   2.948   5.824   9.105 -0.6190  2.6387 -0.6070
   28CHL1  H16B 2021   3.069   5.951   9.084  0.0356  0.0170 -0.3602
   28CHL1   C17 2022   3.161   5.765   9.169  0.6854 -0.0772 -0.3309
   28CHL1   H17 2023   3.250   5.831   9.178  0.5500 -0.1511  2.2178
   28CHL1   C13 2024   3.150   5.715   9.317 -1.4496 -0.0377  0.6350
   28CHL1   C18 2025   3.038   5.610   9.318 -0.3697  0.0124  0.5957
   28CHL1  H18A 2026   2.959   5.639   9.245  1.8946  1.2451 -1.5321
   28CHL1  H18B 2027   3.070   5.510   9.284 -1.9455 -0.3636  0.1162
   28CHL1  H18C 2028   2.987   5.596   9.415 -2.9208 -0.0176 -0.6483
   28CHL1   C12 2029   3.273   5.673   9.386  0.1176 -0.4244 -0.0707
   28CHL1  H12A 2030   3.307   5.576   9.343  1.2609 -0.8145  1.6099
   28CHL1  H12B 2031   3.352   5.750   9.380 -0.4987  0.1475 -1.1477
   28CHL1   C11 2032   3.252   5.648   9.532  0.3132  0.5369  0.2976
   28CHL1  H11A 2033   3.192   5.555   9.543  1.7393 -0.3537  0.8265
   28CHL1  H11B 2034   3.345   5.625   9.588  0.5728  0.2824 -0.2316
   28CHL1    C9 2035   3.186   5.767   9.605 -0.4325 -0.3558  0.1559
   28CHL1    H9 2036   3.264   5.846   9.612  0.4346 -1.0271 -1.5561
   28CHL1   C10 2037   3.144   5.727   9.755  0.1042  0.0743 -0.5294
   28CHL1   C19 2038   3.071   5.593   9.760  0.1506  0.5207  0.3301
   28CHL1  H19A 2039   3.016   5.567   9.854  1.9951 -1.7484  0.8479
   28CHL1  H19B 2040   2.989   5.596   9.685  0.4389  2.2362  0.0446
   28CHL1  H19C 2041   3.139   5.508   9.744  0.7602  1.0903 -0.1369
   28CHL1    C1 2042   3.265   5.722   9.844 -0.1006 -0.3434  0.1368
   28CHL1   H1A 2043   3.346   5.654   9.810  0.2320  0.0044  0.2220
   28CHL1   H1B 2044   3.319   5.819   9.841  0.4814 -0.6725 -0.4639
   28CHL1    C2 2045   3.232   5.693   9.991 -0.8191 -0.4846  0.7489
   28CHL1   H2A 2046   3.324   5.676  10.050 -2.1376  0.1396  3.1042
   28CHL1   H2B 2047   3.178   5.596   9.996 -0.3257 -0.8016  0.1339
   28CHL1   C20 2048   3.186   5.664   9.053 -0.0502 -1.2791  0.3921
   28CHL1   H20 2049   3.122   5.575   9.073  1.1384 -2.1041  0.6071
   28CHL1   C21 2050   3.335   5.623   9.050 -0.3516 -0.5886 -0.7741
   28CHL1  H21A 2051   3.375   5.581   9.145 -2.3794  0.6430  0.6870
   28CHL1  H21B 2052   3.389   5.717   9.026 -1.3826  0.2821  0.2183
   28CHL1  H21C 2053   3.357   5.551   8.968 -2.7618 -0.6046 -1.4867
   28CHL1   C22 2054   3.134   5.725   8.927  0.2545 -0.2282  0.8727
   28CHL1  H22A 2055   3.027   5.754   8.932 -0.3016 -1.8291 -0.5810
   28CHL1  H22B 2056   3.183   5.823   8.908 -0.1742 -0.2094 -0.1734
   28CHL1   C23 2057   3.131   5.625   8.810  0.0152  0.4707  0.2234
   28CHL1  H23A 2058   3.226   5.569   8.798 -1.2090 -1.1252 -3.2158
   28CHL1  H23B 2059   3.049   5.552   8.824  1.5745 -1.2847  0.6072
   28CHL1   C24 2060   3.113   5.697   8.676  0.4680 -0.3707 -0.3947
   28CHL1  H24A 2061   3.043   5.783   8.685  1.2318  0.2960 -0.6545
   28CHL1  H24B 2062   3.215   5.734   8.652  0.5153  0.1603  0.5599
   28CHL1   C25 2063   3.049   5.609   8.559 -0.3278  0.2346 -0.2126
   28CHL1   H25 2064   2.986   5.534   8.612  0.0428 -1.5474 -2.1297
   28CHL1   C26 2065   2.965   5.697   8.464 -0.3629 -0.2410  0.4716
   28CHL1  H26A 2066   2.922   5.640   8.379  0.3371 -0.8884  0.5349
   28CHL1  H26B 2067   2.888   5.750   8.523 -0.1271 -0.9896  1.4893
   28CHL1  H26C 2068   3.029   5.771   8.412  0.2567 -0.1271  1.3727
   28CHL1   C27 2069   3.162   5.533   8.491 -0.4152 -0.2785  0.1860
   28CHL1  H27A 2070   3.221   5.479   8.569  0.9145  1.4818  0.4681
   28CHL1  H27B 2071   3.128   5.469   8.407  1.1507 -0.0824 -0.6442
   28CHL1  H27C 2072   3.236   5.601   8.444  0.9994  0.1556  2.7818
   29CHL1    C3 2073   4.843   1.550   6.558 -0.2450  0.3617  0.3886
   29CHL1    H3 2074   4.849   1.440   6.568 -1.2272  0.1810 -0.6766
   29CHL1    O3 2075   4.845   1.569   6.420 -0.2284 -0.2969  0.3905
   29CHL1   H3' 2076   4.774   1.519   6.379 -1.2780  2.9874 -2.3429
   29CHL1    C4 2077   4.711   1.592   6.618  0.4889  0.4946 -0.0531
   29CHL1   H4A 2078   4.689   1.696   6.585  1.2834  1.2486  1.6462
   29CHL1   H4B 2079   4.630   1.533   6.569  1.2442 -2.3700  1.8854
   29CHL1    C5 2080   4.700   1.583   6.772  0.1091 -0.5650 -0.7317
   29CHL1    C6 2081   4.610   1.510   6.836 -0.6304 -0.1342 -0.8140
   29CHL1    H6 2082   4.531   1.462   6.777 -1.1310 -0.7528  0.3202
   29CHL1    C7 2083   4.589   1.506   6.983 -0.5750  0.7843  0.2902
   29CHL1   H7A 2084   4.480   1.528   6.995 -1.0014 -0.7478 -0.4828
   29CHL1   H7B 2085   4.617   1.409   7.029  0.0631  0.5064 -0.6678
   29CHL1    C8 2086   4.661   1.624   7.054 -0.6523  0.2681  0.0540
   29CHL1    H8 2087   4.603   1.716   7.033 -0.3206  0.9900  2.0703
   29CHL1   C14 2088   4.658   1.588   7.196 -0.1875 -0.5831 -0.6381
   29CHL1   H14 2089   4.714   1.492   7.206  0.6544 -0.0910 -0.5137
   29CHL1   C15 2090   4.518   1.568   7.262 -0.5371  0.0827  0.4679
   29CHL1  H15A 2091   4.445   1.649   7.242 -0.8648 -0.1154  0.8471
   29CHL1  H15B 2092   4.469   1.476   7.224  0.5119 -0.2297 -0.1663
   29CHL1   C16 2093   4.560   1.574   7.412 -0.2282  0.7865  0.3168
   29CHL1  H16A 2094   4.490   1.644   7.463 -0.3386  1.0244 -0.1499
   29CHL1  H16B 2095   4.548   1.471   7.451  1.3233  0.7311  0.7170
   29CHL1   C17 2096   4.710   1.618   7.429  0.5850 -0.0288 -0.2086
   29CHL1   H17 2097   4.773   1.527   7.430  0.1690 -0.3247 -0.5777
   29CHL1   C13 2098   4.740   1.677   7.290  0.4321  0.1377  0.1753
   29CHL1   C18 2099   4.666   1.816   7.292 -0.0842  0.5398 -0.5369
   29CHL1  H18A 2100   4.657   1.846   7.185 -2.3619 -0.6477 -0.7372
   29CHL1  H18B 2101   4.562   1.825   7.330 -0.0386 -1.0227  0.0009
   29CHL1  H18C 2102   4.727   1.895   7.340 -0.3370 -0.3663  1.3398
   29CHL1   C12 2103   4.885   1.686   7.243  0.0749  0.4591 -0.0694
   29CHL1  H12A 2104   4.952   1.760   7.293  0.4648 -0.1428  0.3141
   29CHL1  H12B 2105   4.935   1.589   7.264  0.4584 -0.1566 -3.2482
   29CHL1   C11 2106   4.890   1.721   7.089 -0.2712 -0.5479 -0.0728
   29CHL1  H11A 2107   4.847   1.823   7.074  0.1973 -0.5111 -1.2814
   29CHL1  H11B 2108   4.992   1.705   7.047 -1.1845 -3.4030 -1.4756
   29CHL1    C9 2109   4.807   1.625   7.004  0.2367 -0.0502 -0.8943
   29CHL1    H9 2110   4.851   1.527   7.028 -0.7513 -0.4715 -0.7639
   29CHL1   C10 2111   4.814   1.661   6.846  0.5927  0.4989  0.5280
   29CHL1   C19 2112   4.788   1.818   6.825  0.6200 -0.0585  0.3971
   29CHL1  H19A 2113   4.876   1.881   6.852  1.6150 -0.1388 -2.3681
   29CHL1  H19B 2114   4.796   1.838   6.716 -4.9283 -0.7722 -0.4177
   29CHL1  H19C 2115   4.691   1.858   6.861  0.2575 -0.1744 -0.4194
   29CHL1    C1 2116   4.945   1.610   6.781 -0.7116  0.1887  0.5072
   29CHL1   H1A 2117   5.026   1.670   6.828  2.9577 -2.9405 -1.2318
   29CHL1   H1B 2118   4.978   1.507   6.808  2.3043 -0.1288 -3.4503
   29CHL1    C2 2119   4.954   1.627   6.628  0.6838  0.8240  0.2130
   29CHL1   H2A 2120   5.050   1.593   6.583  1.3029 -0.9568  2.6542
   29CHL1   H2B 2121   4.939   1.733   6.599  0.3609  1.3402  2.1292
   29CHL1   C20 2122   4.731   1.698   7.563  0.5746 -0.5187  0.7005
   29CHL1   H20 2123   4.671   1.791   7.548  1.4167 -0.0446  0.1533
   29CHL1   C21 2124   4.875   1.761   7.559  0.3452 -0.5235 -0.4732
   29CHL1  H21A 2125   4.950   1.679   7.547 -1.8370 -2.8819  0.8765
   29CHL1  H21B 2126   4.887   1.823   7.651 -0.8335  0.0462 -0.6937
   29CHL1  H21C 2127   4.880   1.829   7.472  1.3562 -0.7523 -0.6154
   29CHL1   C22 2128   4.696   1.609   7.683 -0.0381 -0.0140 -0.0516
   29CHL1  H22A 2129   4.591   1.578   7.669 -0.8514  2.3592  0.3701
   29CHL1  H22B 2130   4.758   1.517   7.679  0.7484  0.5162 -0.3792
   29CHL1   C23 2131   4.697   1.680   7.821  0.4652  0.2605 -0.0832
   29CHL1  H23A 2132   4.797   1.716   7.856  1.1783 -0.9923 -0.7495
   29CHL1  H23B 2133   4.648   1.777   7.798  0.1682  0.1532  0.0961
   29CHL1   C24 2134   4.638   1.587   7.932 -0.1771 -0.4985  0.2923
   29CHL1  H24A 2135   4.560   1.523   7.886 -1.1734 -0.3411  1.7135
   29CHL1  H24B 2136   4.719   1.516   7.960  0.2581  0.3989  1.4048
   29CHL1   C25 2137   4.597   1.677   8.047 -0.0017  0.3006 -0.1120
   29CHL1   H25 2138   4.676   1.752   8.068  0.7011 -1.0087  2.3601
   29CHL1   C26 2139   4.471   1.749   8.018 -0.1881  0.6988  0.2516
   29CHL1  H26A 2140   4.471   1.804   7.921 -1.5464  0.9333  0.3733
   29CHL1  H26B 2141   4.390   1.674   8.012 -0.7076  1.3175 -1.0964
   29CHL1  H26C 2142   4.445   1.810   8.107  1.4147 -0.2758  1.4401
   29CHL1   C27 2143   4.572   1.586   8.168  0.3965  0.3031  0.9500
   29CHL1  H27A 2144   4.539   1.644   8.258 -0.9062 -2.0771  2.0977
   29CHL1  H27B 2145   4.488   1.516   8.150  0.2765  0.4447  0.9511
   29CHL1  H27C 2146   4.665   1.533   8.198 -0.4343 -0.6359  1.9610
   30CHL1    C3 2147   0.973   6.565   7.146 -0.4779 -0.1702 -0.4640
   30CHL1    H3 2148   0.883   6.544   7.208  0.3059 -1.6075  0.2638
   30CHL1    O3 2149   0.939   6.549   7.011  0.4638 -0.0220 -0.4393
   30CHL1   H3' 2150   1.022   6.563   6.965 -0.2761  0.8363 -1.5822
   30CHL1    C4 2151   1.013   6.710   7.162  0.4612 -0.2882 -0.1821
   30CHL1   H4A 2152   1.083   6.748   7.085 -1.1542  1.8270 -0.7028
   30CHL1   H4B 2153   0.917   6.762   7.141 -1.3267 -4.2053 -2.8517
   30CHL1    C5 2154   1.068   6.736   7.309  0.3689 -0.4549  0.1763
   30CHL1    C6 2155   1.015   6.822   7.390  0.2582 -0.5615 -0.1195
   30CHL1    H6 2156   0.938   6.891   7.353  1.2621  0.5658 -0.1654
   30CHL1    C7 2157   1.088   6.857   7.517  0.8746 -0.1695 -0.4928
   30CHL1   H7A 2158   1.096   6.968   7.526 -3.1188  0.2850 -0.4444
   30CHL1   H7B 2159   1.026   6.820   7.602 -0.9092  0.5369 -1.4127
   30CHL1    C8 2160   1.233   6.795   7.535  0.1108  0.6162  0.2763
   30CHL1    H8 2161   1.287   6.849   7.454 -0.5692  0.6848 -0.1397
   30CHL1   C14 2162   1.290   6.811   7.672 -0.4107  0.5164 -0.0277
   30CHL1   H14 2163   1.238   6.742   7.742 -0.7217  0.4662 -0.3060
   30CHL1   C15 2164   1.285   6.958   7.723  0.3640 -0.4050 -0.1629
   30CHL1  H15A 2165   1.342   7.033   7.665  2.0063 -0.3498  1.4303
   30CHL1  H15B 2166   1.180   6.987   7.748  0.4776  2.8181 -2.8066
   30CHL1   C16 2167   1.369   6.943   7.845 -0.7224  0.2767  0.2654
   30CHL1  H16A 2168   1.443   7.026   7.847  0.3509 -0.5608 -1.7121
   30CHL1  H16B 2169   1.301   6.930   7.932 -0.9616 -0.3248 -0.0076
   30CHL1   C17 2170   1.455   6.813   7.828 -0.7549  0.9377 -0.6902
   30CHL1   H17 2171   1.423   6.737   7.902  2.8363 -0.2398 -0.1208
   30CHL1   C13 2172   1.436   6.763   7.682  0.5670 -0.5269  0.1725
   30CHL1   C18 2173   1.526   6.837   7.581  0.0753  0.1206 -0.4457
   30CHL1  H18A 2174   1.629   6.798   7.591 -0.6611 -1.4990  1.2572
   30CHL1  H18B 2175   1.495   6.813   7.477 -1.0898  0.6659 -0.2421
   30CHL1  H18C 2176   1.518   6.948   7.589  0.2905  0.0272  1.4968
   30CHL1   C12 2177   1.421   6.608   7.658  0.6941 -0.0769  0.1967
   30CHL1  H12A 2178   1.521   6.566   7.679  0.3115 -1.5282 -0.7116
   30CHL1  H12B 2179   1.344   6.555   7.719 -0.3301 -0.6465 -1.4960
   30CHL1   C11 2180   1.373   6.575   7.521  0.6200  1.0145  0.0634
   30CHL1  H11A 2181   1.445   6.611   7.443 -0.7023  1.2530 -1.0878
   30CHL1  H11B 2182   1.359   6.465   7.514 -1.6702  1.2416  0.5330
   30CHL1    C9 2183   1.237   6.651   7.488 -0.3188 -0.2645 -0.9279
   30CHL1    H9 2184   1.160   6.599   7.548  0.3332  0.5129  0.6586
   30CHL1   C10 2185   1.188   6.643   7.343 -0.1659  0.3601  0.3383
   30CHL1   C19 2186   1.307   6.683   7.248 -0.1189  0.1493 -0.0406
   30CHL1  H19A 2187   1.347   6.778   7.290 -1.1462 -0.0073  1.3687
   30CHL1  H19B 2188   1.390   6.609   7.247 -2.6032 -2.9260  1.7471
   30CHL1  H19C 2189   1.282   6.692   7.140  1.0611 -2.9905 -0.6639
   30CHL1    C1 2190   1.153   6.490   7.312 -0.5592 -0.0065 -0.4377
   30CHL1   H1A 2191   1.248   6.435   7.323 -0.5316  0.4540  2.5054
   30CHL1   H1B 2192   1.087   6.457   7.395 -1.2180  0.4340 -0.7792
   30CHL1    C2 2193   1.091   6.472   7.170  0.5207  0.2465  0.2034
   30CHL1   H2A 2194   1.063   6.368   7.141 -1.5118  1.0551 -0.9978
   30CHL1   H2B 2195   1.173   6.496   7.099  0.8727 -2.2713 -0.3188
   30CHL1   C20 2196   1.602   6.827   7.866 -0.1058 -0.5152  0.0251
   30CHL1   H20 2197   1.656   6.885   7.789  1.0679 -1.4635  0.1037
   30CHL1   C21 2198   1.669   6.691   7.881 -0.2479 -0.0914 -0.6460
   30CHL1  H21A 2199   1.675   6.632   7.787 -1.9576 -0.9415 -0.2474
   30CHL1  H21B 2200   1.630   6.621   7.958 -1.3979  1.4364  0.2030
   30CHL1  H21C 2201   1.775   6.715   7.906 -0.2828 -0.2071 -0.3876
   30CHL1   C22 2202   1.622   6.904   7.996 -0.0315 -0.0234 -0.4803
   30CHL1  H22A 2203   1.730   6.900   8.021  0.3975 -1.0221 -2.3193
   30CHL1  H22B 2204   1.617   7.015   7.985  2.8739  0.1287 -0.9363
   30CHL1   C23 2205   1.533   6.868   8.119  0.1990 -0.0791 -0.0087
   30CHL1  H23A 2206   1.430   6.871   8.078  0.1936  0.9599  0.0514
   30CHL1  H23B 2207   1.550   6.765   8.156 -1.6849  0.1643  1.6993
   30CHL1   C24 2208   1.565   6.964   8.236 -0.0094  0.1202  1.4967
   30CHL1  H24A 2209   1.673   6.960   8.263  0.8697 -0.2311 -1.7232
   30CHL1  H24B 2210   1.539   7.070   8.218  0.8365  0.4529  2.1668
   30CHL1   C25 2211   1.472   6.941   8.355 -0.0456  0.5534 -0.3794
   30CHL1   H25 2212   1.475   6.835   8.387 -1.1459  0.5614 -0.1964
   30CHL1   C26 2213   1.503   7.019   8.481  0.2926 -0.3469 -0.6465
   30CHL1  H26A 2214   1.545   7.122   8.477  0.8963 -0.3308  2.8685
   30CHL1  H26B 2215   1.412   7.017   8.545 -0.9255 -0.4519 -2.3224
   30CHL1  H26C 2216   1.583   6.959   8.529 -0.5663 -0.2886  0.9088
   30CHL1   C27 2217   1.332   6.977   8.309  0.3040 -0.0029 -0.0190
   30CHL1  H27A 2218   1.327   7.061   8.237 -1.7552  0.4794  0.6073
   30CHL1  H27B 2219   1.291   6.903   8.237 -2.4383  2.4808 -1.2292
   30CHL1  H27C 2220   1.263   7.004   8.392  0.3684  0.9048 -0.2510
   31CHL1    C3 2221   5.860   6.408   6.746 -0.3683  0.5732 -0.3661
   31CHL1    H3 2222   5.964   6.448   6.751  0.3949 -0.9078 -2.9324
   31CHL1    O3 2223   5.848   6.382   6.607  0.3683 -0.3425 -0.1101
   31CHL1   H3' 2224   5.764   6.337   6.599  2.2947 -4.0628 -2.3843
   31CHL1    C4 2225   5.859   6.283   6.834 -0.3906  0.4615 -0.2367
   31CHL1   H4A 2226   5.757   6.241   6.820 -0.7502  0.9970  0.6746
   31CHL1   H4B 2227   5.938   6.216   6.794  2.9470  3.1517  1.3344
   31CHL1    C5 2228   5.887   6.312   6.976  0.3993 -0.1725  0.7795
   31CHL1    C6 2229   5.993   6.262   7.045  0.2093  0.2530 -0.5621
   31CHL1    H6 2230   6.069   6.200   6.995  1.1228 -0.8516  2.0480
   31CHL1    C7 2231   6.012   6.277   7.196 -1.4984 -0.2254 -0.0924
   31CHL1   H7A 2232   6.048   6.176   7.227 -0.4493 -1.0469 -3.5363
   31CHL1   H7B 2233   6.095   6.349   7.214 -2.6783  1.6887 -1.8356
   31CHL1    C8 2234   5.883   6.332   7.263 -0.0940  0.0825 -0.4982
   31CHL1    H8 2235   5.809   6.250   7.255  1.9385 -1.9392  0.1690
   31CHL1   C14 2236   5.908   6.358   7.412  0.2122 -0.2626  0.1613
   31CHL1   H14 2237   5.992   6.431   7.419 -0.2362  0.3607 -0.7310
   31CHL1   C15 2238   5.941   6.240   7.514  0.7206  0.4866  0.1208
   31CHL1  H15A 2239   5.875   6.155   7.489 -0.6114  0.8131  2.3192
   31CHL1  H15B 2240   6.046   6.202   7.509  1.2755  2.0782 -1.3154
   31CHL1   C16 2241   5.901   6.303   7.650 -0.7413  0.3314  0.2185
   31CHL1  H16A 2242   5.833   6.230   7.699 -0.9126  1.5537  1.9281
   31CHL1  H16B 2243   5.982   6.300   7.726  2.0217 -1.5985 -2.5552
   31CHL1   C17 2244   5.844   6.447   7.623 -0.1530  0.5792  0.1602
   31CHL1   H17 2245   5.930   6.518   7.622 -1.1099  1.7670  0.3897
   31CHL1   C13 2246   5.794   6.436   7.480 -0.2314  0.5385  0.9065
   31CHL1   C18 2247   5.661   6.344   7.485  0.2010 -0.2008  0.3674
   31CHL1  H18A 2248   5.676   6.261   7.557 -1.3129 -0.0425  0.9036
   31CHL1  H18B 2249   5.582   6.404   7.535 -0.7715  0.9610 -2.3641
   31CHL1  H18C 2250   5.620   6.304   7.390 -0.2764  0.3605  0.3332
   31CHL1   C12 2251   5.752   6.563   7.401 -0.3853 -0.2287 -0.1241
   31CHL1  H12A 2252   5.667   6.620   7.445 -1.0669 -1.6392  0.4666
   31CHL1  H12B 2253   5.851   6.613   7.400 -0.9567  1.0361  1.4313
   31CHL1   C11 2254   5.715   6.531   7.254 -0.7007  0.0790 -0.2132
   31CHL1  H11A 2255   5.624   6.468   7.256 -2.1735  2.0460 -1.5516
   31CHL1  H11B 2256   5.694   6.630   7.209 -1.1641  0.4506  0.7922
   31CHL1    C9 2257   5.826   6.450   7.180  1.6350 -0.3820  0.0118
   31CHL1    H9 2258   5.911   6.519   7.161  2.0511 -1.2172 -1.2421
   31CHL1   C10 2259   5.782   6.403   7.037  0.2317  0.4924 -0.3161
   31CHL1   C19 2260   5.646   6.340   7.046 -0.5591  0.0521 -0.0687
   31CHL1  H19A 2261   5.639   6.248   7.108 -3.7134 -0.7187 -1.3905
   31CHL1  H19B 2262   5.565   6.409   7.077 -1.3491 -1.3936  1.2354
   31CHL1  H19C 2263   5.608   6.300   6.950 -1.5175  2.1423 -0.6119
   31CHL1    C1 2264   5.773   6.533   6.951 -0.3324 -0.9515  0.6111
   31CHL1   H1A 2265   5.690   6.599   6.985  1.4306  1.3024  0.7973
   31CHL1   H1B 2266   5.866   6.591   6.968  0.1194 -1.8313  1.2280
   31CHL1    C2 2267   5.756   6.513   6.799  0.1752 -0.4939 -0.0910
   31CHL1   H2A 2268   5.772   6.595   6.726  1.6287 -0.1756  0.5481
   31CHL1   H2B 2269   5.656   6.466   6.786  1.3935 -2.6914 -2.3540
   31CHL1   C20 2270   5.755   6.518   7.731  0.3908  0.7468  0.4039
   31CHL1   H20 2271   5.656   6.536   7.685  0.0765 -1.2222  0.2147
   31CHL1   C21 2272   5.829   6.643   7.780 -0.3009 -0.8032 -0.5391
   31CHL1  H21A 2273   5.860   6.714   7.701  1.7288  0.9205  1.6320
   31CHL1  H21B 2274   5.916   6.611   7.841 -2.0839 -0.5763  2.3306
   31CHL1  H21C 2275   5.771   6.702   7.855  2.3441  0.0789  0.9363
   31CHL1   C22 2276   5.705   6.415   7.841  0.4832  0.2846  0.1159
   31CHL1  H22A 2277   5.660   6.332   7.782  1.4983 -2.1049  2.4290
   31CHL1  H22B 2278   5.793   6.381   7.902 -0.7865  1.1019  2.5334
   31CHL1   C23 2279   5.608   6.479   7.944  0.4035 -0.1490 -0.6380
   31CHL1  H23A 2280   5.667   6.555   8.000  0.3934 -0.8830  0.3922
   31CHL1  H23B 2281   5.526   6.536   7.894  0.4932  1.2252  0.6848
   31CHL1   C24 2282   5.533   6.377   8.036  0.0262  0.5423 -0.1900
   31CHL1  H24A 2283   5.458   6.430   8.099 -0.1643  0.3117 -0.2242
   31CHL1  H24B 2284   5.464   6.321   7.969  1.0574  1.9031 -2.5256
   31CHL1   C25 2285   5.618   6.288   8.128 -0.0730 -0.2189  0.0316
   31CHL1   H25 2286   5.689   6.237   8.061  3.4137  3.6192  0.3542
   31CHL1   C26 2287   5.705   6.373   8.226 -0.0743 -0.6483 -0.0893
   31CHL1  H26A 2288   5.804   6.333   8.259  0.2810 -1.7404 -2.2608
   31CHL1  H26B 2289   5.723   6.476   8.190 -1.6715  0.8825  3.0522
   31CHL1  H26C 2290   5.649   6.400   8.318 -1.4072 -0.5345 -0.9043
   31CHL1   C27 2291   5.532   6.188   8.199 -0.3087  0.2176  0.0114
   31CHL1  H27A 2292   5.462   6.245   8.264 -1.5595 -2.0841  0.8329
   31CHL1  H27B 2293   5.595   6.126   8.267  0.2598 -2.3200 -2.6285
   31CHL1  H27C 2294   5.471   6.124   8.132  1.6988  0.4663 -2.1698
   32CHL1    C3 2295   2.815   6.018   7.078  1.1228  0.4821 -0.5125
   32CHL1    H3 2296   2.854   5.919   7.045  0.0330 -0.4903  0.9877
   32CHL1    O3 2297   2.739   6.071   6.969  0.5027  0.1703  0.3789
   32CHL1   H3' 2298   2.800   6.056   6.897 -0.2738 -1.8958  0.0798
   32CHL1    C4 2299   2.719   5.987   7.197 -0.2753  0.1057  0.0781
   32CHL1   H4A 2300   2.663   6.083   7.200  0.1766  0.3458  1.0445
   32CHL1   H4B 2301   2.651   5.907   7.160  0.9479 -0.4061 -1.1376
   32CHL1    C5 2302   2.790   5.964   7.332 -0.1653 -0.6492 -0.1272
   32CHL1    C6 2303   2.757   5.865   7.415 -0.4852  0.8248  0.1358
   32CHL1    H6 2304   2.672   5.799   7.394 -0.3393  0.0956  1.7543
   32CHL1    C7 2305   2.813   5.830   7.550 -0.2934 -0.4087 -0.6336
   32CHL1   H7A 2306   2.733   5.816   7.626  0.2976  0.5278  0.1844
   32CHL1   H7B 2307   2.867   5.733   7.542 -1.5402 -1.1219 -0.6608
   32CHL1    C8 2308   2.910   5.937   7.601 -0.2503  0.0233  0.2822
   32CHL1    H8 2309   2.837   6.012   7.637 -2.2852 -0.5102 -2.4016
   32CHL1   C14 2310   3.008   5.892   7.713 -0.5336 -0.2302 -0.4958
   32CHL1   H14 2311   3.073   5.810   7.676  0.8428  0.3407  0.5814
   32CHL1   C15 2312   2.941   5.824   7.833  0.6618 -0.2003  0.5273
   32CHL1  H15A 2313   2.855   5.888   7.861  1.4134  0.7954  0.5859
   32CHL1  H15B 2314   2.902   5.720   7.832 -1.5710  0.4597  3.6254
   32CHL1   C16 2315   3.048   5.838   7.941 -0.1762 -0.0833 -0.2597
   32CHL1  H16A 2316   3.012   5.845   8.046  1.6328 -0.1569  0.4057
   32CHL1  H16B 2317   3.097   5.739   7.935  2.8706  0.9622  3.4526
   32CHL1   C17 2318   3.153   5.940   7.894  0.2179 -0.6055 -0.0000
   32CHL1   H17 2319   3.243   5.883   7.864  1.0679 -0.1095  1.4868
   32CHL1   C13 2320   3.093   6.001   7.770  0.0135 -0.2257 -0.1852
   32CHL1   C18 2321   2.996   6.116   7.806  0.3522  0.1937 -0.8362
   32CHL1  H18A 2322   2.929   6.089   7.891 -0.4279  1.0729 -1.1660
   32CHL1  H18B 2323   3.068   6.193   7.842  1.8927 -0.8334 -1.5988
   32CHL1  H18C 2324   2.937   6.157   7.722 -1.7726  1.0895  0.9990
   32CHL1   C12 2325   3.188   6.041   7.659  0.5974 -0.1743 -0.0037
   32CHL1  H12A 2326   3.258   6.123   7.688 -0.7959  1.2705 -0.5281
   32CHL1  H12B 2327   3.252   5.951   7.651  0.0532 -0.5130 -0.6268
   32CHL1   C11 2328   3.113   6.087   7.533 -0.1653 -0.3659  0.4188
   32CHL1  H11A 2329   3.073   6.188   7.555 -0.7282 -0.4613 -0.1181
   32CHL1  H11B 2330   3.195   6.098   7.458 -0.1857  2.1140  0.6819
   32CHL1    C9 2331   3.000   5.994   7.484 -0.0179  0.2532  0.3428
   32CHL1    H9 2332   3.049   5.907   7.436  0.0527  0.5771 -0.1762
   32CHL1   C10 2333   2.911   6.054   7.370 -0.2863 -0.7725  0.8192
   32CHL1   C19 2334   2.845   6.184   7.418 -0.0260 -0.3569  0.2681
   32CHL1  H19A 2335   2.789   6.179   7.514 -0.6367  0.9214  0.0067
   32CHL1  H19B 2336   2.921   6.265   7.426  0.8627 -1.0400 -0.9748
   32CHL1  H19C 2337   2.763   6.226   7.354 -1.3458 -0.7847  1.6221
   32CHL1    C1 2338   3.002   6.076   7.247  0.0524 -0.4256 -0.3330
   32CHL1   H1A 2339   3.090   6.142   7.264 -0.4133  0.2730 -0.5886
   32CHL1   H1B 2340   3.050   5.982   7.214  0.9299  0.7903 -2.6912
   32CHL1    C2 2341   2.922   6.117   7.116 -0.6008 -0.4448 -0.9155
   32CHL1   H2A 2342   2.998   6.138   7.038 -0.5869 -1.9800 -1.3373
   32CHL1   H2B 2343   2.878   6.215   7.143  0.2965  0.3739 -2.3273
   32CHL1   C20 2344   3.205   6.032   8.010  0.3943 -1.1984  0.4643
   32CHL1   H20 2345   3.117   6.091   8.043  2.2346  1.7716  0.4640
   32CHL1   C21 2346   3.310   6.133   7.949 -0.6251  0.1628 -0.0089
   32CHL1  H21A 2347   3.392   6.074   7.903  1.5171  0.6064  2.9577
   32CHL1  H21B 2348   3.360   6.203   8.020  2.3054 -0.6567 -1.1073
   32CHL1  H21C 2349   3.264   6.199   7.873  2.1152  0.3724 -1.6310
   32CHL1   C22 2350   3.259   5.943   8.124  0.2207 -0.0114  0.1798
   32CHL1  H22A 2351   3.196   5.862   8.166 -0.1746  0.3003  0.1878
   32CHL1  H22B 2352   3.349   5.893   8.082  0.0504 -0.8111  0.7430
   32CHL1   C23 2353   3.306   6.024   8.248  0.1139  0.0658 -0.5493
   32CHL1  H23A 2354   3.355   5.952   8.316  0.4277  0.1592 -0.6750
   32CHL1  H23B 2355   3.379   6.102   8.217 -0.1423 -0.3617 -2.3874
   32CHL1   C24 2356   3.185   6.083   8.322 -0.0018  0.1813  0.4602
   32CHL1  H24A 2357   3.132   6.160   8.262 -2.8191 -0.0438  2.4725
   32CHL1  H24B 2358   3.112   6.003   8.345  0.1294 -0.2034 -0.4127
   32CHL1   C25 2359   3.217   6.145   8.463 -0.6186 -0.2740  0.1310
   32CHL1   H25 2360   3.234   6.067   8.539  0.5207  1.9148  2.2790
   32CHL1   C26 2361   3.344   6.241   8.473  0.0245 -0.2679  0.2322
   32CHL1  H26A 2362   3.433   6.207   8.416  0.0210  0.2685 -0.1028
   32CHL1  H26B 2363   3.316   6.344   8.442  0.4143 -0.1440  0.2881
   32CHL1  H26C 2364   3.378   6.250   8.578  0.8501 -1.1475  0.0509
   32CHL1   C27 2365   3.091   6.226   8.499 -0.7235  0.1041 -0.0753
   32CHL1  H27A 2366   3.084   6.227   8.610  0.8127  0.7149  0.0497
   32CHL1  H27B 2367   3.069   6.326   8.457  2.6510 -0.1766 -3.0217
   32CHL1  H27C 2368   3.002   6.166   8.471 -0.9071 -0.3523  1.4311
   33CHL1    C3 2369   5.099   0.451   6.735  0.2460 -0.1846 -0.3652
   33CHL1    H3 2370   5.080   0.554   6.772 -1.0044 -0.4515 -0.2307
   33CHL1    O3 2371   5.080   0.446   6.595  0.0188 -0.3922 -0.2567
   33CHL1   H3' 2372   5.128   0.526   6.572 -0.1628 -0.8121 -2.3763
   33CHL1    C4 2373   5.248   0.411   6.769  0.0504 -0.4626 -0.8123
   33CHL1   H4A 2374   5.285   0.311   6.739  1.7893  0.0121 -0.3528
   33CHL1   H4B 2375   5.317   0.484   6.722  0.8976  0.8952  2.2470
   33CHL1    C5 2376   5.264   0.430   6.923 -0.4198 -0.0340  0.0908
   33CHL1    C6 2377   5.354   0.518   6.977 -0.0217  0.7496 -0.3305
   33CHL1    H6 2378   5.431   0.562   6.912  2.2762 -3.2052 -0.6124
   33CHL1    C7 2379   5.375   0.531   7.129  0.5942  0.2750  0.3993
   33CHL1   H7A 2380   5.483   0.522   7.154  0.6724  0.9287  0.3167
   33CHL1   H7B 2381   5.324   0.626   7.157 -0.2743  0.4877 -1.6647
   33CHL1    C8 2382   5.298   0.420   7.218 -0.8371 -0.2452  0.6957
   33CHL1    H8 2383   5.360   0.329   7.207 -1.4029 -0.4754 -0.9137
   33CHL1   C14 2384   5.293   0.456   7.356  0.8324 -0.1608 -0.0355
   33CHL1   H14 2385   5.224   0.542   7.362 -0.0978 -0.9221  0.6564
   33CHL1   C15 2386   5.423   0.496   7.430 -0.5424  0.3035  0.6925
   33CHL1  H15A 2387   5.493   0.423   7.384 -1.5148  0.0309 -0.4303
   33CHL1  H15B 2388   5.467   0.589   7.390  3.5789 -2.0536 -0.9356
   33CHL1   C16 2389   5.386   0.492   7.580  0.1230 -0.2021 -0.3872
   33CHL1  H16A 2390   5.470   0.439   7.630  0.6861  1.8118  0.9310
   33CHL1  H16B 2391   5.391   0.590   7.633  0.1684 -1.7154  2.5995
   33CHL1   C17 2392   5.245   0.425   7.594  1.3944 -1.0909  0.4043
   33CHL1   H17 2393   5.173   0.509   7.585 -0.6703 -2.8200 -0.1023
   33CHL1   C13 2394   5.224   0.351   7.461  0.0576 -0.2062 -1.1418
   33CHL1   C18 2395   5.301   0.216   7.465  0.0217  0.4752 -0.1363
   33CHL1  H18A 2396   5.235   0.142   7.515 -1.7880  0.7940 -1.9466
   33CHL1  H18B 2397   5.330   0.170   7.368  0.9259  0.5389  0.0995
   33CHL1  H18C 2398   5.402   0.222   7.512  0.2158  1.1492 -0.6198
   33CHL1   C12 2399   5.084   0.334   7.398  0.1079 -0.0868 -0.7801
   33CHL1  H12A 2400   5.025   0.265   7.463  1.5325 -2.0232 -1.4421
   33CHL1  H12B 2401   5.031   0.431   7.392 -2.3078 -1.4339 -3.1632
   33CHL1   C11 2402   5.087   0.286   7.252 -0.1866 -0.5666 -0.5933
   33CHL1  H11A 2403   5.149   0.194   7.253 -3.1828 -2.7416 -0.4319
   33CHL1  H11B 2404   4.990   0.264   7.202 -0.5473  2.4729 -1.4046
   33CHL1    C9 2405   5.158   0.383   7.154 -0.2258  0.1837 -0.3643
   33CHL1    H9 2406   5.100   0.478   7.160  1.6510  1.3734 -0.1865
   33CHL1   C10 2407   5.165   0.341   7.004 -0.6357 -0.1287 -0.3702
   33CHL1   C19 2408   5.205   0.191   6.983  0.3970  0.2565 -0.1808
   33CHL1  H19A 2409   5.314   0.185   7.003  0.4938 -0.1740 -0.8210
   33CHL1  H19B 2410   5.143   0.125   7.047  0.0404  1.5172  0.8451
   33CHL1  H19C 2411   5.194   0.162   6.877 -0.1585 -2.3807  0.5352
   33CHL1    C1 2412   5.018   0.356   6.959 -0.4163 -0.4926 -0.2502
   33CHL1   H1A 2413   4.960   0.270   7.001  1.7061 -1.3617  1.0678
   33CHL1   H1B 2414   4.971   0.449   6.997  0.0636 -0.3665  0.0449
   33CHL1    C2 2415   5.004   0.353   6.811 -0.9824  0.5412 -0.2897
   33CHL1   H2A 2416   4.900   0.386   6.788 -1.1826  0.8324  0.9884
   33CHL1   H2B 2417   5.017   0.247   6.781  0.6951  0.1352  1.6826
   33CHL1   C20 2418   5.213   0.377   7.734  0.1251 -0.7714 -0.1504
   33CHL1   H20 2419   5.292   0.301   7.746 -0.6913 -1.8192 -1.2513
   33CHL1   C21 2420   5.071   0.310   7.729 -0.0439  0.4388  0.2420
   33CHL1  H21A 2421   5.041   0.271   7.829  0.8330 -1.1661 -0.0762
   33CHL1  H21B 2422   5.064   0.219   7.665  0.8628  1.5512 -1.4863
   33CHL1  H21C 2423   5.001   0.388   7.693  0.0327  0.1697 -0.4987
   33CHL1   C22 2424   5.219   0.482   7.853 -0.0063  0.7937  0.1312
   33CHL1  H22A 2425   5.324   0.518   7.864  0.2001 -0.4009  2.8658
   33CHL1  H22B 2426   5.156   0.568   7.821 -1.4315  0.9020  2.9008
   33CHL1   C23 2427   5.175   0.439   7.995 -0.5207 -0.8423  0.2835
   33CHL1  H23A 2428   5.201   0.516   8.071 -0.8482 -1.5180  1.1042
   33CHL1  H23B 2429   5.065   0.428   7.986 -0.7385  1.5471 -0.5453
   33CHL1   C24 2430   5.230   0.306   8.056 -0.2769 -0.1490  0.2980
   33CHL1  H24A 2431   5.190   0.210   8.017 -0.6122  0.9451 -2.2376
   33CHL1  H24B 2432   5.341   0.308   8.048 -0.1359  3.4520  1.5156
   33CHL1   C25 2433   5.209   0.290   8.205  0.4072 -0.3243  0.3336
   33CHL1   H25 2434   5.100   0.271   8.212 -0.0686  2.2730  0.9669
   33CHL1   C26 2435   5.253   0.151   8.247 -0.2239  0.6925  0.0024
   33CHL1  H26A 2436   5.204   0.073   8.185 -1.2447  0.6323  0.8505
   33CHL1  H26B 2437   5.364   0.150   8.249 -0.1981 -1.6433  1.8535
   33CHL1  H26C 2438   5.221   0.133   8.352  0.2195 -2.1251 -0.2819
   33CHL1   C27 2439   5.251   0.397   8.297  0.4720 -0.9418 -0.9348
   33CHL1  H27A 2440   5.360   0.414   8.302  0.4055 -0.6109  3.4884
   33CHL1  H27B 2441   5.208   0.498   8.279  0.7251 -0.9135 -1.3784
   33CHL1  H27C 2442   5.235   0.370   8.404  0.9675 -1.4135 -0.9761
   34CHL1    C3 2443   3.332   4.723   6.773  0.3357  0.3408  0.2119
   34CHL1    H3 2444   3.238   4.739   6.829 -0.1089  0.3708 -0.5376
   34CHL1    O3 2445   3.328   4.773   6.641 -0.7138 -0.5200  0.0884
   34CHL1   H3' 2446   3.322   4.866   6.664 -0.7156 -0.4489 -0.2007
   34CHL1    C4 2447   3.442   4.802   6.849  0.0904  0.1202 -0.2655
   34CHL1   H4A 2448   3.539   4.795   6.795 -0.3141  0.2474 -1.0236
   34CHL1   H4B 2449   3.413   4.908   6.839  1.3130  0.3100 -2.8303
   34CHL1    C5 2450   3.455   4.753   6.991 -0.2667  0.8516  0.6908
   34CHL1    C6 2451   3.445   4.831   7.102  0.4498  0.0711  0.2996
   34CHL1    H6 2452   3.429   4.940   7.093 -1.3604 -0.1863  0.0676
   34CHL1    C7 2453   3.465   4.782   7.240 -0.0819  0.6034 -1.0683
   34CHL1   H7A 2454   3.524   4.856   7.299 -0.8378  1.2609 -1.1123
   34CHL1   H7B 2455   3.367   4.782   7.292  0.4664  1.0969  0.0018
   34CHL1    C8 2456   3.524   4.636   7.258  0.2033  0.1014 -0.2039
   34CHL1    H8 2457   3.630   4.644   7.226 -0.3194 -0.1790 -2.0939
   34CHL1   C14 2458   3.514   4.581   7.395 -0.3277  0.3291  0.5512
   34CHL1   H14 2459   3.405   4.568   7.409 -0.5201  1.8923  0.6978
   34CHL1   C15 2460   3.566   4.654   7.514 -0.0254  0.2436 -0.1968
   34CHL1  H15A 2461   3.668   4.697   7.503  1.3310 -2.3655  1.2516
   34CHL1  H15B 2462   3.499   4.740   7.534 -0.2115 -0.1541  0.9430
   34CHL1   C16 2463   3.552   4.554   7.632  0.0570 -0.1048  0.4666
   34CHL1  H16A 2464   3.648   4.561   7.688  0.5458 -3.9950  0.4052
   34CHL1  H16B 2465   3.463   4.582   7.693 -1.2813  0.3279 -1.5889
   34CHL1   C17 2466   3.540   4.415   7.560  1.0292  0.2826 -0.6250
   34CHL1   H17 2467   3.432   4.389   7.561  1.3982 -1.3422  0.2461
   34CHL1   C13 2468   3.569   4.444   7.418 -0.6259  0.9393  0.1443
   34CHL1   C18 2469   3.721   4.448   7.392  0.0006  0.1147 -0.0791
   34CHL1  H18A 2470   3.765   4.347   7.399 -2.1442 -0.9646 -1.2218
   34CHL1  H18B 2471   3.739   4.491   7.291  0.0040  0.7259  0.1790
   34CHL1  H18C 2472   3.774   4.511   7.466 -1.8334  3.2198 -1.1973
   34CHL1   C12 2473   3.505   4.343   7.319 -0.2186 -0.1745 -0.5695
   34CHL1  H12A 2474   3.550   4.242   7.333  2.9314  1.2011  0.0386
   34CHL1  H12B 2475   3.397   4.338   7.343 -0.0800 -1.8220 -0.1824
   34CHL1   C11 2476   3.518   4.399   7.177  0.0920  0.2303  0.3853
   34CHL1  H11A 2477   3.626   4.405   7.154 -0.1436  2.8049 -0.2694
   34CHL1  H11B 2478   3.470   4.327   7.108  0.3382 -1.7336  2.1317
   34CHL1    C9 2479   3.464   4.545   7.150  0.4330  0.5345 -0.0931
   34CHL1    H9 2480   3.354   4.535   7.166  0.9221 -1.6904  2.6090
   34CHL1   C10 2481   3.476   4.602   7.000  0.0671 -0.6659 -0.0917
   34CHL1   C19 2482   3.619   4.572   6.940 -0.6162 -0.1146 -0.5563
   34CHL1  H19A 2483   3.697   4.618   7.004  0.5285 -2.7944  0.0957
   34CHL1  H19B 2484   3.639   4.464   6.952 -0.7552 -0.0748  0.0806
   34CHL1  H19C 2485   3.630   4.596   6.832 -2.7061 -0.9163 -0.9906
   34CHL1    C1 2486   3.367   4.528   6.912 -0.4111  0.0346 -0.3254
   34CHL1   H1A 2487   3.400   4.423   6.902  1.8473  0.6605 -0.1063
   34CHL1   H1B 2488   3.275   4.545   6.972  0.6594  0.1196  1.3432
   34CHL1    C2 2489   3.359   4.575   6.773  0.4084 -0.6536 -0.4320
   34CHL1   H2A 2490   3.280   4.524   6.714 -0.6999  0.5298 -0.0074
   34CHL1   H2B 2491   3.454   4.555   6.718  0.3870  0.7711 -1.0157
   34CHL1   C20 2492   3.608   4.301   7.637  0.1396  0.5336 -0.5369
   34CHL1   H20 2493   3.717   4.321   7.651  0.1733  0.2876 -0.4254
   34CHL1   C21 2494   3.593   4.158   7.570  0.7696 -0.1293  0.2936
   34CHL1  H21A 2495   3.489   4.140   7.535  0.9787 -1.7462  0.4240
   34CHL1  H21B 2496   3.605   4.079   7.647 -2.8480 -1.1301 -0.0252
   34CHL1  H21C 2497   3.676   4.154   7.496 -0.9831  1.7596 -1.8991
   34CHL1   C22 2498   3.553   4.281   7.783 -0.7078  1.1864  0.0951
   34CHL1  H22A 2499   3.493   4.367   7.821 -2.3807  0.1712 -0.1486
   34CHL1  H22B 2500   3.485   4.194   7.778  0.1646  0.4427  0.8495
   34CHL1   C23 2501   3.667   4.239   7.879  0.3302  0.3804 -0.0157
   34CHL1  H23A 2502   3.712   4.143   7.845  1.4504  1.5643 -2.0480
   34CHL1  H23B 2503   3.735   4.326   7.892 -3.4464  3.4419  1.1705
   34CHL1   C24 2504   3.620   4.218   8.023 -0.2161 -0.3071  1.1267
   34CHL1  H24A 2505   3.564   4.312   8.045 -0.4835 -0.9322  3.2810
   34CHL1  H24B 2506   3.545   4.137   8.024 -1.7497  0.9564 -1.3015
   34CHL1   C25 2507   3.730   4.197   8.128 -0.2211  0.2587  0.7788
   34CHL1   H25 2508   3.811   4.272   8.117  0.5718 -0.7023 -0.1932
   34CHL1   C26 2509   3.680   4.205   8.274  0.4548  0.3848 -0.3280
   34CHL1  H26A 2510   3.760   4.185   8.348 -0.5796  0.1028  0.7531
   34CHL1  H26B 2511   3.646   4.308   8.295  0.9809  0.1221  2.2226
   34CHL1  H26C 2512   3.610   4.122   8.300  2.0135 -1.1036 -0.6543
   34CHL1   C27 2513   3.800   4.059   8.103 -0.4465  0.6533 -0.1246
   34CHL1  H27A 2514   3.719   3.983   8.094  1.7551 -2.0284  1.3867
   34CHL1  H27B 2515   3.847   4.066   8.003  0.9186 -0.7001  0.3938
   34CHL1  H27C 2516   3.879   4.033   8.176 -1.0731 -3.4423 -0.6828
   35CHL1    C3 2517   2.670   5.580   6.988 -0.2513  0.5056  0.0917
   35CHL1    H3 2518   2.737   5.655   7.037 -0.0447  0.1054  0.4325
   35CHL1    O3 2519   2.687   5.578   6.851 -0.5453  0.0566  0.6481
   35CHL1   H3' 2520   2.598   5.557   6.823 -0.5766 -0.3282  1.0184
   35CHL1    C4 2521   2.709   5.450   7.053  0.2184  0.9080  0.7906
   35CHL1   H4A 2522   2.661   5.365   7.001 -0.5605  1.9038 -0.1823
   35CHL1   H4B 2523   2.818   5.460   7.036 -0.1501  4.2887 -0.4305
   35CHL1    C5 2524   2.683   5.453   7.204 -0.2013 -1.3104 -0.7273
   35CHL1    C6 2525   2.782   5.438   7.304  0.3778  0.2146  0.6695
   35CHL1    H6 2526   2.887   5.418   7.279  1.1190  2.1187  2.0487
   35CHL1    C7 2527   2.744   5.449   7.452  0.5085 -0.3358  0.9396
   35CHL1   H7A 2528   2.811   5.382   7.511  1.5513 -1.5173 -1.4373
   35CHL1   H7B 2529   2.771   5.551   7.485 -2.2129  0.0448  2.1880
   35CHL1    C8 2530   2.588   5.439   7.478 -0.1615 -0.3833  0.1429
   35CHL1    H8 2531   2.557   5.336   7.448  0.5722 -0.3428 -0.8038
   35CHL1   C14 2532   2.556   5.464   7.621  0.0375  0.2761  0.3167
   35CHL1   H14 2533   2.578   5.571   7.636 -0.1804  0.3125  0.3867
   35CHL1   C15 2534   2.625   5.388   7.731  0.1218  0.3260  0.1702
   35CHL1  H15A 2535   2.593   5.284   7.711 -2.8243  1.1621 -0.0233
   35CHL1  H15B 2536   2.735   5.393   7.743  0.1735 -0.9235  0.3499
   35CHL1   C16 2537   2.551   5.435   7.861  0.2402  0.1471 -0.9200
   35CHL1  H16A 2538   2.530   5.343   7.920 -1.5664  0.5312 -0.9072
   35CHL1  H16B 2539   2.618   5.504   7.917 -1.1932 -0.1280  1.2465
   35CHL1   C17 2540   2.420   5.496   7.807 -0.0460 -0.2016 -0.2574
   35CHL1   H17 2541   2.434   5.606   7.815  2.0262 -0.2884 -2.0026
   35CHL1   C13 2542   2.410   5.463   7.659  0.0028  0.4230 -0.1606
   35CHL1   C18 2543   2.352   5.316   7.644 -0.1231  0.2327  0.6504
   35CHL1  H18A 2544   2.241   5.313   7.643 -0.1750 -4.1688  0.1176
   35CHL1  H18B 2545   2.385   5.265   7.551  1.2871  0.6292  0.9090
   35CHL1  H18C 2546   2.388   5.252   7.728  0.6628 -1.9875 -1.2743
   35CHL1   C12 2547   2.341   5.573   7.573  0.5605  0.4007  0.2376
   35CHL1  H12A 2548   2.237   5.597   7.604  0.9296  0.9790  1.0894
   35CHL1  H12B 2549   2.398   5.669   7.584  0.4816  0.3500  1.2087
   35CHL1   C11 2550   2.356   5.533   7.425  0.2350  0.6064 -0.6736
   35CHL1  H11A 2551   2.306   5.437   7.403  1.2186  0.4365 -2.3241
   35CHL1  H11B 2552   2.297   5.602   7.361 -2.0390  1.7447  2.3950
   35CHL1    C9 2553   2.504   5.525   7.385 -0.4094 -0.4593  0.1242
   35CHL1    H9 2554   2.546   5.627   7.400  1.8247 -1.3570  0.4178
   35CHL1   C10 2555   2.536   5.496   7.227  0.0116 -0.1212 -1.0229
   35CHL1   C19 2556   2.456   5.377   7.188  0.2574  0.0112 -0.5586
   35CHL1  H19A 2557   2.349   5.407   7.190 -0.0818 -0.6629 -3.6171
   35CHL1  H19B 2558   2.474   5.334   7.088  0.3011 -1.3970  0.0294
   35CHL1  H19C 2559   2.477   5.291   7.256  1.2595  1.0043  0.4307
   35CHL1    C1 2560   2.493   5.630   7.153 -0.6187 -0.4654  1.0830
   35CHL1   H1A 2561   2.382   5.638   7.152 -0.4942  1.9839  1.0744
   35CHL1   H1B 2562   2.530   5.721   7.205 -0.0033  0.1705 -0.4407
   35CHL1    C2 2563   2.522   5.622   7.005 -0.2180 -0.0139  0.3103
   35CHL1   H2A 2564   2.511   5.721   6.956  1.3745 -1.3970 -3.1048
   35CHL1   H2B 2565   2.462   5.538   6.964  1.4813 -1.3300  0.4145
   35CHL1   C20 2566   2.298   5.460   7.891 -0.2495  0.0851 -0.7794
   35CHL1   H20 2567   2.280   5.351   7.882 -0.5366  0.1947 -1.6733
   35CHL1   C21 2568   2.159   5.517   7.838 -0.0700  0.4488 -1.3290
   35CHL1  H21A 2569   2.186   5.606   7.777  2.9632 -0.4033 -1.3756
   35CHL1  H21B 2570   2.081   5.550   7.909  0.8906 -2.2593  1.1492
   35CHL1  H21C 2571   2.117   5.438   7.772  1.4728 -2.3054  0.7833
   35CHL1   C22 2572   2.314   5.472   8.049  0.3272 -0.1880 -0.0556
   35CHL1  H22A 2573   2.220   5.440   8.099  0.4532  1.7230  1.5209
   35CHL1  H22B 2574   2.384   5.400   8.096  1.1054  2.0394  2.4493
   35CHL1   C23 2575   2.343   5.614   8.096 -0.2453 -0.0958 -1.0653
   35CHL1  H23A 2576   2.435   5.653   8.048  1.4761 -1.3349  1.0506
   35CHL1  H23B 2577   2.255   5.678   8.073  0.4020  1.7454  1.1600
   35CHL1   C24 2578   2.374   5.628   8.246  0.3079  0.1251  1.2246
   35CHL1  H24A 2579   2.291   5.575   8.297 -1.4781  1.3853 -0.2397
   35CHL1  H24B 2580   2.475   5.599   8.283  0.6063  0.7227  0.8923
   35CHL1   C25 2581   2.373   5.780   8.295 -0.2276  0.1068 -1.2175
   35CHL1   H25 2582   2.445   5.830   8.227  0.3029  0.2846 -0.5339
   35CHL1   C26 2583   2.240   5.847   8.293  0.8845 -0.5854 -0.2345
   35CHL1  H26A 2584   2.186   5.830   8.197 -0.2747  1.7217 -0.0642
   35CHL1  H26B 2585   2.171   5.809   8.372  1.6459 -1.3779  0.0779
   35CHL1  H26C 2586   2.249   5.956   8.312 -1.5344 -0.0860 -1.5117
   35CHL1   C27 2587   2.432   5.789   8.442  0.0596 -0.4455 -0.0422
   35CHL1  H27A 2588   2.451   5.893   8.473  2.7428 -0.7199 -0.5237
   35CHL1  H27B 2589   2.537   5.751   8.440  0.4764  0.6642  0.3750
   35CHL1  H27C 2590   2.369   5.745   8.522  1.0998 -0.9027  0.5495
   36CHL1    C3 2591   1.637   4.901   7.031  0.3247 -0.5370 -0.0047
   36CHL1    H3 2592   1.537   4.870   6.992 -0.0838  0.4905  0.2083
   36CHL1    O3 2593   1.724   4.942   6.927  0.0742  0.5165  0.0606
   36CHL1   H3' 2594   1.721   4.872   6.861 -3.4624  1.2046 -0.7352
   36CHL1    C4 2595   1.621   5.022   7.127  0.4085 -0.2550  0.4703
   36CHL1   H4A 2596   1.723   5.063   7.145  0.0467  0.7120  0.3492
   36CHL1   H4B 2597   1.557   5.091   7.068 -2.1457 -1.6016  1.4968
   36CHL1    C5 2598   1.565   4.990   7.268 -0.0142  0.1597  0.2633
   36CHL1    C6 2599   1.476   5.066   7.330  0.0677  0.4110  0.3442
   36CHL1    H6 2600   1.441   5.156   7.278  2.1029 -0.1035 -2.0638
   36CHL1    C7 2601   1.433   5.043   7.474 -0.5003 -0.1584  0.3589
   36CHL1   H7A 2602   1.438   5.140   7.529  0.1946 -0.7012  1.2796
   36CHL1   H7B 2603   1.324   5.027   7.485 -0.3986 -0.1012  1.6149
   36CHL1    C8 2604   1.515   4.949   7.561  0.4430 -0.5927  0.4526
   36CHL1    H8 2605   1.605   5.009   7.583 -0.1933  0.6569 -0.1991
   36CHL1   C14 2606   1.447   4.907   7.688 -0.1350  0.6880  0.3654
   36CHL1   H14 2607   1.352   4.859   7.656 -0.2862  1.3333 -0.1572
   36CHL1   C15 2608   1.396   5.015   7.785 -0.3610  0.2315 -0.2162
   36CHL1  H15A 2609   1.487   5.077   7.804  1.0821 -1.6163 -0.7765
   36CHL1  H15B 2610   1.318   5.086   7.748 -1.0622  0.0101  0.8003
   36CHL1   C16 2611   1.362   4.930   7.906 -0.0034  0.1962  0.6166
   36CHL1  H16A 2612   1.425   4.966   7.990  1.3224 -2.5758  0.8997
   36CHL1  H16B 2613   1.253   4.929   7.927 -0.5107  1.3950 -1.6595
   36CHL1   C17 2614   1.428   4.786   7.889  0.2324 -0.1510 -0.3026
   36CHL1   H17 2615   1.348   4.718   7.853 -0.7980 -0.2567  1.9703
   36CHL1   C13 2616   1.528   4.804   7.769  0.2439 -0.0104 -0.8312
   36CHL1   C18 2617   1.658   4.866   7.820 -0.1435 -0.6397  0.6769
   36CHL1  H18A 2618   1.715   4.890   7.728 -1.2619  2.0502  0.5918
   36CHL1  H18B 2619   1.650   4.958   7.881  0.6077  1.2864 -1.9363
   36CHL1  H18C 2620   1.720   4.795   7.878  1.3648 -0.3976 -0.5671
   36CHL1   C12 2621   1.555   4.679   7.685 -0.6290  0.1045  0.2554
   36CHL1  H12A 2622   1.629   4.620   7.743 -0.1031  0.3873 -0.1173
   36CHL1  H12B 2623   1.461   4.623   7.666 -0.5892  0.3742 -0.8380
   36CHL1   C11 2624   1.616   4.710   7.549 -0.1072 -0.3331  0.2903
   36CHL1  H11A 2625   1.723   4.731   7.568  0.4344 -1.2756 -1.4655
   36CHL1  H11B 2626   1.601   4.614   7.494  1.8018 -1.1995  1.1840
   36CHL1    C9 2627   1.551   4.826   7.470 -0.4989  0.0783  0.2413
   36CHL1    H9 2628   1.449   4.796   7.438 -0.3318 -1.0488  0.7231
   36CHL1   C10 2629   1.629   4.865   7.340 -0.2379 -0.1469  0.6004
   36CHL1   C19 2630   1.773   4.903   7.378 -0.0854 -0.4655 -0.5513
   36CHL1  H19A 2631   1.768   4.960   7.474 -1.1491 -1.3593 -0.0543
   36CHL1  H19B 2632   1.840   4.818   7.402  0.7590  0.0129 -1.1474
   36CHL1  H19C 2633   1.819   4.951   7.289 -0.7691  0.0556 -0.6278
   36CHL1    C1 2634   1.647   4.746   7.240  0.5192  0.2824  0.0713
   36CHL1   H1A 2635   1.716   4.672   7.286  0.3087  0.6942  1.0736
   36CHL1   H1B 2636   1.543   4.710   7.225 -0.2514  3.0103 -2.0708
   36CHL1    C2 2637   1.699   4.781   7.098  0.3766  0.2018  0.0153
   36CHL1   H2A 2638   1.700   4.693   7.030 -0.5909  0.7481 -0.7290
   36CHL1   H2B 2639   1.808   4.799   7.106  0.7163  0.5570 -3.7181
   36CHL1   C20 2640   1.482   4.721   8.020 -0.1662  0.3656  0.0206
   36CHL1   H20 2641   1.574   4.775   8.051 -0.2511  0.5947 -0.1202
   36CHL1   C21 2642   1.499   4.571   7.994  0.7294  0.2262  0.4883
   36CHL1  H21A 2643   1.407   4.520   7.958  2.1480 -1.7217 -0.5238
   36CHL1  H21B 2644   1.525   4.513   8.085  1.0367  1.5550  1.2726
   36CHL1  H21C 2645   1.582   4.540   7.928  0.6318  0.6381  0.1672
   36CHL1   C22 2646   1.382   4.729   8.136 -0.3071  0.4225 -0.1912
   36CHL1  H22A 2647   1.357   4.836   8.151  0.8366  0.5891  0.7208
   36CHL1  H22B 2648   1.285   4.676   8.124 -0.6646  0.7674  1.0316
   36CHL1   C23 2649   1.435   4.670   8.267  0.0327  0.1120 -0.7238
   36CHL1  H23A 2650   1.382   4.713   8.355  1.7794 -0.5508  0.7276
   36CHL1  H23B 2651   1.414   4.561   8.266  2.0429 -0.3175 -1.8555
   36CHL1   C24 2652   1.581   4.707   8.300 -0.5782  0.1918  0.4274
   36CHL1  H24A 2653   1.652   4.654   8.234 -1.2064 -0.2155  0.0700
   36CHL1  H24B 2654   1.608   4.814   8.285 -0.0812  0.3470  2.1996
   36CHL1   C25 2655   1.628   4.661   8.442  0.1084  0.5113  0.6332
   36CHL1   H25 2656   1.556   4.696   8.519 -1.2386  0.4047 -0.5316
   36CHL1   C26 2657   1.642   4.507   8.451 -0.4577  1.1997 -0.2211
   36CHL1  H26A 2658   1.671   4.487   8.556  3.1325  1.2711 -1.0757
   36CHL1  H26B 2659   1.541   4.465   8.433 -0.0573 -1.5998  3.1243
   36CHL1  H26C 2660   1.717   4.454   8.389 -0.2012  0.2301  0.8943
   36CHL1   C27 2661   1.761   4.738   8.472  0.3486  0.0562 -0.1730
   36CHL1  H27A 2662   1.804   4.696   8.565 -0.9995 -0.5097  0.2223
   36CHL1  H27B 2663   1.840   4.725   8.395  0.0628  1.0346 -0.6551
   36CHL1  H27C 2664   1.739   4.847   8.479 -0.7201 -0.0876 -0.9755
   37CHL1    C3 2665   5.911   5.370   6.665  0.3175  0.2319  0.2489
   37CHL1    H3 2666   5.942   5.477   6.662  1.0139  0.0007 -1.9772
   37CHL1    O3 2667   5.933   5.323   6.535  0.5242  0.1869  0.4220
   37CHL1   H3' 2668   5.876   5.245   6.542 -2.8345  2.4581  1.0822
   37CHL1    C4 2669   5.998   5.291   6.766 -0.2074 -0.1184  0.2539
   37CHL1   H4A 2670   5.976   5.183   6.753 -0.8417 -0.1689  1.6239
   37CHL1   H4B 2671   6.102   5.315   6.735 -0.8821  1.4812 -0.9458
   37CHL1    C5 2672   5.980   5.332   6.912 -0.8164  0.3700 -0.7394
   37CHL1    C6 2673   6.073   5.385   6.991 -0.0821  0.2087 -0.2833
   37CHL1    H6 2674   6.168   5.415   6.945  1.4891 -1.7195  1.4885
   37CHL1    C7 2675   6.047   5.407   7.140 -0.8050  0.3246  0.8020
   37CHL1   H7A 2676   6.139   5.366   7.186  0.2080  2.6637  0.9958
   37CHL1   H7B 2677   6.036   5.516   7.161  0.8132  0.9284 -1.2141
   37CHL1    C8 2678   5.922   5.334   7.194  0.6745  0.1354 -0.7843
   37CHL1    H8 2679   5.950   5.227   7.193  4.4221  0.9501  1.2164
   37CHL1   C14 2680   5.890   5.388   7.331 -0.2825 -0.3697 -0.5190
   37CHL1   H14 2681   5.877   5.499   7.328 -0.6810 -0.2672  2.1354
   37CHL1   C15 2682   5.995   5.359   7.441  0.2456 -0.5550 -0.0653
   37CHL1  H15A 2683   6.037   5.257   7.423  0.6011 -0.6448  1.2024
   37CHL1  H15B 2684   6.081   5.430   7.441  0.1389 -0.4052  1.2594
   37CHL1   C16 2685   5.918   5.356   7.574 -0.3369 -0.5903 -0.7402
   37CHL1  H16A 2686   5.925   5.255   7.620 -0.1435  0.3363  1.4106
   37CHL1  H16B 2687   5.967   5.432   7.639 -1.2524 -0.8141  0.2336
   37CHL1   C17 2688   5.775   5.402   7.533  0.5866 -0.3307 -0.7390
   37CHL1   H17 2689   5.794   5.511   7.520  1.3200 -0.5339 -1.4744
   37CHL1   C13 2690   5.758   5.342   7.388  0.5862 -0.6401 -0.1829
   37CHL1   C18 2691   5.749   5.189   7.391 -0.1501  0.2158  0.5960
   37CHL1  H18A 2692   5.779   5.140   7.295 -1.2536  1.2807 -0.3289
   37CHL1  H18B 2693   5.804   5.142   7.475  0.0832  0.7951  0.7721
   37CHL1  H18C 2694   5.642   5.159   7.404 -0.3469  1.3630  1.7347
   37CHL1   C12 2695   5.645   5.404   7.302 -0.1084 -0.0210  0.3569
   37CHL1  H12A 2696   5.544   5.375   7.339  0.2058 -2.6252 -0.6267
   37CHL1  H12B 2697   5.645   5.515   7.301  1.9861  0.0548  1.2464
   37CHL1   C11 2698   5.659   5.355   7.153 -0.2919  0.1935 -0.5782
   37CHL1  H11A 2699   5.635   5.246   7.148 -1.4948  0.2881  1.7093
   37CHL1  H11B 2700   5.590   5.411   7.087 -1.7256  0.0871  0.7619
   37CHL1    C9 2701   5.803   5.372   7.091 -0.6730 -0.3514 -0.4918
   37CHL1    H9 2702   5.814   5.480   7.072  0.0448 -0.3797 -0.2454
   37CHL1   C10 2703   5.831   5.309   6.958  0.4111  0.2231  0.7726
   37CHL1   C19 2704   5.794   5.154   6.955 -0.3356 -0.1310 -0.6107
   37CHL1  H19A 2705   5.799   5.116   6.851 -2.4186 -0.3186 -0.6787
   37CHL1  H19B 2706   5.875   5.099   7.007  1.3358  1.5407 -1.3045
   37CHL1  H19C 2707   5.693   5.128   6.991 -0.9666  0.6331 -1.7733
   37CHL1    C1 2708   5.747   5.391   6.848 -0.4705  0.4670  0.1851
   37CHL1   H1A 2709   5.641   5.367   6.874  0.3077 -0.1698  3.2112
   37CHL1   H1B 2710   5.770   5.499   6.847  0.8768  0.2046 -1.7218
   37CHL1    C2 2711   5.765   5.361   6.696  0.1528  0.5139 -0.2452
   37CHL1   H2A 2712   5.697   5.422   6.631 -0.8255  0.9244  1.1135
   37CHL1   H2B 2713   5.725   5.259   6.680  1.1351  0.1365 -0.3642
   37CHL1   C20 2714   5.671   5.384   7.645 -0.3857 -0.6679 -0.1282
   37CHL1   H20 2715   5.570   5.394   7.600 -0.8763 -3.1834  0.2473
   37CHL1   C21 2716   5.681   5.512   7.737 -0.4605  0.6364  0.7645
   37CHL1  H21A 2717   5.783   5.521   7.781  0.3595 -0.6871 -0.7654
   37CHL1  H21B 2718   5.611   5.511   7.823 -0.2502  0.0566  0.9344
   37CHL1  H21C 2719   5.658   5.600   7.674  2.0235 -0.7268 -2.3279
   37CHL1   C22 2720   5.675   5.254   7.724  0.3751  0.7640  0.5985
   37CHL1  H22A 2721   5.648   5.171   7.655 -1.9479  2.9864 -1.3592
   37CHL1  H22B 2722   5.776   5.240   7.768  1.6490  2.1545 -1.6824
   37CHL1   C23 2723   5.589   5.257   7.851  0.4780 -0.0926 -0.0673
   37CHL1  H23A 2724   5.632   5.322   7.930  0.8409 -2.1172  1.4983
   37CHL1  H23B 2725   5.489   5.298   7.825  2.2660  3.5747 -1.9664
   37CHL1   C24 2726   5.576   5.119   7.914 -0.6500 -0.5563 -0.1848
   37CHL1  H24A 2727   5.495   5.060   7.867 -0.6071  0.1085 -1.1278
   37CHL1  H24B 2728   5.678   5.076   7.911 -0.2068  0.5121 -1.8987
   37CHL1   C25 2729   5.536   5.132   8.060  0.2882  0.3351  0.4887
   37CHL1   H25 2730   5.595   5.207   8.115  0.4249  0.5240  0.0853
   37CHL1   C26 2731   5.391   5.180   8.076  1.1571 -0.3490  0.0656
   37CHL1  H26A 2732   5.318   5.097   8.078 -1.2323  1.6532  2.2937
   37CHL1  H26B 2733   5.382   5.226   8.177  3.3321  1.3284 -0.4114
   37CHL1  H26C 2734   5.372   5.268   8.012 -1.0284 -1.2431 -0.5911
   37CHL1   C27 2735   5.561   4.998   8.133 -0.1034 -0.5911 -0.5277
   37CHL1  H27A 2736   5.668   4.966   8.125  0.0199 -0.0864 -0.9638
   37CHL1  H27B 2737   5.532   5.007   8.240  1.6873  0.4131 -0.0712
   37CHL1  H27C 2738   5.503   4.917   8.085  0.4552 -1.5642  0.3761
   38CHL1    C3 2739   2.327   2.177   6.650  0.2166 -0.0840 -0.3991
   38CHL1    H3 2740   2.318   2.066   6.660 -0.8742  0.0399  0.1794
   38CHL1    O3 2741   2.337   2.198   6.512 -0.4183  0.0398  0.2825
   38CHL1   H3' 2742   2.383   2.281   6.496  1.4711 -0.8464  0.9430
   38CHL1    C4 2743   2.203   2.241   6.722  0.2822  0.4262 -0.4793
   38CHL1   H4A 2744   2.207   2.347   6.690  2.6557  1.1242  1.7685
   38CHL1   H4B 2745   2.111   2.202   6.675  0.5180  0.0067 -0.6013
   38CHL1    C5 2746   2.220   2.219   6.870  0.9354 -0.5840  0.3785
   38CHL1    C6 2747   2.113   2.158   6.939 -0.4177 -0.4303 -0.5463
   38CHL1    H6 2748   2.022   2.130   6.884 -1.3950  1.1620  0.2131
   38CHL1    C7 2749   2.120   2.146   7.088  0.0508 -0.2902 -0.2782
   38CHL1   H7A 2750   2.019   2.168   7.129  0.0211 -1.7762  0.5388
   38CHL1   H7B 2751   2.150   2.042   7.114  0.7589  0.3368  1.5416
   38CHL1    C8 2752   2.219   2.240   7.156  0.0077  0.4855  0.7040
   38CHL1    H8 2753   2.177   2.342   7.166  0.2487  0.8110 -1.2307
   38CHL1   C14 2754   2.236   2.197   7.302  0.1148  0.1316  0.3884
   38CHL1   H14 2755   2.286   2.098   7.300 -1.3811 -0.7259 -3.6857
   38CHL1   C15 2756   2.117   2.173   7.388  0.4482  0.0122 -0.3205
   38CHL1  H15A 2757   2.030   2.243   7.386 -0.7075 -1.3374  0.3610
   38CHL1  H15B 2758   2.078   2.069   7.375  1.7982 -0.5108 -0.3393
   38CHL1   C16 2759   2.177   2.170   7.529  0.2886 -0.7352 -0.2875
   38CHL1  H16A 2760   2.112   2.230   7.597 -1.2807 -0.0545 -2.3107
   38CHL1  H16B 2761   2.189   2.066   7.568  1.2314 -0.3789  0.4311
   38CHL1   C17 2762   2.321   2.227   7.526 -0.7866 -0.4127 -0.0581
   38CHL1   H17 2763   2.397   2.146   7.526 -0.8818 -0.5242  1.2131
   38CHL1   C13 2764   2.336   2.287   7.382  0.2586 -0.0426  0.4291
   38CHL1   C18 2765   2.287   2.430   7.391  0.5128 -0.5332  0.2355
   38CHL1  H18A 2766   2.193   2.438   7.449 -0.9973  0.1021 -2.1850
   38CHL1  H18B 2767   2.361   2.507   7.422 -0.3147 -0.1848  1.4016
   38CHL1  H18C 2768   2.265   2.468   7.290  2.2442 -0.3108 -0.0918
   38CHL1   C12 2769   2.473   2.270   7.321 -0.7400 -0.2875  0.6108
   38CHL1  H12A 2770   2.554   2.341   7.351 -0.5182 -0.1092 -0.3760
   38CHL1  H12B 2771   2.503   2.165   7.342  0.4280  0.3118  2.1140
   38CHL1   C11 2772   2.466   2.302   7.165 -0.4181 -0.0594 -0.4175
   38CHL1  H11A 2773   2.461   2.412   7.158 -3.0834 -0.1269 -0.7677
   38CHL1  H11B 2774   2.566   2.265   7.132  1.1376  1.8858  1.7721
   38CHL1    C9 2775   2.352   2.232   7.090 -0.4056 -0.0029  0.6965
   38CHL1    H9 2776   2.390   2.128   7.092 -0.2013  0.0286 -0.6257
   38CHL1   C10 2777   2.344   2.271   6.938 -0.2131  0.1356 -0.1537
   38CHL1   C19 2778   2.352   2.426   6.918 -0.1825  0.4922  0.7321
   38CHL1  H19A 2779   2.327   2.462   6.816 -0.1053 -1.0937  0.1336
   38CHL1  H19B 2780   2.272   2.473   6.979 -0.4101 -0.4881  1.2165
   38CHL1  H19C 2781   2.452   2.470   6.942  1.0839 -2.0927  0.5172
   38CHL1    C1 2782   2.464   2.212   6.861 -0.2643  0.0295  0.4816
   38CHL1   H1A 2783   2.557   2.258   6.899 -0.0876  1.2231 -1.2547
   38CHL1   H1B 2784   2.474   2.104   6.884  0.4791 -0.3961 -1.6334
   38CHL1    C2 2785   2.461   2.222   6.712  0.1833  0.2137 -0.1948
   38CHL1   H2A 2786   2.545   2.178   6.655 -1.3492 -1.6131 -1.1541
   38CHL1   H2B 2787   2.466   2.328   6.679 -0.5154  0.1089 -0.6566
   38CHL1   C20 2788   2.351   2.309   7.653  0.5242  0.3140 -0.2931
   38CHL1   H20 2789   2.292   2.403   7.645  2.0133  1.2404 -0.8668
   38CHL1   C21 2790   2.492   2.365   7.643 -0.6035  0.4674  0.1510
   38CHL1  H21A 2791   2.564   2.281   7.651  0.3564  1.2935  0.5129
   38CHL1  H21B 2792   2.508   2.425   7.735 -1.1292 -0.1656  0.6574
   38CHL1  H21C 2793   2.511   2.422   7.549  1.5625  4.0928  2.5267
   38CHL1   C22 2794   2.307   2.243   7.788 -0.2491  0.3593 -0.4460
   38CHL1  H22A 2795   2.196   2.254   7.787 -0.2417  0.4448 -0.3414
   38CHL1  H22B 2796   2.344   2.139   7.795 -0.9770 -0.0177 -1.8096
   38CHL1   C23 2797   2.346   2.316   7.914 -0.3445 -0.3586  0.6205
   38CHL1  H23A 2798   2.454   2.305   7.939 -0.0218  0.4134 -0.3794
   38CHL1  H23B 2799   2.321   2.422   7.892 -3.7562 -0.6378  2.4662
   38CHL1   C24 2800   2.268   2.265   8.040  0.8317  0.0763 -0.0074
   38CHL1  H24A 2801   2.283   2.346   8.114 -0.1548  1.6367 -1.4237
   38CHL1  H24B 2802   2.159   2.261   8.018  1.4239 -1.1315 -3.3969
   38CHL1   C25 2803   2.307   2.130   8.098 -0.4030 -0.7124 -0.4319
   38CHL1   H25 2804   2.318   2.049   8.022 -0.2189 -0.8595 -0.2486
   38CHL1   C26 2805   2.446   2.144   8.169 -0.5077 -0.1389 -0.0988
   38CHL1  H26A 2806   2.459   2.050   8.227  2.0592 -0.3414 -0.8895
   38CHL1  H26B 2807   2.528   2.154   8.095  2.3989 -0.1709  2.8845
   38CHL1  H26C 2808   2.449   2.229   8.240 -1.4486 -0.3691  0.2405
   38CHL1   C27 2809   2.198   2.078   8.188 -0.3142  0.1741  0.1745
   38CHL1  H27A 2810   2.180   2.139   8.278 -1.4077 -0.0489  0.1122
   38CHL1  H27B 2811   2.108   2.076   8.123  0.2370 -0.8534 -0.6106
   38CHL1  H27C 2812   2.216   1.973   8.220 -1.4099 -0.5282 -1.3618
   39CHL1    C3 2813   1.468   2.394   6.657 -0.0824 -0.5104 -0.3088
   39CHL1    H3 2814   1.565   2.447   6.672 -1.5423  1.9065  1.2081
   39CHL1    O3 2815   1.424   2.412   6.523 -0.0175 -0.0741  0.0803
   39CHL1   H3' 2816   1.362   2.339   6.510 -0.3220  0.6278 -3.2441
   39CHL1    C4 2817   1.472   2.242   6.697  0.1065 -0.4623 -0.6527
   39CHL1   H4A 2818   1.371   2.196   6.693 -0.7026  1.1669 -0.0789
   39CHL1   H4B 2819   1.543   2.189   6.631 -0.0854 -0.1996 -1.0726
   39CHL1    C5 2820   1.523   2.223   6.840  0.0011  0.0030  0.4664
   39CHL1    C6 2821   1.640   2.157   6.868  0.4517  0.2308  0.6248
   39CHL1    H6 2822   1.700   2.134   6.779 -2.1732  1.6276 -1.6279
   39CHL1    C7 2823   1.691   2.135   7.008 -0.0294  0.2958  0.4470
   39CHL1   H7A 2824   1.713   2.026   7.017  2.9380  0.6454 -1.3042
   39CHL1   H7B 2825   1.786   2.191   7.021 -0.1342  0.3811  0.8454
   39CHL1    C8 2826   1.581   2.165   7.118 -0.1250 -0.4096  1.0298
   39CHL1    H8 2827   1.512   2.078   7.121 -1.3952  0.5625  0.7900
   39CHL1   C14 2828   1.647   2.190   7.252  0.0689  0.9125  0.1639
   39CHL1   H14 2829   1.711   2.279   7.232 -1.6845  1.9537 -1.1343
   39CHL1   C15 2830   1.740   2.082   7.301  0.3444 -0.4898  0.6691
   39CHL1  H15A 2831   1.691   1.982   7.298 -1.6037  0.4406 -0.9491
   39CHL1  H15B 2832   1.841   2.081   7.254  1.4363  0.7863  2.8144
   39CHL1   C16 2833   1.755   2.119   7.447  0.3641 -0.1715 -0.6011
   39CHL1  H16A 2834   1.706   2.036   7.502  0.0253 -0.9399 -2.0170
   39CHL1  H16B 2835   1.859   2.146   7.474  0.2074  1.4086 -1.4884
   39CHL1   C17 2836   1.656   2.231   7.478  0.6156  0.2199 -0.7196
   39CHL1   H17 2837   1.706   2.330   7.467 -1.6696  1.6370  0.9094
   39CHL1   C13 2838   1.548   2.226   7.368  0.5355  0.2638 -0.2768
   39CHL1   C18 2839   1.447   2.107   7.387 -0.7676  0.1064  0.2936
   39CHL1  H18A 2840   1.487   2.006   7.408 -2.6849 -0.9620 -0.9874
   39CHL1  H18B 2841   1.382   2.136   7.472 -0.4606  0.2556  0.4795
   39CHL1  H18C 2842   1.383   2.094   7.297  0.0872 -3.1294  0.0252
   39CHL1   C12 2843   1.483   2.359   7.328 -0.1107 -0.6360 -0.0369
   39CHL1  H12A 2844   1.419   2.398   7.410  1.4160  1.3420  0.3103
   39CHL1  H12B 2845   1.565   2.428   7.301 -0.5145 -0.1226  0.0259
   39CHL1   C11 2846   1.408   2.351   7.192  0.2871  0.7973  0.1104
   39CHL1  H11A 2847   1.318   2.289   7.215  2.0325 -1.5328  1.1664
   39CHL1  H11B 2848   1.368   2.446   7.152  0.4049 -0.0500 -2.1352
   39CHL1    C9 2849   1.503   2.295   7.081 -0.1033  0.1333 -0.1320
   39CHL1    H9 2850   1.579   2.375   7.067  0.7080 -0.4311  0.9152
   39CHL1   C10 2851   1.433   2.289   6.942  0.1534  0.0820 -0.5671
   39CHL1   C19 2852   1.299   2.205   6.956  0.0630  0.3449  0.4008
   39CHL1  H19A 2853   1.252   2.193   6.856  0.9337 -1.9161  0.2169
   39CHL1  H19B 2854   1.321   2.109   7.007  0.5532  0.3288  0.1587
   39CHL1  H19C 2855   1.224   2.262   7.016  0.5543 -0.7135  2.0932
   39CHL1    C1 2856   1.394   2.431   6.897 -0.6268 -0.1572  0.5580
   39CHL1   H1A 2857   1.305   2.459   6.956 -0.6150  1.1277  0.0110
   39CHL1   H1B 2858   1.477   2.503   6.915 -1.0431  0.7962 -1.1122
   39CHL1    C2 2859   1.361   2.451   6.747  0.1082 -0.1837 -0.0674
   39CHL1   H2A 2860   1.346   2.560   6.730 -1.4896 -0.3047  0.3695
   39CHL1   H2B 2861   1.261   2.413   6.717  0.8527 -2.0995 -0.2399
   39CHL1   C20 2862   1.611   2.221   7.620  0.9009 -0.4966 -0.2585
   39CHL1   H20 2863   1.570   2.118   7.623 -0.0437 -0.3685 -3.7261
   39CHL1   C21 2864   1.497   2.322   7.649  0.0927  0.3467 -0.0777
   39CHL1  H21A 2865   1.479   2.320   7.759 -0.8504  0.2946 -0.2249
   39CHL1  H21B 2866   1.394   2.306   7.611  0.3611  0.1764 -0.7422
   39CHL1  H21C 2867   1.528   2.428   7.637 -0.0511  0.5444  1.1291
   39CHL1   C22 2868   1.717   2.238   7.725 -0.3414 -0.6060  0.4163
   39CHL1  H22A 2869   1.818   2.206   7.691  0.3569 -0.9981  2.6688
   39CHL1  H22B 2870   1.733   2.346   7.740 -1.1797 -0.1846 -1.4227
   39CHL1   C23 2871   1.681   2.166   7.855  0.2277 -0.3175 -0.1635
   39CHL1  H23A 2872   1.594   2.211   7.908  0.5310 -2.1351  2.0348
   39CHL1  H23B 2873   1.649   2.061   7.840 -0.5441  0.0864 -1.5427
   39CHL1   C24 2874   1.797   2.171   7.954 -0.4155  0.3662  0.2689
   39CHL1  H24A 2875   1.875   2.110   7.904 -1.1237 -0.3117 -0.0291
   39CHL1  H24B 2876   1.823   2.278   7.965 -0.4773  0.7324 -2.4553
   39CHL1   C25 2877   1.757   2.121   8.103 -0.3747 -0.2183  0.4145
   39CHL1   H25 2878   1.852   2.136   8.159  1.0184 -1.9972 -1.3488
   39CHL1   C26 2879   1.664   2.216   8.183  0.1732  0.7416 -0.2732
   39CHL1  H26A 2880   1.653   2.175   8.286  1.4967  0.4725 -0.2155
   39CHL1  H26B 2881   1.710   2.316   8.197  0.4149  0.5419  0.3750
   39CHL1  H26C 2882   1.561   2.218   8.143 -0.1722  0.8441  0.5966
   39CHL1   C27 2883   1.726   1.972   8.114 -0.2016 -0.2447 -0.3766
   39CHL1  H27A 2884   1.817   1.907   8.114 -2.0181 -3.0061 -1.8975
   39CHL1  H27B 2885   1.675   1.948   8.210  0.9600 -1.9514 -0.1373
   39CHL1  H27C 2886   1.663   1.938   8.029 -0.5710 -1.7777  0.4682
   40CHL1    C3 2887   4.316   0.006   6.898  0.3042  0.3516 -0.2293
   40CHL1    H3 2888   4.223  -0.052   6.915  2.5242 -2.6343  2.8782
   40CHL1    O3 2889   4.344   0.013   6.756  0.1464  0.1846 -0.5816
   40CHL1   H3' 2890   4.269   0.062   6.721 -2.0567  0.1059  3.4906
   40CHL1    C4 2891   4.300   0.146   6.957  0.9110  0.0846 -0.1227
   40CHL1   H4A 2892   4.388   0.213   6.940 -0.8451  2.2247 -1.3169
   40CHL1   H4B 2893   4.220   0.194   6.897  0.6716 -2.6854 -2.2067
   40CHL1    C5 2894   4.261   0.142   7.107  0.0724  1.1407  0.9728
   40CHL1    C6 2895   4.148   0.204   7.152 -0.6581  0.2674 -0.3737
   40CHL1    H6 2896   4.077   0.256   7.087  0.5006 -0.5838 -2.3954
   40CHL1    C7 2897   4.108   0.200   7.290  0.0052 -0.4428  0.2812
   40CHL1   H7A 2898   4.074   0.299   7.326  0.7616 -0.2204  0.4074
   40CHL1   H7B 2899   4.021   0.131   7.298  0.3342 -0.7681  1.2291
   40CHL1    C8 2900   4.215   0.151   7.393 -0.8349  0.9963 -0.0078
   40CHL1    H8 2901   4.276   0.242   7.410 -1.5221  1.0160  2.7854
   40CHL1   C14 2902   4.150   0.107   7.525 -0.5930  0.3754  0.8146
   40CHL1   H14 2903   4.084   0.020   7.502 -0.0836  0.7433 -2.5056
   40CHL1   C15 2904   4.063   0.196   7.598  0.2976 -0.1741  0.0357
   40CHL1  H15A 2905   4.107   0.297   7.610 -0.4151  0.0903  0.5021
   40CHL1  H15B 2906   3.963   0.200   7.549 -0.5101  2.3566  1.6663
   40CHL1   C16 2907   4.059   0.139   7.742  0.1734 -0.4534  0.1315
   40CHL1  H16A 2908   4.105   0.219   7.803  0.9155  1.1518 -2.3519
   40CHL1  H16B 2909   3.956   0.107   7.768 -0.3264  0.1963 -0.9531
   40CHL1   C17 2910   4.165   0.027   7.748  0.4882  0.3854 -0.0336
   40CHL1   H17 2911   4.105  -0.066   7.735 -0.1879  0.7368  0.4879
   40CHL1   C13 2912   4.260   0.055   7.633  0.2088 -0.1121 -0.1799
   40CHL1   C18 2913   4.359   0.164   7.675 -0.0186  0.2499 -0.0154
   40CHL1  H18A 2914   4.434   0.186   7.596  1.1415  0.0315  1.0162
   40CHL1  H18B 2915   4.306   0.253   7.715  0.8216  1.5950 -1.7247
   40CHL1  H18C 2916   4.428   0.140   7.758 -1.1560  2.1243  1.5522
   40CHL1   C12 2917   4.335  -0.067   7.569  0.3217  0.8882 -0.9978
   40CHL1  H12A 2918   4.419  -0.112   7.626  0.4734  0.6787 -1.3852
   40CHL1  H12B 2919   4.260  -0.146   7.546  0.1399  0.1657  1.7033
   40CHL1   C11 2920   4.405  -0.019   7.441 -0.2665 -0.2879  0.2043
   40CHL1  H11A 2921   4.486   0.053   7.468  0.0911  0.0757 -1.6897
   40CHL1  H11B 2922   4.451  -0.108   7.394 -0.5252 -0.4668  0.2862
   40CHL1    C9 2923   4.297   0.037   7.337 -0.6661  0.1708  0.1501
   40CHL1    H9 2924   4.226  -0.049   7.330 -0.7198  0.2537 -0.3865
   40CHL1   C10 2925   4.354   0.061   7.192  0.3823  0.9550 -0.5973
   40CHL1   C19 2926   4.476   0.150   7.203  0.8844  0.7968  0.2581
   40CHL1  H19A 2927   4.519   0.170   7.102  2.0341 -0.7268  0.4058
   40CHL1  H19B 2928   4.455   0.248   7.251 -2.9475  0.8907 -1.2556
   40CHL1  H19C 2929   4.545   0.084   7.260 -0.0065 -0.6566 -0.2823
   40CHL1    C1 2930   4.392  -0.075   7.128  0.2596  0.1143  0.0337
   40CHL1   H1A 2931   4.488  -0.109   7.174  2.7154  2.3986 -2.9499
   40CHL1   H1B 2932   4.314  -0.154   7.134 -1.7112  1.9772 -0.1267
   40CHL1    C2 2933   4.431  -0.057   6.980  1.2317  0.0554  0.7058
   40CHL1   H2A 2934   4.451  -0.158   6.939  1.6260 -0.1844  1.4767
   40CHL1   H2B 2935   4.514   0.016   6.966 -1.7517  3.6941  0.3007
   40CHL1   C20 2936   4.223   0.014   7.891  0.3438  0.1064  0.5747
   40CHL1   H20 2937   4.273   0.109   7.919  0.6365 -0.0940  0.7361
   40CHL1   C21 2938   4.324  -0.101   7.898  0.0014  0.0588  0.8250
   40CHL1  H21A 2939   4.288  -0.185   7.835 -0.7468  1.6553 -0.9741
   40CHL1  H21B 2940   4.347  -0.141   7.999  1.0134  0.7816  0.8997
   40CHL1  H21C 2941   4.421  -0.082   7.846  0.3648  1.4121  1.9288
   40CHL1   C22 2942   4.116  -0.010   7.998  0.1809 -0.2752  0.0404
   40CHL1  H22A 2943   4.164   0.032   8.090 -1.3487  0.2182  0.6457
   40CHL1  H22B 2944   4.026   0.054   7.985  1.1192  0.5984 -2.9048
   40CHL1   C23 2945   4.076  -0.156   8.020  0.4622  0.0788  0.4202
   40CHL1  H23A 2946   4.044  -0.204   7.925  1.5474 -1.5366  0.8431
   40CHL1  H23B 2947   4.159  -0.224   8.048  1.4919  0.9029 -0.5116
   40CHL1   C24 2948   3.960  -0.157   8.121  0.7362 -0.0590 -0.0518
   40CHL1  H24A 2949   3.888  -0.077   8.096  1.2866  0.3392 -0.3665
   40CHL1  H24B 2950   3.899  -0.249   8.110  0.0371  0.4710 -0.6920
   40CHL1   C25 2951   4.008  -0.139   8.269 -0.1203 -0.1078  0.5226
   40CHL1   H25 2952   4.067  -0.046   8.254 -0.7291  0.1972 -0.0467
   40CHL1   C26 2953   3.905  -0.118   8.376 -0.2527  0.2625  0.4463
   40CHL1  H26A 2954   3.837  -0.040   8.336  0.1883 -0.4289 -1.7647
   40CHL1  H26B 2955   3.845  -0.206   8.407 -2.5908  1.0832 -1.4756
   40CHL1  H26C 2956   3.941  -0.070   8.470  0.8436  1.1887 -0.4110
   40CHL1   C27 2957   4.107  -0.245   8.330 -0.4336 -0.1535 -0.1733
   40CHL1  H27A 2958   4.206  -0.244   8.279  0.1763 -1.4436  0.9105
   40CHL1  H27B 2959   4.108  -0.206   8.434 -2.2329  0.9350 -0.5179
   40CHL1  H27C 2960   4.071  -0.350   8.325 -1.2785  0.0166  1.6719
   41CHL1    C3 2961   1.961   6.055   7.067  0.3076  0.1039  0.1488
   41CHL1    H3 2962   1.905   6.139   7.111  1.8172  0.6926  1.0238
   41CHL1    O3 2963   1.916   6.020   6.939  0.2299 -0.0164  0.2982
   41CHL1   H3' 2964   1.976   5.952   6.910  0.1720  0.4129 -0.9058
   41CHL1    C4 2965   2.109   6.094   7.047 -0.0856  0.1692 -0.0451
   41CHL1   H4A 2966   2.160   6.010   6.994  0.6367  1.3487 -1.3038
   41CHL1   H4B 2967   2.108   6.182   6.979 -1.0505  0.5601  0.4573
   41CHL1    C5 2968   2.172   6.129   7.173 -0.0077  0.3172 -0.4395
   41CHL1    C6 2969   2.216   6.250   7.199 -0.2537  0.3503 -0.3305
   41CHL1    H6 2970   2.212   6.315   7.111  0.3026 -0.2267 -0.7855
   41CHL1    C7 2971   2.289   6.287   7.329 -0.1641  0.3400  0.9364
   41CHL1   H7A 2972   2.377   6.353   7.313 -0.8936  0.9997 -0.5267
   41CHL1   H7B 2973   2.220   6.337   7.400 -3.2203 -2.0246 -0.1403
   41CHL1    C8 2974   2.347   6.170   7.416 -0.4171 -0.4832  0.0861
   41CHL1    H8 2975   2.423   6.113   7.359 -0.3193 -1.5999  1.2973
   41CHL1   C14 2976   2.387   6.212   7.561  0.3640  0.0739 -0.0658
   41CHL1   H14 2977   2.298   6.268   7.597  1.4132  1.9422 -0.2519
   41CHL1   C15 2978   2.500   6.319   7.571 -0.0697  0.9639  0.5498
   41CHL1  H15A 2979   2.577   6.284   7.500 -1.8400 -0.3430 -0.8384
   41CHL1  H15B 2980   2.455   6.415   7.536 -2.7571 -0.0926  0.8052
   41CHL1   C16 2981   2.540   6.308   7.722  0.0034  0.1184 -0.6831
   41CHL1  H16A 2982   2.645   6.274   7.712 -0.5828 -1.5117 -1.5677
   41CHL1  H16B 2983   2.538   6.406   7.776  0.1475  0.4134 -1.2054
   41CHL1   C17 2984   2.457   6.189   7.786 -0.1248 -0.8116 -0.1875
   41CHL1   H17 2985   2.372   6.232   7.843  0.9593  2.5481 -0.8817
   41CHL1   C13 2986   2.418   6.104   7.661  0.2027  0.7542 -0.3756
   41CHL1   C18 2987   2.541   6.022   7.614  0.3958 -0.3335 -0.6816
   41CHL1  H18A 2988   2.553   5.932   7.679 -0.4849  1.5461  2.2563
   41CHL1  H18B 2989   2.524   5.988   7.509 -0.7489 -1.3580 -0.1836
   41CHL1  H18C 2990   2.633   6.084   7.619 -0.7018  1.2450  1.6924
   41CHL1   C12 2991   2.297   6.004   7.666 -0.4474 -0.2905 -0.0973
   41CHL1  H12A 2992   2.318   5.910   7.721 -0.9769 -1.0261 -1.1098
   41CHL1  H12B 2993   2.211   6.064   7.704 -0.4221 -0.3275  0.0173
   41CHL1   C11 2994   2.251   5.954   7.527 -0.8409  0.1251  0.1682
   41CHL1  H11A 2995   2.344   5.901   7.499 -0.5100 -0.2495  1.8502
   41CHL1  H11B 2996   2.169   5.880   7.534 -1.2972  0.6402  0.3601
   41CHL1    C9 2997   2.230   6.060   7.419  0.4946 -0.0712  0.1222
   41CHL1    H9 2998   2.144   6.120   7.456 -0.0932 -0.9458  0.2137
   41CHL1   C10 2999   2.176   6.020   7.279  0.3989  0.0105 -0.0500
   41CHL1   C19 3000   2.272   5.902   7.219  0.5647  0.1292 -0.2559
   41CHL1  H19A 3001   2.377   5.935   7.205  1.1536 -0.6531  1.9372
   41CHL1  H19B 3002   2.279   5.819   7.293  1.6221  0.7759  0.3939
   41CHL1  H19C 3003   2.225   5.868   7.124  0.3660  0.2760 -0.2105
   41CHL1    C1 3004   2.030   5.970   7.299  0.3121 -0.1317  0.2816
   41CHL1   H1A 3005   2.044   5.868   7.342 -2.2765  0.3459  2.5652
   41CHL1   H1B 3006   1.967   6.037   7.360  1.0113 -1.2220  2.2975
   41CHL1    C2 3007   1.954   5.938   7.164 -0.6945 -0.2093 -0.1177
   41CHL1   H2A 3008   1.847   5.922   7.192 -0.2129 -0.8953  1.4052
   41CHL1   H2B 3009   1.988   5.841   7.123  0.6176 -0.2412  1.0100
   41CHL1   C20 3010   2.543   6.113   7.887 -0.0612 -0.0372 -0.8893
   41CHL1   H20 3011   2.635   6.083   7.833  2.9619  3.0644  2.0457
   41CHL1   C21 3012   2.466   5.994   7.949 -0.2947  0.1149 -0.1036
   41CHL1  H21A 3013   2.528   5.952   8.031  1.2191 -0.0563 -1.2992
   41CHL1  H21B 3014   2.459   5.915   7.871  0.2173  0.5442 -0.5836
   41CHL1  H21C 3015   2.370   6.028   7.995  0.0986  1.1243  0.0014
   41CHL1   C22 3016   2.587   6.211   7.994 -0.4349 -0.5512 -0.1259
   41CHL1  H22A 3017   2.613   6.311   7.954 -1.2833 -0.6565 -0.9590
   41CHL1  H22B 3018   2.504   6.236   8.064 -0.1231  3.2876 -0.9014
   41CHL1   C23 3019   2.703   6.159   8.081  0.7548 -0.0998 -0.0648
   41CHL1  H23A 3020   2.733   6.061   8.037 -0.2264 -1.6091  2.3595
   41CHL1  H23B 3021   2.794   6.222   8.067  1.3006 -0.6057  1.0565
   41CHL1   C24 3022   2.661   6.137   8.230  0.3350 -0.2991  0.1780
   41CHL1  H24A 3023   2.640   6.235   8.277  1.3618 -0.8180  1.7977
   41CHL1  H24B 3024   2.561   6.088   8.224 -0.9009  2.1725 -0.9091
   41CHL1   C25 3025   2.775   6.050   8.293 -0.2936  0.2758  0.0750
   41CHL1   H25 3026   2.862   6.115   8.268  0.5216 -1.0042 -0.5188
   41CHL1   C26 3027   2.765   6.042   8.443  0.0200  0.4015 -0.2719
   41CHL1  H26A 3028   2.678   5.984   8.482  0.6304  0.0750  0.6382
   41CHL1  H26B 3029   2.859   5.996   8.479 -0.3449 -0.9811 -0.9956
   41CHL1  H26C 3030   2.756   6.143   8.488 -0.3950 -0.8243  2.6505
   41CHL1   C27 3031   2.786   5.904   8.234 -0.2253  0.3021 -0.2442
   41CHL1  H27A 3032   2.707   5.848   8.289  0.7842 -1.5306 -0.5635
   41CHL1  H27B 3033   2.767   5.892   8.126  1.6222  0.8089 -0.6714
   41CHL1  H27C 3034   2.889   5.865   8.249 -0.6520 -0.0347  2.2893
   42CHL1    C3 3035   6.056   3.441   6.866 -1.3079  0.5247  0.1039
   42CHL1    H3 3036   6.013   3.347   6.906  2.2216 -1.5806 -0.6738
   42CHL1    O3 3037   6.089   3.422   6.729 -0.0166  0.2924  0.2168
   42CHL1   H3' 3038   6.176   3.381   6.737 -0.2804 -0.2928  0.1015
   42CHL1    C4 3039   5.961   3.561   6.881 -0.2515 -0.4214  0.7379
   42CHL1   H4A 3040   6.010   3.638   6.817 -0.8282 -1.5896 -1.1939
   42CHL1   H4B 3041   5.866   3.534   6.830 -0.9115  0.8997  1.2318
   42CHL1    C5 3042   5.948   3.623   7.018 -0.2359  0.4010  0.0326
   42CHL1    C6 3043   5.828   3.641   7.069 -0.5432  0.4357  1.2682
   42CHL1    H6 3044   5.737   3.613   7.014  0.8275  0.0291 -0.8831
   42CHL1    C7 3045   5.799   3.696   7.199  0.2650  0.6598 -0.7093
   42CHL1   H7A 3046   5.710   3.760   7.211 -0.9663 -1.0304 -0.4462
   42CHL1   H7B 3047   5.769   3.616   7.270  1.0540 -0.0948 -1.2026
   42CHL1    C8 3048   5.922   3.761   7.263  0.1636 -0.1893 -0.5794
   42CHL1    H8 3049   5.945   3.855   7.209 -2.3253  1.4123  0.9416
   42CHL1   C14 3050   5.894   3.788   7.408  0.2063  0.6682  0.5153
   42CHL1   H14 3051   5.876   3.696   7.467 -0.2769 -0.0520 -0.7037
   42CHL1   C15 3052   5.761   3.879   7.434  0.3776  0.2011 -0.1246
   42CHL1  H15A 3053   5.759   3.976   7.380 -1.1019  0.6288  0.6476
   42CHL1  H15B 3054   5.666   3.825   7.419  0.5457  0.0802 -0.7617
   42CHL1   C16 3055   5.788   3.920   7.583  0.3507 -0.6046  0.6590
   42CHL1  H16A 3056   5.763   4.029   7.583 -3.4303 -1.2631 -2.0944
   42CHL1  H16B 3057   5.727   3.864   7.657  1.7715 -2.3866  0.5492
   42CHL1   C17 3058   5.935   3.883   7.608 -1.3009 -0.5808  0.0546
   42CHL1   H17 3059   5.923   3.787   7.664 -3.3387  1.1662  2.8712
   42CHL1   C13 3060   6.008   3.852   7.477 -0.6324 -0.0522 -0.0679
   42CHL1   C18 3061   6.050   3.986   7.412  0.0051  0.7004  0.3595
   42CHL1  H18A 3062   6.130   4.039   7.468 -0.3971 -0.7103  2.3651
   42CHL1  H18B 3063   6.091   3.968   7.310  1.3705 -0.3780  1.0629
   42CHL1  H18C 3064   5.965   4.057   7.402  2.1810  3.3465 -0.6893
   42CHL1   C12 3065   6.131   3.761   7.478 -0.4131  0.0856  0.4773
   42CHL1  H12A 3066   6.218   3.819   7.516  0.2397 -0.4698 -0.1293
   42CHL1  H12B 3067   6.111   3.673   7.544 -1.3003  0.7539  1.1291
   42CHL1   C11 3068   6.170   3.714   7.344 -0.5955 -0.3480  0.1865
   42CHL1  H11A 3069   6.213   3.795   7.282 -1.1277 -0.8065 -0.8235
   42CHL1  H11B 3070   6.255   3.642   7.346  0.9448  1.2641 -2.2781
   42CHL1    C9 3071   6.042   3.666   7.255  0.2781  0.2369 -0.0732
   42CHL1    H9 3072   6.023   3.570   7.306 -1.0722  0.5567  0.0668
   42CHL1   C10 3073   6.075   3.633   7.105 -0.1689  0.2674  0.6685
   42CHL1   C19 3074   6.161   3.749   7.042  0.2759 -0.3476 -0.6051
   42CHL1  H19A 3075   6.106   3.846   7.044  0.8420  0.0053  1.9558
   42CHL1  H19B 3076   6.265   3.757   7.079  0.1320  0.8403 -0.3984
   42CHL1  H19C 3077   6.177   3.726   6.935 -2.4458 -0.4939 -1.0474
   42CHL1    C1 3078   6.158   3.501   7.090  0.1584 -0.4007  0.2112
   42CHL1   H1A 3079   6.260   3.536   7.119  0.1129  1.5268 -1.7179
   42CHL1   H1B 3080   6.115   3.422   7.155 -0.9091  1.6640  2.1411
   42CHL1    C2 3081   6.186   3.461   6.946  0.1290  0.0481  0.0582
   42CHL1   H2A 3082   6.246   3.368   6.939  0.6267  0.4038 -0.4928
   42CHL1   H2B 3083   6.241   3.541   6.892 -1.8860  1.4192 -0.0953
   42CHL1   C20 3084   6.001   3.989   7.695 -0.2519  0.1553  0.2108
   42CHL1   H20 3085   6.009   4.083   7.637 -2.4706  0.5229  0.4085
   42CHL1   C21 3086   6.151   3.956   7.728 -0.5531 -0.1352 -0.5809
   42CHL1  H21A 3087   6.183   4.017   7.815  2.5140 -1.9459 -0.2801
   42CHL1  H21B 3088   6.217   3.982   7.642 -0.3813 -0.7193 -0.6295
   42CHL1  H21C 3089   6.161   3.847   7.748  2.3592  0.3129  1.0014
   42CHL1   C22 3090   5.931   4.023   7.834  0.0212  0.1781  0.2755
   42CHL1  H22A 3091   5.992   4.103   7.880  0.7875 -0.1144 -0.2181
   42CHL1  H22B 3092   5.829   4.064   7.817  0.4422  0.8337 -0.7304
   42CHL1   C23 3093   5.918   3.908   7.934 -1.0370 -0.5109  0.0984
   42CHL1  H23A 3094   5.872   3.816   7.891  0.8002 -2.0414  1.2907
   42CHL1  H23B 3095   6.021   3.880   7.964 -1.0380  1.0027  1.6571
   42CHL1   C24 3096   5.832   3.947   8.056  0.1090  0.8085  0.0706
   42CHL1  H24A 3097   5.892   4.024   8.109  1.7999 -0.7415  0.4704
   42CHL1  H24B 3098   5.737   3.998   8.030  0.6031  1.3885 -0.6379
   42CHL1   C25 3099   5.789   3.832   8.149  0.3547  0.0261 -0.0190
   42CHL1   H25 3100   5.774   3.885   8.245 -0.7862 -0.4550  0.0958
   42CHL1   C26 3101   5.651   3.773   8.111  0.7786  0.2327 -0.7912
   42CHL1  H26A 3102   5.575   3.853   8.114  0.0342 -0.4825  2.3321
   42CHL1  H26B 3103   5.665   3.741   8.005 -0.7840  0.4975 -1.0927
   42CHL1  H26C 3104   5.628   3.692   8.183 -0.7487  1.0835 -0.3019
   42CHL1   C27 3105   5.888   3.730   8.170  0.0301  0.5785 -0.5569
   42CHL1  H27A 3106   5.976   3.774   8.221 -0.5075 -1.0108  1.8806
   42CHL1  H27B 3107   5.923   3.677   8.079 -1.5267 -1.7196  0.0947
   42CHL1  H27C 3108   5.848   3.655   8.241  1.8571  0.1727  0.1009
   43CHL1    C3 3109   3.915   1.327   6.674 -0.0011  0.5079 -0.7717
   43CHL1    H3 3110   3.808   1.298   6.684  0.2024 -0.2882 -0.8063
   43CHL1    O3 3111   3.946   1.296   6.539  0.2791 -0.1056 -0.5257
   43CHL1   H3' 3112   4.036   1.326   6.524 -0.1287  2.0085  0.8456
   43CHL1    C4 3113   3.945   1.474   6.688 -0.3980  0.6201  1.0063
   43CHL1   H4A 3114   4.045   1.494   6.643 -1.6150  1.4093 -1.5404
   43CHL1   H4B 3115   3.891   1.541   6.617  0.9986  0.4527 -0.2752
   43CHL1    C5 3116   3.944   1.525   6.829 -0.0666  0.2497  0.5433
   43CHL1    C6 3117   3.856   1.613   6.872 -0.1465  0.1499  0.0420
   43CHL1    H6 3118   3.800   1.667   6.794 -0.4888 -1.3527 -0.7942
   43CHL1    C7 3119   3.847   1.661   7.015 -0.0491  0.2040  0.1402
   43CHL1   H7A 3120   3.851   1.771   7.030  2.5558  0.1032  0.7856
   43CHL1   H7B 3121   3.747   1.630   7.050  0.6865  0.3350  2.5581
   43CHL1    C8 3122   3.959   1.615   7.105 -0.4866 -0.2414 -0.4790
   43CHL1    H8 3123   4.046   1.682   7.089 -1.7736  1.2023 -1.8734
   43CHL1   C14 3124   3.914   1.631   7.255  0.0931 -0.1832 -0.0236
   43CHL1   H14 3125   3.819   1.575   7.270 -0.2971  0.4431 -0.1264
   43CHL1   C15 3126   3.890   1.777   7.300 -0.1809 -0.2792  0.0529
   43CHL1  H15A 3127   3.974   1.842   7.270  0.2168 -0.4825  0.6981
   43CHL1  H15B 3128   3.796   1.820   7.259 -0.1851 -0.4549 -0.1239
   43CHL1   C16 3129   3.885   1.763   7.449 -0.4158 -0.5054  0.8018
   43CHL1  H16A 3130   3.944   1.848   7.488 -1.7281  1.7797 -1.8409
   43CHL1  H16B 3131   3.776   1.773   7.471 -0.3547  2.7113  0.0705
   43CHL1   C17 3132   3.948   1.621   7.484  0.5209 -0.5573  0.4226
   43CHL1   H17 3133   3.854   1.566   7.504 -0.3585 -0.1840 -2.2537
   43CHL1   C13 3134   4.019   1.580   7.355 -0.3730  0.0541  0.4970
   43CHL1   C18 3135   4.155   1.650   7.337 -0.5485  0.0120  0.1337
   43CHL1  H18A 3136   4.149   1.747   7.392 -1.2136 -0.5173  1.0329
   43CHL1  H18B 3137   4.232   1.582   7.380 -2.3523 -2.2978 -0.1578
   43CHL1  H18C 3138   4.185   1.657   7.230  0.2582  0.8139  0.3911
   43CHL1   C12 3139   4.033   1.429   7.324  0.1784 -0.4973 -0.4095
   43CHL1  H12A 3140   4.116   1.392   7.387 -0.7454 -0.4441  0.8782
   43CHL1  H12B 3141   3.935   1.383   7.352  0.6200 -1.5213 -0.5188
   43CHL1   C11 3142   4.082   1.399   7.183  0.0218 -0.4528  0.3577
   43CHL1  H11A 3143   4.184   1.443   7.184 -0.0114 -0.3402  2.3547
   43CHL1  H11B 3144   4.077   1.290   7.162  1.8225  0.2041 -4.9048
   43CHL1    C9 3145   3.996   1.469   7.069 -0.0468 -1.2897 -0.6020
   43CHL1    H9 3146   3.902   1.416   7.096  0.7273 -1.6033  1.7142
   43CHL1   C10 3147   4.025   1.443   6.926 -0.0055 -0.2592 -0.3057
   43CHL1   C19 3148   4.171   1.495   6.915 -0.7611 -0.0452 -0.4632
   43CHL1  H19A 3149   4.199   1.502   6.808 -1.2619 -0.5351 -0.6260
   43CHL1  H19B 3150   4.197   1.589   6.969  0.4774 -0.5488 -0.1533
   43CHL1  H19C 3151   4.246   1.421   6.951  1.8253  1.5253 -2.2309
   43CHL1    C1 3152   4.023   1.290   6.902 -0.4550  0.5247 -0.0178
   43CHL1   H1A 3153   4.117   1.243   6.937  1.0588  3.0995 -0.3894
   43CHL1   H1B 3154   3.936   1.246   6.955 -0.0299 -0.6568 -0.2567
   43CHL1    C2 3155   4.017   1.246   6.753 -0.0177 -0.2068 -0.3350
   43CHL1   H2A 3156   4.005   1.136   6.744 -0.5135 -0.2879  1.0143
   43CHL1   H2B 3157   4.116   1.269   6.710  0.4974 -1.2699  0.2433
   43CHL1   C20 3158   4.034   1.621   7.606  0.7703  0.4473  0.3042
   43CHL1   H20 3159   4.117   1.694   7.598  0.3989  1.0706  1.8901
   43CHL1   C21 3160   4.110   1.490   7.634 -0.0605  0.2760  0.5228
   43CHL1  H21A 3161   4.146   1.477   7.738 -0.0645  0.2396  0.5195
   43CHL1  H21B 3162   4.205   1.479   7.577  0.0078 -1.0006  0.8586
   43CHL1  H21C 3163   4.041   1.403   7.628 -0.8123  0.9845 -2.6110
   43CHL1   C22 3164   3.946   1.661   7.734 -1.0067  0.0930  0.1485
   43CHL1  H22A 3165   3.875   1.739   7.700  1.0846  1.4831 -1.2620
   43CHL1  H22B 3166   3.886   1.568   7.747  1.2001 -1.9829 -2.9885
   43CHL1   C23 3167   4.036   1.686   7.861 -0.4913 -0.3911 -0.2523
   43CHL1  H23A 3168   4.093   1.594   7.883 -1.5404 -1.2857 -1.1938
   43CHL1  H23B 3169   4.093   1.779   7.840 -2.6379  1.4365  1.4476
   43CHL1   C24 3170   3.954   1.719   7.990  0.2835 -0.3476 -0.0746
   43CHL1  H24A 3171   3.906   1.819   7.981  0.6165 -0.1200  0.6418
   43CHL1  H24B 3172   3.872   1.652   8.024  0.1095  1.0651  2.5055
   43CHL1   C25 3173   4.047   1.730   8.114 -0.4948 -0.0333 -0.1662
   43CHL1   H25 3174   4.148   1.739   8.069 -1.4239  1.3916 -2.0864
   43CHL1   C26 3175   4.016   1.850   8.204 -0.2976  0.8624 -0.1685
   43CHL1  H26A 3176   3.922   1.853   8.263  0.7473  0.8496  1.5571
   43CHL1  H26B 3177   4.088   1.858   8.288 -0.5599  0.8816  0.0570
   43CHL1  H26C 3178   4.024   1.942   8.142 -2.2971  2.1954  1.4106
   43CHL1   C27 3179   4.044   1.601   8.201 -0.2627 -0.2984 -0.0801
   43CHL1  H27A 3180   4.124   1.600   8.279 -1.6854 -0.0179  1.4350
   43CHL1  H27B 3181   3.951   1.593   8.261  0.4058 -0.8706  0.9125
   43CHL1  H27C 3182   4.059   1.509   8.141 -1.4341 -0.2643 -0.4435
   44CHL1    C3 3183   4.739   0.630   6.680  0.1088 -0.2574  0.0317
   44CHL1    H3 3184   4.810   0.544   6.681  0.3651 -0.0557 -0.4473
   44CHL1    O3 3185   4.693   0.653   6.548 -0.2427 -0.5233  0.8403
   44CHL1   H3' 3186   4.676   0.563   6.520  0.0091 -0.0573 -0.9030
   44CHL1    C4 3187   4.611   0.599   6.759 -0.0071 -0.6364 -0.8521
   44CHL1   H4A 3188   4.530   0.672   6.738 -0.6807 -0.6005  1.4953
   44CHL1   H4B 3189   4.574   0.499   6.726 -2.4457 -0.7751  1.8343
   44CHL1    C5 3190   4.640   0.586   6.912  0.8945  0.7255  0.3139
   44CHL1    C6 3191   4.618   0.467   6.982  0.4993  0.5829 -0.4927
   44CHL1    H6 3192   4.570   0.379   6.937  1.7725 -0.7223  0.5877
   44CHL1    C7 3193   4.652   0.451   7.130 -0.1003  0.0205 -0.7584
   44CHL1   H7A 3194   4.580   0.388   7.187  0.6699  0.8662  1.2308
   44CHL1   H7B 3195   4.743   0.389   7.135  0.1384  0.3566 -0.8966
   44CHL1    C8 3196   4.682   0.576   7.206 -0.3331  0.7070 -0.5623
   44CHL1    H8 3197   4.590   0.635   7.222 -1.9629 -1.9688  0.7739
   44CHL1   C14 3198   4.737   0.541   7.353 -0.1367 -0.2622  0.0616
   44CHL1   H14 3199   4.832   0.487   7.332  0.7231  1.2367 -0.1091
   44CHL1   C15 3200   4.658   0.446   7.444 -0.6712 -0.4893  0.0748
   44CHL1  H15A 3201   4.553   0.480   7.433 -0.1507  0.6366 -1.9313
   44CHL1  H15B 3202   4.660   0.335   7.441 -0.9057 -0.5011  0.2637
   44CHL1   C16 3203   4.724   0.482   7.584 -1.0267  0.4161  0.4398
   44CHL1  H16A 3204   4.633   0.515   7.639 -2.8139 -0.1256 -2.0260
   44CHL1  H16B 3205   4.758   0.388   7.632  1.1334  0.9205  0.0085
   44CHL1   C17 3206   4.816   0.604   7.576  0.0848  0.0288  0.0299
   44CHL1   H17 3207   4.918   0.561   7.563 -0.1816 -0.0920 -2.1261
   44CHL1   C13 3208   4.776   0.656   7.434 -0.3111  0.1149 -0.7298
   44CHL1   C18 3209   4.664   0.762   7.460  0.9850 -0.3437 -0.3668
   44CHL1  H18A 3210   4.696   0.865   7.485  0.0231 -0.7256  2.9521
   44CHL1  H18B 3211   4.595   0.786   7.376 -1.3133  0.0208  1.5017
   44CHL1  H18C 3212   4.603   0.731   7.548  1.0027  1.4830  0.3314
   44CHL1   C12 3213   4.882   0.731   7.350  0.8139 -0.2036 -0.2706
   44CHL1  H12A 3214   4.901   0.830   7.398  0.5146 -1.4767  2.6653
   44CHL1  H12B 3215   4.977   0.676   7.334  2.5168  2.3269  0.4325
   44CHL1   C11 3216   4.830   0.779   7.211 -0.0147  0.0589 -0.6070
   44CHL1  H11A 3217   4.749   0.852   7.230  0.6375  0.1493  2.2906
   44CHL1  H11B 3218   4.910   0.836   7.161  0.4997 -0.1399 -0.0287
   44CHL1    C9 3219   4.780   0.663   7.120  0.4620 -0.3078 -0.2526
   44CHL1    H9 3220   4.874   0.607   7.103  0.0078 -1.6945  1.5913
   44CHL1   C10 3221   4.716   0.700   6.981 -0.1488 -1.0193  0.9466
   44CHL1   C19 3222   4.620   0.822   6.999  0.2063 -0.6077 -0.4970
   44CHL1  H19A 3223   4.664   0.912   7.046 -0.5112 -0.0073 -0.9446
   44CHL1  H19B 3224   4.600   0.854   6.894 -0.1783 -1.2254 -0.6167
   44CHL1  H19C 3225   4.523   0.799   7.048 -1.3933 -0.1146 -3.2002
   44CHL1    C1 3226   4.833   0.746   6.888 -0.9746 -0.8495 -0.1262
   44CHL1   H1A 3227   4.868   0.847   6.917  1.6331 -1.0142 -2.2758
   44CHL1   H1B 3228   4.914   0.670   6.892  0.8371  1.0632  1.1763
   44CHL1    C2 3229   4.806   0.757   6.732 -0.4335  0.2342 -0.2039
   44CHL1   H2A 3230   4.897   0.778   6.671  0.4889  1.4801  1.5158
   44CHL1   H2B 3231   4.750   0.852   6.717 -0.3628  0.4397  0.7670
   44CHL1   C20 3232   4.814   0.692   7.697 -0.0893 -0.7720  0.1359
   44CHL1   H20 3233   4.716   0.742   7.704  0.7306  1.1703 -1.4195
   44CHL1   C21 3234   4.931   0.801   7.692  0.6374 -0.3443  0.1782
   44CHL1  H21A 3235   4.931   0.846   7.794  0.7929 -1.7539  0.8271
   44CHL1  H21B 3236   4.919   0.888   7.624  0.9307 -0.1277  0.3984
   44CHL1  H21C 3237   5.029   0.751   7.675  0.8898 -0.8019  2.5941
   44CHL1   C22 3238   4.820   0.614   7.834 -0.1173 -0.8986  0.2276
   44CHL1  H22A 3239   4.733   0.546   7.842 -1.3018  0.4565 -0.7146
   44CHL1  H22B 3240   4.915   0.555   7.827  0.0259 -0.6215 -0.2327
   44CHL1   C23 3241   4.815   0.699   7.963  0.6609 -0.0830  0.5132
   44CHL1  H23A 3242   4.886   0.785   7.967  0.2497  0.3761 -1.1797
   44CHL1  H23B 3243   4.716   0.748   7.978  0.6633 -0.6492  2.7286
   44CHL1   C24 3244   4.840   0.612   8.084 -0.1529 -0.8370 -0.8717
   44CHL1  H24A 3245   4.783   0.517   8.071  1.7004 -1.8195 -2.2482
   44CHL1  H24B 3246   4.943   0.573   8.078 -0.3773 -1.8519  1.0656
   44CHL1   C25 3247   4.830   0.680   8.219 -0.3383 -0.4295 -0.5226
   44CHL1   H25 3248   4.729   0.725   8.227 -0.2052 -0.1971 -0.1212
   44CHL1   C26 3249   4.860   0.567   8.328  0.4676 -0.9630  0.2341
   44CHL1  H26A 3250   4.776   0.494   8.327  0.4476 -0.9895  1.7077
   44CHL1  H26B 3251   4.959   0.534   8.292  0.8643  1.1734 -0.8196
   44CHL1  H26C 3252   4.879   0.605   8.431 -0.5428  0.7575 -0.1606
   44CHL1   C27 3253   4.929   0.793   8.239 -0.3610  0.1648 -0.6227
   44CHL1  H27A 3254   4.914   0.848   8.334 -0.0585 -0.9325  0.0708
   44CHL1  H27B 3255   5.033   0.755   8.231 -0.0256  0.9320 -0.0530
   44CHL1  H27C 3256   4.918   0.876   8.165 -0.2059  0.4821 -0.2937
   45CHL1    C3 3257   2.224   4.800   6.672 -0.4097 -0.0839  0.0226
   45CHL1    H3 3258   2.247   4.889   6.734  0.5875 -0.6111  0.4276
   45CHL1    O3 3259   2.244   4.817   6.535 -0.0004  0.3207 -0.1429
   45CHL1   H3' 3260   2.247   4.731   6.492 -0.1628  1.2227 -2.0924
   45CHL1    C4 3261   2.318   4.686   6.712  0.2761 -0.6640 -0.0857
   45CHL1   H4A 3262   2.316   4.596   6.647 -0.7367 -2.5018  2.3376
   45CHL1   H4B 3263   2.424   4.719   6.701  0.9258 -2.0652  1.6031
   45CHL1    C5 3264   2.291   4.642   6.854 -0.0400  0.2588  0.6624
   45CHL1    C6 3265   2.394   4.643   6.941  0.8082  0.2359 -0.4734
   45CHL1    H6 3266   2.492   4.676   6.903  0.4827  2.0430  0.1422
   45CHL1    C7 3267   2.369   4.595   7.085 -0.4894 -0.3108  0.0777
   45CHL1   H7A 3268   2.449   4.518   7.098  1.5247  1.3155 -1.7430
   45CHL1   H7B 3269   2.382   4.677   7.158 -2.9232  0.0413  0.1750
   45CHL1    C8 3270   2.234   4.528   7.115 -0.3046 -0.0471  0.1493
   45CHL1    H8 3271   2.255   4.428   7.071 -1.9020 -0.9286  1.2672
   45CHL1   C14 3272   2.202   4.525   7.265 -0.2211 -0.0074  0.2115
   45CHL1   H14 3273   2.189   4.631   7.298  0.3516  0.4632 -1.0080
   45CHL1   C15 3274   2.312   4.469   7.350  0.1885 -0.5893  0.0508
   45CHL1  H15A 3275   2.350   4.373   7.310  1.1318 -0.4861  0.6691
   45CHL1  H15B 3276   2.403   4.531   7.362 -0.5695  0.4668  0.4490
   45CHL1   C16 3277   2.238   4.441   7.484  0.2622  0.2111  0.1583
   45CHL1  H16A 3278   2.254   4.337   7.519 -1.4794 -0.2204 -0.2300
   45CHL1  H16B 3279   2.262   4.514   7.564  1.5307 -1.3625  1.2660
   45CHL1   C17 3280   2.086   4.460   7.450 -0.1441  0.3817  0.0078
   45CHL1   H17 3281   2.060   4.565   7.477 -1.5488  0.3944 -1.2683
   45CHL1   C13 3282   2.072   4.447   7.300 -0.4107  0.0926  0.2067
   45CHL1   C18 3283   2.082   4.300   7.251 -0.3802 -0.1196  0.4215
   45CHL1  H18A 3284   1.989   4.241   7.269  0.2728 -0.7961  1.7771
   45CHL1  H18B 3285   2.126   4.282   7.151  2.3324  0.7275  1.3836
   45CHL1  H18C 3286   2.156   4.252   7.318 -2.1970 -1.9156  1.2810
   45CHL1   C12 3287   1.958   4.516   7.227  0.4685  0.4321  0.1831
   45CHL1  H12A 3288   1.862   4.468   7.254  1.4110 -1.0419  1.0663
   45CHL1  H12B 3289   1.959   4.621   7.264 -1.6347  0.4299  0.3148
   45CHL1   C11 3290   1.980   4.523   7.077 -0.1592 -0.9143  0.4823
   45CHL1  H11A 3291   1.965   4.418   7.042  1.5470 -0.8444 -0.5560
   45CHL1  H11B 3292   1.899   4.586   7.033 -0.2561  0.0157  1.9334
   45CHL1    C9 3293   2.119   4.595   7.039  0.4565  0.3971 -0.0312
   45CHL1    H9 3294   2.106   4.697   7.082  3.4272  0.4626  0.9838
   45CHL1   C10 3295   2.148   4.592   6.890 -0.4482 -0.6057 -0.2769
   45CHL1   C19 3296   2.117   4.451   6.831  0.5249 -0.7601 -0.3328
   45CHL1  H19A 3297   2.151   4.434   6.727 -1.0664 -5.8530 -0.2634
   45CHL1  H19B 3298   2.164   4.374   6.895 -1.3874  0.2767  2.5267
   45CHL1  H19C 3299   2.008   4.435   6.825  0.2838  0.3035  0.7052
   45CHL1    C1 3300   2.046   4.693   6.828  0.4186 -0.8137 -0.2438
   45CHL1   H1A 3301   1.949   4.639   6.838  0.5041 -0.7100  1.2873
   45CHL1   H1B 3302   2.046   4.781   6.895  2.0997 -1.3096  0.4431
   45CHL1    C2 3303   2.081   4.750   6.688  0.4679 -0.3470 -0.2288
   45CHL1   H2A 3304   2.007   4.826   6.657  1.6844  0.0379 -2.4276
   45CHL1   H2B 3305   2.055   4.659   6.629 -1.3502 -0.9832  1.4424
   45CHL1   C20 3306   1.998   4.360   7.533  0.3079  0.1707 -0.0547
   45CHL1   H20 3307   2.016   4.255   7.499  0.0675 -0.0609  0.5162
   45CHL1   C21 3308   1.849   4.379   7.499 -0.3918 -0.1037 -0.4305
   45CHL1  H21A 3309   1.794   4.359   7.593 -0.3628 -2.0783 -0.7806
   45CHL1  H21B 3310   1.806   4.308   7.425 -0.3542 -1.1341  0.5001
   45CHL1  H21C 3311   1.835   4.483   7.463  1.2296  0.3069  0.0305
   45CHL1   C22 3312   2.037   4.355   7.683 -0.3625  0.0341  0.0045
   45CHL1  H22A 3313   1.968   4.284   7.733 -0.5093 -1.7238 -2.4772
   45CHL1  H22B 3314   2.140   4.313   7.689  0.1151  1.3446  1.4858
   45CHL1   C23 3315   2.030   4.482   7.771  0.2814  0.4035 -0.2938
   45CHL1  H23A 3316   2.072   4.562   7.706  0.4923  0.8503  0.3845
   45CHL1  H23B 3317   1.924   4.503   7.798  1.0492  1.2761  2.3126
   45CHL1   C24 3318   2.104   4.462   7.905 -0.4027  0.1267  0.1388
   45CHL1  H24A 3319   2.207   4.423   7.890 -1.0990 -1.3680 -0.9921
   45CHL1  H24B 3320   2.098   4.565   7.947  0.3508  1.0303 -1.8492
   45CHL1   C25 3321   2.019   4.356   7.986 -0.1770  0.7269 -0.1767
   45CHL1   H25 3322   1.998   4.265   7.926  2.5383 -0.7284  0.8856
   45CHL1   C26 3323   2.093   4.312   8.112  0.4702 -0.4240  0.0775
   45CHL1  H26A 3324   2.026   4.253   8.179 -0.5443  0.8251  0.1915
   45CHL1  H26B 3325   2.184   4.254   8.084 -0.2878 -1.6145  0.0032
   45CHL1  H26C 3326   2.128   4.401   8.170  2.3400 -0.6388 -0.6641
   45CHL1   C27 3327   1.884   4.411   8.035  0.0543  0.0696 -0.5166
   45CHL1  H27A 3328   1.817   4.334   8.078  0.7766 -0.4144 -0.2301
   45CHL1  H27B 3329   1.904   4.473   8.125 -1.7396 -0.8694  0.5981
   45CHL1  H27C 3330   1.828   4.464   7.955  0.2918  0.0780 -0.6824
   46CHL1    C3 3331   1.163   4.747   6.768  0.0638 -0.4122 -0.7909
   46CHL1    H3 3332   1.100   4.657   6.752 -1.3645  0.4016  0.0511
   46CHL1    O3 3333   1.235   4.748   6.645 -0.1943  0.0223  0.3018
   46CHL1   H3' 3334   1.173   4.783   6.580  0.2357  1.9061  0.8290
   46CHL1    C4 3335   1.080   4.872   6.788 -0.1901  0.8290  0.5563
   46CHL1   H4A 3336   1.141   4.965   6.778 -1.0339  1.3499  0.1245
   46CHL1   H4B 3337   1.003   4.866   6.708  1.5884  2.3312 -1.3926
   46CHL1    C5 3338   1.018   4.869   6.926  0.0531 -1.1349 -0.1264
   46CHL1    C6 3339   0.882   4.889   6.945  0.7119 -0.9372 -0.2626
   46CHL1    H6 3340   0.801   4.889   6.870 -0.9519 -0.2710  1.4396
   46CHL1    C7 3341   0.822   4.907   7.086  0.1236 -0.0995 -0.7493
   46CHL1   H7A 3342   0.749   4.990   7.096 -1.0390 -1.2114  0.5889
   46CHL1   H7B 3343   0.777   4.816   7.132  0.0051  0.8565  1.1522
   46CHL1    C8 3344   0.922   4.959   7.190  0.7634  0.0198  0.0401
   46CHL1    H8 3345   0.938   5.066   7.165  1.4900 -0.0209  0.2992
   46CHL1   C14 3346   0.862   4.944   7.338 -0.5597  0.0442  0.1088
   46CHL1   H14 3347   0.835   4.837   7.336 -1.0792  0.1764 -0.1213
   46CHL1   C15 3348   0.728   5.012   7.376 -0.5381 -0.0490 -0.8825
   46CHL1  H15A 3349   0.736   5.116   7.337  0.1437 -0.3217 -1.5031
   46CHL1  H15B 3350   0.642   4.960   7.329 -0.1324 -1.1504 -0.4437
   46CHL1   C16 3351   0.725   5.015   7.530 -0.1378  0.8628  0.0672
   46CHL1  H16A 3352   0.710   5.117   7.573  1.9740  0.3521  2.2291
   46CHL1  H16B 3353   0.642   4.960   7.580 -0.2337  1.1954  0.2796
   46CHL1   C17 3354   0.853   4.942   7.576  0.3647 -0.3675 -0.4442
   46CHL1   H17 3355   0.818   4.837   7.573 -0.7971 -0.0368  0.6601
   46CHL1   C13 3356   0.953   4.955   7.453 -0.9311 -0.3933  0.7107
   46CHL1   C18 3357   1.015   5.102   7.458  0.5008  0.2439  1.0827
   46CHL1  H18A 3358   1.100   5.107   7.529  0.0293 -0.5146  1.7255
   46CHL1  H18B 3359   1.058   5.141   7.363  0.7199 -0.6880  0.7832
   46CHL1  H18C 3360   0.933   5.164   7.500 -1.6218 -2.0471  0.5904
   46CHL1   C12 3361   1.074   4.857   7.443 -0.1792 -0.0743 -0.0288
   46CHL1  H12A 3362   1.143   4.856   7.530 -2.7649 -1.4701  2.1434
   46CHL1  H12B 3363   1.020   4.760   7.448 -0.1485 -0.2613 -2.3939
   46CHL1   C11 3364   1.138   4.874   7.306 -0.7005  0.0185 -0.3953
   46CHL1  H11A 3365   1.190   4.972   7.303 -0.1036 -0.2814 -0.0686
   46CHL1  H11B 3366   1.210   4.790   7.295  0.6448  0.7638  1.8733
   46CHL1    C9 3367   1.041   4.863   7.180 -0.1477 -0.1862  0.9515
   46CHL1    H9 3368   1.008   4.757   7.193 -1.5679  0.1686  0.4362
   46CHL1   C10 3369   1.117   4.864   7.041  0.7845  0.0173 -0.8054
   46CHL1   C19 3370   1.204   4.989   7.028 -0.5888 -0.3104  0.2315
   46CHL1  H19A 3371   1.259   5.000   6.932 -0.1777 -0.4192  0.4539
   46CHL1  H19B 3372   1.148   5.083   7.049  0.6351  0.6604 -0.7226
   46CHL1  H19C 3373   1.277   4.985   7.111 -2.1930 -1.5250  1.6724
   46CHL1    C1 3374   1.203   4.741   7.022 -0.4363  0.4983 -0.1929
   46CHL1   H1A 3375   1.289   4.739   7.092 -0.3257 -0.0739 -0.3458
   46CHL1   H1B 3376   1.139   4.654   7.049 -0.6930  0.6174 -0.4138
   46CHL1    C2 3377   1.259   4.718   6.881  0.4362 -0.3084  0.2669
   46CHL1   H2A 3378   1.306   4.619   6.858 -0.8262 -0.7719 -0.4062
   46CHL1   H2B 3379   1.326   4.806   6.870 -1.7266  1.5936  1.5420
   46CHL1   C20 3380   0.914   4.971   7.713  0.7113  0.4560 -0.6421
   46CHL1   H20 3381   0.984   5.056   7.700  0.5731  0.5889 -0.5254
   46CHL1   C21 3382   0.980   4.845   7.774  0.0609  0.2916  0.5042
   46CHL1  H21A 3383   1.083   4.849   7.734  0.1330  2.4330  0.7759
   46CHL1  H21B 3384   0.924   4.758   7.734 -0.9879  0.1966  2.0831
   46CHL1  H21C 3385   0.981   4.846   7.885 -3.8063  2.7059  0.7369
   46CHL1   C22 3386   0.804   5.018   7.817 -0.3306 -0.3328  0.4855
   46CHL1  H22A 3387   0.748   5.101   7.771 -0.5867 -1.1126 -0.6430
   46CHL1  H22B 3388   0.738   4.931   7.837  0.0922 -0.6032  0.7362
   46CHL1   C23 3389   0.855   5.069   7.951  0.0696  0.6112  0.0289
   46CHL1  H23A 3390   0.874   4.989   8.025 -1.5363  0.3438  0.2012
   46CHL1  H23B 3391   0.951   5.120   7.932 -1.1326  2.5294 -1.2724
   46CHL1   C24 3392   0.754   5.164   8.023 -0.4110  0.0160  0.0496
   46CHL1  H24A 3393   0.825   5.218   8.090  2.6459 -3.4200 -0.0691
   46CHL1  H24B 3394   0.730   5.241   7.947 -2.2872 -0.8052 -0.2626
   46CHL1   C25 3395   0.633   5.102   8.091  0.8183  1.4207 -0.5386
   46CHL1   H25 3396   0.667   5.001   8.123  0.7298  0.7868 -2.3426
   46CHL1   C26 3397   0.586   5.167   8.220 -0.3194 -0.0901  0.6293
   46CHL1  H26A 3398   0.558   5.273   8.204  3.1342  0.9958  1.0484
   46CHL1  H26B 3399   0.505   5.107   8.268  0.1443 -2.2230 -1.0886
   46CHL1  H26C 3400   0.662   5.177   8.301  2.5524  0.0746 -1.9168
   46CHL1   C27 3401   0.507   5.083   8.000  0.5307 -0.0810 -0.0018
   46CHL1  H27A 3402   0.521   5.007   7.920 -0.3055 -1.1108  0.8118
   46CHL1  H27B 3403   0.412   5.053   8.049  0.5155  0.3285  0.2246
   46CHL1  H27C 3404   0.488   5.180   7.948  2.7312  2.0424  2.8249
   47CHL1    C3 3405   5.228   6.016   6.749 -0.1619 -0.2478  0.9527
   47CHL1    H3 3406   5.260   5.912   6.771  0.5586 -0.6957 -1.8349
   47CHL1    O3 3407   5.220   6.040   6.605  0.0302  0.2292  0.0652
   47CHL1   H3' 3408   5.201   6.133   6.587 -2.3212 -0.1362  0.2913
   47CHL1    C4 3409   5.088   6.044   6.811 -0.0643 -0.1749 -0.5360
   47CHL1   H4A 3410   5.065   6.149   6.784  0.1610 -0.1222 -0.5264
   47CHL1   H4B 3411   5.004   5.984   6.770  1.2350 -4.0595  1.9278
   47CHL1    C5 3412   5.083   6.024   6.963 -0.1068 -0.5975  0.3511
   47CHL1    C6 3413   4.994   5.949   7.025 -0.3868 -0.0567  0.1677
   47CHL1    H6 3414   4.919   5.898   6.962 -2.1441  2.7056 -0.1413
   47CHL1    C7 3415   4.971   5.953   7.178  0.3070  0.2152 -0.4985
   47CHL1   H7A 3416   4.862   5.968   7.193 -0.4583 -2.6048 -2.4133
   47CHL1   H7B 3417   4.981   5.853   7.225 -0.6334 -0.0562 -0.8500
   47CHL1    C8 3418   5.065   6.058   7.258 -0.2351  0.0666  0.3573
   47CHL1    H8 3419   5.015   6.156   7.247  0.3323  0.3134 -0.1623
   47CHL1   C14 3420   5.082   6.012   7.400 -0.1236 -0.4188 -0.2245
   47CHL1   H14 3421   5.128   5.912   7.394 -0.1923 -0.4788  0.1913
   47CHL1   C15 3422   4.955   5.983   7.477  0.1510  0.1652 -0.0660
   47CHL1  H15A 3423   4.879   6.061   7.456 -1.6408 -2.3787 -4.3112
   47CHL1  H15B 3424   4.916   5.885   7.442  1.6640 -0.7271  0.6494
   47CHL1   C16 3425   4.995   5.989   7.618  0.5930  0.7144 -0.4872
   47CHL1  H16A 3426   4.935   6.068   7.668  1.5430 -0.3845  2.5896
   47CHL1  H16B 3427   4.973   5.898   7.677 -2.1344  1.8061  0.3355
   47CHL1   C17 3428   5.148   6.033   7.622  0.3379 -0.2104  0.5810
   47CHL1   H17 3429   5.212   5.943   7.637 -1.3056 -1.6698 -0.6860
   47CHL1   C13 3430   5.171   6.102   7.488  0.7884  0.1691 -0.0159
   47CHL1   C18 3431   5.103   6.244   7.496  0.0095 -0.4251  0.1362
   47CHL1  H18A 3432   5.008   6.251   7.554 -0.7163  1.7257 -1.1624
   47CHL1  H18B 3433   5.179   6.310   7.542  0.7037 -0.9403 -0.2577
   47CHL1  H18C 3434   5.072   6.281   7.396 -1.3940 -0.5494  0.5016
   47CHL1   C12 3435   5.307   6.109   7.428 -0.0577 -0.7022  1.1788
   47CHL1  H12A 3436   5.362   6.184   7.487 -0.4683  2.1885 -1.8048
   47CHL1  H12B 3437   5.355   6.009   7.435  0.6228 -0.5068 -0.2293
   47CHL1   C11 3438   5.296   6.147   7.275  0.2991  0.2919 -0.6057
   47CHL1  H11A 3439   5.265   6.253   7.269 -0.6007  0.2136  1.5561
   47CHL1  H11B 3440   5.401   6.143   7.238 -0.2398 -0.1411 -2.1554
   47CHL1    C9 3441   5.201   6.063   7.188  0.0187 -0.9111 -0.1849
   47CHL1    H9 3442   5.244   5.960   7.186  4.1665  0.5956  0.7389
   47CHL1   C10 3443   5.186   6.114   7.039 -0.1453  0.4478 -0.2139
   47CHL1   C19 3444   5.135   6.257   7.028  0.4852 -0.2973  1.1013
   47CHL1  H19A 3445   5.210   6.327   7.070  1.6814 -1.7642  1.4917
   47CHL1  H19B 3446   5.124   6.270   6.918 -1.6007 -3.0635  0.8756
   47CHL1  H19C 3447   5.036   6.274   7.074  0.7592  1.3116  1.1361
   47CHL1    C1 3448   5.322   6.096   6.968 -0.1210 -0.1367  0.2335
   47CHL1   H1A 3449   5.378   6.181   7.011 -0.3747 -0.1385  0.5801
   47CHL1   H1B 3450   5.373   6.004   7.005 -3.0971 -1.1950  2.1084
   47CHL1    C2 3451   5.330   6.111   6.816 -0.8056  0.6023 -0.2393
   47CHL1   H2A 3452   5.430   6.097   6.771 -1.1688 -0.8981 -0.6375
   47CHL1   H2B 3453   5.304   6.217   6.793  2.3114  1.0040 -2.4101
   47CHL1   C20 3454   5.183   6.103   7.756 -0.9509  0.2517 -0.2510
   47CHL1   H20 3455   5.143   6.207   7.757 -1.2415  0.1651 -1.3405
   47CHL1   C21 3456   5.340   6.119   7.757  0.2135 -0.6072  0.2242
   47CHL1  H21A 3457   5.383   6.024   7.718  0.7519 -0.3587  0.2050
   47CHL1  H21B 3458   5.380   6.128   7.860  1.3036  0.3797 -0.2563
   47CHL1  H21C 3459   5.380   6.200   7.691 -0.8805  0.2887  0.6308
   47CHL1   C22 3460   5.137   6.028   7.880 -0.1529  0.1757  0.2581
   47CHL1  H22A 3461   5.029   6.007   7.864  0.2609 -0.2966 -2.3995
   47CHL1  H22B 3462   5.183   5.929   7.899  0.9241  0.5605 -0.2749
   47CHL1   C23 3463   5.146   6.107   8.011 -0.0646 -0.8485 -0.3712
   47CHL1  H23A 3464   5.241   6.084   8.064  0.8346  3.3986  0.2321
   47CHL1  H23B 3465   5.153   6.213   7.978 -2.7705 -0.9722 -1.5735
   47CHL1   C24 3466   5.020   6.094   8.100 -0.9247 -0.1807 -0.0038
   47CHL1  H24A 3467   4.929   6.129   8.046 -0.4188 -0.1172 -0.8393
   47CHL1  H24B 3468   5.003   5.988   8.127  0.9850 -0.9987 -1.7642
   47CHL1   C25 3469   5.023   6.183   8.226 -0.2891  0.5761  0.2606
   47CHL1   H25 3470   5.018   6.291   8.202  0.6406  0.6577  0.4100
   47CHL1   C26 3471   4.897   6.160   8.300  0.4465 -0.9665 -0.0832
   47CHL1  H26A 3472   4.904   6.223   8.391 -1.8422  0.8257 -1.0368
   47CHL1  H26B 3473   4.810   6.209   8.252  0.7675 -0.2302  0.0812
   47CHL1  H26C 3474   4.883   6.057   8.341 -1.2040  0.0026  1.9897
   47CHL1   C27 3475   5.144   6.160   8.310  0.8383  0.9971 -0.6463
   47CHL1  H27A 3476   5.170   6.052   8.322  1.4347  1.4080  2.4934
   47CHL1  H27B 3477   5.231   6.219   8.275  0.3215  2.2578  0.1287
   47CHL1  H27C 3478   5.126   6.188   8.416 -1.7142 -0.5349 -0.5778
   48CHL1    C3 3479   3.463   1.706   6.474 -0.2480  0.0564  0.2471
   48CHL1    H3 3480   3.363   1.659   6.475  1.6267 -4.4011  1.4627
   48CHL1    O3 3481   3.519   1.686   6.343 -0.0530  0.2977 -0.1968
   48CHL1   H3' 3482   3.458   1.623   6.303  0.7479  0.0065 -0.9937
   48CHL1    C4 3483   3.443   1.855   6.498 -0.2804  0.2571 -0.6217
   48CHL1   H4A 3484   3.536   1.908   6.466 -0.8245 -0.0840 -2.8938
   48CHL1   H4B 3485   3.361   1.896   6.436 -0.6420  2.1676  1.0136
   48CHL1    C5 3486   3.415   1.891   6.649 -0.2034 -0.7286  1.1520
   48CHL1    C6 3487   3.309   1.967   6.676 -0.0853  0.0225  0.0094
   48CHL1    H6 3488   3.240   1.998   6.596 -1.7311  0.4824  1.5375
   48CHL1    C7 3489   3.267   2.007   6.818  0.3470  0.1945 -0.4763
   48CHL1   H7A 3490   3.250   2.117   6.815  1.7723  0.4819  0.7335
   48CHL1   H7B 3491   3.177   1.951   6.850  1.6875 -0.2798  2.8650
   48CHL1    C8 3492   3.376   1.985   6.922 -0.1621 -0.0100 -0.3503
   48CHL1    H8 3493   3.444   2.069   6.899 -1.1339  0.6795 -0.7806
   48CHL1   C14 3494   3.319   1.992   7.062 -0.1831  0.1450 -0.0787
   48CHL1   H14 3495   3.244   1.910   7.066  1.8676 -1.7828  1.3043
   48CHL1   C15 3496   3.235   2.116   7.113  0.1274 -0.8332  0.6514
   48CHL1  H15A 3497   3.272   2.209   7.064  0.2097 -0.3594  1.6055
   48CHL1  H15B 3498   3.129   2.105   7.082 -0.0087  1.8269 -0.0059
   48CHL1   C16 3499   3.248   2.108   7.262  0.3113 -0.3074  0.6425
   48CHL1  H16A 3500   3.296   2.204   7.293  1.6410 -0.4174 -0.9348
   48CHL1  H16B 3501   3.156   2.100   7.324  0.6207  1.4687  1.4130
   48CHL1   C17 3502   3.344   1.995   7.299  0.0096  0.2557 -0.7905
   48CHL1   H17 3503   3.286   1.903   7.326  1.6013 -0.0731  1.8251
   48CHL1   C13 3504   3.424   1.969   7.172  0.4647  0.5525  0.3218
   48CHL1   C18 3505   3.536   2.074   7.152  0.7932 -0.5326  0.0383
   48CHL1  H18A 3506   3.620   2.064   7.224  0.4403  3.2620  1.2349
   48CHL1  H18B 3507   3.579   2.066   7.050 -0.6699 -1.5470 -0.5268
   48CHL1  H18C 3508   3.498   2.178   7.162  1.9133 -0.0602 -0.3779
   48CHL1   C12 3509   3.487   1.827   7.151  0.3283  0.4065 -0.9183
   48CHL1  H12A 3510   3.567   1.797   7.222 -1.8556 -3.5177  0.1614
   48CHL1  H12B 3511   3.407   1.752   7.166  1.4221 -0.4864  0.7925
   48CHL1   C11 3512   3.537   1.804   7.010 -0.7800 -0.0408 -0.2331
   48CHL1  H11A 3513   3.635   1.856   7.008 -0.2168 -0.7487  2.8131
   48CHL1  H11B 3514   3.558   1.695   7.001  2.6488  0.5067 -0.0345
   48CHL1    C9 3515   3.444   1.848   6.897  0.4585 -0.5505 -0.1004
   48CHL1    H9 3516   3.361   1.775   6.903 -0.5468  0.5439 -0.4686
   48CHL1   C10 3517   3.505   1.830   6.758 -0.3769  0.3631  0.2203
   48CHL1   C19 3518   3.645   1.905   6.744  0.6566  0.3762  0.7050
   48CHL1  H19A 3519   3.639   2.015   6.760 -0.7807  0.5372 -0.7442
   48CHL1  H19B 3520   3.719   1.869   6.818  0.8903 -0.2091  0.1977
   48CHL1  H19C 3521   3.687   1.899   6.641 -2.0777  2.7044 -0.7174
   48CHL1    C1 3522   3.504   1.675   6.724  0.3301 -0.2030  0.2970
   48CHL1   H1A 3523   3.567   1.619   6.797  0.6318 -1.2814 -0.7659
   48CHL1   H1B 3524   3.406   1.626   6.738  0.4801 -0.1035  1.9898
   48CHL1    C2 3525   3.558   1.646   6.581  0.0861 -0.2398 -0.1662
   48CHL1   H2A 3526   3.575   1.537   6.565  1.1110  0.2021 -2.6152
   48CHL1   H2B 3527   3.657   1.696   6.576  0.3191 -0.0682  3.5033
   48CHL1   C20 3528   3.419   2.030   7.427  0.6245  0.0411 -0.1805
   48CHL1   H20 3529   3.494   2.111   7.411  0.0082  1.2324  2.4532
   48CHL1   C21 3530   3.493   1.906   7.480 -0.4924 -0.3159 -0.3396
   48CHL1  H21A 3531   3.543   1.933   7.575 -0.7757 -2.0389  0.3467
   48CHL1  H21B 3532   3.580   1.877   7.417 -0.3590  0.7243 -0.6468
   48CHL1  H21C 3533   3.424   1.820   7.498 -1.9457  0.6744 -0.9628
   48CHL1   C22 3534   3.320   2.072   7.549 -0.5813 -0.0619 -0.1605
   48CHL1  H22A 3535   3.278   2.173   7.529  1.3487  0.7866 -0.2324
   48CHL1  H22B 3536   3.235   2.004   7.566 -0.3033 -0.7408 -1.3406
   48CHL1   C23 3537   3.394   2.085   7.683 -0.3574  0.2743  0.5043
   48CHL1  H23A 3538   3.415   1.986   7.728 -3.4184 -0.3683  0.7908
   48CHL1  H23B 3539   3.492   2.133   7.663 -0.1005 -0.4197  0.0321
   48CHL1   C24 3540   3.321   2.165   7.787 -0.0213 -0.4616  0.4477
   48CHL1  H24A 3541   3.322   2.269   7.749  3.0288 -0.1510  1.0935
   48CHL1  H24B 3542   3.216   2.130   7.783  0.1383 -0.7903 -1.9051
   48CHL1   C25 3543   3.382   2.154   7.926  0.3516  0.1240 -0.4325
   48CHL1   H25 3544   3.492   2.147   7.912  0.4130  1.8521 -1.0469
   48CHL1   C26 3545   3.353   2.286   8.010  0.2899 -0.5027 -0.6373
   48CHL1  H26A 3546   3.371   2.377   7.949  2.4505 -1.6261 -1.7670
   48CHL1  H26B 3547   3.247   2.288   8.043  0.8156 -0.0808  1.1689
   48CHL1  H26C 3548   3.411   2.299   8.104  0.3008  0.1739 -0.7299
   48CHL1   C27 3549   3.330   2.030   7.998  0.8072  0.4906 -0.4708
   48CHL1  H27A 3550   3.372   2.028   8.101  0.3558 -0.7283 -0.2910
   48CHL1  H27B 3551   3.220   2.043   8.000  0.8467  0.9533 -1.0533
   48CHL1  H27C 3552   3.354   1.928   7.962  1.5345  0.2562  0.6063
   49CHL1    C3 3553   2.856   2.420   6.670  0.0021  0.0669  0.4159
   49CHL1    H3 3554   2.770   2.354   6.695  0.2361 -0.0218  1.0289
   49CHL1    O3 3555   2.876   2.420   6.527 -0.1002  0.5602 -0.3043
   49CHL1   H3' 3556   2.917   2.334   6.514  0.0206  0.2630  1.7123
   49CHL1    C4 3557   2.822   2.557   6.725  0.3224 -0.1094  0.0807
   49CHL1   H4A 3558   2.897   2.632   6.692 -0.5074  0.2195 -1.1679
   49CHL1   H4B 3559   2.723   2.592   6.687 -1.7700 -5.0427  0.2140
   49CHL1    C5 3560   2.819   2.573   6.877 -0.4497  0.3681 -0.0237
   49CHL1    C6 3561   2.714   2.621   6.943 -0.1370 -1.3913 -0.1168
   49CHL1    H6 3562   2.624   2.650   6.887  0.2039  0.0376  0.0236
   49CHL1    C7 3563   2.703   2.644   7.091  0.2774  0.0003 -0.3664
   49CHL1   H7A 3564   2.688   2.752   7.112 -1.5768 -0.1371 -0.8112
   49CHL1   H7B 3565   2.619   2.585   7.133  0.9413  0.0866  1.1409
   49CHL1    C8 3566   2.843   2.613   7.165  0.3960 -0.0627 -0.0465
   49CHL1    H8 3567   2.908   2.702   7.148  1.3080 -0.6858  0.1340
   49CHL1   C14 3568   2.814   2.576   7.317  0.3939 -0.1412  0.3397
   49CHL1   H14 3569   2.760   2.479   7.314  0.9721 -0.4379 -0.7141
   49CHL1   C15 3570   2.734   2.680   7.390  0.1603  0.2076  0.4820
   49CHL1  H15A 3571   2.784   2.778   7.373  0.5384  0.3442  2.1647
   49CHL1  H15B 3572   2.626   2.680   7.362 -0.5416 -1.4198  2.8457
   49CHL1   C16 3573   2.757   2.631   7.540 -0.1146 -0.1449  0.4762
   49CHL1  H16A 3574   2.777   2.722   7.600  2.3369 -0.8998  0.8986
   49CHL1  H16B 3575   2.662   2.581   7.572  0.0164  0.4529  1.8566
   49CHL1   C17 3576   2.875   2.525   7.538 -0.1988  0.6639 -0.1780
   49CHL1   H17 3577   2.818   2.431   7.529 -1.5658  1.6397 -2.8062
   49CHL1   C13 3578   2.940   2.540   7.397  0.4599 -0.1734 -0.3838
   49CHL1   C18 3579   3.034   2.666   7.400 -0.0638  0.6456  0.8328
   49CHL1  H18A 3580   2.985   2.759   7.434  1.0762  1.9872 -0.9847
   49CHL1  H18B 3581   3.127   2.652   7.458 -0.7990  0.0744  1.9151
   49CHL1  H18C 3582   3.058   2.690   7.294  0.7029  0.9882  1.0834
   49CHL1   C12 3583   3.007   2.415   7.329 -0.6592 -0.2160 -0.4082
   49CHL1  H12A 3584   3.104   2.398   7.380 -1.3778  2.7212  2.2328
   49CHL1  H12B 3585   2.937   2.329   7.335  1.1668 -1.7300  0.3752
   49CHL1   C11 3586   3.041   2.450   7.185 -0.0231 -0.4242  0.4322
   49CHL1  H11A 3587   3.120   2.528   7.194  0.3422 -0.6952 -0.4286
   49CHL1  H11B 3588   3.083   2.356   7.144 -2.0495 -0.9732 -0.5031
   49CHL1    C9 3589   2.918   2.495   7.101 -0.2684 -0.3196 -0.3895
   49CHL1    H9 3590   2.849   2.412   7.124 -0.0488 -0.0240  1.4984
   49CHL1   C10 3591   2.945   2.506   6.948  0.4621  0.3519 -0.4694
   49CHL1   C19 3592   3.073   2.588   6.937  0.1421 -0.1001  0.2935
   49CHL1  H19A 3593   3.068   2.676   7.005 -0.3275 -0.0524  0.2020
   49CHL1  H19B 3594   3.163   2.524   6.947  0.2790 -0.9532 -4.4751
   49CHL1  H19C 3595   3.084   2.626   6.834 -1.9533 -0.0076  0.0616
   49CHL1    C1 3596   2.971   2.368   6.884  0.1495  0.0415  0.1881
   49CHL1   H1A 3597   3.060   2.325   6.935  0.0248  0.2627  0.5990
   49CHL1   H1B 3598   2.891   2.296   6.913  0.5794  0.7789  3.5771
   49CHL1    C2 3599   2.988   2.375   6.731  0.5515 -0.2087  0.2664
   49CHL1   H2A 3600   3.023   2.277   6.692  2.3094 -0.0553  1.3554
   49CHL1   H2B 3601   3.064   2.448   6.695 -1.5091  1.5541 -0.7917
   49CHL1   C20 3602   2.958   2.517   7.668 -0.4928 -0.0051 -0.2870
   49CHL1   H20 3603   3.032   2.599   7.671  1.0748 -1.2362 -2.7056
   49CHL1   C21 3604   3.030   2.378   7.667  0.2018 -0.2691 -0.0197
   49CHL1  H21A 3605   3.075   2.366   7.768 -2.7706 -0.7001  1.3638
   49CHL1  H21B 3606   3.111   2.363   7.593  0.4600 -0.1855  0.2442
   49CHL1  H21C 3607   2.959   2.293   7.657 -1.3924  0.8717  1.0204
   49CHL1   C22 3608   2.864   2.517   7.788 -0.2850  0.6653 -0.0820
   49CHL1  H22A 3609   2.790   2.599   7.782  0.5734  1.3692 -1.5054
   49CHL1  H22B 3610   2.801   2.426   7.782 -1.4551  1.3429  1.3199
   49CHL1   C23 3611   2.932   2.520   7.929 -0.1371  0.3490  0.7488
   49CHL1  H23A 3612   2.967   2.419   7.959  0.5026  0.8367  1.7195
   49CHL1  H23B 3613   3.018   2.590   7.938 -0.3175  0.3062  4.8940
   49CHL1   C24 3614   2.826   2.553   8.035 -0.0005  0.4250  1.1430
   49CHL1  H24A 3615   2.778   2.650   8.012  2.4212  1.3149 -0.5584
   49CHL1  H24B 3616   2.746   2.476   8.033 -2.0810  2.4938  0.3146
   49CHL1   C25 3617   2.877   2.571   8.174  0.1013  0.6500 -0.4222
   49CHL1   H25 3618   2.952   2.651   8.193 -1.1213  1.2619  2.2899
   49CHL1   C26 3619   2.759   2.598   8.267  0.6708  0.0684  0.2426
   49CHL1  H26A 3620   2.703   2.692   8.247  0.9162 -0.3703 -2.9331
   49CHL1  H26B 3621   2.686   2.515   8.255 -2.1624  2.4153  0.1590
   49CHL1  H26C 3622   2.783   2.590   8.376 -0.9501 -1.3083  0.5319
   49CHL1   C27 3623   2.953   2.440   8.230  0.1565  0.0887  0.1800
   49CHL1  H27A 3624   3.022   2.404   8.151  0.7804  0.4237  0.5566
   49CHL1  H27B 3625   3.011   2.488   8.312  1.2575  0.3151 -0.7067
   49CHL1  H27C 3626   2.886   2.356   8.259 -0.0680  0.3485  0.4194
   50CHL1    C3 3627   3.887   2.799   6.540  0.1308 -0.3195 -0.4999
   50CHL1    H3 3628   3.837   2.896   6.559 -1.8426 -1.4590  0.5428
   50CHL1    O3 3629   3.896   2.770   6.400 -0.1596  0.6179  1.0956
   50CHL1   H3' 3630   3.925   2.845   6.347  0.1583  0.0291  0.4070
   50CHL1    C4 3631   4.029   2.788   6.599 -0.6231 -0.1680 -0.4436
   50CHL1   H4A 3632   4.049   2.680   6.578 -0.3092  0.1356 -1.7813
   50CHL1   H4B 3633   4.100   2.857   6.549 -0.1342 -0.3996 -0.0821
   50CHL1    C5 3634   4.033   2.804   6.751 -0.7257 -0.0103 -0.6642
   50CHL1    C6 3635   4.115   2.898   6.804  0.2518  0.4130 -0.8611
   50CHL1    H6 3636   4.183   2.954   6.738  1.5817 -0.2330 -0.0775
   50CHL1    C7 3637   4.130   2.931   6.956  0.7235 -0.6704 -0.0384
   50CHL1   H7A 3638   4.239   2.927   6.976  1.1439 -0.7288 -2.0557
   50CHL1   H7B 3639   4.090   3.031   6.983  0.9812 -0.5555 -0.0708
   50CHL1    C8 3640   4.057   2.821   7.045 -0.1510 -0.4283 -0.0082
   50CHL1    H8 3641   4.120   2.729   7.042  0.9565  0.3292 -0.6755
   50CHL1   C14 3642   4.028   2.865   7.186 -1.1376 -0.3776 -0.4329
   50CHL1   H14 3643   3.961   2.953   7.174 -1.4012 -0.7967 -2.2132
   50CHL1   C15 3644   4.147   2.916   7.263 -0.1481 -0.5592  0.1429
   50CHL1  H15A 3645   4.223   2.845   7.226 -1.0643 -1.4781 -0.0053
   50CHL1  H15B 3646   4.180   3.017   7.230  1.2541 -1.4858 -1.4310
   50CHL1   C16 3647   4.106   2.910   7.411 -0.0651 -0.1860 -0.3610
   50CHL1  H16A 3648   4.195   2.861   7.458  0.7556  0.9272 -0.7216
   50CHL1  H16B 3649   4.101   3.008   7.462  1.2972 -1.1139  1.6859
   50CHL1   C17 3650   3.971   2.831   7.413 -0.2295  0.5381  0.0363
   50CHL1   H17 3651   3.894   2.911   7.416  0.0342  0.7790  0.6822
   50CHL1   C13 3652   3.959   2.758   7.274  0.0660 -0.2110 -0.1648
   50CHL1   C18 3653   4.034   2.623   7.286 -0.5810 -0.2106 -0.5844
   50CHL1  H18A 3654   4.137   2.635   7.325 -1.3396  0.0520  1.4381
   50CHL1  H18B 3655   3.976   2.560   7.356 -1.2437 -1.3891 -2.1174
   50CHL1  H18C 3656   4.039   2.574   7.186  1.0181  0.8367 -1.0556
   50CHL1   C12 3657   3.816   2.752   7.214 -0.5928  0.2325 -0.3975
   50CHL1  H12A 3658   3.741   2.709   7.283 -1.2822 -0.1335 -1.3570
   50CHL1  H12B 3659   3.796   2.861   7.211  0.4865  0.4391 -0.4692
   50CHL1   C11 3660   3.819   2.705   7.071  0.2392 -0.2361  0.1694
   50CHL1  H11A 3661   3.827   2.594   7.072 -1.6104 -0.4265 -0.8800
   50CHL1  H11B 3662   3.717   2.724   7.030 -0.0679 -2.3836 -0.1843
   50CHL1    C9 3663   3.918   2.786   6.979  0.2220 -0.0579 -0.1217
   50CHL1    H9 3664   3.880   2.890   6.968 -1.8861 -0.5572  1.6229
   50CHL1   C10 3665   3.931   2.725   6.836  0.3700  0.3264  0.7121
   50CHL1   C19 3666   3.981   2.580   6.839 -0.8541 -0.7503 -0.2966
   50CHL1  H19A 3667   4.010   2.532   6.743 -0.7078  1.5242 -1.4506
   50CHL1  H19B 3668   4.065   2.569   6.911 -1.2534  0.4752  0.3986
   50CHL1  H19C 3669   3.906   2.507   6.876  1.0876 -3.1149 -0.8231
   50CHL1    C1 3670   3.794   2.722   6.766 -0.0582 -0.4111  0.2342
   50CHL1   H1A 3671   3.732   2.643   6.813 -0.7433 -0.1873 -0.2698
   50CHL1   H1B 3672   3.748   2.822   6.782 -0.9872 -0.5936 -1.1377
   50CHL1    C2 3673   3.797   2.698   6.617  0.6011 -0.3434 -0.3546
   50CHL1   H2A 3674   3.695   2.702   6.574  0.7433 -4.0257 -1.3721
   50CHL1   H2B 3675   3.833   2.595   6.594  0.5163 -0.5144  0.2806
   50CHL1   C20 3676   3.956   2.748   7.549 -0.3195  0.8160  0.6378
   50CHL1   H20 3677   4.046   2.682   7.555  0.5891  2.1096  1.8349
   50CHL1   C21 3678   3.824   2.666   7.553 -0.2765 -0.2491  0.3500
   50CHL1  H21A 3679   3.742   2.738   7.575  0.2266  0.1769  0.8884
   50CHL1  H21B 3680   3.830   2.593   7.637 -1.4918 -2.4554 -1.3730
   50CHL1  H21C 3681   3.808   2.616   7.455 -1.6614  3.5415 -1.5411
   50CHL1   C22 3682   3.965   2.846   7.671 -0.2059  0.4300  0.9098
   50CHL1  H22A 3683   4.060   2.904   7.672 -0.5366  1.0268 -0.1787
   50CHL1  H22B 3684   3.879   2.917   7.674 -1.0965 -0.5473 -0.5908
   50CHL1   C23 3685   3.966   2.774   7.801  0.1020  0.9776 -0.1483
   50CHL1  H23A 3686   3.862   2.737   7.819  0.5477 -0.9519 -1.2051
   50CHL1  H23B 3687   4.030   2.686   7.778 -1.5194  0.2447 -2.2643
   50CHL1   C24 3688   4.018   2.866   7.914 -1.2214 -0.7148  0.0507
   50CHL1  H24A 3689   4.123   2.895   7.894 -0.5102 -0.1019  3.9795
   50CHL1  H24B 3690   3.962   2.962   7.915  2.2753  1.4827  1.9038
   50CHL1   C25 3691   4.024   2.818   8.058  1.1434 -0.3554  0.4489
   50CHL1   H25 3692   3.927   2.769   8.081  0.8621 -0.5824 -1.0838
   50CHL1   C26 3693   4.149   2.726   8.067  0.1713  0.4660 -0.4803
   50CHL1  H26A 3694   4.179   2.712   8.172 -0.5219  0.9777 -0.2047
   50CHL1  H26B 3695   4.121   2.631   8.017 -0.6596  0.0878  0.6848
   50CHL1  H26C 3696   4.238   2.766   8.014  0.7907  0.5521  0.6111
   50CHL1   C27 3697   4.055   2.942   8.146  0.2236  0.3003 -0.2773
   50CHL1  H27A 3698   3.970   3.013   8.136  1.0151  1.0617 -2.0209
   50CHL1  H27B 3699   4.080   2.905   8.248  1.6248  1.8931 -0.0119
   50CHL1  H27C 3700   4.148   2.985   8.104 -0.1428  0.2031 -1.2046
   51CHL1    C3 3701   4.638   3.190   6.720  0.9131 -0.3381 -0.2581
   51CHL1    H3 3702   4.741   3.147   6.730  1.3889  1.2873  3.2678
   51CHL1    O3 3703   4.601   3.222   6.580 -0.3235 -0.5693 -0.0644
   51CHL1   H3' 3704   4.518   3.268   6.596  0.1781  0.3831 -0.0858
   51CHL1    C4 3705   4.533   3.090   6.783  0.1350 -0.6872  0.1572
   51CHL1   H4A 3706   4.440   3.136   6.743 -1.6341 -0.9501  3.5613
   51CHL1   H4B 3707   4.550   2.994   6.730  2.7111  1.8286 -4.1421
   51CHL1    C5 3708   4.534   3.078   6.935  0.4627  0.2687  0.1963
   51CHL1    C6 3709   4.544   2.949   6.989 -0.0245 -0.0114  0.7214
   51CHL1    H6 3710   4.547   2.857   6.928 -0.8145  1.4751 -1.7477
   51CHL1    C7 3711   4.560   2.927   7.131 -0.2957 -0.3030 -0.0398
   51CHL1   H7A 3712   4.503   2.839   7.168 -0.5246 -0.2643 -0.2995
   51CHL1   H7B 3713   4.665   2.905   7.159 -0.0944 -1.2532 -1.4199
   51CHL1    C8 3714   4.520   3.053   7.222 -0.1876 -0.1024  0.1413
   51CHL1    H8 3715   4.410   3.067   7.224 -0.4237 -1.5515 -1.0333
   51CHL1   C14 3716   4.567   3.038   7.364  0.2386  0.8458 -0.6508
   51CHL1   H14 3717   4.678   3.037   7.365  0.2404  0.5532  0.5669
   51CHL1   C15 3718   4.514   2.909   7.441 -0.5970 -0.1693 -0.6914
   51CHL1  H15A 3719   4.407   2.897   7.411  0.2305 -1.7802 -3.4437
   51CHL1  H15B 3720   4.573   2.817   7.424 -0.5077 -0.2850  0.2442
   51CHL1   C16 3721   4.520   2.950   7.589 -0.5889  0.5569 -0.3163
   51CHL1  H16A 3722   4.422   2.926   7.635 -0.8622 -3.6527 -2.5022
   51CHL1  H16B 3723   4.596   2.885   7.639 -1.7476 -1.0099 -0.5247
   51CHL1   C17 3724   4.556   3.098   7.593 -0.1553  0.1546 -0.0165
   51CHL1   H17 3725   4.667   3.103   7.589 -0.1380 -0.7908 -1.1801
   51CHL1   C13 3726   4.519   3.160   7.457 -0.2930  0.5268  0.3058
   51CHL1   C18 3727   4.366   3.177   7.459 -0.0001  0.1193  0.7979
   51CHL1  H18A 3728   4.339   3.266   7.520  0.9931  1.5872 -0.8209
   51CHL1  H18B 3729   4.326   3.194   7.357 -0.2272 -2.0183  0.4824
   51CHL1  H18C 3730   4.305   3.090   7.490 -0.0611 -1.1665 -2.5115
   51CHL1   C12 3731   4.593   3.284   7.400 -0.5146 -0.5552  0.1990
   51CHL1  H12A 3732   4.574   3.378   7.456  0.9051  0.0100 -0.2148
   51CHL1  H12B 3733   4.703   3.264   7.399 -0.3172  0.2363  2.0303
   51CHL1   C11 3734   4.549   3.307   7.260 -0.0793  0.5111 -0.4273
   51CHL1  H11A 3735   4.446   3.347   7.247 -0.9402 -0.9510  1.3873
   51CHL1  H11B 3736   4.607   3.398   7.235 -1.6117  1.3890 -0.9286
   51CHL1    C9 3737   4.574   3.184   7.164  0.1403 -0.5246 -0.0943
   51CHL1    H9 3738   4.683   3.168   7.167 -0.1075 -3.1609 -1.9960
   51CHL1   C10 3739   4.538   3.212   7.014  0.3811 -0.0168 -0.1204
   51CHL1   C19 3740   4.391   3.267   6.987  0.4084 -0.2794  0.1399
   51CHL1  H19A 3741   4.319   3.192   7.026  0.4920 -0.5033 -0.1399
   51CHL1  H19B 3742   4.373   3.358   7.048 -3.4607 -0.9684  0.2957
   51CHL1  H19C 3743   4.352   3.289   6.886 -0.6541  0.9151  0.7754
   51CHL1    C1 3744   4.651   3.296   6.953  0.3603 -0.8134 -0.1726
   51CHL1   H1A 3745   4.667   3.397   6.996  0.3312 -0.3601 -1.1922
   51CHL1   H1B 3746   4.748   3.243   6.972 -0.2264 -1.7682  0.2502
   51CHL1    C2 3747   4.639   3.318   6.800  0.5863  0.3796 -0.6866
   51CHL1   H2A 3748   4.735   3.367   6.774  1.6039  0.3213  2.5158
   51CHL1   H2B 3749   4.557   3.388   6.774 -0.6159 -0.3062  1.0939
   51CHL1   C20 3750   4.506   3.166   7.719  0.1578  0.0763 -0.1195
   51CHL1   H20 3751   4.395   3.174   7.715  0.1036 -0.5820  0.0096
   51CHL1   C21 3752   4.541   3.314   7.719  0.8465 -0.3061  0.3474
   51CHL1  H21A 3753   4.647   3.327   7.689  0.0509  0.2498 -2.5590
   51CHL1  H21B 3754   4.512   3.349   7.820 -2.1579 -0.9408 -0.1851
   51CHL1  H21C 3755   4.479   3.380   7.653  0.3096 -0.2421  0.9056
   51CHL1   C22 3756   4.562   3.103   7.844  0.1999  0.3591 -0.5917
   51CHL1  H22A 3757   4.600   3.001   7.822 -0.1054  0.4859 -1.7521
   51CHL1  H22B 3758   4.667   3.132   7.868  1.0034 -2.5521 -0.2548
   51CHL1   C23 3759   4.487   3.099   7.976  0.0840  0.2136  0.7112
   51CHL1  H23A 3760   4.480   3.203   8.017  0.3913  0.2901  0.5689
   51CHL1  H23B 3761   4.387   3.060   7.947  1.0500 -1.0320 -1.0872
   51CHL1   C24 3762   4.546   3.007   8.081 -0.5516 -0.4830 -0.5810
   51CHL1  H24A 3763   4.543   2.903   8.042  3.2796 -1.8885  2.2705
   51CHL1  H24B 3764   4.650   3.038   8.102 -1.2120  0.1475  2.3284
   51CHL1   C25 3765   4.483   3.019   8.226 -0.0342 -0.1718 -0.0999
   51CHL1   H25 3766   4.376   3.042   8.210 -0.2018  0.6300  1.7955
   51CHL1   C26 3767   4.499   2.879   8.298  0.2380  0.1606 -0.4851
   51CHL1  H26A 3768   4.457   2.881   8.401  2.3273  1.4554  0.4094
   51CHL1  H26B 3769   4.448   2.799   8.241 -0.6784 -0.1971  0.8109
   51CHL1  H26C 3770   4.606   2.857   8.317  0.2871  0.6939 -0.1173
   51CHL1   C27 3771   4.543   3.134   8.302  0.0613 -0.4339  0.5064
   51CHL1  H27A 3772   4.653   3.139   8.315  0.3449  0.5937 -1.8158
   51CHL1  H27B 3773   4.512   3.233   8.264  0.7273  0.2839  1.7762
   51CHL1  H27C 3774   4.508   3.149   8.406 -3.4217  0.9573 -0.7144
   52CHL1    C3 3775   6.296   3.046   6.948  0.8192  0.3955 -1.2030
   52CHL1    H3 3776   6.293   2.936   6.931 -1.0060  0.0159  1.0678
   52CHL1    O3 3777   6.284   3.128   6.831 -0.2345  0.3287  0.1478
   52CHL1   H3' 3778   6.344   3.095   6.764  0.6953  1.6877  0.2709
   52CHL1    C4 3779   6.168   3.085   7.038 -0.0557 -1.0280  0.7720
   52CHL1   H4A 3780   6.161   3.195   7.054  0.4266 -0.6763 -1.1603
   52CHL1   H4B 3781   6.079   3.052   6.980 -1.0776 -0.1630  1.7928
   52CHL1    C5 3782   6.182   3.023   7.173 -0.1220 -0.0864 -0.7233
   52CHL1    C6 3783   6.081   2.948   7.225  0.2448  0.6948 -0.4720
   52CHL1    H6 3784   5.996   2.915   7.163 -1.8743  0.5611  2.3315
   52CHL1    C7 3785   6.070   2.905   7.368  0.8136  0.1531  0.1731
   52CHL1   H7A 3786   5.974   2.943   7.409  0.0825  0.9379 -2.1213
   52CHL1   H7B 3787   6.074   2.794   7.373 -1.4451 -0.1920 -2.7457
   52CHL1    C8 3788   6.180   2.968   7.457 -0.1413 -0.1226  0.1148
   52CHL1    H8 3789   6.143   3.069   7.485 -1.0188 -0.1492 -0.8471
   52CHL1   C14 3790   6.193   2.884   7.583  0.4002  0.3219 -0.2695
   52CHL1   H14 3791   6.223   2.785   7.542  1.3981 -0.2078  1.6203
   52CHL1   C15 3792   6.072   2.865   7.661  0.0110 -0.3597  0.1687
   52CHL1  H15A 3793   6.021   2.963   7.664  1.0707  0.1817  0.9801
   52CHL1  H15B 3794   6.010   2.786   7.612 -0.7993  0.9978 -1.0937
   52CHL1   C16 3795   6.108   2.832   7.803 -0.1946  0.1181  0.1696
   52CHL1  H16A 3796   6.088   2.918   7.872 -0.4296  0.6369 -0.5331
   52CHL1  H16B 3797   6.049   2.747   7.844 -0.7100  0.4687  0.1623
   52CHL1   C17 3798   6.265   2.822   7.795 -0.2703  0.3206  0.3237
   52CHL1   H17 3799   6.285   2.724   7.747 -1.1522 -1.0311  2.5483
   52CHL1   C13 3800   6.302   2.927   7.686  0.8900 -0.3644  0.0378
   52CHL1   C18 3801   6.278   3.073   7.742 -0.0259  0.2354  0.1477
   52CHL1  H18A 3802   6.175   3.084   7.779 -0.2408 -1.2900  0.0627
   52CHL1  H18B 3803   6.357   3.080   7.820 -0.7073  1.9692  0.7284
   52CHL1  H18C 3804   6.300   3.145   7.660 -0.7731  0.8603  0.4957
   52CHL1   C12 3805   6.438   2.926   7.620 -0.9559  0.3109  0.0150
   52CHL1  H12A 3806   6.511   2.977   7.685 -1.9610  2.1799 -0.2549
   52CHL1  H12B 3807   6.465   2.819   7.608 -1.6097 -0.0079  1.2605
   52CHL1   C11 3808   6.438   3.005   7.491  0.0173 -0.0374  0.0992
   52CHL1  H11A 3809   6.443   3.113   7.516 -0.4700 -0.5090  2.4961
   52CHL1  H11B 3810   6.531   2.985   7.433 -0.6938 -2.0788 -0.4255
   52CHL1    C9 3811   6.315   2.977   7.391 -0.2520  0.0554  0.4117
   52CHL1    H9 3812   6.337   2.873   7.361  0.8163  0.2331  0.5270
   52CHL1   C10 3813   6.309   3.062   7.256 -0.4731  0.2149 -0.1042
   52CHL1   C19 3814   6.316   3.212   7.292 -0.1943 -0.1527 -0.8064
   52CHL1  H19A 3815   6.309   3.278   7.202  0.7735  0.4951 -0.4219
   52CHL1  H19B 3816   6.222   3.238   7.346 -0.4091 -1.3393 -0.5946
   52CHL1  H19C 3817   6.407   3.236   7.350 -1.6194 -2.1174  2.5267
   52CHL1    C1 3818   6.427   3.023   7.170 -0.1477  0.5040  0.4191
   52CHL1   H1A 3819   6.527   3.042   7.214  0.9005 -0.8087 -1.3012
   52CHL1   H1B 3820   6.424   2.914   7.149  0.7675  0.6715 -0.6864
   52CHL1    C2 3821   6.430   3.082   7.023  0.3226  0.0183  0.1342
   52CHL1   H2A 3822   6.508   3.040   6.954 -1.0325  0.5309 -1.8029
   52CHL1   H2B 3823   6.434   3.191   7.040 -0.1870 -0.1385  1.3468
   52CHL1   C20 3824   6.320   2.825   7.940 -0.1920 -0.0461 -0.4543
   52CHL1   H20 3825   6.289   2.924   7.980  1.3043 -0.5328  2.1489
   52CHL1   C21 3826   6.472   2.798   7.933 -0.2692  0.2620  0.5793
   52CHL1  H21A 3827   6.518   2.794   8.034  1.3408  0.1766 -0.1250
   52CHL1  H21B 3828   6.530   2.884   7.891 -0.9876 -0.5742 -2.3952
   52CHL1  H21C 3829   6.499   2.707   7.874  1.9983  0.8885  0.5533
   52CHL1   C22 3830   6.257   2.711   8.026  0.4079 -0.6817  0.0749
   52CHL1  H22A 3831   6.147   2.726   8.023  0.3331  1.2225  4.6658
   52CHL1  H22B 3832   6.272   2.610   7.980 -0.9387 -1.3519  1.0582
   52CHL1   C23 3833   6.287   2.696   8.174  0.1932 -0.1629 -0.5739
   52CHL1  H23A 3834   6.378   2.633   8.182  0.5791  0.2573 -1.5930
   52CHL1  H23B 3835   6.305   2.798   8.212 -0.5531  0.0462 -0.7603
   52CHL1   C24 3836   6.169   2.635   8.249 -0.0770 -0.5044 -0.6671
   52CHL1  H24A 3837   6.081   2.689   8.209  0.4261 -0.1801 -1.3607
   52CHL1  H24B 3838   6.162   2.526   8.227  0.6762 -0.9661  1.2093
   52CHL1   C25 3839   6.170   2.635   8.405 -0.3788 -0.2871 -0.0205
   52CHL1   H25 3840   6.202   2.738   8.433  2.1131 -0.3856 -2.1117
   52CHL1   C26 3841   6.039   2.596   8.461 -0.0839  0.1634  0.0881
   52CHL1  H26A 3842   6.027   2.620   8.569  0.2013  1.1094 -0.0840
   52CHL1  H26B 3843   5.956   2.654   8.415  0.8641  1.4422 -0.0597
   52CHL1  H26C 3844   6.010   2.492   8.437 -0.6995 -0.0962  1.8329
   52CHL1   C27 3845   6.278   2.545   8.465  0.2234 -0.2577 -0.6461
   52CHL1  H27A 3846   6.261   2.441   8.431 -1.5812 -0.6306  1.1853
   52CHL1  H27B 3847   6.378   2.592   8.451  0.0003  0.5486  0.3355
   52CHL1  H27C 3848   6.263   2.551   8.575  1.2237  0.2435 -0.5205
   53CHL1    C3 3849   0.023   0.018   7.080  0.4320  0.1388  0.2480
   53CHL1    H3 3850   0.118  -0.035   7.105  1.0105  0.8533 -0.3895
   53CHL1    O3 3851   0.010   0.024   6.946  0.2864 -0.1586 -0.2159
   53CHL1   H3' 3852  -0.081   0.053   6.944  0.5268  0.7965  1.1227
   53CHL1    C4 3853  -0.088  -0.081   7.147  0.8845  0.5355 -0.2313
   53CHL1   H4A 3854  -0.185  -0.043   7.109  1.2951 -1.0571 -3.2295
   53CHL1   H4B 3855  -0.079  -0.180   7.096  1.1976  0.9723 -1.0506
   53CHL1    C5 3856  -0.091  -0.092   7.298  0.6308  0.2244  0.9139
   53CHL1    C6 3857  -0.076  -0.214   7.364  0.1240 -1.1393  0.5867
   53CHL1    H6 3858  -0.074  -0.302   7.298 -1.8066 -0.2262 -0.7772
   53CHL1    C7 3859  -0.089  -0.223   7.513 -0.0393 -0.1998 -0.2263
   53CHL1   H7A 3860  -0.162  -0.302   7.541 -0.0334 -0.1378 -0.0402
   53CHL1   H7B 3861  -0.003  -0.282   7.549 -0.4799 -1.4920 -1.2106
   53CHL1    C8 3862  -0.112  -0.095   7.583  0.4763 -0.8268 -0.5588
   53CHL1    H8 3863  -0.219  -0.067   7.585  0.8714  0.7532 -0.0372
   53CHL1   C14 3864  -0.056  -0.105   7.726 -0.1930 -0.1015 -0.5728
   53CHL1   H14 3865   0.053  -0.118   7.709 -0.1657 -1.3481  0.3967
   53CHL1   C15 3866  -0.095  -0.234   7.802  0.2619 -0.3257  0.5817
   53CHL1  H15A 3867  -0.206  -0.246   7.799  0.4731 -2.5974 -0.2882
   53CHL1  H15B 3868  -0.036  -0.323   7.770  1.0117  1.1549 -2.4670
   53CHL1   C16 3869  -0.058  -0.197   7.948 -0.6681  0.5486  0.2733
   53CHL1  H16A 3870  -0.146  -0.213   8.013  1.0396 -0.4362  2.4895
   53CHL1  H16B 3871   0.011  -0.270   7.997 -2.7499 -0.3839  1.9851
   53CHL1   C17 3872  -0.005  -0.050   7.943  0.2889  0.3046  0.6392
   53CHL1   H17 3873   0.100  -0.057   7.908 -0.0689 -1.9909 -0.1997
   53CHL1   C13 3874  -0.074   0.015   7.822 -0.1868  0.0270 -0.1028
   53CHL1   C18 3875  -0.225   0.036   7.839  0.3323 -0.0537 -0.2759
   53CHL1  H18A 3876  -0.275   0.058   7.742  0.3267 -0.9779 -0.4952
   53CHL1  H18B 3877  -0.277  -0.043   7.897 -1.0454 -0.2476 -1.6963
   53CHL1  H18C 3878  -0.247   0.127   7.899  2.5460  0.9003 -0.8102
   53CHL1   C12 3879  -0.014   0.139   7.763  0.2745  0.2412  0.9128
   53CHL1  H12A 3880  -0.046   0.229   7.820  0.8627  2.1639 -1.5644
   53CHL1  H12B 3881   0.097   0.134   7.767  0.4169 -0.6449 -1.7502
   53CHL1   C11 3882  -0.036   0.156   7.607  0.5386 -0.7670 -0.3593
   53CHL1  H11A 3883  -0.134   0.207   7.602  0.5068 -0.7090  0.6475
   53CHL1  H11B 3884   0.038   0.233   7.576 -2.1695  0.8465 -3.3343
   53CHL1    C9 3885  -0.039   0.028   7.520 -0.2696  0.0175  0.2186
   53CHL1    H9 3886   0.065  -0.009   7.510 -0.3703 -0.0911 -0.4843
   53CHL1   C10 3887  -0.084   0.043   7.372  0.1420 -0.2212 -0.4013
   53CHL1   C19 3888  -0.225   0.107   7.358 -0.2531  0.1752  0.0903
   53CHL1  H19A 3889  -0.263   0.120   7.254 -0.6987  0.7337  0.3215
   53CHL1  H19B 3890  -0.303   0.046   7.407 -1.2667  1.3516 -0.0285
   53CHL1  H19C 3891  -0.225   0.210   7.398 -1.5591  0.8464 -1.5139
   53CHL1    C1 3892   0.031   0.136   7.302 -0.2818  0.2325  0.3434
   53CHL1   H1A 3893   0.021   0.238   7.343  0.7507  0.7372 -0.6085
   53CHL1   H1B 3894   0.131   0.103   7.338  0.5950  3.4777  1.1749
   53CHL1    C2 3895   0.010   0.152   7.154  0.1573 -0.1168  0.5385
   53CHL1   H2A 3896   0.075   0.235   7.119 -1.0561  1.4329  1.8167
   53CHL1   H2B 3897  -0.094   0.176   7.125  0.6504 -2.1696 -3.7788
   53CHL1   C20 3898  -0.008   0.016   8.083 -0.2412  0.7882 -0.3858
   53CHL1   H20 3899  -0.117   0.037   8.097 -0.8547 -0.7231 -2.3732
   53CHL1   C21 3900   0.058   0.157   8.090  0.4325  0.6188  0.7344
   53CHL1  H21A 3901   0.002   0.231   8.028 -0.2020  0.7405  1.4338
   53CHL1  H21B 3902   0.163   0.149   8.056  0.1871  1.2989 -0.2319
   53CHL1  H21C 3903   0.054   0.199   8.192  0.4891  2.9717 -0.1700
   53CHL1   C22 3904   0.029  -0.072   8.208 -0.3304  0.5611 -0.0570
   53CHL1  H22A 3905  -0.015  -0.023   8.298 -0.5765  0.6580 -0.2268
   53CHL1  H22B 3906  -0.022  -0.170   8.203  1.7159 -0.5529 -0.2065
   53CHL1   C23 3907   0.191  -0.087   8.214  0.3360 -0.5075 -0.2864
   53CHL1  H23A 3908   0.232  -0.124   8.118  0.8497 -0.1720 -0.1999
   53CHL1  H23B 3909   0.233   0.013   8.238 -0.9298 -0.2081  0.8056
   53CHL1   C24 3910   0.236  -0.190   8.324 -0.5553 -0.1581 -0.1531
   53CHL1  H24A 3911   0.194  -0.290   8.298 -0.0793 -0.9502  1.9408
   53CHL1  H24B 3912   0.347  -0.193   8.322 -0.5703 -0.3566 -1.1654
   53CHL1   C25 3913   0.178  -0.157   8.463 -0.1758 -0.1233  0.0428
   53CHL1   H25 3914   0.068  -0.156   8.453 -0.4446 -3.1872  1.5864
   53CHL1   C26 3915   0.216  -0.270   8.563  0.4257 -0.9414 -0.2760
   53CHL1  H26A 3916   0.322  -0.290   8.589  0.0134 -0.3400  2.1101
   53CHL1  H26B 3917   0.160  -0.248   8.656  0.8418  0.9506 -0.4187
   53CHL1  H26C 3918   0.186  -0.368   8.521  1.0140 -0.0565 -2.9937
   53CHL1   C27 3919   0.224  -0.028   8.522 -0.2077  0.2488 -0.2682
   53CHL1  H27A 3920   0.190  -0.015   8.627 -0.6128  0.4598 -0.4234
   53CHL1  H27B 3921   0.334  -0.014   8.529 -0.5376  2.5379  1.3193
   53CHL1  H27C 3922   0.172   0.056   8.470  1.0677 -0.3650 -2.6523
   54CHL1    C3 3923   0.368   2.739   7.078 -0.6563 -0.0505 -0.1747
   54CHL1    H3 3924   0.451   2.812   7.087 -0.3950 -0.4171  0.4766
   54CHL1    O3 3925   0.294   2.779   6.963 -0.1730  0.1113  0.1612
   54CHL1   H3' 3926   0.263   2.696   6.927 -0.4924  0.6933 -0.9472
   54CHL1    C4 3927   0.413   2.592   7.062 -0.1189 -0.4462  0.8683
   54CHL1   H4A 3928   0.324   2.536   7.027 -1.0107 -0.3193  2.7923
   54CHL1   H4B 3929   0.480   2.587   6.974  1.0547 -0.8027  1.7459
   54CHL1    C5 3930   0.474   2.534   7.192  0.8234  0.2252 -0.2701
   54CHL1    C6 3931   0.592   2.466   7.192  0.5501 -0.1002  0.8499
   54CHL1    H6 3932   0.628   2.433   7.094 -0.5365  0.1249  0.3700
   54CHL1    C7 3933   0.653   2.403   7.318  0.2665 -0.7713 -0.1224
   54CHL1   H7A 3934   0.675   2.299   7.287 -1.2248 -1.4388  0.9758
   54CHL1   H7B 3935   0.755   2.439   7.345 -0.0084  0.1803 -0.3381
   54CHL1    C8 3936   0.566   2.408   7.439 -0.5660  0.1692 -0.1386
   54CHL1    H8 3937   0.493   2.325   7.428  1.2438 -1.4311 -0.6488
   54CHL1   C14 3938   0.656   2.384   7.567  0.4396  0.0557  0.6767
   54CHL1   H14 3939   0.717   2.477   7.574 -1.3160  1.2996  0.4130
   54CHL1   C15 3940   0.752   2.267   7.565  0.3010 -0.8562 -0.5886
   54CHL1  H15A 3941   0.710   2.181   7.508  0.8211 -1.9570  0.6420
   54CHL1  H15B 3942   0.847   2.301   7.519 -0.1246 -0.7663 -1.4244
   54CHL1   C16 3943   0.776   2.231   7.712 -0.3110 -0.7612  0.4842
   54CHL1  H16A 3944   0.724   2.139   7.744  1.0121 -0.5093  3.8941
   54CHL1  H16B 3945   0.881   2.221   7.748  0.6967 -0.9378 -2.3094
   54CHL1   C17 3946   0.693   2.336   7.794  0.6584 -0.5232  0.3797
   54CHL1   H17 3947   0.759   2.425   7.800 -1.9352  1.5372  0.3878
   54CHL1   C13 3948   0.573   2.385   7.697 -0.1443  0.7307  0.2777
   54CHL1   C18 3949   0.474   2.275   7.694 -0.5451 -0.1212 -0.4137
   54CHL1  H18A 3950   0.395   2.297   7.618  0.9247 -0.5010 -2.1124
   54CHL1  H18B 3951   0.520   2.180   7.659  1.0742  0.6367 -0.4255
   54CHL1  H18C 3952   0.429   2.253   7.793 -2.7424 -0.1959 -1.3506
   54CHL1   C12 3953   0.512   2.522   7.711 -0.3278 -0.4186  0.3934
   54CHL1  H12A 3954   0.459   2.507   7.808 -0.5841  0.1172  0.3396
   54CHL1  H12B 3955   0.582   2.608   7.720 -0.7924 -0.0892  0.9314
   54CHL1   C11 3956   0.423   2.555   7.587 -0.8443  0.2324  0.1300
   54CHL1  H11A 3957   0.337   2.486   7.594 -0.1682 -0.6905 -0.4641
   54CHL1  H11B 3958   0.376   2.656   7.588 -1.3099  0.0153  0.8127
   54CHL1    C9 3959   0.494   2.546   7.446 -0.6356  0.3745 -0.3420
   54CHL1    H9 3960   0.567   2.630   7.443 -0.4848  0.3424  1.4069
   54CHL1   C10 3961   0.402   2.565   7.321  0.6038  0.4559 -0.1254
   54CHL1   C19 3962   0.277   2.473   7.328 -0.5157 -0.0411  0.1880
   54CHL1  H19A 3963   0.300   2.368   7.353 -2.7009 -0.3435  1.1860
   54CHL1  H19B 3964   0.210   2.515   7.406 -0.7849 -1.6986  0.8844
   54CHL1  H19C 3965   0.223   2.479   7.231  1.3157  1.7750 -0.8095
   54CHL1    C1 3966   0.353   2.707   7.331 -0.7395 -0.2509 -0.6559
   54CHL1   H1A 3967   0.270   2.714   7.405 -1.7043  0.5585 -1.7779
   54CHL1   H1B 3968   0.435   2.777   7.356 -1.8323  0.4287  1.2192
   54CHL1    C2 3969   0.280   2.752   7.200  0.1253 -0.6270 -0.1128
   54CHL1   H2A 3970   0.245   2.857   7.212  0.0569 -0.9555  4.1849
   54CHL1   H2B 3971   0.190   2.687   7.190 -0.8554  0.5835  0.4114
   54CHL1   C20 3972   0.666   2.288   7.933 -0.5038 -0.7824 -0.1972
   54CHL1   H20 3973   0.607   2.194   7.938 -1.7868  0.0650  1.4569
   54CHL1   C21 3974   0.589   2.401   8.012 -0.3663 -0.9027  0.5838
   54CHL1  H21A 3975   0.594   2.394   8.123  2.4664 -0.0912  0.5874
   54CHL1  H21B 3976   0.487   2.397   7.968 -0.3096 -0.2439  0.3823
   54CHL1  H21C 3977   0.631   2.501   7.989  2.0124 -1.7920  0.7134
   54CHL1   C22 3978   0.792   2.243   8.016 -0.3510  0.0383  0.2128
   54CHL1  H22A 3979   0.760   2.223   8.120 -1.7878  0.6356 -0.1000
   54CHL1  H22B 3980   0.838   2.153   7.969  1.1027  0.3089  1.0439
   54CHL1   C23 3981   0.902   2.352   8.026 -0.1596 -0.1484 -0.7500
   54CHL1  H23A 3982   0.944   2.388   7.930 -1.7282  2.2553 -0.6138
   54CHL1  H23B 3983   0.848   2.439   8.071 -0.0839 -1.1846  1.5105
   54CHL1   C24 3984   1.004   2.294   8.114 -0.8357  0.0805 -0.5831
   54CHL1  H24A 3985   0.961   2.262   8.211 -0.7903 -0.2382 -0.6691
   54CHL1  H24B 3986   1.050   2.201   8.074  0.1356  0.3549 -0.1428
   54CHL1   C25 3987   1.124   2.388   8.136 -0.4917  0.1334 -0.5824
   54CHL1   H25 3988   1.158   2.421   8.036 -3.8553 -2.0578 -2.6260
   54CHL1   C26 3989   1.081   2.514   8.212 -0.0508 -0.3978 -0.3898
   54CHL1  H26A 3990   1.172   2.565   8.251 -0.3655  0.3357 -0.6000
   54CHL1  H26B 3991   1.025   2.589   8.153 -0.2572  2.6141  3.2494
   54CHL1  H26C 3992   1.033   2.487   8.308  2.3019 -2.7621  0.2554
   54CHL1   C27 3993   1.246   2.315   8.212  0.2997  0.5304 -0.3445
   54CHL1  H27A 3994   1.223   2.207   8.202 -1.1893  0.8957 -1.2091
   54CHL1  H27B 3995   1.344   2.344   8.167 -0.6640  1.3552 -2.0484
   54CHL1  H27C 3996   1.244   2.345   8.319  0.8269 -0.1640 -0.1367
   55CHL1    C3 3997   2.088   3.234   6.851  0.3713 -0.2905  0.1479
   55CHL1    H3 3998   2.167   3.199   6.920 -1.5855  1.0297  3.2606
   55CHL1    O3 3999   2.129   3.214   6.716 -0.4244 -0.1269  0.0077
   55CHL1   H3' 4000   2.087   3.285   6.667 -1.4272 -0.6811  0.0245
   55CHL1    C4 4001   1.970   3.143   6.893  0.0900 -0.6801 -0.5588
   55CHL1   H4A 4002   1.881   3.159   6.828 -1.6351  0.0545  1.8476
   55CHL1   H4B 4003   2.005   3.039   6.873  1.0171 -0.3635 -0.6550
   55CHL1    C5 4004   1.934   3.144   7.035  0.4870 -1.1409  0.1247
   55CHL1    C6 4005   1.928   3.036   7.115  0.3517  0.9545  0.8497
   55CHL1    H6 4006   1.947   2.936   7.074 -0.1187  0.9176  0.7198
   55CHL1    C7 4007   1.879   3.049   7.259  0.6650 -0.2469  0.7467
   55CHL1   H7A 4008   1.792   2.981   7.273  0.9324 -0.3231  2.1577
   55CHL1   H7B 4009   1.963   3.012   7.321  1.8060  1.2672  0.1623
   55CHL1    C8 4010   1.829   3.190   7.305  0.1156  0.2245 -0.5742
   55CHL1    H8 4011   1.726   3.204   7.266 -0.5585  0.0122  1.0181
   55CHL1   C14 4012   1.842   3.207   7.455 -0.2748  0.2696  0.0284
   55CHL1   H14 4013   1.949   3.191   7.481 -0.3858 -0.7478 -0.1181
   55CHL1   C15 4014   1.776   3.092   7.541  0.3057 -0.2985  0.0849
   55CHL1  H15A 4015   1.675   3.073   7.497  1.5434  0.4269 -3.4390
   55CHL1  H15B 4016   1.839   3.001   7.545  1.5885  0.4785 -1.1313
   55CHL1   C16 4017   1.762   3.156   7.676 -0.2563 -0.0865 -0.1882
   55CHL1  H16A 4018   1.656   3.158   7.708 -0.0318 -0.0562  0.5948
   55CHL1  H16B 4019   1.814   3.100   7.758 -0.1392 -1.1805 -0.9881
   55CHL1   C17 4020   1.817   3.309   7.673 -0.8282  0.4585  0.7955
   55CHL1   H17 4021   1.924   3.298   7.702 -0.6555 -2.4726 -0.5842
   55CHL1   C13 4022   1.801   3.341   7.520  0.5072  0.2439 -0.4348
   55CHL1   C18 4023   1.648   3.376   7.495 -0.0306  0.4475  0.1236
   55CHL1  H18A 4024   1.615   3.348   7.393 -0.0607  0.3285  0.1649
   55CHL1  H18B 4025   1.590   3.323   7.573  1.1455  0.8598  1.3145
   55CHL1  H18C 4026   1.633   3.484   7.514  0.7225  0.2740  1.9072
   55CHL1   C12 4027   1.889   3.449   7.457 -0.2446 -0.4523  0.4304
   55CHL1  H12A 4028   1.855   3.550   7.490  0.0361 -0.1853 -0.0849
   55CHL1  H12B 4029   1.995   3.429   7.482  1.0908  2.8495 -1.8598
   55CHL1   C11 4030   1.886   3.444   7.297  0.0613 -0.1215  0.1037
   55CHL1  H11A 4031   1.782   3.471   7.266 -0.1715 -0.8686  0.2103
   55CHL1  H11B 4032   1.956   3.519   7.254  0.6921 -2.2628 -2.8872
   55CHL1    C9 4033   1.915   3.307   7.240 -0.5933  0.1704  0.5650
   55CHL1    H9 4034   2.022   3.283   7.260 -0.3688  0.1022 -0.6672
   55CHL1   C10 4035   1.925   3.295   7.086  0.3232  0.2758  0.9123
   55CHL1   C19 4036   1.785   3.347   7.020  0.4504 -0.0542  0.6359
   55CHL1  H19A 4037   1.707   3.276   7.053  1.3121 -1.4055 -0.0971
   55CHL1  H19B 4038   1.747   3.446   7.053  2.0841  0.5573  0.8115
   55CHL1  H19C 4039   1.789   3.343   6.909 -1.9783 -1.1146  0.5324
   55CHL1    C1 4040   2.043   3.382   7.032  0.1770  0.2973 -0.7736
   55CHL1   H1A 4041   2.021   3.488   7.056 -1.3786 -0.5797  2.1760
   55CHL1   H1B 4042   2.129   3.343   7.089 -1.7856  1.1628  3.0919
   55CHL1    C2 4043   2.056   3.372   6.880 -0.1261 -0.1285 -0.1801
   55CHL1   H2A 4044   2.137   3.436   6.840  0.6764 -1.4488 -0.7687
   55CHL1   H2B 4045   1.965   3.388   6.818  0.6971 -1.8760 -1.9409
   55CHL1   C20 4046   1.751   3.404   7.773  0.1162  0.2488 -1.2011
   55CHL1   H20 4047   1.641   3.412   7.755  0.1655  0.6427 -1.3353
   55CHL1   C21 4048   1.820   3.540   7.775  0.4394 -0.0169  0.3991
   55CHL1  H21A 4049   1.780   3.596   7.862  0.6409  1.0297 -0.1658
   55CHL1  H21B 4050   1.800   3.597   7.681  0.2611 -1.5402 -0.5179
   55CHL1  H21C 4051   1.930   3.531   7.792  0.6001 -0.9915 -0.9587
   55CHL1   C22 4052   1.750   3.344   7.920 -0.0349  0.6240  0.3234
   55CHL1  H22A 4053   1.693   3.409   7.990 -1.0935  0.4318 -0.3350
   55CHL1  H22B 4054   1.691   3.250   7.919 -0.8566  1.1030  1.6704
   55CHL1   C23 4055   1.888   3.310   7.972 -0.1830  0.1110 -0.0926
   55CHL1  H23A 4056   1.952   3.257   7.898 -2.0415 -1.1886 -0.8421
   55CHL1  H23B 4057   1.938   3.404   8.004  1.5680 -0.4442 -1.0890
   55CHL1   C24 4058   1.883   3.218   8.092  0.1105 -0.6413 -1.1624
   55CHL1  H24A 4059   1.812   3.263   8.165  0.8665  0.2691 -0.9660
   55CHL1  H24B 4060   1.846   3.119   8.061 -2.6104  0.3980 -1.4889
   55CHL1   C25 4061   2.007   3.191   8.184  0.2937 -0.1633  1.2594
   55CHL1   H25 4062   2.034   3.292   8.223 -1.6133  0.2111  1.7351
   55CHL1   C26 4063   1.961   3.102   8.297  0.1547  0.1368 -1.4964
   55CHL1  H26A 4064   1.881   3.150   8.358 -0.8100 -1.2340 -1.6113
   55CHL1  H26B 4065   1.929   3.002   8.258  0.9880 -0.2877 -1.1121
   55CHL1  H26C 4066   2.047   3.084   8.365 -0.8134  0.1124 -0.2273
   55CHL1   C27 4067   2.111   3.131   8.099  0.4102  0.0824 -0.0086
   55CHL1  H27A 4068   2.079   3.056   8.024 -0.2531 -0.0046  0.3548
   55CHL1  H27B 4069   2.179   3.207   8.053  1.0836  0.3259  1.3456
   55CHL1  H27C 4070   2.179   3.096   8.179  1.3075  3.1218  0.7200
   56CHL1    C3 4071   0.747   2.106   6.747  0.4222 -0.0599 -0.3671
   56CHL1    H3 4072   0.671   2.160   6.806  1.5420  1.9595 -0.6646
   56CHL1    O3 4073   0.736   2.159   6.620 -0.1278  0.1776  0.3363
   56CHL1   H3' 4074   0.653   2.119   6.592 -0.6101  0.1160  1.7624
   56CHL1    C4 4075   0.893   2.137   6.804 -0.3419 -0.2755 -0.4190
   56CHL1   H4A 4076   0.980   2.104   6.743  1.0966 -0.5194  1.6492
   56CHL1   H4B 4077   0.899   2.248   6.812 -0.4543 -0.2388 -0.8204
   56CHL1    C5 4078   0.900   2.081   6.942  0.3453  0.0438  0.0001
   56CHL1    C6 4079   0.911   2.166   7.045 -0.0457 -0.2114 -0.2869
   56CHL1    H6 4080   0.897   2.274   7.028 -0.2122 -0.1195  0.3878
   56CHL1    C7 4081   0.927   2.117   7.189 -0.1687  0.2746  0.2198
   56CHL1   H7A 4082   1.011   2.170   7.239 -0.5572  1.0198  0.0993
   56CHL1   H7B 4083   0.838   2.146   7.248 -0.6272 -0.6354 -0.0037
   56CHL1    C8 4084   0.967   1.967   7.210  1.0261 -0.1378  0.8411
   56CHL1    H8 4085   1.075   1.959   7.183  0.2518  0.3538 -2.9967
   56CHL1   C14 4086   0.943   1.916   7.352  0.5253  0.0030  0.7658
   56CHL1   H14 4087   0.834   1.931   7.363  0.3999 -0.8744  0.7319
   56CHL1   C15 4088   1.005   1.987   7.472 -0.4738 -0.7243 -0.0033
   56CHL1  H15A 4089   1.111   2.009   7.450  0.0967 -2.2245  1.0587
   56CHL1  H15B 4090   0.949   2.080   7.495 -0.1094 -0.7474  1.0039
   56CHL1   C16 4091   0.998   1.893   7.593 -0.9352 -1.1474  0.8293
   56CHL1  H16A 4092   1.101   1.874   7.630  0.5977  1.6328 -1.5493
   56CHL1  H16B 4093   0.933   1.909   7.682 -1.7913  0.1841  0.0133
   56CHL1   C17 4094   0.946   1.762   7.522  0.2681  0.3009 -0.1981
   56CHL1   H17 4095   0.837   1.774   7.537  0.1791 -1.2350  0.6379
   56CHL1   C13 4096   0.970   1.767   7.369  0.2050  0.9801  0.0559
   56CHL1   C18 4097   1.115   1.735   7.336 -0.2013 -0.2647 -0.1259
   56CHL1  H18A 4098   1.153   1.637   7.371  1.0216  0.2013 -0.1157
   56CHL1  H18B 4099   1.147   1.759   7.232 -0.7407 -0.4609 -0.3427
   56CHL1  H18C 4100   1.175   1.806   7.396 -0.4714 -1.1399  1.2304
   56CHL1   C12 4101   0.871   1.696   7.272  0.6388 -0.1590 -0.8266
   56CHL1  H12A 4102   0.901   1.589   7.272 -2.0712 -1.0192  0.5308
   56CHL1  H12B 4103   0.764   1.718   7.292  0.8090  2.2108 -2.0763
   56CHL1   C11 4104   0.889   1.726   7.127  0.2696 -0.7442  0.3200
   56CHL1  H11A 4105   0.983   1.675   7.096  0.0308 -0.8703 -0.2086
   56CHL1  H11B 4106   0.808   1.682   7.065 -0.3212  0.0487  0.5242
   56CHL1    C9 4107   0.889   1.886   7.103 -0.8528 -0.4758 -0.4274
   56CHL1    H9 4108   0.784   1.915   7.127  0.0938  2.1208  0.9445
   56CHL1   C10 4109   0.900   1.930   6.961  0.1949 -0.6543  0.3899
   56CHL1   C19 4110   1.033   1.881   6.891  0.5835  0.8927  0.4341
   56CHL1  H19A 4111   1.119   1.909   6.956 -0.4474  0.0939  2.2271
   56CHL1  H19B 4112   1.037   1.770   6.884 -1.2269  0.8062  0.3094
   56CHL1  H19C 4113   1.045   1.917   6.787 -0.5154 -1.1542 -0.4509
   56CHL1    C1 4114   0.781   1.879   6.873  0.4003 -0.2091  0.4872
   56CHL1   H1A 4115   0.803   1.779   6.830 -2.9898 -0.7021 -0.3928
   56CHL1   H1B 4116   0.693   1.887   6.940 -0.2150  0.8478 -0.4182
   56CHL1    C2 4117   0.731   1.953   6.750 -0.1900  0.3000  1.1833
   56CHL1   H2A 4118   0.629   1.917   6.727 -0.1447  0.1586  1.2045
   56CHL1   H2B 4119   0.800   1.936   6.665 -0.9329  1.2961  0.3567
   56CHL1   C20 4120   0.971   1.627   7.598 -0.0984 -0.1358 -0.0864
   56CHL1   H20 4121   1.062   1.579   7.556  0.2681 -0.8265  1.4359
   56CHL1   C21 4122   0.853   1.535   7.567 -0.0203 -0.3885 -0.7641
   56CHL1  H21A 4123   0.760   1.577   7.611 -0.7435 -2.2371 -0.4168
   56CHL1  H21B 4124   0.878   1.436   7.611 -0.9320  0.1900  1.1063
   56CHL1  H21C 4125   0.830   1.519   7.459 -0.0933  0.9746 -0.9725
   56CHL1   C22 4126   0.991   1.650   7.755  0.5600  0.1173 -0.4357
   56CHL1  H22A 4127   1.074   1.719   7.783 -1.0681  2.9089 -1.9973
   56CHL1  H22B 4128   0.898   1.691   7.798  1.6867  0.1837  2.1151
   56CHL1   C23 4129   1.018   1.514   7.828 -0.1405  0.6552  0.1097
   56CHL1  H23A 4130   0.943   1.438   7.799 -0.6955  1.9848 -2.1990
   56CHL1  H23B 4131   1.118   1.480   7.792 -0.3183  0.9737 -0.7033
   56CHL1   C24 4132   1.018   1.531   7.978  0.2047  0.5065 -0.6307
   56CHL1  H24A 4133   1.101   1.597   8.009  0.1056 -0.0169  0.8267
   56CHL1  H24B 4134   0.922   1.573   8.016  1.1725 -0.7279  3.6309
   56CHL1   C25 4135   1.036   1.396   8.050 -0.2123  0.4825  0.7840
   56CHL1   H25 4136   0.970   1.322   7.999  2.3233 -0.7217 -0.9554
   56CHL1   C26 4137   1.182   1.347   8.042  0.1660  0.0341  0.1272
   56CHL1  H26A 4138   1.224   1.336   7.940  3.1154 -0.6108  1.3077
   56CHL1  H26B 4139   1.202   1.247   8.087  2.1079 -0.1118 -0.9613
   56CHL1  H26C 4140   1.246   1.417   8.099 -0.7994 -0.6576  2.1531
   56CHL1   C27 4141   1.013   1.413   8.205  0.7386  0.2734  1.3786
   56CHL1  H27A 4142   1.024   1.312   8.251  1.3442  0.7976  2.4148
   56CHL1  H27B 4143   1.083   1.487   8.248  1.5870  0.3854 -0.1183
   56CHL1  H27C 4144   0.906   1.440   8.215 -0.8560 -3.8812 -1.3488
   57SAPC     N 4145   1.782   3.431  10.950 -0.0645  0.2519 -0.2512
   57SAPC   C12 4146   1.826   3.307  10.880  0.4775 -0.6234 -0.2057
   57SAPC  H12A 4147   1.813   3.220  10.943  0.5784 -1.6119 -1.5008
   57SAPC  H12B 4148   1.932   3.307  10.862  0.2177  0.0483 -2.0338
   57SAPC   C13 4149   1.636   3.408  10.993  0.8816  0.0412  0.6369
   57SAPC  H13A 4150   1.618   3.321  11.054  0.9526  0.5072  1.3358
   57SAPC  H13B 4151   1.601   3.501  11.034  1.1383  0.0889  0.7551
   57SAPC  H13C 4152   1.581   3.384  10.903 -1.1097  3.2208  0.8341
   57SAPC   C14 4153   1.863   3.447  11.066  0.1664 -0.0895 -1.2158
   57SAPC  H14A 4154   1.840   3.531  11.129  2.5601 -0.8009  0.7645
   57SAPC  H14B 4155   1.855   3.370  11.141 -1.3542  1.7503  0.6471
   57SAPC  H14C 4156   1.968   3.454  11.041  0.7811  1.9001  1.5037
   57SAPC   C15 4157   1.784   3.553  10.869 -0.1132 -0.3435 -0.1244
   57SAPC  H15A 4158   1.737   3.544  10.772  2.2521 -1.9625 -1.2106
   57SAPC  H15B 4159   1.730   3.632  10.919 -0.3320  0.2814 -1.3194
   57SAPC  H15C 4160   1.884   3.592  10.852 -0.9358  1.9646 -0.0790
   57SAPC   C11 4161   1.751   3.262  10.745 -0.0927 -0.6180 -0.1647
   57SAPC  H11A 4162   1.811   3.182  10.697  0.4948 -0.5808  0.4876
   57SAPC  H11B 4163   1.748   3.352  10.680 -0.4221  1.2172  2.2182
   57SAPC     P 4164   1.548   3.128  10.669  0.4655 -0.0341 -0.0938
   57SAPC   O13 4165   1.545   2.983  10.718 -0.1977 -0.2191  0.2194
   57SAPC   O14 4166   1.415   3.189  10.643  0.2665 -0.3761 -0.0362
   57SAPC   O12 4167   1.619   3.226  10.771 -0.6590  0.6135 -0.2101
   57SAPC   O11 4168   1.638   3.128  10.531 -0.5540  0.5495  0.0421
   57SAPC    C1 4169   1.605   3.233  10.434 -1.0085  0.5141 -0.2700
   57SAPC    HA 4170   1.561   3.322  10.484  0.3529  0.1057  1.7607
   57SAPC    HB 4171   1.699   3.258  10.381  1.4353 -2.6450  2.2074
   57SAPC    C2 4172   1.519   3.182  10.309  0.4452  0.3832  0.0944
   57SAPC    HS 4173   1.421   3.160  10.356 -1.6771  2.2384 -3.0549
   57SAPC   O21 4174   1.583   3.078  10.245 -0.4701 -0.1685 -0.3725
   57SAPC   C21 4175   1.499   2.999  10.180  0.1758  0.2847 -0.3299
   57SAPC   O22 4176   1.377   2.986  10.199  0.8220  0.3436 -0.5294
   57SAPC   C22 4177   1.580   2.906  10.088 -0.3551 -0.0197 -0.4193
   57SAPC   H2R 4178   1.684   2.942  10.072  0.0080 -0.4299  0.8520
   57SAPC   H2S 4179   1.593   2.805  10.131 -2.9464  0.0747  0.7919
   57SAPC    C3 4180   1.486   3.299  10.208  0.9572 -0.0214  0.0513
   57SAPC    HX 4181   1.583   3.307  10.155  0.5973 -0.9651 -0.7852
   57SAPC    HY 4182   1.467   3.399  10.252  0.4975  0.4277 -1.1144
   57SAPC   O31 4183   1.384   3.262  10.115  0.2045 -0.3237  0.4317
   57SAPC   C31 4184   1.256   3.265  10.152 -0.3377  0.5249 -0.3676
   57SAPC   O32 4185   1.213   3.294  10.262 -0.4852 -0.3531 -0.4804
   57SAPC   C32 4186   1.165   3.213  10.038  0.0343 -0.2704  0.0792
   57SAPC   H2X 4187   1.120   3.125  10.089 -1.8648  0.9541  0.6406
   57SAPC   H2Y 4188   1.238   3.189   9.958 -1.7157  1.8812 -2.3460
   57SAPC   C23 4189   1.518   2.889   9.949 -0.1134 -0.3323 -0.0702
   57SAPC   H3R 4190   1.410   2.915   9.955  0.5863  3.3798 -0.7331
   57SAPC   H3S 4191   1.534   2.783   9.920  0.9110 -0.7884  1.9549
   57SAPC   C24 4192   1.573   2.974   9.830  0.3145 -0.2223  0.0927
   57SAPC   H4R 4193   1.522   2.931   9.741 -0.8374 -0.6791  0.9484
   57SAPC   H4S 4194   1.681   2.954   9.812 -0.0672 -1.2572 -1.1671
   57SAPC   C25 4195   1.534   3.117   9.847  0.1265  0.4296  0.4045
   57SAPC   H5R 4196   1.571   3.169   9.937  1.7493  2.8234 -1.5180
   57SAPC   C26 4197   1.443   3.178   9.770 -0.1356  0.5318  0.5338
   57SAPC   H6R 4198   1.422   3.285   9.789  0.1697  0.3707  1.8814
   57SAPC   C27 4199   1.372   3.111   9.651  0.6591  0.0030 -0.4689
   57SAPC   H7R 4200   1.318   3.023   9.692 -0.0054  1.4139  1.8286
   57SAPC   H7S 4201   1.438   3.073   9.570 -0.7365  0.8519 -2.0520
   57SAPC   C28 4202   1.274   3.209   9.595 -0.7467 -0.9088 -0.2161
   57SAPC   H8R 4203   1.233   3.284   9.664 -0.6387  0.6039 -1.7340
   57SAPC   C29 4204   1.211   3.205   9.478 -0.3911  0.1015 -0.3260
   57SAPC   H9R 4205   1.134   3.280   9.455 -1.2419 -0.7322 -0.2595
   57SAPC  C210 4206   1.234   3.103   9.376  0.4551  0.6053 -0.2165
   57SAPC  H10R 4207   1.135   3.077   9.334  0.1561 -0.5461  1.1325
   57SAPC  H10S 4208   1.287   3.011   9.409  0.7844  0.1209 -1.9449
   57SAPC  C211 4209   1.327   3.157   9.267 -0.5942 -0.2308  0.1685
   57SAPC  H11R 4210   1.405   3.231   9.293 -0.4753 -0.2836 -0.0392
   57SAPC  C212 4211   1.319   3.118   9.138  0.1168  0.3717 -0.2754
   57SAPC  H12R 4212   1.390   3.160   9.065 -1.4396  2.8468 -0.4792
   57SAPC  C213 4213   1.213   3.030   9.076  0.6887  0.3975  0.4159
   57SAPC  H13R 4214   1.132   3.090   9.029 -0.1222 -1.6043 -0.8669
   57SAPC  H13S 4215   1.160   2.973   9.156  1.4779  2.2392  2.3338
   57SAPC  C214 4216   1.275   2.935   8.977  0.5284  0.6295 -0.1193
   57SAPC  H14R 4217   1.376   2.901   9.005  0.7437 -1.6715 -3.1601
   57SAPC  C215 4218   1.222   2.905   8.858  0.4497  0.1024  0.7722
   57SAPC  H15R 4219   1.275   2.829   8.799  2.1439  0.4810  1.7303
   57SAPC  C216 4220   1.094   2.956   8.796 -0.6394  0.4737 -0.3783
   57SAPC  H16R 4221   1.037   3.025   8.862 -0.6155 -1.1933  1.4726
   57SAPC  H16S 4222   1.023   2.875   8.769  0.4017 -0.4094 -0.5455
   57SAPC  C217 4223   1.103   3.043   8.662 -0.0065  1.5198  0.1315
   57SAPC  H17R 4224   1.164   3.131   8.690  0.8058  0.5739  1.4460
   57SAPC  H17S 4225   1.003   3.078   8.628 -0.7086  0.7463  1.2852
   57SAPC  C218 4226   1.170   2.959   8.545  0.4211 -0.6682  0.9931
   57SAPC  H18R 4227   1.121   2.865   8.512  0.0681 -0.4583  0.9084
   57SAPC  H18S 4228   1.271   2.933   8.582  0.3404 -0.5317  1.3108
   57SAPC  C219 4229   1.174   3.040   8.412 -0.3907  0.4688 -0.2944
   57SAPC  H19R 4230   1.069   3.063   8.384 -0.5369 -0.2208 -0.3242
   57SAPC  H19S 4231   1.219   2.972   8.336  1.8698  1.2430  0.2640
   57SAPC  C220 4232   1.258   3.174   8.414  0.3363  0.7374  0.0560
   57SAPC  H20R 4233   1.255   3.202   8.307 -1.6633  0.9700  0.1247
   57SAPC  H20S 4234   1.366   3.160   8.436 -0.1921  1.2999  3.5222
   57SAPC  H20T 4235   1.210   3.250   8.480  0.3608 -0.0874  1.0548
   57SAPC   C33 4236   1.053   3.314  10.001 -0.5034  0.3786 -0.9525
   57SAPC   H3X 4237   0.992   3.329  10.092 -0.7379  0.4058 -1.1119
   57SAPC   H3Y 4238   0.982   3.271   9.928  0.5619 -0.6589 -1.4094
   57SAPC   C34 4239   1.106   3.440   9.928  0.4952 -0.3459  0.2934
   57SAPC   H4X 4240   1.149   3.409   9.831 -1.1200 -1.7520 -0.0195
   57SAPC   H4Y 4241   1.187   3.491   9.985  0.7388 -0.6564  0.2250
   57SAPC   C35 4242   0.999   3.552   9.898 -0.9117 -0.0419  0.0260
   57SAPC   H5X 4243   1.056   3.648   9.893 -0.5288 -0.0530  2.6005
   57SAPC   H5Y 4244   0.922   3.574   9.975 -1.8632  1.5200 -1.3049
   57SAPC   C36 4245   0.930   3.525   9.759  0.1586  0.0233  1.2115
   57SAPC   H6X 4246   0.848   3.600   9.751 -0.3062 -0.6406 -0.9372
   57SAPC   H6Y 4247   0.871   3.431   9.754  2.1616 -1.2495 -1.1984
   57SAPC   C37 4248   1.020   3.545   9.628  0.3492 -0.0859  0.1790
   57SAPC   H7X 4249   1.090   3.458   9.620  1.0788  0.5841 -1.1566
   57SAPC   H7Y 4250   1.068   3.644   9.645 -1.6331  0.7411  1.2888
   57SAPC   C38 4251   0.954   3.528   9.497 -0.1313 -0.1426  0.1981
   57SAPC   H8X 4252   0.850   3.565   9.505  0.9255  3.3397 -0.6673
   57SAPC   H8Y 4253   0.943   3.420   9.473  1.1953 -0.1917 -0.2759
   57SAPC   C39 4254   1.024   3.601   9.379  0.5024 -0.9072  0.0783
   57SAPC   H9X 4255   1.132   3.577   9.383  0.9904  0.9735 -1.0399
   57SAPC   H9Y 4256   1.011   3.710   9.391 -4.2720 -1.1008 -1.1756
   57SAPC  C310 4257   0.980   3.570   9.238  0.8883  0.7745 -0.3192
   57SAPC  H10X 4258   1.009   3.653   9.170  0.3103  0.6155 -0.7728
   57SAPC  H10Y 4259   0.869   3.577   9.236  0.3901 -2.9474  3.0842
   57SAPC  C311 4260   1.030   3.430   9.189 -0.9787 -0.2998  0.7456
   57SAPC  H11X 4261   0.976   3.337   9.219  0.3205 -0.9397  1.2249
   57SAPC  H11Y 4262   1.134   3.412   9.227 -0.8590  0.8002  0.9513
   57SAPC  C312 4263   1.038   3.434   9.032  1.3011  0.1877  0.4452
   57SAPC  H12X 4264   0.940   3.469   8.994  0.6812 -0.0119  1.7884
   57SAPC  H12Y 4265   1.059   3.335   8.986 -1.7779  0.6246 -2.2093
   57SAPC  C313 4266   1.161   3.518   8.987 -0.1897  0.0014 -0.1290
   57SAPC  H13X 4267   1.255   3.480   9.032  0.2138 -0.9720 -1.6876
   57SAPC  H13Y 4268   1.134   3.621   9.019  0.1361  0.1364 -0.2905
   57SAPC  C314 4269   1.207   3.500   8.840  1.1505 -0.0952 -1.4164
   57SAPC  H14X 4270   1.232   3.393   8.821  0.8202 -0.8506  1.8278
   57SAPC  H14Y 4271   1.292   3.570   8.827  1.4659  0.5286  2.7368
   57SAPC  C315 4272   1.094   3.539   8.749 -0.3125 -0.9550  0.1008
   57SAPC  H15X 4273   1.028   3.614   8.797 -0.4727  0.8356 -2.7014
   57SAPC  H15Y 4274   1.030   3.449   8.738 -0.1794 -1.1163  0.5990
   57SAPC  C316 4275   1.141   3.591   8.609 -0.3689  0.0708 -0.3249
   57SAPC  H16X 4276   1.051   3.590   8.543  0.2671 -0.4092 -1.2040
   57SAPC  H16Y 4277   1.220   3.528   8.564 -0.1550  0.5825 -0.6692
   57SAPC  C317 4278   1.219   3.728   8.613 -0.0258  0.8922 -0.8115
   57SAPC  H17X 4279   1.304   3.721   8.684 -0.4167  1.6583 -0.2458
   57SAPC  H17Y 4280   1.142   3.801   8.647  0.0382 -0.0499  1.5778
   57SAPC  C318 4281   1.264   3.772   8.476  0.2999 -0.3387 -0.1071
   57SAPC  H18X 4282   1.183   3.733   8.411  0.6217 -0.4712 -0.4332
   57SAPC  H18Y 4283   1.365   3.734   8.447  0.7114  1.0377 -0.5338
   57SAPC  H18Z 4284   1.271   3.882   8.469  0.9846 -0.3366  0.4512
   58SAPC     N 4285   4.990   4.255  10.342 -0.7119  0.4706  0.0380
   58SAPC   C12 4286   4.856   4.225  10.407  0.3699  0.0378 -0.4460
   58SAPC  H12A 4287   4.809   4.135  10.370 -1.0556  1.1042 -1.2931
   58SAPC  H12B 4288   4.789   4.309  10.396  0.1858 -0.3283 -2.5991
   58SAPC   C13 4289   5.089   4.153  10.381  0.1032  0.1739  0.2416
   58SAPC  H13A 4290   5.074   4.058  10.332 -1.5117  1.2457 -1.4575
   58SAPC  H13B 4291   5.190   4.184  10.358 -0.5467  3.6062  1.4271
   58SAPC  H13C 4292   5.106   4.146  10.487  0.1824  1.1867  0.3093
   58SAPC   C14 4293   4.972   4.259  10.191  0.5851 -0.1562  0.7335
   58SAPC  H14A 4294   5.070   4.256  10.145  0.9478 -4.4457  1.3077
   58SAPC  H14B 4295   4.920   4.170  10.157 -0.5339  0.9199 -0.4352
   58SAPC  H14C 4296   4.905   4.340  10.169  0.5501 -0.4828 -0.4534
   58SAPC   C15 4297   5.050   4.384  10.381 -0.3570  0.1971 -0.9828
   58SAPC  H15A 4298   5.152   4.390  10.348  0.5140 -0.4637  1.3717
   58SAPC  H15B 4299   4.997   4.472  10.346 -0.8356  1.1113  1.7449
   58SAPC  H15C 4300   5.058   4.402  10.487  0.8584  2.4377 -1.3900
   58SAPC   C11 4301   4.859   4.198  10.562  0.3848 -0.1942  0.3124
   58SAPC  H11A 4302   4.942   4.128  10.588  0.3012 -0.4791 -0.1768
   58SAPC  H11B 4303   4.766   4.144  10.590  0.3236  0.0913  0.6673
   58SAPC     P 4304   4.751   4.395  10.683 -0.1317 -0.1558  0.3786
   58SAPC   O13 4305   4.677   4.312  10.781 -0.1869  0.4033  0.4197
   58SAPC   O14 4306   4.780   4.533  10.733  0.5438 -0.4924  0.2031
   58SAPC   O12 4307   4.879   4.320  10.632 -0.3152 -0.1235  0.2327
   58SAPC   O11 4308   4.659   4.404  10.548  0.3560  0.0070  0.1718
   58SAPC    C1 4309   4.538   4.481  10.540 -0.8108 -0.8742  0.2678
   58SAPC    HA 4310   4.458   4.409  10.512 -1.3037  0.1812 -1.1817
   58SAPC    HB 4311   4.514   4.531  10.636  1.5449  1.0740 -0.0487
   58SAPC    C2 4312   4.547   4.586  10.434  0.5037 -0.0136  0.6751
   58SAPC    HS 4313   4.578   4.674  10.495 -1.3989  0.4798  1.0046
   58SAPC   O21 4314   4.422   4.609  10.367 -1.0760 -0.0247 -0.2363
   58SAPC   C21 4315   4.398   4.732  10.334 -0.2389 -0.1533  0.0990
   58SAPC   O22 4316   4.482   4.822  10.328 -0.0524 -0.3346 -0.3134
   58SAPC   C22 4317   4.254   4.753  10.292 -0.0965 -0.5120  0.8639
   58SAPC   H2R 4318   4.248   4.694  10.198  0.3291 -1.1160  1.2103
   58SAPC   H2S 4319   4.179   4.711  10.363 -0.6534 -1.2853 -0.1475
   58SAPC    C3 4320   4.656   4.548  10.328 -0.2583 -0.6486  0.5426
   58SAPC    HX 4321   4.635   4.446  10.289  2.7636 -1.7089  1.3519
   58SAPC    HY 4322   4.746   4.538  10.393 -0.4389  0.1045  0.9199
   58SAPC   O31 4323   4.682   4.653  10.232 -0.3121  0.7057  0.6426
   58SAPC   C31 4324   4.777   4.614  10.146 -0.5701  0.5008  0.5994
   58SAPC   O32 4325   4.811   4.500  10.125 -0.3379  0.0265  0.0329
   58SAPC   C32 4326   4.819   4.737  10.057 -0.6786 -0.6134  0.5799
   58SAPC   H2X 4327   4.906   4.786  10.106 -0.5434  0.0702 -0.3103
   58SAPC   H2Y 4328   4.735   4.806  10.037  0.7339  0.9438 -0.2810
   58SAPC   C23 4329   4.228   4.906  10.282  0.3566 -0.1565 -0.0186
   58SAPC   H3R 4330   4.258   4.966  10.371  0.1062  0.6434 -0.4608
   58SAPC   H3S 4331   4.117   4.911  10.280  0.3125 -0.8452  0.4432
   58SAPC   C24 4332   4.280   4.967  10.153 -0.3462 -0.0139  1.0182
   58SAPC   H4R 4333   4.390   4.962  10.159 -0.2479 -0.3860 -0.5636
   58SAPC   H4S 4334   4.260   5.076  10.161  1.4331  0.3007  1.4498
   58SAPC   C25 4335   4.224   4.903  10.025 -0.1529 -0.0655  0.1777
   58SAPC   H5R 4336   4.115   4.895  10.016 -0.0789  0.0485 -0.8928
   58SAPC   C26 4337   4.293   4.830   9.934 -0.1451 -0.6443  0.4981
   58SAPC   H6R 4338   4.239   4.808   9.841 -0.5116 -1.1348  0.8248
   58SAPC   C27 4339   4.435   4.796   9.936 -0.6254 -0.0007 -0.1935
   58SAPC   H7R 4340   4.477   4.815  10.037  0.7232  0.9417 -0.8962
   58SAPC   H7S 4341   4.489   4.868   9.871 -3.1933  1.8701 -0.3810
   58SAPC   C28 4342   4.458   4.646   9.918  0.3406  0.4460 -0.4401
   58SAPC   H8R 4343   4.462   4.602  10.019 -1.0242  1.5672  0.1286
   58SAPC   C29 4344   4.475   4.571   9.812 -0.6950  0.3139 -0.3695
   58SAPC   H9R 4345   4.502   4.465   9.825 -0.9984  0.3366  0.5189
   58SAPC  C210 4346   4.470   4.620   9.669  0.4598  0.0617 -0.5642
   58SAPC  H10R 4347   4.401   4.707   9.658  0.4088 -0.0437 -1.0740
   58SAPC  H10S 4348   4.412   4.540   9.618 -0.1223  0.5763 -0.7251
   58SAPC  C211 4349   4.597   4.663   9.603  0.2732  0.4301  0.4757
   58SAPC  H11R 4350   4.687   4.688   9.661  0.9728  0.8312 -0.7593
   58SAPC  C212 4351   4.620   4.651   9.469 -0.7254 -0.2471 -0.4983
   58SAPC  H12R 4352   4.717   4.690   9.434 -0.1305 -0.1991  1.0935
   58SAPC  C213 4353   4.517   4.594   9.364  0.4202  0.5807 -0.1420
   58SAPC  H13R 4354   4.429   4.542   9.410  0.3387 -0.3291 -1.2884
   58SAPC  H13S 4355   4.578   4.540   9.289  0.6220 -0.2558  0.5995
   58SAPC  C214 4356   4.444   4.709   9.293 -0.2078 -0.3228  0.6757
   58SAPC  H14R 4357   4.390   4.772   9.365 -0.6234 -2.9833  2.8778
   58SAPC  C215 4358   4.425   4.735   9.162 -0.3112 -0.5294 -0.0787
   58SAPC  H15R 4359   4.380   4.832   9.135  1.1672  0.2575  0.1915
   58SAPC  C216 4360   4.477   4.663   9.040 -0.2071 -0.1827 -0.3213
   58SAPC  H16R 4361   4.393   4.633   8.973 -0.9636 -0.4337  0.7061
   58SAPC  H16S 4362   4.535   4.576   9.077 -1.2473  0.1697  2.3375
   58SAPC  C217 4363   4.557   4.762   8.958 -0.5984  0.5714 -0.0407
   58SAPC  H17R 4364   4.641   4.796   9.023 -1.2665 -1.5376  2.0595
   58SAPC  H17S 4365   4.497   4.853   8.936 -3.9444 -0.7167  2.7077
   58SAPC  C218 4366   4.611   4.686   8.840  0.4258 -0.4489  0.2670
   58SAPC  H18R 4367   4.523   4.652   8.782 -0.5964 -0.5890  1.8400
   58SAPC  H18S 4368   4.673   4.597   8.864  0.5713 -0.4251 -0.0119
   58SAPC  C219 4369   4.713   4.769   8.759  0.2576 -0.2970 -0.0780
   58SAPC  H19R 4370   4.813   4.722   8.742  1.8200  1.1217  4.0180
   58SAPC  H19S 4371   4.739   4.862   8.814  0.2527 -0.4274  0.1467
   58SAPC  C220 4372   4.640   4.809   8.626 -0.0639 -0.0515 -0.8305
   58SAPC  H20R 4373   4.699   4.867   8.552  0.1822 -0.0142 -0.6096
   58SAPC  H20S 4374   4.544   4.860   8.649  0.5477  0.1269  1.6056
   58SAPC  H20T 4375   4.613   4.715   8.573 -0.4878  0.7294 -2.0092
   58SAPC   C33 4376   4.877   4.688   9.927 -0.5402 -0.2631  0.1418
   58SAPC   H3X 4377   4.806   4.630   9.864 -1.7771  0.9083  0.4071
   58SAPC   H3Y 4378   4.979   4.647   9.942  0.0230  1.6933  2.3823
   58SAPC   C34 4379   4.919   4.811   9.845 -1.0439 -0.5712 -0.4068
   58SAPC   H4X 4380   5.002   4.872   9.886 -0.4294 -1.8569  0.3071
   58SAPC   H4Y 4381   4.838   4.887   9.840 -0.4899 -0.0108 -1.1191
   58SAPC   C35 4382   4.964   4.764   9.708 -0.3264 -0.4161 -0.5054
   58SAPC   H5X 4383   4.886   4.706   9.653 -1.1944  1.2114 -1.0621
   58SAPC   H5Y 4384   5.047   4.691   9.720 -2.8908 -3.1822  2.2196
   58SAPC   C36 4385   5.012   4.880   9.613  0.3255  0.2458 -0.0595
   58SAPC   H6X 4386   5.083   4.953   9.657  0.8377 -0.2808 -0.0058
   58SAPC   H6Y 4387   4.930   4.955   9.602 -0.8821 -0.9932  0.2643
   58SAPC   C37 4388   5.059   4.833   9.476  0.1030  0.1915 -0.2388
   58SAPC   H7X 4389   5.108   4.906   9.407 -0.7064 -1.8117 -3.1266
   58SAPC   H7Y 4390   4.981   4.785   9.412  0.7551  0.1442 -1.0196
   58SAPC   C38 4391   5.164   4.720   9.477 -1.1498 -0.2284  0.0879
   58SAPC   H8X 4392   5.125   4.630   9.527 -1.0508 -0.2528  0.1232
   58SAPC   H8Y 4393   5.258   4.746   9.531 -1.1532  0.4031 -0.1981
   58SAPC   C39 4394   5.209   4.678   9.341 -0.0264  0.2302  0.0606
   58SAPC   H9X 4395   5.127   4.638   9.278  0.1352 -1.6392  0.9940
   58SAPC   H9Y 4396   5.273   4.588   9.343 -1.7014 -1.0800 -1.7505
   58SAPC  C310 4397   5.291   4.787   9.268 -0.5927  0.7608  0.1259
   58SAPC  H10X 4398   5.363   4.828   9.342 -0.9479  1.4553  0.1006
   58SAPC  H10Y 4399   5.230   4.873   9.231 -0.7775  1.1249  1.2388
   58SAPC  C311 4400   5.375   4.714   9.157 -0.1309  0.5593 -0.2846
   58SAPC  H11X 4401   5.311   4.652   9.090 -1.1513 -0.7099  1.7453
   58SAPC  H11Y 4402   5.445   4.638   9.199 -3.7449 -2.7989  0.2898
   58SAPC  C312 4403   5.454   4.810   9.068  0.0705  0.4845  0.2004
   58SAPC  H12X 4404   5.524   4.867   9.134  2.0339 -1.6815  0.1404
   58SAPC  H12Y 4405   5.388   4.879   9.012  0.3342  0.5909  0.0198
   58SAPC  C313 4406   5.537   4.732   8.955 -0.0290  1.3566 -0.2552
   58SAPC  H13X 4407   5.469   4.649   8.927  1.4944 -0.3813  0.9778
   58SAPC  H13Y 4408   5.626   4.686   9.003 -1.3878 -2.0115 -0.7276
   58SAPC  C314 4409   5.582   4.819   8.842 -0.0188 -0.2593  0.0998
   58SAPC  H14X 4410   5.673   4.876   8.870 -1.0515 -0.4218  4.3587
   58SAPC  H14Y 4411   5.500   4.889   8.816 -1.1957 -1.3799  0.6761
   58SAPC  C315 4412   5.611   4.743   8.714  0.2270  0.2514 -0.5703
   58SAPC  H15X 4413   5.554   4.648   8.718  0.7175 -0.1121 -1.6940
   58SAPC  H15Y 4414   5.720   4.725   8.719  0.0053 -0.9324  0.2429
   58SAPC  C316 4415   5.576   4.829   8.588 -0.1713  1.0953 -0.7261
   58SAPC  H16X 4416   5.623   4.930   8.581 -0.1531  1.0795 -0.8406
   58SAPC  H16Y 4417   5.469   4.853   8.602  0.1209  1.4968  1.0497
   58SAPC  C317 4418   5.609   4.773   8.452 -0.4800 -0.0281  0.0285
   58SAPC  H17X 4419   5.589   4.848   8.373 -0.0534  1.1139  0.9748
   58SAPC  H17Y 4420   5.540   4.691   8.420  2.1555 -1.3186 -2.9258
   58SAPC  C318 4421   5.752   4.758   8.427  0.2740  0.6824  0.0202
   58SAPC  H18X 4422   5.803   4.845   8.472 -1.9845  0.9371  2.3032
   58SAPC  H18Y 4423   5.772   4.743   8.319 -1.5437 -1.5492 -0.1037
   58SAPC  H18Z 4424   5.800   4.674   8.483 -2.8238 -0.5611  1.0180
   59SAPC     N 4425   0.349   6.024  11.302 -0.1105  0.0885 -0.0592
   59SAPC   C12 4426   0.409   6.138  11.228  0.4178  0.1686 -0.5532
   59SAPC  H12A 4427   0.516   6.149  11.226  0.1570  3.7619 -1.8700
   59SAPC  H12B 4428   0.390   6.233  11.276  1.4861  0.9634 -1.6561
   59SAPC   C13 4429   0.383   5.884  11.245  0.2980  0.0051  0.3472
   59SAPC  H13A 4430   0.487   5.874  11.273  0.4940  1.2100  0.1137
   59SAPC  H13B 4431   0.322   5.811  11.297 -0.7037  0.2722 -0.4134
   59SAPC  H13C 4432   0.365   5.876  11.139  0.1383  0.6488  0.3218
   59SAPC   C14 4433   0.381   6.030  11.444 -0.6970  0.3113  0.1103
   59SAPC  H14A 4434   0.362   5.936  11.494 -0.3278 -0.5801 -1.3703
   59SAPC  H14B 4435   0.489   6.037  11.441 -0.7900  1.5174 -1.9726
   59SAPC  H14C 4436   0.348   6.122  11.488  2.5668  1.0578  1.3110
   59SAPC   C15 4437   0.199   6.024  11.305  0.8978  0.6404  0.0116
   59SAPC  H15A 4438   0.159   6.020  11.205  1.8269 -1.4949 -0.3187
   59SAPC  H15B 4439   0.154   5.945  11.363  3.2130 -1.1486 -0.4833
   59SAPC  H15C 4440   0.170   6.123  11.339 -3.1061  0.3895 -2.0393
   59SAPC   C11 4441   0.359   6.149  11.077 -0.0421  0.3776  0.3941
   59SAPC  H11A 4442   0.384   6.052  11.028  0.0210  0.1056  0.9628
   59SAPC  H11B 4443   0.425   6.223  11.028 -0.0182  0.0370 -0.1007
   59SAPC     P 4444   0.178   6.334  11.092 -0.1285  0.6314 -0.1488
   59SAPC   O13 4445   0.028   6.328  11.087 -0.1910 -0.2206  0.0382
   59SAPC   O14 4446   0.239   6.393  11.209  0.4830  0.7730  0.0095
   59SAPC   O12 4447   0.227   6.184  11.067 -0.2829 -0.1374 -1.2078
   59SAPC   O11 4448   0.231   6.413  10.967 -0.3469  0.3061  0.6523
   59SAPC    C1 4449   0.220   6.373  10.825  0.0056 -0.8527  0.0401
   59SAPC    HA 4450   0.317   6.340  10.781  0.5257  2.4766 -1.6482
   59SAPC    HB 4451   0.161   6.279  10.823 -1.3776  0.0101 -1.1730
   59SAPC    C2 4452   0.164   6.475  10.720 -0.1047 -0.8001 -0.2320
   59SAPC    HS 4453   0.237   6.559  10.711  1.6602 -2.3756 -1.4624
   59SAPC   O21 4454   0.035   6.518  10.771  0.6333  0.0155  0.2817
   59SAPC   C21 4455  -0.005   6.635  10.728  0.3895  0.2350  0.1131
   59SAPC   O22 4456   0.059   6.715  10.657 -0.0814 -0.4209 -0.4396
   59SAPC   C22 4457  -0.155   6.644  10.759 -0.1221  0.3843  0.4733
   59SAPC   H2R 4458  -0.195   6.540  10.752 -0.4328  0.4684  0.9426
   59SAPC   H2S 4459  -0.152   6.681  10.864 -0.8542 -2.1927  1.4922
   59SAPC    C3 4460   0.162   6.413  10.577 -0.1816 -0.2295  0.1389
   59SAPC    HX 4461   0.081   6.337  10.578  0.2490 -0.6931 -0.0236
   59SAPC    HY 4462   0.257   6.358  10.563  0.3547  1.1200 -1.9159
   59SAPC   O31 4463   0.131   6.503  10.472  0.2870  0.6544 -0.3037
   59SAPC   C31 4464   0.234   6.583  10.433  0.2359  0.7490  0.3289
   59SAPC   O32 4465   0.341   6.594  10.485  0.1800  0.4327 -0.6685
   59SAPC   C32 4466   0.172   6.674  10.329 -0.8512  0.1231  0.5917
   59SAPC   H2X 4467   0.171   6.774  10.377 -3.0819 -0.3863  1.7662
   59SAPC   H2Y 4468   0.064   6.650  10.318 -0.4997 -0.8993 -1.0198
   59SAPC   C23 4469  -0.234   6.740  10.670 -0.8468 -0.0455 -0.6597
   59SAPC   H3R 4470  -0.186   6.840  10.671 -2.2075  0.6348  0.1777
   59SAPC   H3S 4471  -0.318   6.769  10.738 -0.3207 -0.2677  0.0973
   59SAPC   C24 4472  -0.279   6.686  10.537 -0.2765 -0.5883 -0.7502
   59SAPC   H4R 4473  -0.352   6.603  10.549  2.1244 -2.5878  1.0869
   59SAPC   H4S 4474  -0.193   6.637  10.487  0.0939 -2.0284  1.1862
   59SAPC   C25 4475  -0.348   6.785  10.449  0.4379 -0.1464 -0.1944
   59SAPC   H5R 4476  -0.452   6.805  10.476  0.9052  1.3487  0.5717
   59SAPC   C26 4477  -0.307   6.833  10.330  0.6031  0.2427 -0.8049
   59SAPC   H6R 4478  -0.374   6.898  10.271 -0.1422  1.0838  0.8998
   59SAPC   C27 4479  -0.172   6.795  10.274 -0.2638 -0.1852  0.0252
   59SAPC   H7R 4480  -0.171   6.707  10.206  0.6032 -0.7677  0.7636
   59SAPC   H7S 4481  -0.094   6.777  10.352  0.8887  0.8403 -0.8516
   59SAPC   C28 4482  -0.125   6.917  10.204 -0.3847 -0.3990  0.3641
   59SAPC   H8R 4483  -0.113   7.009  10.263  0.4320 -0.2978  0.0591
   59SAPC   C29 4484  -0.111   6.935  10.074 -0.0359  0.8078  0.1557
   59SAPC   H9R 4485  -0.075   7.033  10.037 -0.7851  0.6488 -1.0433
   59SAPC  C210 4486  -0.144   6.836   9.958  0.0420 -0.7737 -0.1292
   59SAPC  H10R 4487  -0.197   6.888   9.876  1.3908 -0.2558 -0.6964
   59SAPC  H10S 4488  -0.210   6.758  10.001 -0.1127  0.4807  2.0226
   59SAPC  C211 4489  -0.026   6.761   9.895 -0.5110 -0.5778 -0.0245
   59SAPC  H11R 4490   0.053   6.724   9.962 -1.4574  0.1689  1.5716
   59SAPC  C212 4491  -0.019   6.711   9.770  0.7301  0.5254  0.6131
   59SAPC  H12R 4492   0.073   6.653   9.751  1.9459  2.5490  0.0090
   59SAPC  C213 4493  -0.115   6.714   9.651  0.3873 -0.1605  0.0135
   59SAPC  H13R 4494  -0.054   6.756   9.569  0.5160  1.6603  1.0022
   59SAPC  H13S 4495  -0.197   6.788   9.653  1.7879  1.6104 -2.5357
   59SAPC  C214 4496  -0.182   6.581   9.628  0.1174 -0.4250  0.9192
   59SAPC  H14R 4497  -0.278   6.566   9.680 -0.1038  0.6878  0.8555
   59SAPC  C215 4498  -0.128   6.493   9.538  0.9234 -0.3763 -0.0865
   59SAPC  H15R 4499  -0.181   6.398   9.533  0.2813 -0.0507  0.4223
   59SAPC  C216 4500   0.003   6.509   9.458 -0.2155  0.6348  0.3519
   59SAPC  H16R 4501   0.090   6.458   9.506 -0.7501  0.7415  1.4655
   59SAPC  H16S 4502   0.038   6.614   9.449  0.2440  0.6337  1.8350
   59SAPC  C217 4503  -0.023   6.439   9.317 -0.6724 -0.1403  0.8556
   59SAPC  H17R 4504  -0.093   6.502   9.258  2.3543  0.6632 -2.1846
   59SAPC  H17S 4505  -0.060   6.336   9.336 -1.2682  0.0071  0.5219
   59SAPC  C218 4506   0.101   6.446   9.227  0.3519 -0.6017  0.2690
   59SAPC  H18R 4507   0.185   6.381   9.259  0.8427 -0.3732 -0.5234
   59SAPC  H18S 4508   0.157   6.542   9.229 -0.0116 -0.3919  1.1601
   59SAPC  C219 4509   0.076   6.418   9.082  0.1690  0.1898 -0.2471
   59SAPC  H19R 4510   0.003   6.493   9.045  2.6969  2.4014 -1.0864
   59SAPC  H19S 4511   0.041   6.315   9.059  0.0272 -0.7568  3.4932
   59SAPC  C220 4512   0.205   6.444   8.997 -0.3460 -0.1290  0.0910
   59SAPC  H20R 4513   0.186   6.405   8.895 -0.0533 -2.9738  1.0346
   59SAPC  H20S 4514   0.299   6.396   9.031 -0.3984 -0.6096 -0.4266
   59SAPC  H20T 4515   0.217   6.554   8.996 -0.6535 -0.0938 -1.4061
   59SAPC   C33 4516   0.247   6.690  10.194 -0.3164  0.5848  0.3761
   59SAPC   H3X 4517   0.354   6.715  10.203  0.0716  0.1223 -2.0196
   59SAPC   H3Y 4518   0.217   6.779  10.134  1.7972 -0.2279 -2.1063
   59SAPC   C34 4519   0.244   6.563  10.103  0.5983  0.3394  0.0192
   59SAPC   H4X 4520   0.135   6.562  10.081  1.1803 -0.5821 -3.3052
   59SAPC   H4Y 4521   0.270   6.470  10.159 -1.5580 -0.2911  0.0421
   59SAPC   C35 4522   0.325   6.577   9.974  0.3175 -0.5611  0.1189
   59SAPC   H5X 4523   0.426   6.621   9.985  0.5592 -0.4340 -2.1747
   59SAPC   H5Y 4524   0.274   6.651   9.909 -0.7607 -2.1788 -0.9822
   59SAPC   C36 4525   0.347   6.448   9.898 -0.5876 -0.0471  0.0242
   59SAPC   H6X 4526   0.252   6.391   9.899 -0.7735  0.2639  0.8534
   59SAPC   H6Y 4527   0.421   6.386   9.954 -1.2429  0.8244  1.9240
   59SAPC   C37 4528   0.384   6.470   9.749 -0.0489 -0.1348  0.4601
   59SAPC   H7X 4529   0.463   6.548   9.743  0.2116 -0.3423  1.0951
   59SAPC   H7Y 4530   0.288   6.507   9.707 -1.9745 -0.0562  4.4110
   59SAPC   C38 4531   0.428   6.347   9.681  0.4584 -0.8754  0.1933
   59SAPC   H8X 4532   0.345   6.275   9.662 -1.0830  0.7951  0.3118
   59SAPC   H8Y 4533   0.509   6.292   9.734  1.8386 -0.0353 -0.9526
   59SAPC   C39 4534   0.475   6.382   9.547 -0.0559 -0.4835 -0.0382
   59SAPC   H9X 4535   0.567   6.445   9.541 -0.2215 -0.3000 -0.7587
   59SAPC   H9Y 4536   0.401   6.449   9.499  0.0383 -0.7136 -0.5094
   59SAPC  C310 4537   0.507   6.269   9.440  0.4550 -0.5055  0.0973
   59SAPC  H10X 4538   0.425   6.194   9.437  0.9837 -1.1666  1.2557
   59SAPC  H10Y 4539   0.588   6.200   9.471 -0.1592 -1.6429 -0.7431
   59SAPC  C311 4540   0.544   6.329   9.309 -0.7687  0.2668  0.1288
   59SAPC  H11X 4541   0.642   6.382   9.313 -1.0246  1.0887 -2.5588
   59SAPC  H11Y 4542   0.465   6.401   9.279 -2.7154 -0.8843  2.2682
   59SAPC  C312 4543   0.568   6.221   9.200  0.0996 -0.1599 -0.4092
   59SAPC  H12X 4544   0.466   6.184   9.174  0.3762 -1.3251  0.0834
   59SAPC  H12Y 4545   0.622   6.139   9.251  0.0235 -0.1075 -0.2432
   59SAPC  C313 4546   0.642   6.261   9.078  0.4604 -0.3166 -0.8212
   59SAPC  H13X 4547   0.606   6.205   8.989 -1.6382 -1.2817  0.5580
   59SAPC  H13Y 4548   0.750   6.234   9.086  0.1779 -1.0025  1.9390
   59SAPC  C314 4549   0.639   6.405   9.046  0.6441  0.0141  0.2299
   59SAPC  H14X 4550   0.679   6.469   9.128 -1.1289  2.0643 -0.3948
   59SAPC  H14Y 4551   0.534   6.431   9.020  0.8493 -0.9889 -1.8237
   59SAPC  C315 4552   0.727   6.430   8.920 -0.1206 -0.3206  0.4687
   59SAPC  H15X 4553   0.687   6.385   8.827 -2.6248 -1.2804  1.9085
   59SAPC  H15Y 4554   0.828   6.388   8.935  0.0749  0.0944  0.3302
   59SAPC  C316 4555   0.743   6.577   8.891 -0.2486  0.0384  0.0393
   59SAPC  H16X 4556   0.809   6.595   8.803 -2.2676  2.8554 -1.0587
   59SAPC  H16Y 4557   0.779   6.636   8.978 -0.9524 -0.5150  0.7163
   59SAPC  C317 4558   0.607   6.632   8.850 -0.0727  0.4066  0.1444
   59SAPC  H17X 4559   0.531   6.635   8.931 -1.1511 -0.9642 -0.7513
   59SAPC  H17Y 4560   0.569   6.558   8.776  2.1030 -2.1796  1.4365
   59SAPC  C318 4561   0.610   6.766   8.780 -0.3413  0.1895 -0.5705
   59SAPC  H18X 4562   0.510   6.814   8.774 -0.8133 -0.8776 -1.5529
   59SAPC  H18Y 4563   0.652   6.765   8.677  2.0997  2.6679  0.2701
   59SAPC  H18Z 4564   0.676   6.833   8.839  0.8133 -1.1428 -0.3090
   60SAPC     N 4565   2.392   6.084  10.738  0.2745  0.5227  0.1093
   60SAPC   C12 4566   2.300   6.110  10.620  0.2608 -0.0187  0.0908
   60SAPC  H12A 4567   2.223   6.034  10.619  1.2271 -1.0533  1.6717
   60SAPC  H12B 4568   2.360   6.100  10.530  1.9504  2.0516  0.8939
   60SAPC   C13 4569   2.299   6.054  10.849 -0.5123  0.4585 -0.5338
   60SAPC  H13A 4570   2.233   6.137  10.867 -0.4384  0.8729 -2.0122
   60SAPC  H13B 4571   2.236   5.971  10.821  0.0955 -0.7676  1.5275
   60SAPC  H13C 4572   2.350   6.018  10.938 -0.7515  0.7048 -0.2966
   60SAPC   C14 4573   2.470   5.961  10.707 -0.0946  0.0449  0.2757
   60SAPC  H14A 4574   2.514   5.964  10.608 -0.5144 -1.3051  0.0234
   60SAPC  H14B 4575   2.554   5.957  10.775 -0.5414 -0.1318  0.8209
   60SAPC  H14C 4576   2.413   5.870  10.721  0.1137  0.2336  2.9865
   60SAPC   C15 4577   2.486   6.200  10.772 -0.8100  0.2810 -0.3784
   60SAPC  H15A 4578   2.563   6.202  10.697 -2.4588  0.3313 -2.1612
   60SAPC  H15B 4579   2.438   6.296  10.787 -3.2722 -0.8171 -0.7402
   60SAPC  H15C 4580   2.534   6.186  10.867 -0.2330  0.5575 -0.6284
   60SAPC   C11 4581   2.249   6.260  10.618 -0.0598 -0.0717 -0.1742
   60SAPC  H11A 4582   2.203   6.278  10.518  1.2559 -1.3988 -1.0510
   60SAPC  H11B 4583   2.327   6.339  10.615 -1.4401  1.3181 -1.1815
   60SAPC     P 4584   2.149   6.425  10.798 -0.0143 -0.1974 -0.1744
   60SAPC   O13 4585   2.014   6.431  10.865 -0.2770  0.4091  0.0952
   60SAPC   O14 4586   2.272   6.428  10.879 -0.7242 -1.0017  0.0614
   60SAPC   O12 4587   2.152   6.282  10.721  0.4494 -0.8695  0.0621
   60SAPC   O11 4588   2.154   6.539  10.685 -0.1257  0.0952 -0.6207
   60SAPC    C1 4589   2.061   6.553  10.579  0.2819  0.2818  0.1109
   60SAPC    HA 4590   2.014   6.452  10.570 -1.9071  0.9997  2.3995
   60SAPC    HB 4591   1.986   6.632  10.597  1.7744  1.0883  3.8697
   60SAPC    C2 4592   2.131   6.576  10.439 -0.6054  0.2621  0.2741
   60SAPC    HS 4593   2.219   6.509  10.430 -2.0775 -1.5764 -1.5843
   60SAPC   O21 4594   2.166   6.711  10.423 -0.1368  0.1290 -0.1660
   60SAPC   C21 4595   2.277   6.725  10.357  0.1283  0.0731  0.3785
   60SAPC   O22 4596   2.357   6.642  10.311  0.1805  0.5539  0.7186
   60SAPC   C22 4597   2.302   6.875  10.345 -0.3804 -0.7095 -0.3997
   60SAPC   H2R 4598   2.301   6.913  10.449 -0.4944 -1.3900 -0.1509
   60SAPC   H2S 4599   2.407   6.905  10.323 -0.7144  1.4825  0.7554
   60SAPC    C3 4600   2.047   6.543  10.317  0.6131 -0.4311  1.0823
   60SAPC    HX 4601   1.975   6.628  10.310  1.7868  0.5612  0.6876
   60SAPC    HY 4602   1.973   6.460  10.317 -0.3573  0.3451 -1.4069
   60SAPC   O31 4603   2.120   6.529  10.195 -0.6619  0.5654  0.0628
   60SAPC   C31 4604   2.161   6.407  10.173 -0.5483  0.1629 -0.6306
   60SAPC   O32 4605   2.127   6.302  10.229 -0.7543  0.3848 -0.5125
   60SAPC   C32 4606   2.269   6.424  10.066  0.6827 -0.0999  0.3945
   60SAPC   H2X 4607   2.371   6.426  10.109  1.7382 -0.8852 -1.9491
   60SAPC   H2Y 4608   2.256   6.522  10.017  0.0947 -0.1332  0.4749
   60SAPC   C23 4609   2.189   6.959  10.270 -0.2060 -0.2033 -0.0277
   60SAPC   H3R 4610   2.187   7.055  10.326  0.3751 -0.6208  0.7121
   60SAPC   H3S 4611   2.091   6.906  10.272  0.1873 -0.9500 -0.3986
   60SAPC   C24 4612   2.213   7.001  10.118 -0.3109 -0.4930  0.3040
   60SAPC   H4R 4613   2.125   7.036  10.060  1.7499 -0.3925 -3.0378
   60SAPC   H4S 4614   2.230   6.900  10.074  0.1257  0.4479 -1.8386
   60SAPC   C25 4615   2.344   7.087  10.107  1.1202  0.0723 -0.6917
   60SAPC   H5R 4616   2.408   7.083  10.197 -1.1796  0.0247  1.0380
   60SAPC   C26 4617   2.371   7.179  10.013  0.3193 -0.0981 -0.0229
   60SAPC   H6R 4618   2.451   7.249  10.040  0.7079 -1.5972  3.2271
   60SAPC   C27 4619   2.278   7.211   9.902  0.4986 -0.2632  0.2296
   60SAPC   H7R 4620   2.326   7.290   9.841 -1.8195  1.2914  0.2986
   60SAPC   H7S 4621   2.191   7.268   9.942  0.3758 -2.3655  3.3635
   60SAPC   C28 4622   2.218   7.120   9.804 -0.7688 -0.2386 -0.0792
   60SAPC   H8R 4623   2.115   7.088   9.829  0.3965 -2.6782  2.1393
   60SAPC   C29 4624   2.273   7.081   9.686  0.2451 -0.4674 -0.5703
   60SAPC   H9R 4625   2.209   7.032   9.611  2.0552  1.8998 -3.9290
   60SAPC  C210 4626   2.414   7.116   9.645  0.0220  0.1453  0.2864
   60SAPC  H10R 4627   2.458   7.024   9.599 -0.2103  0.0857  0.1829
   60SAPC  H10S 4628   2.484   7.132   9.729  0.8456  1.2171 -0.5844
   60SAPC  C211 4629   2.419   7.211   9.539  0.7860  0.3950  0.4623
   60SAPC  H11R 4630   2.426   7.314   9.577 -1.1077  0.3658  1.0062
   60SAPC  C212 4631   2.402   7.196   9.407  0.4682  0.8585  0.3657
   60SAPC  H12R 4632   2.423   7.284   9.345 -2.3565  0.0739 -1.8849
   60SAPC  C213 4633   2.373   7.065   9.336  0.3230 -0.2552  0.7660
   60SAPC  H13R 4634   2.348   6.986   9.410 -0.9203 -0.0343  0.5990
   60SAPC  H13S 4635   2.466   7.031   9.285  0.2834 -1.1151  1.2566
   60SAPC  C214 4636   2.258   7.069   9.240 -0.1216 -0.1931  0.3812
   60SAPC  H14R 4637   2.156   7.076   9.282 -0.3635  0.5723 -0.3108
   60SAPC  C215 4638   2.272   7.063   9.109 -0.4153  0.0296 -0.2407
   60SAPC  H15R 4639   2.185   7.089   9.047 -0.0432 -1.6861 -1.5537
   60SAPC  C216 4640   2.396   7.048   9.027 -0.6793 -0.6274 -0.4812
   60SAPC  H16R 4641   2.487   7.036   9.090 -1.1269 -0.2675  0.2447
   60SAPC  H16S 4642   2.408   7.148   8.980 -1.1422 -0.3613 -0.0436
   60SAPC  C217 4643   2.390   6.938   8.925 -0.4390 -0.4948 -0.6791
   60SAPC  H17R 4644   2.375   6.838   8.972 -0.2981  0.3962  1.3584
   60SAPC  H17S 4645   2.495   6.936   8.887  0.5506  0.5342  1.7870
   60SAPC  C218 4646   2.279   6.962   8.822  0.3652  0.1480 -0.0102
   60SAPC  H18R 4647   2.273   7.072   8.811 -2.8086  0.4610  2.9243
   60SAPC  H18S 4648   2.179   6.924   8.853  1.6852 -3.2840  0.4552
   60SAPC  C219 4649   2.299   6.898   8.676 -0.9591 -0.4864  0.0115
   60SAPC  H19R 4650   2.377   6.972   8.645 -0.0911 -1.4402 -0.1364
   60SAPC  H19S 4651   2.202   6.913   8.625 -0.7465  2.2882  0.2309
   60SAPC  C220 4652   2.355   6.755   8.671 -0.0101  0.3836 -0.1608
   60SAPC  H20R 4653   2.440   6.740   8.741  0.5090  1.4961 -0.5207
   60SAPC  H20S 4654   2.377   6.707   8.573  0.8688 -0.6758  0.5336
   60SAPC  H20T 4655   2.279   6.686   8.712 -0.7998  1.2257 -0.1761
   60SAPC   C33 4656   2.266   6.316   9.957 -0.2083  0.8290 -0.0645
   60SAPC   H3X 4657   2.280   6.214  10.001 -3.0898 -0.3423 -1.6219
   60SAPC   H3Y 4658   2.362   6.337   9.905  0.0211  1.0337  0.4247
   60SAPC   C34 4659   2.157   6.338   9.858 -0.1325 -0.7785  0.1228
   60SAPC   H4X 4660   2.164   6.446   9.830  0.9997 -0.3939  1.7411
   60SAPC   H4Y 4661   2.053   6.325   9.896 -0.3586  0.9832  0.2340
   60SAPC   C35 4662   2.176   6.257   9.737 -0.9087  0.0485  0.4242
   60SAPC   H5X 4663   2.195   6.150   9.763 -1.1114 -0.8233 -2.6808
   60SAPC   H5Y 4664   2.271   6.289   9.689 -1.5775 -0.7170 -1.4973
   60SAPC   C36 4665   2.073   6.267   9.626 -0.0988 -0.3546 -0.2388
   60SAPC   H6X 4666   2.074   6.370   9.582  0.3657 -0.7531 -1.1895
   60SAPC   H6Y 4667   1.980   6.264   9.686  0.1580 -0.0281  0.1847
   60SAPC   C37 4668   2.079   6.167   9.511 -0.1711  0.3197  0.2857
   60SAPC   H7X 4669   2.046   6.072   9.557  2.0669 -0.3656  0.5976
   60SAPC   H7Y 4670   2.174   6.154   9.455  1.2558 -0.9796  2.8525
   60SAPC   C38 4671   1.975   6.195   9.396 -0.5109  0.5494  0.8869
   60SAPC   H8X 4672   1.996   6.295   9.353 -0.4845  0.4955  0.7725
   60SAPC   H8Y 4673   1.872   6.209   9.435 -1.7096 -1.3640 -1.3278
   60SAPC   C39 4674   1.982   6.108   9.268 -0.5643 -0.0174 -0.0405
   60SAPC   H9X 4675   1.964   6.003   9.300 -2.1052  0.2412 -0.0038
   60SAPC   H9Y 4676   2.087   6.117   9.232 -0.6724  0.8195 -0.1649
   60SAPC  C310 4677   1.892   6.158   9.152 -0.1439  0.4332 -0.4391
   60SAPC  H10X 4678   1.943   6.245   9.105 -1.6155  0.5143 -1.9924
   60SAPC  H10Y 4679   1.790   6.191   9.182  1.1879  2.0388  2.6893
   60SAPC  C311 4680   1.877   6.052   9.037 -0.6453 -0.6649 -0.0164
   60SAPC  H11X 4681   1.828   5.966   9.087 -1.8558 -1.0834 -1.8317
   60SAPC  H11Y 4682   1.977   6.014   9.010 -0.4758  0.0330 -0.3805
   60SAPC  C312 4683   1.790   6.095   8.917 -0.2539 -0.0640 -0.6801
   60SAPC  H12X 4684   1.705   6.153   8.958 -1.0519 -1.7802  0.2043
   60SAPC  H12Y 4685   1.754   6.004   8.864 -1.5115 -0.8147  1.3255
   60SAPC  C313 4686   1.856   6.191   8.808  0.4575 -0.1362 -0.5665
   60SAPC  H13X 4687   1.903   6.283   8.847 -0.1924  0.1974 -0.5573
   60SAPC  H13Y 4688   1.771   6.233   8.750  0.0880  1.9986  1.3865
   60SAPC  C314 4689   1.955   6.117   8.719  0.5465 -0.4850 -0.2511
   60SAPC  H14X 4690   1.897   6.067   8.638  1.6454 -0.1558 -1.2637
   60SAPC  H14Y 4691   2.011   6.041   8.777 -1.5090 -1.9760 -0.0762
   60SAPC  C315 4692   2.046   6.213   8.648  0.2316 -0.5730 -0.0471
   60SAPC  H15X 4693   2.103   6.282   8.714  0.7883 -0.4761 -0.6232
   60SAPC  H15Y 4694   1.979   6.273   8.584 -0.5362  0.2126  1.4294
   60SAPC  C316 4695   2.156   6.158   8.560  0.1434  0.9741  0.3890
   60SAPC  H16X 4696   2.129   6.117   8.460 -1.9282  2.2179  0.3789
   60SAPC  H16Y 4697   2.204   6.076   8.617  0.3654  2.0470  1.7955
   60SAPC  C317 4698   2.257   6.269   8.526 -0.3480  0.8038 -0.5752
   60SAPC  H17X 4699   2.283   6.323   8.620 -1.3086  0.7986 -0.2912
   60SAPC  H17Y 4700   2.207   6.342   8.460 -2.7885  0.0531  0.3114
   60SAPC  C318 4701   2.383   6.210   8.470 -0.2548 -0.4401 -0.5636
   60SAPC  H18X 4702   2.459   6.287   8.443 -1.1702  0.1404 -1.5660
   60SAPC  H18Y 4703   2.366   6.172   8.367 -0.0048  0.2392 -0.8656
   60SAPC  H18Z 4704   2.427   6.125   8.527 -2.7700 -0.2932  1.7800
   61SAPC     N 4705   0.352   4.307  11.071 -0.0885  0.7006 -0.1745
   61SAPC   C12 4706   0.266   4.331  10.951 -0.4334  0.3307 -0.1080
   61SAPC  H12A 4707   0.300   4.420  10.901  0.6496 -0.2443 -0.4271
   61SAPC  H12B 4708   0.161   4.344  10.970 -0.9508  0.9087 -2.9743
   61SAPC   C13 4709   0.499   4.320  11.050 -0.3312  0.0340  0.1858
   61SAPC  H13A 4710   0.526   4.421  11.022  2.4141 -1.1218 -1.7542
   61SAPC  H13B 4711   0.579   4.293  11.117  0.8643  1.4165 -0.6105
   61SAPC  H13C 4712   0.529   4.267  10.961  0.2241 -0.0810  0.4372
   61SAPC   C14 4713   0.311   4.403  11.176  0.1882  0.2459  0.1815
   61SAPC  H14A 4714   0.381   4.485  11.186  0.1559  0.3228 -0.2224
   61SAPC  H14B 4715   0.207   4.432  11.170  0.3159  0.6849  0.0391
   61SAPC  H14C 4716   0.315   4.351  11.271  1.0192  0.6860  0.3941
   61SAPC   C15 4717   0.328   4.169  11.120  0.4864  0.1877  0.9632
   61SAPC  H15A 4718   0.333   4.109  11.030  0.1034  1.4326  0.0835
   61SAPC  H15B 4719   0.413   4.147  11.182  3.4654 -0.7954 -3.0878
   61SAPC  H15C 4720   0.233   4.152  11.168 -0.0264 -0.8517 -0.3492
   61SAPC   C11 4721   0.276   4.223  10.845  0.4360  0.2400 -0.5810
   61SAPC  H11A 4722   0.377   4.178  10.851 -0.0669 -0.7620  1.5903
   61SAPC  H11B 4723   0.266   4.271  10.745  2.5409  1.6738 -0.1585
   61SAPC     P 4724   0.142   4.019  10.732  0.3793 -0.4369  0.0160
   61SAPC   O13 4725   0.197   3.890  10.788 -0.0562 -0.3065 -0.6711
   61SAPC   O14 4726  -0.004   4.022  10.713  0.1009  0.1078 -0.2936
   61SAPC   O12 4727   0.178   4.126  10.844  0.2746  0.1942 -0.7199
   61SAPC   O11 4728   0.217   4.069  10.607 -0.1330 -0.1261  0.0090
   61SAPC    C1 4729   0.168   4.065  10.472 -0.2967 -0.3993 -1.1767
   61SAPC    HA 4730   0.212   3.978  10.419 -0.6926 -1.1730 -0.2556
   61SAPC    HB 4731   0.058   4.052  10.476 -0.6223  2.2222  1.6746
   61SAPC    C2 4732   0.211   4.205  10.404  0.0932  0.0272 -0.2933
   61SAPC    HS 4733   0.153   4.285  10.454  1.6506 -0.3702  2.3247
   61SAPC   O21 4734   0.192   4.190  10.264  0.1161  0.1250  0.8709
   61SAPC   C21 4735   0.192   4.294  10.190 -0.6150  0.4448  0.5211
   61SAPC   O22 4736   0.211   4.408  10.222  0.0233 -0.4076  0.8098
   61SAPC   C22 4737   0.157   4.253  10.047 -0.0598  0.5170 -0.1573
   61SAPC   H2R 4738   0.081   4.173  10.050  0.8987 -0.3962  0.1828
   61SAPC   H2S 4739   0.108   4.338   9.994 -0.8971 -0.6259 -1.2527
   61SAPC    C3 4740   0.359   4.232  10.439  0.4153 -0.3587 -0.3553
   61SAPC    HX 4741   0.367   4.256  10.547  2.1000  0.8728 -0.7063
   61SAPC    HY 4742   0.391   4.330  10.398 -0.4419  0.0448 -0.0793
   61SAPC   O31 4743   0.447   4.121  10.403 -0.5631 -0.0936 -0.1944
   61SAPC   C31 4744   0.501   4.134  10.278 -0.0834  0.1269 -0.4734
   61SAPC   O32 4745   0.470   4.210  10.187  0.3097 -0.0744  0.0915
   61SAPC   C32 4746   0.597   4.007  10.257 -0.1242 -0.1927 -0.3742
   61SAPC   H2X 4747   0.534   3.919  10.282  1.2024 -0.6146  1.6743
   61SAPC   H2Y 4748   0.686   4.019  10.321 -1.5179  2.7164  1.2445
   61SAPC   C23 4749   0.280   4.211   9.962  0.0233  0.1442  0.1653
   61SAPC   H3R 4750   0.319   4.112   9.996  0.7435  0.0373 -0.9119
   61SAPC   H3S 4751   0.358   4.285   9.989  1.2596 -1.0672  0.0586
   61SAPC   C24 4752   0.254   4.218   9.813  0.2702  0.1512  0.4673
   61SAPC   H4R 4753   0.212   4.317   9.784  0.4468 -0.2045 -1.0980
   61SAPC   H4S 4754   0.186   4.134   9.785  1.1090 -0.4517  0.1741
   61SAPC   C25 4755   0.378   4.183   9.737  0.2888  0.2157 -0.5559
   61SAPC   H5R 4756   0.465   4.159   9.800  0.2515  1.4516  0.0073
   61SAPC   C26 4757   0.408   4.206   9.611 -0.6926 -0.6629 -0.9734
   61SAPC   H6R 4758   0.513   4.191   9.583 -0.2880  0.4468 -0.1206
   61SAPC   C27 4759   0.323   4.263   9.508  0.5498 -0.2016  0.2309
   61SAPC   H7R 4760   0.370   4.361   9.483  0.1102 -0.2848 -1.0021
   61SAPC   H7S 4761   0.219   4.293   9.533  0.6833  0.0205  0.5215
   61SAPC   C28 4762   0.319   4.165   9.389 -0.6214 -0.7984 -0.0404
   61SAPC   H8R 4763   0.306   4.064   9.431 -0.6690 -0.5365  0.5942
   61SAPC   C29 4764   0.338   4.187   9.264 -0.2499 -0.5047 -0.3424
   61SAPC   H9R 4765   0.337   4.099   9.198  2.3037 -0.8061 -0.1133
   61SAPC  C210 4766   0.358   4.314   9.190  0.2423  0.0167  0.2765
   61SAPC  H10R 4767   0.450   4.305   9.129 -0.0177 -2.0534  0.1039
   61SAPC  H10S 4768   0.378   4.394   9.264 -0.7058 -0.0475  0.6257
   61SAPC  C211 4769   0.235   4.355   9.106 -0.0728  0.5774 -0.1439
   61SAPC  H11R 4770   0.168   4.415   9.169  0.3490 -0.2366  1.1136
   61SAPC  C212 4771   0.207   4.332   8.979 -0.1094  0.5889 -0.2618
   61SAPC  H12R 4772   0.125   4.381   8.925 -0.5825  0.8673  0.6821
   61SAPC  C213 4773   0.300   4.264   8.882  0.3765  1.3493  1.2909
   61SAPC  H13R 4774   0.343   4.176   8.935 -1.4017 -1.2213 -1.1940
   61SAPC  H13S 4775   0.383   4.334   8.863  1.1209  0.7426  2.2471
   61SAPC  C214 4776   0.226   4.208   8.759  0.4392 -0.4485  0.3159
   61SAPC  H14R 4777   0.203   4.101   8.761 -1.1432 -0.2212 -1.8500
   61SAPC  C215 4778   0.216   4.271   8.639  0.4386  0.3873 -0.7556
   61SAPC  H15R 4779   0.152   4.227   8.561 -0.4632 -2.5133  1.4270
   61SAPC  C216 4780   0.266   4.405   8.608 -0.0831  0.1741 -0.3999
   61SAPC  H16R 4781   0.335   4.448   8.684 -0.3000 -1.9121  1.0331
   61SAPC  H16S 4782   0.173   4.467   8.608 -0.1755  0.0455 -1.4110
   61SAPC  C217 4783   0.333   4.417   8.470 -0.6999  0.0812  0.5467
   61SAPC  H17R 4784   0.356   4.523   8.448  0.3519 -0.6097 -2.0543
   61SAPC  H17S 4785   0.268   4.380   8.387 -1.9997 -2.2217  2.4706
   61SAPC  C218 4786   0.459   4.328   8.453  1.5359 -0.4135 -0.3201
   61SAPC  H18R 4787   0.425   4.223   8.447  0.4785 -0.0999 -0.0081
   61SAPC  H18S 4788   0.520   4.349   8.543  0.5129 -0.7155  0.4521
   61SAPC  C219 4789   0.538   4.358   8.333 -0.4252  0.2080  0.4080
   61SAPC  H19R 4790   0.572   4.464   8.342  2.5840 -0.6193 -0.0399
   61SAPC  H19S 4791   0.479   4.350   8.240 -2.0951 -0.5860  1.4835
   61SAPC  C220 4792   0.644   4.254   8.313 -0.3115 -0.1017  0.1347
   61SAPC  H20R 4793   0.596   4.164   8.269 -0.4917  0.2113 -0.3173
   61SAPC  H20S 4794   0.696   4.238   8.410  1.0094 -0.3606 -0.5933
   61SAPC  H20T 4795   0.714   4.290   8.234  2.1041 -1.9311  1.3337
   61SAPC   C33 4796   0.640   4.005  10.112 -0.2495  0.6171 -0.1014
   61SAPC   H3X 4797   0.694   4.101  10.094 -0.9207  0.9590 -0.3235
   61SAPC   H3Y 4798   0.552   3.992  10.046  0.1967  0.9046 -0.7642
   61SAPC   C34 4799   0.734   3.888  10.093 -0.3332  0.0936  0.3878
   61SAPC   H4X 4800   0.670   3.800  10.114 -2.5112  0.3723 -4.0253
   61SAPC   H4Y 4801   0.823   3.889  10.160  0.4577  1.7747 -0.6277
   61SAPC   C35 4802   0.793   3.860   9.956 -0.3317  0.0859 -0.4203
   61SAPC   H5X 4803   0.843   3.761   9.962 -2.3923 -0.9729  0.5277
   61SAPC   H5Y 4804   0.867   3.942   9.943  0.0341 -0.4054 -1.5693
   61SAPC   C36 4805   0.686   3.852   9.846  0.1954  0.3980 -0.1763
   61SAPC   H6X 4806   0.608   3.931   9.852  1.5761  1.9726 -1.5587
   61SAPC   H6Y 4807   0.635   3.754   9.837  1.1853 -0.1584  0.0904
   61SAPC   C37 4808   0.752   3.881   9.711  0.4131 -1.0498  0.1731
   61SAPC   H7X 4809   0.835   3.807   9.704  0.0534 -1.6561  1.7407
   61SAPC   H7Y 4810   0.796   3.983   9.717 -1.2036 -0.2321 -0.9927
   61SAPC   C38 4811   0.655   3.879   9.591  0.2225 -0.4920 -0.5390
   61SAPC   H8X 4812   0.588   3.967   9.603 -0.3008 -0.4167 -3.3183
   61SAPC   H8Y 4813   0.584   3.796   9.615 -0.1780  0.5057  2.0190
   61SAPC   C39 4814   0.715   3.878   9.450  0.1111 -0.3916  1.0702
   61SAPC   H9X 4815   0.780   3.790   9.428  2.2137  1.1387  0.8178
   61SAPC   H9Y 4816   0.778   3.969   9.439 -0.4623 -0.3286 -3.1722
   61SAPC  C310 4817   0.613   3.876   9.334 -0.1721  0.4637 -0.0448
   61SAPC  H10X 4818   0.539   3.957   9.353  1.0242  1.9058 -1.3145
   61SAPC  H10Y 4819   0.557   3.780   9.337  0.9635 -0.2123  0.0731
   61SAPC  C311 4820   0.680   3.889   9.195  0.2790 -0.0126  0.3003
   61SAPC  H11X 4821   0.756   3.813   9.168  0.1272  0.0422 -0.2789
   61SAPC  H11Y 4822   0.734   3.985   9.212 -0.3675  0.7356 -1.6334
   61SAPC  C312 4823   0.574   3.892   9.081 -0.3839 -0.6551  0.2575
   61SAPC  H12X 4824   0.501   3.971   9.109 -0.6645 -0.4395 -1.0104
   61SAPC  H12Y 4825   0.518   3.796   9.084  1.4909 -1.8116 -0.0313
   61SAPC  C313 4826   0.629   3.912   8.938 -0.6847 -0.4794 -0.0857
   61SAPC  H13X 4827   0.694   3.831   8.898  0.8996  1.1500 -0.9065
   61SAPC  H13Y 4828   0.702   3.993   8.919 -2.3335  1.0492 -0.1137
   61SAPC  C314 4829   0.517   3.922   8.829 -0.0294 -0.1210  0.1314
   61SAPC  H14X 4830   0.437   3.994   8.858  2.5532  3.0361  0.0187
   61SAPC  H14Y 4831   0.480   3.819   8.813  0.0558  0.0315 -1.1734
   61SAPC  C315 4832   0.575   3.979   8.699 -0.5249  0.8172 -0.4570
   61SAPC  H15X 4833   0.607   4.084   8.714  0.7185  0.4231 -0.2829
   61SAPC  H15Y 4834   0.498   3.979   8.618  1.5758 -0.8330 -2.5786
   61SAPC  C316 4835   0.703   3.909   8.650 -0.7790 -0.4368  0.2534
   61SAPC  H16X 4836   0.703   3.798   8.652  1.7009 -0.4990 -0.2302
   61SAPC  H16Y 4837   0.790   3.933   8.714  0.4360  1.2778 -1.9096
   61SAPC  C317 4838   0.745   3.944   8.506 -0.1270  0.3164 -0.1051
   61SAPC  H17X 4839   0.781   4.047   8.487 -0.6237  0.0709 -2.8822
   61SAPC  H17Y 4840   0.658   3.919   8.441 -0.3075  0.9586 -0.1070
   61SAPC  C318 4841   0.859   3.851   8.463  0.0869 -0.2657  0.3818
   61SAPC  H18X 4842   0.953   3.899   8.499 -0.9272 -0.3722  3.4478
   61SAPC  H18Y 4843   0.869   3.832   8.354 -0.4956 -1.0409  0.4540
   61SAPC  H18Z 4844   0.844   3.754   8.516  2.0762 -0.4128  0.7671
   62SAPC     N 4845   6.389   3.000  10.755 -0.2527  0.3918 -0.1643
   62SAPC   C12 4846   6.260   3.024  10.676  0.0734 -0.6236  1.1032
   62SAPC  H12A 4847   6.178   3.074  10.726 -0.6970 -0.9472  0.2065
   62SAPC  H12B 4848   6.218   2.926  10.656 -2.2066  0.8386 -2.4498
   62SAPC   C13 4849   6.481   3.117  10.775  0.4463 -0.1118 -0.2341
   62SAPC  H13A 4850   6.569   3.083  10.828 -0.0618 -0.0926  0.6414
   62SAPC  H13B 4851   6.500   3.165  10.680  0.6073  0.6755  0.1871
   62SAPC  H13C 4852   6.438   3.192  10.840 -1.1278 -0.5235 -0.7801
   62SAPC   C14 4853   6.351   2.947  10.891  0.0447 -0.0965 -0.1733
   62SAPC  H14A 4854   6.432   2.908  10.950 -0.2530  1.5204  1.3913
   62SAPC  H14B 4855   6.291   3.018  10.947  0.0505  1.2543 -1.8021
   62SAPC  H14C 4856   6.295   2.855  10.886  1.6051 -1.0252 -1.5950
   62SAPC   C15 4857   6.462   2.886  10.691 -0.1949  0.1038  0.3162
   62SAPC  H15A 4858   6.559   2.876  10.737  0.2959  2.7665  0.0263
   62SAPC  H15B 4859   6.407   2.795  10.674  2.6559 -1.4908 -1.1610
   62SAPC  H15C 4860   6.485   2.910  10.588 -0.0325  1.0126  0.5485
   62SAPC   C11 4861   6.273   3.098  10.543  0.8130  1.0266  0.0447
   62SAPC  H11A 4862   6.173   3.090  10.496  0.7738 -1.4829  0.4471
   62SAPC  H11B 4863   6.337   3.037  10.476  0.6711  0.1616  0.6756
   62SAPC     P 4864   6.225   3.359  10.588  0.5701 -0.2144  0.3112
   62SAPC   O13 4865   6.093   3.314  10.651 -0.9960  0.6749  0.1691
   62SAPC   O14 4866   6.306   3.454  10.659  0.0582 -0.3652  0.1662
   62SAPC   O12 4867   6.310   3.233  10.549 -0.9240 -0.3928  0.0411
   62SAPC   O11 4868   6.185   3.424  10.447 -0.4318 -0.0025  0.1301
   62SAPC    C1 4869   6.125   3.341  10.344  0.3394 -0.3759  0.0402
   62SAPC    HA 4870   6.083   3.246  10.383 -0.2008 -0.4860 -0.7736
   62SAPC    HB 4871   6.042   3.400  10.299  0.7904  0.0220 -0.2708
   62SAPC    C2 4872   6.218   3.308  10.225  0.4222  0.6154 -0.4248
   62SAPC    HS 4873   6.303   3.246  10.261  1.5089  1.9006 -0.7230
   62SAPC   O21 4874   6.265   3.432  10.170  0.1357  0.4979  0.2987
   62SAPC   C21 4875   6.383   3.410  10.113  1.0573 -0.4634 -0.5752
   62SAPC   O22 4876   6.445   3.307  10.103  0.0498 -0.8927 -0.3705
   62SAPC   C22 4877   6.432   3.546  10.057 -0.1439  0.3092 -0.2328
   62SAPC   H2R 4878   6.340   3.587  10.009  0.0952 -1.2337 -2.1145
   62SAPC   H2S 4879   6.448   3.610  10.147  1.0876  3.3224 -2.4335
   62SAPC    C3 4880   6.132   3.220  10.126 -0.1109  0.2619 -0.3041
   62SAPC    HX 4881   6.061   3.284  10.070 -0.5669  1.0477  1.1112
   62SAPC    HY 4882   6.071   3.151  10.189  2.1516  0.2795  2.1084
   62SAPC   O31 4883   6.218   3.143  10.051 -0.2117 -0.2061 -0.1344
   62SAPC   C31 4884   6.229   3.164   9.921 -0.3782  0.1854  0.2656
   62SAPC   O32 4885   6.158   3.233   9.848  0.4117  0.2344 -0.6294
   62SAPC   C32 4886   6.359   3.082   9.879  0.0786 -0.1494 -0.5208
   62SAPC   H2X 4887   6.328   2.976   9.885  0.7255 -0.2718  1.2278
   62SAPC   H2Y 4888   6.443   3.094   9.950 -0.8206  0.1256  0.5351
   62SAPC   C23 4889   6.543   3.543   9.950 -0.1328  0.4016 -0.2166
   62SAPC   H3R 4890   6.498   3.526   9.850  0.2381  1.8501 -0.6525
   62SAPC   H3S 4891   6.620   3.465   9.967  1.2001  1.7691  0.2506
   62SAPC   C24 4892   6.606   3.686   9.938 -0.7023  0.0312  0.6844
   62SAPC   H4R 4893   6.518   3.748   9.909 -1.3411 -1.4133 -0.6169
   62SAPC   H4S 4894   6.673   3.681   9.849 -0.6816  1.4840  0.5907
   62SAPC   C25 4895   6.674   3.731  10.057  0.5687  0.0552  0.0580
   62SAPC   H5R 4896   6.739   3.660  10.110 -0.9327 -0.6866  0.9847
   62SAPC   C26 4897   6.657   3.854  10.107 -0.6916 -0.1516  0.1864
   62SAPC   H6R 4898   6.715   3.875  10.199 -0.8973  0.4286  0.1821
   62SAPC   C27 4899   6.572   3.969  10.059 -0.8028  0.6013 -0.5319
   62SAPC   H7R 4900   6.469   3.934  10.081  0.6801 -1.8402  3.9090
   62SAPC   H7S 4901   6.575   3.966   9.948  0.2654 -0.4331 -0.5037
   62SAPC   C28 4902   6.604   4.106  10.111 -0.0504  0.4273 -0.1712
   62SAPC   H8R 4903   6.636   4.119  10.216 -0.5002  1.5101 -0.1495
   62SAPC   C29 4904   6.558   4.221  10.057 -0.0096  0.0921  0.0878
   62SAPC   H9R 4905   6.591   4.314  10.105 -0.1218 -0.7394  1.8556
   62SAPC  C210 4906   6.487   4.253   9.929 -0.4021 -0.5407 -0.6571
   62SAPC  H10R 4907   6.441   4.157   9.895 -0.6119 -0.3964 -0.7809
   62SAPC  H10S 4908   6.570   4.277   9.859  0.6062  0.1887  0.7282
   62SAPC  C211 4909   6.376   4.367   9.920  0.5598 -0.9242  0.6250
   62SAPC  H11R 4910   6.336   4.389  10.020  1.1631 -0.5874  0.7967
   62SAPC  C212 4911   6.313   4.422   9.814  0.5377 -0.1740 -0.7681
   62SAPC  H12R 4912   6.234   4.498   9.817  1.7305  1.3103 -3.2596
   62SAPC  C213 4913   6.353   4.391   9.670 -0.0408  0.0369 -0.0488
   62SAPC  H13R 4914   6.455   4.348   9.661  1.0497  2.1163  1.3805
   62SAPC  H13S 4915   6.343   4.484   9.610 -0.8333 -0.4988 -0.7663
   62SAPC  C214 4916   6.256   4.310   9.593 -0.8403  0.5510  0.2323
   62SAPC  H14R 4917   6.163   4.283   9.646 -1.9495  3.0821 -0.2861
   62SAPC  C215 4918   6.241   4.292   9.462 -0.4423 -0.0180  0.1316
   62SAPC  H15R 4919   6.152   4.233   9.433 -0.3078 -0.7920  1.2304
   62SAPC  C216 4920   6.325   4.344   9.354  0.0345  0.3897  0.8418
   62SAPC  H16R 4921   6.421   4.289   9.343 -0.2544  0.3765 -3.0539
   62SAPC  H16S 4922   6.359   4.450   9.366 -2.0966  1.6014 -2.4328
   62SAPC  C217 4923   6.256   4.344   9.213  0.1352 -0.3876 -0.2597
   62SAPC  H17R 4924   6.174   4.419   9.215  2.2447  2.2191 -2.7884
   62SAPC  H17S 4925   6.205   4.248   9.193  1.5530 -1.3081  0.3617
   62SAPC  C218 4926   6.350   4.381   9.103 -0.7826 -0.0544  0.7077
   62SAPC  H18R 4927   6.448   4.328   9.106 -1.6506 -1.6957  0.9672
   62SAPC  H18S 4928   6.360   4.492   9.108 -3.8036  0.3475  0.0480
   62SAPC  C219 4929   6.293   4.353   8.968  0.6226 -0.5234  0.0482
   62SAPC  H19R 4930   6.248   4.251   8.975 -0.5398  0.0538  1.3649
   62SAPC  H19S 4931   6.367   4.349   8.885  0.4198  0.9677 -0.2228
   62SAPC  C220 4932   6.177   4.451   8.933 -0.5453  0.1256 -0.8053
   62SAPC  H20R 4933   6.089   4.451   9.000  0.3547  0.2565  0.4218
   62SAPC  H20S 4934   6.142   4.424   8.832  0.7414 -0.9675 -0.9778
   62SAPC  H20T 4935   6.230   4.549   8.927 -0.4321  0.1884  0.6475
   62SAPC   C33 4936   6.408   3.125   9.739  0.0915  0.2607  0.3891
   62SAPC   H3X 4937   6.505   3.077   9.716  1.2838  1.5828  2.3441
   62SAPC   H3Y 4938   6.415   3.236   9.737  0.0281  0.2579 -1.3160
   62SAPC   C34 4939   6.316   3.073   9.630  0.0576  0.3527  0.1358
   62SAPC   H4X 4940   6.221   3.129   9.617  0.2984  0.5308 -0.9201
   62SAPC   H4Y 4941   6.286   2.967   9.643 -1.9722  0.6893 -1.2838
   62SAPC   C35 4942   6.397   3.060   9.499  0.2905 -0.0898 -0.8116
   62SAPC   H5X 4943   6.452   2.963   9.501 -0.0662 -0.2756  0.1475
   62SAPC   H5Y 4944   6.467   3.146   9.486 -1.1786  1.3758  0.5500
   62SAPC   C36 4945   6.303   3.053   9.380 -0.2202 -0.4444 -0.8414
   62SAPC   H6X 4946   6.222   2.983   9.408  1.2131 -1.6164  0.5984
   62SAPC   H6Y 4947   6.347   3.010   9.288 -2.8855 -1.3847 -1.7650
   62SAPC   C37 4948   6.259   3.189   9.329 -0.5290  0.7511 -0.3146
   62SAPC   H7X 4949   6.351   3.250   9.321 -0.9180  1.3245 -0.4457
   62SAPC   H7Y 4950   6.195   3.228   9.411  0.6803 -1.5671  1.8979
   62SAPC   C38 4951   6.180   3.197   9.191 -0.0746  0.7006  0.0960
   62SAPC   H8X 4952   6.097   3.124   9.200  1.0753 -0.6553 -0.0419
   62SAPC   H8Y 4953   6.252   3.174   9.109 -1.9831 -0.8445 -1.2439
   62SAPC   C39 4954   6.129   3.333   9.154  0.2721 -0.5531  0.4669
   62SAPC   H9X 4955   6.215   3.392   9.192 -0.3700 -0.3314  1.6046
   62SAPC   H9Y 4956   6.038   3.359   9.212 -0.9604 -1.6163 -0.9187
   62SAPC  C310 4957   6.114   3.347   9.001 -0.2466 -0.5855  0.3546
   62SAPC  H10X 4958   6.208   3.300   8.965 -0.2419  0.7964 -1.5719
   62SAPC  H10Y 4959   6.116   3.448   8.956  1.0254  0.2988  2.2649
   62SAPC  C311 4960   5.991   3.274   8.944  0.3668 -0.1926 -0.4515
   62SAPC  H11X 4961   5.903   3.326   8.987  2.5895  0.5568  3.7520
   62SAPC  H11Y 4962   5.993   3.175   8.995  1.6153 -1.4191 -2.7371
   62SAPC  C312 4963   6.003   3.254   8.795 -0.0086 -0.0507  0.3237
   62SAPC  H12X 4964   6.105   3.217   8.769 -0.2550  0.9764 -2.5210
   62SAPC  H12Y 4965   5.984   3.350   8.742  1.0693  0.6732  1.1941
   62SAPC  C313 4966   5.911   3.132   8.750  0.0146  0.2280  0.3933
   62SAPC  H13X 4967   5.804   3.164   8.755  0.1137  0.3485  2.9005
   62SAPC  H13Y 4968   5.940   3.044   8.812  0.0053 -1.0864 -1.3658
   62SAPC  C314 4969   5.946   3.094   8.607 -0.0520  0.6497  0.4541
   62SAPC  H14X 4970   6.048   3.050   8.600 -0.9816 -1.8944  1.4876
   62SAPC  H14Y 4971   5.939   3.177   8.534  1.6396  0.8218  0.4365
   62SAPC  C315 4972   5.845   2.984   8.549  0.8396 -0.0417  0.5571
   62SAPC  H15X 4973   5.739   3.017   8.554  0.4023 -0.7809 -2.0660
   62SAPC  H15Y 4974   5.849   2.900   8.621  1.1102 -2.5948 -2.2475
   62SAPC  C316 4975   5.886   2.919   8.420 -0.7051  0.2263 -0.0974
   62SAPC  H16X 4976   5.832   2.824   8.396  0.9464 -0.2859 -2.1454
   62SAPC  H16Y 4977   5.993   2.889   8.431 -0.3519  1.1121 -0.9768
   62SAPC  C317 4978   5.877   3.009   8.296 -0.2554 -0.0542 -0.4841
   62SAPC  H17X 4979   5.921   3.109   8.319  0.8840 -0.9260  1.3663
   62SAPC  H17Y 4980   5.769   3.025   8.279 -0.5547 -0.9515  0.4546
   62SAPC  C318 4981   5.961   2.951   8.178 -0.0190 -1.2716  0.6657
   62SAPC  H18X 4982   5.954   3.022   8.093 -0.3193  0.6426  2.2145
   62SAPC  H18Y 4983   5.909   2.859   8.144 -0.2367 -1.0536  0.4003
   62SAPC  H18Z 4984   6.069   2.938   8.204  0.7693 -0.4321 -1.8791
   63SAPC     N 4985   4.233   6.756   6.365 -0.4217 -0.2563 -0.4496
   63SAPC   C12 4986   4.270   6.663   6.486  0.1134  0.1680  0.0269
   63SAPC  H12A 4987   4.230   6.706   6.577  0.1874 -1.1552  0.7149
   63SAPC  H12B 4988   4.376   6.642   6.490  0.0329 -0.1717  0.7892
   63SAPC   C13 4989   4.284   6.898   6.384  0.0016 -0.7182 -0.0709
   63SAPC  H13A 4990   4.230   6.940   6.468 -1.7754  1.5652 -2.1748
   63SAPC  H13B 4991   4.387   6.910   6.414 -0.9965  0.2554  3.4004
   63SAPC  H13C 4992   4.261   6.966   6.302 -0.3069  0.8181  1.2442
   63SAPC   C14 4993   4.287   6.700   6.238  0.8286 -0.4230  0.3533
   63SAPC  H14A 4994   4.254   6.597   6.236 -0.1086 -0.1444  0.9743
   63SAPC  H14B 4995   4.260   6.752   6.147 -0.2966 -2.4169 -0.5203
   63SAPC  H14C 4996   4.393   6.682   6.232  0.7986 -0.2383 -1.9080
   63SAPC   C15 4997   4.090   6.755   6.358  0.4314  0.6858  0.4764
   63SAPC  H15A 4998   4.040   6.659   6.351  2.7212 -0.4528 -2.3961
   63SAPC  H15B 4999   4.044   6.801   6.444 -0.3094 -0.2954  0.6232
   63SAPC  H15C 5000   4.063   6.810   6.268 -2.9407 -0.0803  0.8805
   63SAPC   C11 5001   4.216   6.517   6.479  0.0089  0.0283 -0.4336
   63SAPC  H11A 5002   4.105   6.519   6.481  0.0076  2.0805 -0.9829
   63SAPC  H11B 5003   4.239   6.478   6.581  0.3691  1.6954  0.1430
   63SAPC     P 5004   4.415   6.374   6.397 -0.5724 -0.4128 -0.7130
   63SAPC   O13 5005   4.469   6.328   6.268 -0.1019  0.2062 -0.0126
   63SAPC   O14 5006   4.490   6.488   6.462 -0.2293 -0.1778 -0.3331
   63SAPC   O12 5007   4.276   6.439   6.373  0.3466  0.4677 -0.0293
   63SAPC   O11 5008   4.398   6.254   6.501 -0.3468  0.2933  0.3038
   63SAPC    C1 5009   4.274   6.182   6.517 -0.7786 -0.5681  0.3318
   63SAPC    HA 5010   4.201   6.204   6.436  0.8402  0.3246 -0.9423
   63SAPC    HB 5011   4.296   6.074   6.501 -0.9375 -0.6645  0.7402
   63SAPC    C2 5012   4.212   6.203   6.659  0.6365 -0.5808 -0.0283
   63SAPC    HS 5013   4.187   6.310   6.673  1.3216 -0.3831 -0.2590
   63SAPC   O21 5014   4.301   6.158   6.764 -0.0487 -0.1756  0.3689
   63SAPC   C21 5015   4.335   6.250   6.848 -0.4876 -0.1771 -0.1535
   63SAPC   O22 5016   4.304   6.368   6.843  1.0243  0.6154 -0.0723
   63SAPC   C22 5017   4.405   6.179   6.964 -0.2079 -0.2267 -0.2766
   63SAPC   H2R 5018   4.352   6.081   6.963 -2.1403  0.7406 -2.0197
   63SAPC   H2S 5019   4.507   6.162   6.923 -0.7328 -1.5120 -1.1184
   63SAPC    C3 5020   4.073   6.131   6.664  0.3702  1.1878  0.0146
   63SAPC    HX 5021   4.088   6.022   6.649 -1.8781  0.8533 -0.1393
   63SAPC    HY 5022   4.025   6.166   6.570  0.3797  1.8183  0.2363
   63SAPC   O31 5023   3.992   6.150   6.778 -0.2912 -0.1541  0.2410
   63SAPC   C31 5024   3.925   6.259   6.802 -0.8746  0.4936 -0.6459
   63SAPC   O32 5025   3.907   6.351   6.725  0.3233  0.1809  0.2999
   63SAPC   C32 5026   3.870   6.251   6.942  0.2754 -0.2335  0.0071
   63SAPC   H2X 5027   3.771   6.207   6.920  0.6553 -1.5822  0.8935
   63SAPC   H2Y 5028   3.858   6.352   6.987  0.3730 -0.5017  0.6509
   63SAPC   C23 5029   4.387   6.245   7.100  0.2454 -1.0587 -0.3272
   63SAPC   H3R 5030   4.428   6.173   7.174 -0.1776 -0.5700  0.3907
   63SAPC   H3S 5031   4.277   6.253   7.114  0.3791 -1.8316  1.4228
   63SAPC   C24 5032   4.448   6.389   7.130  0.2390  0.0783 -0.5515
   63SAPC   H4R 5033   4.414   6.430   7.227  0.3773  1.4069 -1.0501
   63SAPC   H4S 5034   4.409   6.462   7.056 -0.0333 -0.7208 -1.2243
   63SAPC   C25 5035   4.598   6.392   7.146 -0.6131 -0.6113 -0.1985
   63SAPC   H5R 5036   4.663   6.420   7.062 -0.1394 -1.4391 -0.1214
   63SAPC   C26 5037   4.674   6.365   7.257  0.7859 -0.7848  0.6943
   63SAPC   H6R 5038   4.784   6.367   7.252  0.7343 -0.3909 -0.6804
   63SAPC   C27 5039   4.622   6.323   7.393 -0.6699 -0.5019  0.0449
   63SAPC   H7R 5040   4.673   6.228   7.421 -3.1589 -1.7092  0.7921
   63SAPC   H7S 5041   4.514   6.298   7.393 -0.5033 -1.3563  1.7599
   63SAPC   C28 5042   4.641   6.438   7.489 -0.1885 -0.9167 -0.8475
   63SAPC   H8R 5043   4.617   6.540   7.457  1.1065 -0.4918 -0.5155
   63SAPC   C29 5044   4.680   6.425   7.615 -0.8525 -0.7032  0.1690
   63SAPC   H9R 5045   4.663   6.510   7.682  1.2201 -0.3947  0.3501
   63SAPC  C210 5046   4.706   6.292   7.682  0.0193  0.1678  0.5946
   63SAPC  H10R 5047   4.749   6.212   7.617 -0.1416 -0.6811  1.5018
   63SAPC  H10S 5048   4.607   6.248   7.707  1.6374 -3.7157  1.0249
   63SAPC  C211 5049   4.790   6.310   7.806 -0.1231  0.0827  0.5783
   63SAPC  H11R 5050   4.895   6.278   7.792 -0.1116 -0.3472  1.6058
   63SAPC  C212 5051   4.753   6.331   7.930  0.1419 -0.1798 -0.0092
   63SAPC  H12R 5052   4.833   6.365   7.997 -0.2687  0.6628  0.0702
   63SAPC  C213 5053   4.610   6.345   7.978  0.1623  0.4838  0.0216
   63SAPC  H13R 5054   4.545   6.359   7.888  1.9868  0.9175 -1.2845
   63SAPC  H13S 5055   4.596   6.435   8.041  1.5966  0.5840  0.2329
   63SAPC  C214 5056   4.565   6.220   8.056  0.1018 -0.8360  0.6507
   63SAPC  H14R 5057   4.592   6.134   7.994  0.3585  2.3434 -4.2290
   63SAPC  C215 5058   4.507   6.201   8.174 -0.2018  0.1699 -0.4474
   63SAPC  H15R 5059   4.485   6.099   8.209 -0.5605  0.9029  1.6140
   63SAPC  C216 5060   4.475   6.315   8.277 -0.3185 -0.3958  0.1812
   63SAPC  H16R 5061   4.402   6.270   8.348 -1.0160  1.0092  0.3986
   63SAPC  H16S 5062   4.412   6.388   8.221 -1.7925 -1.8084 -0.0993
   63SAPC  C217 5063   4.584   6.374   8.362  0.3739 -0.0902  0.3298
   63SAPC  H17R 5064   4.652   6.425   8.291 -0.1409  0.4040  0.1813
   63SAPC  H17S 5065   4.636   6.290   8.413  1.0564 -0.3133 -0.7021
   63SAPC  C218 5066   4.523   6.464   8.468 -0.0568 -0.0608  0.3823
   63SAPC  H18R 5067   4.442   6.402   8.513 -0.9322  0.2205 -0.7657
   63SAPC  H18S 5068   4.470   6.549   8.419  1.6668 -0.3186 -2.0410
   63SAPC  C219 5069   4.616   6.526   8.577 -0.1610  0.0373 -0.0700
   63SAPC  H19R 5070   4.670   6.608   8.526  0.0495  0.8948  1.4773
   63SAPC  H19S 5071   4.688   6.449   8.613 -0.5433  0.8324  2.6099
   63SAPC  C220 5072   4.543   6.589   8.696 -0.1219 -0.4144 -0.2997
   63SAPC  H20R 5073   4.480   6.512   8.745 -0.5195  0.0151 -0.1254
   63SAPC  H20S 5074   4.490   6.681   8.660 -1.1436 -0.6769  0.4865
   63SAPC  H20T 5075   4.618   6.606   8.776  1.6256 -0.1713 -1.9212
   63SAPC   C33 5076   3.949   6.163   7.048  0.4393 -0.5646 -0.0095
   63SAPC   H3X 5077   4.059   6.176   7.045  0.3333  0.8632  1.1533
   63SAPC   H3Y 5078   3.915   6.060   7.022 -3.9603  0.7630 -0.4343
   63SAPC   C34 5079   3.892   6.179   7.190  0.0686  1.1173  0.4926
   63SAPC   H4X 5080   3.782   6.172   7.176  0.3219 -1.4049 -0.7467
   63SAPC   H4Y 5081   3.924   6.273   7.241 -2.7083  1.3941  1.9102
   63SAPC   C35 5082   3.919   6.053   7.275 -0.1241 -0.0130 -0.2058
   63SAPC   H5X 5083   3.883   5.959   7.227  0.5434 -0.2572 -0.2306
   63SAPC   H5Y 5084   3.867   6.062   7.373 -0.4258 -1.6138 -0.1955
   63SAPC   C36 5085   4.069   6.027   7.307  0.4463 -0.1555 -0.1206
   63SAPC   H6X 5086   4.121   6.112   7.355 -0.7520  0.3535  0.3320
   63SAPC   H6Y 5087   4.128   6.007   7.215  1.5599 -1.7578  0.8995
   63SAPC   C37 5088   4.082   5.893   7.383  0.1394  0.2467  0.5607
   63SAPC   H7X 5089   4.189   5.866   7.371  0.3388  1.9583 -2.4318
   63SAPC   H7Y 5090   4.027   5.811   7.333  1.0643  1.6987 -3.1943
   63SAPC   C38 5091   4.062   5.891   7.534  0.1613  0.3720  0.0472
   63SAPC   H8X 5092   3.957   5.909   7.565 -0.0297 -0.3716 -0.1549
   63SAPC   H8Y 5093   4.141   5.961   7.570 -0.0126  0.5532  0.0757
   63SAPC   C39 5094   4.102   5.754   7.584 -0.1924 -0.2693  1.2877
   63SAPC   H9X 5095   4.204   5.743   7.542 -0.5202  1.1700  0.0034
   63SAPC   H9Y 5096   4.044   5.671   7.538  1.0034 -0.4399  0.0185
   63SAPC  C310 5097   4.120   5.743   7.736  0.4098 -0.2547  0.3515
   63SAPC  H10X 5098   4.015   5.757   7.772  0.7362 -1.6466  1.9899
   63SAPC  H10Y 5099   4.179   5.829   7.772 -0.5935  0.9775 -0.8524
   63SAPC  C311 5100   4.184   5.610   7.783 -0.1526 -0.3884  0.6990
   63SAPC  H11X 5101   4.287   5.607   7.740  0.5079  2.6581  1.8288
   63SAPC  H11Y 5102   4.119   5.533   7.736 -1.1200  0.8492 -0.0360
   63SAPC  C312 5103   4.190   5.608   7.933 -0.4047  0.3754 -0.6026
   63SAPC  H12X 5104   4.093   5.595   7.987  0.9498  0.6898  2.1110
   63SAPC  H12Y 5105   4.240   5.696   7.979 -1.6290 -0.4198  2.5386
   63SAPC  C313 5106   4.270   5.486   7.989 -0.0751  0.3317 -0.0447
   63SAPC  H13X 5107   4.374   5.487   7.951 -0.1343 -0.2484 -0.2442
   63SAPC  H13Y 5108   4.219   5.398   7.943 -1.5339  0.2641  1.5744
   63SAPC  C314 5109   4.285   5.481   8.146  0.6679 -0.5811 -0.4611
   63SAPC  H14X 5110   4.177   5.487   8.172  1.3727  2.1073  2.4007
   63SAPC  H14Y 5111   4.344   5.566   8.187 -0.1764 -1.3387  2.4968
   63SAPC  C315 5112   4.345   5.350   8.181  0.2976 -0.7752  0.2080
   63SAPC  H15X 5113   4.435   5.327   8.121 -0.9251  1.1351 -2.5796
   63SAPC  H15Y 5114   4.265   5.277   8.156 -0.5704  0.8461 -2.0521
   63SAPC  C316 5115   4.389   5.350   8.333  0.0294  0.6917  0.2020
   63SAPC  H16X 5116   4.294   5.371   8.387  1.4631  1.4001  2.5715
   63SAPC  H16Y 5117   4.461   5.427   8.368  0.2401 -0.3350  2.1392
   63SAPC  C317 5118   4.456   5.214   8.355  0.3915 -0.3858  0.2319
   63SAPC  H17X 5119   4.542   5.205   8.284  1.1088 -0.1637  1.0621
   63SAPC  H17Y 5120   4.396   5.127   8.320  0.1966 -0.5945  1.0765
   63SAPC  C318 5121   4.524   5.185   8.493  0.4890 -0.1244 -0.5363
   63SAPC  H18X 5122   4.450   5.207   8.573 -0.9024  0.1007 -1.8413
   63SAPC  H18Y 5123   4.605   5.260   8.502 -1.1575  2.0100 -2.1867
   63SAPC  H18Z 5124   4.571   5.084   8.497 -0.7124 -0.6911 -0.1827
   64SAPC     N 5125   2.789   0.535   5.636 -0.1182  0.4986 -0.3030
   64SAPC   C12 5126   2.878   0.665   5.619  0.0336 -0.0552 -0.2398
   64SAPC  H12A 5127   2.801   0.739   5.601 -0.4849  0.0894  2.2266
   64SAPC  H12B 5128   2.937   0.656   5.529 -1.7861 -3.9758 -1.2937
   64SAPC   C13 5129   2.725   0.506   5.509  0.6683 -0.0759  0.7082
   64SAPC  H13A 5130   2.793   0.493   5.426  0.7072  1.1617  0.5290
   64SAPC  H13B 5131   2.671   0.414   5.529 -0.9627  1.1068  1.9523
   64SAPC  H13C 5132   2.667   0.593   5.483  1.1276 -0.0828 -0.3968
   64SAPC   C14 5133   2.879   0.417   5.675 -0.2340  0.0942 -0.2710
   64SAPC  H14A 5134   2.948   0.399   5.594 -1.2280 -1.0983 -0.8928
   64SAPC  H14B 5135   2.925   0.445   5.769  1.2559 -2.8948  0.0025
   64SAPC  H14C 5136   2.829   0.324   5.699 -0.2197  1.1944  5.2942
   64SAPC   C15 5137   2.692   0.560   5.748 -0.4943 -0.4914  0.0608
   64SAPC  H15A 5138   2.632   0.649   5.732 -1.4301 -0.9553  0.8852
   64SAPC  H15B 5139   2.634   0.469   5.756 -0.4373 -0.4367  1.1591
   64SAPC  H15C 5140   2.750   0.573   5.838 -2.8074 -1.0882  1.7399
   64SAPC   C11 5141   2.972   0.714   5.738  0.3647  0.5781  0.0712
   64SAPC  H11A 5142   2.973   0.824   5.722  1.9665  0.3976 -1.3649
   64SAPC  H11B 5143   3.071   0.671   5.712 -0.5153 -0.9438 -0.9345
   64SAPC     P 5144   3.016   0.648   5.987  0.2318 -0.3715  0.5037
   64SAPC   O13 5145   3.063   0.509   5.986  0.3702 -0.0041 -0.2584
   64SAPC   O14 5146   3.117   0.758   5.984  0.0214  0.2732  0.2043
   64SAPC   O12 5147   2.918   0.670   5.861  0.0377 -0.6760  0.2844
   64SAPC   O11 5148   2.919   0.682   6.109  0.2393  0.4841 -0.7900
   64SAPC    C1 5149   2.818   0.591   6.146 -0.1434 -0.1721  0.4649
   64SAPC    HA 5150   2.725   0.651   6.151 -0.1601 -0.0159 -1.1954
   64SAPC    HB 5151   2.792   0.516   6.068  1.3212  1.2409 -1.4927
   64SAPC    C2 5152   2.838   0.524   6.286  0.4298 -0.0814 -0.4913
   64SAPC    HS 5153   2.747   0.473   6.323 -0.1434  0.6154 -0.9250
   64SAPC   O21 5154   2.879   0.619   6.387 -0.3416  0.1667  0.2763
   64SAPC   C21 5155   2.792   0.711   6.430 -0.4302 -0.0172 -0.2672
   64SAPC   O22 5156   2.694   0.750   6.370 -0.6894 -0.0656 -0.4738
   64SAPC   C22 5157   2.833   0.762   6.570  0.7241 -0.6972 -0.2147
   64SAPC   H2R 5158   2.936   0.804   6.575  1.2143 -1.9685  0.9091
   64SAPC   H2S 5159   2.762   0.846   6.587 -0.5293 -1.5626 -1.0024
   64SAPC    C3 5160   2.951   0.416   6.269  0.6354  0.2926  0.1005
   64SAPC    HX 5161   3.044   0.471   6.244  0.1408  0.7810 -0.6763
   64SAPC    HY 5162   2.913   0.344   6.193  0.1324 -1.2964  1.7870
   64SAPC   O31 5163   2.971   0.340   6.389 -0.2229 -0.4000  0.7304
   64SAPC   C31 5164   3.031   0.221   6.376 -0.3696 -0.9417  0.1976
   64SAPC   O32 5165   3.056   0.167   6.269  0.2563 -0.1405 -0.0271
   64SAPC   C32 5166   3.078   0.171   6.512  0.2042 -0.0168  0.2074
   64SAPC   H2X 5167   3.134   0.075   6.505 -1.3336 -0.8385 -1.5279
   64SAPC   H2Y 5168   2.983   0.148   6.565 -1.4250 -1.1707 -3.0093
   64SAPC   C23 5169   2.824   0.652   6.678  0.3322  1.0049 -0.4637
   64SAPC   H3R 5170   2.913   0.586   6.670 -0.0915  0.3028  0.5110
   64SAPC   H3S 5171   2.724   0.605   6.666 -0.0563  2.1305 -2.0763
   64SAPC   C24 5172   2.836   0.721   6.818 -0.0184 -0.3857  0.6407
   64SAPC   H4R 5173   2.759   0.801   6.818  0.2506 -0.1184  1.4922
   64SAPC   H4S 5174   2.928   0.782   6.805 -2.0452  3.0332  1.2515
   64SAPC   C25 5175   2.827   0.632   6.936  0.7753  0.0621  0.1233
   64SAPC   H5R 5176   2.741   0.563   6.933  1.4657 -0.9345  1.6674
   64SAPC   C26 5177   2.905   0.627   7.044 -0.3410 -0.5966  0.5816
   64SAPC   H6R 5178   2.889   0.547   7.117  0.5476 -0.0974  1.3539
   64SAPC   C27 5179   3.027   0.719   7.063 -0.0530 -0.1626  0.1899
   64SAPC   H7R 5180   3.006   0.807   7.128  2.3487 -0.6803  1.7983
   64SAPC   H7S 5181   3.047   0.766   6.964 -0.7822  0.9046  0.5328
   64SAPC   C28 5182   3.135   0.631   7.120  0.1657 -0.3067  0.3108
   64SAPC   H8R 5183   3.192   0.580   7.040  1.3463 -1.3165  1.7266
   64SAPC   C29 5184   3.181   0.626   7.245 -0.0191  0.6254 -0.8191
   64SAPC   H9R 5185   3.269   0.564   7.264 -2.2732 -2.3420  0.8703
   64SAPC  C210 5186   3.138   0.703   7.372  0.7821  0.3429  0.1490
   64SAPC  H10R 5187   3.095   0.804   7.356  0.0836  0.0103 -0.1313
   64SAPC  H10S 5188   3.230   0.725   7.431  0.1748  0.1599  1.1859
   64SAPC  C211 5189   3.055   0.609   7.452 -0.3879 -1.3604  0.7529
   64SAPC  H11R 5190   2.978   0.550   7.401 -0.2549 -1.3143  0.4923
   64SAPC  C212 5191   3.060   0.613   7.587  0.1175  0.4650 -0.0542
   64SAPC  H12R 5192   3.024   0.520   7.635  0.4946  0.8798  1.0715
   64SAPC  C213 5193   3.147   0.685   7.686 -0.3367 -0.0247  0.1507
   64SAPC  H13R 5194   3.230   0.743   7.640  0.3195 -0.4747  0.7411
   64SAPC  H13S 5195   3.214   0.609   7.732  3.7498  1.6679 -2.3612
   64SAPC  C214 5196   3.084   0.775   7.789 -0.0441  0.5527  0.2787
   64SAPC  H14R 5197   3.114   0.879   7.771  0.5444  0.3389  0.0261
   64SAPC  C215 5198   3.030   0.733   7.907  0.4545 -0.1348  0.0646
   64SAPC  H15R 5199   3.003   0.808   7.984 -1.4227 -0.8146  0.1152
   64SAPC  C216 5200   3.021   0.591   7.953  0.3884  0.2101  0.1505
   64SAPC  H16R 5201   3.047   0.516   7.875  0.8274  0.9199 -0.3967
   64SAPC  H16S 5202   2.914   0.575   7.980  0.2862  1.5121  0.6115
   64SAPC  C217 5203   3.105   0.558   8.082 -0.2021  0.0610 -0.3456
   64SAPC  H17R 5204   3.213   0.549   8.058  0.6524  1.1789  2.5922
   64SAPC  H17S 5205   3.074   0.457   8.117 -0.0468  0.0768 -0.1602
   64SAPC  C218 5206   3.074   0.647   8.203  0.0712 -0.2014  0.3967
   64SAPC  H18R 5207   2.984   0.596   8.243 -0.9573  0.9514 -0.3618
   64SAPC  H18S 5208   3.054   0.754   8.181  2.7624  0.8360  2.4460
   64SAPC  C219 5209   3.180   0.654   8.313  0.0473 -0.5835  0.7818
   64SAPC  H19R 5210   3.179   0.557   8.367 -1.2764  0.1742  2.2056
   64SAPC  H19S 5211   3.139   0.724   8.390  1.2886  1.8821 -0.6573
   64SAPC  C220 5212   3.318   0.701   8.274  0.0788 -0.1285  0.6324
   64SAPC  H20R 5213   3.367   0.623   8.212  0.4894  0.9911 -0.4926
   64SAPC  H20S 5214   3.380   0.716   8.365  1.0411 -0.6074  0.0658
   64SAPC  H20T 5215   3.315   0.786   8.203  2.2067  1.6982  2.5700
   64SAPC   C33 5216   3.161   0.274   6.583 -0.3791 -0.1556 -0.1961
   64SAPC   H3X 5217   3.097   0.354   6.626  2.3209  2.1234 -0.1429
   64SAPC   H3Y 5218   3.224   0.333   6.513 -1.8404  1.4074 -0.2689
   64SAPC   C34 5219   3.243   0.213   6.700  0.6253  0.2167 -0.7657
   64SAPC   H4X 5220   3.322   0.282   6.737  1.2988 -2.1303  2.5911
   64SAPC   H4Y 5221   3.287   0.120   6.659  0.5390 -0.1914  0.0420
   64SAPC   C35 5222   3.167   0.177   6.834  0.0665 -0.2868 -0.3933
   64SAPC   H5X 5223   3.087   0.103   6.814 -0.9175  0.6499 -0.0516
   64SAPC   H5Y 5224   3.113   0.265   6.875 -2.7007 -2.2791  0.4666
   64SAPC   C36 5225   3.257   0.117   6.945 -0.3361  0.1523  0.1838
   64SAPC   H6X 5226   3.308   0.031   6.896 -1.5266 -0.0287 -0.8004
   64SAPC   H6Y 5227   3.189   0.085   7.027 -1.6610 -3.0009 -1.9544
   64SAPC   C37 5228   3.372   0.213   6.992  0.3569  0.6658  0.1785
   64SAPC   H7X 5229   3.321   0.295   7.047  1.1176  1.5188 -0.3540
   64SAPC   H7Y 5230   3.430   0.259   6.908 -0.5121  0.0261 -0.8006
   64SAPC   C38 5231   3.477   0.147   7.074 -0.0806  0.1205  0.6837
   64SAPC   H8X 5232   3.569   0.208   7.081 -1.1048  1.6967  0.7913
   64SAPC   H8Y 5233   3.497   0.048   7.028  1.3153  0.7836 -0.1986
   64SAPC   C39 5234   3.426   0.136   7.215  0.0994 -0.0618  0.3575
   64SAPC   H9X 5235   3.376   0.037   7.227  1.0692 -0.4209  1.5606
   64SAPC   H9Y 5236   3.343   0.207   7.238  1.0147  0.3208  2.6622
   64SAPC  C310 5237   3.546   0.135   7.310  0.1090 -0.1922  0.0060
   64SAPC  H10X 5238   3.569   0.243   7.325 -3.1935  0.7949 -1.0056
   64SAPC  H10Y 5239   3.629   0.088   7.254 -0.8581 -1.8840 -0.0813
   64SAPC  C311 5240   3.544   0.059   7.441 -0.4708 -0.5849  0.7763
   64SAPC  H11X 5241   3.520  -0.049   7.430  1.8220 -1.0843  0.0349
   64SAPC  H11Y 5242   3.470   0.116   7.500  0.1200 -0.2368  1.2008
   64SAPC  C312 5243   3.686   0.074   7.508 -0.5171 -0.2310 -0.2496
   64SAPC  H12X 5244   3.704   0.182   7.527  2.7069 -0.7053 -0.1837
   64SAPC  H12Y 5245   3.755   0.030   7.433 -0.7318 -1.0122 -0.0053
   64SAPC  C313 5246   3.684   0.000   7.643  0.7257  0.5890 -0.4816
   64SAPC  H13X 5247   3.785  -0.043   7.657 -0.2794 -1.7244  0.0877
   64SAPC  H13Y 5248   3.606  -0.078   7.635 -0.4843  1.9656 -3.4240
   64SAPC  C314 5249   3.649   0.086   7.760 -0.1263  0.4180 -0.5304
   64SAPC  H14X 5250   3.544   0.119   7.745 -0.3672 -0.6597 -1.3031
   64SAPC  H14Y 5251   3.706   0.181   7.751  3.1257 -1.5390 -2.0491
   64SAPC  C315 5252   3.677   0.020   7.897  0.1276  0.4191 -0.1125
   64SAPC  H15X 5253   3.788   0.016   7.900  0.3932  1.8647 -3.4747
   64SAPC  H15Y 5254   3.642  -0.085   7.884 -2.2832  1.3977 -2.5253
   64SAPC  C316 5255   3.609   0.089   8.016 -0.0163  0.3641 -0.6584
   64SAPC  H16X 5256   3.637   0.040   8.112  0.7446  1.4802 -0.2931
   64SAPC  H16Y 5257   3.499   0.087   8.001 -0.2641 -0.8479  0.9600
   64SAPC  C317 5258   3.643   0.232   8.034 -0.8939  0.0662 -0.1363
   64SAPC  H17X 5259   3.638   0.294   7.942 -0.4848 -0.9650 -0.8769
   64SAPC  H17Y 5260   3.751   0.230   8.062 -0.2761  0.2528 -2.2846
   64SAPC  C318 5261   3.569   0.296   8.153 -0.3773 -0.1562 -0.3121
   64SAPC  H18X 5262   3.594   0.251   8.251  0.8836  2.4893  0.6699
   64SAPC  H18Y 5263   3.459   0.295   8.133 -0.7674  0.4705  1.6599
   64SAPC  H18Z 5264   3.607   0.399   8.169 -1.8549  0.2401  0.9159
   65SAPC     N 5265   6.552   1.981   5.821  0.1551 -0.0180  0.5264
   65SAPC   C12 5266   6.501   1.862   5.898 -0.2176  0.3180 -0.0087
   65SAPC  H12A 5267   6.518   1.883   6.002 -0.1052  1.3574 -0.2221
   65SAPC  H12B 5268   6.563   1.777   5.876 -1.9256 -0.5834 -1.7434
   65SAPC   C13 5269   6.526   1.958   5.676  0.3807 -0.3947  0.4471
   65SAPC  H13A 5270   6.541   2.051   5.622  0.4694 -0.6972 -0.0503
   65SAPC  H13B 5271   6.589   1.882   5.633  0.2621 -0.0698 -0.3205
   65SAPC  H13C 5272   6.423   1.933   5.653  1.5328 -2.6795 -3.1203
   65SAPC   C14 5273   6.475   2.104   5.870  0.4263 -0.4806  0.0796
   65SAPC  H14A 5274   6.373   2.103   5.835  0.7793 -0.6981 -0.9877
   65SAPC  H14B 5275   6.469   2.107   5.978  0.5535  1.1235  0.0659
   65SAPC  H14C 5276   6.537   2.189   5.847  0.6271 -0.4541  0.7037
   65SAPC   C15 5277   6.700   2.007   5.852 -0.7087  0.0012  0.1903
   65SAPC  H15A 5278   6.725   2.017   5.957  0.7382  0.0801 -0.1323
   65SAPC  H15B 5279   6.753   1.916   5.828 -1.2432 -0.7243  1.6244
   65SAPC  H15C 5280   6.754   2.073   5.786 -1.0514  0.8240  0.7197
   65SAPC   C11 5281   6.346   1.826   5.880 -0.2105  0.2831  0.0749
   65SAPC  H11A 5282   6.340   1.736   5.945  0.1049  0.0372 -0.2260
   65SAPC  H11B 5283   6.331   1.798   5.773 -2.7079 -2.2004  0.9480
   65SAPC     P 5284   6.101   1.887   5.940 -0.0028  0.3989 -0.0448
   65SAPC   O13 5285   6.031   1.982   6.030 -0.1149 -0.2335  0.1414
   65SAPC   O14 5286   6.050   1.886   5.798 -0.2862 -0.6052 -0.4081
   65SAPC   O12 5287   6.258   1.928   5.930 -0.1853 -0.1894 -0.6681
   65SAPC   O11 5288   6.102   1.745   6.003  0.1056  0.4614 -0.0999
   65SAPC    C1 5289   6.154   1.704   6.131 -0.0428  0.2299  0.6637
   65SAPC    HA 5290   6.157   1.593   6.135  1.4473  0.2949  1.8899
   65SAPC    HB 5291   6.252   1.750   6.155 -0.5862  2.3218 -0.7942
   65SAPC    C2 5292   6.059   1.752   6.245  0.4993  0.0525 -0.0372
   65SAPC    HS 5293   6.023   1.856   6.232  0.0231 -0.3557 -2.5977
   65SAPC   O21 5294   6.104   1.732   6.376 -0.9627 -0.3298 -0.4797
   65SAPC   C21 5295   6.201   1.810   6.417 -0.2882 -0.4305  0.3893
   65SAPC   O22 5296   6.245   1.903   6.356  0.5369 -0.0010 -0.4355
   65SAPC   C22 5297   6.272   1.762   6.542  0.9934 -0.3082 -0.1969
   65SAPC   H2R 5298   6.201   1.758   6.628  2.9001  0.6883  1.5092
   65SAPC   H2S 5299   6.303   1.658   6.521  0.5630 -1.1696  2.8661
   65SAPC    C3 5300   5.922   1.673   6.226  0.2155 -0.3040 -0.5944
   65SAPC    HX 5301   5.954   1.568   6.208  0.6861 -0.0257 -1.4520
   65SAPC    HY 5302   5.866   1.714   6.139  1.7294 -1.6563 -2.2808
   65SAPC   O31 5303   5.834   1.690   6.344  0.0388 -0.3637  0.2368
   65SAPC   C31 5304   5.801   1.579   6.411 -0.6948 -0.8038  0.6717
   65SAPC   O32 5305   5.855   1.471   6.392  0.2754  0.3556  0.2667
   65SAPC   C32 5306   5.718   1.608   6.531  0.1442  0.0995 -0.2088
   65SAPC   H2X 5307   5.657   1.700   6.517 -0.1516 -0.2961 -1.7623
   65SAPC   H2Y 5308   5.794   1.618   6.611  0.4461  2.6171 -0.7355
   65SAPC   C23 5309   6.386   1.860   6.591  0.8411 -0.3263  0.2500
   65SAPC   H3R 5310   6.358   1.967   6.587  1.0139 -0.3165 -1.9532
   65SAPC   H3S 5311   6.476   1.842   6.528  1.2161  1.5490  0.2132
   65SAPC   C24 5312   6.421   1.821   6.737 -0.1050 -0.1638  0.0632
   65SAPC   H4R 5313   6.517   1.870   6.767 -0.1494 -0.3511  0.5228
   65SAPC   H4S 5314   6.457   1.716   6.725 -1.1391 -0.3158 -2.0788
   65SAPC   C25 5315   6.310   1.854   6.839 -0.5605 -0.1773 -0.3403
   65SAPC   H5R 5316   6.219   1.896   6.792 -0.8118 -0.3760 -0.0398
   65SAPC   C26 5317   6.310   1.852   6.972  0.4759 -0.2257 -0.0560
   65SAPC   H6R 5318   6.217   1.873   7.028  0.2585 -0.4502 -0.3286
   65SAPC   C27 5319   6.426   1.820   7.056  0.2082  0.4655  0.1415
   65SAPC   H7R 5320   6.502   1.767   6.995  2.3495  2.0673  1.2820
   65SAPC   H7S 5321   6.395   1.744   7.131 -2.8663  2.1601  0.7585
   65SAPC   C28 5322   6.494   1.937   7.118 -0.1346 -0.7683 -0.1420
   65SAPC   H8R 5323   6.595   1.960   7.082 -0.6255  2.7420  0.4143
   65SAPC   C29 5324   6.436   2.034   7.194 -0.1061 -0.7791 -0.2285
   65SAPC   H9R 5325   6.505   2.107   7.239 -0.6464 -0.7465  0.5756
   65SAPC  C210 5326   6.294   2.047   7.238  0.5391  0.5734  0.0829
   65SAPC  H10R 5327   6.265   1.941   7.254  0.0299  0.8525  1.1209
   65SAPC  H10S 5328   6.229   2.082   7.156 -0.3165  1.1863  0.9913
   65SAPC  C211 5329   6.270   2.116   7.370  0.0390 -0.0581 -0.1079
   65SAPC  H11R 5330   6.227   2.217   7.363  0.3461  0.0455 -0.5870
   65SAPC  C212 5331   6.303   2.063   7.495 -0.3508 -0.0767  0.1221
   65SAPC  H12R 5332   6.286   2.130   7.580 -1.4531  0.8095 -0.7610
   65SAPC  C213 5333   6.364   1.927   7.521  0.3354  0.0291 -0.0183
   65SAPC  H13R 5334   6.392   1.865   7.433 -0.4917  0.6711 -0.7549
   65SAPC  H13S 5335   6.288   1.863   7.571  0.3807  1.4100  1.9718
   65SAPC  C214 5336   6.480   1.935   7.615  0.3384 -0.0252  0.0798
   65SAPC  H14R 5337   6.551   2.016   7.591 -0.6409  1.2880  1.4517
   65SAPC  C215 5338   6.502   1.870   7.728  1.0153 -0.0496  0.2353
   65SAPC  H15R 5339   6.587   1.892   7.795 -0.1864 -0.2449  1.9086
   65SAPC  C216 5340   6.406   1.772   7.792  0.0098 -0.3938  0.0967
   65SAPC  H16R 5341   6.308   1.757   7.742 -0.2783 -1.7348  1.0147
   65SAPC  H16S 5342   6.384   1.797   7.898 -2.8106  0.7104 -0.6597
   65SAPC  C217 5343   6.448   1.623   7.807 -0.2221 -0.4004  0.6712
   65SAPC  H17R 5344   6.447   1.573   7.707 -0.9174 -1.1789  1.0562
   65SAPC  H17S 5345   6.389   1.571   7.885  0.7297 -0.4769  1.3593
   65SAPC  C218 5346   6.596   1.596   7.850  0.3122  0.6937  0.0728
   65SAPC  H18R 5347   6.623   1.673   7.926 -0.9361  0.6221  0.6269
   65SAPC  H18S 5348   6.651   1.586   7.755 -1.8859 -1.8120 -1.0628
   65SAPC  C219 5349   6.603   1.468   7.930  0.0637 -0.1942 -0.0816
   65SAPC  H19R 5350   6.692   1.405   7.907  0.5563  1.3722 -3.0356
   65SAPC  H19S 5351   6.527   1.392   7.902 -0.5344 -0.8179  2.9020
   65SAPC  C220 5352   6.586   1.491   8.075  0.2951  0.2645  0.6744
   65SAPC  H20R 5353   6.486   1.538   8.087  1.3262  3.4016 -1.7116
   65SAPC  H20S 5354   6.658   1.554   8.131  2.5183 -1.3787 -0.1726
   65SAPC  H20T 5355   6.594   1.395   8.130  0.6309 -0.8308 -1.1720
   65SAPC   C33 5356   5.618   1.497   6.562  0.4782  0.0861 -0.0459
   65SAPC   H3X 5357   5.661   1.396   6.546  2.0060  0.3580  1.9494
   65SAPC   H3Y 5358   5.538   1.501   6.485  0.2339 -1.6680  0.0775
   65SAPC   C34 5359   5.567   1.495   6.711  0.1858  0.6581  0.3601
   65SAPC   H4X 5360   5.554   1.603   6.736 -0.2346  0.7166 -0.0963
   65SAPC   H4Y 5361   5.639   1.462   6.789  0.0946  0.3669  0.3217
   65SAPC   C35 5362   5.443   1.408   6.728  0.6107  0.1175  0.5442
   65SAPC   H5X 5363   5.447   1.297   6.733 -3.9978 -0.2757  0.2864
   65SAPC   H5Y 5364   5.370   1.430   6.647 -3.6413 -1.4405  3.5705
   65SAPC   C36 5365   5.384   1.455   6.864 -0.0698 -0.1940  0.4735
   65SAPC   H6X 5366   5.358   1.563   6.851 -2.3164 -0.9301 -1.9838
   65SAPC   H6Y 5367   5.463   1.448   6.942 -0.3132  2.2310  1.0386
   65SAPC   C37 5368   5.244   1.392   6.897 -0.2137  0.3437  0.4180
   65SAPC   H7X 5369   5.243   1.282   6.881 -1.0288  0.3738  0.1739
   65SAPC   H7Y 5370   5.174   1.416   6.814 -0.5591 -4.1272 -0.8529
   65SAPC   C38 5371   5.179   1.429   7.035  0.7122  0.6541  0.3565
   65SAPC   H8X 5372   5.088   1.367   7.054  0.1684  1.1480 -0.6050
   65SAPC   H8Y 5373   5.145   1.534   7.029  0.4481  0.5802  0.5311
   65SAPC   C39 5374   5.269   1.411   7.149 -0.9280  0.3101 -0.4601
   65SAPC   H9X 5375   5.338   1.497   7.158  2.3817 -2.0990 -1.0537
   65SAPC   H9Y 5376   5.339   1.328   7.124 -0.2071 -0.2557  2.9192
   65SAPC  C310 5377   5.197   1.395   7.275  0.1836  0.0927 -0.2002
   65SAPC  H10X 5378   5.160   1.291   7.281  1.3140 -0.3302 -0.2777
   65SAPC  H10Y 5379   5.108   1.461   7.285  0.5260  0.3898  0.9458
   65SAPC  C311 5380   5.284   1.426   7.395  0.5182 -0.0139 -0.5478
   65SAPC  H11X 5381   5.372   1.488   7.366  0.7805  0.0123  0.2776
   65SAPC  H11Y 5382   5.318   1.334   7.448 -1.6993  0.3998  1.8112
   65SAPC  C312 5383   5.215   1.492   7.512 -0.2862  0.8022  0.0942
   65SAPC  H12X 5384   5.132   1.428   7.549 -0.1938 -0.2880 -1.4930
   65SAPC  H12Y 5385   5.161   1.586   7.488  1.3421  1.6782 -0.2926
   65SAPC  C313 5386   5.311   1.523   7.632 -0.2745  0.0472 -0.3301
   65SAPC  H13X 5387   5.368   1.607   7.587  1.7360 -1.9039 -1.6949
   65SAPC  H13Y 5388   5.388   1.443   7.643 -2.0958 -1.9275 -1.0918
   65SAPC  C314 5389   5.245   1.560   7.758  0.2012 -0.3648 -0.5974
   65SAPC  H14X 5390   5.152   1.618   7.744  0.9115  1.3583  1.3994
   65SAPC  H14Y 5391   5.306   1.633   7.814  0.5479  1.0311 -2.6738
   65SAPC  C315 5392   5.213   1.434   7.844 -0.6919 -0.5473  0.1623
   65SAPC  H15X 5393   5.315   1.395   7.865 -0.5359 -1.4346 -1.9289
   65SAPC  H15Y 5394   5.170   1.350   7.786 -2.2789 -0.2164  0.7965
   65SAPC  C316 5395   5.133   1.448   7.972 -0.0928  0.1405  0.0419
   65SAPC  H16X 5396   5.039   1.504   7.953  0.8112  1.9115  0.6242
   65SAPC  H16Y 5397   5.192   1.511   8.041 -0.0837  0.6243 -0.4062
   65SAPC  C317 5398   5.100   1.307   8.029  0.7616 -0.4430  0.9531
   65SAPC  H17X 5399   5.198   1.263   8.056  1.0944  0.8717  1.9996
   65SAPC  H17Y 5400   5.049   1.243   7.954 -0.3494 -1.1050  2.2290
   65SAPC  C318 5401   5.030   1.310   8.161 -0.2105 -0.3314  0.3568
   65SAPC  H18X 5402   4.923   1.336   8.142 -0.3943 -1.3239 -0.0689
   65SAPC  H18Y 5403   5.068   1.377   8.241 -2.6374 -0.6350  1.8928
   65SAPC  H18Z 5404   5.022   1.212   8.214  0.8358  0.9413  3.0388
   66SAPC     N 5405   2.740   1.005   6.009  0.1051 -0.6158 -0.0221
   66SAPC   C12 5406   2.630   1.109   6.015  0.7662  0.5361  0.6569
   66SAPC  H12A 5407   2.641   1.176   6.099 -0.2188 -0.3510  1.5165
   66SAPC  H12B 5408   2.537   1.061   6.041  1.6527 -0.3687  2.3055
   66SAPC   C13 5409   2.727   0.915   5.896 -0.4348 -0.1103 -0.0383
   66SAPC  H13A 5410   2.797   0.833   5.896  0.5465  0.7069 -0.0849
   66SAPC  H13B 5411   2.631   0.865   5.893  0.8550 -2.7297 -0.3203
   66SAPC  H13C 5412   2.753   0.971   5.807  0.5418  0.3743  0.5371
   66SAPC   C14 5413   2.876   1.068   5.996  0.3570  0.5704 -0.1490
   66SAPC  H14A 5414   2.944   0.988   6.023  0.2629  0.9847  1.4151
   66SAPC  H14B 5415   2.889   1.108   5.897  0.8395  0.9615  0.0681
   66SAPC  H14C 5416   2.883   1.153   6.062 -0.9222  0.1989  0.5007
   66SAPC   C15 5417   2.726   0.932   6.137  0.4471  0.7946 -0.2904
   66SAPC  H15A 5418   2.625   0.899   6.152  0.4893  1.3426  1.3304
   66SAPC  H15B 5419   2.789   0.844   6.135 -0.3758  0.1918 -0.0894
   66SAPC  H15C 5420   2.744   0.988   6.227 -1.7962 -2.3784  2.3608
   66SAPC   C11 5421   2.599   1.196   5.886  0.6830 -0.4291  0.4667
   66SAPC  H11A 5422   2.502   1.249   5.896  2.0917  2.4772 -0.2450
   66SAPC  H11B 5423   2.584   1.129   5.799  0.3297 -0.1032  0.2708
   66SAPC     P 5424   2.727   1.427   5.912 -0.0140 -0.1362 -0.3803
   66SAPC   O13 5425   2.845   1.472   5.833  0.1730 -0.2152  0.0202
   66SAPC   O14 5426   2.605   1.502   5.898 -0.2245 -0.5477 -0.4498
   66SAPC   O12 5427   2.703   1.280   5.853 -0.0972 -0.0961  0.3515
   66SAPC   O11 5428   2.766   1.420   6.064 -0.4236 -0.2895 -0.0860
   66SAPC    C1 5429   2.805   1.529   6.142  0.2361 -0.6028  0.3867
   66SAPC    HA 5430   2.900   1.556   6.091 -0.5672  1.8678  0.0459
   66SAPC    HB 5431   2.737   1.617   6.146  1.2872  0.1984  3.0885
   66SAPC    C2 5432   2.817   1.486   6.292 -0.2471  0.1737  0.0960
   66SAPC    HS 5433   2.885   1.398   6.293  0.2922  0.5858  1.5634
   66SAPC   O21 5434   2.682   1.452   6.338  0.1954 -0.7051  0.1962
   66SAPC   C21 5435   2.649   1.326   6.326 -0.2368 -0.3105  0.6964
   66SAPC   O22 5436   2.709   1.239   6.265  0.0127  0.1473 -0.3355
   66SAPC   C22 5437   2.515   1.301   6.396 -0.3019  0.1030 -0.0042
   66SAPC   H2R 5438   2.533   1.326   6.503 -1.1258 -1.6904  0.6037
   66SAPC   H2S 5439   2.447   1.374   6.349  1.4367  0.1159 -2.7177
   66SAPC    C3 5440   2.882   1.603   6.365 -0.2201 -0.5276  0.2078
   66SAPC    HX 5441   2.807   1.682   6.348 -1.8035 -1.7548  1.2331
   66SAPC    HY 5442   2.977   1.630   6.314 -0.2086  0.9436  0.9587
   66SAPC   O31 5443   2.879   1.568   6.508 -0.0904 -0.6377  0.5345
   66SAPC   C31 5444   2.986   1.603   6.583  0.6749 -0.1286  0.7307
   66SAPC   O32 5445   3.084   1.661   6.545 -0.0385  0.2433  0.3355
   66SAPC   C32 5446   2.956   1.561   6.729  0.7179 -0.6890 -0.6986
   66SAPC   H2X 5447   2.912   1.459   6.739  0.3329 -0.2576  4.0925
   66SAPC   H2Y 5448   2.876   1.633   6.755 -0.5920 -1.5414 -2.2064
   66SAPC   C23 5449   2.463   1.153   6.393 -0.5199  0.5801 -0.2167
   66SAPC   H3R 5450   2.448   1.110   6.292  1.5701 -3.0926  0.8664
   66SAPC   H3S 5451   2.361   1.169   6.433  0.3124 -0.7112  2.6927
   66SAPC   C24 5452   2.534   1.061   6.490 -0.5202  0.1697 -0.5687
   66SAPC   H4R 5453   2.542   1.093   6.596 -0.5122 -2.8232  0.4371
   66SAPC   H4S 5454   2.640   1.053   6.456  0.2705  2.6155  1.0364
   66SAPC   C25 5455   2.457   0.933   6.487  1.0036  0.5767  0.0908
   66SAPC   H5R 5456   2.487   0.864   6.406 -1.5236 -0.7823  0.2024
   66SAPC   C26 5457   2.366   0.887   6.580  1.0220  0.1316  1.2705
   66SAPC   H6R 5458   2.317   0.790   6.564  1.1326 -0.1131  2.3118
   66SAPC   C27 5459   2.323   0.964   6.697 -0.0884  0.2678 -0.7511
   66SAPC   H7R 5460   2.236   1.028   6.674  0.2778  0.4409 -1.6953
   66SAPC   H7S 5461   2.411   1.018   6.738 -0.3316  0.7478 -0.8581
   66SAPC   C28 5462   2.258   0.879   6.811 -0.2741  0.7410 -0.5687
   66SAPC   H8R 5463   2.164   0.922   6.850 -0.8520 -0.4213 -0.6541
   66SAPC   C29 5464   2.304   0.771   6.874  0.1768 -0.1611 -0.2002
   66SAPC   H9R 5465   2.245   0.730   6.958 -1.6255 -0.8683 -1.7378
   66SAPC  C210 5466   2.433   0.708   6.838 -0.2634  0.2114  0.2128
   66SAPC  H10R 5467   2.488   0.693   6.934 -0.4372 -1.5655  0.0643
   66SAPC  H10S 5468   2.502   0.769   6.776 -2.0371  0.3011 -1.7792
   66SAPC  C211 5469   2.415   0.575   6.774 -0.0767 -0.1157 -0.1269
   66SAPC  H11R 5470   2.421   0.592   6.665  0.6122 -2.3053 -0.4796
   66SAPC  C212 5471   2.392   0.456   6.825 -0.3139  0.8562 -0.8638
   66SAPC  H12R 5472   2.384   0.376   6.749  2.7649 -0.2842 -0.1362
   66SAPC  C213 5473   2.394   0.413   6.968  0.7532 -0.2550 -0.0417
   66SAPC  H13R 5474   2.482   0.468   7.008  0.3139  0.0592  0.5127
   66SAPC  H13S 5475   2.417   0.304   6.972 -1.4311 -0.9121 -2.8054
   66SAPC  C214 5476   2.273   0.439   7.058  0.2285  0.1436 -0.0218
   66SAPC  H14R 5477   2.176   0.440   7.006 -0.2052 -0.8351  0.7210
   66SAPC  C215 5478   2.266   0.465   7.190 -0.1353 -0.2809  0.1940
   66SAPC  H15R 5479   2.168   0.467   7.240 -0.1095  2.3636  0.2844
   66SAPC  C216 5480   2.388   0.476   7.281  0.0429  0.1819 -0.2388
   66SAPC  H16R 5481   2.468   0.408   7.245 -0.7642 -1.0777  0.2934
   66SAPC  H16S 5482   2.372   0.442   7.385 -2.8830  2.1335  0.0629
   66SAPC  C217 5483   2.442   0.616   7.283 -0.3846 -1.0001 -0.2858
   66SAPC  H17R 5484   2.363   0.694   7.284  1.2097  0.6864 -0.6327
   66SAPC  H17S 5485   2.499   0.647   7.193 -0.0709  1.4642  0.6892
   66SAPC  C218 5486   2.543   0.649   7.394  1.1079 -0.1516  0.1287
   66SAPC  H18R 5487   2.493   0.653   7.494  0.0748  0.3768 -0.3886
   66SAPC  H18S 5488   2.572   0.756   7.379  0.3898 -0.0054 -0.3017
   66SAPC  C219 5489   2.660   0.555   7.406 -0.0401  0.0218  0.0916
   66SAPC  H19R 5490   2.758   0.587   7.366 -0.8871  0.7219 -1.5361
   66SAPC  H19S 5491   2.643   0.457   7.355 -0.3726  1.2975 -2.3693
   66SAPC  C220 5492   2.691   0.528   7.556  0.3515  1.1713  0.2974
   66SAPC  H20R 5493   2.744   0.430   7.560 -1.5280  0.1164  0.5960
   66SAPC  H20S 5494   2.590   0.508   7.598  1.2268 -1.8058  1.2693
   66SAPC  H20T 5495   2.740   0.608   7.615  1.2645  0.0760  1.0572
   66SAPC   C33 5496   3.090   1.574   6.804 -0.5288  0.3895  0.0418
   66SAPC   H3X 5497   3.104   1.684   6.800  0.8337  0.1978 -2.4123
   66SAPC   H3Y 5498   3.172   1.524   6.749 -2.0764 -2.4193  0.1225
   66SAPC   C34 5499   3.088   1.532   6.951 -0.2200 -0.0727 -0.1927
   66SAPC   H4X 5500   3.063   1.424   6.965  2.3697 -0.8464 -1.0576
   66SAPC   H4Y 5501   3.003   1.584   7.000  0.1375  0.9243 -0.5978
   66SAPC   C35 5502   3.220   1.563   7.016 -0.3839 -0.1104  0.9126
   66SAPC   H5X 5503   3.225   1.674   7.014 -3.3368  0.1245 -1.8051
   66SAPC   H5Y 5504   3.305   1.525   6.955 -1.8979  0.4069 -1.6898
   66SAPC   C36 5505   3.225   1.511   7.160  0.9306  0.2894  0.9322
   66SAPC   H6X 5506   3.328   1.538   7.192  1.2011  0.4928 -0.0656
   66SAPC   H6Y 5507   3.216   1.400   7.163  0.4262  0.2678 -0.4806
   66SAPC   C37 5508   3.130   1.582   7.264  0.2715  0.7097  0.6910
   66SAPC   H7X 5509   3.028   1.556   7.230  1.2641 -1.0874 -1.0652
   66SAPC   H7Y 5510   3.146   1.692   7.261 -0.5435  0.8624  1.3764
   66SAPC   C38 5511   3.149   1.523   7.407 -1.2028  0.3689 -1.1096
   66SAPC   H8X 5512   3.258   1.531   7.430 -1.4492 -1.8461  1.2955
   66SAPC   H8Y 5513   3.121   1.416   7.407  3.2851 -0.9912 -0.8228
   66SAPC   C39 5514   3.080   1.599   7.518  0.3061 -0.1871  0.1042
   66SAPC   H9X 5515   2.971   1.581   7.499 -0.0768  1.2966  0.7796
   66SAPC   H9Y 5516   3.093   1.709   7.517  0.9018 -0.2525 -1.3774
   66SAPC  C310 5517   3.112   1.549   7.659 -0.6398 -0.2921 -0.0512
   66SAPC  H10X 5518   3.217   1.578   7.680  0.1211 -2.5359 -0.5306
   66SAPC  H10Y 5519   3.121   1.438   7.661 -0.2538 -0.3568  4.1377
   66SAPC  C311 5520   3.009   1.597   7.765 -0.1059 -0.4019  0.0956
   66SAPC  H11X 5521   2.916   1.550   7.726  0.1256 -1.4280  0.7355
   66SAPC  H11Y 5522   3.003   1.707   7.756 -6.0039 -0.4960 -0.5907
   66SAPC  C312 5523   3.049   1.557   7.907 -0.1126 -0.4119  0.3107
   66SAPC  H12X 5524   3.150   1.589   7.940  0.9384 -1.3188 -1.8119
   66SAPC  H12Y 5525   3.059   1.446   7.909  1.2802 -0.2962  1.2582
   66SAPC  C313 5526   2.934   1.595   8.014  0.3621  0.1522 -0.1268
   66SAPC  H13X 5527   2.940   1.526   8.101 -0.1312  0.4868  0.1754
   66SAPC  H13Y 5528   2.838   1.571   7.963  0.5328  0.8992 -0.8352
   66SAPC  C314 5529   2.968   1.727   8.077  0.6224 -0.0068 -0.2514
   66SAPC  H14X 5530   2.979   1.804   7.998  0.0721 -1.0029 -1.3274
   66SAPC  H14Y 5531   3.065   1.710   8.127 -0.2846  0.5346  1.8135
   66SAPC  C315 5532   2.858   1.769   8.176  0.4607 -0.4598 -0.2018
   66SAPC  H15X 5533   2.832   1.692   8.252 -1.5735  2.9492  2.8999
   66SAPC  H15Y 5534   2.763   1.792   8.122 -1.6413 -1.1493  2.9022
   66SAPC  C316 5535   2.894   1.893   8.258 -1.2821  0.4148  0.2743
   66SAPC  H16X 5536   2.931   1.980   8.200  2.9237 -0.6849  0.9526
   66SAPC  H16Y 5537   2.984   1.868   8.319  0.4866  0.0407 -2.3169
   66SAPC  C317 5538   2.785   1.938   8.355  0.1985  0.1300  0.1444
   66SAPC  H17X 5539   2.764   1.848   8.418  0.0981 -0.0350 -0.1243
   66SAPC  H17Y 5540   2.696   1.954   8.290 -0.4464 -0.2686  0.9022
   66SAPC  C318 5541   2.818   2.050   8.445 -0.0310  0.0446 -0.4353
   66SAPC  H18X 5542   2.723   2.087   8.489  0.2053 -1.8406  1.8383
   66SAPC  H18Y 5543   2.869   2.133   8.391  0.0656 -0.9553 -1.9234
   66SAPC  H18Z 5544   2.882   2.025   8.533  0.4485  4.0741  0.5838
   67SAPC     N 5545   5.877   2.940   6.019  0.4270  0.0546  0.5558
   67SAPC   C12 5546   5.888   3.033   6.144 -0.7317  0.2583  0.0176
   67SAPC  H12A 5547   5.898   2.979   6.237 -0.8122  0.1077 -0.0615
   67SAPC  H12B 5548   5.793   3.082   6.157 -1.0954 -0.3552 -0.2585
   67SAPC   C13 5549   6.005   2.867   6.014 -0.3056 -0.2974  0.4254
   67SAPC  H13A 5550   6.082   2.942   6.026 -2.5507  2.4271 -0.8975
   67SAPC  H13B 5551   6.018   2.805   6.102 -0.8212  2.1279  2.3233
   67SAPC  H13C 5552   6.012   2.817   5.919  1.3324  0.5808  0.0457
   67SAPC   C14 5553   5.764   2.843   6.034  0.0171 -0.4559  0.1645
   67SAPC  H14A 5554   5.756   2.818   6.139  1.6195 -0.6377  0.2743
   67SAPC  H14B 5555   5.668   2.883   6.004 -0.5667 -0.5234  1.8228
   67SAPC  H14C 5556   5.782   2.753   5.978  0.8762 -0.0892 -0.1588
   67SAPC   C15 5557   5.854   3.009   5.893 -0.0149 -0.1856 -0.2678
   67SAPC  H15A 5558   5.938   3.069   5.861 -0.2223  0.0300 -0.4075
   67SAPC  H15B 5559   5.831   2.946   5.808 -0.1630 -2.4563  1.3518
   67SAPC  H15C 5560   5.767   3.073   5.898 -0.5624 -1.0349  1.6729
   67SAPC   C11 5561   5.996   3.138   6.137 -0.7024  0.2454  0.7765
   67SAPC  H11A 5562   5.971   3.213   6.060 -0.7086 -1.9138 -1.4608
   67SAPC  H11B 5563   6.095   3.094   6.109 -1.1183  0.5396 -1.3322
   67SAPC     P 5564   5.889   3.299   6.320 -0.2866  0.6852 -0.2275
   67SAPC   O13 5565   5.950   3.433   6.352  0.9570 -0.3344  0.0978
   67SAPC   O14 5566   5.782   3.305   6.219  0.5662  0.4809  0.1424
   67SAPC   O12 5567   5.995   3.198   6.263  0.1283  0.6752  0.3797
   67SAPC   O11 5568   5.831   3.245   6.453 -0.2776  0.7673  0.5115
   67SAPC    C1 5569   5.907   3.197   6.564 -0.6555  0.2006 -0.2972
   67SAPC    HA 5570   6.017   3.203   6.550 -0.4808 -1.3716  0.2435
   67SAPC    HB 5571   5.881   3.248   6.659  1.8523  0.7867  0.1512
   67SAPC    C2 5572   5.876   3.045   6.591 -0.3383  0.2157 -0.5284
   67SAPC    HS 5573   5.924   2.994   6.504 -2.4424 -0.4911 -1.3455
   67SAPC   O21 5574   5.730   3.030   6.588  0.0612 -0.4912  0.4589
   67SAPC   C21 5575   5.675   2.969   6.487  0.1822  0.3834  0.3058
   67SAPC   O22 5576   5.742   2.911   6.399  0.8878 -0.1148  0.1625
   67SAPC   C22 5577   5.518   2.986   6.491 -0.0403  0.0524 -0.2748
   67SAPC   H2R 5578   5.491   3.058   6.572 -1.3575 -1.4825  0.7207
   67SAPC   H2S 5579   5.502   3.027   6.389  1.4762 -0.5825 -0.7873
   67SAPC    C3 5580   5.933   2.994   6.722 -1.0393 -0.1171 -0.0502
   67SAPC    HX 5581   5.902   3.063   6.805 -1.1423 -2.1208  1.6554
   67SAPC    HY 5582   6.043   2.988   6.729 -0.9486 -1.0097 -1.8599
   67SAPC   O31 5583   5.878   2.867   6.762 -0.0581  0.3701 -0.2944
   67SAPC   C31 5584   5.917   2.766   6.695  0.3252  0.8235  0.2130
   67SAPC   O32 5585   6.008   2.760   6.611 -0.6924  0.1300  0.4009
   67SAPC   C32 5586   5.833   2.645   6.723  0.1622 -1.0329  0.3613
   67SAPC   H2X 5587   5.766   2.630   6.637 -0.5661 -0.4325  0.8119
   67SAPC   H2Y 5588   5.766   2.674   6.807  0.5327  3.7974 -0.6917
   67SAPC   C23 5589   5.445   2.857   6.491 -0.0426 -0.5260  0.2127
   67SAPC   H3R 5590   5.487   2.786   6.416 -0.7880  2.1251 -2.9595
   67SAPC   H3S 5591   5.341   2.869   6.455  0.9451  2.1786 -2.0644
   67SAPC   C24 5592   5.450   2.785   6.628 -0.1865  0.0644  0.1489
   67SAPC   H4R 5593   5.556   2.760   6.646  0.3933  0.4701 -2.3365
   67SAPC   H4S 5594   5.407   2.686   6.601 -0.8344  0.7134 -1.3442
   67SAPC   C25 5595   5.372   2.832   6.752 -1.4502 -0.0532  0.1299
   67SAPC   H5R 5596   5.262   2.837   6.742 -1.3173  3.0866 -0.7544
   67SAPC   C26 5597   5.415   2.859   6.873 -0.7167 -0.4225 -0.6023
   67SAPC   H6R 5598   5.339   2.882   6.949  0.1017  0.5185 -0.0340
   67SAPC   C27 5599   5.557   2.863   6.930 -0.1724  1.6840 -0.4210
   67SAPC   H7R 5600   5.579   2.968   6.959  0.9443  1.3006  0.2059
   67SAPC   H7S 5601   5.629   2.836   6.849 -1.8548  0.3413 -1.5473
   67SAPC   C28 5602   5.601   2.770   7.042 -1.2106 -0.2186  0.3161
   67SAPC   H8R 5603   5.652   2.676   7.015 -1.2822 -0.4444  0.9533
   67SAPC   C29 5604   5.600   2.791   7.181  0.6162 -0.3912  0.8582
   67SAPC   H9R 5605   5.657   2.727   7.250  0.9429 -0.8871  0.1401
   67SAPC  C210 5606   5.559   2.931   7.231  0.0723  0.3498  0.0742
   67SAPC  H10R 5607   5.512   3.000   7.158 -2.6831  0.6880  2.0017
   67SAPC  H10S 5608   5.654   2.982   7.256 -0.5723  1.3313  0.6099
   67SAPC  C211 5609   5.474   2.907   7.357 -0.5411  0.1158 -0.1245
   67SAPC  H11R 5610   5.367   2.895   7.336  0.1306 -0.4903 -4.0217
   67SAPC  C212 5611   5.524   2.895   7.478 -0.8168 -0.0565  0.2308
   67SAPC  H12R 5612   5.453   2.872   7.559 -1.9545 -1.0721 -1.0011
   67SAPC  C213 5613   5.675   2.902   7.516 -0.0679  0.0087  0.1413
   67SAPC  H13R 5614   5.734   2.958   7.439 -0.3721 -2.5186 -2.0739
   67SAPC  H13S 5615   5.713   2.798   7.515  1.2881  0.4756  0.6937
   67SAPC  C214 5616   5.700   2.960   7.653 -0.3436  0.0270 -0.0222
   67SAPC  H14R 5617   5.704   3.070   7.660  1.4213 -0.0932  1.6286
   67SAPC  C215 5618   5.715   2.887   7.768  0.0157  0.4883  0.4362
   67SAPC  H15R 5619   5.759   2.944   7.851  1.7003  1.3575 -0.9702
   67SAPC  C216 5620   5.712   2.734   7.775  0.3562 -0.8098 -0.5648
   67SAPC  H16R 5621   5.818   2.708   7.796  0.3344 -0.5017 -0.0474
   67SAPC  H16S 5622   5.704   2.671   7.683  0.4874  0.6763 -1.6353
   67SAPC  C217 5623   5.626   2.675   7.880 -0.5207  0.2492 -0.5156
   67SAPC  H17R 5624   5.648   2.566   7.876  1.6448  0.6067  0.3408
   67SAPC  H17S 5625   5.521   2.704   7.856 -1.2242  0.0718  2.1064
   67SAPC  C218 5626   5.666   2.722   8.024  0.4874  0.9830 -0.3818
   67SAPC  H18R 5627   5.632   2.828   8.028  1.8800  1.4647 -0.8637
   67SAPC  H18S 5628   5.776   2.706   8.025  0.5264  0.9332 -2.1036
   67SAPC  C219 5629   5.591   2.637   8.131 -0.2683 -0.3939  0.1747
   67SAPC  H19R 5630   5.613   2.531   8.106 -0.3641 -0.2685 -0.4526
   67SAPC  H19S 5631   5.481   2.648   8.118 -0.1303  1.1903  0.1400
   67SAPC  C220 5632   5.625   2.673   8.274  0.6283  0.7275  0.0108
   67SAPC  H20R 5633   5.600   2.778   8.298 -1.0165  0.3745 -0.0269
   67SAPC  H20S 5634   5.731   2.644   8.293 -0.2844 -1.8264  1.7312
   67SAPC  H20T 5635   5.561   2.615   8.344 -0.0662  1.5912  0.0940
   67SAPC   C33 5636   5.917   2.513   6.750  0.2710 -0.1516  0.0878
   67SAPC   H3X 5637   5.999   2.509   6.675  0.2932 -0.5050  0.1303
   67SAPC   H3Y 5638   5.853   2.423   6.739  0.0029  0.2107 -1.8479
   67SAPC   C34 5639   5.992   2.501   6.883 -0.1961 -0.2079 -0.2966
   67SAPC   H4X 5640   6.058   2.589   6.900  2.1078 -1.9711  0.5445
   67SAPC   H4Y 5641   6.061   2.415   6.867  0.6429  0.6265 -1.3205
   67SAPC   C35 5642   5.905   2.490   7.004 -0.1676 -0.2176 -0.8299
   67SAPC   H5X 5643   5.833   2.407   6.990 -2.0220  1.3296 -1.0514
   67SAPC   H5Y 5644   5.840   2.580   7.002 -0.4410 -0.4228 -1.2441
   67SAPC   C36 5645   5.990   2.490   7.139  0.2259 -0.8001  0.6641
   67SAPC   H6X 5646   6.044   2.586   7.157  2.4126 -1.9568  0.5728
   67SAPC   H6Y 5647   6.065   2.410   7.120  0.3896 -0.3782 -0.6128
   67SAPC   C37 5648   5.908   2.471   7.264  0.8603 -0.0159  0.3918
   67SAPC   H7X 5649   5.842   2.558   7.282  0.1036 -0.9931  2.7186
   67SAPC   H7Y 5650   5.976   2.466   7.352 -0.3247 -1.7820  1.2579
   67SAPC   C38 5651   5.829   2.340   7.272 -0.2487 -0.0015 -0.0655
   67SAPC   H8X 5652   5.876   2.252   7.224 -0.6114  0.1161 -0.6379
   67SAPC   H8Y 5653   5.730   2.363   7.226 -0.5895 -1.7742 -0.2590
   67SAPC   C39 5654   5.794   2.307   7.422 -0.2024  0.7303 -0.0422
   67SAPC   H9X 5655   5.885   2.315   7.485 -1.4345  1.8459  1.6722
   67SAPC   H9Y 5656   5.751   2.205   7.424 -0.1795  0.7167 -0.2102
   67SAPC  C310 5657   5.682   2.391   7.483 -0.3885 -0.1353  0.3206
   67SAPC  H10X 5658   5.582   2.375   7.439  0.1763  1.6424 -1.7749
   67SAPC  H10Y 5659   5.715   2.497   7.473 -0.0816 -0.2525  0.1002
   67SAPC  C311 5660   5.666   2.354   7.628  0.3010  0.5292 -0.1645
   67SAPC  H11X 5661   5.596   2.427   7.673  0.5432  0.9927 -0.5216
   67SAPC  H11Y 5662   5.766   2.366   7.676  0.0175  0.2412  0.5082
   67SAPC  C312 5663   5.626   2.213   7.662  0.2951  0.1356 -0.2400
   67SAPC  H12X 5664   5.710   2.153   7.622  0.4849 -0.5982  1.1976
   67SAPC  H12Y 5665   5.546   2.193   7.588  1.8817 -2.0865 -1.4445
   67SAPC  C313 5666   5.588   2.191   7.807  0.3980 -0.7383 -0.1223
   67SAPC  H13X 5667   5.514   2.108   7.811  0.7018 -0.9810  0.7601
   67SAPC  H13Y 5668   5.536   2.277   7.854 -0.8369 -1.0256 -0.9413
   67SAPC  C314 5669   5.715   2.164   7.890  0.2514  0.0211  0.2964
   67SAPC  H14X 5670   5.790   2.232   7.842 -0.0321 -0.9530 -1.6176
   67SAPC  H14Y 5671   5.752   2.062   7.866 -0.4620 -0.1958  0.1100
   67SAPC  C315 5672   5.691   2.181   8.038 -0.2295  0.0942 -0.1503
   67SAPC  H15X 5673   5.585   2.151   8.055 -0.4955  0.9045 -0.3656
   67SAPC  H15Y 5674   5.683   2.288   8.064  0.2341 -0.4155  2.4467
   67SAPC  C316 5675   5.799   2.132   8.122 -0.9093  0.2515 -0.0073
   67SAPC  H16X 5676   5.895   2.174   8.084 -0.8994 -0.4249 -0.7442
   67SAPC  H16Y 5677   5.808   2.022   8.119 -2.0998  0.0143  2.4328
   67SAPC  C317 5678   5.791   2.188   8.266  0.2839 -0.2587 -0.5346
   67SAPC  H17X 5679   5.862   2.129   8.328 -0.7593 -0.3105  0.6753
   67SAPC  H17Y 5680   5.690   2.174   8.312  1.0794  1.5129  1.9949
   67SAPC  C318 5681   5.844   2.331   8.299  0.3010 -0.2002 -0.2179
   67SAPC  H18X 5682   5.808   2.415   8.235  2.2805  1.4995  0.8015
   67SAPC  H18Y 5683   5.955   2.339   8.302  0.1667  2.1443  0.4363
   67SAPC  H18Z 5684   5.822   2.345   8.407 -0.6895 -1.0591 -0.3003
   68SAPC     N 5685   3.334   2.377   5.991 -0.3291 -1.0343 -1.3661
   68SAPC   C12 5686   3.252   2.466   6.085  0.2154 -0.5103  0.5655
   68SAPC  H12A 5687   3.164   2.417   6.124  0.7896 -0.2574  2.2561
   68SAPC  H12B 5688   3.212   2.539   6.016  0.2740 -1.1658 -0.1851
   68SAPC   C13 5689   3.258   2.303   5.887  0.0353 -0.1645  0.6746
   68SAPC  H13A 5690   3.176   2.243   5.922 -2.1715  2.3268  0.0335
   68SAPC  H13B 5691   3.203   2.373   5.826 -0.2980 -0.7331  0.3085
   68SAPC  H13C 5692   3.325   2.244   5.825 -1.2504 -2.0199  0.9660
   68SAPC   C14 5693   3.436   2.449   5.918  0.0668  0.1366  0.4444
   68SAPC  H14A 5694   3.393   2.518   5.847  1.2325  0.6931  0.2556
   68SAPC  H14B 5695   3.507   2.503   5.980  0.6629  0.6536 -0.6655
   68SAPC  H14C 5696   3.498   2.382   5.861 -0.7961 -0.4304  0.1647
   68SAPC   C15 5697   3.411   2.273   6.072  0.5012  0.1019 -0.4194
   68SAPC  H15A 5698   3.482   2.313   6.143  1.0160 -3.4921  1.3426
   68SAPC  H15B 5699   3.343   2.212   6.129  1.3253  0.9514  1.5742
   68SAPC  H15C 5700   3.461   2.208   6.002  1.3598 -0.5949  0.7989
   68SAPC   C11 5701   3.324   2.530   6.200  0.3662 -0.0092  0.5093
   68SAPC  H11A 5702   3.364   2.443   6.256 -2.1122 -1.4865  0.1277
   68SAPC  H11B 5703   3.254   2.578   6.271 -0.9380  1.3484 -1.5800
   68SAPC     P 5704   3.412   2.768   6.129  0.3957  0.2452  0.1658
   68SAPC   O13 5705   3.504   2.800   6.023 -0.3692  0.1088 -0.3947
   68SAPC   O14 5706   3.267   2.790   6.102  0.0394 -0.3730 -0.2971
   68SAPC   O12 5707   3.430   2.616   6.165 -0.1589  0.2062  0.4090
   68SAPC   O11 5708   3.455   2.838   6.262  0.0122 -0.3701  0.0180
   68SAPC    C1 5709   3.445   2.781   6.395 -0.3605  0.5728  0.4717
   68SAPC    HA 5710   3.381   2.690   6.397  0.1577  0.1871 -0.0763
   68SAPC    HB 5711   3.546   2.754   6.431  0.2544 -0.2963 -1.7326
   68SAPC    C2 5712   3.384   2.886   6.496 -0.4844 -0.3501  0.8052
   68SAPC    HS 5713   3.449   2.975   6.496 -0.2906 -0.4771 -0.0490
   68SAPC   O21 5714   3.384   2.823   6.632 -0.3902 -0.1378 -0.2517
   68SAPC   C21 5715   3.416   2.893   6.735  0.2039  0.0099  0.0708
   68SAPC   O22 5716   3.462   3.007   6.722 -0.0670 -0.1339 -0.0441
   68SAPC   C22 5717   3.387   2.815   6.869 -0.7362 -0.7094 -0.4014
   68SAPC   H2R 5718   3.311   2.735   6.870 -0.8562 -0.5946 -0.3230
   68SAPC   H2S 5719   3.487   2.781   6.904 -1.2230  0.8544  2.9097
   68SAPC    C3 5720   3.245   2.934   6.458  0.4371  0.2148  0.5088
   68SAPC    HX 5721   3.178   2.847   6.473 -0.6397  0.9392  0.0637
   68SAPC    HY 5722   3.246   2.956   6.349  1.9003  0.1690  0.4911
   68SAPC   O31 5723   3.190   3.033   6.546 -0.9450 -0.0747 -0.7848
   68SAPC   C31 5724   3.246   3.157   6.540 -0.3117  0.2803 -0.2171
   68SAPC   O32 5725   3.328   3.191   6.452  0.1582 -0.2083 -0.4498
   68SAPC   C32 5726   3.179   3.251   6.640  0.5059 -0.6645 -0.3199
   68SAPC   H2X 5727   3.070   3.244   6.619  0.7519 -1.5625 -1.3195
   68SAPC   H2Y 5728   3.213   3.356   6.622  1.7692 -1.0814 -0.4453
   68SAPC   C23 5729   3.340   2.919   6.980 -0.5041 -0.2983 -0.6268
   68SAPC   H3R 5730   3.238   2.954   6.953 -0.5695 -1.0741 -1.4284
   68SAPC   H3S 5731   3.414   3.001   6.988  0.0661 -0.9560  1.5648
   68SAPC   C24 5732   3.329   2.843   7.115  0.1158 -0.5330 -0.0801
   68SAPC   H4R 5733   3.433   2.810   7.135  0.3028  0.6459  1.0557
   68SAPC   H4S 5734   3.271   2.749   7.116 -0.1493 -0.3816  1.4198
   68SAPC   C25 5735   3.275   2.938   7.222 -0.5125  0.2832 -0.6623
   68SAPC   H5R 5736   3.167   2.938   7.240 -0.4015  0.1374  0.0333
   68SAPC   C26 5737   3.350   3.006   7.317  0.3799  0.3028 -0.2748
   68SAPC   H6R 5738   3.307   3.074   7.392 -2.0871 -2.2009  0.7730
   68SAPC   C27 5739   3.504   3.012   7.330  0.4826  0.6278  0.0603
   68SAPC   H7R 5740   3.553   2.959   7.246 -2.3947  1.0909 -2.0481
   68SAPC   H7S 5741   3.509   2.953   7.424 -2.9355  0.6037  0.3733
   68SAPC   C28 5742   3.569   3.145   7.343 -0.2218 -0.0027  0.4026
   68SAPC   H8R 5743   3.608   3.187   7.249  1.0031 -1.4034  0.2467
   68SAPC   C29 5744   3.592   3.220   7.450 -0.0629 -0.0460  0.1723
   68SAPC   H9R 5745   3.626   3.322   7.430 -0.0447  0.0723  0.8099
   68SAPC  C210 5746   3.556   3.197   7.590  0.2950 -0.5450  0.0790
   68SAPC  H10R 5747   3.453   3.156   7.588 -0.9863  2.3957  0.4423
   68SAPC  H10S 5748   3.546   3.290   7.649 -2.4908 -1.1378  0.7016
   68SAPC  C211 5749   3.644   3.094   7.660 -0.0895 -0.1395  0.0691
   68SAPC  H11R 5750   3.713   3.037   7.596  0.4546 -1.5002  1.7821
   68SAPC  C212 5751   3.649   3.081   7.795 -0.0780  0.0484  0.5203
   68SAPC  H12R 5752   3.713   3.002   7.837  0.8277  0.1538 -0.6046
   68SAPC  C213 5753   3.570   3.162   7.894  0.2516  0.1293 -0.0708
   68SAPC  H13R 5754   3.485   3.208   7.839 -1.8529 -1.6407  1.5093
   68SAPC  H13S 5755   3.628   3.249   7.931 -2.6682  2.6437 -1.0053
   68SAPC  C214 5756   3.499   3.090   8.000 -0.4202  0.4828 -0.3911
   68SAPC  H14R 5757   3.390   3.075   7.995 -0.2529 -3.0393  2.3089
   68SAPC  C215 5758   3.558   3.036   8.108 -0.1996  0.4372  0.4282
   68SAPC  H15R 5759   3.505   2.983   8.189  1.2382  0.5317  1.4609
   68SAPC  C216 5760   3.698   3.059   8.148  0.0377  0.0136  0.3051
   68SAPC  H16R 5761   3.748   3.120   8.071 -1.6574  2.3871  0.9836
   68SAPC  H16S 5762   3.758   2.965   8.143  0.8950  0.6202 -2.1058
   68SAPC  C217 5763   3.707   3.121   8.289  0.0822 -0.4209  0.3995
   68SAPC  H17R 5764   3.635   3.204   8.301 -0.6601 -1.1636  1.2562
   68SAPC  H17S 5765   3.810   3.163   8.297 -0.4736  1.1635 -0.3840
   68SAPC  C218 5766   3.678   3.031   8.411  0.7707 -0.6564 -0.2533
   68SAPC  H18R 5767   3.588   2.968   8.404  0.7983 -0.8575  0.9129
   68SAPC  H18S 5768   3.662   3.106   8.492  0.0940  0.8875 -1.7463
   68SAPC  C219 5769   3.794   2.951   8.453 -0.4179  0.3117 -0.5322
   68SAPC  H19R 5770   3.876   3.024   8.470  0.6669 -1.1552  0.8783
   68SAPC  H19S 5771   3.844   2.888   8.377  0.0395  0.6168 -0.4908
   68SAPC  C220 5772   3.762   2.881   8.583 -0.1104  0.0747 -0.2180
   68SAPC  H20R 5773   3.740   2.963   8.654 -1.1737  0.7385 -1.2711
   68SAPC  H20S 5774   3.849   2.832   8.632  0.5392  1.9832  0.6691
   68SAPC  H20T 5775   3.670   2.819   8.580 -0.6651  0.8654  0.1716
   68SAPC   C33 5776   3.195   3.213   6.783 -0.1740  0.2310  0.2715
   68SAPC   H3X 5777   3.304   3.220   6.803 -0.1659  1.6312 -0.1625
   68SAPC   H3Y 5778   3.154   3.112   6.804 -1.4520  0.8978  1.1634
   68SAPC   C34 5779   3.131   3.314   6.879  0.0518  0.2097 -0.2236
   68SAPC   H4X 5780   3.020   3.310   6.872 -0.0036 -1.4612  0.9616
   68SAPC   H4Y 5781   3.154   3.416   6.840  1.0816  0.3281  0.6642
   68SAPC   C35 5782   3.183   3.300   7.025  0.1569  0.0721  0.1622
   68SAPC   H5X 5783   3.294   3.297   7.018  0.0588 -0.5520 -1.8474
   68SAPC   H5Y 5784   3.152   3.205   7.074 -0.7395  0.0673 -0.3893
   68SAPC   C36 5785   3.136   3.405   7.125 -0.8734  0.0081  0.4453
   68SAPC   H6X 5786   3.026   3.389   7.133 -0.8518 -2.3969 -2.3865
   68SAPC   H6Y 5787   3.158   3.508   7.089  0.8876 -1.3214 -2.6865
   68SAPC   C37 5788   3.191   3.373   7.267  0.3377  0.1168 -0.3163
   68SAPC   H7X 5789   3.302   3.373   7.260  0.5909  2.8940  1.8246
   68SAPC   H7Y 5790   3.154   3.275   7.303 -0.4164  1.6349  3.6059
   68SAPC   C38 5791   3.147   3.467   7.391  0.2358 -0.0002 -0.7470
   68SAPC   H8X 5792   3.038   3.471   7.409  0.4332 -0.0985  0.5978
   68SAPC   H8Y 5793   3.191   3.568   7.381  0.9174 -0.1951  0.0882
   68SAPC   C39 5794   3.211   3.407   7.519  0.6408  0.4968 -0.2014
   68SAPC   H9X 5795   3.321   3.410   7.509  0.9661  1.8984  2.7941
   68SAPC   H9Y 5796   3.175   3.306   7.546  0.8094  0.6232  0.5077
   68SAPC  C310 5797   3.168   3.497   7.638  0.7126 -0.3178 -0.2838
   68SAPC  H10X 5798   3.062   3.489   7.668  1.0009 -3.7062  0.2031
   68SAPC  H10Y 5799   3.190   3.600   7.602 -2.4861  1.1958  1.6492
   68SAPC  C311 5800   3.245   3.454   7.767  0.1065 -0.1296 -0.6547
   68SAPC  H11X 5801   3.355   3.461   7.751  0.6541 -0.3105  2.3233
   68SAPC  H11Y 5802   3.214   3.351   7.795 -0.7165  0.3725  0.3608
   68SAPC  C312 5803   3.208   3.541   7.887  0.2981 -0.0660 -0.4140
   68SAPC  H12X 5804   3.102   3.514   7.908 -0.1207  1.4007 -0.5662
   68SAPC  H12Y 5805   3.223   3.648   7.862 -1.4780  0.5660  1.0087
   68SAPC  C313 5806   3.292   3.501   8.014  0.1981 -0.3416  0.0365
   68SAPC  H13X 5807   3.268   3.567   8.100 -0.1404 -0.5682  0.1145
   68SAPC  H13Y 5808   3.396   3.514   7.979  0.0458 -0.6150 -0.5416
   68SAPC  C314 5809   3.265   3.356   8.068 -0.5033 -0.0043 -0.0500
   68SAPC  H14X 5810   3.343   3.342   8.146 -0.3706  2.6962  0.4081
   68SAPC  H14Y 5811   3.271   3.274   7.994  0.9803  1.3020 -1.4639
   68SAPC  C315 5812   3.135   3.341   8.152 -0.1428 -0.0497 -0.1699
   68SAPC  H15X 5813   3.044   3.370   8.096  0.3076 -0.6014 -1.2290
   68SAPC  H15Y 5814   3.149   3.409   8.238  0.4589  0.4667 -0.6648
   68SAPC  C316 5815   3.120   3.199   8.212  0.0001 -0.6370 -0.3385
   68SAPC  H16X 5816   3.027   3.197   8.274 -0.9911 -0.4299 -1.7690
   68SAPC  H16Y 5817   3.206   3.170   8.276 -1.1153  0.1546  1.6415
   68SAPC  C317 5818   3.101   3.095   8.101 -0.0028  0.7010  0.5155
   68SAPC  H17X 5819   3.194   3.081   8.041 -1.0029 -2.2151 -0.5674
   68SAPC  H17Y 5820   3.027   3.139   8.032  1.1449  0.0776 -1.1867
   68SAPC  C318 5821   3.053   2.958   8.140 -0.0005  0.3156 -0.4909
   68SAPC  H18X 5822   2.995   2.947   8.235  0.8326  0.7596  0.0893
   68SAPC  H18Y 5823   3.144   2.894   8.138  0.1110  0.4506 -0.0285
   68SAPC  H18Z 5824   2.980   2.922   8.065 -0.6627 -0.9410  0.7060
   69SLPC     N 5825   0.780   2.145  10.895  0.1944  0.5530 -0.0957
   69SLPC   C13 5826   0.852   2.033  10.825 -0.0138  0.0541 -0.0859
   69SLPC  H13A 5827   0.798   2.003  10.736 -1.4020  1.0989  0.3662
   69SLPC  H13B 5828   0.956   2.046  10.798  0.4619 -1.0430  1.1046
   69SLPC  H13C 5829   0.851   1.957  10.902  1.6424  0.6784  0.5911
   69SLPC   C14 5830   0.858   2.194  11.010  0.1754  0.2613 -0.1649
   69SLPC  H14A 5831   0.827   2.293  11.040 -1.9253 -0.2244 -0.5904
   69SLPC  H14B 5832   0.844   2.125  11.092 -1.6967  0.2178 -0.4626
   69SLPC  H14C 5833   0.966   2.195  11.004  0.2023  1.8245  0.0071
   69SLPC   C15 5834   0.645   2.092  10.935  0.2363  0.4497 -0.5393
   69SLPC  H15A 5835   0.592   2.035  10.860 -0.9985  0.0392  0.5860
   69SLPC  H15B 5836   0.672   2.031  11.020  2.2953  1.0003 -0.7479
   69SLPC  H15C 5837   0.579   2.170  10.972  0.2128  0.0961  0.1918
   69SLPC   C12 5838   0.762   2.263  10.791 -0.9348  0.6922  0.3175
   69SLPC  H12A 5839   0.862   2.281  10.754 -1.0488 -0.8134 -0.8147
   69SLPC  H12B 5840   0.723   2.344  10.851 -1.7915 -0.8892  2.0022
   69SLPC   C11 5841   0.684   2.223  10.659 -0.2493 -0.1703 -0.0175
   69SLPC  H11A 5842   0.718   2.130  10.609  0.5657 -0.5675  1.2464
   69SLPC  H11B 5843   0.702   2.308  10.589 -2.0238 -0.2423 -0.6211
   69SLPC     P 5844   0.457   2.353  10.717 -0.3905  0.3791  0.1541
   69SLPC   O13 5845   0.310   2.326  10.735  0.3997  0.1573 -0.2287
   69SLPC   O14 5846   0.526   2.418  10.834  0.3710 -0.5739  0.3778
   69SLPC   O12 5847   0.538   2.219  10.680 -0.0354  0.2366 -0.3871
   69SLPC   O11 5848   0.481   2.444  10.589  0.4160  0.4338  0.6044
   69SLPC    C1 5849   0.385   2.441  10.487  0.3004 -0.3452  0.6721
   69SLPC    HA 5850   0.277   2.444  10.514 -0.1667 -2.8167 -0.5462
   69SLPC    HB 5851   0.407   2.525  10.418  0.9802  0.3067  1.6629
   69SLPC    C2 5852   0.406   2.316  10.389 -0.6872  0.1287 -0.1630
   69SLPC    HS 5853   0.376   2.223  10.442  0.6199  0.4923  1.3134
   69SLPC   O21 5854   0.542   2.318  10.333  0.0396  0.4319  0.2343
   69SLPC   C21 5855   0.615   2.201  10.326 -0.1967 -0.5527 -0.3869
   69SLPC   O22 5856   0.573   2.091  10.351  0.0552  0.7282  0.1364
   69SLPC   C22 5857   0.759   2.241  10.306 -0.6815 -0.7116  0.0888
   69SLPC   H2R 5858   0.780   2.340  10.351  0.1409 -2.5699  4.2517
   69SLPC   H2S 5859   0.817   2.169  10.367 -0.2239 -0.7990 -0.4380
   69SLPC    C3 5860   0.313   2.332  10.269  0.2724  0.2986  0.7606
   69SLPC    HX 5861   0.325   2.433  10.225 -0.5087 -1.1377 -3.1879
   69SLPC    HY 5862   0.208   2.316  10.302 -0.1212 -1.4501 -1.1684
   69SLPC   O31 5863   0.335   2.236  10.164 -0.2688 -0.1386 -0.1206
   69SLPC   C31 5864   0.264   2.276  10.056 -0.2249  0.5192  0.0007
   69SLPC   O32 5865   0.209   2.381  10.039 -0.2036  0.2177  0.2998
   69SLPC   C32 5866   0.256   2.161   9.953 -0.0398 -1.1682 -0.9854
   69SLPC   H2X 5867   0.244   2.078  10.025  0.8511  0.9379  1.7715
   69SLPC   H2Y 5868   0.359   2.150   9.914  1.3778  0.9640  1.7576
   69SLPC   C23 5869   0.798   2.231  10.159  0.9135 -0.3422  0.6609
   69SLPC   H3R 5870   0.756   2.136  10.119  0.6349 -0.1035  0.3877
   69SLPC   H3S 5871   0.909   2.229  10.159  0.9233 -1.1575  1.7939
   69SLPC   C24 5872   0.753   2.346  10.068 -0.9177 -0.1619  0.2020
   69SLPC   H4R 5873   0.798   2.439  10.108  2.1101 -0.7661 -1.4994
   69SLPC   H4S 5874   0.642   2.352  10.072 -0.9283  1.1160 -1.3280
   69SLPC   C25 5875   0.806   2.341   9.920 -0.4729  0.2673  0.0171
   69SLPC   H5R 5876   0.775   2.245   9.874 -0.3477  0.3960 -0.3346
   69SLPC   H5S 5877   0.917   2.344   9.921 -0.3326 -2.4762 -0.7336
   69SLPC   C26 5878   0.756   2.458   9.829 -0.1027  0.0865 -0.1074
   69SLPC   H6R 5879   0.807   2.555   9.847 -0.2149  0.0728  0.2866
   69SLPC   H6S 5880   0.647   2.480   9.832 -0.2103 -0.5122  0.9563
   69SLPC   C27 5881   0.795   2.428   9.683 -0.4209 -0.0828  0.6226
   69SLPC   H7R 5882   0.783   2.322   9.655  1.4898 -0.2288  0.2051
   69SLPC   H7S 5883   0.906   2.437   9.683 -0.4939  1.0118  0.1175
   69SLPC   C28 5884   0.726   2.530   9.582 -0.2819  0.5274  0.2065
   69SLPC   H8R 5885   0.765   2.633   9.594 -2.2508  1.5206 -1.2909
   69SLPC   H8S 5886   0.616   2.535   9.599 -0.3760  0.7322 -0.4138
   69SLPC   C29 5887   0.758   2.496   9.439  0.3287  0.4407 -0.1378
   69SLPC   H9R 5888   0.865   2.508   9.417  0.1766  3.3737  0.2624
   69SLPC  C210 5889   0.665   2.443   9.356  0.7752  0.3765 -0.2648
   69SLPC  H10R 5890   0.698   2.410   9.257  0.7690 -2.5241  0.6144
   69SLPC  C211 5891   0.520   2.414   9.384 -0.1215 -0.1069  0.3618
   69SLPC  H11R 5892   0.504   2.401   9.493  3.8379 -0.3219  1.0612
   69SLPC  H11S 5893   0.492   2.320   9.332  1.1144  0.1606 -0.8397
   69SLPC  C212 5894   0.435   2.532   9.342  0.5652  0.1982 -0.0066
   69SLPC  H12R 5895   0.444   2.623   9.403 -2.8998 -1.4370  3.3484
   69SLPC  C213 5896   0.334   2.526   9.246 -0.5143  0.1310  0.0366
   69SLPC  H13R 5897   0.272   2.615   9.229  0.3975  0.6940 -0.4038
   69SLPC  C214 5898   0.296   2.411   9.157 -0.0588 -1.3113 -1.0949
   69SLPC  H14R 5899   0.186   2.399   9.147 -0.5567  2.2153 -1.0561
   69SLPC  H14S 5900   0.331   2.319   9.210  1.0692 -0.4380 -0.2868
   69SLPC  C215 5901   0.344   2.416   9.010  0.6547 -0.2055 -0.0442
   69SLPC  H15R 5902   0.315   2.323   8.956  0.5290  0.2449 -0.7694
   69SLPC  H15S 5903   0.455   2.424   9.019  0.8823 -0.2007 -2.3298
   69SLPC  C216 5904   0.290   2.552   8.937 -0.8311  0.6115 -0.4611
   69SLPC  H16R 5905   0.352   2.637   8.973  0.3200 -0.5471  0.3790
   69SLPC  H16S 5906   0.180   2.555   8.954 -0.8488  1.2761 -0.6607
   69SLPC  C217 5907   0.302   2.535   8.783 -0.0735 -1.3307 -0.1469
   69SLPC  H17R 5908   0.212   2.475   8.756  0.1585 -1.6773 -0.1662
   69SLPC  H17S 5909   0.399   2.501   8.739 -1.3863 -1.9524 -2.7219
   69SLPC  C218 5910   0.272   2.669   8.717  0.4285  0.0096 -0.3958
   69SLPC  H18R 5911   0.175   2.706   8.755  0.1710 -0.0339 -0.9971
   69SLPC  H18S 5912   0.256   2.650   8.609 -1.5203 -1.5389  0.1008
   69SLPC  H18T 5913   0.360   2.733   8.741 -0.0375  1.5695 -2.5595
   69SLPC   C33 5914   0.146   2.176   9.852  0.0306 -0.0004 -0.0791
   69SLPC   H3X 5915   0.044   2.197   9.891  0.4771  1.4764  0.3723
   69SLPC   H3Y 5916   0.139   2.080   9.797 -2.7383 -0.1358  0.3594
   69SLPC   C34 5917   0.172   2.274   9.737 -0.2736 -0.3459  0.2607
   69SLPC   H4X 5918   0.276   2.253   9.701 -0.9397  0.5158 -2.4687
   69SLPC   H4Y 5919   0.189   2.377   9.774 -1.1120  0.4262 -1.3674
   69SLPC   C35 5920   0.080   2.255   9.613 -0.5478 -0.0248  0.1791
   69SLPC   H5X 5921  -0.018   2.218   9.650 -0.4579  0.6959  1.1794
   69SLPC   H5Y 5922   0.109   2.173   9.544 -1.3919  0.6603 -1.0221
   69SLPC   C36 5923   0.062   2.390   9.528 -0.4281 -0.1397  0.4565
   69SLPC   H6X 5924   0.164   2.426   9.503 -1.1629 -0.5886 -3.9121
   69SLPC   H6Y 5925   0.017   2.467   9.593  1.8198  2.0002 -0.3677
   69SLPC   C37 5926  -0.023   2.359   9.410  0.0567  0.1385  0.9555
   69SLPC   H7X 5927  -0.122   2.318   9.439  0.0832 -0.9294 -0.3329
   69SLPC   H7Y 5928   0.031   2.280   9.353  1.5097  2.1087 -0.5426
   69SLPC   C38 5929  -0.034   2.478   9.321 -0.1404  1.0574  0.5071
   69SLPC   H8X 5930   0.066   2.515   9.291 -0.5360  3.0278  1.4092
   69SLPC   H8Y 5931  -0.069   2.566   9.379  0.6343 -0.3126  3.1866
   69SLPC   C39 5932  -0.134   2.466   9.206  0.3900  0.4820 -0.9296
   69SLPC   H9X 5933  -0.239   2.483   9.239  0.4250 -0.1754 -0.4683
   69SLPC   H9Y 5934  -0.130   2.360   9.174 -0.9443  0.2394 -0.3540
   69SLPC  C310 5935  -0.104   2.566   9.094 -0.2261 -0.4543 -0.2389
   69SLPC  H10X 5936   0.004   2.593   9.094 -0.3591  0.1998  1.4905
   69SLPC  H10Y 5937  -0.162   2.655   9.122  0.3303  1.3701 -4.1783
   69SLPC  C311 5938  -0.151   2.517   8.955  0.1601 -0.4074  0.1773
   69SLPC  H11X 5939  -0.251   2.471   8.967  0.2362 -0.3710  1.0621
   69SLPC  H11Y 5940  -0.077   2.439   8.931 -1.8695 -2.3227 -0.1440
   69SLPC  C312 5941  -0.160   2.624   8.841  0.0957 -0.5525 -0.6978
   69SLPC  H12X 5942  -0.062   2.674   8.829 -0.0888  0.0043  0.0281
   69SLPC  H12Y 5943  -0.248   2.690   8.858 -1.0301 -0.9045 -4.3669
   69SLPC  C313 5944  -0.190   2.555   8.706 -0.1947 -0.2875  0.7642
   69SLPC  H13X 5945  -0.289   2.504   8.704 -1.0704  1.3407 -1.1047
   69SLPC  H13Y 5946  -0.113   2.477   8.692 -1.0457 -1.2523  1.3002
   69SLPC  C314 5947  -0.180   2.636   8.576  0.2483 -0.3916  0.3561
   69SLPC  H14X 5948  -0.263   2.710   8.578  1.0382  0.5206  0.0255
   69SLPC  H14Y 5949  -0.214   2.577   8.488  1.2012  0.2655 -0.4825
   69SLPC  C315 5950  -0.052   2.713   8.554  0.4378  0.3886  0.2614
   69SLPC  H15X 5951   0.031   2.644   8.528  0.2813  0.0633  0.6271
   69SLPC  H15Y 5952  -0.021   2.762   8.649  1.7232 -1.9526  1.1256
   69SLPC  C316 5953  -0.045   2.824   8.449  0.2338  0.2053  0.2993
   69SLPC  H16X 5954   0.059   2.862   8.461  0.1789  1.0487 -1.6365
   69SLPC  H16Y 5955  -0.120   2.902   8.471  0.2974  0.4608 -0.3661
   69SLPC  C317 5956  -0.072   2.784   8.300 -0.5354 -0.0898  0.1189
   69SLPC  H17X 5957  -0.170   2.730   8.306 -1.2694  1.3058  1.2530
   69SLPC  H17Y 5958   0.005   2.708   8.274  2.8758  3.2661 -0.3858
   69SLPC  C318 5959  -0.077   2.909   8.201 -0.7168 -0.0419  0.1565
   69SLPC  H18X 5960   0.011   2.967   8.236 -2.4117  1.6419  1.8343
   69SLPC  H18Y 5961  -0.170   2.964   8.227 -1.4633 -2.1482  2.2739
   69SLPC  H18Z 5962  -0.069   2.867   8.098  1.4877 -3.2514  1.4653
   70SLPC     N 5963   2.189   5.439  11.008  0.7819  0.5123 -0.0808
   70SLPC   C13 5964   2.277   5.317  11.017 -0.7558 -0.0732  0.5202
   70SLPC  H13A 5965   2.344   5.326  11.102 -1.1989  1.6795  0.7355
   70SLPC  H13B 5966   2.228   5.222  11.032  0.8161 -1.0451 -0.2236
   70SLPC  H13C 5967   2.344   5.298  10.935 -0.2989 -1.4656  1.1788
   70SLPC   C14 5968   2.276   5.561  11.006  0.2369 -0.1265 -0.3748
   70SLPC  H14A 5969   2.319   5.589  11.101 -2.8084 -0.2173  1.1725
   70SLPC  H14B 5970   2.364   5.557  10.943 -0.0222  0.6191 -0.7925
   70SLPC  H14C 5971   2.216   5.641  10.965  1.3584 -0.1196 -2.0988
   70SLPC   C15 5972   2.104   5.455  11.128  0.2438  0.2375 -0.2838
   70SLPC  H15A 5973   2.033   5.373  11.133  2.2378 -1.7310 -2.1403
   70SLPC  H15B 5974   2.168   5.466  11.214  0.7979 -0.3742 -0.6073
   70SLPC  H15C 5975   2.041   5.542  11.121 -0.0768  0.0730  0.3703
   70SLPC   C12 5976   2.102   5.430  10.886  0.4014  0.3242  0.2511
   70SLPC  H12A 5977   2.052   5.334  10.879  0.9128  0.1811 -2.3257
   70SLPC  H12B 5978   2.161   5.425  10.796 -0.9034  4.1483 -1.0294
   70SLPC   C11 5979   1.988   5.539  10.876  0.4089 -0.5725  0.8535
   70SLPC  H11A 5980   1.918   5.523  10.961 -0.0402  0.5090  0.7072
   70SLPC  H11B 5981   1.924   5.530  10.786  1.4441  0.7659 -0.0475
   70SLPC     P 5982   2.092   5.739  10.734 -0.0525  0.3380  0.0133
   70SLPC   O13 5983   2.046   5.878  10.727 -0.1327 -0.1960  0.4387
   70SLPC   O14 5984   2.241   5.719  10.735 -0.3811 -0.2303  0.5154
   70SLPC   O12 5985   2.027   5.676  10.865  0.1985 -0.0808  0.3595
   70SLPC   O11 5986   2.042   5.647  10.620 -0.2183  0.2311 -0.0156
   70SLPC    C1 5987   2.017   5.695  10.488 -0.1461  0.0699  0.1815
   70SLPC    HA 5988   1.981   5.799  10.499  2.6743  0.9043  2.8575
   70SLPC    HB 5989   2.107   5.697  10.423 -0.6391  0.3583 -0.5062
   70SLPC    C2 5990   1.897   5.613  10.423 -0.5352  0.2046  0.2680
   70SLPC    HS 5991   1.936   5.509  10.425  5.4167  2.0020  3.7889
   70SLPC   O21 5992   1.865   5.660  10.294 -0.4562 -0.0511 -1.0331
   70SLPC   C21 5993   1.935   5.623  10.192 -1.1031 -0.1862  0.4810
   70SLPC   O22 5994   2.026   5.539  10.193 -0.3759  0.4014 -0.0549
   70SLPC   C22 5995   1.892   5.711  10.067  0.5684  0.3891  0.3704
   70SLPC   H2R 5996   1.957   5.672   9.986 -0.0589 -0.3055  0.1909
   70SLPC   H2S 5997   1.786   5.688  10.043  0.7747 -0.2281  0.0454
   70SLPC    C3 5998   1.768   5.629  10.509  0.1304  0.7467  0.0318
   70SLPC    HX 5999   1.726   5.730  10.489  0.3996  0.6770 -0.9517
   70SLPC    HY 6000   1.793   5.633  10.617  2.1854 -0.1775 -0.3744
   70SLPC   O31 6001   1.667   5.529  10.477  0.0567  0.0084  0.4121
   70SLPC   C31 6002   1.671   5.422  10.560 -0.2138  0.4985  0.1029
   70SLPC   O32 6003   1.753   5.401  10.649  0.4620 -0.3728 -0.4102
   70SLPC   C32 6004   1.559   5.323  10.512  0.0877 -0.2091 -0.9950
   70SLPC   H2X 6005   1.469   5.384  10.487 -0.7616  0.1843  2.4819
   70SLPC   H2Y 6006   1.539   5.265  10.604  0.3872  1.3268  0.0876
   70SLPC   C23 6007   1.920   5.859  10.084  0.3367  0.0638 -0.9877
   70SLPC   H3R 6008   2.027   5.881  10.104 -0.1905  0.6836  1.5218
   70SLPC   H3S 6009   1.864   5.895  10.173 -0.9339  0.1061 -1.7820
   70SLPC   C24 6010   1.886   5.947   9.958  0.3416  0.0358  0.6280
   70SLPC   H4R 6011   1.792   5.912   9.909  1.9811 -2.3255 -0.9988
   70SLPC   H4S 6012   1.957   5.922   9.877 -1.8427  0.3711 -1.4997
   70SLPC   C25 6013   1.885   6.098   9.990  0.8052 -0.0285  0.1552
   70SLPC   H5R 6014   1.893   6.148   9.892 -1.3729  0.8653  0.3915
   70SLPC   H5S 6015   1.976   6.122  10.050 -0.3175  1.7131  1.2267
   70SLPC   C26 6016   1.754   6.133  10.067 -0.2714 -0.3007 -0.4040
   70SLPC   H6R 6017   1.742   6.079  10.164  0.2165  1.2770  0.5702
   70SLPC   H6S 6018   1.661   6.132  10.006 -1.1998 -0.2823  0.9633
   70SLPC   C27 6019   1.747   6.279  10.113  0.4930 -0.2901 -0.8358
   70SLPC   H7R 6020   1.825   6.296  10.190 -1.0360  1.9966  0.3075
   70SLPC   H7S 6021   1.649   6.294  10.162  0.8482  0.9145 -0.4802
   70SLPC   C28 6022   1.745   6.383  10.004 -0.6813  0.1297 -0.2057
   70SLPC   H8R 6023   1.665   6.358   9.931 -0.1638 -0.6847 -0.5141
   70SLPC   H8S 6024   1.846   6.383   9.957 -1.2047 -0.1422 -1.3676
   70SLPC   C29 6025   1.732   6.524  10.068  0.3388  0.2372  0.3774
   70SLPC   H9R 6026   1.689   6.529  10.169 -0.4940  0.7504  0.0108
   70SLPC  C210 6027   1.783   6.638  10.017 -0.2272 -0.2172  0.0120
   70SLPC  H10R 6028   1.764   6.726  10.080  0.4340  0.9933 -1.4243
   70SLPC  C211 6029   1.850   6.678   9.891 -0.4597 -0.5785  0.1941
   70SLPC  H11R 6030   1.781   6.735   9.826 -2.2343 -1.6305  1.0603
   70SLPC  H11S 6031   1.870   6.584   9.835  0.7886 -0.5319  0.5388
   70SLPC  C212 6032   1.973   6.764   9.928  0.6635  0.0685  0.1704
   70SLPC  H12R 6033   1.998   6.775  10.034 -0.7691  0.2531  0.4946
   70SLPC  C213 6034   2.065   6.798   9.836  0.3212  0.3138 -0.1607
   70SLPC  H13R 6035   2.156   6.851   9.868  0.0652  0.8009 -0.2337
   70SLPC  C214 6036   2.062   6.767   9.694 -0.6660  0.3388  0.2580
   70SLPC  H14R 6037   2.060   6.868   9.647  0.1109  1.6386  2.8222
   70SLPC  H14S 6038   1.975   6.708   9.658  0.3351 -1.2818  0.4430
   70SLPC  C215 6039   2.184   6.691   9.624 -0.1390 -0.7889 -0.2963
   70SLPC  H15R 6040   2.217   6.595   9.671  0.2190 -0.2513  0.5961
   70SLPC  H15S 6041   2.278   6.751   9.622 -1.7822  1.8937 -1.8983
   70SLPC  C216 6042   2.144   6.656   9.477  0.0630 -0.0543  0.3267
   70SLPC  H16R 6043   2.054   6.590   9.482  1.0608 -1.4311  1.2620
   70SLPC  H16S 6044   2.223   6.597   9.426  0.4368  0.1775  0.6343
   70SLPC  C217 6045   2.110   6.775   9.388 -0.5057  0.0333 -0.3472
   70SLPC  H17R 6046   2.201   6.835   9.369 -1.9629  2.4710  0.0522
   70SLPC  H17S 6047   2.040   6.849   9.431  0.3039  0.8506 -0.3971
   70SLPC  C218 6048   2.046   6.734   9.260  0.1431 -0.1082  0.3329
   70SLPC  H18R 6049   2.024   6.818   9.190 -1.5768  0.1016  1.0647
   70SLPC  H18S 6050   1.949   6.683   9.277 -1.5121  1.8333 -2.5386
   70SLPC  H18T 6051   2.114   6.668   9.203  0.9777  0.2383  0.9004
   70SLPC   C33 6052   1.613   5.234  10.404  0.0176  0.2025 -0.0845
   70SLPC   H3X 6053   1.539   5.150  10.397 -0.6771  0.8527 -0.7680
   70SLPC   H3Y 6054   1.707   5.186  10.438  1.6549  2.3574 -1.3504
   70SLPC   C34 6055   1.632   5.300  10.273 -0.2627  0.0901  0.3471
   70SLPC   H4X 6056   1.701   5.385  10.289  0.4609 -0.3455 -0.4036
   70SLPC   H4Y 6057   1.541   5.358  10.244 -0.1083  0.2093  0.0956
   70SLPC   C35 6058   1.689   5.202  10.159 -0.0789 -0.2656  0.0419
   70SLPC   H5X 6059   1.619   5.116  10.148  0.2052 -0.6613  1.1615
   70SLPC   H5Y 6060   1.787   5.172  10.201 -0.1316 -1.2465 -0.5012
   70SLPC   C36 6061   1.702   5.277  10.029  0.2841 -0.9497 -0.2752
   70SLPC   H6X 6062   1.786   5.349  10.036  0.8262 -1.6744  0.9387
   70SLPC   H6Y 6063   1.610   5.332  10.001  0.9716  0.4194  0.1004
   70SLPC   C37 6064   1.720   5.182   9.910 -0.2963 -0.4522 -0.0598
   70SLPC   H7X 6065   1.634   5.113   9.899  0.0527 -1.0115  0.6973
   70SLPC   H7Y 6066   1.811   5.126   9.942 -1.2152 -2.2447 -0.4654
   70SLPC   C38 6067   1.747   5.253   9.779  0.0557  0.5599  0.2668
   70SLPC   H8X 6068   1.840   5.313   9.791  1.3843 -1.1813 -0.7721
   70SLPC   H8Y 6069   1.661   5.322   9.767 -0.8013 -0.5028  0.1072
   70SLPC   C39 6070   1.758   5.164   9.655 -0.3160  0.5494 -0.3324
   70SLPC   H9X 6071   1.675   5.090   9.651  0.7974 -0.7070 -1.2292
   70SLPC   H9Y 6072   1.840   5.091   9.671 -0.8186  0.5186  2.7790
   70SLPC  C310 6073   1.780   5.245   9.530 -0.2804  0.6128  0.2783
   70SLPC  H10X 6074   1.862   5.319   9.539  0.9149 -0.8207  1.8640
   70SLPC  H10Y 6075   1.693   5.308   9.502 -0.3692  0.3547 -0.0250
   70SLPC  C311 6076   1.818   5.166   9.406  0.0983  0.2489  0.1621
   70SLPC  H11X 6077   1.763   5.069   9.411  2.7858 -1.5482 -2.0196
   70SLPC  H11Y 6078   1.924   5.135   9.406  0.4299  1.3303 -0.5523
   70SLPC  C312 6079   1.800   5.237   9.271  0.0418  0.4639 -0.3716
   70SLPC  H12X 6080   1.864   5.329   9.272  1.9602 -0.7614 -2.1364
   70SLPC  H12Y 6081   1.695   5.268   9.256 -0.2356  0.3974  1.2347
   70SLPC  C313 6082   1.831   5.155   9.151 -0.2936 -0.0470  0.0657
   70SLPC  H13X 6083   1.762   5.068   9.145 -0.9269  0.3133  1.7827
   70SLPC  H13Y 6084   1.933   5.112   9.163  0.6747  2.5508  1.6641
   70SLPC  C314 6085   1.833   5.247   9.025 -0.0333 -0.2927  0.0499
   70SLPC  H14X 6086   1.917   5.319   9.032  0.4895 -0.8067 -0.7113
   70SLPC  H14Y 6087   1.734   5.297   9.021  0.9639  1.6895 -0.9070
   70SLPC  C315 6088   1.844   5.154   8.903 -0.1908  0.3259  0.1147
   70SLPC  H15X 6089   1.754   5.090   8.898  0.9798 -1.3370 -0.6020
   70SLPC  H15Y 6090   1.933   5.088   8.914 -1.8995 -2.0684  0.1597
   70SLPC  C316 6091   1.849   5.236   8.774 -0.3655  0.4606 -0.7001
   70SLPC  H16X 6092   1.873   5.341   8.804  0.1447  0.0770  0.2856
   70SLPC  H16Y 6093   1.745   5.228   8.737 -0.1231 -1.3701 -1.0870
   70SLPC  C317 6094   1.946   5.181   8.666  0.6885  0.4223 -0.3440
   70SLPC  H17X 6095   2.048   5.202   8.703  1.3538 -1.4836 -1.0153
   70SLPC  H17Y 6096   1.944   5.236   8.569  1.4292  1.3818  0.1672
   70SLPC  C318 6097   1.933   5.029   8.639  0.7272 -0.2920  0.6003
   70SLPC  H18X 6098   1.996   4.997   8.553 -1.3504 -1.5325 -0.5418
   70SLPC  H18Y 6099   1.831   5.011   8.599  0.8804  0.6196 -0.2291
   70SLPC  H18Z 6100   1.951   4.959   8.724 -0.1600 -0.4902  0.6342
   71SLPC     N 6101   0.657   6.575  10.946 -0.7707  0.0280 -0.1697
   71SLPC   C13 6102   0.543   6.481  10.936  0.0156  1.2710  0.1326
   71SLPC  H13A 6103   0.534   6.426  11.028  1.5459  0.8793  0.0881
   71SLPC  H13B 6104   0.444   6.516  10.910  0.5162  0.9518 -2.5174
   71SLPC  H13C 6105   0.572   6.412  10.857 -0.6992  1.0536  0.0555
   71SLPC   C14 6106   0.784   6.517  10.989  0.2448  0.4905 -0.0531
   71SLPC  H14A 6107   0.783   6.477  11.090  0.8646 -0.5226 -0.4295
   71SLPC  H14B 6108   0.804   6.434  10.923  1.7477  2.5488 -2.3800
   71SLPC  H14C 6109   0.870   6.582  10.984  0.0995  0.7769  0.9415
   71SLPC   C15 6110   0.614   6.683  11.037 -0.2210 -0.8649  0.3722
   71SLPC  H15A 6111   0.692   6.756  11.053 -0.9996 -0.0832  0.7282
   71SLPC  H15B 6112   0.537   6.738  10.984  2.0885  0.2329 -2.0951
   71SLPC  H15C 6113   0.578   6.650  11.134  1.2734  0.0984  1.3045
   71SLPC   C12 6114   0.671   6.630  10.803 -0.2776 -0.6993  0.1855
   71SLPC  H12A 6115   0.678   6.546  10.735 -2.8254  0.6385 -1.9129
   71SLPC  H12B 6116   0.748   6.705  10.798  1.3842 -2.3253  0.1680
   71SLPC   C11 6117   0.548   6.713  10.746 -0.1385  0.6736 -0.2054
   71SLPC  H11A 6118   0.451   6.673  10.783 -0.1849 -0.4749 -1.4941
   71SLPC  H11B 6119   0.550   6.695  10.636  0.2496 -2.0961  0.1715
   71SLPC     P 6120   0.654   6.936  10.691 -0.1994 -0.0112  0.0551
   71SLPC   O13 6121   0.610   7.075  10.715 -0.3425  0.2290  0.3276
   71SLPC   O14 6122   0.791   6.898  10.721 -0.4981  0.3426 -0.0331
   71SLPC   O12 6123   0.549   6.851  10.775  0.1870 -0.1972 -1.2475
   71SLPC   O11 6124   0.619   6.895  10.544  0.1777  0.3374 -0.2970
   71SLPC    C1 6125   0.700   6.944  10.442  0.5091  0.1823 -0.2939
   71SLPC    HA 6126   0.810   6.933  10.448  0.7338 -0.7172 -3.7636
   71SLPC    HB 6127   0.683   6.875  10.356 -1.8469  1.5667 -1.0268
   71SLPC    C2 6128   0.656   7.078  10.385 -0.8440  0.3349 -0.3931
   71SLPC    HS 6129   0.665   7.156  10.464  0.6026  0.2272 -0.4275
   71SLPC   O21 6130   0.530   7.059  10.329  0.3120 -0.3942 -0.3529
   71SLPC   C21 6131   0.468   7.175  10.294 -0.2362 -0.1035 -0.0488
   71SLPC   O22 6132   0.507   7.287  10.328  0.1841 -0.3127  0.5688
   71SLPC   C22 6133   0.351   7.148  10.201 -0.5113  0.1693  0.6194
   71SLPC   H2R 6134   0.280   7.088  10.262 -1.7201  2.2565  1.3741
   71SLPC   H2S 6135   0.315   7.252  10.184 -2.1288 -0.5035 -0.3618
   71SLPC    C3 6136   0.765   7.123  10.271  0.1657 -0.4961 -0.4487
   71SLPC    HX 6137   0.866   7.090  10.303  0.4018 -1.7428 -2.3302
   71SLPC    HY 6138   0.769   7.234  10.269 -0.0199 -0.3678  2.0803
   71SLPC   O31 6139   0.732   7.085  10.136  0.1587 -0.9951 -0.3505
   71SLPC   C31 6140   0.761   6.958  10.100 -0.2991  0.4639  0.0113
   71SLPC   O32 6141   0.827   6.882  10.169 -0.0329  0.0557  0.1639
   71SLPC   C32 6142   0.710   6.928   9.957 -0.2571  0.4247  0.3159
   71SLPC   H2X 6143   0.701   7.019   9.895 -0.2864  0.3456  0.2041
   71SLPC   H2Y 6144   0.605   6.894   9.971  0.2249 -1.5620 -0.4405
   71SLPC   C23 6145   0.398   7.077  10.068  0.4518 -0.3148  1.0067
   71SLPC   H3R 6146   0.418   6.977  10.113 -0.4510  0.4557  3.2669
   71SLPC   H3S 6147   0.480   7.136  10.023 -0.1693  1.3604  1.9922
   71SLPC   C24 6148   0.291   7.060   9.953 -0.2116  0.4924  0.0310
   71SLPC   H4R 6149   0.265   7.157   9.907 -1.6676 -0.0116 -0.2753
   71SLPC   H4S 6150   0.197   7.004   9.974  0.5990 -1.2390 -0.7617
   71SLPC   C25 6151   0.358   6.979   9.845 -0.2239 -0.4410  0.8240
   71SLPC   H5R 6152   0.376   6.872   9.872  0.2043 -1.0895 -1.8151
   71SLPC   H5S 6153   0.456   7.023   9.815 -1.1493  1.0997 -0.0766
   71SLPC   C26 6154   0.259   6.977   9.727 -0.0980 -0.2758  0.0189
   71SLPC   H6R 6155   0.233   7.081   9.701  0.2852 -0.1592  0.0889
   71SLPC   H6S 6156   0.168   6.929   9.768  0.5360 -2.1919 -0.7067
   71SLPC   C27 6157   0.317   6.886   9.620  0.2307  0.4003  0.0083
   71SLPC   H7R 6158   0.308   6.784   9.663  0.8791  0.7473  1.0221
   71SLPC   H7S 6159   0.423   6.912   9.601  0.7532 -1.1958  0.6252
   71SLPC   C28 6160   0.236   6.886   9.488  0.2955 -0.7016  0.3071
   71SLPC   H8R 6161   0.253   6.986   9.441 -2.2124  0.1037  0.9739
   71SLPC   H8S 6162   0.129   6.871   9.512  0.0573  0.0682 -0.2165
   71SLPC   C29 6163   0.290   6.776   9.402 -0.2015 -0.0615 -0.6762
   71SLPC   H9R 6164   0.208   6.703   9.392 -0.3056 -0.1953  0.8378
   71SLPC  C210 6165   0.407   6.762   9.338 -0.4457  0.4211 -0.2715
   71SLPC  H10R 6166   0.419   6.666   9.286  0.9311  0.0069  0.7732
   71SLPC  C211 6167   0.515   6.865   9.332  0.0617 -0.5263 -0.1995
   71SLPC  H11R 6168   0.568   6.877   9.430 -0.8020 -1.0025  0.3344
   71SLPC  H11S 6169   0.469   6.966   9.326 -0.0253 -0.5182  0.5429
   71SLPC  C212 6170   0.607   6.836   9.220  0.0607 -0.8403  0.0342
   71SLPC  H12R 6171   0.637   6.730   9.217 -0.7666 -1.0602 -1.3181
   71SLPC  C213 6172   0.661   6.925   9.132 -0.0865 -0.4489  0.1562
   71SLPC  H13R 6173   0.733   6.889   9.057  0.2128  0.9303 -0.2316
   71SLPC  C214 6174   0.646   7.077   9.132  0.3719 -0.6872  0.7497
   71SLPC  H14R 6175   0.567   7.111   9.203  0.2929 -2.4704  1.5657
   71SLPC  H14S 6176   0.607   7.109   9.033 -1.3492  1.2467  1.9715
   71SLPC  C215 6177   0.779   7.152   9.173  0.2824 -0.5213  0.4201
   71SLPC  H15R 6178   0.768   7.249   9.120 -0.7120 -2.2453 -2.8334
   71SLPC  H15S 6179   0.865   7.088   9.143  1.0794  1.1271 -0.9749
   71SLPC  C216 6180   0.795   7.195   9.319 -0.5134  0.2394 -0.5469
   71SLPC  H16R 6181   0.715   7.265   9.352  1.1552  1.1481  1.7883
   71SLPC  H16S 6182   0.893   7.247   9.319  1.4635 -3.1913 -0.4431
   71SLPC  C217 6183   0.793   7.084   9.420 -0.0192 -0.1831  0.7640
   71SLPC  H17R 6184   0.852   7.001   9.376  0.6713  0.5433  0.2892
   71SLPC  H17S 6185   0.684   7.061   9.410 -0.0955  0.8990 -1.4658
   71SLPC  C218 6186   0.827   7.115   9.569  0.1577  0.0007  0.2562
   71SLPC  H18R 6187   0.887   7.207   9.585 -1.0306  0.7800  0.3431
   71SLPC  H18S 6188   0.894   7.036   9.608  0.5217  1.1430  2.0731
   71SLPC  H18T 6189   0.729   7.115   9.620 -1.0174 -1.1921 -1.8555
   71SLPC   C33 6190   0.797   6.818   9.894  0.1790 -0.0030  0.3688
   71SLPC   H3X 6191   0.811   6.728   9.958  2.7568  1.0273  1.3937
   71SLPC   H3Y 6192   0.897   6.865   9.894 -0.0338  0.4638 -0.0309
   71SLPC   C34 6193   0.758   6.786   9.755 -0.1115  0.7193  0.2075
   71SLPC   H4X 6194   0.735   6.872   9.688 -3.7984  0.1434  0.4859
   71SLPC   H4Y 6195   0.661   6.732   9.749 -0.1789  0.9816 -1.7045
   71SLPC   C35 6196   0.856   6.687   9.686 -0.0533  0.6170 -0.3142
   71SLPC   H5X 6197   0.803   6.631   9.607  0.9814  0.4655 -0.9199
   71SLPC   H5Y 6198   0.876   6.602   9.755 -0.4917 -0.7065 -1.7611
   71SLPC   C36 6199   0.985   6.752   9.637  0.4374 -0.7469  0.5200
   71SLPC   H6X 6200   1.036   6.805   9.720  0.2678 -1.2564  0.9535
   71SLPC   H6Y 6201   0.966   6.825   9.555  3.5604 -2.0795 -1.5927
   71SLPC   C37 6202   1.093   6.657   9.585  0.1491  0.9705  0.3101
   71SLPC   H7X 6203   1.104   6.588   9.672  1.1280  1.4839  0.6034
   71SLPC   H7Y 6204   1.186   6.711   9.556 -0.1035  1.7000  0.8444
   71SLPC   C38 6205   1.047   6.568   9.473 -1.2059 -0.0648  0.2431
   71SLPC   H8X 6206   0.964   6.498   9.500 -1.6186  0.2098 -0.2970
   71SLPC   H8Y 6207   1.127   6.495   9.450  0.3566  1.6723 -0.0174
   71SLPC   C39 6208   1.006   6.628   9.334 -0.5656  0.4683 -0.4862
   71SLPC   H9X 6209   0.927   6.705   9.348 -0.8049  0.0123  0.8044
   71SLPC   H9Y 6210   0.954   6.544   9.282  0.4848 -0.3959 -0.1590
   71SLPC  C310 6211   1.124   6.686   9.250 -0.9543  0.6800  0.2971
   71SLPC  H10X 6212   1.204   6.612   9.228 -2.9299 -1.0142 -1.6448
   71SLPC  H10Y 6213   1.171   6.758   9.320 -0.1775 -0.0488  0.5495
   71SLPC  C311 6214   1.078   6.757   9.122 -0.0981  0.6769 -0.1518
   71SLPC  H11X 6215   1.007   6.835   9.156 -0.1973  0.2261  0.7114
   71SLPC  H11Y 6216   1.018   6.685   9.062  1.4987  0.7406 -1.9062
   71SLPC  C312 6217   1.180   6.812   9.022  0.0093 -0.5008  0.4487
   71SLPC  H12X 6218   1.240   6.729   8.979  1.7957  1.8549 -1.8995
   71SLPC  H12Y 6219   1.256   6.872   9.077  1.8502 -1.4579 -0.9483
   71SLPC  C313 6220   1.118   6.877   8.902  0.5902  0.1860  0.9263
   71SLPC  H13X 6221   1.195   6.939   8.852  0.9683 -0.3229  0.8655
   71SLPC  H13Y 6222   1.040   6.950   8.932  0.1427  0.7169 -1.3253
   71SLPC  C314 6223   1.067   6.795   8.789  0.2447  0.3966 -0.3910
   71SLPC  H14X 6224   0.967   6.755   8.818  0.7736 -2.4314 -2.0818
   71SLPC  H14Y 6225   1.143   6.715   8.777 -0.0871 -0.5920  2.9368
   71SLPC  C315 6226   1.042   6.867   8.660  0.0611  0.0907  0.3681
   71SLPC  H15X 6227   1.141   6.898   8.619 -0.4961  0.4546 -0.7671
   71SLPC  H15Y 6228   1.006   6.970   8.683  0.0179  0.1624 -0.0110
   71SLPC  C316 6229   0.951   6.813   8.545 -0.1954  0.1968 -0.2546
   71SLPC  H16X 6230   0.847   6.805   8.585  0.3180 -1.5305  0.8292
   71SLPC  H16Y 6231   0.982   6.710   8.517 -0.9379  0.1380 -0.8921
   71SLPC  C317 6232   0.950   6.905   8.425 -0.2559  0.4935 -0.1351
   71SLPC  H17X 6233   1.054   6.936   8.404 -0.8238  2.4281 -0.2879
   71SLPC  H17Y 6234   0.892   6.996   8.451 -0.2463  0.4410  0.0740
   71SLPC  C318 6235   0.870   6.846   8.311  0.2967  0.4057  0.3760
   71SLPC  H18X 6236   0.931   6.766   8.263  0.0594 -0.2095  1.0692
   71SLPC  H18Y 6237   0.858   6.927   8.237  0.8224  1.3136  1.2575
   71SLPC  H18Z 6238   0.769   6.809   8.339  0.4635 -0.4017 -0.0574
   72SLPC     N 6239   3.372   5.492  11.085 -0.1052 -0.2696 -0.2249
   72SLPC   C13 6240   3.374   5.621  11.158  0.3102 -0.2339 -0.1334
   72SLPC  H13A 6241   3.288   5.683  11.138  0.7432 -0.0420 -1.5703
   72SLPC  H13B 6242   3.377   5.602  11.264 -0.3227 -0.9679 -0.2404
   72SLPC  H13C 6243   3.463   5.678  11.133  1.4185 -1.4283  0.9336
   72SLPC   C14 6244   3.246   5.422  11.114  0.4725  0.0205 -0.7473
   72SLPC  H14A 6245   3.253   5.369  11.208 -1.6645 -0.9145 -1.0643
   72SLPC  H14B 6246   3.165   5.492  11.128  0.6692  0.6724 -2.5659
   72SLPC  H14C 6247   3.211   5.351  11.040 -1.1551  0.0977 -0.0767
   72SLPC   C15 6248   3.485   5.402  11.117 -0.1887  0.3626  0.5660
   72SLPC  H15A 6249   3.462   5.308  11.069 -3.5326  0.9224  0.8128
   72SLPC  H15B 6250   3.575   5.447  11.078 -0.7960  1.3575  0.2705
   72SLPC  H15C 6251   3.491   5.385  11.224 -0.1424 -2.1882  0.2002
   72SLPC   C12 6252   3.362   5.527  10.938 -0.5840 -0.8432  0.7464
   72SLPC  H12A 6253   3.456   5.579  10.924 -1.5682  2.1450  3.7920
   72SLPC  H12B 6254   3.283   5.594  10.911  1.3996  1.2920 -0.0791
   72SLPC   C11 6255   3.374   5.405  10.840 -0.7283  0.5852  1.2538
   72SLPC  H11A 6256   3.476   5.361  10.838 -0.9106  0.1093  2.0481
   72SLPC  H11B 6257   3.360   5.457  10.743  0.7568 -0.5346  0.4006
   72SLPC     P 6258   3.300   5.174  10.759 -0.4956 -0.5035 -0.3885
   72SLPC   O13 6259   3.409   5.092  10.822 -0.6585  0.2671  0.5775
   72SLPC   O14 6260   3.181   5.094  10.726 -0.2783 -0.4348  0.1782
   72SLPC   O12 6261   3.265   5.300  10.855 -0.0493  0.6407 -0.2479
   72SLPC   O11 6262   3.350   5.237  10.625 -0.5108 -0.6416 -0.4011
   72SLPC    C1 6263   3.263   5.296  10.530 -0.4825 -0.0500  0.3110
   72SLPC    HA 6264   3.160   5.301  10.571  0.1308 -0.7170  2.0102
   72SLPC    HB 6265   3.304   5.398  10.510 -0.7046 -0.0865 -0.3788
   72SLPC    C2 6266   3.263   5.216  10.394  0.0042  0.6277  0.3768
   72SLPC    HS 6267   3.280   5.109  10.418  1.2911  1.0863  1.6799
   72SLPC   O21 6268   3.375   5.251  10.320  0.3312 -0.1142 -0.1416
   72SLPC   C21 6269   3.380   5.356  10.238  0.9977 -0.7659 -0.3087
   72SLPC   O22 6270   3.295   5.439  10.225 -0.0827 -0.1239 -0.0830
   72SLPC   C22 6271   3.495   5.341  10.144 -0.0821  0.3098 -0.0153
   72SLPC   H2R 6272   3.585   5.370  10.202  0.9924 -1.1955 -0.8469
   72SLPC   H2S 6273   3.506   5.234  10.118 -0.1992  0.4350 -0.6016
   72SLPC    C3 6274   3.133   5.237  10.318  0.1067  0.5354  0.4994
   72SLPC    HX 6275   3.107   5.345  10.311 -2.8009 -0.1935 -2.0700
   72SLPC    HY 6276   3.059   5.198  10.391 -1.4018  2.3354  0.0013
   72SLPC   O31 6277   3.134   5.164  10.190 -0.5189 -0.7826 -0.3022
   72SLPC   C31 6278   3.051   5.221  10.105  0.5362 -0.4314  0.0938
   72SLPC   O32 6279   2.966   5.310  10.128 -0.8241  0.1654  0.0167
   72SLPC   C32 6280   3.066   5.166   9.961 -0.7080  0.3246 -0.1810
   72SLPC   H2X 6281   3.053   5.250   9.890  1.3356  2.8154  2.1603
   72SLPC   H2Y 6282   2.997   5.083   9.936 -2.1502  0.7092  2.1711
   72SLPC   C23 6283   3.475   5.419  10.008 -0.3439  0.3469  0.5286
   72SLPC   H3R 6284   3.494   5.526  10.029 -1.1842  0.9072 -1.3310
   72SLPC   H3S 6285   3.378   5.403   9.956  0.5213 -2.7411 -0.3726
   72SLPC   C24 6286   3.577   5.373   9.899 -0.3023 -0.0198  0.1362
   72SLPC   H4R 6287   3.575   5.262   9.890  1.7810 -0.0444 -0.5078
   72SLPC   H4S 6288   3.679   5.408   9.926 -0.0388  0.1477 -1.0295
   72SLPC   C25 6289   3.546   5.433   9.760  0.5595  0.3335  0.6168
   72SLPC   H5R 6290   3.567   5.542   9.760  0.5482  0.3482 -0.8495
   72SLPC   H5S 6291   3.436   5.428   9.749  0.3529  0.0465  2.3921
   72SLPC   C26 6292   3.626   5.362   9.646 -0.3121 -0.0098  0.0993
   72SLPC   H6R 6293   3.615   5.251   9.653  1.2888 -0.3549 -1.9491
   72SLPC   H6S 6294   3.731   5.394   9.653 -1.0068  2.4136  0.2297
   72SLPC   C27 6295   3.562   5.406   9.515 -0.5416  0.3146  0.9754
   72SLPC   H7R 6296   3.556   5.517   9.514  1.4204  0.4530 -0.9830
   72SLPC   H7S 6297   3.459   5.367   9.496  0.0433  0.2011 -2.3946
   72SLPC   C28 6298   3.647   5.373   9.384  0.0293 -0.2840  0.5023
   72SLPC   H8R 6299   3.747   5.415   9.403 -0.8172  0.8687  2.7783
   72SLPC   H8S 6300   3.590   5.425   9.304 -0.3525 -0.7772  0.4426
   72SLPC   C29 6301   3.634   5.226   9.370  0.2060  0.6583 -0.2168
   72SLPC   H9R 6302   3.651   5.175   9.466  0.4561  2.0870  0.5151
   72SLPC  C210 6303   3.596   5.148   9.265  0.0721 -0.1030  0.4571
   72SLPC  H10R 6304   3.595   5.039   9.271  2.2598 -0.1051  1.5417
   72SLPC  C211 6305   3.560   5.190   9.124  0.8654  0.3917 -0.4907
   72SLPC  H11R 6306   3.513   5.291   9.125 -2.3381 -0.9677 -0.0533
   72SLPC  H11S 6307   3.481   5.120   9.089  0.4734  0.3679  0.4253
   72SLPC  C212 6308   3.687   5.186   9.048  0.2859  0.1410  1.0759
   72SLPC  H12R 6309   3.752   5.099   9.065  1.5921  1.1741  1.6055
   72SLPC  C213 6310   3.718   5.272   8.948  0.4806  0.1038 -0.1834
   72SLPC  H13R 6311   3.802   5.256   8.878 -1.6467 -1.6526 -2.5169
   72SLPC  C214 6312   3.628   5.389   8.898 -0.4463 -0.5893  0.1988
   72SLPC  H14R 6313   3.693   5.461   8.844  0.7351 -1.0195  0.9926
   72SLPC  H14S 6314   3.588   5.446   8.985  0.8607  1.8420 -0.7002
   72SLPC  C215 6315   3.509   5.340   8.821 -0.6433  0.6652  0.0967
   72SLPC  H15R 6316   3.431   5.419   8.812 -2.0213 -0.8792 -3.3569
   72SLPC  H15S 6317   3.454   5.263   8.879  0.3231  1.5934  2.3401
   72SLPC  C216 6318   3.537   5.288   8.673  0.3283  0.4259  0.0628
   72SLPC  H16R 6319   3.627   5.222   8.674 -0.3118 -0.5118 -0.7741
   72SLPC  H16S 6320   3.560   5.357   8.589  1.1801 -0.6303 -0.6066
   72SLPC  C217 6321   3.441   5.188   8.617 -0.3764  0.3713  0.1562
   72SLPC  H17R 6322   3.347   5.241   8.591 -1.1557 -0.9825  0.1214
   72SLPC  H17S 6323   3.408   5.124   8.701  0.1397  0.6934  0.6084
   72SLPC  C218 6324   3.486   5.105   8.496  0.2981 -0.1498  0.6646
   72SLPC  H18R 6325   3.396   5.051   8.460 -0.3702  0.8486  0.8169
   72SLPC  H18S 6326   3.574   5.037   8.502  2.6133  2.6817  1.0496
   72SLPC  H18T 6327   3.513   5.172   8.411 -1.8523 -0.7045 -0.5391
   72SLPC   C33 6328   3.207   5.114   9.932 -0.3599 -0.1351 -0.1030
   72SLPC   H3X 6329   3.216   5.003   9.937 -1.5630 -0.2263  0.3789
   72SLPC   H3Y 6330   3.275   5.146  10.014 -1.1166  1.5838 -0.1104
   72SLPC   C34 6331   3.262   5.179   9.802  0.0085 -0.2762  0.5343
   72SLPC   H4X 6332   3.372   5.166   9.795 -0.2552 -1.8741 -2.4594
   72SLPC   H4Y 6333   3.228   5.284   9.814 -0.8417 -0.3472 -0.9230
   72SLPC   C35 6334   3.195   5.104   9.686  0.2361 -0.8631  0.2592
   72SLPC   H5X 6335   3.087   5.129   9.695  0.7922  1.7826  0.3307
   72SLPC   H5Y 6336   3.211   4.995   9.705  0.0882 -0.5355  2.4345
   72SLPC   C36 6337   3.239   5.141   9.541 -0.3217  0.1292  0.6705
   72SLPC   H6X 6338   3.349   5.132   9.536 -0.3445 -0.4474  0.9930
   72SLPC   H6Y 6339   3.204   5.242   9.514  0.3578 -0.1619 -1.5001
   72SLPC   C37 6340   3.187   5.043   9.443 -0.2668  0.0575  0.1676
   72SLPC   H7X 6341   3.076   5.032   9.446 -0.1500 -1.8379 -0.8545
   72SLPC   H7Y 6342   3.226   4.949   9.486  0.7335  0.3948  0.0225
   72SLPC   C38 6343   3.241   5.050   9.302  0.1161 -0.1215 -0.6563
   72SLPC   H8X 6344   3.351   5.037   9.314  0.5493  2.2310 -1.3560
   72SLPC   H8Y 6345   3.234   5.155   9.265 -1.5919 -0.6529 -1.9877
   72SLPC   C39 6346   3.180   4.940   9.219  0.1696  0.2180 -0.0594
   72SLPC   H9X 6347   3.079   4.972   9.186  0.7851  2.1583 -0.1917
   72SLPC   H9Y 6348   3.165   4.854   9.289 -0.1221 -0.0340 -0.4318
   72SLPC  C310 6349   3.274   4.911   9.101 -0.0759  0.7132  0.4238
   72SLPC  H10X 6350   3.373   4.903   9.150 -1.4169 -0.0801  3.2111
   72SLPC  H10Y 6351   3.268   5.004   9.041 -0.9423  0.1507 -0.3910
   72SLPC  C311 6352   3.238   4.800   9.007  0.4178 -0.8525 -0.3798
   72SLPC  H11X 6353   3.131   4.801   8.977  0.4063 -4.5133 -0.8900
   72SLPC  H11Y 6354   3.251   4.703   9.060 -1.1041 -0.2107  1.2467
   72SLPC  C312 6355   3.323   4.796   8.876  0.1754 -0.2074  0.3019
   72SLPC  H12X 6356   3.426   4.810   8.913 -0.4192 -0.5624  2.2107
   72SLPC  H12Y 6357   3.289   4.882   8.814 -1.3137 -0.7464  0.3096
   72SLPC  C313 6358   3.310   4.660   8.801  0.4713 -0.6623 -0.1120
   72SLPC  H13X 6359   3.204   4.644   8.773 -0.2448  0.1093  1.9751
   72SLPC  H13Y 6360   3.327   4.587   8.883 -0.8534  0.0436  0.8223
   72SLPC  C314 6361   3.410   4.653   8.684 -0.1733 -0.1305 -0.0185
   72SLPC  H14X 6362   3.489   4.729   8.706 -1.1507  0.3554  2.0458
   72SLPC  H14Y 6363   3.360   4.673   8.587  1.4522 -0.3558 -0.9397
   72SLPC  C315 6364   3.459   4.509   8.658 -0.1128 -0.0643 -0.1990
   72SLPC  H15X 6365   3.495   4.466   8.754  3.4440  0.5824 -1.1025
   72SLPC  H15Y 6366   3.546   4.511   8.589  1.2690 -2.5999  1.3369
   72SLPC  C316 6367   3.338   4.423   8.611  0.3211 -0.3850 -0.4571
   72SLPC  H16X 6368   3.311   4.475   8.517 -0.3975 -3.2825 -1.9577
   72SLPC  H16Y 6369   3.247   4.412   8.674 -0.4856 -3.3833 -1.9776
   72SLPC  C317 6370   3.382   4.281   8.583 -0.0893 -0.0620  0.3409
   72SLPC  H17X 6371   3.398   4.232   8.681  0.1248 -1.6261 -0.4370
   72SLPC  H17Y 6372   3.481   4.289   8.533 -0.8357  0.6881 -1.0592
   72SLPC  C318 6373   3.285   4.194   8.508 -0.0206 -0.7086  0.2816
   72SLPC  H18X 6374   3.219   4.149   8.586  0.4147  1.4483  1.9781
   72SLPC  H18Y 6375   3.348   4.120   8.453 -1.1102 -2.4363  1.2655
   72SLPC  H18Z 6376   3.224   4.255   8.438  1.9094  1.2828  0.2308
   73SLPC     N 6377   3.179   3.237  11.185  0.0121 -0.0775 -0.3423
   73SLPC   C13 6378   3.166   3.340  11.303 -0.0386  0.2522 -0.3601
   73SLPC  H13A 6379   3.154   3.440  11.263  0.5976  0.5735  0.2234
   73SLPC  H13B 6380   3.074   3.317  11.355 -0.3597  0.3771 -0.8654
   73SLPC  H13C 6381   3.256   3.332  11.363 -1.5620  1.7019  2.2995
   73SLPC   C14 6382   3.039   3.232  11.128  0.3829  0.2847  0.0268
   73SLPC  H14A 6383   3.027   3.140  11.072  1.0419 -1.3146  2.3294
   73SLPC  H14B 6384   2.966   3.217  11.207  0.6091 -0.2401  0.1431
   73SLPC  H14C 6385   3.020   3.317  11.065  3.0356  0.0650 -1.1852
   73SLPC   C15 6386   3.211   3.098  11.237  0.2221  0.1606  0.5030
   73SLPC  H15A 6387   3.237   3.036  11.152  0.4754  0.1740  0.5704
   73SLPC  H15B 6388   3.298   3.111  11.300  0.1887  3.6658  0.0183
   73SLPC  H15C 6389   3.130   3.062  11.298  1.6644 -0.0172  2.4128
   73SLPC   C12 6390   3.269   3.293  11.081  0.0908 -0.0774 -0.0383
   73SLPC  H12A 6391   3.366   3.314  11.123 -0.1368  0.6856  0.1057
   73SLPC  H12B 6392   3.236   3.386  11.037 -1.3084 -1.3781 -1.9212
   73SLPC   C11 6393   3.306   3.205  10.957 -0.4098 -0.1674 -0.2220
   73SLPC  H11A 6394   3.374   3.263  10.891 -1.7310 -0.1990 -1.6760
   73SLPC  H11B 6395   3.218   3.192  10.890 -0.4713 -1.5380  0.0872
   73SLPC     P 6396   3.515   3.055  10.991 -0.1673 -0.0512  0.3139
   73SLPC   O13 6397   3.585   3.172  11.050 -0.4848  0.4681  0.0673
   73SLPC   O14 6398   3.549   2.916  11.042  0.5383  0.1853  0.0605
   73SLPC   O12 6399   3.358   3.077  10.995 -0.5298 -0.3372 -0.0897
   73SLPC   O11 6400   3.548   3.052  10.835 -0.2838 -0.2725 -0.8829
   73SLPC    C1 6401   3.556   2.929  10.763  0.3894  0.2421  0.1171
   73SLPC    HA 6402   3.643   2.872  10.802  1.2907  2.3696  1.4296
   73SLPC    HB 6403   3.472   2.858  10.777  0.5413  0.0378  0.0139
   73SLPC    C2 6404   3.568   2.943  10.607 -0.1254 -0.2598 -0.0232
   73SLPC    HS 6405   3.672   2.977  10.586  0.9499 -1.8434  2.3323
   73SLPC   O21 6406   3.467   3.036  10.565  0.0777 -0.6337  0.6779
   73SLPC   C21 6407   3.484   3.099  10.437 -0.5960  0.2376 -1.0965
   73SLPC   O22 6408   3.592   3.121  10.390 -0.3095 -0.0339  0.4709
   73SLPC   C22 6409   3.357   3.138  10.384 -0.0178 -0.2222 -0.0083
   73SLPC   H2R 6410   3.277   3.078  10.432  0.9056  0.6746  2.9310
   73SLPC   H2S 6411   3.328   3.242  10.411 -0.0655 -0.1035 -0.5142
   73SLPC    C3 6412   3.553   2.810  10.541  0.1767 -0.3253 -1.4344
   73SLPC    HX 6413   3.446   2.788  10.562 -0.5892  1.7071 -2.9301
   73SLPC    HY 6414   3.624   2.736  10.584  1.4861  0.3288 -2.4133
   73SLPC   O31 6415   3.576   2.823  10.404  0.2184 -0.1483  0.6701
   73SLPC   C31 6416   3.701   2.798  10.361 -0.3779  0.3695 -0.2208
   73SLPC   O32 6417   3.793   2.762  10.428  0.2249 -0.3010  0.3837
   73SLPC   C32 6418   3.710   2.833  10.209  0.2170  0.6052  0.5590
   73SLPC   H2X 6419   3.814   2.808  10.178  0.6838 -1.1022  3.1677
   73SLPC   H2Y 6420   3.705   2.943  10.194  0.1201  0.5783  0.3976
   73SLPC   C23 6421   3.362   3.122  10.224 -0.3479 -0.7711  0.2438
   73SLPC   H3R 6422   3.258   3.118  10.184 -1.9190  2.4426  3.4222
   73SLPC   H3S 6423   3.412   3.028  10.190  0.5256  0.3356 -1.7329
   73SLPC   C24 6424   3.431   3.243  10.154  0.2413  0.6495  0.1975
   73SLPC   H4R 6425   3.520   3.259  10.219  0.6920 -0.4614 -0.1223
   73SLPC   H4S 6426   3.367   3.332  10.169 -2.3889 -1.1840  0.6156
   73SLPC   C25 6427   3.480   3.200  10.015  0.1233  0.8027 -0.4275
   73SLPC   H5R 6428   3.542   3.108  10.020 -1.3011 -0.1434  0.2081
   73SLPC   H5S 6429   3.524   3.289   9.965 -0.4786  1.9377  0.9936
   73SLPC   C26 6430   3.360   3.166   9.924  0.2888 -0.1565  0.7786
   73SLPC   H6R 6431   3.285   3.247   9.909  1.0074  0.3464 -0.1952
   73SLPC   H6S 6432   3.318   3.074   9.970  0.7977  0.2750  2.1272
   73SLPC   C27 6433   3.398   3.132   9.775  0.2786  0.8087  0.6005
   73SLPC   H7R 6434   3.471   3.048   9.776 -0.0342  0.5184 -0.1613
   73SLPC   H7S 6435   3.444   3.222   9.728  2.1504  0.5626  1.8427
   73SLPC   C28 6436   3.286   3.064   9.695 -0.5567 -0.2286  0.7341
   73SLPC   H8R 6437   3.209   3.025   9.766  0.8478 -4.2554  0.3325
   73SLPC   H8S 6438   3.327   2.972   9.647  1.5919  0.6655  0.7478
   73SLPC   C29 6439   3.218   3.158   9.596 -0.4992 -0.0855  0.4703
   73SLPC   H9R 6440   3.137   3.220   9.637 -1.0868  0.7983 -1.8654
   73SLPC  C210 6441   3.251   3.172   9.471 -0.8389  0.6613  0.4786
   73SLPC  H10R 6442   3.193   3.240   9.408 -0.0084  1.1836  0.2499
   73SLPC  C211 6443   3.361   3.106   9.394 -0.4031  0.1013 -0.1574
   73SLPC  H11R 6444   3.421   3.036   9.456 -0.4842  0.7951  0.7225
   73SLPC  H11S 6445   3.415   3.198   9.360 -0.2900  0.4514  0.9404
   73SLPC  C212 6446   3.301   3.019   9.288 -0.4830  0.6539 -0.1832
   73SLPC  H12R 6447   3.237   2.938   9.325  0.0588 -0.1787 -1.0338
   73SLPC  C213 6448   3.327   3.034   9.153 -0.7761 -0.3188 -0.6588
   73SLPC  H13R 6449   3.279   2.965   9.081 -1.0331 -0.0431 -0.7510
   73SLPC  C214 6450   3.419   3.138   9.090  0.1803 -0.3496 -0.1127
   73SLPC  H14R 6451   3.511   3.175   9.141  0.1788 -0.7074  0.1582
   73SLPC  H14S 6452   3.359   3.230   9.074  0.2611 -0.4739 -1.1619
   73SLPC  C215 6453   3.459   3.087   8.948  0.0275 -0.6007  0.0552
   73SLPC  H15R 6454   3.503   2.985   8.954 -1.3725 -1.1705  1.3130
   73SLPC  H15S 6455   3.532   3.165   8.920 -0.2514  0.5075  2.2472
   73SLPC  C216 6456   3.349   3.097   8.843  0.0474 -0.7529  0.6361
   73SLPC  H16R 6457   3.327   3.205   8.831 -0.8071 -0.9620  0.2515
   73SLPC  H16S 6458   3.251   3.056   8.877 -1.6076  2.4062  0.0466
   73SLPC  C217 6459   3.387   3.056   8.705 -0.0678  0.7834 -0.3330
   73SLPC  H17R 6460   3.388   2.945   8.698  0.8250  0.7829 -0.3580
   73SLPC  H17S 6461   3.489   3.086   8.672 -0.0760  0.0121 -1.0894
   73SLPC  C218 6462   3.297   3.123   8.604  0.2239  0.0263  0.5447
   73SLPC  H18R 6463   3.191   3.101   8.626 -0.0144  1.5825  1.0302
   73SLPC  H18S 6464   3.316   3.084   8.501 -0.3462 -0.7059  0.7087
   73SLPC  H18T 6465   3.319   3.232   8.603 -0.5345  0.2306 -2.2208
   73SLPC   C33 6466   3.616   2.757  10.104 -0.0501  0.2712 -0.0355
   73SLPC   H3X 6467   3.510   2.767  10.135  0.2171 -1.5930  1.6945
   73SLPC   H3Y 6468   3.647   2.651  10.116 -0.0944  0.4307  1.7731
   73SLPC   C34 6469   3.632   2.808   9.959  0.2614 -0.6381 -0.4306
   73SLPC   H4X 6470   3.737   2.837   9.938 -0.2924  1.0425 -1.0507
   73SLPC   H4Y 6471   3.567   2.894   9.932  0.6765 -0.7852 -1.9576
   73SLPC   C35 6472   3.578   2.694   9.868 -0.3520 -0.5542 -0.4201
   73SLPC   H5X 6473   3.490   2.653   9.923 -1.6913 -1.3260 -2.9712
   73SLPC   H5Y 6474   3.655   2.615   9.859  0.9626  0.8197 -1.8700
   73SLPC   C36 6475   3.533   2.737   9.729 -0.8591 -0.5400 -0.3230
   73SLPC   H6X 6476   3.480   2.830   9.760 -1.8774 -1.0903 -0.3855
   73SLPC   H6Y 6477   3.466   2.664   9.679 -0.3861 -0.5374 -0.9744
   73SLPC   C37 6478   3.655   2.759   9.635 -0.4697  0.0418 -0.0408
   73SLPC   H7X 6479   3.696   2.661   9.599 -2.4990  0.1395 -2.9798
   73SLPC   H7Y 6480   3.737   2.808   9.692  1.3278 -1.9672 -0.7155
   73SLPC   C38 6481   3.628   2.845   9.508 -0.2121  0.0514 -0.4641
   73SLPC   H8X 6482   3.642   2.949   9.544  2.1375 -0.8175  1.4311
   73SLPC   H8Y 6483   3.525   2.830   9.470 -1.4486  2.7180  1.5029
   73SLPC   C39 6484   3.718   2.814   9.398 -0.0759  0.7144 -0.1590
   73SLPC   H9X 6485   3.688   2.714   9.361  0.3772 -0.2107  1.8436
   73SLPC   H9Y 6486   3.823   2.811   9.435  0.5602  1.5613 -1.7389
   73SLPC  C310 6487   3.709   2.926   9.299 -0.6901  0.1921  0.5814
   73SLPC  H10X 6488   3.743   3.012   9.361  1.2714 -0.9112  1.1385
   73SLPC  H10Y 6489   3.604   2.943   9.270 -0.1221 -1.9540 -3.5628
   73SLPC  C311 6490   3.788   2.912   9.174 -0.2874  0.0599 -0.1331
   73SLPC  H11X 6491   3.736   2.839   9.107  1.2449  0.0255 -1.3347
   73SLPC  H11Y 6492   3.889   2.871   9.198  0.5906  0.2487 -3.0983
   73SLPC  C312 6493   3.816   3.038   9.079 -0.0638  0.2483 -0.1389
   73SLPC  H12X 6494   3.879   3.108   9.139  2.4391 -1.2978 -0.8213
   73SLPC  H12Y 6495   3.730   3.101   9.047 -0.6068  0.6916  2.0229
   73SLPC  C313 6496   3.902   3.000   8.966 -0.0504 -0.0593 -0.0530
   73SLPC  H13X 6497   3.838   2.930   8.907 -0.7991 -1.0217  1.7951
   73SLPC  H13Y 6498   3.984   2.940   9.012 -0.0059 -1.1377 -1.4774
   73SLPC  C314 6499   3.958   3.126   8.898 -0.7471 -0.7322  1.2046
   73SLPC  H14X 6500   4.013   3.179   8.979 -0.0779  1.3058 -0.4782
   73SLPC  H14Y 6501   3.869   3.177   8.854 -0.3166  1.6979  2.9719
   73SLPC  C315 6502   4.058   3.086   8.785 -0.1369 -0.2732  0.1067
   73SLPC  H15X 6503   3.992   3.067   8.698 -0.7409 -2.0033  0.9004
   73SLPC  H15Y 6504   4.134   3.015   8.824  2.2127  0.6211 -2.4658
   73SLPC  C316 6505   4.145   3.207   8.749 -0.1194 -0.7474  0.5530
   73SLPC  H16X 6506   4.193   3.251   8.839  1.2117  0.5153 -0.7025
   73SLPC  H16Y 6507   4.079   3.279   8.697 -0.8104  0.4729  2.9713
   73SLPC  C317 6508   4.258   3.178   8.650  0.4213 -0.8105 -0.2906
   73SLPC  H17X 6509   4.298   3.275   8.612 -0.1092  0.7945  2.9056
   73SLPC  H17Y 6510   4.219   3.125   8.560 -0.9019  2.0364 -1.5423
   73SLPC  C318 6511   4.386   3.106   8.705 -0.2177 -0.1531  1.2258
   73SLPC  H18X 6512   4.414   3.153   8.802 -0.6595  0.1209  1.2275
   73SLPC  H18Y 6513   4.465   3.113   8.628 -0.1458  0.9338  1.3807
   73SLPC  H18Z 6514   4.367   2.999   8.726  1.0056 -0.5849  0.2028
   74SLPC     N 6515   5.063   3.599  10.556 -0.5511 -0.6735  0.0046
   74SLPC   C13 6516   5.206   3.560  10.593 -0.2794  0.2449 -0.1795
   74SLPC  H13A 6517   5.215   3.453  10.601  1.6670  0.4584  1.5372
   74SLPC  H13B 6518   5.285   3.593  10.527  0.0022  1.0402  0.5361
   74SLPC  H13C 6519   5.233   3.588  10.694 -0.0871  0.3342 -0.2547
   74SLPC   C14 6520   4.969   3.543  10.662 -0.7678 -0.0520 -0.6665
   74SLPC  H14A 6521   4.989   3.437  10.658  0.6532  0.1099  1.0904
   74SLPC  H14B 6522   4.998   3.586  10.756 -2.4466 -0.4538  0.0701
   74SLPC  H14C 6523   4.865   3.569  10.649 -1.5627 -1.4271  2.1615
   74SLPC   C15 6524   5.015   3.544  10.423 -1.1613  1.0476  0.1943
   74SLPC  H15A 6525   5.077   3.588  10.346 -0.3297 -0.1162  0.1790
   74SLPC  H15B 6526   5.039   3.439  10.423  1.9862  1.6834 -0.0696
   74SLPC  H15C 6527   4.912   3.560  10.394 -1.1800  2.3582  0.8816
   74SLPC   C12 6528   5.048   3.753  10.551 -0.1953 -0.3490 -0.4538
   74SLPC  H12A 6529   5.120   3.793  10.481 -1.0312 -1.2807 -1.8917
   74SLPC  H12B 6530   5.087   3.795  10.643 -1.8675  0.4112 -0.0521
   74SLPC   C11 6531   4.906   3.812  10.522 -0.0172  0.3744  0.0614
   74SLPC  H11A 6532   4.912   3.923  10.534  2.2575  0.4983 -1.4973
   74SLPC  H11B 6533   4.843   3.778  10.607 -1.3919  0.5489 -0.8629
   74SLPC     P 6534   4.828   3.857  10.280  0.0562 -0.2772 -0.0401
   74SLPC   O13 6535   4.734   3.963  10.325 -0.3691  0.6191  0.1341
   74SLPC   O14 6536   4.956   3.904  10.220  0.2467 -0.7107  0.0708
   74SLPC   O12 6537   4.842   3.764  10.405 -0.4055  0.3468 -0.7537
   74SLPC   O11 6538   4.761   3.755  10.183 -0.8353  0.4203 -0.0689
   74SLPC    C1 6539   4.811   3.729  10.055  0.5351  0.6852 -0.2226
   74SLPC    HA 6540   4.869   3.818  10.022  1.0330  1.1570  1.7873
   74SLPC    HB 6541   4.883   3.645  10.061 -1.3573 -1.0243 -0.2785
   74SLPC    C2 6542   4.692   3.717   9.951  0.3926  0.4766  0.7819
   74SLPC    HS 6543   4.641   3.815   9.938  2.9248  1.7283 -0.3965
   74SLPC   O21 6544   4.602   3.605   9.986 -0.3167 -0.5435  0.0910
   74SLPC   C21 6545   4.495   3.639  10.057  0.5960  0.5481 -0.1125
   74SLPC   O22 6546   4.468   3.749  10.098 -0.6193 -0.0606  0.5085
   74SLPC   C22 6547   4.406   3.512  10.082  0.0291  0.0855 -0.0962
   74SLPC   H2R 6548   4.475   3.426  10.065  1.6045  1.4342 -0.9337
   74SLPC   H2S 6549   4.383   3.536  10.188 -0.4105 -2.1004  0.3409
   74SLPC    C3 6550   4.745   3.676   9.812  0.3613 -0.5878  0.1732
   74SLPC    HX 6551   4.660   3.651   9.745  1.3268 -1.6793 -0.6913
   74SLPC    HY 6552   4.802   3.581   9.828 -0.1860 -1.2256 -1.5000
   74SLPC   O31 6553   4.848   3.767   9.755 -0.2931  0.5347  0.3336
   74SLPC   C31 6554   4.829   3.822   9.641  0.5186 -0.6233  0.4867
   74SLPC   O32 6555   4.723   3.830   9.582  0.1452 -0.7367  0.0372
   74SLPC   C32 6556   4.964   3.864   9.582 -0.3564  0.4144  0.0104
   74SLPC   H2X 6557   5.026   3.772   9.592 -0.3381  0.3429 -0.7139
   74SLPC   H2Y 6558   5.009   3.945   9.644  0.6052 -0.4278  0.4498
   74SLPC   C23 6559   4.284   3.507   9.984  0.3300 -0.4804 -0.0186
   74SLPC   H3R 6560   4.254   3.603   9.937  0.9141 -0.0753  0.4208
   74SLPC   H3S 6561   4.199   3.472  10.047 -0.6747  2.4919  0.4268
   74SLPC   C24 6562   4.293   3.393   9.872  0.0782 -0.4821 -0.2415
   74SLPC   H4R 6563   4.194   3.356   9.836 -0.4950  1.0197 -0.2975
   74SLPC   H4S 6564   4.334   3.299   9.915 -1.3390 -1.4694 -0.9559
   74SLPC   C25 6565   4.374   3.407   9.744 -0.1776 -0.5711  0.5051
   74SLPC   H5R 6566   4.406   3.308   9.704  1.5574  0.4239 -0.6577
   74SLPC   H5S 6567   4.466   3.463   9.770 -0.3825 -0.1609  0.3567
   74SLPC   C26 6568   4.292   3.493   9.642 -0.0426 -0.4707  0.0145
   74SLPC   H6R 6569   4.293   3.600   9.673  0.9593 -0.8739  1.5051
   74SLPC   H6S 6570   4.189   3.451   9.645 -0.1315 -0.4966 -2.2280
   74SLPC   C27 6571   4.330   3.484   9.496 -0.2196 -0.1610  0.4580
   74SLPC   H7R 6572   4.256   3.532   9.429  0.6103 -1.2666 -1.3233
   74SLPC   H7S 6573   4.333   3.375   9.477  0.2209 -0.6366  2.9256
   74SLPC   C28 6574   4.480   3.532   9.472 -0.4466 -0.9344 -0.2954
   74SLPC   H8R 6575   4.521   3.460   9.397  1.5610 -0.0191 -0.1562
   74SLPC   H8S 6576   4.532   3.523   9.570  0.2553  0.1539 -0.5477
   74SLPC   C29 6577   4.484   3.675   9.416  0.7366  0.6297  0.1800
   74SLPC   H9R 6578   4.488   3.757   9.489 -0.4215  1.9489 -1.1627
   74SLPC  C210 6579   4.491   3.712   9.287 -0.6124 -0.4308  0.2946
   74SLPC  H10R 6580   4.506   3.820   9.270 -0.4456 -0.1877  1.8496
   74SLPC  C211 6581   4.495   3.619   9.168  0.2362  0.8204  1.0142
   74SLPC  H11R 6582   4.427   3.657   9.089  0.2408 -2.4437 -0.7166
   74SLPC  H11S 6583   4.459   3.516   9.190  0.3114  0.4066 -0.6984
   74SLPC  C212 6584   4.637   3.611   9.116  0.2478 -0.4728  0.0046
   74SLPC  H12R 6585   4.727   3.631   9.176  0.4715  0.3565 -0.5901
   74SLPC  C213 6586   4.664   3.592   8.983  1.6834  0.2139 -0.2251
   74SLPC  H13R 6587   4.769   3.578   8.952  1.6321 -0.6105 -0.0567
   74SLPC  C214 6588   4.568   3.568   8.864  0.1163  0.2479 -1.2720
   74SLPC  H14R 6589   4.489   3.642   8.887  0.4354 -0.0600  1.0493
   74SLPC  H14S 6590   4.522   3.467   8.875 -0.1070  0.3847 -0.9446
   74SLPC  C215 6591   4.628   3.597   8.729 -0.2101 -0.0293  0.2094
   74SLPC  H15R 6592   4.671   3.699   8.726  1.3627 -0.6652  0.2465
   74SLPC  H15S 6593   4.538   3.602   8.665 -0.6110  2.1482  0.8477
   74SLPC  C216 6594   4.723   3.497   8.671 -0.4565 -0.4581 -0.1916
   74SLPC  H16R 6595   4.692   3.393   8.694 -0.0439 -1.3196 -3.1259
   74SLPC  H16S 6596   4.820   3.501   8.725 -2.1941  0.4054  3.2074
   74SLPC  C217 6597   4.743   3.507   8.521 -0.0663  0.3625  0.8553
   74SLPC  H17R 6598   4.647   3.495   8.466 -1.0529  0.8866  2.3859
   74SLPC  H17S 6599   4.813   3.424   8.495 -1.6255 -0.2352 -1.7703
   74SLPC  C218 6600   4.809   3.633   8.468 -0.8057  0.4266  0.3694
   74SLPC  H18R 6601   4.913   3.652   8.501 -0.6750  0.5396 -0.0919
   74SLPC  H18S 6602   4.746   3.721   8.493 -0.2053  0.5758  1.3878
   74SLPC  H18T 6603   4.800   3.620   8.358 -2.0490 -0.6498  0.5713
   74SLPC   C33 6604   4.962   3.905   9.432  0.2246 -0.2084 -0.3196
   74SLPC   H3X 6605   5.067   3.935   9.413 -0.1115 -0.4656 -3.0061
   74SLPC   H3Y 6606   4.890   3.989   9.422  0.4474  0.1521  0.9162
   74SLPC   C34 6607   4.933   3.790   9.337 -0.4301  0.7260 -0.1682
   74SLPC   H4X 6608   4.843   3.734   9.369  1.6913 -3.0197 -0.1777
   74SLPC   H4Y 6609   5.021   3.722   9.342  0.5658  1.6205 -3.0352
   74SLPC   C35 6610   4.920   3.831   9.189 -0.1165  0.3963 -0.5567
   74SLPC   H5X 6611   4.822   3.876   9.160  0.4730  2.2373  0.2082
   74SLPC   H5Y 6612   4.916   3.733   9.135 -0.5205  1.3291 -2.2885
   74SLPC   C36 6613   5.034   3.925   9.135 -0.3690  0.2974  0.1075
   74SLPC   H6X 6614   5.132   3.891   9.176 -1.2742 -1.1630  1.1929
   74SLPC   H6Y 6615   5.014   4.028   9.172 -0.5124  1.0772 -2.0283
   74SLPC   C37 6616   5.018   3.938   8.983 -0.8749  0.3384 -0.0363
   74SLPC   H7X 6617   5.008   3.837   8.937 -0.8501  0.8920 -1.2781
   74SLPC   H7Y 6618   5.110   3.978   8.935  0.7782 -2.3216  0.6356
   74SLPC   C38 6619   4.898   4.024   8.931 -0.0348 -0.1106 -0.1678
   74SLPC   H8X 6620   4.906   4.127   8.971  0.3966 -0.2385  0.0938
   74SLPC   H8Y 6621   4.805   3.987   8.979  1.5217 -0.5524  2.7953
   74SLPC   C39 6622   4.881   4.028   8.780 -0.5971  0.8298  0.0835
   74SLPC   H9X 6623   4.826   3.937   8.748 -0.7147  1.2466 -0.9642
   74SLPC   H9Y 6624   4.981   4.023   8.731 -0.2498 -0.8980  0.8984
   74SLPC  C310 6625   4.814   4.158   8.730  0.1434  0.4008 -0.0289
   74SLPC  H10X 6626   4.880   4.246   8.743  1.7105 -1.0785  3.1201
   74SLPC  H10Y 6627   4.731   4.179   8.801  0.1871  2.0884 -0.4430
   74SLPC  C311 6628   4.767   4.140   8.582 -0.8308  0.0005 -0.3997
   74SLPC  H11X 6629   4.708   4.046   8.569  0.9811 -1.1678 -0.4997
   74SLPC  H11Y 6630   4.849   4.154   8.509  0.0746  0.1320  0.6159
   74SLPC  C312 6631   4.655   4.250   8.555  0.7752  0.2283  0.3953
   74SLPC  H12X 6632   4.694   4.350   8.584 -1.5816  1.4091 -0.2404
   74SLPC  H12Y 6633   4.569   4.235   8.623  0.0408  0.2778 -0.5072
   74SLPC  C313 6634   4.617   4.245   8.407  0.0464 -0.6438 -0.0518
   74SLPC  H13X 6635   4.527   4.310   8.397  1.6822  1.8709  0.6437
   74SLPC  H13Y 6636   4.596   4.141   8.375  0.9503 -0.6523 -0.6492
   74SLPC  C314 6637   4.726   4.294   8.316 -0.1300  0.0736 -0.3077
   74SLPC  H14X 6638   4.693   4.262   8.215 -0.4178 -0.5930 -0.0078
   74SLPC  H14Y 6639   4.826   4.254   8.342  0.9994  1.3215 -2.4476
   74SLPC  C315 6640   4.724   4.451   8.320  1.0736 -0.1057 -0.5308
   74SLPC  H15X 6641   4.727   4.485   8.425 -0.5348  1.4288 -0.9367
   74SLPC  H15Y 6642   4.628   4.480   8.272  0.6587 -1.8301 -0.7980
   74SLPC  C316 6643   4.823   4.524   8.236 -0.2273 -0.1369 -0.0825
   74SLPC  H16X 6644   4.782   4.609   8.177 -0.3339 -0.7965 -0.9690
   74SLPC  H16Y 6645   4.867   4.454   8.162  0.1981  0.2955 -0.2469
   74SLPC  C317 6646   4.936   4.581   8.328  0.7635 -0.9347 -0.2960
   74SLPC  H17X 6647   4.891   4.656   8.397 -0.5805 -2.9438  1.1181
   74SLPC  H17Y 6648   5.012   4.637   8.270 -0.0297  1.6560  1.0333
   74SLPC  C318 6649   5.013   4.470   8.403 -0.2039  0.6980 -0.6864
   74SLPC  H18X 6650   5.044   4.386   8.338  1.0923  0.8747 -0.3394
   74SLPC  H18Y 6651   4.947   4.415   8.473  0.1522  0.0490 -0.8510
   74SLPC  H18Z 6652   5.093   4.513   8.467  0.1224 -0.0288 -0.6006
   75SLPC     N 6653   6.365   6.292   6.403  0.7036 -0.4074 -0.0966
   75SLPC   C13 6654   6.269   6.311   6.285  0.6853  0.0601  0.4355
   75SLPC  H13A 6655   6.264   6.417   6.261  2.3988  1.4143  4.9548
   75SLPC  H13B 6656   6.299   6.250   6.202 -1.3060 -0.3452 -0.0137
   75SLPC  H13C 6657   6.173   6.268   6.307  1.1633 -0.7737  0.9356
   75SLPC   C14 6658   6.364   6.148   6.451 -0.0607 -0.1080  0.6695
   75SLPC  H14A 6659   6.409   6.145   6.549  0.9330  3.9150  0.5413
   75SLPC  H14B 6660   6.262   6.114   6.454  0.1377 -0.8544 -0.5721
   75SLPC  H14C 6661   6.424   6.081   6.391 -0.5890  0.8047 -0.9570
   75SLPC   C15 6662   6.317   6.384   6.514  0.4726  0.7843 -0.3271
   75SLPC  H15A 6663   6.314   6.485   6.478 -0.2505  1.1244  0.6487
   75SLPC  H15B 6664   6.228   6.347   6.563 -0.8109  0.5957 -2.6534
   75SLPC  H15C 6665   6.395   6.386   6.588  0.8128  1.0666 -0.6858
   75SLPC   C12 6666   6.503   6.344   6.350  0.0140 -0.3290 -0.2924
   75SLPC  H12A 6667   6.492   6.445   6.314  4.7020 -0.4670 -3.0075
   75SLPC  H12B 6668   6.533   6.286   6.263  1.7685  0.9928 -0.6244
   75SLPC   C11 6669   6.626   6.345   6.444  0.1864  0.1503  0.3249
   75SLPC  H11A 6670   6.723   6.364   6.392 -0.3739  1.4051 -0.2913
   75SLPC  H11B 6671   6.637   6.236   6.462 -1.2081  0.0445  0.6292
   75SLPC     P 6672   6.652   6.568   6.546 -0.5887  0.0628  0.2161
   75SLPC   O13 6673   6.796   6.583   6.565 -0.4387 -0.1160 -0.5884
   75SLPC   O14 6674   6.594   6.620   6.422 -0.2988  0.6087  0.4401
   75SLPC   O12 6675   6.613   6.414   6.567  0.3986 -0.0129  1.1723
   75SLPC   O11 6676   6.576   6.636   6.666 -0.2315 -0.3749  0.0996
   75SLPC    C1 6677   6.579   6.582   6.803  0.3838 -0.2839  0.0346
   75SLPC    HA 6678   6.635   6.486   6.805 -0.7431 -1.0008 -1.1408
   75SLPC    HB 6679   6.621   6.659   6.871 -1.3426  1.4284 -0.7385
   75SLPC    C2 6680   6.437   6.545   6.864  0.0910  0.0337 -0.2840
   75SLPC    HS 6681   6.398   6.459   6.804 -1.2851  0.4306  0.0145
   75SLPC   O21 6682   6.352   6.657   6.852  0.9800  0.0261  0.2466
   75SLPC   C21 6683   6.219   6.630   6.865  0.8309 -0.1442  0.4707
   75SLPC   O22 6684   6.170   6.518   6.872 -0.0121 -0.6184 -0.1431
   75SLPC   C22 6685   6.136   6.761   6.874  0.4108 -0.3286  0.0560
   75SLPC   H2R 6686   6.170   6.837   6.801 -0.4947  0.9974  0.9650
   75SLPC   H2S 6687   6.034   6.734   6.840  0.2746  1.8269 -1.5100
   75SLPC    C3 6688   6.440   6.502   7.018 -0.7893  1.1060  0.2272
   75SLPC    HX 6689   6.334   6.477   7.040 -0.8061 -0.8222 -1.7199
   75SLPC    HY 6690   6.469   6.592   7.077  2.7377  1.0263 -1.1644
   75SLPC   O31 6691   6.537   6.396   7.038  0.3119  0.2033  0.3245
   75SLPC   C31 6692   6.483   6.274   7.037  0.0109  0.1321  0.2576
   75SLPC   O32 6693   6.365   6.258   7.015  0.8480  0.6600  0.1201
   75SLPC   C32 6694   6.590   6.168   7.060  0.9184 -0.0530 -0.1587
   75SLPC   H2X 6695   6.678   6.188   6.996  1.8002 -1.3831  0.5936
   75SLPC   H2Y 6696   6.553   6.065   7.046  0.9119 -0.4263  2.2370
   75SLPC   C23 6697   6.153   6.833   7.011 -0.6867  0.3761 -0.2909
   75SLPC   H3R 6698   6.123   6.940   7.004  1.3067  1.1772  1.9632
   75SLPC   H3S 6699   6.263   6.838   7.027 -0.3409  0.2449 -2.2667
   75SLPC   C24 6700   6.069   6.761   7.116 -0.4019 -0.4239  0.2229
   75SLPC   H4R 6701   6.092   6.652   7.106 -0.2164 -0.4433  0.8192
   75SLPC   H4S 6702   5.965   6.785   7.088  0.5568  1.0913 -2.3513
   75SLPC   C25 6703   6.089   6.812   7.259  0.1405  0.2866  0.0856
   75SLPC   H5R 6704   6.018   6.765   7.331  0.7917 -1.0430 -0.1004
   75SLPC   H5S 6705   6.082   6.923   7.255 -0.2278  0.2912  0.6969
   75SLPC   C26 6706   6.216   6.765   7.318 -0.3211  0.2398 -0.3512
   75SLPC   H6R 6707   6.254   6.831   7.399  0.1749 -0.1307 -0.2726
   75SLPC   H6S 6708   6.294   6.754   7.239 -0.0704  1.5692 -0.3152
   75SLPC   C27 6709   6.215   6.619   7.378  0.4567 -0.1820 -0.0024
   75SLPC   H7R 6710   6.179   6.539   7.310 -1.3140 -0.7209  1.4902
   75SLPC   H7S 6711   6.134   6.606   7.453  0.8191 -0.3067  0.3695
   75SLPC   C28 6712   6.355   6.570   7.428  0.1693 -0.3081 -0.1950
   75SLPC   H8R 6713   6.387   6.654   7.493  0.7432 -0.5493 -0.1531
   75SLPC   H8S 6714   6.417   6.554   7.337 -0.7041  0.1653 -0.8817
   75SLPC   C29 6715   6.343   6.435   7.506 -0.1917  0.0289  0.9923
   75SLPC   H9R 6716   6.359   6.339   7.455 -0.1799  0.8469 -0.5978
   75SLPC  C210 6717   6.309   6.432   7.637  0.3122 -0.4805 -0.2841
   75SLPC  H10R 6718   6.305   6.334   7.688  0.9523  0.0382  0.7883
   75SLPC  C211 6719   6.279   6.561   7.718  0.5334  0.8840 -0.4986
   75SLPC  H11R 6720   6.242   6.645   7.656 -0.1099 -0.3059 -1.7741
   75SLPC  H11S 6721   6.377   6.588   7.763  0.6491 -1.6079  0.8979
   75SLPC  C212 6722   6.186   6.535   7.832  0.5984 -0.5750  0.3761
   75SLPC  H12R 6723   6.099   6.472   7.809  0.7473  0.0461 -2.1422
   75SLPC  C213 6724   6.202   6.565   7.961  0.5901 -0.7060  0.4936
   75SLPC  H13R 6725   6.118   6.560   8.031 -0.1619 -2.0080 -0.4424
   75SLPC  C214 6726   6.320   6.646   8.009  0.1878  0.5425 -0.7053
   75SLPC  H14R 6727   6.313   6.755   7.990  1.1077  0.3988 -1.9793
   75SLPC  H14S 6728   6.415   6.606   7.968  1.1834  0.3983  1.5998
   75SLPC  C215 6729   6.321   6.635   8.164 -0.1776 -0.2043 -0.4036
   75SLPC  H15R 6730   6.354   6.534   8.197  0.4842 -0.1650 -0.9279
   75SLPC  H15S 6731   6.219   6.657   8.202  0.6559 -0.0959  1.8873
   75SLPC  C216 6732   6.421   6.742   8.219 -0.1859 -0.5676 -0.0045
   75SLPC  H16R 6733   6.403   6.841   8.172 -2.5325 -1.5829 -1.4604
   75SLPC  H16S 6734   6.526   6.708   8.211  0.2905 -0.1981  3.3579
   75SLPC  C217 6735   6.405   6.768   8.371  0.2447 -0.7487 -0.5037
   75SLPC  H17R 6736   6.392   6.672   8.426 -0.8589 -0.4637 -0.2407
   75SLPC  H17S 6737   6.322   6.839   8.391  0.3417 -0.3584 -1.4318
   75SLPC  C218 6738   6.534   6.845   8.428  0.6464  0.0242 -0.6192
   75SLPC  H18R 6739   6.503   6.883   8.528 -1.6100 -0.3178 -1.1338
   75SLPC  H18S 6740   6.543   6.929   8.356 -2.9209 -0.1230 -1.3889
   75SLPC  H18T 6741   6.620   6.774   8.433 -0.8647 -1.8201  0.9150
   75SLPC   C33 6742   6.653   6.187   7.199  0.0092  0.1600 -0.0943
   75SLPC   H3X 6743   6.758   6.149   7.202  0.8513  2.2311 -1.3366
   75SLPC   H3Y 6744   6.654   6.292   7.236  0.4479 -0.5826  2.1511
   75SLPC   C34 6745   6.575   6.107   7.299 -0.7067 -0.3570 -0.9553
   75SLPC   H4X 6746   6.582   5.998   7.279  1.0366 -0.8554  1.9301
   75SLPC   H4Y 6747   6.470   6.144   7.304 -0.1763  1.1143 -0.1007
   75SLPC   C35 6748   6.639   6.111   7.442  0.6088  0.3962  0.3099
   75SLPC   H5X 6749   6.632   6.212   7.486  1.6256  0.8240 -0.4714
   75SLPC   H5Y 6750   6.747   6.087   7.433  0.6588  1.0272 -0.9998
   75SLPC   C36 6751   6.572   6.004   7.531  0.2117  0.4125 -0.4007
   75SLPC   H6X 6752   6.603   5.904   7.494 -1.3392 -0.0966 -0.4237
   75SLPC   H6Y 6753   6.462   6.013   7.521 -0.1347 -2.2964  0.1226
   75SLPC   C37 6754   6.601   6.010   7.682  0.2724 -0.2824 -0.1523
   75SLPC   H7X 6755   6.705   5.975   7.697  0.1036 -0.2667  1.2258
   75SLPC   H7Y 6756   6.539   5.931   7.730  1.2295 -1.6399 -1.0715
   75SLPC   C38 6757   6.575   6.147   7.743 -0.6213 -0.0544  0.6603
   75SLPC   H8X 6758   6.487   6.185   7.687  0.3001  1.6094  0.2666
   75SLPC   H8Y 6759   6.652   6.217   7.703  0.9158 -2.9906 -2.0500
   75SLPC   C39 6760   6.558   6.162   7.891 -0.2194  0.3267 -0.0554
   75SLPC   H9X 6761   6.475   6.100   7.932  0.4459 -1.1641 -0.9193
   75SLPC   H9Y 6762   6.532   6.265   7.923 -1.0042  0.0680  0.1603
   75SLPC  C310 6763   6.685   6.120   7.968  0.0499 -0.2669 -0.4222
   75SLPC  H10X 6764   6.771   6.188   7.953 -1.3029  2.3209  2.3549
   75SLPC  H10Y 6765   6.714   6.016   7.945  0.2296 -0.0748 -1.0853
   75SLPC  C311 6766   6.663   6.116   8.126  0.2721 -0.4193 -0.0920
   75SLPC  H11X 6767   6.769   6.110   8.160 -0.6562 -1.1015  2.9667
   75SLPC  H11Y 6768   6.611   6.021   8.150  3.1715 -2.2040 -0.3832
   75SLPC  C312 6769   6.608   6.247   8.184  0.1098 -0.1275 -0.6446
   75SLPC  H12X 6770   6.499   6.251   8.162  0.2428 -0.5576 -1.4117
   75SLPC  H12Y 6771   6.668   6.329   8.140  0.8607 -0.9946 -1.2733
   75SLPC  C313 6772   6.631   6.254   8.333  0.0925 -0.4493  0.3066
   75SLPC  H13X 6773   6.722   6.192   8.349 -0.1173 -0.6460  0.7605
   75SLPC  H13Y 6774   6.539   6.209   8.375 -1.4659  1.5739 -0.7799
   75SLPC  C314 6775   6.640   6.393   8.403  0.1008  0.5160  0.7609
   75SLPC  H14X 6776   6.554   6.457   8.372 -0.2944  0.4166  1.6205
   75SLPC  H14Y 6777   6.734   6.443   8.372 -0.5279  0.8763 -0.6379
   75SLPC  C315 6778   6.643   6.381   8.553 -0.8638 -0.6733 -0.0442
   75SLPC  H15X 6779   6.729   6.316   8.578 -1.0513 -1.6143 -1.6897
   75SLPC  H15Y 6780   6.550   6.332   8.591 -1.0693  1.4009  2.4367
   75SLPC  C316 6781   6.655   6.515   8.622 -0.4308 -0.2120  0.2262
   75SLPC  H16X 6782   6.572   6.582   8.589  0.7494  1.0709 -0.2249
   75SLPC  H16Y 6783   6.749   6.568   8.596 -0.7965 -0.1922 -1.1588
   75SLPC  C317 6784   6.650   6.519   8.775 -0.2728 -0.0245  0.9178
   75SLPC  H17X 6785   6.736   6.464   8.818  0.2527  0.2948  0.2969
   75SLPC  H17Y 6786   6.556   6.472   8.810  0.2006 -1.4104  0.3780
   75SLPC  C318 6787   6.663   6.669   8.829 -0.2116  0.5052  0.0093
   75SLPC  H18X 6788   6.587   6.732   8.777 -0.9733  1.1068  1.7825
   75SLPC  H18Y 6789   6.762   6.712   8.805 -0.1027  1.0751  1.4005
   75SLPC  H18Z 6790   6.657   6.675   8.939  0.4861  1.4933  0.0017
   76SLPC     N 6791   3.294   3.163   6.039  0.5354 -0.0895  0.0595
   76SLPC   C13 6792   3.313   3.305   6.000  1.1476 -0.1124  0.2586
   76SLPC  H13A 6793   3.266   3.328   5.906  0.8688  0.7050  0.5807
   76SLPC  H13B 6794   3.265   3.370   6.072 -1.4537 -1.3904 -0.1891
   76SLPC  H13C 6795   3.419   3.327   6.000  1.5614 -1.6756 -2.4211
   76SLPC   C14 6796   3.368   3.143   6.165 -0.5557  0.5193 -0.7642
   76SLPC  H14A 6797   3.326   3.187   6.254 -0.8094 -3.3089  1.2422
   76SLPC  H14B 6798   3.365   3.038   6.191 -2.2583  0.9804  1.1741
   76SLPC  H14C 6799   3.471   3.174   6.163 -0.6521  1.1016  1.2244
   76SLPC   C15 6800   3.352   3.081   5.935 -0.3265  0.2249  1.0477
   76SLPC  H15A 6801   3.351   3.128   5.838  3.2984  1.2337  1.3712
   76SLPC  H15B 6802   3.456   3.064   5.957  0.1322  1.1250 -0.3106
   76SLPC  H15C 6803   3.303   2.986   5.923 -0.8598  0.6039  0.0637
   76SLPC   C12 6804   3.144   3.133   6.048  0.3362  0.2883  0.4883
   76SLPC  H12A 6805   3.134   3.026   6.059  1.3273  0.0767 -0.4742
   76SLPC  H12B 6806   3.096   3.174   5.961  2.2867  1.5928 -0.0435
   76SLPC   C11 6807   3.068   3.202   6.160 -0.2438  0.1166 -0.8440
   76SLPC  H11A 6808   3.127   3.203   6.254 -1.9039  0.3726  0.2522
   76SLPC  H11B 6809   2.973   3.147   6.183 -1.0205  1.7901  0.1560
   76SLPC     P 6810   3.052   3.461   6.191 -0.3755  0.5064 -0.4525
   76SLPC   O13 6811   3.198   3.471   6.222 -0.9394 -0.5905 -0.2105
   76SLPC   O14 6812   2.988   3.573   6.116  0.2573 -0.0211  0.1077
   76SLPC   O12 6813   3.034   3.332   6.100  0.0139 -0.1775  0.0341
   76SLPC   O11 6814   2.976   3.414   6.315  0.5147  0.1010  0.3445
   76SLPC    C1 6815   2.831   3.403   6.311 -0.8602 -0.4008 -0.0196
   76SLPC    HA 6816   2.785   3.501   6.288  0.7882 -0.3289 -3.7197
   76SLPC    HB 6817   2.796   3.336   6.230 -0.3984 -0.5034 -0.1407
   76SLPC    C2 6818   2.793   3.345   6.444 -0.2477  0.6039 -0.2102
   76SLPC    HS 6819   2.682   3.345   6.442 -0.2995  1.3373  1.1870
   76SLPC   O21 6820   2.841   3.407   6.562  0.0947 -0.2005  0.6802
   76SLPC   C21 6821   2.815   3.532   6.578  0.1179  0.0564  0.2601
   76SLPC   O22 6822   2.750   3.605   6.503 -0.4556  0.1118  0.2083
   76SLPC   C22 6823   2.868   3.562   6.715 -0.3880 -0.0367  0.3628
   76SLPC   H2R 6824   2.811   3.502   6.790 -2.9206  1.7069 -0.0549
   76SLPC   H2S 6825   2.973   3.526   6.715 -0.2107  0.4242 -1.5786
   76SLPC    C3 6826   2.841   3.197   6.451  0.5532 -0.5935  0.3819
   76SLPC    HX 6827   2.952   3.201   6.450  0.5726 -0.7074 -1.1896
   76SLPC    HY 6828   2.805   3.140   6.362 -2.5948  2.9968 -0.9422
   76SLPC   O31 6829   2.802   3.140   6.579  0.4448 -0.4533 -0.1834
   76SLPC   C31 6830   2.817   3.010   6.596 -0.4104  0.6131  0.6668
   76SLPC   O32 6831   2.875   2.936   6.520  0.3487  0.0741  0.0781
   76SLPC   C32 6832   2.768   2.969   6.739  0.0982  0.3615 -0.0600
   76SLPC   H2X 6833   2.771   2.859   6.757 -0.9903  0.6914  2.4347
   76SLPC   H2Y 6834   2.662   3.000   6.728  0.0005  0.1989  0.3998
   76SLPC   C23 6835   2.863   3.703   6.758  0.0189 -0.1258  0.1130
   76SLPC   H3R 6836   2.760   3.742   6.747  0.5888  1.2172 -0.7470
   76SLPC   H3S 6837   2.925   3.767   6.690 -1.0106 -0.3087 -1.0209
   76SLPC   C24 6838   2.902   3.725   6.905  0.5599  0.0669 -0.4656
   76SLPC   H4R 6839   2.944   3.828   6.906  1.2291 -0.1846  1.0977
   76SLPC   H4S 6840   2.990   3.661   6.928  0.9553  0.1702 -1.6196
   76SLPC   C25 6841   2.793   3.694   7.006 -0.3756 -0.1043 -0.4827
   76SLPC   H5R 6842   2.762   3.587   7.000 -0.9852  0.1111 -1.2866
   76SLPC   H5S 6843   2.710   3.765   6.986  0.7612  0.8363 -2.0955
   76SLPC   C26 6844   2.847   3.704   7.149  0.9124  0.4933  0.4307
   76SLPC   H6R 6845   2.924   3.783   7.158  1.3586 -0.0221  1.3128
   76SLPC   H6S 6846   2.912   3.615   7.162  2.0667  1.1324 -0.7808
   76SLPC   C27 6847   2.735   3.712   7.254 -0.3002 -0.1841 -0.0232
   76SLPC   H7R 6848   2.670   3.623   7.237  0.7513 -0.8260 -0.8317
   76SLPC   H7S 6849   2.670   3.800   7.234  0.4467 -0.4597 -4.9040
   76SLPC   C28 6850   2.788   3.717   7.391  0.5852 -0.3238 -0.0981
   76SLPC   H8R 6851   2.863   3.638   7.413  0.9430 -0.2045 -0.8529
   76SLPC   H8S 6852   2.836   3.817   7.386  1.4272 -0.7221 -0.1778
   76SLPC   C29 6853   2.679   3.731   7.497 -1.2423  0.4701  0.6030
   76SLPC   H9R 6854   2.585   3.772   7.459 -1.0014  1.0536  0.6387
   76SLPC  C210 6855   2.691   3.687   7.623 -0.0673 -0.6843 -0.1335
   76SLPC  H10R 6856   2.610   3.709   7.694 -0.9239 -0.0610 -1.2615
   76SLPC  C211 6857   2.813   3.626   7.687 -0.0501  0.1882  0.0948
   76SLPC  H11R 6858   2.878   3.703   7.733 -0.9378  0.3859  1.0632
   76SLPC  H11S 6859   2.878   3.578   7.611  1.0610  1.6294  0.1067
   76SLPC  C212 6860   2.791   3.525   7.799  0.6509 -0.0596  0.2589
   76SLPC  H12R 6861   2.788   3.422   7.761  0.5578  0.9375 -2.7528
   76SLPC  C213 6862   2.739   3.549   7.915  0.1000  0.4311 -0.3509
   76SLPC  H13R 6863   2.722   3.465   7.985 -0.0160 -0.5602 -1.5440
   76SLPC  C214 6864   2.703   3.680   7.973  0.2171 -0.3750  0.2568
   76SLPC  H14R 6865   2.593   3.682   7.991  0.3802  0.9183  1.3151
   76SLPC  H14S 6866   2.714   3.769   7.907  0.9020  0.8934  1.9886
   76SLPC  C215 6867   2.769   3.711   8.108  0.2223 -0.3884  0.3810
   76SLPC  H15R 6868   2.733   3.812   8.139 -1.5137 -0.4838 -1.2065
   76SLPC  H15S 6869   2.879   3.711   8.088  0.5870 -2.0346  2.0809
   76SLPC  C216 6870   2.735   3.609   8.218  0.5441  0.5842  0.2492
   76SLPC  H16R 6871   2.810   3.527   8.210 -1.0480 -0.7430 -3.5023
   76SLPC  H16S 6872   2.638   3.559   8.200  1.3768 -1.3451  0.8426
   76SLPC  C217 6873   2.725   3.654   8.365  0.5975 -0.4551 -0.0602
   76SLPC  H17R 6874   2.646   3.732   8.371 -0.2830 -1.1559 -1.7170
   76SLPC  H17S 6875   2.819   3.699   8.401  0.7411  0.2243 -1.2462
   76SLPC  C218 6876   2.691   3.540   8.460  0.8191  0.4292  0.4295
   76SLPC  H18R 6877   2.583   3.514   8.450  0.8772  0.3822 -0.0859
   76SLPC  H18S 6878   2.702   3.569   8.567  0.4229  0.0310  0.5803
   76SLPC  H18T 6879   2.746   3.447   8.433  0.0013 -0.3573  1.3894
   76SLPC   C33 6880   2.840   3.046   6.844 -0.6157 -0.1051  0.2206
   76SLPC   H3X 6881   2.813   3.153   6.831 -0.8241 -0.1146  0.5618
   76SLPC   H3Y 6882   2.950   3.034   6.835 -0.3966  0.9829  1.2406
   76SLPC   C34 6883   2.808   2.993   6.987  0.7787 -0.5753  0.2991
   76SLPC   H4X 6884   2.848   2.889   6.982 -2.8525 -2.1286 -0.3493
   76SLPC   H4Y 6885   2.697   2.994   6.995  0.4905  0.0168 -2.7448
   76SLPC   C35 6886   2.891   3.069   7.102 -0.0433  0.4675 -0.0426
   76SLPC   H5X 6887   2.871   3.178   7.097 -1.3134  0.2328 -0.5296
   76SLPC   H5Y 6888   3.000   3.052   7.097 -0.0741 -0.1617  1.0592
   76SLPC   C36 6889   2.835   3.029   7.239 -0.1362  0.1806 -0.0187
   76SLPC   H6X 6890   2.872   2.928   7.268 -0.3314  0.7069  2.2487
   76SLPC   H6Y 6891   2.724   3.024   7.230 -0.0181 -1.4457 -1.1235
   76SLPC   C37 6892   2.871   3.130   7.349 -0.1815  1.0359  0.4300
   76SLPC   H7X 6893   2.881   3.236   7.316 -1.0674  1.7442  2.2569
   76SLPC   H7Y 6894   2.968   3.102   7.395 -0.9303  0.3417  1.6609
   76SLPC   C38 6895   2.767   3.139   7.467 -0.0256  0.2287  0.7012
   76SLPC   H8X 6896   2.668   3.159   7.421 -0.0489  0.2731  0.7723
   76SLPC   H8Y 6897   2.802   3.220   7.534  1.7913  1.0231 -1.0808
   76SLPC   C39 6898   2.758   3.013   7.552  0.1536 -0.0169  0.2132
   76SLPC   H9X 6899   2.855   2.974   7.588  0.0580  0.8237  1.4820
   76SLPC   H9Y 6900   2.718   2.935   7.484 -1.5729  1.9696 -1.1970
   76SLPC  C310 6901   2.657   3.019   7.677 -0.1103 -0.1180  0.0083
   76SLPC  H10X 6902   2.654   2.916   7.719 -0.2517 -0.0214  0.2348
   76SLPC  H10Y 6903   2.560   3.053   7.636 -1.7005 -1.6458  2.2701
   76SLPC  C311 6904   2.708   3.108   7.790 -0.9908 -0.1211  0.4752
   76SLPC  H11X 6905   2.665   3.209   7.771 -2.3307 -0.5256  1.2127
   76SLPC  H11Y 6906   2.819   3.103   7.785 -1.0130 -1.2732  0.7640
   76SLPC  C312 6907   2.675   3.051   7.936 -0.6447  0.7373  0.5332
   76SLPC  H12X 6908   2.745   2.965   7.942 -0.9089  0.5146  0.4921
   76SLPC  H12Y 6909   2.571   3.012   7.942 -1.4130  2.3234 -1.3762
   76SLPC  C313 6910   2.696   3.159   8.046  0.0865  1.1639 -0.0795
   76SLPC  H13X 6911   2.628   3.247   8.037 -0.1413  0.8155 -2.6211
   76SLPC  H13Y 6912   2.799   3.196   8.024 -1.0102  4.6452 -0.1030
   76SLPC  C314 6913   2.700   3.100   8.184 -0.3016 -0.3190 -0.1581
   76SLPC  H14X 6914   2.801   3.053   8.191  0.7301  1.7897 -0.1342
   76SLPC  H14Y 6915   2.629   3.017   8.201 -0.6576  0.5748  3.6215
   76SLPC  C315 6916   2.677   3.208   8.294 -0.0949  0.1704 -0.3279
   76SLPC  H15X 6917   2.745   3.293   8.269 -1.1874  1.1910  0.1075
   76SLPC  H15Y 6918   2.722   3.174   8.390  0.1839 -0.4509 -0.6726
   76SLPC  C316 6919   2.529   3.234   8.311  0.1307 -0.9044 -0.4416
   76SLPC  H16X 6920   2.470   3.214   8.220  1.7027 -0.7218 -1.5444
   76SLPC  H16Y 6921   2.522   3.344   8.325 -2.3025 -1.0360 -0.1662
   76SLPC  C317 6922   2.469   3.164   8.437  0.3141 -0.3340 -0.4148
   76SLPC  H17X 6923   2.528   3.193   8.527  0.1788  0.2583 -0.5110
   76SLPC  H17Y 6924   2.456   3.054   8.426 -0.0736 -0.2513 -0.8249
   76SLPC  C318 6925   2.333   3.227   8.460  0.3611 -0.1836  0.0246
   76SLPC  H18X 6926   2.258   3.189   8.388 -0.2197 -1.3390  1.1873
   76SLPC  H18Y 6927   2.342   3.337   8.453  0.8960 -0.3347 -3.7986
   76SLPC  H18Z 6928   2.288   3.196   8.557 -1.2412  0.8930 -0.3369
   77SLPC     N 6929   6.490   4.127   5.920  0.5597 -0.2891 -0.4387
   77SLPC   C13 6930   6.578   4.147   5.802 -0.0624  0.5384  0.3049
   77SLPC  H13A 6931   6.675   4.103   5.818  0.6110  1.7552 -0.2667
   77SLPC  H13B 6932   6.528   4.102   5.718  3.0695 -0.6921 -1.0492
   77SLPC  H13C 6933   6.593   4.251   5.775  0.4779  0.4178  0.1191
   77SLPC   C14 6934   6.484   3.981   5.949 -0.5815  0.3095  0.2161
   77SLPC  H14A 6935   6.575   3.926   5.972 -0.7191 -0.2775 -0.5731
   77SLPC  H14B 6936   6.413   3.963   6.028 -0.9485  0.2928 -0.1182
   77SLPC  H14C 6937   6.446   3.935   5.859 -1.3839  1.5955 -0.1239
   77SLPC   C15 6938   6.355   4.167   5.876  0.0732 -0.4387 -0.2826
   77SLPC  H15A 6939   6.285   4.177   5.958 -0.1294  0.2344 -0.5285
   77SLPC  H15B 6940   6.356   4.270   5.844  0.5510 -0.7957 -1.4835
   77SLPC  H15C 6941   6.321   4.116   5.787 -1.5847  1.0748 -0.5906
   77SLPC   C12 6942   6.542   4.206   6.034 -0.8101  0.3634 -0.0108
   77SLPC  H12A 6943   6.513   4.308   6.015  0.7835  1.0002  0.8243
   77SLPC  H12B 6944   6.649   4.197   6.034 -0.8139  0.3024 -0.4796
   77SLPC   C11 6945   6.496   4.159   6.174 -0.1191  0.4397  0.0079
   77SLPC  H11A 6946   6.549   4.215   6.254 -0.1395  0.3204  0.1058
   77SLPC  H11B 6947   6.507   4.049   6.190 -1.0125  0.3474  0.0566
   77SLPC     P 6948   6.293   4.306   6.210 -0.5340  0.1163 -0.1325
   77SLPC   O13 6949   6.377   4.413   6.144 -0.5739  0.0317  0.8346
   77SLPC   O14 6950   6.153   4.288   6.158 -0.2824  0.1945 -0.3084
   77SLPC   O12 6951   6.355   4.170   6.194  0.0852 -0.3694 -0.0958
   77SLPC   O11 6952   6.287   4.336   6.366  0.1825  0.1223  0.5147
   77SLPC    C1 6953   6.186   4.273   6.444  0.7202 -0.0558 -0.2473
   77SLPC    HA 6954   6.091   4.331   6.431  0.3520 -0.3878  0.8751
   77SLPC    HB 6955   6.161   4.169   6.416  1.5172 -0.4278  0.4135
   77SLPC    C2 6956   6.217   4.263   6.596 -0.2085  0.2838  0.0948
   77SLPC    HS 6957   6.225   4.366   6.636 -0.9055  0.6158 -0.5955
   77SLPC   O21 6958   6.344   4.201   6.621  0.1503 -0.7029 -0.1455
   77SLPC   C21 6959   6.356   4.070   6.613 -0.2788 -0.4552  0.1160
   77SLPC   O22 6960   6.273   3.987   6.580 -0.3186  0.0989 -0.2965
   77SLPC   C22 6961   6.495   4.046   6.649 -0.0428  0.2207 -0.6104
   77SLPC   H2R 6962   6.550   4.028   6.554  1.2156  0.5033  0.0508
   77SLPC   H2S 6963   6.535   4.140   6.692 -4.0642  2.9087 -2.1115
   77SLPC    C3 6964   6.087   4.200   6.666 -0.5000  0.1559 -0.5052
   77SLPC    HX 6965   6.057   4.102   6.624 -3.1242 -1.6141  4.6576
   77SLPC    HY 6966   5.995   4.259   6.646 -1.0075  0.0822  1.4306
   77SLPC   O31 6967   6.112   4.179   6.809  0.0605  0.0297 -0.8634
   77SLPC   C31 6968   6.093   4.287   6.879  0.0358 -0.0627 -0.0855
   77SLPC   O32 6969   6.078   4.401   6.831 -0.2430 -0.3904 -0.8354
   77SLPC   C32 6970   6.102   4.266   7.030  0.1607 -0.1443 -0.5099
   77SLPC   H2X 6971   6.200   4.222   7.057  0.4369  1.5641  1.5175
   77SLPC   H2Y 6972   6.021   4.191   7.046  1.2977 -1.5326 -1.1180
   77SLPC   C23 6973   6.508   3.914   6.741  0.0570 -0.9069 -0.7432
   77SLPC   H3R 6974   6.617   3.901   6.758  0.1641  0.3582 -0.3539
   77SLPC   H3S 6975   6.467   3.829   6.683  0.4437 -1.8951  0.3837
   77SLPC   C24 6976   6.439   3.913   6.877 -0.0787 -0.9521 -0.1203
   77SLPC   H4R 6977   6.439   3.805   6.904  0.0957 -0.6005  1.4196
   77SLPC   H4S 6978   6.335   3.951   6.868  0.6292  0.7664 -1.6096
   77SLPC   C25 6979   6.513   3.980   6.987 -0.3486 -0.2717  0.1790
   77SLPC   H5R 6980   6.520   4.088   6.960  1.3834 -0.1820  0.8440
   77SLPC   H5S 6981   6.616   3.939   6.989 -0.2283  0.0378  0.4308
   77SLPC   C26 6982   6.439   3.952   7.117  0.0920 -0.0427  0.3224
   77SLPC   H6R 6983   6.463   3.851   7.157  1.3337  0.7172  1.6044
   77SLPC   H6S 6984   6.329   3.957   7.100 -0.0267  0.4908  1.2153
   77SLPC   C27 6985   6.482   4.045   7.231  0.5129  0.5822 -0.0767
   77SLPC   H7R 6986   6.452   4.149   7.204 -0.6238  0.3609  0.2698
   77SLPC   H7S 6987   6.590   4.038   7.252  0.3672 -0.1968  0.4391
   77SLPC   C28 6988   6.416   4.017   7.368  0.1199 -0.0420 -0.2205
   77SLPC   H8R 6989   6.455   3.924   7.415 -1.1166  0.5100  2.0358
   77SLPC   H8S 6990   6.309   4.000   7.342  0.3630 -0.4243 -1.0085
   77SLPC   C29 6991   6.430   4.136   7.445  0.1291  0.0110 -0.4454
   77SLPC   H9R 6992   6.366   4.222   7.421  0.2674  0.7150  1.5553
   77SLPC  C210 6993   6.498   4.147   7.558  0.0175 -0.0303  0.1594
   77SLPC  H10R 6994   6.477   4.234   7.622  1.6743  0.4160  0.1274
   77SLPC  C211 6995   6.586   4.041   7.610 -0.6156 -0.1510 -0.8413
   77SLPC  H11R 6996   6.657   4.010   7.531  0.2622 -0.8450  0.1941
   77SLPC  H11S 6997   6.532   3.945   7.627 -0.4800 -0.0162  0.4711
   77SLPC  C212 6998   6.659   4.084   7.737  0.3278 -0.3504 -0.5023
   77SLPC  H12R 6999   6.707   4.183   7.736  1.6055 -0.9426  0.0113
   77SLPC  C213 7000   6.676   4.015   7.855 -0.8869  0.6289  0.7896
   77SLPC  H13R 7001   6.733   4.066   7.934  2.0194 -2.5503  0.9827
   77SLPC  C214 7002   6.620   3.878   7.882 -0.5264 -0.4791  0.1993
   77SLPC  H14R 7003   6.583   3.831   7.789 -0.0075 -1.6632  0.5679
   77SLPC  H14S 7004   6.541   3.868   7.959  1.6706  0.7303  2.7837
   77SLPC  C215 7005   6.727   3.770   7.932  0.7055 -0.3232 -0.2343
   77SLPC  H15R 7006   6.807   3.773   7.855 -0.0822 -1.8460 -1.1564
   77SLPC  H15S 7007   6.675   3.673   7.937 -0.3438  0.0511 -2.7221
   77SLPC  C216 7008   6.786   3.812   8.074 -0.4316 -0.0862 -0.1064
   77SLPC  H16R 7009   6.812   3.920   8.074 -0.1510 -0.1237 -2.2728
   77SLPC  H16S 7010   6.878   3.752   8.089  0.0756  0.2873 -1.5552
   77SLPC  C217 7011   6.692   3.782   8.195 -0.3445 -0.1670  0.2608
   77SLPC  H17R 7012   6.617   3.863   8.188 -1.2647 -1.1574 -2.6167
   77SLPC  H17S 7013   6.743   3.795   8.293  2.6228 -0.8477 -1.0844
   77SLPC  C218 7014   6.618   3.646   8.193 -0.4070  0.2065 -0.4248
   77SLPC  H18R 7015   6.695   3.566   8.190  0.9937  1.3886  1.8012
   77SLPC  H18S 7016   6.541   3.653   8.113  0.5304  0.5640 -1.3179
   77SLPC  H18T 7017   6.574   3.644   8.295  0.1101 -0.3757 -0.2056
   77SLPC   C33 7018   6.078   4.396   7.116 -0.4460  0.0427 -0.1299
   77SLPC   H3X 7019   6.002   4.457   7.062 -0.2349 -0.2580 -0.7887
   77SLPC   H3Y 7020   6.174   4.452   7.118  0.5066 -1.4923 -0.9170
   77SLPC   C34 7021   6.037   4.363   7.255  0.5117  0.2028 -0.0071
   77SLPC   H4X 7022   6.105   4.288   7.301  0.1228 -1.5594 -2.1679
   77SLPC   H4Y 7023   5.934   4.321   7.247  0.1618  1.1372 -0.6004
   77SLPC   C35 7024   6.031   4.488   7.340  0.5609 -0.2859 -1.0302
   77SLPC   H5X 7025   5.971   4.573   7.302 -0.8419 -0.5008  0.5703
   77SLPC   H5Y 7026   6.127   4.531   7.374 -0.3976 -0.0678  1.6835
   77SLPC   C36 7027   5.964   4.449   7.477  0.3854  0.3427 -0.1234
   77SLPC   H6X 7028   5.866   4.406   7.449 -1.0069  3.3273 -0.1261
   77SLPC   H6Y 7029   5.939   4.537   7.539 -0.5929  0.5426 -0.7829
   77SLPC   C37 7030   6.049   4.361   7.572  0.9546 -0.0483  0.0900
   77SLPC   H7X 7031   6.074   4.267   7.518  0.0307 -0.3572  0.1831
   77SLPC   H7Y 7032   5.988   4.330   7.659  1.4812 -2.0080 -0.1837
   77SLPC   C38 7033   6.176   4.431   7.634  0.3431 -0.5957  0.7631
   77SLPC   H8X 7034   6.130   4.515   7.691  0.6295  0.6447 -0.7384
   77SLPC   H8Y 7035   6.237   4.467   7.548 -0.7700  1.2240  0.6820
   77SLPC   C39 7036   6.240   4.336   7.739  0.6611  0.0232 -0.5292
   77SLPC   H9X 7037   6.347   4.364   7.742  0.8217 -0.6342  0.5547
   77SLPC   H9Y 7038   6.237   4.228   7.710 -0.3599 -1.0308  2.9548
   77SLPC  C310 7039   6.201   4.357   7.891  0.0783 -0.0576  0.2514
   77SLPC  H10X 7040   6.098   4.324   7.917  0.7783 -0.9239  2.1206
   77SLPC  H10Y 7041   6.187   4.466   7.907 -0.5469  0.2491 -2.0143
   77SLPC  C311 7042   6.300   4.295   7.988  0.3574  0.1602  0.1768
   77SLPC  H11X 7043   6.305   4.188   7.958  0.9605  0.0220  0.7298
   77SLPC  H11Y 7044   6.266   4.287   8.093 -1.0109 -0.4454 -0.2958
   77SLPC  C312 7045   6.439   4.373   7.999  1.0129  0.6193 -0.0230
   77SLPC  H12X 7046   6.483   4.393   7.899  0.7396 -1.1268 -0.5297
   77SLPC  H12Y 7047   6.509   4.294   8.034  2.4258  2.5205  1.6109
   77SLPC  C313 7048   6.443   4.497   8.093 -0.0822 -0.2863 -0.0496
   77SLPC  H13X 7049   6.395   4.575   8.030  0.1057 -1.5027 -1.7672
   77SLPC  H13Y 7050   6.549   4.528   8.103 -0.2562  0.3755 -0.1880
   77SLPC  C314 7051   6.385   4.484   8.232  0.2205  0.0968 -0.1583
   77SLPC  H14X 7052   6.441   4.405   8.284 -1.2573 -1.1326 -0.3520
   77SLPC  H14Y 7053   6.281   4.447   8.214  0.8655 -1.2581 -1.2214
   77SLPC  C315 7054   6.386   4.613   8.319 -0.3383  0.4172 -0.1139
   77SLPC  H15X 7055   6.321   4.677   8.257 -0.6009  0.7729  0.5179
   77SLPC  H15Y 7056   6.489   4.655   8.315 -0.0903 -0.2471 -0.8644
   77SLPC  C316 7057   6.332   4.600   8.465  0.6119  0.1417 -0.0739
   77SLPC  H16X 7058   6.380   4.510   8.510  1.0221 -0.0846 -0.9321
   77SLPC  H16Y 7059   6.221   4.595   8.454  0.6447  1.5306 -1.3269
   77SLPC  C317 7060   6.347   4.732   8.546  0.2781  0.6945  0.3245
   77SLPC  H17X 7061   6.296   4.810   8.486 -1.1866 -0.0267  0.5911
   77SLPC  H17Y 7062   6.456   4.755   8.555 -0.2247  2.4369  3.8711
   77SLPC  C318 7063   6.302   4.714   8.691  0.3446  0.1476  0.2204
   77SLPC  H18X 7064   6.355   4.647   8.761 -1.5653 -1.4630  0.2257
   77SLPC  H18Y 7065   6.192   4.694   8.693  0.1795  0.8906 -0.5487
   77SLPC  H18Z 7066   6.299   4.815   8.738 -2.3532  1.7532 -2.9309
   78SLPC     N 7067   3.017   3.775   5.738  0.1893 -0.2930 -0.4469
   78SLPC   C13 7068   2.895   3.720   5.680  0.3033 -0.3792  0.3713
   78SLPC  H13A 7069   2.887   3.740   5.575 -1.8434  1.2780  0.7721
   78SLPC  H13B 7070   2.894   3.613   5.695  1.2022 -0.2802  1.3046
   78SLPC  H13C 7071   2.807   3.774   5.713  0.4855 -0.2950  0.7333
   78SLPC   C14 7072   3.023   3.920   5.703  0.1584 -0.1128 -0.0916
   78SLPC  H14A 7073   3.044   3.925   5.597  4.1528 -0.4805  0.5577
   78SLPC  H14B 7074   2.927   3.964   5.727 -0.0453 -1.5523  1.8858
   78SLPC  H14C 7075   3.103   3.979   5.745  0.6857  0.0576 -1.2844
   78SLPC   C15 7076   3.148   3.714   5.686 -0.4693 -0.5010 -0.1078
   78SLPC  H15A 7077   3.145   3.614   5.726 -0.9139 -0.3274  0.3016
   78SLPC  H15B 7078   3.152   3.705   5.578 -1.9217 -1.4294 -0.1214
   78SLPC  H15C 7079   3.238   3.766   5.711  0.3293 -1.5185 -0.7806
   78SLPC   C12 7080   3.010   3.757   5.890 -0.4038  0.0910 -0.2471
   78SLPC  H12A 7081   3.000   3.655   5.923 -2.7084  0.2147 -0.3718
   78SLPC  H12B 7082   2.921   3.803   5.931 -0.2961  0.0422  0.0443
   78SLPC   C11 7083   3.116   3.831   5.976  0.0110 -0.2271  0.0985
   78SLPC  H11A 7084   3.217   3.799   5.942 -0.0400 -0.5568  0.2477
   78SLPC  H11B 7085   3.117   3.792   6.080 -0.9819  2.8043  1.3437
   78SLPC     P 7086   2.989   4.053   6.035 -0.2068  0.2861  0.0801
   78SLPC   O13 7087   3.035   4.195   6.059  0.2001 -0.3296 -0.4146
   78SLPC   O14 7088   2.873   4.031   5.946  0.0015  0.2178  0.1181
   78SLPC   O12 7089   3.112   3.972   5.974  0.0911  0.0072 -0.2909
   78SLPC   O11 7090   2.959   3.986   6.178  0.2707  0.2643 -0.0676
   78SLPC    C1 7091   3.065   3.987   6.271 -0.4252  0.0526  0.0841
   78SLPC    HA 7092   3.049   3.885   6.312 -0.1331 -0.7326 -1.6700
   78SLPC    HB 7093   3.171   3.982   6.237  0.0635 -0.7892  1.6611
   78SLPC    C2 7094   3.048   4.093   6.383  0.0759 -0.1164 -0.1587
   78SLPC    HS 7095   3.032   4.193   6.337  0.9575  0.2621  0.3532
   78SLPC   O21 7096   3.155   4.085   6.483 -0.0464  0.8095  0.7582
   78SLPC   C21 7097   3.181   4.206   6.541  0.2206  0.4667  0.2130
   78SLPC   O22 7098   3.150   4.312   6.495 -0.0457 -0.7376 -0.0836
   78SLPC   C22 7099   3.269   4.189   6.660  0.4997 -0.1171 -0.7620
   78SLPC   H2R 7100   3.321   4.091   6.652  1.1089  0.0913  0.3687
   78SLPC   H2S 7101   3.345   4.269   6.651  1.6279 -0.8984  1.1205
   78SLPC    C3 7102   2.909   4.061   6.445  0.2721  0.0568 -0.7553
   78SLPC    HX 7103   2.932   3.970   6.504  0.6198  1.1757  0.9095
   78SLPC    HY 7104   2.834   4.036   6.367  0.2182  1.2129 -1.0971
   78SLPC   O31 7105   2.860   4.166   6.538  0.1919  0.1252  0.1361
   78SLPC   C31 7106   2.809   4.268   6.480 -1.1171 -0.1281 -0.4302
   78SLPC   O32 7107   2.807   4.301   6.360 -0.5679  0.1925 -0.5579
   78SLPC   C32 7108   2.768   4.367   6.589 -0.3179  0.2201  0.3916
   78SLPC   H2X 7109   2.829   4.350   6.680 -0.5344  2.3311  0.9693
   78SLPC   H2Y 7110   2.664   4.345   6.622 -1.1133 -0.1203 -2.0934
   78SLPC   C23 7111   3.187   4.209   6.787  0.0938 -0.0092  0.0988
   78SLPC   H3R 7112   3.093   4.151   6.783  1.3808 -2.1299 -0.8597
   78SLPC   H3S 7113   3.172   4.319   6.798  3.2697  0.5173  0.1840
   78SLPC   C24 7114   3.258   4.159   6.912 -0.1354 -0.2768 -0.1003
   78SLPC   H4R 7115   3.353   4.213   6.932 -0.4136  0.8111 -1.5773
   78SLPC   H4S 7116   3.281   4.050   6.904 -4.2195 -1.4990  2.1106
   78SLPC   C25 7117   3.167   4.182   7.029 -0.3527 -0.3314 -0.2906
   78SLPC   H5R 7118   3.063   4.143   7.025 -0.0772 -1.1390  0.1739
   78SLPC   H5S 7119   3.157   4.291   7.050 -0.8101 -0.6401  1.1895
   78SLPC   C26 7120   3.219   4.119   7.168 -0.1204  0.7874  0.2897
   78SLPC   H6R 7121   3.264   4.198   7.233  0.0228  0.7037  0.2934
   78SLPC   H6S 7122   3.306   4.053   7.145  1.1495  3.4394 -3.5542
   78SLPC   C27 7123   3.119   4.050   7.263 -0.3497  0.1543  0.2817
   78SLPC   H7R 7124   3.039   3.988   7.218 -2.0618  1.1360  1.8482
   78SLPC   H7S 7125   3.052   4.127   7.305 -0.9354 -0.2289  0.0664
   78SLPC   C28 7126   3.191   3.994   7.392  0.4822  0.1386  0.3505
   78SLPC   H8R 7127   3.242   4.079   7.443  1.6775  1.1756 -2.3413
   78SLPC   H8S 7128   3.278   3.939   7.350  0.0745  2.3993 -4.1151
   78SLPC   C29 7129   3.100   3.908   7.482 -0.7200 -0.0429 -0.0341
   78SLPC   H9R 7130   3.028   3.839   7.436 -1.9955  0.0368  1.7303
   78SLPC  C210 7131   3.102   3.906   7.622  0.3900  1.3770  0.4275
   78SLPC  H10R 7132   3.021   3.849   7.671  0.1029  1.6924  0.3260
   78SLPC  C211 7133   3.199   3.981   7.706  0.4840  0.4571  0.9610
   78SLPC  H11R 7134   3.281   4.020   7.642 -1.1433 -0.3398 -1.7981
   78SLPC  H11S 7135   3.244   3.912   7.780  0.9059  0.8804  1.1049
   78SLPC  C212 7136   3.142   4.094   7.794  0.0952  0.5311  0.2376
   78SLPC  H12R 7137   3.126   4.188   7.738 -1.2472 -0.2414 -0.7398
   78SLPC  C213 7138   3.100   4.086   7.921  0.1003  0.0068  0.1718
   78SLPC  H13R 7139   3.040   4.165   7.968  0.7289  0.3856  0.3537
   78SLPC  C214 7140   3.102   3.961   8.014  0.1231  0.5332 -0.1738
   78SLPC  H14R 7141   3.126   3.869   7.956  0.2738  0.5057 -0.0655
   78SLPC  H14S 7142   3.000   3.943   8.055 -1.1063  0.6123 -2.9622
   78SLPC  C215 7143   3.210   3.983   8.130 -0.4986  0.6892  0.4529
   78SLPC  H15R 7144   3.193   4.081   8.180 -1.1983  0.9644 -0.3160
   78SLPC  H15S 7145   3.309   3.983   8.080 -1.1618  0.8963 -0.8804
   78SLPC  C216 7146   3.217   3.875   8.234 -0.3782  0.2470 -0.5232
   78SLPC  H16R 7147   3.307   3.894   8.296 -2.0112 -2.2330  2.8903
   78SLPC  H16S 7148   3.218   3.776   8.183 -1.3189 -0.4902  0.8464
   78SLPC  C217 7149   3.106   3.876   8.331  0.5062 -0.6053 -0.7209
   78SLPC  H17R 7150   3.019   3.838   8.273  1.4423 -0.6107 -2.1721
   78SLPC  H17S 7151   3.089   3.982   8.358  0.8907 -1.0375  1.3997
   78SLPC  C218 7152   3.134   3.791   8.451  0.9713 -0.2275 -0.4441
   78SLPC  H18R 7153   3.238   3.816   8.479  0.7954  1.8669 -1.4362
   78SLPC  H18S 7154   3.144   3.685   8.418  0.5073 -0.4764  0.1929
   78SLPC  H18T 7155   3.062   3.807   8.534  0.5357  0.6786 -0.9811
   78SLPC   C33 7156   2.790   4.518   6.546  0.2112  0.0792  0.3363
   78SLPC   H3X 7157   2.749   4.534   6.444 -2.7728 -0.3818  1.3815
   78SLPC   H3Y 7158   2.900   4.531   6.540  0.0527  0.9191 -2.3315
   78SLPC   C34 7159   2.729   4.612   6.658  0.5918 -0.8236  0.1753
   78SLPC   H4X 7160   2.621   4.596   6.677  0.2588  1.2471  0.2422
   78SLPC   H4Y 7161   2.714   4.710   6.607 -2.0014  0.1252  2.4683
   78SLPC   C35 7162   2.813   4.643   6.784  0.0500 -0.1974 -0.1485
   78SLPC   H5X 7163   2.802   4.750   6.810  0.1988  0.0855 -1.2252
   78SLPC   H5Y 7164   2.920   4.638   6.757  0.2913 -2.2944  0.9374
   78SLPC   C36 7165   2.772   4.560   6.917  0.0265  0.3077  0.1877
   78SLPC   H6X 7166   2.796   4.453   6.898 -0.9834  0.0348  0.3419
   78SLPC   H6Y 7167   2.662   4.571   6.930 -0.1997 -1.7381  0.3943
   78SLPC   C37 7168   2.839   4.628   7.033 -0.0137 -0.1290 -0.0314
   78SLPC   H7X 7169   2.779   4.602   7.122  2.0667 -2.3052  0.8391
   78SLPC   H7Y 7170   2.839   4.737   7.009  1.6027 -0.4297 -1.6428
   78SLPC   C38 7171   2.982   4.578   7.051 -0.9113  0.5590 -0.7727
   78SLPC   H8X 7172   3.045   4.609   6.965 -0.6989 -2.0332 -1.6560
   78SLPC   H8Y 7173   2.996   4.468   7.057 -0.1072  0.6890 -0.1562
   78SLPC   C39 7174   3.051   4.647   7.167 -0.4662  0.2049 -1.1660
   78SLPC   H9X 7175   3.021   4.753   7.181  0.5931  0.4079 -0.2990
   78SLPC   H9Y 7176   3.159   4.654   7.141 -0.8975  2.6581 -2.6820
   78SLPC  C310 7177   3.048   4.560   7.297 -0.2919  0.5096 -0.1816
   78SLPC  H10X 7178   3.092   4.458   7.289  0.5655  0.7984  0.7003
   78SLPC  H10Y 7179   2.941   4.543   7.325  0.0768 -2.0698 -0.0853
   78SLPC  C311 7180   3.108   4.646   7.409 -0.5529 -0.2466 -0.5829
   78SLPC  H11X 7181   3.059   4.745   7.418 -1.4646 -0.6779 -0.7514
   78SLPC  H11Y 7182   3.215   4.675   7.396  0.2815 -2.3999  0.9977
   78SLPC  C312 7183   3.091   4.587   7.546  0.5762 -0.0694 -0.0113
   78SLPC  H12X 7184   3.163   4.504   7.561  1.1513  0.6113  1.1754
   78SLPC  H12Y 7185   2.988   4.546   7.550 -0.0297  1.4704  2.1976
   78SLPC  C313 7186   3.100   4.690   7.661 -0.4521 -0.5699  0.3362
   78SLPC  H13X 7187   3.012   4.758   7.665  0.1057  0.2192 -0.4361
   78SLPC  H13Y 7188   3.194   4.749   7.650  1.4992 -3.4609  0.3844
   78SLPC  C314 7189   3.122   4.625   7.794  0.9166  0.9408  0.6455
   78SLPC  H14X 7190   3.205   4.556   7.769  0.2972  0.1126  0.8276
   78SLPC  H14Y 7191   3.040   4.552   7.816 -0.1765  1.0360 -2.6260
   78SLPC  C315 7192   3.141   4.708   7.919 -0.6446  0.7245 -0.2481
   78SLPC  H15X 7193   3.041   4.754   7.938 -0.8714 -0.4074  1.5991
   78SLPC  H15Y 7194   3.211   4.791   7.893  0.6846  0.0199  0.9546
   78SLPC  C316 7195   3.174   4.629   8.047  0.0129 -0.2333  0.2271
   78SLPC  H16X 7196   3.275   4.585   8.033 -0.1040 -0.8866  1.2999
   78SLPC  H16Y 7197   3.100   4.546   8.052  0.5332 -0.7400 -0.2892
   78SLPC  C317 7198   3.165   4.709   8.178  0.8015  0.7061  0.4576
   78SLPC  H17X 7199   3.176   4.636   8.262 -0.5887 -0.3070 -0.1830
   78SLPC  H17Y 7200   3.066   4.756   8.196  1.0497  0.6075  2.2817
   78SLPC  C318 7201   3.271   4.819   8.193  0.3467  0.6278 -0.2383
   78SLPC  H18X 7202   3.238   4.905   8.256  1.4815 -0.0018  1.2754
   78SLPC  H18Y 7203   3.300   4.856   8.092  0.0798 -0.3793 -0.6942
   78SLPC  H18Z 7204   3.366   4.785   8.240 -0.9145  1.6532  3.4384
   79SLPC     N 7205   2.482   6.426   5.975  0.0892 -0.9067  0.1936
   79SLPC   C13 7206   2.395   6.467   5.867  0.2361  0.1754 -0.0808
   79SLPC  H13A 7207   2.380   6.385   5.797  2.8416 -2.1935  1.9032
   79SLPC  H13B 7208   2.298   6.502   5.900  0.4280  1.3786 -0.7303
   79SLPC  H13C 7209   2.437   6.549   5.811  2.3836 -1.6350 -1.3134
   79SLPC   C14 7210   2.612   6.405   5.913  0.0094 -0.0854 -0.9833
   79SLPC  H14A 7211   2.681   6.394   5.995  0.3896  1.1704 -1.1137
   79SLPC  H14B 7212   2.624   6.312   5.859 -0.8062 -0.6405 -0.2250
   79SLPC  H14C 7213   2.646   6.488   5.852  1.9767  0.3851  0.6452
   79SLPC   C15 7214   2.438   6.303   6.039 -0.3525  0.4217 -0.2752
   79SLPC  H15A 7215   2.444   6.218   5.973  0.4170 -1.0193  1.5612
   79SLPC  H15B 7216   2.508   6.274   6.116  1.1446  0.9407 -1.4009
   79SLPC  H15C 7217   2.344   6.316   6.092  0.9853  2.6597  1.7912
   79SLPC   C12 7218   2.481   6.548   6.074 -0.2206  0.8884  0.2493
   79SLPC  H12A 7219   2.379   6.567   6.103 -1.4668 -2.4351 -1.4975
   79SLPC  H12B 7220   2.505   6.635   6.014  2.3614 -0.4203 -0.8059
   79SLPC   C11 7221   2.584   6.538   6.187 -0.1773  0.4544 -0.3735
   79SLPC  H11A 7222   2.578   6.435   6.227  2.1425 -1.0296 -3.4123
   79SLPC  H11B 7223   2.553   6.607   6.268 -0.0444  2.4225 -1.9089
   79SLPC     P 7224   2.787   6.699   6.123  0.3183  0.3342  0.3990
   79SLPC   O13 7225   2.909   6.675   6.050 -0.1391  0.7849 -0.0359
   79SLPC   O14 7226   2.694   6.798   6.055 -0.5791 -0.0368 -0.1675
   79SLPC   O12 7227   2.714   6.560   6.146  0.2344 -0.5447 -0.5998
   79SLPC   O11 7228   2.835   6.741   6.269  0.3857  0.0856  0.1771
   79SLPC    C1 7229   2.868   6.661   6.378 -0.3566  0.6067  0.2446
   79SLPC    HA 7230   2.890   6.558   6.344 -0.8098  1.2020 -2.0152
   79SLPC    HB 7231   2.958   6.703   6.428 -0.9383  0.7691  1.1915
   79SLPC    C2 7232   2.759   6.665   6.487  0.4036 -0.6762 -0.3130
   79SLPC    HS 7233   2.668   6.621   6.439 -1.1254  2.9247 -1.0247
   79SLPC   O21 7234   2.751   6.798   6.530 -0.0977 -0.3906 -0.4983
   79SLPC   C21 7235   2.648   6.871   6.484 -0.0878  0.7006 -0.2410
   79SLPC   O22 7236   2.547   6.826   6.429  0.1797  0.4221 -0.0242
   79SLPC   C22 7237   2.667   7.019   6.517 -0.1584 -0.6239  0.3622
   79SLPC   H2R 7238   2.773   7.042   6.492 -0.0004 -2.2106 -0.5990
   79SLPC   H2S 7239   2.598   7.068   6.444  1.2368  1.1545  0.1731
   79SLPC    C3 7240   2.794   6.570   6.606 -0.2202  0.2276 -0.1000
   79SLPC    HX 7241   2.804   6.467   6.566 -2.8811 -0.3618  0.5085
   79SLPC    HY 7242   2.702   6.575   6.669 -1.4315  1.4594 -1.8650
   79SLPC   O31 7243   2.907   6.613   6.684  0.0662 -0.2342  0.8758
   79SLPC   C31 7244   2.948   6.526   6.771 -0.0330 -0.1234 -0.0284
   79SLPC   O32 7245   2.909   6.411   6.781  0.1650 -1.1562 -0.6769
   79SLPC   C32 7246   3.072   6.580   6.852 -0.3267 -0.2450 -0.0150
   79SLPC   H2X 7247   3.067   6.690   6.839  1.1225 -0.3906 -2.3040
   79SLPC   H2Y 7248   3.157   6.541   6.792  0.8682 -0.5502  1.8052
   79SLPC   C23 7249   2.634   7.058   6.661 -0.4776 -0.2426  0.8992
   79SLPC   H3R 7250   2.556   6.989   6.699 -0.1182 -1.9329 -1.2042
   79SLPC   H3S 7251   2.614   7.166   6.676 -0.8490 -0.4073  1.5939
   79SLPC   C24 7252   2.749   7.037   6.759 -0.7848 -1.1745  0.4264
   79SLPC   H4R 7253   2.832   7.109   6.742 -2.1898  0.6101  0.8461
   79SLPC   H4S 7254   2.809   6.944   6.745  1.3810  0.2022 -0.0329
   79SLPC   C25 7255   2.705   7.036   6.901  0.6961 -0.5965 -0.3066
   79SLPC   H5R 7256   2.626   6.961   6.921  0.5209 -0.4519 -0.4545
   79SLPC   H5S 7257   2.658   7.136   6.905  0.8509 -0.4846 -1.2167
   79SLPC   C26 7258   2.811   7.034   7.014 -0.5372  0.8685  0.1776
   79SLPC   H6R 7259   2.857   7.134   7.023  2.1375 -0.2972  0.4284
   79SLPC   H6S 7260   2.892   6.963   6.988 -0.8527 -0.1271  1.7115
   79SLPC   C27 7261   2.759   6.992   7.150  0.6682 -0.3040  0.5794
   79SLPC   H7R 7262   2.744   6.882   7.151 -0.3655 -0.1987  2.5071
   79SLPC   H7S 7263   2.659   7.038   7.161  1.4499  1.6744 -0.0890
   79SLPC   C28 7264   2.844   7.037   7.274  0.5049  0.1822  0.0146
   79SLPC   H8R 7265   2.820   6.952   7.342 -3.1988 -1.0497 -2.5389
   79SLPC   H8S 7266   2.801   7.136   7.303  0.5877  0.7212 -1.6278
   79SLPC   C29 7267   2.994   7.062   7.245 -0.3407  0.5675  0.4338
   79SLPC   H9R 7268   3.020   7.070   7.139  0.7397 -2.9648  0.2738
   79SLPC  C210 7269   3.088   7.068   7.340 -0.5636  0.5011 -0.2988
   79SLPC  H10R 7270   3.191   7.096   7.314 -1.1768  0.9686 -2.3873
   79SLPC  C211 7271   3.068   7.036   7.486 -0.5206  0.2626  0.6550
   79SLPC  H11R 7272   2.964   6.997   7.495 -0.7537  0.6719 -0.1817
   79SLPC  H11S 7273   3.072   7.131   7.544 -1.1672  0.8377 -0.2183
   79SLPC  C212 7274   3.179   6.950   7.542  1.1234  0.4542 -0.4191
   79SLPC  H12R 7275   3.213   6.880   7.465 -1.4300  0.4578 -1.6618
   79SLPC  C213 7276   3.237   6.962   7.661 -0.2075  0.6504 -0.2800
   79SLPC  H13R 7277   3.313   6.885   7.681 -1.2156  0.4874  3.9454
   79SLPC  C214 7278   3.207   7.051   7.776  0.1220  0.1956  0.2506
   79SLPC  H14R 7279   3.128   7.126   7.754 -0.7719 -0.7198  0.2962
   79SLPC  H14S 7280   3.296   7.114   7.799  0.7110  0.3276 -2.1007
   79SLPC  C215 7281   3.161   6.962   7.885 -1.0130 -0.4136  0.1014
   79SLPC  H15R 7282   3.128   7.028   7.968 -2.2350 -1.1763  0.2461
   79SLPC  H15S 7283   3.232   6.888   7.927  0.7508  1.8760  1.3682
   79SLPC  C216 7284   3.028   6.903   7.837  0.2980 -0.7750 -0.0736
   79SLPC  H16R 7285   3.015   6.831   7.920  2.0237  1.5330  2.3856
   79SLPC  H16S 7286   3.033   6.834   7.750  1.5334 -1.7601  0.7434
   79SLPC  C217 7287   2.913   7.009   7.824 -0.1122 -0.1846  0.2402
   79SLPC  H17R 7288   2.912   7.049   7.721  1.1993  1.7014  0.9140
   79SLPC  H17S 7289   2.922   7.091   7.898  1.1512  0.0798 -0.1885
   79SLPC  C218 7290   2.793   6.923   7.831  1.1826  0.5000 -0.4788
   79SLPC  H18R 7291   2.702   6.972   7.788  1.2142  3.9804  2.8579
   79SLPC  H18S 7292   2.770   6.893   7.935  0.6549 -0.5241 -0.8772
   79SLPC  H18T 7293   2.804   6.829   7.773  0.0173  0.5348 -0.7846
   79SLPC   C33 7294   3.071   6.539   6.996  0.2688  0.3167  0.1546
   79SLPC   H3X 7295   3.071   6.428   6.995 -0.5849  0.3044 -1.5863
   79SLPC   H3Y 7296   2.970   6.573   7.026 -0.9526 -2.0709 -0.9388
   79SLPC   C34 7297   3.176   6.585   7.086 -0.2095  0.3828  0.4953
   79SLPC   H4X 7298   3.163   6.694   7.103 -3.7150 -0.2172  2.5648
   79SLPC   H4Y 7299   3.278   6.565   7.046  0.4405  2.1669  1.1542
   79SLPC   C35 7300   3.172   6.510   7.221  0.3281  0.3596 -0.9463
   79SLPC   H5X 7301   3.201   6.405   7.199  1.6190  0.2586  1.0158
   79SLPC   H5Y 7302   3.065   6.506   7.252  1.0054 -2.1217  1.4514
   79SLPC   C36 7303   3.257   6.575   7.328 -0.0205  1.0398  0.1184
   79SLPC   H6X 7304   3.228   6.672   7.374 -0.0703  0.0977  2.1621
   79SLPC   H6Y 7305   3.352   6.601   7.276 -0.5842  2.1759 -0.3959
   79SLPC   C37 7306   3.286   6.482   7.455  0.1684 -0.8175 -0.4634
   79SLPC   H7X 7307   3.313   6.379   7.424  1.5381 -0.8342  0.6910
   79SLPC   H7Y 7308   3.200   6.466   7.524 -0.4510 -1.6308 -1.3921
   79SLPC   C38 7309   3.396   6.531   7.551  0.6930  0.0919  0.0700
   79SLPC   H8X 7310   3.385   6.641   7.561  0.4552  0.0726  0.0290
   79SLPC   H8Y 7311   3.500   6.520   7.512 -0.3250  0.2527 -2.9421
   79SLPC   C39 7312   3.386   6.467   7.685  0.1793  0.3040  0.2786
   79SLPC   H9X 7313   3.393   6.357   7.672  0.0368  0.2900  0.3274
   79SLPC   H9Y 7314   3.290   6.496   7.733 -1.9661 -1.6904 -2.4819
   79SLPC  C310 7315   3.492   6.507   7.780 -0.1054  0.0517 -0.9356
   79SLPC  H10X 7316   3.458   6.603   7.826 -0.1240 -0.0298 -0.7785
   79SLPC  H10Y 7317   3.597   6.508   7.743  0.6424 -1.8056  0.9244
   79SLPC  C311 7318   3.497   6.404   7.897 -0.1579 -0.2993 -0.0442
   79SLPC  H11X 7319   3.529   6.309   7.849  1.0117  0.4393 -0.7970
   79SLPC  H11Y 7320   3.397   6.394   7.944  0.3896  2.0577  1.8451
   79SLPC  C312 7321   3.594   6.424   8.014 -0.4626 -0.8934  1.3401
   79SLPC  H12X 7322   3.592   6.532   8.041  3.4420 -0.8217  1.8159
   79SLPC  H12Y 7323   3.700   6.411   7.983 -0.8619 -1.9867  0.3675
   79SLPC  C313 7324   3.568   6.350   8.147 -0.3156  0.0766  0.2964
   79SLPC  H13X 7325   3.566   6.241   8.128 -0.0449 -0.2838  2.1904
   79SLPC  H13Y 7326   3.464   6.380   8.175 -0.2795 -0.6241  1.2002
   79SLPC  C314 7327   3.675   6.387   8.255  0.0615  0.3196  1.1547
   79SLPC  H14X 7328   3.622   6.387   8.352  2.0934  0.3026  2.3242
   79SLPC  H14Y 7329   3.705   6.492   8.234 -0.2841  0.4279  1.1992
   79SLPC  C315 7330   3.795   6.299   8.249 -0.0098  0.0209 -0.0906
   79SLPC  H15X 7331   3.888   6.345   8.290 -0.1043 -1.8778  2.5145
   79SLPC  H15Y 7332   3.819   6.283   8.142 -0.5276  0.8432 -0.3395
   79SLPC  C316 7333   3.773   6.168   8.326 -0.1747 -0.4648 -0.5466
   79SLPC  H16X 7334   3.672   6.127   8.305 -1.0408  1.3795 -0.2031
   79SLPC  H16Y 7335   3.779   6.187   8.435 -3.3241 -0.8469 -0.2011
   79SLPC  C317 7336   3.872   6.056   8.297  1.4763  0.0926 -0.8703
   79SLPC  H17X 7337   3.976   6.079   8.329  0.6925  0.5102  1.5651
   79SLPC  H17Y 7338   3.863   6.042   8.187  0.0414 -3.2157 -0.4310
   79SLPC  C318 7339   3.837   5.921   8.358 -0.3188  0.0061  0.0187
   79SLPC  H18X 7340   3.927   5.857   8.353  0.7633  1.4639  0.0047
   79SLPC  H18Y 7341   3.755   5.875   8.300 -0.1470 -1.0792  0.6123
   79SLPC  H18Z 7342   3.813   5.936   8.466 -0.8057  1.4908 -0.2686
   80SLPC     N 7343   0.619   5.048   6.004  0.2069 -0.4022  0.0740
   80SLPC   C13 7344   0.760   5.035   6.060  0.1347  0.1402  0.1057
   80SLPC  H13A 7345   0.807   5.133   6.057  1.4131 -0.4447  0.3831
   80SLPC  H13B 7346   0.760   4.999   6.162  0.3477  0.2076  0.1312
   80SLPC  H13C 7347   0.826   4.967   6.008 -0.7132 -0.4851 -0.1653
   80SLPC   C14 7348   0.632   5.018   5.860  0.1781  0.3516  0.1572
   80SLPC  H14A 7349   0.558   5.053   5.790 -0.1300  0.3003  0.4554
   80SLPC  H14B 7350   0.726   5.060   5.829 -0.2328 -0.0346 -1.7047
   80SLPC  H14C 7351   0.651   4.912   5.850 -2.8536 -0.2535  0.0431
   80SLPC   C15 7352   0.571   5.189   6.024  0.2231  0.0322 -0.1366
   80SLPC  H15A 7353   0.633   5.268   5.985  0.4351  0.6264  1.3336
   80SLPC  H15B 7354   0.479   5.203   5.969  1.6806  2.9080 -2.0512
   80SLPC  H15C 7355   0.554   5.201   6.130 -0.7191  0.4837 -0.3308
   80SLPC   C12 7356   0.513   4.959   6.057 -0.0084 -0.4939 -0.3158
   80SLPC  H12A 7357   0.541   4.859   6.028  2.7701 -0.0578  0.5481
   80SLPC  H12B 7358   0.419   4.977   6.006 -0.9876  0.4249  1.6813
   80SLPC   C11 7359   0.488   4.954   6.213  0.4330  0.3394  0.2269
   80SLPC  H11A 7360   0.409   4.878   6.227  1.4298 -0.7225  0.2628
   80SLPC  H11B 7361   0.454   5.053   6.250  1.6262  0.5082  0.9415
   80SLPC     P 7362   0.648   4.766   6.315  0.0509  0.1640  0.2503
   80SLPC   O13 7363   0.599   4.690   6.200  0.4604 -0.4125 -0.3109
   80SLPC   O14 7364   0.789   4.761   6.339 -0.1003  0.2838 -0.2359
   80SLPC   O12 7365   0.596   4.919   6.300 -0.1013 -0.0278  1.0466
   80SLPC   O11 7366   0.567   4.703   6.436  0.2652 -0.5806 -0.0476
   80SLPC    C1 7367   0.592   4.752   6.569  0.1884 -0.0812 -0.4946
   80SLPC    HA 7368   0.649   4.848   6.574 -1.9265  1.3598 -2.4118
   80SLPC    HB 7369   0.492   4.762   6.616  0.4238  0.3138 -0.0601
   80SLPC    C2 7370   0.654   4.638   6.658  0.2799  0.1205 -0.0576
   80SLPC    HS 7371   0.620   4.541   6.617  0.1565 -0.6985  1.8416
   80SLPC   O21 7372   0.604   4.656   6.791 -0.1130 -0.2175  0.0239
   80SLPC   C21 7373   0.531   4.561   6.844 -1.0584 -0.2817  0.8438
   80SLPC   O22 7374   0.504   4.456   6.797  0.4728  0.2416 -0.4470
   80SLPC   C22 7375   0.464   4.614   6.972 -0.5817 -0.2634 -0.2076
   80SLPC   H2R 7376   0.527   4.693   7.018 -0.3504 -1.4801  1.6587
   80SLPC   H2S 7377   0.366   4.660   6.945  0.0060  1.2228  0.1207
   80SLPC    C3 7378   0.803   4.636   6.660  0.1805  0.4253 -0.2438
   80SLPC    HX 7379   0.839   4.740   6.671  3.0766 -0.6012  1.0839
   80SLPC    HY 7380   0.837   4.612   6.557 -1.0638  1.8647 -1.0247
   80SLPC   O31 7381   0.866   4.541   6.753  0.5269  0.3705 -0.2646
   80SLPC   C31 7382   0.862   4.412   6.722 -0.4939 -0.1381 -0.4373
   80SLPC   O32 7383   0.815   4.354   6.626  0.1148 -0.3882 -0.1969
   80SLPC   C32 7384   0.964   4.352   6.818  0.1858  0.2021 -0.7260
   80SLPC   H2X 7385   1.050   4.421   6.828  0.4564 -0.2873  0.5633
   80SLPC   H2Y 7386   1.006   4.260   6.774  1.4817  0.1606  0.5184
   80SLPC   C23 7387   0.429   4.505   7.074  0.5031 -0.6105 -0.0315
   80SLPC   H3R 7388   0.515   4.451   7.119 -0.3954 -0.8031  1.5342
   80SLPC   H3S 7389   0.371   4.424   7.026  0.4740 -0.2003 -0.6935
   80SLPC   C24 7390   0.353   4.573   7.190  0.3269  0.7227  0.2369
   80SLPC   H4R 7391   0.334   4.489   7.261  0.2600  0.2048 -0.3878
   80SLPC   H4S 7392   0.259   4.623   7.159  0.7538  1.4297  0.0471
   80SLPC   C25 7393   0.428   4.678   7.268 -0.8802 -0.6194 -0.1206
   80SLPC   H5R 7394   0.425   4.772   7.209  0.5442 -0.2974  0.2699
   80SLPC   H5S 7395   0.537   4.658   7.277 -0.1711  2.2575 -1.1149
   80SLPC   C26 7396   0.370   4.702   7.403 -0.3874 -0.1157  0.1350
   80SLPC   H6R 7397   0.428   4.628   7.462  0.8654 -0.7537 -1.8331
   80SLPC   H6S 7398   0.262   4.677   7.402 -0.3487 -0.3022  0.3700
   80SLPC   C27 7399   0.397   4.839   7.465 -0.7549  0.0468 -0.5929
   80SLPC   H7R 7400   0.339   4.913   7.405  0.6149  0.0898 -1.9074
   80SLPC   H7S 7401   0.504   4.867   7.462 -1.2011  2.0755  0.2793
   80SLPC   C28 7402   0.356   4.839   7.611  0.0394  0.8216 -0.6057
   80SLPC   H8R 7403   0.406   4.916   7.674  0.4508 -0.7262  1.0383
   80SLPC   H8S 7404   0.388   4.742   7.653  1.2310  1.1710 -0.6757
   80SLPC   C29 7405   0.208   4.855   7.628  0.1849 -0.0584  0.0624
   80SLPC   H9R 7406   0.158   4.757   7.621  0.8353 -0.4495  0.7728
   80SLPC  C210 7407   0.131   4.966   7.640 -0.2994  0.2893 -0.2107
   80SLPC  H10R 7408   0.025   4.953   7.669 -0.4778 -1.2196 -1.4498
   80SLPC  C211 7409   0.196   5.099   7.638  0.1054  0.5356  0.7399
   80SLPC  H11R 7410   0.234   5.124   7.537 -3.7022 -0.0341 -1.0050
   80SLPC  H11S 7411   0.277   5.110   7.714  3.1816 -0.6145 -2.1292
   80SLPC  C212 7412   0.094   5.207   7.667 -0.2267 -0.1607 -0.2611
   80SLPC  H12R 7413   0.036   5.234   7.578  0.5430  0.4133 -0.5958
   80SLPC  C213 7414   0.054   5.256   7.783 -0.2758  0.5760 -0.4635
   80SLPC  H13R 7415  -0.019   5.338   7.788 -0.8183  0.2909 -2.8438
   80SLPC  C214 7416   0.114   5.205   7.909  0.4538 -0.0152 -0.2190
   80SLPC  H14R 7417   0.224   5.197   7.899  0.2149 -1.6394 -2.2991
   80SLPC  H14S 7418   0.079   5.100   7.922 -0.3020  0.1624 -0.7140
   80SLPC  C215 7419   0.074   5.284   8.037 -0.5334  0.8785  0.1012
   80SLPC  H15R 7420  -0.036   5.298   8.049 -0.5997  0.2591  0.2626
   80SLPC  H15S 7421   0.112   5.388   8.032 -1.8039  1.8264  4.8129
   80SLPC  C216 7422   0.143   5.219   8.159 -0.5845  0.4417  0.7708
   80SLPC  H16R 7423   0.252   5.209   8.145 -0.5736  1.2756  0.1650
   80SLPC  H16S 7424   0.108   5.114   8.167  1.0185 -0.1591  0.2817
   80SLPC  C217 7425   0.131   5.308   8.287  0.1326  1.1709 -0.2274
   80SLPC  H17R 7426   0.027   5.291   8.322  0.4974 -1.0186 -0.0627
   80SLPC  H17S 7427   0.157   5.412   8.256 -0.5709  1.5115  0.3113
   80SLPC  C218 7428   0.226   5.266   8.396  0.6232 -0.5962 -0.1163
   80SLPC  H18R 7429   0.209   5.331   8.484 -1.5756 -1.4327  0.1300
   80SLPC  H18S 7430   0.332   5.271   8.362  0.2896 -1.4033 -1.3526
   80SLPC  H18T 7431   0.206   5.160   8.425  1.6427 -1.4026 -2.1066
   80SLPC   C33 7432   0.911   4.308   6.953  0.2808  0.0733 -0.0632
   80SLPC   H3X 7433   0.964   4.223   7.002 -0.4865  0.6846  1.9314
   80SLPC   H3Y 7434   0.808   4.274   6.928  0.2630 -0.2125  0.3896
   80SLPC   C34 7435   0.897   4.413   7.055 -0.4047  0.5052 -0.1047
   80SLPC   H4X 7436   0.828   4.495   7.026  1.3018  2.7994  1.8847
   80SLPC   H4Y 7437   0.999   4.458   7.059  0.1542 -0.7751  1.3895
   80SLPC   C35 7438   0.861   4.366   7.200 -0.0393  0.4669 -0.0480
   80SLPC   H5X 7439   0.933   4.289   7.233 -1.3242  0.1597  2.2265
   80SLPC   H5Y 7440   0.765   4.312   7.190  0.5579 -0.4495 -1.0116
   80SLPC   C36 7441   0.842   4.486   7.298 -0.6867 -0.7220 -0.6325
   80SLPC   H6X 7442   0.782   4.566   7.248 -0.2816 -0.8911 -1.4058
   80SLPC   H6Y 7443   0.936   4.532   7.335 -0.6323  0.0688 -1.6981
   80SLPC   C37 7444   0.757   4.440   7.414 -0.4754 -1.0677 -0.3530
   80SLPC   H7X 7445   0.791   4.352   7.473 -1.4809  0.3424  2.5246
   80SLPC   H7Y 7446   0.652   4.421   7.384 -1.0385 -0.4342  1.0949
   80SLPC   C38 7447   0.743   4.555   7.519 -0.0087 -0.1179 -0.0268
   80SLPC   H8X 7448   0.700   4.651   7.481 -0.4164 -0.5430 -0.6631
   80SLPC   H8Y 7449   0.848   4.574   7.549  0.0397 -0.8063  0.2473
   80SLPC   C39 7450   0.652   4.507   7.631 -0.1875  0.3967  0.0068
   80SLPC   H9X 7451   0.677   4.406   7.669  2.1323  1.0217  0.3083
   80SLPC   H9Y 7452   0.549   4.499   7.589 -0.5508  0.2055  0.9102
   80SLPC  C310 7453   0.637   4.601   7.755 -0.1621  0.4137 -0.2480
   80SLPC  H10X 7454   0.629   4.705   7.718 -1.1968  0.6648  0.6302
   80SLPC  H10Y 7455   0.731   4.591   7.814 -0.4485 -0.4151  0.0879
   80SLPC  C311 7456   0.521   4.566   7.854 -0.1216  0.0711 -0.3073
   80SLPC  H11X 7457   0.543   4.475   7.914 -1.3841 -0.9113 -1.2658
   80SLPC  H11Y 7458   0.434   4.545   7.788 -1.2921 -1.6522  1.6803
   80SLPC  C312 7459   0.487   4.683   7.955 -0.3844 -0.9059 -0.0863
   80SLPC  H12X 7460   0.474   4.779   7.900  4.5861  1.5080  2.2737
   80SLPC  H12Y 7461   0.578   4.702   8.016 -0.2957 -0.4157 -0.3642
   80SLPC  C313 7462   0.370   4.658   8.047  0.2748  0.5502  0.5717
   80SLPC  H13X 7463   0.386   4.557   8.090 -1.4695 -1.0647 -2.2341
   80SLPC  H13Y 7464   0.276   4.651   7.988 -1.1865 -2.3636  2.9693
   80SLPC  C314 7465   0.357   4.747   8.165 -0.4532  0.2838  0.5112
   80SLPC  H14X 7466   0.362   4.854   8.134  0.7268 -0.3839 -1.8730
   80SLPC  H14Y 7467   0.448   4.735   8.227 -0.9090  0.1794  1.1668
   80SLPC  C315 7468   0.226   4.716   8.241 -0.4858 -0.2364  0.1156
   80SLPC  H15X 7469   0.234   4.605   8.242  1.6046 -0.1239  1.4123
   80SLPC  H15Y 7470   0.147   4.757   8.174 -0.1518  1.5807  0.7686
   80SLPC  C316 7471   0.214   4.789   8.374 -0.4886  0.0958 -0.0876
   80SLPC  H16X 7472   0.278   4.878   8.357  0.1967 -0.5777 -1.1264
   80SLPC  H16Y 7473   0.266   4.718   8.443 -0.6143  0.8886  0.8435
   80SLPC  C317 7474   0.074   4.831   8.415 -0.0208 -0.5347  0.1869
   80SLPC  H17X 7475   0.016   4.737   8.419  0.7974 -1.0319  0.7488
   80SLPC  H17Y 7476   0.048   4.897   8.330 -0.3119 -0.9516 -0.0487
   80SLPC  C318 7477   0.061   4.901   8.555  0.0690  0.1681 -0.1458
   80SLPC  H18X 7478  -0.043   4.940   8.566  0.7206  2.4092 -1.2334
   80SLPC  H18Y 7479   0.130   4.988   8.560 -0.4244  0.4759  2.7121
   80SLPC  H18Z 7480   0.079   4.832   8.639  1.0977 -2.4324 -2.3431
   81SAPS     N 7481   3.392   2.130  10.935  0.0817 -0.1084  0.4354
   81SAPS   HN1 7482   3.344   2.220  10.953  0.2844 -0.3100  2.0847
   81SAPS   HN2 7483   3.378   2.095  10.838  0.9090 -2.8498  1.2178
   81SAPS   HN3 7484   3.354   2.046  10.983  2.3827 -2.2603 -1.2803
   81SAPS   C12 7485   3.542   2.147  10.954  0.8294 -0.2714 -0.0648
   81SAPS  H12A 7486   3.553   2.200  11.047  0.7895 -2.1618  1.0812
   81SAPS   C13 7487   3.602   2.009  10.987  0.5931 -0.2531  0.0478
   81SAPS  O13A 7488   3.538   1.902  10.986  0.0666  0.1044 -0.0569
   81SAPS  O13B 7489   3.726   2.012  11.029  0.4278  0.2955  0.2247
   81SAPS   C11 7490   3.608   2.209  10.826 -0.3073  0.4411 -0.2231
   81SAPS  H11A 7491   3.714   2.223  10.854  0.0688 -0.8657 -0.9207
   81SAPS  H11B 7492   3.581   2.316  10.812  2.1250  0.9183 -1.6835
   81SAPS     P 7493   3.719   2.147  10.604  0.1912 -0.1146 -0.4202
   81SAPS   O13 7494   3.837   2.096  10.679 -0.4923 -0.1017 -0.1882
   81SAPS   O14 7495   3.680   2.069  10.487  0.2515  0.2260 -0.5776
   81SAPS   O12 7496   3.601   2.133  10.708  0.0104 -0.3165  0.1580
   81SAPS   O11 7497   3.726   2.299  10.572 -0.1975 -0.5881 -0.0699
   81SAPS    C1 7498   3.610   2.356  10.502 -1.3182  0.5184 -0.2407
   81SAPS    HA 7499   3.515   2.304  10.530 -0.3017 -0.0211  2.5686
   81SAPS    HB 7500   3.594   2.462  10.533 -1.6932  0.4552 -0.2084
   81SAPS    C2 7501   3.628   2.346  10.350  0.6244  0.5734 -0.1751
   81SAPS    HS 7502   3.648   2.242  10.317  1.7279  0.5314  0.5498
   81SAPS   O21 7503   3.736   2.430  10.307  0.7928  0.0332  0.0235
   81SAPS   C21 7504   3.857   2.369  10.297 -0.0752  0.3549  0.5442
   81SAPS   O22 7505   3.872   2.249  10.321  0.2943  0.9312  0.4736
   81SAPS   C22 7506   3.958   2.469  10.254  0.2497 -0.0919 -0.3916
   81SAPS   H2R 7507   3.913   2.566  10.283  1.1598  0.2297 -0.0266
   81SAPS   H2S 7508   4.045   2.450  10.321  0.7028 -1.5026 -1.3244
   81SAPS    C3 7509   3.499   2.385  10.284  0.1852  0.9116  0.5038
   81SAPS    HX 7510   3.472   2.492  10.287 -1.8340  0.6286 -2.6046
   81SAPS    HY 7511   3.413   2.337  10.334  0.3547  0.6562  0.5535
   81SAPS   O31 7512   3.497   2.353  10.145 -0.2714 -0.0557  0.2671
   81SAPS   C31 7513   3.381   2.330  10.091  0.3781  0.0956  0.3871
   81SAPS   O32 7514   3.268   2.342  10.143 -0.4796 -0.7398  0.1873
   81SAPS   C32 7515   3.397   2.271   9.941 -0.2846 -0.6162  0.0052
   81SAPS   H2X 7516   3.450   2.175   9.957 -1.5119 -1.3902 -0.4306
   81SAPS   H2Y 7517   3.464   2.343   9.891  1.8151 -2.2961  0.2666
   81SAPS   C23 7518   3.997   2.466  10.107 -0.1582  0.3827  0.0428
   81SAPS   H3R 7519   3.913   2.450  10.036  0.7219 -0.2046 -0.8934
   81SAPS   H3S 7520   4.066   2.382  10.085 -0.7374 -0.1581  0.2670
   81SAPS   C24 7521   4.063   2.597  10.061  0.5577 -0.0610 -0.1422
   81SAPS   H4R 7522   4.114   2.641  10.149  2.1657  0.3055 -1.2072
   81SAPS   H4S 7523   3.979   2.669  10.045  0.1409 -0.5968 -0.3923
   81SAPS   C25 7524   4.157   2.588   9.944 -0.0558  0.6292 -0.3889
   81SAPS   H5R 7525   4.258   2.576   9.986 -0.5188 -3.3938 -0.0052
   81SAPS   C26 7526   4.125   2.600   9.809  0.5745  1.2301 -0.5902
   81SAPS   H6R 7527   4.196   2.589   9.726 -1.5773  1.0079 -2.5029
   81SAPS   C27 7528   3.986   2.624   9.756  0.7646 -0.0956 -0.0914
   81SAPS   H7R 7529   3.993   2.710   9.686 -0.5488 -1.6633 -2.2612
   81SAPS   H7S 7530   3.902   2.654   9.823 -0.5544 -1.8630 -0.8718
   81SAPS   C28 7531   3.937   2.508   9.671 -0.0243 -0.7179 -0.6059
   81SAPS   H8R 7532   3.875   2.441   9.732  2.6201 -2.6417  0.2003
   81SAPS   C29 7533   3.969   2.484   9.541 -0.5945 -0.1938 -0.0038
   81SAPS   H9R 7534   3.910   2.402   9.496 -1.0999 -0.0566  0.3931
   81SAPS  C210 7535   4.049   2.575   9.450 -0.7549  0.9669 -0.2604
   81SAPS  H10R 7536   4.114   2.652   9.497 -1.0555  0.6001  0.7648
   81SAPS  H10S 7537   3.982   2.629   9.380 -2.2508 -1.8028 -1.1084
   81SAPS  C211 7538   4.140   2.489   9.358 -0.9119 -0.3586 -0.0170
   81SAPS  H11R 7539   4.121   2.381   9.359 -2.7186 -0.0716  0.5505
   81SAPS  C212 7540   4.246   2.528   9.284 -0.9662 -0.0519  0.2304
   81SAPS  H12R 7541   4.294   2.457   9.215 -0.4835  0.2819  0.2117
   81SAPS  C213 7542   4.305   2.663   9.269 -0.2653 -0.4116 -0.5766
   81SAPS  H13R 7543   4.414   2.670   9.251 -0.1338 -2.0865 -0.6059
   81SAPS  H13S 7544   4.283   2.722   9.360 -2.5475 -1.2425 -0.5077
   81SAPS  C214 7545   4.234   2.735   9.159  0.6643  0.1484 -0.1019
   81SAPS  H14R 7546   4.146   2.791   9.194 -0.1869 -0.7534 -0.7355
   81SAPS  C215 7547   4.252   2.749   9.023  0.1638 -0.2083  0.1542
   81SAPS  H15R 7548   4.175   2.798   8.962 -0.5052 -0.5067  0.7553
   81SAPS  C216 7549   4.360   2.682   8.939 -0.0249 -0.4824  0.0492
   81SAPS  H16R 7550   4.427   2.640   9.017 -3.4603 -3.1377  1.8678
   81SAPS  H16S 7551   4.401   2.754   8.865 -0.6485 -1.5656 -1.3762
   81SAPS  C217 7552   4.294   2.567   8.858 -0.2709 -0.6593  0.5884
   81SAPS  H17R 7553   4.240   2.497   8.925 -0.7558 -2.5276 -1.6062
   81SAPS  H17S 7554   4.365   2.499   8.805  2.5859  1.9019  0.8880
   81SAPS  C218 7555   4.191   2.627   8.754  0.6696  0.3282  0.1636
   81SAPS  H18R 7556   4.108   2.670   8.814  0.1682 -0.2224 -0.1331
   81SAPS  H18S 7557   4.159   2.545   8.687  2.8526  1.7080 -2.7984
   81SAPS  C219 7558   4.244   2.727   8.651 -0.2083  0.1514 -0.3773
   81SAPS  H19R 7559   4.340   2.693   8.606  0.4881  0.4076  0.8634
   81SAPS  H19S 7560   4.286   2.809   8.713 -1.2671  1.4302 -1.2960
   81SAPS  C220 7561   4.138   2.776   8.541 -0.5961 -0.2320  0.3455
   81SAPS  H20R 7562   4.082   2.705   8.476 -0.2750 -0.0058 -0.1888
   81SAPS  H20S 7563   4.189   2.840   8.465 -1.5974 -0.0509 -0.1937
   81SAPS  H20T 7564   4.060   2.829   8.599  0.0508  1.7313 -0.4616
   81SAPS   C33 7565   3.258   2.263   9.871  0.2784 -0.0368  0.1197
   81SAPS   H3X 7566   3.201   2.359   9.866 -0.0455 -0.0545  2.4535
   81SAPS   H3Y 7567   3.192   2.186   9.915 -0.5117  0.1605 -0.6816
   81SAPS   C34 7568   3.268   2.215   9.724 -0.7410 -0.6979 -0.3147
   81SAPS   H4X 7569   3.168   2.193   9.681 -0.2682 -1.3215 -1.1129
   81SAPS   H4Y 7570   3.327   2.121   9.731 -0.5328 -0.5749 -0.4440
   81SAPS   C35 7571   3.327   2.325   9.641 -0.3625 -0.0083 -0.3296
   81SAPS   H5X 7572   3.431   2.355   9.664 -0.5526  2.1825 -2.0211
   81SAPS   H5Y 7573   3.265   2.416   9.656 -0.1629 -0.0630  0.8824
   81SAPS   C36 7574   3.311   2.283   9.489  0.0875  0.1607 -0.1799
   81SAPS   H6X 7575   3.207   2.262   9.459 -0.7557  0.8052  2.1157
   81SAPS   H6Y 7576   3.361   2.186   9.467  1.0061  0.1108  1.8969
   81SAPS   C37 7577   3.377   2.386   9.395 -0.3491  1.1845 -0.0600
   81SAPS   H7X 7578   3.414   2.332   9.305  2.7850 -1.5770  2.6414
   81SAPS   H7Y 7579   3.467   2.432   9.440  0.1088  0.5249 -0.2777
   81SAPS   C38 7580   3.291   2.507   9.366 -0.3927 -0.1969  0.5103
   81SAPS   H8X 7581   3.267   2.569   9.455  0.1573  0.0934  0.4586
   81SAPS   H8Y 7582   3.196   2.471   9.320 -1.2470  0.1406  1.9628
   81SAPS   C39 7583   3.355   2.605   9.269 -0.3301 -0.1104  0.4441
   81SAPS   H9X 7584   3.459   2.623   9.302 -0.6689  2.8064  0.1583
   81SAPS   H9Y 7585   3.318   2.710   9.265  0.7742  0.2549 -1.9122
   81SAPS  C310 7586   3.359   2.561   9.122 -0.0997  0.0954 -0.2274
   81SAPS  H10X 7587   3.260   2.512   9.108  0.3716 -0.7573 -0.6764
   81SAPS  H10Y 7588   3.441   2.489   9.098  0.6895  0.8892  0.0110
   81SAPS  C311 7589   3.371   2.680   9.026 -0.6842  0.6226  0.4403
   81SAPS  H11X 7590   3.458   2.736   9.066  0.4975 -0.9460  0.1326
   81SAPS  H11Y 7591   3.282   2.747   9.033  0.6892  2.6790 -0.9953
   81SAPS  C312 7592   3.391   2.628   8.880 -0.4705 -0.2931 -0.5058
   81SAPS  H12X 7593   3.493   2.587   8.861 -0.0089  1.1420 -1.2257
   81SAPS  H12Y 7594   3.392   2.721   8.819 -0.8336 -0.2674 -0.4758
   81SAPS  C313 7595   3.287   2.530   8.826 -0.4462 -1.2332 -0.4127
   81SAPS  H13X 7596   3.187   2.575   8.844  1.6052  3.3882  1.0416
   81SAPS  H13Y 7597   3.287   2.436   8.886 -0.3989 -0.0026  1.6054
   81SAPS  C314 7598   3.323   2.479   8.686  0.8704 -0.1905 -0.7119
   81SAPS  H14X 7599   3.268   2.384   8.672  1.9545 -0.6720 -1.8249
   81SAPS  H14Y 7600   3.430   2.449   8.689  0.9499  0.0246  2.3198
   81SAPS  C315 7601   3.288   2.581   8.582 -0.5477  0.1825  1.0653
   81SAPS  H15X 7602   3.339   2.676   8.610 -1.1772  0.2505  2.0207
   81SAPS  H15Y 7603   3.182   2.611   8.587 -0.4209  1.0808 -0.7703
   81SAPS  C316 7604   3.314   2.538   8.433 -0.5273  0.1516 -0.5809
   81SAPS  H16X 7605   3.256   2.445   8.419 -0.6419  0.1905 -0.3704
   81SAPS  H16Y 7606   3.422   2.513   8.422 -1.0458 -1.2485 -3.0308
   81SAPS  C317 7607   3.273   2.644   8.343 -0.3290  0.2465 -0.0179
   81SAPS  H17X 7608   3.322   2.744   8.343 -0.0893  0.1312 -0.1530
   81SAPS  H17Y 7609   3.166   2.663   8.364  0.4140  3.0106  1.8800
   81SAPS  C318 7610   3.279   2.601   8.191  0.1202  0.0273 -0.1233
   81SAPS  H18X 7611   3.220   2.675   8.133 -0.2342  0.9093  1.3198
   81SAPS  H18Y 7612   3.236   2.500   8.172 -2.1575  0.6961  1.1422
   81SAPS  H18Z 7613   3.378   2.611   8.142 -0.3448  2.8292 -0.6466
   82SAPS     N 7614   0.003   1.685  10.609 -0.1955  0.2792 -0.0322
   82SAPS   HN1 7615  -0.085   1.734  10.583  1.4549  2.7341 -1.4636
   82SAPS   HN2 7616   0.024   1.601  10.552  1.9576 -0.4999  1.7572
   82SAPS   HN3 7617   0.014   1.665  10.710 -0.7837 -0.2130 -0.0608
   82SAPS   C12 7618   0.116   1.776  10.572  0.7835 -0.2576 -0.1005
   82SAPS  H12A 7619   0.084   1.826  10.482 -0.2003 -1.1625 -0.2697
   82SAPS   C13 7620   0.149   1.888  10.675  0.2482  0.0396  0.2140
   82SAPS  O13A 7621   0.103   1.890  10.790 -0.3086  0.3367  0.0358
   82SAPS  O13B 7622   0.220   1.986  10.643  0.5785 -0.1034 -0.1367
   82SAPS   C11 7623   0.248   1.700  10.555 -0.3262 -0.5762 -0.2601
   82SAPS  H11A 7624   0.328   1.775  10.538  0.0741 -1.4607 -2.6184
   82SAPS  H11B 7625   0.235   1.654  10.454  2.5033 -0.6331 -0.6961
   82SAPS     P 7626   0.258   1.454  10.652  0.0157 -0.0292 -0.4386
   82SAPS   O13 7627   0.335   1.389  10.756  0.1374  0.6654 -0.2564
   82SAPS   O14 7628   0.114   1.423  10.631 -0.6326  0.0688 -0.4750
   82SAPS   O12 7629   0.277   1.608  10.660  0.2173 -0.4791 -0.1767
   82SAPS   O11 7630   0.325   1.427  10.512  0.2879  0.3875  0.4767
   82SAPS    C1 7631   0.451   1.462  10.460  0.4903  0.6907 -0.9352
   82SAPS    HA 7632   0.473   1.568  10.488  3.5641 -0.5199  2.0201
   82SAPS    HB 7633   0.525   1.414  10.527 -0.1599  0.5281 -0.3190
   82SAPS    C2 7634   0.471   1.408  10.318 -0.3712  0.0555 -0.5476
   82SAPS    HS 7635   0.570   1.447  10.289  0.2819 -0.0638  1.3806
   82SAPS   O21 7636   0.368   1.465  10.237 -0.0870  0.0281  0.0422
   82SAPS   C21 7637   0.408   1.506  10.117  0.4935  0.2971 -0.5537
   82SAPS   O22 7638   0.518   1.494  10.066  0.0974  0.3935 -0.1115
   82SAPS   C22 7639   0.292   1.565  10.038 -0.5008 -0.1942 -0.3004
   82SAPS   H2R 7640   0.230   1.485   9.994  0.0401 -1.1923  0.6903
   82SAPS   H2S 7641   0.218   1.613  10.105  0.6054 -1.5622  2.0380
   82SAPS    C3 7642   0.466   1.250  10.316 -0.3642  0.2975  0.2903
   82SAPS    HX 7643   0.370   1.219  10.362 -1.9497  0.2354 -2.8711
   82SAPS    HY 7644   0.551   1.209  10.376  0.7842  1.1480 -0.7226
   82SAPS   O31 7645   0.456   1.204  10.179  0.2787 -0.0676 -0.2165
   82SAPS   C31 7646   0.539   1.103  10.151  0.1193 -0.1036 -0.1838
   82SAPS   O32 7647   0.613   1.053  10.232  0.1062 -0.1631 -0.0561
   82SAPS   C32 7648   0.522   1.048  10.005 -0.1664  0.4267 -0.6413
   82SAPS   H2X 7649   0.498   1.139   9.946 -0.1650  1.3876  0.7916
   82SAPS   H2Y 7650   0.440   0.974   9.999  0.1874 -0.1653  1.0956
   82SAPS   C23 7651   0.354   1.665   9.932 -0.1396  0.6512 -0.0767
   82SAPS   H3R 7652   0.450   1.627   9.892 -0.2450  0.1409  0.1420
   82SAPS   H3S 7653   0.385   1.761   9.978 -0.5650 -0.2697  2.3069
   82SAPS   C24 7654   0.262   1.687   9.809 -0.0920 -0.0437  0.2928
   82SAPS   H4R 7655   0.240   1.588   9.764 -2.2928  0.8404 -0.7310
   82SAPS   H4S 7656   0.322   1.737   9.730  1.3834 -1.8179  0.2374
   82SAPS   C25 7657   0.136   1.764   9.833 -0.4276 -0.4281  0.1835
   82SAPS   H5R 7658   0.097   1.766   9.936 -2.2396 -0.0280 -0.4725
   82SAPS   C26 7659   0.071   1.832   9.738  0.9784  0.0752 -0.3302
   82SAPS   H6R 7660  -0.012   1.897   9.769 -0.0533 -1.1089 -0.4898
   82SAPS   C27 7661   0.108   1.834   9.591  0.2938 -0.0138 -0.1478
   82SAPS   H7R 7662   0.215   1.862   9.593  0.6510 -1.3269  0.7624
   82SAPS   H7S 7663   0.058   1.926   9.555  0.2441  0.8147  1.8917
   82SAPS   C28 7664   0.082   1.722   9.499 -0.3293  0.1717  0.2520
   82SAPS   H8R 7665   0.046   1.634   9.554 -1.2156  1.1898  1.3715
   82SAPS   C29 7666   0.105   1.710   9.368  0.6439 -0.1546 -0.0434
   82SAPS   H9R 7667   0.117   1.604   9.339 -0.7354 -0.7235  1.3139
   82SAPS  C210 7668   0.168   1.811   9.269  0.1018 -0.2113  0.0229
   82SAPS  H10R 7669   0.130   1.913   9.293 -1.7254  0.0446 -3.4030
   82SAPS  H10S 7670   0.158   1.777   9.164 -0.3202 -0.3812  0.1190
   82SAPS  C211 7671   0.312   1.822   9.300  0.0758 -0.3646 -0.3890
   82SAPS  H11R 7672   0.350   1.779   9.394  0.2221 -0.4580 -0.4899
   82SAPS  C212 7673   0.402   1.889   9.231  0.1327 -0.1254  0.3965
   82SAPS  H12R 7674   0.509   1.884   9.257 -0.1323 -0.6797  1.4369
   82SAPS  C213 7675   0.365   1.961   9.101 -0.4586 -0.3174 -0.1006
   82SAPS  H13R 7676   0.301   2.048   9.124 -2.1053 -1.2161 -1.0430
   82SAPS  H13S 7677   0.295   1.897   9.041 -2.5419  1.5230  0.2362
   82SAPS  C214 7678   0.490   1.997   9.021 -0.3678 -0.6962 -0.0360
   82SAPS  H14R 7679   0.570   2.044   9.080 -0.2860  0.5088 -1.0525
   82SAPS  C215 7680   0.510   1.975   8.890 -0.3094  0.9759 -0.5060
   82SAPS  H15R 7681   0.603   2.018   8.852  1.3798  0.3014  2.5723
   82SAPS  C216 7682   0.405   1.907   8.804 -0.0334 -0.3753  0.3517
   82SAPS  H16R 7683   0.311   1.963   8.789 -0.4475 -1.4926 -1.6133
   82SAPS  H16S 7684   0.355   1.817   8.844 -0.1024 -1.4591 -1.9720
   82SAPS  C217 7685   0.466   1.861   8.667 -0.1499  0.1426  0.3362
   82SAPS  H17R 7686   0.386   1.824   8.600 -0.2830 -0.6749  0.9329
   82SAPS  H17S 7687   0.540   1.779   8.682  1.5865  0.8495 -3.2502
   82SAPS  C218 7688   0.532   1.977   8.576 -0.0399  0.1919  0.3228
   82SAPS  H18R 7689   0.605   2.036   8.636  0.1548  0.3293 -0.0444
   82SAPS  H18S 7690   0.455   2.053   8.548 -2.5693 -2.0854  0.7194
   82SAPS  C219 7691   0.612   1.930   8.452  0.9186  0.1074 -1.0537
   82SAPS  H19R 7692   0.531   1.876   8.398  0.6209  0.5507 -1.0530
   82SAPS  H19S 7693   0.670   1.845   8.493  0.9332  1.1554  1.2308
   82SAPS  C220 7694   0.695   2.019   8.363  0.8977  0.3761 -0.0057
   82SAPS  H20R 7695   0.764   2.084   8.420 -0.4404  0.4218  1.6263
   82SAPS  H20S 7696   0.634   2.085   8.297 -0.6880 -1.4356 -0.4555
   82SAPS  H20T 7697   0.756   1.958   8.294  0.8753 -1.7606  1.7721
   82SAPS   C33 7698   0.653   0.983   9.962 -0.5420 -0.1764  0.0119
   82SAPS   H3X 7699   0.666   0.887  10.016  0.1445 -1.1139 -1.7375
   82SAPS   H3Y 7700   0.738   1.047   9.994 -0.6129 -0.7868  1.4947
   82SAPS   C34 7701   0.655   0.966   9.809 -0.3456  0.4124  0.6680
   82SAPS   H4X 7702   0.644   1.068   9.767  2.2903  0.7623  0.6379
   82SAPS   H4Y 7703   0.581   0.888   9.780  1.0140 -1.7599  2.6907
   82SAPS   C35 7704   0.793   0.923   9.755  0.0174  0.2195  1.0603
   82SAPS   H5X 7705   0.839   0.837   9.809 -0.1664 -0.6678 -0.1590
   82SAPS   H5Y 7706   0.866   1.004   9.775 -1.2907  1.6554  0.2060
   82SAPS   C36 7707   0.792   0.893   9.609  0.6942 -0.0567  0.1386
   82SAPS   H6X 7708   0.790   0.991   9.557 -0.2182 -1.2955 -2.3127
   82SAPS   H6Y 7709   0.699   0.847   9.570 -2.2247  3.1676  2.6063
   82SAPS   C37 7710   0.912   0.820   9.555 -0.5437  0.4585 -0.0132
   82SAPS   H7X 7711   0.936   0.728   9.613  1.5664 -0.3320 -1.9896
   82SAPS   H7Y 7712   0.995   0.893   9.543 -1.5249  1.9008  1.4609
   82SAPS   C38 7713   0.888   0.774   9.407  0.3430 -0.5595 -0.5865
   82SAPS   H8X 7714   0.877   0.866   9.345  1.8319  0.3860  0.4517
   82SAPS   H8Y 7715   0.790   0.723   9.403 -1.8719  3.1097  1.1065
   82SAPS   C39 7716   1.009   0.693   9.346 -0.4098 -0.0533  0.0250
   82SAPS   H9X 7717   1.020   0.602   9.408 -0.3961 -0.4346 -0.5323
   82SAPS   H9Y 7718   1.105   0.745   9.367  0.0506 -1.2545  0.9762
   82SAPS  C310 7719   0.985   0.659   9.199  0.0859 -0.1505 -0.4706
   82SAPS  H10X 7720   0.894   0.598   9.184  0.5301 -0.3737 -2.6875
   82SAPS  H10Y 7721   1.059   0.576   9.190 -1.5539 -1.9320  1.4414
   82SAPS  C311 7722   1.006   0.764   9.095 -0.3129 -0.2405  0.7232
   82SAPS  H11X 7723   1.115   0.785   9.105 -0.5812  1.0672  1.0157
   82SAPS  H11Y 7724   0.941   0.852   9.111 -1.2559 -0.8075  0.0920
   82SAPS  C312 7725   0.986   0.724   8.945  0.4871  0.7083  0.2361
   82SAPS  H12X 7726   0.887   0.680   8.920  1.4056 -0.9470 -0.6842
   82SAPS  H12Y 7727   1.054   0.640   8.923  0.5428  0.8552 -0.1764
   82SAPS  C313 7728   1.017   0.844   8.855 -0.1431  0.3934  0.1832
   82SAPS  H13X 7729   1.114   0.897   8.872  0.9043 -0.6117 -2.2202
   82SAPS  H13Y 7730   0.938   0.919   8.876 -0.6004 -1.0486  4.4966
   82SAPS  C314 7731   1.006   0.802   8.707 -0.3999 -0.2857 -0.0699
   82SAPS  H14X 7732   0.904   0.769   8.677 -0.4674  0.6005 -0.8423
   82SAPS  H14Y 7733   1.078   0.720   8.686  0.8757  1.0572 -1.0556
   82SAPS  C315 7734   1.051   0.915   8.614  0.6306 -0.6489  0.5358
   82SAPS  H15X 7735   1.150   0.959   8.639 -1.3077  4.4574  0.3611
   82SAPS  H15Y 7736   0.978   0.995   8.635  0.6908 -0.3798 -0.2666
   82SAPS  C316 7737   1.048   0.875   8.469  0.5750 -0.4671  0.5663
   82SAPS  H16X 7738   0.941   0.862   8.441  0.7854  0.1644 -0.6070
   82SAPS  H16Y 7739   1.098   0.777   8.454  1.8086  0.2372 -0.0484
   82SAPS  C317 7740   1.112   0.971   8.371 -0.7385 -0.8165 -0.1446
   82SAPS  H17X 7741   1.222   0.961   8.380 -0.7152  0.5076  1.5554
   82SAPS  H17Y 7742   1.079   1.074   8.398 -0.2274 -1.2030  2.1964
   82SAPS  C318 7743   1.070   0.947   8.224  0.4921  0.6538 -0.3799
   82SAPS  H18X 7744   1.104   1.025   8.153 -2.6392  0.4789 -2.2486
   82SAPS  H18Y 7745   0.959   0.959   8.227  0.5274  0.8332  0.8045
   82SAPS  H18Z 7746   1.095   0.848   8.180  0.4661  0.5162 -0.0864
   83SAPS     N 7747   1.971   2.143  10.716  0.3958  0.0328 -0.4507
   83SAPS   HN1 7748   2.016   2.075  10.652  1.9867 -1.0449  1.7049
   83SAPS   HN2 7749   1.870   2.125  10.729  0.2202 -0.0569 -1.8367
   83SAPS   HN3 7750   1.982   2.238  10.675  2.0500  0.0102 -0.1570
   83SAPS   C12 7751   2.046   2.144  10.845 -0.0239 -0.3443  0.1738
   83SAPS  H12A 7752   1.997   2.214  10.911 -2.0038 -2.5276  1.1987
   83SAPS   C13 7753   2.048   2.007  10.928 -0.3015 -0.0308 -0.7090
   83SAPS  O13A 7754   1.980   1.913  10.883  0.0721  0.4715 -0.6191
   83SAPS  O13B 7755   2.082   2.014  11.051  0.3738 -0.1131 -0.3587
   83SAPS   C11 7756   2.197   2.192  10.818  0.2094  0.7137 -0.5789
   83SAPS  H11A 7757   2.247   2.223  10.912 -1.1175  0.3979  0.2538
   83SAPS  H11B 7758   2.187   2.277  10.747  0.0599 -0.6456 -2.2597
   83SAPS     P 7759   2.408   2.131  10.682 -0.5384 -0.0183  0.0933
   83SAPS   O13 7760   2.525   2.140  10.775 -0.2041 -0.3910 -0.0695
   83SAPS   O14 7761   2.431   2.025  10.577 -0.5074 -0.5119  0.0189
   83SAPS   O12 7762   2.282   2.092  10.767  0.2817  0.7638  0.1872
   83SAPS   O11 7763   2.381   2.272  10.616  0.0970 -0.0800  0.6212
   83SAPS    C1 7764   2.292   2.297  10.512  0.2947 -0.1021  0.1129
   83SAPS    HA 7765   2.194   2.248  10.527 -0.0530  0.4278 -0.3719
   83SAPS    HB 7766   2.282   2.407  10.495  1.1614  0.3555  2.2949
   83SAPS    C2 7767   2.360   2.245  10.381  0.0923 -0.4522  0.4482
   83SAPS    HS 7768   2.385   2.138  10.397  2.8978  0.1749  0.8117
   83SAPS   O21 7769   2.479   2.319  10.362 -0.1682 -0.6912 -0.4309
   83SAPS   C21 7770   2.594   2.259  10.341 -0.4659 -0.9685 -0.0586
   83SAPS   O22 7771   2.610   2.142  10.316 -0.0651  0.2235  0.5708
   83SAPS   C22 7772   2.698   2.370  10.354 -0.5382 -0.6035  1.1736
   83SAPS   H2R 7773   2.667   2.436  10.437  1.0142  0.1584  1.1892
   83SAPS   H2S 7774   2.801   2.329  10.365  0.8847  2.6284  1.0111
   83SAPS    C3 7775   2.267   2.267  10.260 -0.8404 -1.0788  0.0784
   83SAPS    HX 7776   2.253   2.377  10.249  0.4839 -0.6856  1.9665
   83SAPS    HY 7777   2.171   2.217  10.287 -1.5338 -0.9101 -1.8830
   83SAPS   O31 7778   2.321   2.217  10.136 -0.1490 -0.2430 -0.3121
   83SAPS   C31 7779   2.232   2.176  10.039  0.2826  0.0710 -0.3911
   83SAPS   O32 7780   2.113   2.172  10.054 -0.3734 -0.0999 -0.3527
   83SAPS   C32 7781   2.297   2.131   9.912  0.2944  0.5778 -0.3826
   83SAPS   H2X 7782   2.298   2.021   9.902  0.8384  0.4389  0.9871
   83SAPS   H2Y 7783   2.404   2.158   9.922  1.1030 -2.5572  0.3497
   83SAPS   C23 7784   2.684   2.458  10.231  0.2163 -0.4895 -0.1204
   83SAPS   H3R 7785   2.739   2.553  10.254 -2.0771  1.0845 -0.8150
   83SAPS   H3S 7786   2.580   2.489  10.209  1.1858  2.9860 -0.4595
   83SAPS   C24 7787   2.764   2.425  10.107 -0.0123 -0.0117 -0.4551
   83SAPS   H4R 7788   2.863   2.391  10.144  0.2518  0.1252 -1.0169
   83SAPS   H4S 7789   2.786   2.517  10.049  0.0483 -0.9725 -2.0513
   83SAPS   C25 7790   2.680   2.327  10.024 -0.1517 -0.3453  0.1982
   83SAPS   H5R 7791   2.601   2.275  10.080 -2.2900  0.7467 -1.6485
   83SAPS   C26 7792   2.703   2.285   9.897 -0.3763 -0.5797 -0.4650
   83SAPS   H6R 7793   2.633   2.209   9.857 -1.5924  0.1927  0.1331
   83SAPS   C27 7794   2.815   2.324   9.806 -0.7382 -0.3033 -0.0114
   83SAPS   H7R 7795   2.870   2.231   9.781 -1.4409 -1.0645  1.1712
   83SAPS   H7S 7796   2.898   2.376   9.857 -0.5368  0.6753 -1.2758
   83SAPS   C28 7797   2.772   2.396   9.677  0.0659  0.5561 -0.3929
   83SAPS   H8R 7798   2.756   2.505   9.682  0.2104  0.6015 -0.8149
   83SAPS   C29 7799   2.739   2.338   9.560 -0.0445  0.0817  0.0343
   83SAPS   H9R 7800   2.690   2.397   9.481  0.1341 -1.2605 -1.1272
   83SAPS  C210 7801   2.743   2.191   9.514  0.1549 -0.6754  0.3334
   83SAPS  H10R 7802   2.663   2.171   9.439  1.0440 -2.4160 -0.1924
   83SAPS  H10S 7803   2.733   2.120   9.598  1.3294  0.4040  1.4325
   83SAPS  C211 7804   2.874   2.168   9.446 -0.8645  0.2652 -0.2539
   83SAPS  H11R 7805   2.955   2.211   9.508 -0.5781  0.3369 -0.6693
   83SAPS  C212 7806   2.909   2.088   9.340 -0.1327 -0.4564  0.8386
   83SAPS  H12R 7807   3.009   2.098   9.294 -1.2816  0.3984 -1.6251
   83SAPS  C213 7808   2.818   2.005   9.262  0.2538  0.6339 -0.2062
   83SAPS  H13R 7809   2.735   1.965   9.325  0.3871  0.3500 -0.2131
   83SAPS  H13S 7810   2.880   1.918   9.233 -1.7891 -1.0318  0.1347
   83SAPS  C214 7811   2.752   2.088   9.159 -0.4889 -0.3175  0.4388
   83SAPS  H14R 7812   2.711   2.181   9.202  2.4779  0.5142  1.6484
   83SAPS  C215 7813   2.733   2.053   9.027 -0.5301 -0.2809 -0.3498
   83SAPS  H15R 7814   2.681   2.133   8.972  1.4013  1.1851 -0.1214
   83SAPS  C216 7815   2.773   1.925   8.960 -0.3735  0.3913 -0.8692
   83SAPS  H16R 7816   2.678   1.880   8.923  0.9173 -3.6843  0.1947
   83SAPS  H16S 7817   2.812   1.856   9.038 -1.7229 -0.3294 -0.8013
   83SAPS  C217 7818   2.888   1.952   8.847  0.5145 -0.6296  0.6894
   83SAPS  H17R 7819   2.850   2.039   8.791  0.2321 -1.3813 -0.3128
   83SAPS  H17S 7820   2.879   1.875   8.768  1.5052  0.9122 -0.9979
   83SAPS  C218 7821   3.028   1.982   8.902 -0.5897  0.0176 -0.5583
   83SAPS  H18R 7822   3.061   1.889   8.953 -1.4252 -1.0239 -1.8403
   83SAPS  H18S 7823   3.015   2.067   8.972 -1.7219  0.3320 -1.1217
   83SAPS  C219 7824   3.128   2.027   8.798 -0.1352 -0.7592 -0.0016
   83SAPS  H19R 7825   3.078   2.107   8.738  0.8783  0.6940  1.0114
   83SAPS  H19S 7826   3.135   1.939   8.730 -2.7776 -2.1960  1.4140
   83SAPS  C220 7827   3.264   2.067   8.852  0.0244 -0.2683 -0.2504
   83SAPS  H20R 7828   3.241   2.127   8.943  0.3909 -0.0402 -0.3060
   83SAPS  H20S 7829   3.322   2.129   8.779  0.0239 -0.8571 -0.7560
   83SAPS  H20T 7830   3.324   1.978   8.881 -1.1636 -1.4631 -1.3279
   83SAPS   C33 7831   2.221   2.190   9.783  0.1557  0.3614  0.0184
   83SAPS   H3X 7832   2.230   2.301   9.783 -1.5364  0.5376 -0.5721
   83SAPS   H3Y 7833   2.114   2.159   9.775  1.0468 -3.7110  1.6784
   83SAPS   C34 7834   2.300   2.153   9.646 -0.1228  0.1536  0.0538
   83SAPS   H4X 7835   2.310   2.043   9.635 -0.3601  0.1590 -0.2379
   83SAPS   H4Y 7836   2.403   2.194   9.648 -0.5343  1.2251  0.0303
   83SAPS   C35 7837   2.233   2.195   9.514  0.2095  0.8162  0.4935
   83SAPS   H5X 7838   2.230   2.306   9.520 -0.6876  0.7172  2.6564
   83SAPS   H5Y 7839   2.130   2.153   9.507  0.4977  0.2886 -0.9027
   83SAPS   C36 7840   2.318   2.151   9.401  0.3472 -0.2968  0.0442
   83SAPS   H6X 7841   2.329   2.040   9.394  2.8043 -0.1701  0.7986
   83SAPS   H6Y 7842   2.413   2.205   9.418  0.6316 -0.3260 -1.3407
   83SAPS   C37 7843   2.262   2.192   9.266  0.6651 -0.7082 -0.0332
   83SAPS   H7X 7844   2.217   2.294   9.272 -3.5563 -2.3096 -0.5372
   83SAPS   H7Y 7845   2.176   2.125   9.241 -0.2891  0.0346  1.1472
   83SAPS   C38 7846   2.362   2.170   9.159 -0.2996 -0.2158  0.0995
   83SAPS   H8X 7847   2.408   2.069   9.157 -1.3442 -0.7956  1.9912
   83SAPS   H8Y 7848   2.446   2.239   9.181 -0.2914 -0.7395  1.8549
   83SAPS   C39 7849   2.310   2.225   9.023 -0.5430 -0.1580 -0.4444
   83SAPS   H9X 7850   2.255   2.320   9.038  1.3113  0.7315  1.3796
   83SAPS   H9Y 7851   2.234   2.154   8.984  1.2799 -2.8063  0.5601
   83SAPS  C310 7852   2.422   2.241   8.924  0.8640 -0.1872 -0.1077
   83SAPS  H10X 7853   2.462   2.140   8.898  1.2255  0.0770 -0.5892
   83SAPS  H10Y 7854   2.504   2.303   8.967  0.5121 -0.8677  1.6472
   83SAPS  C311 7855   2.372   2.300   8.790 -1.2187  0.8651  0.5481
   83SAPS  H11X 7856   2.411   2.403   8.773 -0.0236  0.1145 -1.5566
   83SAPS  H11Y 7857   2.263   2.320   8.799 -1.7859 -1.1136 -1.3369
   83SAPS  C312 7858   2.402   2.222   8.658  0.3762  0.1374  0.6480
   83SAPS  H12X 7859   2.500   2.251   8.616 -0.6627  3.4705  0.2883
   83SAPS  H12Y 7860   2.335   2.278   8.590 -0.7425  0.4485  1.9549
   83SAPS  C313 7861   2.356   2.077   8.653 -0.3808 -0.6707  0.2396
   83SAPS  H13X 7862   2.246   2.068   8.667 -0.4414 -0.3840 -0.0477
   83SAPS  H13Y 7863   2.403   2.028   8.741  0.4173  0.7394  0.6249
   83SAPS  C314 7864   2.401   1.986   8.531 -0.6932 -0.6718 -0.0200
   83SAPS  H14X 7865   2.511   1.977   8.538 -0.7465 -0.9075  0.5859
   83SAPS  H14Y 7866   2.370   2.016   8.428  0.9263  0.7152 -0.1362
   83SAPS  C315 7867   2.351   1.836   8.550 -0.0761 -0.2485 -0.1683
   83SAPS  H15X 7868   2.327   1.833   8.658 -1.5297  0.0314 -0.4603
   83SAPS  H15Y 7869   2.435   1.764   8.545 -1.3055 -1.6737 -1.3780
   83SAPS  C316 7870   2.236   1.785   8.465 -0.0540  0.3747  0.0502
   83SAPS  H16X 7871   2.216   1.681   8.499  0.3591 -0.6399 -2.6274
   83SAPS  H16Y 7872   2.265   1.784   8.358 -1.1528 -0.8894 -0.2657
   83SAPS  C317 7873   2.108   1.867   8.464 -0.3215  0.1813 -0.2423
   83SAPS  H17X 7874   2.146   1.965   8.427  0.3268  0.2418  0.5555
   83SAPS  H17Y 7875   2.063   1.897   8.561 -3.0313 -0.2331 -1.2742
   83SAPS  C318 7876   1.997   1.819   8.377  0.1297 -0.0803  0.9099
   83SAPS  H18X 7877   2.017   1.800   8.270 -1.5993 -0.4654  0.6241
   83SAPS  H18Y 7878   1.914   1.893   8.381  1.7709  2.0620 -1.4299
   83SAPS  H18Z 7879   1.962   1.721   8.417  2.5138 -2.0739 -1.5129
   84SAPS     N 7880   3.370   1.718  11.095 -0.1376  0.1325  0.1228
   84SAPS   HN1 7881   3.387   1.674  11.002  0.1939  1.2308 -0.3474
   84SAPS   HN2 7882   3.424   1.807  11.102 -2.2091  1.3239  3.2463
   84SAPS   HN3 7883   3.384   1.657  11.179  1.3070  2.2422  1.5255
   84SAPS   C12 7884   3.215   1.755  11.100 -0.4388  0.0845 -0.1574
   84SAPS  H12A 7885   3.167   1.697  11.177  1.5733 -0.4138  0.7953
   84SAPS   C13 7886   3.191   1.907  11.123 -0.3505  0.7266  0.8030
   84SAPS  O13A 7887   3.295   1.980  11.135  0.3645 -0.3545  0.1934
   84SAPS  O13B 7888   3.072   1.949  11.128 -0.4353  0.5746 -0.2113
   84SAPS   C11 7889   3.163   1.727  10.956  0.0124  0.5655 -0.0106
   84SAPS  H11A 7890   3.229   1.780  10.883  0.6066 -2.1463 -1.6030
   84SAPS  H11B 7891   3.061   1.767  10.939 -0.0005  0.2810 -0.6529
   84SAPS     P 7892   3.271   1.523  10.830  0.0691  0.3844 -0.4952
   84SAPS   O13 7893   3.406   1.568  10.856  0.2962 -0.0876  0.2354
   84SAPS   O14 7894   3.245   1.383  10.829  0.0564 -0.4518 -0.0737
   84SAPS   O12 7895   3.176   1.586  10.928 -0.2069 -0.1056 -0.0180
   84SAPS   O11 7896   3.219   1.580  10.700  0.0690 -0.1025 -0.0208
   84SAPS    C1 7897   3.088   1.573  10.650  1.1063 -0.1983 -0.1572
   84SAPS    HA 7898   3.054   1.468  10.636  2.4858 -0.4981 -1.4946
   84SAPS    HB 7899   3.020   1.621  10.724  1.2896 -0.2620  0.0508
   84SAPS    C2 7900   3.078   1.648  10.522  0.5464  0.1650 -0.0149
   84SAPS    HS 7901   2.969   1.667  10.510  0.6527  1.4230  0.8946
   84SAPS   O21 7902   3.114   1.563  10.407 -0.1431 -0.1992 -0.1322
   84SAPS   C21 7903   3.050   1.593  10.296 -0.0417 -0.3944 -0.5980
   84SAPS   O22 7904   2.959   1.671  10.284  0.1438  0.2625  0.2400
   84SAPS   C22 7905   3.105   1.511  10.180 -0.4635  0.2420 -0.3873
   84SAPS   H2R 7906   3.209   1.475  10.198 -0.1385  1.4204  0.1934
   84SAPS   H2S 7907   3.036   1.424  10.175 -1.1288  0.6500  1.0823
   84SAPS    C3 7908   3.159   1.778  10.531 -0.8005  0.3394  0.0664
   84SAPS    HX 7909   3.262   1.746  10.555 -0.6966 -0.6375 -1.5394
   84SAPS    HY 7910   3.126   1.839  10.618  0.0844  0.0547  0.6080
   84SAPS   O31 7911   3.164   1.845  10.401  0.8207 -0.2353  0.5785
   84SAPS   C31 7912   3.071   1.937  10.364  0.4014  0.0532 -0.0604
   84SAPS   O32 7913   2.989   1.985  10.443 -0.4570 -0.1882  0.2337
   84SAPS   C32 7914   3.083   1.979  10.218 -0.2149  0.1476  0.1742
   84SAPS   H2X 7915   3.121   1.891  10.162 -0.5806  1.5669 -2.5093
   84SAPS   H2Y 7916   3.158   2.061  10.214 -2.0693  1.8673 -1.4099
   84SAPS   C23 7917   3.088   1.586  10.041 -0.1235  0.0767 -0.8494
   84SAPS   H3R 7918   3.142   1.683  10.038 -2.5906  1.6848  1.7028
   84SAPS   H3S 7919   2.978   1.600  10.032 -0.7759 -0.5623  3.6490
   84SAPS   C24 7920   3.142   1.496   9.918 -0.7127 -0.5693 -0.2670
   84SAPS   H4R 7921   3.250   1.493   9.943 -0.9173  2.8031  1.5252
   84SAPS   H4S 7922   3.121   1.551   9.824 -0.5765 -0.1035 -0.0289
   84SAPS   C25 7923   3.081   1.355   9.913  0.1067 -0.0951  0.3643
   84SAPS   H5R 7924   3.097   1.292  10.002 -3.1475 -0.5349  0.7332
   84SAPS   C26 7925   2.987   1.310   9.829 -0.2562  0.1189 -0.6408
   84SAPS   H6R 7926   2.946   1.208   9.840 -0.7773  0.2829 -1.0103
   84SAPS   C27 7927   2.921   1.374   9.713  0.2960 -0.5149 -0.9285
   84SAPS   H7R 7928   2.906   1.481   9.739  0.0150 -1.1400  1.7963
   84SAPS   H7S 7929   2.814   1.346   9.696  0.6448 -1.1947 -2.1872
   84SAPS   C28 7930   2.999   1.348   9.588  0.7101 -0.3085 -0.0356
   84SAPS   H8R 7931   3.088   1.286   9.605 -0.3589 -1.6006  1.1341
   84SAPS   C29 7932   2.989   1.399   9.465  0.5581 -0.1053  0.4551
   84SAPS   H9R 7933   3.056   1.369   9.383 -1.0826 -1.1643 -0.5438
   84SAPS  C210 7934   2.885   1.496   9.422  0.7797 -0.1741 -0.3303
   84SAPS  H10R 7935   2.922   1.595   9.388 -2.9767  1.2442 -0.7968
   84SAPS  H10S 7936   2.819   1.518   9.509  3.1024 -0.0887  1.4977
   84SAPS  C211 7937   2.793   1.438   9.316  0.5296 -0.4000  0.4488
   84SAPS  H11R 7938   2.733   1.352   9.349  0.4571 -1.4260 -2.1176
   84SAPS  C212 7939   2.794   1.461   9.182 -0.2390  0.2899 -0.5401
   84SAPS  H12R 7940   2.728   1.422   9.103  0.6425 -1.2206 -0.5750
   84SAPS  C213 7941   2.892   1.550   9.108 -0.1902 -0.0743  0.0568
   84SAPS  H13R 7942   2.966   1.596   9.177 -0.8733  0.8337  0.2034
   84SAPS  H13S 7943   2.838   1.627   9.049 -1.1321 -2.1306 -1.9192
   84SAPS  C214 7944   2.973   1.458   9.019  0.0791 -1.0661 -0.4931
   84SAPS  H14R 7945   3.034   1.390   9.079 -1.0699 -1.3401  0.3925
   84SAPS  C215 7946   2.970   1.457   8.886 -0.2383  0.4910  0.2590
   84SAPS  H15R 7947   3.029   1.379   8.834 -0.3161 -0.6303  1.7881
   84SAPS  C216 7948   2.888   1.537   8.784  0.0524 -0.6381  0.5197
   84SAPS  H16R 7949   2.960   1.588   8.716 -0.0029 -0.0378  0.9060
   84SAPS  H16S 7950   2.834   1.613   8.844 -0.6590 -0.6333 -0.1215
   84SAPS  C217 7951   2.790   1.444   8.715  0.7822  0.2001  0.3133
   84SAPS  H17R 7952   2.732   1.395   8.795 -1.2104  1.0952 -0.5100
   84SAPS  H17S 7953   2.835   1.362   8.655  0.4529  1.0718 -1.2017
   84SAPS  C218 7954   2.702   1.528   8.616 -0.1331  0.1309  0.7783
   84SAPS  H18R 7955   2.778   1.572   8.546  0.2665 -0.5731  0.7622
   84SAPS  H18S 7956   2.653   1.607   8.677 -2.3651 -2.3831  2.4342
   84SAPS  C219 7957   2.604   1.440   8.535  0.0455  0.3731 -0.4389
   84SAPS  H19R 7958   2.663   1.384   8.460 -1.1992  0.6268 -1.6386
   84SAPS  H19S 7959   2.532   1.506   8.483 -2.6090 -0.8952  1.3910
   84SAPS  C220 7960   2.514   1.349   8.614 -0.1795 -0.2024  0.2772
   84SAPS  H20R 7961   2.566   1.302   8.700  1.2583  1.3833  0.3315
   84SAPS  H20S 7962   2.471   1.268   8.551  2.2499 -0.3131 -1.3729
   84SAPS  H20T 7963   2.425   1.398   8.659 -0.3321  0.4415 -0.6887
   84SAPS   C33 7964   2.941   2.012  10.159  0.7239 -0.7120  0.6469
   84SAPS   H3X 7965   2.900   2.106  10.201  4.0580  1.2861 -0.2014
   84SAPS   H3Y 7966   2.877   1.928  10.191  0.5207 -1.6311 -1.9316
   84SAPS   C34 7967   2.906   2.026  10.012 -0.6454 -0.1356  0.0009
   84SAPS   H4X 7968   2.960   2.112   9.967  0.8015 -0.5738  0.8251
   84SAPS   H4Y 7969   2.799   2.046   9.993 -1.0039 -0.1773  1.8167
   84SAPS   C35 7970   2.947   1.906   9.922  0.3835  0.2612 -0.0819
   84SAPS   H5X 7971   2.872   1.826   9.939  0.2559  0.5944  1.0351
   84SAPS   H5Y 7972   3.045   1.864   9.952 -0.4035  1.0122  4.1565
   84SAPS   C36 7973   2.950   1.934   9.772  0.5252  0.1936  1.0421
   84SAPS   H6X 7974   2.987   2.038   9.761  1.9356 -0.4747 -1.0047
   84SAPS   H6Y 7975   2.845   1.920   9.739  1.0298 -1.4360 -0.0238
   84SAPS   C37 7976   3.048   1.842   9.701 -0.1650  0.1976 -0.1580
   84SAPS   H7X 7977   3.031   1.732   9.695  0.1558  0.2242 -1.9180
   84SAPS   H7Y 7978   3.148   1.858   9.747 -0.0435  3.7941 -1.3914
   84SAPS   C38 7979   3.064   1.891   9.556  0.7736  0.2045 -0.3122
   84SAPS   H8X 7980   3.077   2.001   9.552 -3.2485  0.9581  2.2309
   84SAPS   H8Y 7981   2.962   1.866   9.518  1.2836 -0.7942 -1.0718
   84SAPS   C39 7982   3.174   1.822   9.477  0.6605  0.5313 -0.0505
   84SAPS   H9X 7983   3.151   1.714   9.461 -0.4866  0.6167  0.9441
   84SAPS   H9Y 7984   3.269   1.819   9.536 -0.6988 -2.0313  2.2235
   84SAPS  C310 7985   3.224   1.890   9.348  0.1608  0.2125  0.0751
   84SAPS  H10X 7986   3.261   1.990   9.381 -0.4395 -0.2504  2.3401
   84SAPS  H10Y 7987   3.147   1.907   9.271  0.6542  0.2376 -0.4211
   84SAPS  C311 7988   3.338   1.807   9.283 -0.3409  0.3101 -0.1219
   84SAPS  H11X 7989   3.298   1.712   9.241  2.3225 -0.6856 -0.6150
   84SAPS  H11Y 7990   3.427   1.799   9.348 -0.9153  0.1828  0.6613
   84SAPS  C312 7991   3.396   1.889   9.169  0.2289 -0.7282  0.2011
   84SAPS  H12X 7992   3.395   1.994   9.204  0.4815 -1.6825  3.4305
   84SAPS  H12Y 7993   3.332   1.885   9.078  0.5706  1.7869 -0.2068
   84SAPS  C313 7994   3.542   1.869   9.136 -0.8710  0.0574 -0.1021
   84SAPS  H13X 7995   3.552   1.763   9.104  0.5518  0.5523 -1.4604
   84SAPS  H13Y 7996   3.608   1.884   9.224 -1.2187  0.2042  0.1356
   84SAPS  C314 7997   3.597   1.961   9.026  0.5255 -0.1754 -0.0787
   84SAPS  H14X 7998   3.578   2.069   9.047  0.9010 -0.5337  2.4792
   84SAPS  H14Y 7999   3.546   1.947   8.929 -0.7047  2.1106  0.1516
   84SAPS  C315 8000   3.750   1.961   9.018 -0.2333 -0.2583 -0.1731
   84SAPS  H15X 8001   3.801   2.001   9.108 -0.8727  1.3808 -0.5023
   84SAPS  H15Y 8002   3.784   2.029   8.936 -1.6004  0.1476 -0.4214
   84SAPS  C316 8003   3.801   1.817   8.989 -0.6263  0.3182 -0.0469
   84SAPS  H16X 8004   3.742   1.780   8.902  0.6150  0.4250 -0.9591
   84SAPS  H16Y 8005   3.782   1.748   9.073 -2.7075  1.3563  0.4148
   84SAPS  C317 8006   3.949   1.822   8.953 -0.1757  0.3714 -0.3286
   84SAPS  H17X 8007   4.003   1.867   9.039 -2.5372  0.4999  1.1663
   84SAPS  H17Y 8008   3.962   1.902   8.877 -0.1468 -0.5804 -1.3490
   84SAPS  C318 8009   4.005   1.689   8.899 -0.0859 -0.3380  0.5756
   84SAPS  H18X 8010   3.934   1.646   8.825  0.5447 -0.9673  0.3243
   84SAPS  H18Y 8011   4.018   1.605   8.970  2.8116 -3.1771 -2.9137
   84SAPS  H18Z 8012   4.104   1.703   8.850 -0.8924 -1.3707 -1.4898
   85SAPS     N 8013   6.755   1.269  10.491  0.4435 -0.5667  0.1662
   85SAPS   HN1 8014   6.697   1.308  10.414  1.9053 -0.7016 -1.0570
   85SAPS   HN2 8015   6.812   1.341  10.540 -1.2379  0.7151  0.3006
   85SAPS   HN3 8016   6.817   1.195  10.451  0.1163  0.2198 -1.9681
   85SAPS   C12 8017   6.664   1.203  10.586  0.3332 -0.0929  0.5712
   85SAPS  H12A 8018   6.599   1.135  10.533  0.6808 -1.0141  1.2880
   85SAPS   C13 8019   6.733   1.121  10.698  0.0992  0.0323  0.4328
   85SAPS  O13A 8020   6.856   1.105  10.707  0.1392 -0.1717  0.4215
   85SAPS  O13B 8021   6.656   1.047  10.766  0.4947 -0.3749  0.1712
   85SAPS   C11 8022   6.581   1.312  10.654  0.2526  0.2130  0.4243
   85SAPS  H11A 8023   6.661   1.386  10.677  0.3715  0.5416 -0.9851
   85SAPS  H11B 8024   6.528   1.267  10.741  1.3647  0.9709  1.5378
   85SAPS     P 8025   6.418   1.515  10.598 -0.0523 -0.2998  0.3578
   85SAPS   O13 8026   6.348   1.502  10.728  0.6379  0.1754 -0.0268
   85SAPS   O14 8027   6.511   1.625  10.586 -0.7855  0.5954  0.0759
   85SAPS   O12 8028   6.485   1.371  10.561  0.1707  0.4399  0.7537
   85SAPS   O11 8029   6.301   1.545  10.492 -0.2478  0.1413 -0.2333
   85SAPS    C1 8030   6.311   1.637  10.386 -0.2770 -0.0267  0.6299
   85SAPS    HA 8031   6.210   1.656  10.341  0.7151  0.0483 -1.7358
   85SAPS    HB 8032   6.350   1.736  10.416 -1.1836  1.6553 -3.0742
   85SAPS    C2 8033   6.388   1.581  10.264  0.2678  0.5589 -0.2778
   85SAPS    HS 8034   6.497   1.572  10.285  0.2157  1.3227  0.3776
   85SAPS   O21 8035   6.357   1.652  10.148 -0.4978 -0.1184 -0.4093
   85SAPS   C21 8036   6.413   1.779  10.137  0.6860  0.0678 -0.3072
   85SAPS   O22 8037   6.485   1.830  10.220 -0.1043 -0.4585 -0.0127
   85SAPS   C22 8038   6.335   1.835  10.021  0.1623 -0.8747  0.4462
   85SAPS   H2R 8039   6.352   1.773   9.930 -1.3743  0.6105 -0.9304
   85SAPS   H2S 8040   6.225   1.827  10.030  0.0958 -1.6566 -0.8234
   85SAPS    C3 8041   6.342   1.433  10.237 -0.9415 -0.1302 -0.5564
   85SAPS    HX 8042   6.231   1.429  10.229 -0.9102  0.3367 -1.3659
   85SAPS    HY 8043   6.354   1.359  10.319 -1.0950 -1.2768 -1.5408
   85SAPS   O31 8044   6.400   1.380  10.114 -0.0544  0.3921 -0.9619
   85SAPS   C31 8045   6.532   1.351  10.127 -0.1768 -0.1605  0.4632
   85SAPS   O32 8046   6.591   1.349  10.232 -0.0052  0.1106  0.4026
   85SAPS   C32 8047   6.597   1.317   9.991  0.3729 -0.8936 -0.1243
   85SAPS   H2X 8048   6.528   1.292   9.907 -0.7008 -0.9244  0.7390
   85SAPS   H2Y 8049   6.652   1.223  10.011 -0.9645 -1.5156  0.8381
   85SAPS   C23 8050   6.379   1.977   9.983 -1.0969  0.2609 -0.0162
   85SAPS   H3R 8051   6.359   2.039  10.073 -0.5920  2.8130 -1.5787
   85SAPS   H3S 8052   6.308   2.020   9.909  1.3071  1.0365 -1.9918
   85SAPS   C24 8053   6.528   1.980   9.938  0.5742 -0.0503  0.0090
   85SAPS   H4R 8054   6.532   1.903   9.857 -0.2648 -0.4383  0.3198
   85SAPS   H4S 8055   6.609   1.956  10.011  1.4118 -0.4447 -1.0220
   85SAPS   C25 8056   6.573   2.107   9.864  0.0757  0.1114 -0.3784
   85SAPS   H5R 8057   6.636   2.173   9.926 -0.4644  1.2199 -1.0020
   85SAPS   C26 8058   6.550   2.145   9.738 -0.0708 -0.4226 -0.0564
   85SAPS   H6R 8059   6.591   2.241   9.704 -0.4550 -0.2630 -0.0750
   85SAPS   C27 8060   6.465   2.074   9.645 -0.4614  0.2492  0.1478
   85SAPS   H7R 8061   6.394   2.145   9.598 -0.8461  0.3114  0.7959
   85SAPS   H7S 8062   6.395   2.007   9.699  2.7512 -2.9753  0.6574
   85SAPS   C28 8063   6.556   1.992   9.562 -0.4617 -0.0580 -0.1959
   85SAPS   H8R 8064   6.595   1.900   9.608 -0.0504 -0.2507 -0.9161
   85SAPS   C29 8065   6.579   2.021   9.430 -0.4160  0.1053 -0.6175
   85SAPS   H9R 8066   6.638   1.963   9.357 -1.3376 -0.9110 -0.5782
   85SAPS  C210 8067   6.518   2.137   9.367  0.2677 -0.2962 -0.1003
   85SAPS  H10R 8068   6.589   2.179   9.292 -0.1265  0.8095  0.1220
   85SAPS  H10S 8069   6.511   2.220   9.441  0.1084  2.4653 -2.9658
   85SAPS  C211 8070   6.391   2.094   9.302  0.4073 -0.1394  0.1749
   85SAPS  H11R 8071   6.306   2.112   9.369  0.7244 -1.0084  0.8342
   85SAPS  C212 8072   6.374   2.062   9.173  0.3042 -0.5140 -0.1801
   85SAPS  H12R 8073   6.273   2.030   9.142  0.5681 -1.4263 -0.1084
   85SAPS  C213 8074   6.473   2.051   9.059 -0.4658 -0.3631  0.7727
   85SAPS  H13R 8075   6.446   1.960   9.001  2.1358  0.6819 -2.3590
   85SAPS  H13S 8076   6.577   2.024   9.085  0.1774  0.0365 -1.1922
   85SAPS  C214 8077   6.492   2.165   8.958  1.0181  0.1173 -0.2715
   85SAPS  H14R 8078   6.427   2.248   8.990 -0.9072 -1.9680  1.7167
   85SAPS  C215 8079   6.571   2.175   8.850 -0.3712  0.2926 -0.0681
   85SAPS  H15R 8080   6.573   2.276   8.807 -2.4170  0.2091 -0.4475
   85SAPS  C216 8081   6.665   2.071   8.804 -0.0037  0.5420  0.3422
   85SAPS  H16R 8082   6.631   1.969   8.832 -0.2834  0.5832  0.1527
   85SAPS  H16S 8083   6.768   2.089   8.843 -0.0978 -2.0941  2.0232
   85SAPS  C217 8084   6.658   2.079   8.646 -0.5516 -0.2204  0.6298
   85SAPS  H17R 8085   6.702   1.988   8.600  0.8791  1.2961 -1.1627
   85SAPS  H17S 8086   6.726   2.162   8.618 -1.7425  1.2872  1.9425
   85SAPS  C218 8087   6.525   2.092   8.573 -0.5449 -0.1877 -0.4548
   85SAPS  H18R 8088   6.540   2.115   8.466 -1.5245 -0.5117 -0.6695
   85SAPS  H18S 8089   6.470   2.183   8.603 -1.6189 -0.7627 -0.6145
   85SAPS  C219 8090   6.431   1.968   8.587 -0.0090 -0.2705 -0.6057
   85SAPS  H19R 8091   6.385   1.970   8.688  1.6892  1.6536  0.2143
   85SAPS  H19S 8092   6.499   1.880   8.588  1.5583  0.8668  1.7744
   85SAPS  C220 8093   6.333   1.951   8.472  0.5366  1.0510 -0.2391
   85SAPS  H20R 8094   6.262   1.873   8.507  2.0996  0.1193  0.9934
   85SAPS  H20S 8095   6.381   1.921   8.377 -0.2726 -0.9884 -0.0594
   85SAPS  H20T 8096   6.290   2.052   8.457  2.2116  2.5092  3.5149
   85SAPS   C33 8097   6.703   1.423   9.957 -0.9104 -0.3650 -0.0898
   85SAPS   H3X 8098   6.791   1.393   9.897 -0.9937  0.5324 -0.6880
   85SAPS   H3Y 8099   6.736   1.460  10.056 -2.4169 -1.9730  1.0803
   85SAPS   C34 8100   6.638   1.541   9.887  0.5361  0.0368  0.4924
   85SAPS   H4X 8101   6.690   1.637   9.907 -1.2798  0.5776  3.0933
   85SAPS   H4Y 8102   6.534   1.556   9.920 -0.6591 -3.2892 -1.3133
   85SAPS   C35 8103   6.646   1.525   9.735  0.1521 -0.1049  0.3068
   85SAPS   H5X 8104   6.747   1.537   9.690 -0.8005  3.6111 -1.2158
   85SAPS   H5Y 8105   6.595   1.616   9.696  3.0404  1.5095  0.0541
   85SAPS   C36 8106   6.574   1.410   9.658 -0.9676  0.0548  0.3603
   85SAPS   H6X 8107   6.482   1.396   9.718 -1.0971  2.6874  0.8676
   85SAPS   H6Y 8108   6.630   1.314   9.662 -0.6943  0.1008 -1.3721
   85SAPS   C37 8109   6.523   1.450   9.521 -0.0367  0.1393  0.4870
   85SAPS   H7X 8110   6.497   1.558   9.516  2.6764  0.8661  0.6076
   85SAPS   H7Y 8111   6.428   1.399   9.494  0.0558  0.6144 -0.8407
   85SAPS   C38 8112   6.613   1.417   9.403  0.9104 -0.6188 -0.0429
   85SAPS   H8X 8113   6.653   1.314   9.410  3.3862  0.1971 -1.0827
   85SAPS   H8Y 8114   6.701   1.484   9.409  0.9730 -0.7826  1.0078
   85SAPS   C39 8115   6.542   1.434   9.270  0.4133  0.6107 -0.5165
   85SAPS   H9X 8116   6.434   1.409   9.276  0.2325  0.7183 -2.5014
   85SAPS   H9Y 8117   6.585   1.360   9.199  2.3727 -0.4503  1.6570
   85SAPS  C310 8118   6.550   1.572   9.206 -0.9997 -0.1902 -0.7285
   85SAPS  H10X 8119   6.658   1.596   9.207 -1.1137  0.4157  1.5211
   85SAPS  H10Y 8120   6.497   1.637   9.279  0.0713 -1.3486  1.1637
   85SAPS  C311 8121   6.484   1.578   9.070  1.0926 -0.4100  0.7168
   85SAPS  H11X 8122   6.518   1.498   9.001  0.1088 -1.6007  1.5782
   85SAPS  H11Y 8123   6.513   1.674   9.022  0.0239  0.4716  1.7617
   85SAPS  C312 8124   6.331   1.584   9.076  0.7914 -0.3388  0.5608
   85SAPS  H12X 8125   6.296   1.652   9.157 -1.2411  1.3612 -1.5778
   85SAPS  H12Y 8126   6.289   1.482   9.090  0.4066 -0.2309  0.2086
   85SAPS  C313 8127   6.267   1.657   8.947 -0.1401 -0.2134 -0.0524
   85SAPS  H13X 8128   6.332   1.740   8.912 -1.0931 -0.0125 -1.4268
   85SAPS  H13Y 8129   6.167   1.692   8.981 -0.2528 -0.7174  0.1468
   85SAPS  C314 8130   6.251   1.565   8.819 -0.4310  0.0680  0.3719
   85SAPS  H14X 8131   6.204   1.472   8.857 -1.0353  0.8154  1.4921
   85SAPS  H14Y 8132   6.351   1.545   8.774  0.3793  1.1705  1.5826
   85SAPS  C315 8133   6.174   1.636   8.703  0.0040 -0.1500  0.0138
   85SAPS  H15X 8134   6.235   1.718   8.660 -0.9750  1.4081  1.4484
   85SAPS  H15Y 8135   6.090   1.692   8.751  1.6619  0.7170  2.0741
   85SAPS  C316 8136   6.123   1.548   8.586  0.6465 -0.1767  0.1811
   85SAPS  H16X 8137   6.210   1.526   8.520  1.5882  1.1806  0.9241
   85SAPS  H16Y 8138   6.052   1.605   8.523  0.2027  1.0105  1.6980
   85SAPS  C317 8139   6.055   1.421   8.624 -0.2847 -0.5451  0.0384
   85SAPS  H17X 8140   5.962   1.427   8.684  0.0562  1.7856  0.3974
   85SAPS  H17Y 8141   6.132   1.365   8.682  0.5559  1.2037  0.6667
   85SAPS  C318 8142   6.020   1.338   8.502 -0.2294 -0.2030  0.2379
   85SAPS  H18X 8143   6.111   1.320   8.441  0.0604  1.6455  0.0509
   85SAPS  H18Y 8144   5.950   1.393   8.436  0.2314  1.8608  1.3625
   85SAPS  H18Z 8145   5.972   1.244   8.537  0.0293 -0.3239  0.2750
   86SAPS     N 8146   2.811   2.338  11.033 -0.3092 -0.3521  0.6278
   86SAPS   HN1 8147   2.850   2.305  10.943 -1.4062 -0.8502  0.3155
   86SAPS   HN2 8148   2.868   2.298  11.111  1.3604 -0.8875 -0.7900
   86SAPS   HN3 8149   2.711   2.311  11.038 -0.5730  0.6124  0.6718
   86SAPS   C12 8150   2.823   2.483  11.022 -0.3424 -0.9096 -0.0312
   86SAPS  H12A 8151   2.777   2.511  10.929 -1.9287 -0.4326  0.8607
   86SAPS   C13 8152   2.750   2.556  11.134  0.0812  0.1973  0.1213
   86SAPS  O13A 8153   2.692   2.503  11.232  0.0167 -0.0197 -0.4373
   86SAPS  O13B 8154   2.757   2.682  11.127 -0.1564  0.0742 -0.1096
   86SAPS   C11 8155   2.969   2.534  11.030  0.4316  0.0427  0.1259
   86SAPS  H11A 8156   3.026   2.495  11.117 -0.1610  0.3083  0.6414
   86SAPS  H11B 8157   2.972   2.644  11.039  1.8406  0.2282 -1.8990
   86SAPS     P 8158   3.083   2.602  10.806  0.0455  0.1412  0.3172
   86SAPS   O13 8159   3.175   2.698  10.873 -0.0404  0.6438  0.4414
   86SAPS   O14 8160   3.145   2.529  10.688  0.0955 -0.2882  0.5332
   86SAPS   O12 8161   3.044   2.497  10.919  0.0559 -0.7088  0.1052
   86SAPS   O11 8162   2.943   2.667  10.780 -0.0626 -0.1756  0.9641
   86SAPS    C1 8163   2.864   2.622  10.661 -0.1331 -0.1353  0.0656
   86SAPS    HA 8164   2.905   2.525  10.627 -0.6518 -0.3226 -0.0420
   86SAPS    HB 8165   2.757   2.607  10.688 -1.0657  2.6140 -1.6741
   86SAPS    C2 8166   2.875   2.737  10.551  0.5910  0.0635  0.0529
   86SAPS    HS 8167   2.810   2.720  10.462  0.2726  0.8345  0.1307
   86SAPS   O21 8168   3.004   2.770  10.514  0.1245  0.1379 -0.3610
   86SAPS   C21 8169   3.059   2.691  10.422  0.0201  0.4801  0.1180
   86SAPS   O22 8170   3.002   2.605  10.359 -0.4550 -0.2671  0.1118
   86SAPS   C22 8171   3.211   2.744  10.389  0.2416  0.9012 -0.5956
   86SAPS   H2R 8172   3.214   2.830  10.460  1.3129  0.9599 -0.6844
   86SAPS   H2S 8173   3.285   2.666  10.417 -0.4043 -0.2403 -1.9765
   86SAPS    C3 8174   2.799   2.863  10.608  0.0097 -0.1833 -0.4939
   86SAPS    HX 8175   2.849   2.914  10.693  1.0712  0.4231 -1.4519
   86SAPS    HY 8176   2.703   2.826  10.649  0.1313 -0.0764 -0.1119
   86SAPS   O31 8177   2.768   2.964  10.500 -0.2295  0.7330 -0.6880
   86SAPS   C31 8178   2.859   3.057  10.480  0.3974 -0.1642 -0.3422
   86SAPS   O32 8179   2.957   3.075  10.546 -1.0901 -0.3381  0.0709
   86SAPS   C32 8180   2.824   3.127  10.354  0.4076  0.0219 -0.4385
   86SAPS   H2X 8181   2.774   3.222  10.385  0.4998  0.0531 -0.3852
   86SAPS   H2Y 8182   2.752   3.070  10.292  1.9995 -1.6589 -0.8146
   86SAPS   C23 8183   3.221   2.786  10.245  0.4379  0.3186 -0.0823
   86SAPS   H3R 8184   3.306   2.857  10.239 -1.3296  2.4371 -3.9860
   86SAPS   H3S 8185   3.134   2.848  10.214  0.1840  0.0322  0.0492
   86SAPS   C24 8186   3.236   2.668  10.149  0.4328  0.0831 -0.5947
   86SAPS   H4R 8187   3.140   2.618  10.174  0.5270 -0.3380 -1.0489
   86SAPS   H4S 8188   3.320   2.608  10.188  0.8375  1.5464  0.8967
   86SAPS   C25 8189   3.249   2.711  10.010 -0.1877 -0.1870  0.7180
   86SAPS   H5R 8190   3.339   2.768   9.986 -1.6680  3.0665  2.3482
   86SAPS   C26 8191   3.143   2.730   9.937  0.4762  0.1226 -0.0575
   86SAPS   H6R 8192   3.166   2.764   9.834  3.5646 -1.9291 -0.1747
   86SAPS   C27 8193   2.994   2.705   9.958  0.1819  1.3351  0.0515
   86SAPS   H7R 8194   2.967   2.684  10.063  0.6727  0.7980  0.0744
   86SAPS   H7S 8195   2.974   2.611   9.901  3.6807  0.9166 -0.7205
   86SAPS   C28 8196   2.903   2.809   9.907  0.1675 -0.5329  0.6943
   86SAPS   H8R 8197   2.870   2.889   9.976 -1.1852 -0.5623  0.1285
   86SAPS   C29 8198   2.869   2.828   9.780  0.3542  0.0099  0.1941
   86SAPS   H9R 8199   2.792   2.898   9.745 -1.3025 -2.0494 -0.4954
   86SAPS  C210 8200   2.925   2.744   9.665 -1.0121 -0.1312  0.5178
   86SAPS  H10R 8201   2.827   2.703   9.630 -1.3220 -0.7552  2.0188
   86SAPS  H10S 8202   2.985   2.657   9.699 -0.6665 -0.1736 -0.1902
   86SAPS  C211 8203   3.003   2.814   9.555  0.1663  0.1684 -0.0142
   86SAPS  H11R 8204   3.059   2.903   9.586  2.2019 -0.8183 -0.6651
   86SAPS  C212 8205   3.005   2.778   9.421 -0.7104 -0.5832 -1.2452
   86SAPS  H12R 8206   3.071   2.838   9.356 -0.0468  2.9047  2.2948
   86SAPS  C213 8207   2.948   2.653   9.357 -0.1732  0.8032 -0.5182
   86SAPS  H13R 8208   2.914   2.579   9.432 -1.2882  0.4252 -1.3666
   86SAPS  H13S 8209   3.027   2.598   9.303  0.1824  1.5431 -0.7594
   86SAPS  C214 8210   2.838   2.686   9.265  0.6695  0.4912  0.1809
   86SAPS  H14R 8211   2.808   2.792   9.270  0.1833  0.3021  3.6756
   86SAPS  C215 8212   2.806   2.603   9.160 -0.4781  0.0028  0.8816
   86SAPS  H15R 8213   2.749   2.646   9.076  2.5349 -0.2220 -1.4884
   86SAPS  C216 8214   2.879   2.470   9.123  0.0474  0.4358  0.3589
   86SAPS  H16R 8215   2.800   2.393   9.139 -1.3253  2.0521  1.7508
   86SAPS  H16S 8216   2.952   2.443   9.202 -0.3944  0.2840  0.7193
   86SAPS  C217 8217   2.949   2.466   8.987  0.5723  0.0911  1.1045
   86SAPS  H17R 8218   3.018   2.381   8.971 -0.2512 -0.2305 -1.0928
   86SAPS  H17S 8219   3.007   2.561   8.984 -1.7478  1.5821 -1.9483
   86SAPS  C218 8220   2.852   2.458   8.867 -0.2629 -0.5273  0.9123
   86SAPS  H18R 8221   2.782   2.544   8.874  0.2299 -0.0145 -0.1643
   86SAPS  H18S 8222   2.791   2.366   8.878  0.3327 -1.0613 -0.0774
   86SAPS  C219 8223   2.915   2.458   8.724 -0.0917 -0.3823  0.0660
   86SAPS  H19R 8224   3.002   2.390   8.709 -0.1975 -0.3015 -1.0538
   86SAPS  H19S 8225   2.965   2.556   8.710 -0.6025  0.5490  3.7851
   86SAPS  C220 8226   2.820   2.447   8.604 -0.2686  0.2874 -0.7964
   86SAPS  H20R 8227   2.740   2.524   8.612  1.3635  1.8478  3.1269
   86SAPS  H20S 8228   2.767   2.350   8.592 -2.9245  1.5220  0.0785
   86SAPS  H20T 8229   2.880   2.458   8.512  1.7321 -0.6571  0.3372
   86SAPS   C33 8230   2.951   3.179  10.278  0.6274 -0.2588  0.2168
   86SAPS   H3X 8231   3.005   3.084  10.258  0.6838 -0.0555 -0.6586
   86SAPS   H3Y 8232   3.012   3.242  10.347 -0.2733  0.2498  0.5712
   86SAPS   C34 8233   2.915   3.246  10.145  0.2094 -0.0289  0.9769
   86SAPS   H4X 8234   2.861   3.343  10.153  0.7421  0.1488  3.2393
   86SAPS   H4Y 8235   2.839   3.182  10.095  1.0115 -1.0158  1.0045
   86SAPS   C35 8236   3.033   3.258  10.042 -0.1121  0.1895 -0.2119
   86SAPS   H5X 8237   3.087   3.162  10.028 -0.8389 -0.2087 -0.3090
   86SAPS   H5Y 8238   3.114   3.325  10.080 -1.0805  2.1701 -1.4941
   86SAPS   C36 8239   2.991   3.319   9.914 -0.0032 -0.4295  0.4481
   86SAPS   H6X 8240   3.083   3.341   9.856 -1.0715 -3.4085 -2.6613
   86SAPS   H6Y 8241   2.941   3.416   9.938  0.9145  0.9545 -2.7635
   86SAPS   C37 8242   2.901   3.232   9.821 -0.0725  0.5383 -0.1930
   86SAPS   H7X 8243   2.801   3.216   9.865 -1.5965 -1.6782 -3.9944
   86SAPS   H7Y 8244   2.956   3.135   9.814 -1.4478 -0.5029  2.1971
   86SAPS   C38 8245   2.881   3.310   9.694 -0.4527  0.1039  0.7008
   86SAPS   H8X 8246   2.980   3.342   9.652 -1.5716  1.2923 -1.1987
   86SAPS   H8Y 8247   2.829   3.405   9.720 -3.1378 -0.8902 -0.6825
   86SAPS   C39 8248   2.803   3.238   9.582  0.7970  0.1050  0.7405
   86SAPS   H9X 8249   2.737   3.314   9.534 -1.1546 -2.0327 -0.1431
   86SAPS   H9Y 8250   2.739   3.162   9.631 -1.4507  1.5400  0.1804
   86SAPS  C310 8251   2.884   3.177   9.455 -0.2790 -0.1289 -0.5494
   86SAPS  H10X 8252   2.943   3.088   9.488  1.7512  1.1067 -0.6780
   86SAPS  H10Y 8253   2.950   3.256   9.413 -3.2124  1.5125 -2.4866
   86SAPS  C311 8254   2.792   3.149   9.333 -0.0110  0.0375  0.3211
   86SAPS  H11X 8255   2.732   3.239   9.312 -1.1810 -1.1656 -1.8136
   86SAPS  H11Y 8256   2.727   3.060   9.348  0.3643  0.1217  2.9928
   86SAPS  C312 8257   2.883   3.127   9.209 -0.2004 -0.0933 -1.4233
   86SAPS  H12X 8258   2.954   3.045   9.234  0.7403  1.9046  3.5988
   86SAPS  H12Y 8259   2.944   3.219   9.197 -0.0436  0.1214  0.6665
   86SAPS  C313 8260   2.822   3.086   9.074 -0.3879  0.6023 -0.0641
   86SAPS  H13X 8261   2.745   3.162   9.047 -0.0390  0.7207 -0.7566
   86SAPS  H13Y 8262   2.770   2.988   9.071  0.3475  0.0918  2.3182
   86SAPS  C314 8263   2.931   3.087   8.966  0.6528  0.1203  0.7984
   86SAPS  H14X 8264   3.034   3.103   9.004  1.6964 -1.7575 -1.0356
   86SAPS  H14Y 8265   2.909   3.168   8.892  2.7456 -0.3137 -0.3805
   86SAPS  C315 8266   2.940   2.954   8.882  0.4683  0.9308  0.5972
   86SAPS  H15X 8267   2.948   2.873   8.958  1.7541 -0.1681 -0.6486
   86SAPS  H15Y 8268   3.031   2.960   8.820  0.4418  0.9976  0.5638
   86SAPS  C316 8269   2.826   2.951   8.782  0.1230 -0.2717 -0.3303
   86SAPS  H16X 8270   2.826   3.046   8.724  4.3909 -0.1383 -0.4164
   86SAPS  H16Y 8271   2.733   2.939   8.842 -0.1877 -1.3953 -1.0141
   86SAPS  C317 8272   2.827   2.830   8.694  0.1656  0.2674  0.2009
   86SAPS  H17X 8273   2.722   2.802   8.670  0.8634 -1.3485 -1.1754
   86SAPS  H17Y 8274   2.863   2.748   8.759  0.1320  2.2167  2.8611
   86SAPS  C318 8275   2.888   2.847   8.558 -0.0725 -0.0480 -0.1276
   86SAPS  H18X 8276   2.837   2.934   8.511  1.6307  0.6543 -0.7711
   86SAPS  H18Y 8277   2.890   2.750   8.505 -1.6150 -1.1486  1.6905
   86SAPS  H18Z 8278   2.993   2.877   8.578 -0.9446  2.6198  0.9291
   87SAPS     N 8279   3.176   3.847  11.229 -0.6578 -0.7553  0.2379
   87SAPS   HN1 8280   3.091   3.793  11.253 -0.3181 -2.1141 -1.3772
   87SAPS   HN2 8281   3.239   3.765  11.215  0.2309  0.0067 -0.4029
   87SAPS   HN3 8282   3.208   3.913  11.303  2.7323 -0.0217 -1.6368
   87SAPS   C12 8283   3.143   3.931  11.109  0.1572 -0.4897 -0.0721
   87SAPS  H12A 8284   3.059   3.993  11.139  0.0163 -0.9233  0.4532
   87SAPS   C13 8285   3.248   4.043  11.065 -0.1361  0.0453 -0.1777
   87SAPS  O13A 8286   3.343   4.075  11.136  0.0627 -0.0425  0.0871
   87SAPS  O13B 8287   3.213   4.121  10.970 -0.1227  0.9922 -0.5158
   87SAPS   C11 8288   3.125   3.831  10.991  0.1594 -0.5308  0.2809
   87SAPS  H11A 8289   3.112   3.885  10.895  1.3398 -0.2268  0.2821
   87SAPS  H11B 8290   3.029   3.779  11.013  0.5186 -0.4506  2.2303
   87SAPS     P 8291   3.205   3.608  10.885 -0.0931  0.0138  0.0182
   87SAPS   O13 8292   3.327   3.522  10.866  0.0016 -0.5167 -0.2433
   87SAPS   O14 8293   3.091   3.540  10.941 -0.1244  0.3587  0.1340
   87SAPS   O12 8294   3.236   3.742  10.971  0.5336 -0.3631  0.6092
   87SAPS   O11 8295   3.168   3.653  10.743  0.2116  0.8430  0.4452
   87SAPS    C1 8296   3.211   3.768  10.671 -0.1067  0.3891  1.0216
   87SAPS    HA 8297   3.124   3.832  10.646  0.4657  1.6048  2.0148
   87SAPS    HB 8298   3.296   3.822  10.718  0.0201  0.6168  0.5337
   87SAPS    C2 8299   3.253   3.737  10.517 -0.6020  0.5188  0.4267
   87SAPS    HS 8300   3.241   3.831  10.459 -2.0297  0.8162  1.1539
   87SAPS   O21 8301   3.175   3.631  10.465 -0.0984 -0.1217  0.2802
   87SAPS   C21 8302   3.045   3.652  10.448  0.0993 -0.2737 -0.4359
   87SAPS   O22 8303   2.984   3.755  10.481 -0.4009 -0.4279 -0.2159
   87SAPS   C22 8304   2.985   3.523  10.385  0.0986  0.4044  0.9403
   87SAPS   H2R 8305   3.036   3.513  10.287  2.0452  2.1655  1.6911
   87SAPS   H2S 8306   3.008   3.441  10.457 -1.9808  0.5280  1.8117
   87SAPS    C3 8307   3.408   3.700  10.496 -0.5847  0.0069  0.8501
   87SAPS    HX 8308   3.440   3.608  10.550 -0.1452 -1.2688 -1.4702
   87SAPS    HY 8309   3.469   3.783  10.537 -1.0338  0.4393  0.6443
   87SAPS   O31 8310   3.434   3.686  10.360 -0.0143  1.2982 -0.0921
   87SAPS   C31 8311   3.450   3.795  10.288 -0.2343 -0.5415  0.1486
   87SAPS   O32 8312   3.442   3.910  10.330  0.1792  0.0692  0.1025
   87SAPS   C32 8313   3.469   3.758  10.138 -0.2814  0.9855 -0.1421
   87SAPS   H2X 8314   3.562   3.699  10.122 -0.6577  0.0819  0.9386
   87SAPS   H2Y 8315   3.483   3.849  10.075  0.8380 -0.7569 -2.5862
   87SAPS   C23 8316   2.837   3.544  10.375  0.7284 -0.4420  0.5247
   87SAPS   H3R 8317   2.796   3.580  10.473  3.2080  0.2154  1.4041
   87SAPS   H3S 8318   2.796   3.447  10.342 -2.1255  0.0918  2.1351
   87SAPS   C24 8319   2.811   3.651  10.264  0.0186 -0.3848  0.0958
   87SAPS   H4R 8320   2.873   3.640  10.173  1.9334  2.4236  0.9374
   87SAPS   H4S 8321   2.850   3.750  10.295  0.1040  0.7865 -3.3413
   87SAPS   C25 8322   2.663   3.656  10.231 -0.5124  0.1993  0.6804
   87SAPS   H5R 8323   2.596   3.680  10.315  0.7846  1.4867  1.3938
   87SAPS   C26 8324   2.608   3.634  10.110 -0.0914  0.1096 -0.6787
   87SAPS   H6R 8325   2.498   3.640  10.113 -0.1781 -0.3604 -2.0282
   87SAPS   C27 8326   2.661   3.601   9.969 -0.5677  0.1659 -0.1718
   87SAPS   H7R 8327   2.587   3.550   9.904 -0.6942 -1.0978  0.9025
   87SAPS   H7S 8328   2.732   3.517   9.982 -1.7279 -0.7150  0.6948
   87SAPS   C28 8329   2.731   3.717   9.899 -0.1451  0.3417 -0.9240
   87SAPS   H8R 8330   2.786   3.790   9.961 -2.3920  0.2192  1.4096
   87SAPS   C29 8331   2.732   3.736   9.767  0.2753 -0.8665 -0.1193
   87SAPS   H9R 8332   2.793   3.821   9.733 -1.5489 -0.2956 -2.2054
   87SAPS  C210 8333   2.664   3.657   9.658 -0.0440  0.0027 -0.5742
   87SAPS  H10R 8334   2.615   3.566   9.700 -2.8781  1.0948 -1.3089
   87SAPS  H10S 8335   2.734   3.619   9.581 -2.4573 -0.5457 -2.6590
   87SAPS  C211 8336   2.551   3.738   9.603  0.1971  0.2732  0.7247
   87SAPS  H11R 8337   2.503   3.816   9.664 -0.2084  0.0590  0.6868
   87SAPS  C212 8338   2.502   3.721   9.474 -0.0685  0.0570 -0.6294
   87SAPS  H12R 8339   2.409   3.772   9.448 -2.8457 -3.7231  1.0544
   87SAPS  C213 8340   2.567   3.622   9.378  0.3009  0.4789 -0.1866
   87SAPS  H13R 8341   2.601   3.533   9.434 -0.1335 -0.2016 -0.9799
   87SAPS  H13S 8342   2.662   3.666   9.340  0.6572  3.1667  3.2727
   87SAPS  C214 8343   2.466   3.575   9.276  0.7594  0.0927 -0.5617
   87SAPS  H14R 8344   2.404   3.490   9.307  0.7227  0.5725  0.7580
   87SAPS  C215 8345   2.455   3.632   9.155 -0.1104 -0.8842  0.1532
   87SAPS  H15R 8346   2.394   3.586   9.076  2.4336  0.6669 -2.9294
   87SAPS  C216 8347   2.524   3.760   9.109 -0.0144 -0.3168  0.2366
   87SAPS  H16R 8348   2.624   3.767   9.157 -0.3586 -0.8088  1.0489
   87SAPS  H16S 8349   2.464   3.840   9.158 -0.8751 -1.1617  0.5961
   87SAPS  C217 8350   2.536   3.785   8.959 -0.2230 -0.6351 -0.1482
   87SAPS  H17R 8351   2.586   3.699   8.912  1.4224  1.0898 -1.7298
   87SAPS  H17S 8352   2.595   3.879   8.949 -0.1085 -0.6901  0.0058
   87SAPS  C218 8353   2.393   3.816   8.896  0.2980  0.5017  0.5484
   87SAPS  H18R 8354   2.345   3.906   8.940 -1.8962 -0.5876  0.5060
   87SAPS  H18S 8355   2.323   3.730   8.896  2.0945 -1.2364 -3.5977
   87SAPS  C219 8356   2.415   3.861   8.748  0.4597  0.5283  0.1298
   87SAPS  H19R 8357   2.506   3.926   8.755 -0.4431  1.9698 -0.8952
   87SAPS  H19S 8358   2.332   3.920   8.704 -0.1321 -0.0124  0.5074
   87SAPS  C220 8359   2.444   3.743   8.651 -0.0616  0.0981 -0.2673
   87SAPS  H20R 8360   2.433   3.779   8.546 -0.1530  0.2550 -0.2034
   87SAPS  H20S 8361   2.362   3.669   8.664 -0.3225  0.2598 -0.9266
   87SAPS  H20T 8362   2.540   3.690   8.669  1.1475  2.2639  0.0188
   87SAPS   C33 8363   3.360   3.671  10.083  0.1976  0.9543 -0.4832
   87SAPS   H3X 8364   3.359   3.574  10.138 -0.9696  2.2602  1.9770
   87SAPS   H3Y 8365   3.391   3.647   9.979 -3.8318 -0.3109 -1.5649
   87SAPS   C34 8366   3.230   3.753  10.077 -0.3689  0.0415 -0.0246
   87SAPS   H4X 8367   3.253   3.844  10.018  0.9419 -1.3989 -1.8477
   87SAPS   H4Y 8368   3.198   3.774  10.181  2.1041  1.6970  0.4803
   87SAPS   C35 8369   3.113   3.685  10.004  0.4184  0.0034  0.0996
   87SAPS   H5X 8370   3.025   3.753  10.014 -0.0750 -0.3450 -1.5885
   87SAPS   H5Y 8371   3.092   3.597  10.068  0.3393 -1.6822 -2.1475
   87SAPS   C36 8372   3.131   3.643   9.861  0.4238 -0.0949 -0.3919
   87SAPS   H6X 8373   3.050   3.574   9.829  0.4825 -1.0812  1.4967
   87SAPS   H6Y 8374   3.227   3.587   9.853  1.6506  1.8438  0.0039
   87SAPS   C37 8375   3.136   3.764   9.767 -0.3788 -0.8432  0.2197
   87SAPS   H7X 8376   3.216   3.834   9.798 -2.5174  1.5394  0.6735
   87SAPS   H7Y 8377   3.055   3.840   9.769  3.7060  4.0283 -0.7484
   87SAPS   C38 8378   3.159   3.727   9.619 -0.6895  0.2941  0.0194
   87SAPS   H8X 8379   3.246   3.658   9.614 -0.4837  0.5572 -0.0202
   87SAPS   H8Y 8380   3.180   3.821   9.562 -0.7377 -0.8062 -1.9251
   87SAPS   C39 8381   3.036   3.655   9.546 -0.2860  0.1097 -0.4420
   87SAPS   H9X 8382   2.947   3.721   9.537 -1.3668 -0.7425  2.8457
   87SAPS   H9Y 8383   3.002   3.575   9.616  0.5540 -0.8997 -1.1448
   87SAPS  C310 8384   3.074   3.615   9.409  0.3401  0.6173 -0.0607
   87SAPS  H10X 8385   3.153   3.537   9.409  0.2128  0.4363 -1.9706
   87SAPS  H10Y 8386   3.124   3.707   9.372 -0.0518  0.8726  0.0422
   87SAPS  C311 8387   2.963   3.568   9.317 -0.3839  0.3979  0.2281
   87SAPS  H11X 8388   2.877   3.633   9.293  2.5447  3.4380 -3.2736
   87SAPS  H11Y 8389   2.917   3.472   9.347  1.7382 -1.5925 -2.3813
   87SAPS  C312 8390   3.018   3.532   9.177  0.2876 -0.4408 -0.3732
   87SAPS  H12X 8391   2.960   3.447   9.136  2.1232 -1.8740 -0.0880
   87SAPS  H12Y 8392   3.122   3.496   9.165  0.6890  0.7829 -0.7278
   87SAPS  C313 8393   2.993   3.638   9.073  0.4994  0.4453 -0.7717
   87SAPS  H13X 8394   3.068   3.718   9.089  0.3042  0.4212  0.3429
   87SAPS  H13Y 8395   2.901   3.697   9.092  1.0059  0.6269  1.3341
   87SAPS  C314 8396   2.982   3.584   8.927  0.8075 -0.2494 -1.1429
   87SAPS  H14X 8397   2.954   3.672   8.865  0.2337 -0.6736 -1.4945
   87SAPS  H14Y 8398   2.902   3.509   8.914 -0.8133  1.1942  0.0387
   87SAPS  C315 8399   3.105   3.542   8.853 -0.0466  0.5445  0.9602
   87SAPS  H15X 8400   3.141   3.453   8.908 -2.2538  0.2556  2.0528
   87SAPS  H15Y 8401   3.183   3.622   8.859 -1.2292  1.7837  0.4005
   87SAPS  C316 8402   3.082   3.518   8.699 -0.2284 -0.2213  0.2841
   87SAPS  H16X 8403   3.184   3.514   8.655  0.0222  0.0284  0.8341
   87SAPS  H16Y 8404   3.042   3.607   8.645 -0.0757 -0.3709 -0.0763
   87SAPS  C317 8405   3.005   3.391   8.679  0.4778 -0.3847 -0.4212
   87SAPS  H17X 8406   2.903   3.405   8.720  0.4148 -3.4523  0.7464
   87SAPS  H17Y 8407   3.055   3.314   8.742  0.4490 -1.3166 -1.4919
   87SAPS  C318 8408   2.997   3.341   8.532  0.4310  0.2595 -0.1128
   87SAPS  H18X 8409   3.092   3.288   8.511  0.5513 -0.1105  1.2645
   87SAPS  H18Y 8410   2.978   3.421   8.457  0.4246 -0.2502 -0.6622
   87SAPS  H18Z 8411   2.913   3.269   8.526 -1.0489  1.8273  0.9304
   88SAPS     N 8412   4.836   1.823  10.458  0.2552 -0.1775 -0.1937
   88SAPS   HN1 8413   4.747   1.822  10.406  0.0425 -1.3022  0.1805
   88SAPS   HN2 8414   4.889   1.900  10.412 -1.5257  0.2147 -1.7002
   88SAPS   HN3 8415   4.887   1.735  10.435  0.2133 -0.5483  1.0419
   88SAPS   C12 8416   4.821   1.836  10.606 -0.4691  0.4041  0.4680
   88SAPS  H12A 8417   4.915   1.881  10.634 -0.0535  0.7575 -1.3308
   88SAPS   C13 8418   4.704   1.924  10.648 -0.3166  0.2034  0.1751
   88SAPS  O13A 8419   4.630   1.973  10.560  0.1904 -0.2722 -0.4854
   88SAPS  O13B 8420   4.681   1.951  10.767 -0.1829 -0.1224  0.0732
   88SAPS   C11 8421   4.796   1.700  10.671 -0.4660  0.0569  0.2199
   88SAPS  H11A 8422   4.695   1.658  10.655  0.0330 -0.2846 -2.3228
   88SAPS  H11B 8423   4.799   1.723  10.780  0.8735 -1.5457  0.5612
   88SAPS     P 8424   4.901   1.459  10.647 -0.0668  0.3520  0.1412
   88SAPS   O13 8425   5.006   1.410  10.553  0.6390  0.4124  0.3587
   88SAPS   O14 8426   4.916   1.419  10.788 -0.4301  0.0670  0.7978
   88SAPS   O12 8427   4.909   1.613  10.649 -0.2360  0.4381 -0.4414
   88SAPS   O11 8428   4.760   1.430  10.583 -0.2389  0.0171  0.1276
   88SAPS    C1 8429   4.721   1.307  10.526 -0.5653 -0.6027 -0.1574
   88SAPS    HA 8430   4.761   1.221  10.585 -0.7063 -1.1641 -0.8560
   88SAPS    HB 8431   4.611   1.295  10.525 -0.4212 -2.1996 -1.2208
   88SAPS    C2 8432   4.757   1.291  10.381 -0.8473  0.2244 -0.0473
   88SAPS    HS 8433   4.867   1.287  10.369 -1.0348 -2.5456 -1.9434
   88SAPS   O21 8434   4.694   1.395  10.300  0.0889  0.0371  0.4857
   88SAPS   C21 8435   4.746   1.429  10.184 -0.3109  0.1326 -0.1106
   88SAPS   O22 8436   4.849   1.387  10.132  0.6657 -0.5518  0.6327
   88SAPS   C22 8437   4.667   1.544  10.128  0.4508  0.2457 -0.0371
   88SAPS   H2R 8438   4.665   1.628  10.200 -0.7370  1.1820 -1.0907
   88SAPS   H2S 8439   4.714   1.571  10.031 -0.1862 -2.0418 -1.0531
   88SAPS    C3 8440   4.722   1.153  10.327  0.4870  0.6383 -1.0263
   88SAPS    HX 8441   4.616   1.122  10.335  1.1469 -3.0790 -3.6181
   88SAPS    HY 8442   4.769   1.077  10.393 -0.8436  0.0432 -0.7281
   88SAPS   O31 8443   4.742   1.136  10.187  1.0329 -0.4226 -0.0293
   88SAPS   C31 8444   4.858   1.091  10.154 -0.0117 -0.7174  0.3484
   88SAPS   O32 8445   4.949   1.053  10.225  0.4205  0.1233  0.1249
   88SAPS   C32 8446   4.869   1.107   9.996  0.4077 -0.0915 -0.2371
   88SAPS   H2X 8447   4.899   1.213   9.982 -2.2648  0.6710 -0.5808
   88SAPS   H2Y 8448   4.770   1.089   9.950  0.9251 -0.4289 -1.2505
   88SAPS   C23 8449   4.521   1.494  10.103 -0.6568 -0.2598  0.0655
   88SAPS   H3R 8450   4.452   1.580  10.093  1.2614  1.2739 -0.4901
   88SAPS   H3S 8451   4.476   1.429  10.182  3.0230 -0.7864  1.9324
   88SAPS   C24 8452   4.508   1.416   9.965 -0.0192  0.5223  0.2492
   88SAPS   H4R 8453   4.398   1.400   9.956  0.4285 -2.2573 -1.3588
   88SAPS   H4S 8454   4.559   1.318   9.959 -0.3631  0.3388  0.3354
   88SAPS   C25 8455   4.537   1.500   9.843  0.0805  0.1906  0.4980
   88SAPS   H5R 8456   4.498   1.602   9.849  0.8396  0.6221 -1.2803
   88SAPS   C26 8457   4.603   1.463   9.731  0.1851  0.1496  0.0419
   88SAPS   H6R 8458   4.632   1.539   9.656 -0.4108 -0.1251 -0.4747
   88SAPS   C27 8459   4.651   1.323   9.697  0.5938 -0.6699  0.3044
   88SAPS   H7R 8460   4.590   1.258   9.763 -1.1577  2.8162  2.3803
   88SAPS   H7S 8461   4.758   1.302   9.719  0.6033  0.3346  1.2632
   88SAPS   C28 8462   4.610   1.285   9.549 -0.1013  0.0065 -0.1353
   88SAPS   H8R 8463   4.591   1.374   9.487  2.7847  1.1022  0.3647
   88SAPS   C29 8464   4.630   1.167   9.488  0.3019  0.2223  0.5856
   88SAPS   H9R 8465   4.599   1.161   9.382  2.1147 -0.9055  0.0800
   88SAPS  C210 8466   4.683   1.035   9.533 -0.2310  0.1370  0.0173
   88SAPS  H10R 8467   4.630   0.949   9.488 -0.3559  0.9165 -1.3764
   88SAPS  H10S 8468   4.661   1.024   9.642  1.0404 -0.7485  0.2056
   88SAPS  C211 8469   4.829   1.036   9.516 -0.3907  0.4793  0.0522
   88SAPS  H11R 8470   4.885   1.085   9.596 -0.4916  1.0378 -0.2106
   88SAPS  C212 8471   4.895   0.973   9.418  0.1903  0.1495  0.1172
   88SAPS  H12R 8472   5.004   0.981   9.427  0.0800  0.7114  1.1395
   88SAPS  C213 8473   4.834   0.896   9.301 -1.3168  0.0481  0.0916
   88SAPS  H13R 8474   4.726   0.919   9.297 -1.0107  2.2118  1.7688
   88SAPS  H13S 8475   4.853   0.790   9.327  0.0761 -0.2099 -1.7853
   88SAPS  C214 8476   4.899   0.937   9.168 -0.5165  0.4100 -0.6856
   88SAPS  H14R 8477   4.949   1.035   9.168 -1.3411  0.8360 -1.4085
   88SAPS  C215 8478   4.898   0.873   9.055  0.7579  0.7447  1.0973
   88SAPS  H15R 8479   4.969   0.915   8.982  1.5345  0.6013  1.7472
   88SAPS  C216 8480   4.817   0.749   9.028  0.5142  0.1497  1.0446
   88SAPS  H16R 8481   4.789   0.692   9.119 -1.0729 -0.1110  0.4207
   88SAPS  H16S 8482   4.881   0.683   8.966 -0.1307  2.2943 -2.1806
   88SAPS  C217 8483   4.691   0.779   8.947  0.5260 -0.4740 -0.3156
   88SAPS  H17R 8484   4.621   0.859   8.980  0.6880 -0.7916  0.8324
   88SAPS  H17S 8485   4.633   0.686   8.930  0.7969 -0.3472 -2.2272
   88SAPS  C218 8486   4.722   0.826   8.806  0.6252  0.5813 -0.8340
   88SAPS  H18R 8487   4.764   0.741   8.748  0.5110  0.6270 -0.9857
   88SAPS  H18S 8488   4.801   0.905   8.811  0.1457  1.0007  1.5703
   88SAPS  C219 8489   4.598   0.880   8.732 -0.5988 -0.1194 -0.0328
   88SAPS  H19R 8490   4.591   0.982   8.778 -0.0924 -0.5414  1.0277
   88SAPS  H19S 8491   4.513   0.822   8.772 -0.1644 -0.4090  0.4915
   88SAPS  C220 8492   4.621   0.891   8.573 -0.1180  0.7342 -0.5959
   88SAPS  H20R 8493   4.658   0.994   8.553  1.1864  0.6083  1.0442
   88SAPS  H20S 8494   4.530   0.876   8.510  0.3042 -0.7467 -0.8888
   88SAPS  H20T 8495   4.692   0.810   8.549  0.5206  0.4487  1.9881
   88SAPS   C33 8496   4.989   1.028   9.941 -0.5677 -0.2031 -0.3508
   88SAPS   H3X 8497   5.081   1.046  10.002 -2.1704  0.1982  2.1021
   88SAPS   H3Y 8498   5.022   1.064   9.841  0.7583  0.2523  0.2241
   88SAPS   C34 8499   4.960   0.882   9.921 -0.4216  0.3722  0.5500
   88SAPS   H4X 8500   4.869   0.861   9.860  0.1487  0.1336 -0.2219
   88SAPS   H4Y 8501   4.940   0.839  10.021  0.9774  0.2621  0.8015
   88SAPS   C35 8502   5.078   0.797   9.868  0.7074 -0.0237  0.6426
   88SAPS   H5X 8503   5.049   0.690   9.873 -0.4718  0.0418 -2.3628
   88SAPS   H5Y 8504   5.165   0.809   9.936  0.1140  1.5751  1.1643
   88SAPS   C36 8505   5.119   0.838   9.724  0.2283 -0.2338 -0.1182
   88SAPS   H6X 8506   5.209   0.903   9.728 -0.3235  0.8693 -3.0188
   88SAPS   H6Y 8507   5.042   0.901   9.675  1.2199  1.4806  0.4455
   88SAPS   C37 8508   5.136   0.726   9.626  0.4375 -0.2865  0.0832
   88SAPS   H7X 8509   5.046   0.689   9.571 -0.5151 -1.0740  2.0521
   88SAPS   H7Y 8510   5.162   0.642   9.695  0.7321  0.2344  0.6164
   88SAPS   C38 8511   5.241   0.755   9.526 -0.7445  0.1314 -0.0215
   88SAPS   H8X 8512   5.335   0.767   9.585 -1.0862  2.6277  0.1537
   88SAPS   H8Y 8513   5.224   0.856   9.482  2.2782  0.3767 -0.8288
   88SAPS   C39 8514   5.249   0.656   9.402  0.1115 -0.6333  0.4012
   88SAPS   H9X 8515   5.145   0.630   9.374 -0.0416  0.4244 -0.0598
   88SAPS   H9Y 8516   5.289   0.557   9.434  1.1887 -0.1735  0.5139
   88SAPS  C310 8517   5.305   0.717   9.267 -0.1066 -0.2969 -0.4362
   88SAPS  H10X 8518   5.414   0.725   9.286 -0.5594 -0.3022  2.7593
   88SAPS  H10Y 8519   5.261   0.819   9.271  0.1010 -0.2169 -0.1369
   88SAPS  C311 8520   5.271   0.637   9.141 -0.9091  0.5136  0.0001
   88SAPS  H11X 8521   5.162   0.616   9.141 -0.3591 -3.0716  1.4796
   88SAPS  H11Y 8522   5.314   0.536   9.155 -0.0559  0.3872 -2.9193
   88SAPS  C312 8523   5.316   0.702   9.007  0.7312 -0.0929 -0.2285
   88SAPS  H12X 8524   5.293   0.810   8.995  0.0428 -0.0219  1.4723
   88SAPS  H12Y 8525   5.270   0.643   8.925  1.0795 -0.5026 -0.1326
   88SAPS  C313 8526   5.465   0.682   8.988  0.3009  0.6345 -0.1514
   88SAPS  H13X 8527   5.500   0.581   9.018  0.2612  0.6462 -0.0652
   88SAPS  H13Y 8528   5.509   0.755   9.060  0.0379 -0.3950  1.1047
   88SAPS  C314 8529   5.522   0.707   8.847 -0.1847  0.6906 -0.7360
   88SAPS  H14X 8530   5.468   0.652   8.767 -0.3219  3.5966 -2.8070
   88SAPS  H14Y 8531   5.624   0.665   8.838 -0.4643  0.2887 -2.2204
   88SAPS  C315 8532   5.531   0.851   8.808 -0.2643 -0.1514 -0.1282
   88SAPS  H15X 8533   5.587   0.909   8.884 -1.3365 -0.2960  0.7833
   88SAPS  H15Y 8534   5.429   0.895   8.801  0.0069  0.4246 -0.5853
   88SAPS  C316 8535   5.616   0.879   8.684  0.3365 -0.1489  0.4016
   88SAPS  H16X 8536   5.583   0.821   8.596 -2.4398  0.9748  0.5875
   88SAPS  H16Y 8537   5.723   0.856   8.701  0.6685 -0.1813 -1.5216
   88SAPS  C317 8538   5.609   1.027   8.643 -0.4101 -0.6472  0.6654
   88SAPS  H17X 8539   5.621   1.075   8.742 -1.2810  0.1233  0.4159
   88SAPS  H17Y 8540   5.508   1.046   8.601  0.0453 -1.6817 -0.9918
   88SAPS  C318 8541   5.715   1.077   8.539 -0.2332 -0.5000 -0.1141
   88SAPS  H18X 8542   5.694   1.047   8.435 -0.5302  0.5455 -0.3711
   88SAPS  H18Y 8543   5.812   1.030   8.564 -0.0665 -0.5203 -0.7915
   88SAPS  H18Z 8544   5.722   1.188   8.543  0.8663 -0.5785  0.5748
   89SAPS     N 8545   5.463   5.378  10.990  0.2281 -0.0200  0.0272
   89SAPS   HN1 8546   5.519   5.435  10.923  3.2945 -1.0990  1.4653
   89SAPS   HN2 8547   5.527   5.370  11.071 -0.2069 -0.7672  0.3022
   89SAPS   HN3 8548   5.447   5.284  10.948 -0.5519  0.3326 -0.4856
   89SAPS   C12 8549   5.325   5.426  11.016  0.5131  0.1134  0.3016
   89SAPS  H12A 8550   5.269   5.335  11.003  2.5235 -1.1671  0.1329
   89SAPS   C13 8551   5.315   5.475  11.170 -0.5101 -0.4564  1.0320
   89SAPS  O13A 8552   5.400   5.416  11.241 -0.0847  0.2953 -0.6506
   89SAPS  O13B 8553   5.213   5.530  11.215 -0.0133  0.6084 -0.3565
   89SAPS   C11 8554   5.270   5.533  10.926  0.4984 -0.6215 -0.5774
   89SAPS  H11A 8555   5.321   5.628  10.951  2.9956 -0.7419 -4.3812
   89SAPS  H11B 8556   5.163   5.554  10.947  0.3890  0.0095 -1.6508
   89SAPS     P 8557   5.218   5.590  10.683 -0.0733  0.0439 -0.3732
   89SAPS   O13 8558   5.075   5.579  10.693  0.1554  0.1228 -0.2487
   89SAPS   O14 8559   5.268   5.726  10.692  0.2712 -0.7776  0.1881
   89SAPS   O12 8560   5.297   5.505  10.789  0.3701  0.1487 -0.4182
   89SAPS   O11 8561   5.258   5.529  10.544  0.3204  0.6756  0.2573
   89SAPS    C1 8562   5.367   5.436  10.522  0.3098 -0.1698  0.2316
   89SAPS    HA 8563   5.463   5.487  10.545 -0.6239  1.1581  1.2988
   89SAPS    HB 8564   5.379   5.361  10.603  0.3205 -1.3763 -0.8554
   89SAPS    C2 8565   5.367   5.374  10.381  0.3550 -0.6679 -0.4813
   89SAPS    HS 8566   5.446   5.297  10.370  0.3980 -0.6378 -0.3823
   89SAPS   O21 8567   5.390   5.478  10.287  0.0337 -0.3868 -0.2586
   89SAPS   C21 8568   5.508   5.510  10.261  0.6434 -0.3551 -0.4904
   89SAPS   O22 8569   5.609   5.467  10.310  0.4941  0.2900  0.8031
   89SAPS   C22 8570   5.506   5.628  10.163 -0.0719 -0.4489  0.1485
   89SAPS   H2R 8571   5.437   5.709  10.194 -0.5731 -0.2512 -1.3656
   89SAPS   H2S 8572   5.608   5.671  10.166  0.2825 -1.3299  1.0593
   89SAPS    C3 8573   5.230   5.314  10.354  0.2804  0.6846  0.1938
   89SAPS    HX 8574   5.159   5.399  10.358  0.6017  0.9456  0.4202
   89SAPS    HY 8575   5.199   5.242  10.433 -1.1751  1.6526  0.5427
   89SAPS   O31 8576   5.232   5.244  10.224 -0.1831 -0.4083  0.3976
   89SAPS   C31 8577   5.118   5.178  10.194  0.1713  0.5490  0.4062
   89SAPS   O32 8578   5.020   5.180  10.266  0.0674 -0.5549  0.0035
   89SAPS   C32 8579   5.123   5.128  10.046  0.6457 -0.2327 -0.0958
   89SAPS   H2X 8580   5.027   5.157   9.998  0.5645  2.6802  1.5570
   89SAPS   H2Y 8581   5.150   5.021  10.055  0.5825 -0.2565 -0.1909
   89SAPS   C23 8582   5.466   5.591  10.017 -0.4539  0.5335 -0.2611
   89SAPS   H3R 8583   5.369   5.537  10.010  1.0097 -2.2731 -0.6827
   89SAPS   H3S 8584   5.534   5.517   9.969 -0.3745 -0.8013  1.7662
   89SAPS   C24 8585   5.463   5.715   9.927  0.2467  0.9487 -0.1992
   89SAPS   H4R 8586   5.571   5.738   9.917  0.8919  0.0322  3.3657
   89SAPS   H4S 8587   5.419   5.791   9.996  1.1065  0.4330  0.9405
   89SAPS   C25 8588   5.383   5.703   9.799  0.2975 -0.8564  0.0461
   89SAPS   H5R 8589   5.286   5.753   9.810  1.3800  1.3584  0.2465
   89SAPS   C26 8590   5.407   5.635   9.686  0.4300  0.1048  0.4947
   89SAPS   H6R 8591   5.340   5.638   9.598 -0.2284 -1.0575  0.9280
   89SAPS   C27 8592   5.527   5.551   9.653 -0.7643  0.1235  0.0765
   89SAPS   H7R 8593   5.488   5.453   9.617 -0.1405 -0.8841  1.9814
   89SAPS   H7S 8594   5.574   5.534   9.753  1.5053  0.1395 -0.9319
   89SAPS   C28 8595   5.632   5.607   9.558  0.5120 -0.0232 -0.6315
   89SAPS   H8R 8596   5.631   5.716   9.547 -0.0792 -0.0012 -0.4413
   89SAPS   C29 8597   5.721   5.544   9.477  0.5350  0.1626 -1.0342
   89SAPS   H9R 8598   5.762   5.614   9.403  0.5947 -0.0477 -1.2028
   89SAPS  C210 8599   5.761   5.395   9.468  0.2172 -0.1921 -0.4858
   89SAPS  H10R 8600   5.744   5.363   9.363 -1.1251 -0.7124 -0.1244
   89SAPS  H10S 8601   5.689   5.344   9.535 -0.4008  0.1827 -0.8527
   89SAPS  C211 8602   5.899   5.366   9.515  1.2592  0.3093  0.1203
   89SAPS  H11R 8603   5.887   5.308   9.608 -0.3676  0.7573  0.2302
   89SAPS  C212 8604   6.020   5.391   9.468  0.0610  0.1190  0.7112
   89SAPS  H12R 8605   6.109   5.347   9.515  0.2845  0.3803  0.5382
   89SAPS  C213 8606   6.052   5.467   9.337 -0.3578 -0.0866  0.2611
   89SAPS  H13R 8607   6.157   5.501   9.347 -0.6706  1.1592 -0.4311
   89SAPS  H13S 8608   6.003   5.566   9.333  1.0999  0.6320 -0.5300
   89SAPS  C214 8609   6.026   5.403   9.203  0.5700 -1.1794 -0.8136
   89SAPS  H14R 8610   5.933   5.345   9.198  0.0803 -0.4513 -0.2901
   89SAPS  C215 8611   6.098   5.412   9.092 -0.5442  0.1631  0.6951
   89SAPS  H15R 8612   6.054   5.360   9.005  1.2849 -0.4471  0.0917
   89SAPS  C216 8613   6.223   5.488   9.064  0.0620  0.0588  0.6821
   89SAPS  H16R 8614   6.297   5.492   9.148 -0.6703 -1.9834  1.4895
   89SAPS  H16S 8615   6.201   5.596   9.053 -0.2156  0.0351  0.9899
   89SAPS  C217 8616   6.310   5.454   8.937 -0.1894  0.0042 -0.0691
   89SAPS  H17R 8617   6.385   5.535   8.931  1.3600 -1.3381  0.3046
   89SAPS  H17S 8618   6.244   5.465   8.849  0.4350 -0.3701 -0.5943
   89SAPS  C218 8619   6.376   5.321   8.930 -0.1384  0.1027 -0.7392
   89SAPS  H18R 8620   6.298   5.244   8.947  1.7902 -2.1709 -1.7374
   89SAPS  H18S 8621   6.447   5.301   9.014 -1.3647  0.4662  0.4212
   89SAPS  C219 8622   6.440   5.294   8.799 -0.7453 -0.2141  1.2054
   89SAPS  H19R 8623   6.545   5.329   8.805 -0.2980 -0.3869 -2.7145
   89SAPS  H19S 8624   6.391   5.358   8.722  1.9121  0.2583 -0.2271
   89SAPS  C220 8625   6.432   5.148   8.742 -0.5822  0.2455  0.2656
   89SAPS  H20R 8626   6.508   5.091   8.800 -2.7523 -1.3783  1.6594
   89SAPS  H20S 8627   6.455   5.145   8.633  0.5683 -0.1859  0.5064
   89SAPS  H20T 8628   6.331   5.102   8.753 -0.7115 -0.0743 -1.8143
   89SAPS   C33 8629   5.230   5.194   9.955  0.0740  0.7550 -0.0903
   89SAPS   H3X 8630   5.331   5.197  10.001 -0.8431 -0.1959  2.1786
   89SAPS   H3Y 8631   5.192   5.297   9.939 -1.9924  0.3958  1.9557
   89SAPS   C34 8632   5.238   5.127   9.815 -0.8460 -0.7304 -0.0179
   89SAPS   H4X 8633   5.137   5.127   9.769 -0.5785 -1.0627 -0.6051
   89SAPS   H4Y 8634   5.267   5.021   9.825 -1.6603 -1.2659 -2.5790
   89SAPS   C35 8635   5.330   5.198   9.719 -0.3621  0.2853 -0.3706
   89SAPS   H5X 8636   5.432   5.184   9.761 -0.4491 -0.1118 -0.2900
   89SAPS   H5Y 8637   5.296   5.304   9.727 -0.8559  0.0787  0.3249
   89SAPS   C36 8638   5.329   5.138   9.585  0.1063  0.4700  0.2793
   89SAPS   H6X 8639   5.227   5.098   9.563  0.0939 -0.1184  1.3666
   89SAPS   H6Y 8640   5.392   5.046   9.577 -1.1827 -0.3231 -1.7073
   89SAPS   C37 8641   5.376   5.240   9.484 -0.8069 -1.0110 -1.3512
   89SAPS   H7X 8642   5.485   5.257   9.496 -1.1234  0.6242 -0.4846
   89SAPS   H7Y 8643   5.331   5.340   9.502 -0.9104 -1.0928 -1.1541
   89SAPS   C38 8644   5.338   5.198   9.346  0.5288 -0.1645 -0.0548
   89SAPS   H8X 8645   5.229   5.210   9.326  0.5720  2.4389  0.8827
   89SAPS   H8Y 8646   5.379   5.095   9.336 -1.3081 -1.1624  1.8805
   89SAPS   C39 8647   5.404   5.287   9.241  0.2161 -0.3164 -0.5034
   89SAPS   H9X 8648   5.513   5.295   9.261 -0.0761 -1.9601  2.3961
   89SAPS   H9Y 8649   5.370   5.392   9.239  0.7521 -0.1383 -2.6548
   89SAPS  C310 8650   5.389   5.234   9.099 -0.3526 -0.4284 -0.3840
   89SAPS  H10X 8651   5.413   5.126   9.108 -0.2495 -0.4917 -1.2883
   89SAPS  H10Y 8652   5.458   5.280   9.025 -1.8874  2.0551 -0.4031
   89SAPS  C311 8653   5.248   5.260   9.041  0.6285  0.7575  0.4314
   89SAPS  H11X 8654   5.230   5.369   9.054  0.0396  0.5443  1.5036
   89SAPS  H11Y 8655   5.169   5.208   9.099 -0.1580  1.8078  0.3351
   89SAPS  C312 8656   5.232   5.219   8.890 -0.3047 -0.0436 -0.3375
   89SAPS  H12X 8657   5.122   5.218   8.872 -0.2857  0.3212 -0.4851
   89SAPS  H12Y 8658   5.278   5.118   8.882  0.6060  0.3579 -0.2659
   89SAPS  C313 8659   5.294   5.313   8.788  0.3613  0.4266  0.1189
   89SAPS  H13X 8660   5.398   5.327   8.824 -0.1737  0.1715  1.8476
   89SAPS  H13Y 8661   5.246   5.413   8.782  0.0032  0.4732  2.8245
   89SAPS  C314 8662   5.286   5.261   8.640  0.0499  0.0344 -0.4761
   89SAPS  H14X 8663   5.361   5.179   8.644 -0.3300 -0.2895  0.1782
   89SAPS  H14Y 8664   5.344   5.341   8.590  0.2014  1.3212  1.6400
   89SAPS  C315 8665   5.145   5.246   8.586 -0.3979 -0.6842 -0.1387
   89SAPS  H15X 8666   5.102   5.348   8.578 -0.0925 -0.6474 -1.5097
   89SAPS  H15Y 8667   5.085   5.181   8.654  1.6469 -0.7041  1.7521
   89SAPS  C316 8668   5.138   5.182   8.444  0.2626  0.0373  0.0920
   89SAPS  H16X 8669   5.216   5.103   8.438 -1.0996 -1.3442  0.0207
   89SAPS  H16Y 8670   5.144   5.256   8.361 -1.0199  0.2360  0.1610
   89SAPS  C317 8671   5.005   5.109   8.433  0.3920  0.4558 -0.6765
   89SAPS  H17X 8672   5.011   5.018   8.496 -0.7547  1.4127  0.8930
   89SAPS  H17Y 8673   4.997   5.074   8.328  1.7265 -1.6360 -0.1481
   89SAPS  C318 8674   4.877   5.191   8.448  0.0663  0.4598  0.3097
   89SAPS  H18X 8675   4.873   5.251   8.541  0.5953  0.0593  0.5947
   89SAPS  H18Y 8676   4.789   5.123   8.443  0.6508 -0.2472 -0.7483
   89SAPS  H18Z 8677   4.875   5.264   8.364  1.2757 -1.4811 -1.4956
   90SAPS     N 8678   5.837   5.125  10.651  0.4804  0.0975 -0.7748
   90SAPS   HN1 8679   5.827   5.179  10.562 -1.8473 -1.9163 -1.8987
   90SAPS   HN2 8680   5.917   5.059  10.643 -0.2410 -0.7095 -1.6157
   90SAPS   HN3 8681   5.752   5.067  10.669  0.3355  0.2942 -0.8241
   90SAPS   C12 8682   5.846   5.226  10.768 -0.3573  0.0951  0.3328
   90SAPS  H12A 8683   5.770   5.302  10.761 -0.2486  0.4663  2.5661
   90SAPS   C13 8684   5.821   5.156  10.903  0.5443 -0.1760 -0.7723
   90SAPS  O13A 8685   5.818   5.029  10.915  0.2729 -0.0924 -0.0591
   90SAPS  O13B 8686   5.852   5.224  11.006  0.8632  1.0902 -0.1367
   90SAPS   C11 8687   5.993   5.290  10.772 -0.4542 -0.3792 -0.2009
   90SAPS  H11A 8688   6.069   5.208  10.779 -1.5725 -1.4545 -0.2908
   90SAPS  H11B 8689   6.011   5.343  10.868 -0.1785  1.8170 -1.4173
   90SAPS     P 8690   5.988   5.526  10.666 -0.4914 -0.3147  0.0456
   90SAPS   O13 8691   5.841   5.541  10.639  0.4664 -0.1414  0.0642
   90SAPS   O14 8692   6.045   5.569  10.794  0.3876 -0.4239 -0.5408
   90SAPS   O12 8693   6.021   5.373  10.656  0.2442 -0.5470  0.0729
   90SAPS   O11 8694   6.079   5.592  10.558 -0.4183 -0.1771 -0.0474
   90SAPS    C1 8695   6.104   5.534  10.428 -0.2623  0.1839 -0.2742
   90SAPS    HA 8696   6.205   5.488  10.427 -0.2975  0.1140 -1.3002
   90SAPS    HB 8697   6.044   5.445  10.398  1.6714 -0.6783 -1.8164
   90SAPS    C2 8698   6.081   5.641  10.322 -0.1796 -0.2949  0.3835
   90SAPS    HS 8699   6.088   5.593  10.222 -0.8106 -0.1284  0.2526
   90SAPS   O21 8700   6.169   5.751  10.347  0.0540  0.3580  0.2239
   90SAPS   C21 8701   6.293   5.725  10.300 -0.9397  0.2107  0.0975
   90SAPS   O22 8702   6.322   5.627  10.229 -0.1403  0.6768  0.1924
   90SAPS   C22 8703   6.376   5.844  10.331  0.2973  0.5470  0.5375
   90SAPS   H2R 8704   6.317   5.920  10.386  1.1535  0.4652  1.6319
   90SAPS   H2S 8705   6.448   5.805  10.407  1.5556 -1.6085 -1.6204
   90SAPS    C3 8706   5.931   5.687  10.331 -0.0543 -0.3902 -0.4887
   90SAPS    HX 8707   5.924   5.759  10.415 -2.1835 -0.6839 -0.3586
   90SAPS    HY 8708   5.861   5.609  10.367  0.6297 -0.1948  1.3386
   90SAPS   O31 8709   5.888   5.734  10.208  0.3230 -0.2687 -0.1869
   90SAPS   C31 8710   5.876   5.867  10.191  0.0462 -0.3277  0.3933
   90SAPS   O32 8711   5.904   5.945  10.277 -0.1203  0.3156 -0.7121
   90SAPS   C32 8712   5.837   5.910  10.051  0.5841 -0.4061  0.7214
   90SAPS   H2X 8713   5.908   5.991  10.025 -0.5957 -0.0580 -1.7832
   90SAPS   H2Y 8714   5.739   5.962  10.060  0.6260  0.0792 -1.1570
   90SAPS   C23 8715   6.449   5.909  10.210  0.2561  0.0227  0.3739
   90SAPS   H3R 8716   6.508   5.839  10.147 -0.6319 -1.1878  0.8427
   90SAPS   H3S 8717   6.520   5.990  10.236  0.7285  0.1439 -1.2198
   90SAPS   C24 8718   6.345   5.984  10.116 -0.0022  0.4142 -0.7139
   90SAPS   H4R 8719   6.394   6.052  10.043  0.2233 -0.1979 -1.1539
   90SAPS   H4S 8720   6.283   6.049  10.181 -1.0056 -1.5408  0.3814
   90SAPS   C25 8721   6.248   5.895  10.037 -0.9257  0.9767  0.5306
   90SAPS   H5R 8722   6.151   5.878  10.086 -1.8319 -0.5594 -1.6224
   90SAPS   C26 8723   6.279   5.824   9.925  0.1443 -0.0441  0.1126
   90SAPS   H6R 8724   6.197   5.759   9.890  0.6929 -1.7863  1.8877
   90SAPS   C27 8725   6.408   5.815   9.852  0.0829 -0.1171 -0.7645
   90SAPS   H7R 8726   6.414   5.713   9.809  0.5187  0.5331 -2.2991
   90SAPS   H7S 8727   6.490   5.834   9.925 -1.6256 -0.5365  1.3877
   90SAPS   C28 8728   6.424   5.917   9.741 -0.5015  0.1758 -0.2128
   90SAPS   H8R 8729   6.419   6.023   9.769 -1.2278  0.0466  0.1834
   90SAPS   C29 8730   6.478   5.888   9.615 -0.1183 -0.0919  0.2898
   90SAPS   H9R 8731   6.489   5.964   9.536  1.1742 -0.0887  0.4521
   90SAPS  C210 8732   6.504   5.750   9.563 -0.3110 -0.4830  0.1083
   90SAPS  H10R 8733   6.502   5.675   9.644  1.8810 -0.7707 -0.0212
   90SAPS  H10S 8734   6.609   5.755   9.525 -0.6961  2.4293 -0.8221
   90SAPS  C211 8735   6.399   5.709   9.457  0.0475 -0.1423  0.0476
   90SAPS  H11R 8736   6.313   5.651   9.494 -0.7575  1.8181  1.4231
   90SAPS  C212 8737   6.394   5.751   9.330  0.1010  0.0945  0.4936
   90SAPS  H12R 8738   6.318   5.707   9.265 -0.8439 -2.6137  3.1991
   90SAPS  C213 8739   6.487   5.841   9.267 -0.2714  0.2908  0.0142
   90SAPS  H13R 8740   6.551   5.898   9.337 -1.2397  1.9828 -0.3996
   90SAPS  H13S 8741   6.437   5.927   9.216  3.2661  2.1323 -0.6606
   90SAPS  C214 8742   6.569   5.756   9.168 -0.2480  0.1850 -0.1963
   90SAPS  H14R 8743   6.632   5.684   9.222 -0.1393  0.5917  0.2272
   90SAPS  C215 8744   6.577   5.770   9.035 -0.5676 -0.0089  0.2246
   90SAPS  H15R 8745   6.636   5.703   8.971 -1.7803 -2.6859  1.7568
   90SAPS  C216 8746   6.507   5.873   8.958  0.1261 -0.0224 -0.3935
   90SAPS  H16R 8747   6.421   5.917   9.013 -1.1442 -0.0734 -2.2710
   90SAPS  H16S 8748   6.465   5.839   8.861  1.4740 -2.0868 -0.3169
   90SAPS  C217 8749   6.611   5.983   8.938 -0.4458 -0.2535  0.1451
   90SAPS  H17R 8750   6.676   6.002   9.026  1.3178 -0.5327 -1.0483
   90SAPS  H17S 8751   6.551   6.075   8.918 -1.0212 -1.1202 -2.4517
   90SAPS  C218 8752   6.716   5.979   8.822  0.6947 -0.1903  0.9526
   90SAPS  H18R 8753   6.667   5.950   8.726  0.6669  1.7292  0.3519
   90SAPS  H18S 8754   6.777   5.891   8.851 -1.2064 -1.4526  1.3215
   90SAPS  C219 8755   6.798   6.108   8.813 -0.1567  0.0355 -0.6588
   90SAPS  H19R 8756   6.848   6.125   8.911 -1.5504 -0.8091  0.2330
   90SAPS  H19S 8757   6.726   6.189   8.787  0.4532  0.7253 -0.2340
   90SAPS  C220 8758   6.906   6.103   8.709 -0.9381 -0.2687 -0.0155
   90SAPS  H20R 8759   6.887   6.039   8.619  2.9697 -1.3359 -0.2562
   90SAPS  H20S 8760   6.997   6.052   8.749  1.1210  0.0096 -3.8196
   90SAPS  H20T 8761   6.944   6.204   8.680  1.2439 -0.9665  0.1992
   90SAPS   C33 8762   5.836   5.796   9.939  0.1774  0.1459 -0.4864
   90SAPS   H3X 8763   5.754   5.724   9.958 -1.4605  1.2990 -2.7511
   90SAPS   H3Y 8764   5.926   5.732   9.951  0.8039  0.9437 -0.8196
   90SAPS   C34 8765   5.816   5.845   9.790 -0.0270 -0.2947 -0.1570
   90SAPS   H4X 8766   5.726   5.908   9.777  1.2716  2.0517  1.4137
   90SAPS   H4Y 8767   5.812   5.750   9.732  0.1580 -0.7576  0.5765
   90SAPS   C35 8768   5.934   5.931   9.732  0.3155  1.1748  0.0733
   90SAPS   H5X 8769   6.036   5.892   9.753  0.7525  1.5205 -1.2991
   90SAPS   H5Y 8770   5.923   6.027   9.785  0.3127  1.1285  0.1571
   90SAPS   C36 8771   5.932   5.965   9.580 -0.2100  0.2000  0.2427
   90SAPS   H6X 8772   5.976   6.067   9.573 -0.4728  0.2617 -0.5668
   90SAPS   H6Y 8773   5.827   5.970   9.546  0.0889  0.1033 -0.7338
   90SAPS   C37 8774   6.004   5.857   9.500  0.1921 -0.3059  0.2893
   90SAPS   H7X 8775   5.979   5.761   9.550  1.0361 -0.9650 -0.5319
   90SAPS   H7Y 8776   6.113   5.861   9.523  0.4188  0.6316 -0.9013
   90SAPS   C38 8777   5.962   5.848   9.357  0.0861 -0.4979 -0.0642
   90SAPS   H8X 8778   5.855   5.818   9.365 -0.4873  1.2018 -0.7528
   90SAPS   H8Y 8779   6.028   5.770   9.315  1.6428 -0.2692  1.8163
   90SAPS   C39 8780   5.961   5.978   9.268 -0.3002  0.6036  0.5015
   90SAPS   H9X 8781   6.067   6.005   9.249 -0.8077  2.8025  0.4869
   90SAPS   H9Y 8782   5.918   6.061   9.328 -1.5061 -1.2969  2.3989
   90SAPS  C310 8783   5.891   5.958   9.130 -0.3656  0.6518  0.7728
   90SAPS  H10X 8784   5.780   5.955   9.138 -0.5302  0.6439 -1.0256
   90SAPS  H10Y 8785   5.923   5.859   9.092  0.1385  0.6198  1.2687
   90SAPS  C311 8786   5.932   6.062   9.026 -0.4321  0.0187 -0.3703
   90SAPS  H11X 8787   5.904   6.168   9.045 -0.2634  0.2412 -1.3126
   90SAPS  H11Y 8788   5.867   6.034   8.940  1.1913 -0.5528 -1.4572
   90SAPS  C312 8789   6.078   6.039   8.986  0.1468 -0.6568  0.2453
   90SAPS  H12X 8790   6.090   5.929   8.983  1.3482 -0.5092 -0.8128
   90SAPS  H12Y 8791   6.155   6.078   9.057 -1.2204  1.1569  0.8292
   90SAPS  C313 8792   6.104   6.082   8.839 -0.0156  0.1713 -0.4022
   90SAPS  H13X 8793   6.079   6.190   8.832  0.5552  0.3191 -0.2407
   90SAPS  H13Y 8794   6.034   6.025   8.775 -0.7816 -0.7470  1.1769
   90SAPS  C314 8795   6.247   6.039   8.807  0.0100 -0.2082  0.6730
   90SAPS  H14X 8796   6.278   5.939   8.843  1.5717 -0.4845 -1.2626
   90SAPS  H14Y 8797   6.329   6.094   8.857 -0.5685 -1.7916  3.5819
   90SAPS  C315 8798   6.274   6.029   8.653  0.0330  0.3411 -0.2889
   90SAPS  H15X 8799   6.377   5.995   8.632  0.4466  1.2339  0.2340
   90SAPS  H15Y 8800   6.265   6.122   8.591  1.0448 -0.6180 -1.9492
   90SAPS  C316 8801   6.186   5.921   8.577 -0.3608 -0.3701 -0.2114
   90SAPS  H16X 8802   6.220   5.925   8.472  0.5428  0.6627  0.1036
   90SAPS  H16Y 8803   6.076   5.938   8.589 -0.2257 -0.3308  1.0941
   90SAPS  C317 8804   6.207   5.777   8.629 -0.1769  0.2206  0.3794
   90SAPS  H17X 8805   6.287   5.766   8.705  0.4179 -2.1271 -0.5052
   90SAPS  H17Y 8806   6.242   5.711   8.547  2.0105  1.2275  0.4147
   90SAPS  C318 8807   6.081   5.733   8.690 -0.0658  0.4724 -0.5702
   90SAPS  H18X 8808   6.048   5.808   8.765  2.6940  0.8105  0.4218
   90SAPS  H18Y 8809   6.100   5.639   8.745  1.1977  2.0571  1.8849
   90SAPS  H18Z 8810   6.015   5.722   8.602  0.3552 -0.4492 -0.7829
   91SAPS     N 8811   1.457   1.231   5.687 -0.9649 -0.3896 -0.3600
   91SAPS   HN1 8812   1.370   1.286   5.699 -0.7327 -0.2648  0.8959
   91SAPS   HN2 8813   1.534   1.293   5.656 -0.9179  2.1690  4.1107
   91SAPS   HN3 8814   1.442   1.153   5.619  0.7529 -0.2748 -0.9099
   91SAPS   C12 8815   1.506   1.193   5.821  0.5079 -0.8661 -0.4781
   91SAPS  H12A 8816   1.435   1.116   5.851 -0.4375  0.6390  1.3819
   91SAPS   C13 8817   1.646   1.150   5.818 -0.3555 -0.5058  0.5073
   91SAPS  O13A 8818   1.697   1.141   5.703  0.5520  0.2246 -0.8417
   91SAPS  O13B 8819   1.712   1.112   5.920  0.1946 -0.3265  0.4657
   91SAPS   C11 8820   1.513   1.312   5.912  0.2390 -0.2745  0.3810
   91SAPS  H11A 8821   1.594   1.380   5.880 -0.8285  1.1434  0.5706
   91SAPS  H11B 8822   1.537   1.273   6.013  1.2101  1.1221  0.7063
   91SAPS     P 8823   1.268   1.358   5.999  0.2507  0.4827 -0.2620
   91SAPS   O13 8824   1.165   1.464   5.982 -0.1453  0.0108  0.5822
   91SAPS   O14 8825   1.221   1.220   5.991 -0.5782  0.1835  0.2688
   91SAPS   O12 8826   1.393   1.389   5.902  0.5757  0.3640  0.0425
   91SAPS   O11 8827   1.340   1.362   6.144  0.4935 -0.3353 -0.2206
   91SAPS    C1 8828   1.424   1.478   6.162 -0.0612  0.9412 -0.4901
   91SAPS    HA 8829   1.529   1.441   6.154 -0.1006 -0.3306  2.8610
   91SAPS    HB 8830   1.405   1.557   6.087  4.6388  0.0694 -2.9898
   91SAPS    C2 8831   1.410   1.535   6.310  0.1901  0.1673 -0.6276
   91SAPS    HS 8832   1.475   1.625   6.304  1.3489 -0.6628 -0.9642
   91SAPS   O21 8833   1.448   1.438   6.403 -0.5518 -0.0897 -0.4909
   91SAPS   C21 8834   1.539   1.475   6.492 -0.0675  0.1298  0.4283
   91SAPS   O22 8835   1.610   1.576   6.474  0.2318  0.3441  0.1441
   91SAPS   C22 8836   1.530   1.385   6.620 -0.1691 -0.2643 -0.5009
   91SAPS   H2R 8837   1.425   1.390   6.657 -0.3917 -2.7398 -0.6034
   91SAPS   H2S 8838   1.564   1.282   6.593 -1.0650 -0.2520 -1.7947
   91SAPS    C3 8839   1.263   1.585   6.337 -0.8904 -0.1806 -1.1038
   91SAPS    HX 8840   1.198   1.496   6.330 -1.0172 -0.1559 -0.3232
   91SAPS    HY 8841   1.231   1.656   6.258 -0.6907  0.0450 -0.9850
   91SAPS   O31 8842   1.255   1.646   6.470 -0.6609  0.3869 -0.5523
   91SAPS   C31 8843   1.243   1.780   6.479 -0.2489 -0.7538  0.0661
   91SAPS   O32 8844   1.236   1.852   6.378 -0.1748  0.6166  0.4310
   91SAPS   C32 8845   1.250   1.826   6.623  0.5274 -0.0742  0.7537
   91SAPS   H2X 8846   1.194   1.749   6.679  1.6064 -2.1824 -0.9507
   91SAPS   H2Y 8847   1.196   1.923   6.624 -1.0186 -0.9025  1.6971
   91SAPS   C23 8848   1.628   1.429   6.732  0.1255  0.0165 -0.0788
   91SAPS   H3R 8849   1.612   1.536   6.758 -1.0173  0.4576 -2.3430
   91SAPS   H3S 8850   1.735   1.440   6.706  0.1470  0.5741  0.2415
   91SAPS   C24 8851   1.593   1.353   6.864  0.6492  0.3537  0.0012
   91SAPS   H4R 8852   1.483   1.340   6.869  0.7151 -1.1057 -1.4424
   91SAPS   H4S 8853   1.625   1.413   6.952 -1.4472  0.8438  0.4664
   91SAPS   C25 8854   1.667   1.220   6.876  0.4572  0.9304  0.2174
   91SAPS   H5R 8855   1.672   1.161   6.784 -3.1967 -0.3809  0.6986
   91SAPS   C26 8856   1.740   1.167   6.981 -0.2638 -0.3548 -0.3914
   91SAPS   H6R 8857   1.802   1.080   6.957 -2.0801 -1.5373 -1.0091
   91SAPS   C27 8858   1.767   1.231   7.115 -0.7059 -0.8700  0.6256
   91SAPS   H7R 8859   1.796   1.336   7.089  0.1523 -0.9491  1.2204
   91SAPS   H7S 8860   1.852   1.177   7.161 -0.9419 -1.4999  0.3259
   91SAPS   C28 8861   1.651   1.231   7.218  0.0205 -0.3594 -0.4480
   91SAPS   H8R 8862   1.551   1.244   7.174 -1.6678  0.9611  3.4279
   91SAPS   C29 8863   1.646   1.215   7.352  0.4205  0.3907  0.2283
   91SAPS   H9R 8864   1.547   1.202   7.399 -0.4267  1.0721 -1.2847
   91SAPS  C210 8865   1.762   1.189   7.448  0.3706 -0.2766  0.0406
   91SAPS  H10R 8866   1.744   1.240   7.545  0.3288 -0.7959  0.3075
   91SAPS  H10S 8867   1.853   1.231   7.398  0.2250  1.2384  0.9930
   91SAPS  C211 8868   1.792   1.041   7.466  1.2705 -0.2455  0.1507
   91SAPS  H11R 8869   1.767   0.978   7.379 -1.6317  0.0937  0.6301
   91SAPS  C212 8870   1.857   0.987   7.573 -0.2244 -0.3279 -0.2624
   91SAPS  H12R 8871   1.858   0.877   7.569  1.7666 -0.3357 -0.2420
   91SAPS  C213 8872   1.913   1.055   7.699 -0.1337 -0.3188 -0.6942
   91SAPS  H13R 8873   1.847   1.045   7.788  1.9357  1.4915  1.1455
   91SAPS  H13S 8874   1.931   1.164   7.686 -1.3853  0.0127  0.1531
   91SAPS  C214 8875   2.047   0.990   7.736 -0.1683  0.5844 -0.0296
   91SAPS  H14R 8876   2.092   0.919   7.664 -1.1448 -0.3998  0.3057
   91SAPS  C215 8877   2.104   1.000   7.855  0.2003 -0.2156  0.0712
   91SAPS  H15R 8878   2.199   0.947   7.874 -0.0225 -0.2088  1.2974
   91SAPS  C216 8879   2.056   1.088   7.969  0.6332 -0.5350 -0.5698
   91SAPS  H16R 8880   1.949   1.120   7.962  1.2894  2.2913  0.9918
   91SAPS  H16S 8881   2.103   1.188   7.963 -1.0898  0.3086 -0.7850
   91SAPS  C217 8882   2.069   1.035   8.117 -0.1576 -0.6886  0.2269
   91SAPS  H17R 8883   1.993   0.958   8.141 -0.8991  0.6986  2.6374
   91SAPS  H17S 8884   2.037   1.123   8.177  0.5406  0.2211 -0.6731
   91SAPS  C218 8885   2.208   0.989   8.164  0.2182 -0.3926  0.3299
   91SAPS  H18R 8886   2.231   0.892   8.116  1.5131  0.8558 -1.7754
   91SAPS  H18S 8887   2.200   0.973   8.273 -2.1638 -0.4625  0.2125
   91SAPS  C219 8888   2.331   1.079   8.149 -0.2732 -0.3438 -1.0346
   91SAPS  H19R 8889   2.310   1.182   8.185 -1.8918 -1.1309  0.3871
   91SAPS  H19S 8890   2.345   1.101   8.041  0.2463 -2.7157 -1.5204
   91SAPS  C220 8891   2.463   1.012   8.203  0.4860  0.6078  0.4651
   91SAPS  H20R 8892   2.547   1.083   8.184 -0.7811  1.9587 -0.2137
   91SAPS  H20S 8893   2.478   0.913   8.155 -0.5896  0.5157  0.2975
   91SAPS  H20T 8894   2.455   1.007   8.314 -0.5092  1.7778  0.4629
   91SAPS   C33 8895   1.394   1.830   6.677 -0.1849 -0.0923  0.0202
   91SAPS   H3X 8896   1.443   1.912   6.622  0.5325 -0.8692 -0.5187
   91SAPS   H3Y 8897   1.447   1.734   6.660  1.6490  0.2569  2.9504
   91SAPS   C34 8898   1.410   1.861   6.831  0.5200  0.5549  0.5913
   91SAPS   H4X 8899   1.337   1.941   6.858 -1.2107 -0.9520  0.6000
   91SAPS   H4Y 8900   1.514   1.890   6.857  0.2300  2.4231 -0.1423
   91SAPS   C35 8901   1.376   1.747   6.929  0.3718  0.6276  0.1988
   91SAPS   H5X 8902   1.418   1.648   6.901 -1.8105 -0.0425 -0.9904
   91SAPS   H5Y 8903   1.265   1.735   6.925  0.5465 -0.7099 -2.1914
   91SAPS   C36 8904   1.409   1.775   7.071 -0.2463  0.2875 -0.0431
   91SAPS   H6X 8905   1.328   1.836   7.116 -1.5049 -0.7610 -0.8253
   91SAPS   H6Y 8906   1.491   1.848   7.055  0.2769 -0.6675 -2.0725
   91SAPS   C37 8907   1.455   1.655   7.152  1.3135  0.0281 -0.7809
   91SAPS   H7X 8908   1.545   1.608   7.107  1.5852  0.9182 -1.1921
   91SAPS   H7Y 8909   1.374   1.578   7.150  0.8445  0.3911  1.5385
   91SAPS   C38 8910   1.501   1.693   7.290  0.9051 -0.5003  0.7685
   91SAPS   H8X 8911   1.421   1.735   7.355  0.0008 -0.2542 -0.4718
   91SAPS   H8Y 8912   1.578   1.772   7.281  1.4648 -1.1664 -0.5966
   91SAPS   C39 8913   1.566   1.579   7.373 -0.3636  0.2210 -0.8579
   91SAPS   H9X 8914   1.671   1.564   7.341 -1.0811 -1.4660 -2.6256
   91SAPS   H9Y 8915   1.500   1.491   7.361 -1.0058  0.3515  1.3060
   91SAPS  C310 8916   1.572   1.621   7.522 -0.2417 -0.1821  0.4875
   91SAPS  H10X 8917   1.474   1.642   7.569  0.6202  0.0551  2.2404
   91SAPS  H10Y 8918   1.643   1.707   7.522 -0.2931 -0.1269 -0.7357
   91SAPS  C311 8919   1.639   1.499   7.604  0.3356 -0.7945 -0.3468
   91SAPS  H11X 8920   1.741   1.507   7.560 -0.0832 -2.5240 -1.7400
   91SAPS  H11Y 8921   1.605   1.398   7.573 -2.6109 -0.6131  1.9432
   91SAPS  C312 8922   1.645   1.517   7.755  0.4991 -0.0544  0.4626
   91SAPS  H12X 8923   1.691   1.616   7.771 -0.0848  0.1517  0.9123
   91SAPS  H12Y 8924   1.710   1.434   7.792 -0.8874 -1.5799 -0.3753
   91SAPS  C313 8925   1.516   1.500   7.834  0.0086 -0.0493  0.0049
   91SAPS  H13X 8926   1.552   1.493   7.939  1.2543  4.6140  0.1030
   91SAPS  H13Y 8927   1.474   1.397   7.825  0.2445 -0.2837  1.3292
   91SAPS  C314 8928   1.406   1.614   7.836 -0.3090 -0.0688 -0.0295
   91SAPS  H14X 8929   1.339   1.598   7.923 -0.3253 -0.8768 -0.1781
   91SAPS  H14Y 8930   1.338   1.617   7.748 -0.9137  0.1637  0.4387
   91SAPS  C315 8931   1.465   1.756   7.850 -0.2438 -0.3397  0.1102
   91SAPS  H15X 8932   1.528   1.777   7.761 -0.0076 -1.3135  0.0375
   91SAPS  H15Y 8933   1.529   1.773   7.939 -3.2412  0.4642  2.2901
   91SAPS  C316 8934   1.349   1.855   7.864 -0.0708 -0.0754 -0.3729
   91SAPS  H16X 8935   1.280   1.821   7.944 -0.9023 -1.9288 -1.8145
   91SAPS  H16Y 8936   1.302   1.850   7.764 -0.9634 -1.1137  0.0882
   91SAPS  C317 8937   1.391   1.999   7.891 -0.1201 -0.0285 -0.3034
   91SAPS  H17X 8938   1.464   2.034   7.814  0.5763  0.1507  0.4269
   91SAPS  H17Y 8939   1.451   1.998   7.984  1.2297  0.0671 -1.1365
   91SAPS  C318 8940   1.271   2.099   7.895 -0.5764  0.1177  0.1605
   91SAPS  H18X 8941   1.296   2.194   7.946 -0.6650 -0.6616  1.7234
   91SAPS  H18Y 8942   1.183   2.054   7.947 -1.2653  0.8192 -0.3748
   91SAPS  H18Z 8943   1.230   2.126   7.795 -2.8529  0.4304  1.1045
   92SAPS     N 8944   4.316   4.065   5.927  0.6062 -0.3540  0.2890
   92SAPS   HN1 8945   4.324   4.061   5.823 -0.3965 -1.9014  0.2472
   92SAPS   HN2 8946   4.407   4.101   5.961  1.1498 -0.3045 -1.1309
   92SAPS   HN3 8947   4.297   3.967   5.955 -3.1741 -0.8665 -3.0240
   92SAPS   C12 8948   4.205   4.148   5.972  0.0902 -0.7202 -0.3713
   92SAPS  H12A 8949   4.222   4.171   6.076 -0.6195 -0.0366 -0.3976
   92SAPS   C13 8950   4.195   4.286   5.902  0.2187 -0.3708  0.7296
   92SAPS  O13A 8951   4.289   4.331   5.830 -0.0685  1.0221 -0.0749
   92SAPS  O13B 8952   4.111   4.371   5.952 -0.0278 -0.1548 -0.1431
   92SAPS   C11 8953   4.061   4.081   5.953  0.6811  0.1613 -0.3177
   92SAPS  H11A 8954   4.029   4.071   5.847 -1.2812  1.2189  0.1391
   92SAPS  H11B 8955   3.986   4.140   6.009  1.3936  0.1120  0.7214
   92SAPS     P 8956   4.113   3.903   6.143 -0.3510 -0.0170 -0.3200
   92SAPS   O13 8957   4.012   3.805   6.197 -0.1635  0.3221  0.0544
   92SAPS   O14 8958   4.251   3.855   6.127  0.0969 -0.0804 -0.2378
   92SAPS   O12 8959   4.062   3.950   6.003  0.9846 -0.4152  0.3275
   92SAPS   O11 8960   4.108   4.045   6.226 -0.4029 -0.0851 -0.5723
   92SAPS    C1 8961   4.070   4.037   6.368 -0.0669 -0.2146 -1.1646
   92SAPS    HA 8962   4.024   4.134   6.398 -0.5186 -0.2913 -1.5950
   92SAPS    HB 8963   3.992   3.958   6.379  0.6515 -1.2663 -3.1261
   92SAPS    C2 8964   4.191   4.008   6.455  0.4885  0.3003 -0.6107
   92SAPS    HS 8965   4.185   4.054   6.556  0.9200  1.2831 -1.0195
   92SAPS   O21 8966   4.313   4.053   6.394 -0.0935 -0.8142  0.0199
   92SAPS   C21 8967   4.335   4.187   6.379  0.5320 -0.4685  0.3131
   92SAPS   O22 8968   4.258   4.277   6.410 -0.0428  0.2103  0.2413
   92SAPS   C22 8969   4.452   4.195   6.287  0.1434 -0.4514 -0.9105
   92SAPS   H2R 8970   4.477   4.092   6.256  0.6070 -0.2472 -1.2299
   92SAPS   H2S 8971   4.431   4.249   6.192  3.1293 -0.2692 -1.5585
   92SAPS    C3 8972   4.203   3.857   6.490  0.1446  0.4125  0.0298
   92SAPS    HX 8973   4.220   3.798   6.397 -1.8186  1.2627 -0.9405
   92SAPS    HY 8974   4.106   3.828   6.535  0.6616  0.0681  0.9329
   92SAPS   O31 8975   4.305   3.830   6.590 -0.0758 -0.0635 -0.0689
   92SAPS   C31 8976   4.428   3.814   6.558 -0.0693  0.3859  0.3988
   92SAPS   O32 8977   4.481   3.814   6.447  0.6374 -0.1326  0.6571
   92SAPS   C32 8978   4.519   3.812   6.683 -0.0874  0.3377 -0.0302
   92SAPS   H2X 8979   4.530   3.920   6.705  0.7733 -0.1619  2.2415
   92SAPS   H2Y 8980   4.611   3.767   6.639  1.0722  2.7005 -0.1759
   92SAPS   C23 8981   4.578   4.254   6.366  0.0764 -0.4970  0.7513
   92SAPS   H3R 8982   4.558   4.344   6.429 -1.1676 -1.4170  1.7375
   92SAPS   H3S 8983   4.653   4.273   6.286  1.9372 -1.4334  2.1839
   92SAPS   C24 8984   4.645   4.153   6.465  0.8543 -0.4111 -0.2126
   92SAPS   H4R 8985   4.572   4.102   6.532 -3.5295  3.6485 -1.2877
   92SAPS   H4S 8986   4.711   4.213   6.531 -0.4994 -0.5912  1.3826
   92SAPS   C25 8987   4.724   4.047   6.391  0.7014  0.7058  0.6564
   92SAPS   H5R 8988   4.685   4.021   6.291  1.9581 -1.7697  0.7448
   92SAPS   C26 8989   4.839   3.993   6.430 -0.1498 -0.2370  0.2717
   92SAPS   H6R 8990   4.896   3.926   6.364  0.7559  2.2744 -1.6752
   92SAPS   C27 8991   4.919   4.032   6.558  0.2837  0.7056  0.6297
   92SAPS   H7R 8992   4.930   4.142   6.569  1.9638  0.5001  1.2331
   92SAPS   H7S 8993   5.019   3.984   6.554 -0.3474 -0.5446 -1.1764
   92SAPS   C28 8994   4.848   3.985   6.686  1.0648  0.2522 -0.4657
   92SAPS   H8R 8995   4.770   3.912   6.661  1.1836 -0.0376  0.0046
   92SAPS   C29 8996   4.868   4.036   6.808  0.4331 -0.0053  0.3302
   92SAPS   H9R 8997   4.812   4.003   6.897 -0.9905  1.6561  0.0940
   92SAPS  C210 8998   4.971   4.139   6.847 -0.0162 -0.4776 -0.2668
   92SAPS  H10R 8999   4.946   4.183   6.946  0.4997 -0.3356 -0.1958
   92SAPS  H10S 9000   4.984   4.224   6.776  1.7342 -1.6882 -1.5013
   92SAPS  C211 9001   5.110   4.084   6.867  0.7904  0.5680 -0.3580
   92SAPS  H11R 9002   5.172   4.077   6.776 -1.3261  0.6116 -1.8828
   92SAPS  C212 9003   5.162   4.038   6.980 -0.0452 -0.3832 -0.4342
   92SAPS  H12R 9004   5.271   4.023   6.983  0.0695  0.1263 -1.5527
   92SAPS  C213 9005   5.098   4.015   7.119  0.3822 -0.5185  0.2069
   92SAPS  H13R 9006   5.105   3.907   7.145 -0.6784 -1.0950 -1.6919
   92SAPS  H13S 9007   4.992   4.042   7.098 -0.2680 -0.2336  3.3298
   92SAPS  C214 9008   5.147   4.113   7.225  0.3859 -0.1875 -0.1639
   92SAPS  H14R 9009   5.136   4.219   7.200 -1.6657  0.1123  1.6834
   92SAPS  C215 9010   5.212   4.082   7.337 -0.8463 -0.6716 -0.3913
   92SAPS  H15R 9011   5.233   4.163   7.409 -1.9633 -3.4328  3.3802
   92SAPS  C216 9012   5.247   3.936   7.367 -0.3582 -0.0087 -0.7659
   92SAPS  H16R 9013   5.346   3.937   7.417 -0.6665 -1.1195 -0.0923
   92SAPS  H16S 9014   5.252   3.870   7.278 -0.8605  1.3695 -1.8416
   92SAPS  C217 9015   5.164   3.881   7.486  0.0745 -0.4800  0.2339
   92SAPS  H17R 9016   5.200   3.779   7.512  2.4683  0.0565 -0.7025
   92SAPS  H17S 9017   5.059   3.878   7.451 -0.2173  3.2235  0.4120
   92SAPS  C218 9018   5.164   3.969   7.621 -0.6553 -0.2912 -0.1524
   92SAPS  H18R 9019   5.098   4.055   7.599  0.2801  1.2236  2.5191
   92SAPS  H18S 9020   5.263   4.009   7.652 -1.2234  1.0206  0.0473
   92SAPS  C219 9021   5.115   3.878   7.727 -0.4462 -0.1643 -0.0630
   92SAPS  H19R 9022   5.035   3.813   7.685 -0.6578  1.3146 -2.0832
   92SAPS  H19S 9023   5.060   3.931   7.809 -1.6909 -0.8213 -0.4521
   92SAPS  C220 9024   5.229   3.790   7.794  0.6058  0.7662  0.4516
   92SAPS  H20R 9025   5.279   3.741   7.708  0.5448  1.1239  0.2098
   92SAPS  H20S 9026   5.168   3.721   7.857 -0.2820  1.2220  0.1121
   92SAPS  H20T 9027   5.304   3.846   7.855  2.8589 -1.8074  0.2166
   92SAPS   C33 9028   4.454   3.730   6.801 -0.4760 -0.2462 -0.7109
   92SAPS   H3X 9029   4.432   3.625   6.772 -0.3407 -0.2648 -0.7434
   92SAPS   H3Y 9030   4.356   3.780   6.819  0.5052  0.7828  2.3850
   92SAPS   C34 9031   4.537   3.737   6.926 -0.1078 -0.0490 -0.2040
   92SAPS   H4X 9032   4.492   3.671   7.003  0.6893 -2.0850 -1.3996
   92SAPS   H4Y 9033   4.518   3.831   6.983  0.5792  0.4168 -0.7225
   92SAPS   C35 9034   4.681   3.716   6.923  0.5782 -0.6529  0.0020
   92SAPS   H5X 9035   4.738   3.779   6.850  3.1785 -0.3784  2.1109
   92SAPS   H5Y 9036   4.702   3.609   6.901  1.6406 -1.2523  3.3348
   92SAPS   C36 9037   4.752   3.754   7.054 -0.2682 -0.1837  0.3223
   92SAPS   H6X 9038   4.698   3.843   7.095 -0.1661 -0.9882  2.3158
   92SAPS   H6Y 9039   4.849   3.801   7.027  0.2070 -1.0381  0.5037
   92SAPS   C37 9040   4.753   3.648   7.169  0.2821  0.1566  0.4776
   92SAPS   H7X 9041   4.809   3.559   7.132  1.7236  1.8340 -1.6522
   92SAPS   H7Y 9042   4.646   3.630   7.192 -0.5146  2.1446 -1.3402
   92SAPS   C38 9043   4.804   3.702   7.305  0.2391  0.4616 -0.1491
   92SAPS   H8X 9044   4.737   3.784   7.339 -1.6023  0.3051 -3.0741
   92SAPS   H8Y 9045   4.899   3.757   7.291  0.7426 -0.5791 -0.9615
   92SAPS   C39 9046   4.805   3.588   7.413 -0.3494  0.1534  0.1835
   92SAPS   H9X 9047   4.852   3.495   7.374 -1.5540 -0.4322  0.0686
   92SAPS   H9Y 9048   4.701   3.564   7.446 -0.1489 -0.2098  0.5550
   92SAPS  C310 9049   4.882   3.630   7.547  0.6244 -0.1327 -0.3653
   92SAPS  H10X 9050   4.852   3.730   7.586  0.5263  0.5510 -2.0885
   92SAPS  H10Y 9051   4.990   3.630   7.522  0.9890  1.1260  1.0550
   92SAPS  C311 9052   4.863   3.517   7.648 -0.1803 -0.3537 -0.2943
   92SAPS  H11X 9053   4.897   3.421   7.602  1.4500  0.9533 -1.9650
   92SAPS  H11Y 9054   4.753   3.527   7.660 -0.3072 -0.3370 -1.4042
   92SAPS  C312 9055   4.932   3.536   7.781 -1.1487 -0.3569  0.6200
   92SAPS  H12X 9056   4.908   3.631   7.834  1.9234  0.5289  0.6534
   92SAPS  H12Y 9057   5.040   3.546   7.756 -1.5469 -1.2011 -1.5879
   92SAPS  C313 9058   4.920   3.434   7.893  0.9977  1.3050 -0.2804
   92SAPS  H13X 9059   4.955   3.335   7.856  0.1148  0.9673 -0.2079
   92SAPS  H13Y 9060   4.810   3.438   7.905  0.9315 -0.2015 -0.2431
   92SAPS  C314 9061   4.999   3.470   8.016 -0.3936  0.7671  0.2930
   92SAPS  H14X 9062   4.989   3.575   8.053  3.6255  2.1291 -1.7818
   92SAPS  H14Y 9063   5.107   3.461   7.990  0.0343 -0.1037  2.2154
   92SAPS  C315 9064   4.966   3.384   8.143 -0.7522 -0.2159  0.3416
   92SAPS  H15X 9065   4.861   3.402   8.175 -0.3511  0.6732  1.2103
   92SAPS  H15Y 9066   5.019   3.422   8.233  0.4112  2.1527 -1.2517
   92SAPS  C316 9067   4.993   3.229   8.124 -0.6305  0.0472 -0.1448
   92SAPS  H16X 9068   5.101   3.207   8.121 -0.4431 -0.1953  3.5076
   92SAPS  H16Y 9069   4.949   3.200   8.026 -0.9391 -2.1549  0.5740
   92SAPS  C317 9070   4.934   3.126   8.222  0.1630  0.4300 -0.0158
   92SAPS  H17X 9071   4.960   3.024   8.185  1.4290 -0.2894  2.6215
   92SAPS  H17Y 9072   4.824   3.133   8.217  0.1678  1.4857  1.1102
   92SAPS  C318 9073   4.962   3.136   8.371 -0.0080 -0.5094  0.1898
   92SAPS  H18X 9074   5.072   3.132   8.385  0.4490  2.4957 -1.5771
   92SAPS  H18Y 9075   4.909   3.054   8.424  0.1009 -2.1102 -2.0404
   92SAPS  H18Z 9076   4.942   3.232   8.425 -2.8296 -0.2564 -1.0906
   93SAPS     N 9077   2.015   6.185   6.345  0.3490  0.0064 -0.3337
   93SAPS   HN1 9078   1.925   6.136   6.325 -0.8396  2.0453 -0.2691
   93SAPS   HN2 9079   2.091   6.123   6.310  1.8304  2.3421 -1.5554
   93SAPS   HN3 9080   2.032   6.213   6.443 -0.6630 -0.4486 -0.0225
   93SAPS   C12 9081   2.015   6.312   6.264 -0.0142 -0.6652  0.9135
   93SAPS  H12A 9082   2.035   6.292   6.160 -0.8328  0.6768  0.4786
   93SAPS   C13 9083   1.882   6.388   6.274 -0.0262  0.0144  0.1975
   93SAPS  O13A 9084   1.782   6.342   6.330  0.3047  0.2375 -0.9137
   93SAPS  O13B 9085   1.878   6.496   6.208  0.2358 -0.1023 -0.3554
   93SAPS   C11 9086   2.122   6.408   6.315  0.0588  0.4924 -0.5743
   93SAPS  H11A 9087   2.080   6.455   6.407  0.2384  1.9433 -1.2119
   93SAPS  H11B 9088   2.139   6.490   6.242  1.0607  0.9538  0.1485
   93SAPS     P 9089   2.336   6.408   6.471 -0.0387  0.5841  0.0548
   93SAPS   O13 9090   2.464   6.336   6.467  0.4375  0.1937  0.1137
   93SAPS   O14 9091   2.346   6.556   6.462 -0.0976  0.1160 -0.1150
   93SAPS   O12 9092   2.244   6.345   6.359 -0.2206 -0.0845 -0.1344
   93SAPS   O11 9093   2.263   6.361   6.603 -0.1418  0.4406 -0.2130
   93SAPS    C1 9094   2.337   6.326   6.722 -0.1190  0.9502  0.0731
   93SAPS    HA 9095   2.276   6.249   6.773  1.9499 -0.3427  0.7401
   93SAPS    HB 9096   2.438   6.282   6.705 -0.0452  1.4010 -0.7143
   93SAPS    C2 9097   2.341   6.437   6.830  0.5823 -0.0512 -0.1767
   93SAPS    HS 9098   2.376   6.524   6.771 -1.7190  1.3181  0.3552
   93SAPS   O21 9099   2.431   6.391   6.935  0.5464  0.0893  0.1332
   93SAPS   C21 9100   2.529   6.479   6.959  0.7368  0.1490  0.3123
   93SAPS   O22 9101   2.544   6.579   6.891 -0.2788  0.1497  0.6978
   93SAPS   C22 9102   2.603   6.438   7.087 -0.0309  0.0534 -0.4070
   93SAPS   H2R 9103   2.526   6.408   7.161  0.9858  1.1238  1.1430
   93SAPS   H2S 9104   2.670   6.349   7.085  0.0967  0.1497 -0.4553
   93SAPS    C3 9105   2.195   6.467   6.875 -0.2526 -0.5227  0.2037
   93SAPS    HX 9106   2.145   6.372   6.903  1.1065 -1.4718 -0.4560
   93SAPS    HY 9107   2.136   6.518   6.795 -1.2993  1.7857  2.3160
   93SAPS   O31 9108   2.204   6.562   6.983  0.4041  0.8364 -0.3199
   93SAPS   C31 9109   2.101   6.562   7.074  0.0653 -0.4536  0.7384
   93SAPS   O32 9110   2.000   6.497   7.053 -0.3897  0.2743  0.4806
   93SAPS   C32 9111   2.137   6.654   7.196 -0.3156 -0.9355 -0.3800
   93SAPS   H2X 9112   2.083   6.635   7.291  0.3235 -0.0306  0.1918
   93SAPS   H2Y 9113   2.105   6.755   7.162 -0.9760 -1.2145 -0.6076
   93SAPS   C23 9114   2.684   6.551   7.158  0.1064 -0.4269  0.5610
   93SAPS   H3R 9115   2.625   6.641   7.184  2.7832  1.7799 -0.5482
   93SAPS   H3S 9116   2.762   6.586   7.086  0.8542 -1.3241  0.9127
   93SAPS   C24 9117   2.755   6.504   7.289 -0.2029  0.2029  0.2844
   93SAPS   H4R 9118   2.841   6.440   7.261  0.1069 -0.1610  2.0031
   93SAPS   H4S 9119   2.695   6.436   7.354 -0.0859 -0.5318 -0.3574
   93SAPS   C25 9120   2.824   6.625   7.353  0.7753 -0.7361  0.1339
   93SAPS   H5R 9121   2.843   6.712   7.289 -3.2664 -0.4865 -0.9783
   93SAPS   C26 9122   2.859   6.639   7.486 -0.4939 -0.4305  0.1118
   93SAPS   H6R 9123   2.906   6.730   7.527 -0.2408 -0.6294  0.2660
   93SAPS   C27 9124   2.839   6.523   7.583  0.0535  0.1870  0.2233
   93SAPS   H7R 9125   2.934   6.467   7.578 -1.1143 -1.9391  0.4383
   93SAPS   H7S 9126   2.755   6.461   7.544 -1.4812  1.8181  0.7449
   93SAPS   C28 9127   2.806   6.558   7.727 -0.2305  0.7803  0.7569
   93SAPS   H8R 9128   2.701   6.586   7.734 -0.9840 -0.4239 -3.0558
   93SAPS   C29 9129   2.892   6.553   7.835  0.0238  0.4357 -0.0127
   93SAPS   H9R 9130   2.851   6.592   7.929  1.6812  1.9658  0.1497
   93SAPS  C210 9131   3.035   6.513   7.846  0.0951 -0.5427  0.1638
   93SAPS  H10R 9132   3.086   6.611   7.838  0.6516 -0.9513 -2.0266
   93SAPS  H10S 9133   3.065   6.438   7.770 -1.3856 -2.9527  1.8288
   93SAPS  C211 9134   3.068   6.446   7.977 -0.0161 -0.1529 -0.3300
   93SAPS  H11R 9135   3.028   6.346   7.995  1.5793 -0.6993  0.3921
   93SAPS  C212 9136   3.131   6.491   8.085 -0.6160  0.3402 -0.3846
   93SAPS  H12R 9137   3.124   6.427   8.175  0.9939 -1.1413 -1.2612
   93SAPS  C213 9138   3.201   6.627   8.111 -0.0513 -0.0076  0.3759
   93SAPS  H13R 9139   3.228   6.679   8.017 -0.6992  1.3158  0.8911
   93SAPS  H13S 9140   3.306   6.613   8.146 -0.4651 -0.2640  1.5759
   93SAPS  C214 9141   3.117   6.720   8.193 -0.2415  0.0018  0.0164
   93SAPS  H14R 9142   3.008   6.722   8.175 -0.3961  3.1980  0.6437
   93SAPS  C215 9143   3.164   6.806   8.288  0.1151  0.3385  0.9287
   93SAPS  H15R 9144   3.091   6.870   8.340 -3.1805 -3.4722  1.5163
   93SAPS  C216 9145   3.297   6.834   8.337 -0.1953 -0.2182 -0.1068
   93SAPS  H16R 9146   3.304   6.942   8.365 -0.0051 -0.0275 -0.8667
   93SAPS  H16S 9147   3.379   6.807   8.268  0.7341 -0.4707  1.0667
   93SAPS  C217 9148   3.337   6.747   8.457 -0.1517 -0.7757  0.0669
   93SAPS  H17R 9149   3.332   6.641   8.424  1.6090 -0.9131  0.1340
   93SAPS  H17S 9150   3.264   6.753   8.541  0.2442  0.4283  0.3412
   93SAPS  C218 9151   3.478   6.772   8.511  0.0215 -0.7441 -0.1289
   93SAPS  H18R 9152   3.487   6.882   8.526  2.3599 -0.6680 -1.5531
   93SAPS  H18S 9153   3.564   6.737   8.449  1.7744 -0.5510  2.0450
   93SAPS  C219 9154   3.493   6.701   8.648  1.1683 -0.2233 -0.0666
   93SAPS  H19R 9155   3.462   6.594   8.639 -0.0946  0.0303  0.9901
   93SAPS  H19S 9156   3.422   6.759   8.711  0.4302 -0.7956 -0.3562
   93SAPS  C220 9157   3.637   6.709   8.719 -0.2703 -0.1069 -0.9446
   93SAPS  H20R 9158   3.715   6.641   8.679  1.5935  0.6519  1.2018
   93SAPS  H20S 9159   3.612   6.694   8.826 -1.7788  1.0101 -1.1061
   93SAPS  H20T 9160   3.675   6.812   8.706  0.2650 -0.1854 -0.0517
   93SAPS   C33 9161   2.290   6.650   7.229  0.0388 -0.6373  1.1960
   93SAPS   H3X 9162   2.343   6.710   7.153  1.0366 -2.7622  0.1466
   93SAPS   H3Y 9163   2.338   6.551   7.219  0.0548 -0.4075 -2.0400
   93SAPS   C34 9164   2.313   6.705   7.369 -0.2181 -0.4487  0.1660
   93SAPS   H4X 9165   2.246   6.654   7.442 -0.6734  2.9780  2.3327
   93SAPS   H4Y 9166   2.287   6.812   7.365  0.6635 -0.2603 -1.5675
   93SAPS   C35 9167   2.460   6.703   7.415  0.2126 -0.4193 -0.1407
   93SAPS   H5X 9168   2.501   6.770   7.337 -2.6633  0.4735 -1.0372
   93SAPS   H5Y 9169   2.491   6.597   7.409 -0.7586 -0.7538  0.4117
   93SAPS   C36 9170   2.478   6.768   7.554  0.1170 -0.0901  0.2341
   93SAPS   H6X 9171   2.430   6.868   7.554  0.4874  0.1221  1.8188
   93SAPS   H6Y 9172   2.586   6.771   7.583  0.4708  1.3025 -1.1068
   93SAPS   C37 9173   2.408   6.683   7.659  0.2965 -0.3438  0.0599
   93SAPS   H7X 9174   2.445   6.578   7.660  0.8372 -0.2155  3.3121
   93SAPS   H7Y 9175   2.301   6.680   7.630  0.4554  0.1357 -0.6038
   93SAPS   C38 9176   2.419   6.751   7.796 -0.3257 -0.2997  0.0079
   93SAPS   H8X 9177   2.359   6.844   7.800 -2.3787 -1.6001  1.4431
   93SAPS   H8Y 9178   2.526   6.772   7.820 -0.4762 -0.0319  0.4682
   93SAPS   C39 9179   2.369   6.650   7.907  0.3371 -0.9745  0.0224
   93SAPS   H9X 9180   2.441   6.565   7.897  0.2299 -0.9622 -0.9045
   93SAPS   H9Y 9181   2.269   6.607   7.886  0.5052 -1.0544 -0.6451
   93SAPS  C310 9182   2.380   6.697   8.052  0.3603 -0.3257  0.6528
   93SAPS  H10X 9183   2.283   6.746   8.075  0.7682  0.1737  1.3212
   93SAPS  H10Y 9184   2.453   6.781   8.054 -0.1799  0.1996 -0.6576
   93SAPS  C311 9185   2.412   6.594   8.160 -0.6718  0.0046  0.0120
   93SAPS  H11X 9186   2.356   6.502   8.135  0.7644 -0.7083 -0.6920
   93SAPS  H11Y 9187   2.365   6.629   8.255 -0.2660  1.3847 -0.2829
   93SAPS  C312 9188   2.560   6.552   8.152 -0.0171  0.2427  0.0406
   93SAPS  H12X 9189   2.614   6.570   8.056  0.4703  0.7210  0.3938
   93SAPS  H12Y 9190   2.570   6.447   8.189  1.4899 -0.0128 -0.9765
   93SAPS  C313 9191   2.641   6.638   8.253 -0.7496  0.2595 -0.1397
   93SAPS  H13X 9192   2.582   6.644   8.346  0.1281 -0.8147  0.5177
   93SAPS  H13Y 9193   2.664   6.741   8.220  0.1751  0.5485  1.3163
   93SAPS  C314 9194   2.780   6.571   8.289  0.1513  0.3189 -0.6796
   93SAPS  H14X 9195   2.857   6.610   8.219  0.1688  0.3488 -0.6428
   93SAPS  H14Y 9196   2.779   6.460   8.283 -0.9846  0.2771 -0.0808
   93SAPS  C315 9197   2.846   6.609   8.428 -0.0948  0.4612  0.9961
   93SAPS  H15X 9198   2.882   6.714   8.423  1.6218 -0.1140  0.1929
   93SAPS  H15Y 9199   2.940   6.551   8.444  0.1746  0.8216  0.7597
   93SAPS  C316 9200   2.756   6.580   8.545 -0.0968  0.0916  0.1145
   93SAPS  H16X 9201   2.669   6.648   8.533 -0.2601 -0.0493  0.4840
   93SAPS  H16Y 9202   2.799   6.628   8.636 -1.3988  0.0626  0.7763
   93SAPS  C317 9203   2.707   6.441   8.561  0.0304 -0.5714  0.1006
   93SAPS  H17X 9204   2.789   6.388   8.614  0.2656  0.0081  0.3269
   93SAPS  H17Y 9205   2.675   6.383   8.472  2.3480  0.8068 -1.7449
   93SAPS  C318 9206   2.583   6.425   8.647  0.4422  0.0258  0.4699
   93SAPS  H18X 9207   2.589   6.487   8.739 -2.0833  1.8154 -0.4414
   93SAPS  H18Y 9208   2.566   6.321   8.682  0.6451  0.3429  1.5580
   93SAPS  H18Z 9209   2.495   6.463   8.591 -0.2290 -1.8494  0.1852
   94SAPS     N 9210   3.772   2.809   5.969  0.1508 -0.1192  0.2413
   94SAPS   HN1 9211   3.784   2.906   5.934 -0.8876 -0.3841 -0.9654
   94SAPS   HN2 9212   3.674   2.799   6.001  0.2005  2.0820  1.2614
   94SAPS   HN3 9213   3.839   2.785   6.044 -0.5629 -1.0908  0.5901
   94SAPS   C12 9214   3.782   2.710   5.851 -0.0863  0.3349  0.7134
   94SAPS  H12A 9215   3.731   2.616   5.870  1.5131 -0.7969 -0.3245
   94SAPS   C13 9216   3.711   2.767   5.726  0.6078 -0.1155 -0.0177
   94SAPS  O13A 9217   3.656   2.884   5.728  0.2256  0.1346 -0.0032
   94SAPS  O13B 9218   3.704   2.697   5.620 -0.6471 -0.2354  0.3787
   94SAPS   C11 9219   3.930   2.678   5.812 -0.1197 -0.2700  0.5024
   94SAPS  H11A 9220   3.989   2.772   5.803  0.5984 -0.7294  0.2440
   94SAPS  H11B 9221   3.930   2.633   5.710  3.3011 -0.5011  0.4658
   94SAPS     P 9222   4.078   2.630   6.021  0.4868 -0.4974 -0.5632
   94SAPS   O13 9223   4.214   2.647   5.965  0.0393  0.3461 -0.0344
   94SAPS   O14 9224   4.003   2.735   6.098 -0.7934  1.6645  0.4989
   94SAPS   O12 9225   3.989   2.584   5.898  0.3363 -0.1287 -0.7460
   94SAPS   O11 9226   4.074   2.499   6.110  0.0726  0.5875  0.1378
   94SAPS    C1 9227   4.133   2.374   6.066 -0.1131  0.6221 -0.0909
   94SAPS    HA 9228   4.051   2.298   6.061 -0.1734  0.5933  1.0963
   94SAPS    HB 9229   4.174   2.376   5.962 -0.5463  0.2618 -0.2753
   94SAPS    C2 9230   4.241   2.330   6.164  0.1827  0.3865 -1.0328
   94SAPS    HS 9231   4.245   2.219   6.154  0.9062  0.3510 -0.4413
   94SAPS   O21 9232   4.224   2.365   6.303  0.0765  0.0620 -0.1782
   94SAPS   C21 9233   4.123   2.303   6.367 -0.4076  0.0259 -0.1281
   94SAPS   O22 9234   4.048   2.226   6.317 -0.4352 -0.6470 -0.5476
   94SAPS   C22 9235   4.120   2.349   6.515  0.7574  0.2595 -0.0917
   94SAPS   H2R 9236   4.219   2.388   6.545  1.7249 -2.8610  1.1419
   94SAPS   H2S 9237   4.038   2.422   6.532  1.6990  1.6148 -1.1131
   94SAPS    C3 9238   4.375   2.390   6.125  0.5073 -0.0591  0.4272
   94SAPS    HX 9239   4.353   2.499   6.122  2.3474  0.3662  1.0267
   94SAPS    HY 9240   4.391   2.353   6.022 -2.0908 -1.1563  0.3456
   94SAPS   O31 9241   4.480   2.360   6.222  0.2001 -0.1009  0.1795
   94SAPS   C31 9242   4.505   2.227   6.236 -0.3195  0.9649  0.2063
   94SAPS   O32 9243   4.461   2.139   6.168  0.6665 -0.7340  0.7079
   94SAPS   C32 9244   4.590   2.197   6.356 -0.0853  0.3015  0.7277
   94SAPS   H2X 9245   4.591   2.286   6.423 -0.2291  0.9699 -0.1447
   94SAPS   H2Y 9246   4.697   2.185   6.329 -0.2932 -0.0296  0.0356
   94SAPS   C23 9247   4.120   2.227   6.608 -0.2444 -0.1813 -0.7200
   94SAPS   H3R 9248   4.191   2.234   6.692  0.3787 -4.2237 -0.7112
   94SAPS   H3S 9249   4.168   2.137   6.565  2.1392 -0.5772  2.3884
   94SAPS   C24 9250   3.979   2.203   6.659  0.1701 -0.1678  0.2235
   94SAPS   H4R 9251   3.916   2.179   6.570  0.6444  1.3296 -0.5443
   94SAPS   H4S 9252   3.943   2.297   6.704 -0.2497 -0.8775  1.3979
   94SAPS   C25 9253   3.981   2.081   6.743 -0.4769 -0.1266  0.2830
   94SAPS   H5R 9254   4.014   1.992   6.688 -0.4510 -1.4325  2.3069
   94SAPS   C26 9255   3.935   2.066   6.869 -0.1217  0.2376 -0.1528
   94SAPS   H6R 9256   3.952   1.972   6.924 -1.4136 -0.5323 -1.0317
   94SAPS   C27 9257   3.864   2.178   6.934  0.7535  0.0217  0.1610
   94SAPS   H7R 9258   3.776   2.133   6.984  0.8394 -1.2429 -0.7813
   94SAPS   H7S 9259   3.824   2.237   6.850  0.8357 -0.5324 -0.2729
   94SAPS   C28 9260   3.948   2.260   7.026 -0.5098 -0.1707 -0.5939
   94SAPS   H8R 9261   4.009   2.341   6.984 -0.5187  0.3785  0.4118
   94SAPS   C29 9262   3.953   2.248   7.153 -0.5368 -0.3223  0.0317
   94SAPS   H9R 9263   4.015   2.328   7.197 -0.5692  0.7052 -1.7299
   94SAPS  C210 9264   3.883   2.163   7.251 -0.5684 -0.2651  0.1537
   94SAPS  H10R 9265   3.955   2.116   7.321 -0.0304  1.6047  0.8934
   94SAPS  H10S 9266   3.833   2.083   7.192  0.9168  0.5684 -2.3648
   94SAPS  C211 9267   3.798   2.265   7.315 -0.3040 -0.2330 -0.2008
   94SAPS  H11R 9268   3.728   2.313   7.245  2.6808  2.9591 -1.2570
   94SAPS  C212 9269   3.787   2.293   7.446  0.2809 -1.1427 -0.4395
   94SAPS  H12R 9270   3.729   2.374   7.493  3.0463  0.5750  0.2365
   94SAPS  C213 9271   3.878   2.236   7.553 -0.2444  0.0239  0.1792
   94SAPS  H13R 9272   3.901   2.300   7.641 -0.0341 -3.9897  3.3350
   94SAPS  H13S 9273   3.983   2.226   7.519  0.3336  0.5605  1.7029
   94SAPS  C214 9274   3.829   2.103   7.606  0.5812  0.2692 -0.0697
   94SAPS  H14R 9275   3.810   2.020   7.537 -0.1585 -1.5030  2.1421
   94SAPS  C215 9276   3.806   2.071   7.735  0.5881  0.5023 -0.3295
   94SAPS  H15R 9277   3.756   1.976   7.757  0.1356  0.6531 -0.6917
   94SAPS  C216 9278   3.818   2.157   7.855 -0.2531 -0.1620 -0.1122
   94SAPS  H16R 9279   3.728   2.137   7.918 -1.0160  0.3599 -1.0170
   94SAPS  H16S 9280   3.816   2.264   7.827 -1.5363 -0.8626 -3.0339
   94SAPS  C217 9281   3.962   2.122   7.922  0.5966 -0.0859  0.4741
   94SAPS  H17R 9282   4.039   2.116   7.842 -0.4279  2.1555 -0.7581
   94SAPS  H17S 9283   3.955   2.025   7.977  2.4978 -1.2300 -1.1380
   94SAPS  C218 9284   3.995   2.240   8.018 -0.1047  0.0785  0.3411
   94SAPS  H18R 9285   3.927   2.252   8.105  0.6884  2.5812  0.6817
   94SAPS  H18S 9286   3.986   2.338   7.968 -2.1608 -1.0141 -1.6262
   94SAPS  C219 9287   4.147   2.227   8.059  0.4452 -0.0454  0.2635
   94SAPS  H19R 9288   4.196   2.251   7.962  0.1550  0.0726  0.1451
   94SAPS  H19S 9289   4.164   2.120   8.083  0.4470 -0.1301 -0.1129
   94SAPS  C220 9290   4.190   2.314   8.183 -0.2068  0.9741  0.0072
   94SAPS  H20R 9291   4.118   2.292   8.265 -1.1774  0.6085 -0.9195
   94SAPS  H20S 9292   4.190   2.425   8.170  0.9813  1.0375  0.4672
   94SAPS  H20T 9293   4.291   2.277   8.209 -0.1686 -0.8168 -2.4317
   94SAPS   C33 9294   4.553   2.074   6.443  0.6265  0.1917  0.1606
   94SAPS   H3X 9295   4.599   1.984   6.398 -1.4575 -1.2888  0.8038
   94SAPS   H3Y 9296   4.443   2.053   6.442  0.8682 -1.7835  3.2493
   94SAPS   C34 9297   4.584   2.078   6.595  0.2578  0.2116 -0.4994
   94SAPS   H4X 9298   4.693   2.077   6.616  0.5807 -1.0125 -2.0006
   94SAPS   H4Y 9299   4.534   1.992   6.643  1.0951 -0.8595 -1.4969
   94SAPS   C35 9300   4.530   2.201   6.673 -0.2242  0.4971  0.0557
   94SAPS   H5X 9301   4.422   2.214   6.652 -0.2508 -0.7405 -0.6817
   94SAPS   H5Y 9302   4.583   2.291   6.637 -2.0404  0.5240 -2.9151
   94SAPS   C36 9303   4.546   2.195   6.825 -0.6162 -0.3303  0.1703
   94SAPS   H6X 9304   4.655   2.176   6.837  0.1992  2.5434 -1.4947
   94SAPS   H6Y 9305   4.487   2.107   6.856 -0.2481  0.1538  2.4072
   94SAPS   C37 9306   4.502   2.319   6.898  0.0746 -0.2173  1.2243
   94SAPS   H7X 9307   4.399   2.351   6.873  0.5283  0.9359  0.7185
   94SAPS   H7Y 9308   4.571   2.404   6.878 -1.3115  0.5454 -0.6097
   94SAPS   C38 9309   4.493   2.293   7.045  0.1885  0.4298  1.1114
   94SAPS   H8X 9310   4.588   2.255   7.088  0.7106  0.0559 -0.3061
   94SAPS   H8Y 9311   4.417   2.213   7.057  2.5316 -1.7315  2.7832
   94SAPS   C39 9312   4.476   2.424   7.129 -0.2752  0.0773  0.1041
   94SAPS   H9X 9313   4.392   2.474   7.077  0.5404 -0.7553 -2.1221
   94SAPS   H9Y 9314   4.570   2.482   7.115  0.1132 -0.7737 -0.9473
   94SAPS  C310 9315   4.451   2.389   7.272  0.3714  0.2555  0.6659
   94SAPS  H10X 9316   4.538   2.337   7.319  3.5780  2.7285 -1.9663
   94SAPS  H10Y 9317   4.365   2.322   7.292  0.2491  0.0583 -0.4231
   94SAPS  C311 9318   4.432   2.512   7.349  0.2568 -0.1143 -0.1127
   94SAPS  H11X 9319   4.343   2.555   7.299  0.5617  3.7336  2.2190
   94SAPS  H11Y 9320   4.511   2.589   7.336  0.6994 -0.8915 -2.4409
   94SAPS  C312 9321   4.391   2.488   7.500  0.9059  0.3459 -0.4490
   94SAPS  H12X 9322   4.468   2.440   7.565 -0.0575 -0.3157  0.2292
   94SAPS  H12Y 9323   4.308   2.415   7.507  0.9158  0.4712  2.5852
   94SAPS  C313 9324   4.368   2.620   7.571  0.1478 -0.6257 -0.2919
   94SAPS  H13X 9325   4.292   2.683   7.520 -0.7166  0.7558  2.4690
   94SAPS  H13Y 9326   4.467   2.670   7.567  1.1833 -2.4164  1.3528
   94SAPS  C314 9327   4.306   2.605   7.711 -0.0119 -0.2875  1.3540
   94SAPS  H14X 9328   4.225   2.532   7.691 -0.7497  0.2054  2.4621
   94SAPS  H14Y 9329   4.274   2.707   7.740 -1.9943 -0.6011  0.4507
   94SAPS  C315 9330   4.402   2.547   7.811 -0.1151  0.1765  0.7416
   94SAPS  H15X 9331   4.423   2.441   7.785  1.4917  0.5092  0.5665
   94SAPS  H15Y 9332   4.348   2.523   7.905  0.9394 -2.7910  0.6959
   94SAPS  C316 9333   4.532   2.624   7.836 -0.5363 -0.6140  0.5279
   94SAPS  H16X 9334   4.513   2.731   7.817  1.6708 -0.1821  0.4978
   94SAPS  H16Y 9335   4.614   2.590   7.770  0.5452  0.0641  1.4886
   94SAPS  C317 9336   4.579   2.620   7.978  0.2682 -0.1245 -0.3237
   94SAPS  H17X 9337   4.612   2.516   7.998  2.3175  0.5045 -0.2109
   94SAPS  H17Y 9338   4.511   2.660   8.057  0.1308 -2.4622  0.8341
   94SAPS  C318 9339   4.710   2.698   8.006  0.6533 -0.2962 -0.5194
   94SAPS  H18X 9340   4.726   2.702   8.116 -1.1553  0.1180 -0.2241
   94SAPS  H18Y 9341   4.707   2.805   7.977 -1.5151  0.4596  2.0693
   94SAPS  H18Z 9342   4.795   2.642   7.963 -1.2462 -2.3579 -1.8461
   95SAPS     N 9343   0.676   5.907   6.048 -0.4851 -0.2656  0.5073
   95SAPS   HN1 9344   0.744   5.957   6.108  0.4837 -0.5884 -0.3038
   95SAPS   HN2 9345   0.706   5.933   5.951  1.5663  1.9809  1.6459
   95SAPS   HN3 9346   0.580   5.938   6.076 -0.3793 -0.8800  1.5831
   95SAPS   C12 9347   0.674   5.759   6.067 -0.4166  0.2869  0.4725
   95SAPS  H12A 9348   0.600   5.714   6.003  0.2024  0.0960 -0.1231
   95SAPS   C13 9349   0.818   5.696   6.019  0.5559 -0.1262 -0.5175
   95SAPS  O13A 9350   0.919   5.759   5.980 -0.3356 -0.3759  0.0096
   95SAPS  O13B 9351   0.810   5.571   6.002  0.0077 -0.5913 -0.5148
   95SAPS   C11 9352   0.655   5.719   6.214 -0.6180 -1.0267  1.3046
   95SAPS  H11A 9353   0.733   5.759   6.282 -0.5586  0.7763  0.2498
   95SAPS  H11B 9354   0.655   5.609   6.231 -0.8757 -1.6386 -1.9550
   95SAPS     P 9355   0.490   5.863   6.362 -0.1603 -0.0011  0.3490
   95SAPS   O13 9356   0.554   5.994   6.338  0.1272 -0.3648 -0.1032
   95SAPS   O14 9357   0.349   5.867   6.390  0.0154 -0.2058 -0.1000
   95SAPS   O12 9358   0.520   5.763   6.246  0.0881 -0.0451  0.1228
   95SAPS   O11 9359   0.563   5.795   6.480  0.2000  0.8347 -0.7084
   95SAPS    C1 9360   0.525   5.663   6.508  0.3841  0.5404  0.4097
   95SAPS    HA 9361   0.426   5.675   6.557 -0.4432 -0.1866 -1.0175
   95SAPS    HB 9362   0.515   5.599   6.418  1.9230  1.9666 -0.8467
   95SAPS    C2 9363   0.633   5.590   6.589 -0.6054 -0.3892  0.0702
   95SAPS    HS 9364   0.609   5.488   6.626 -0.5203 -0.1264  0.8688
   95SAPS   O21 9365   0.662   5.674   6.707 -0.2826 -0.7008  0.5098
   95SAPS   C21 9366   0.578   5.659   6.812  0.9647  0.1185  0.5437
   95SAPS   O22 9367   0.477   5.596   6.794  0.0006  0.2175 -0.3320
   95SAPS   C22 9368   0.630   5.704   6.948  0.1329 -0.0104 -0.5039
   95SAPS   H2R 9369   0.725   5.649   6.963  0.7271  0.7164 -1.5370
   95SAPS   H2S 9370   0.645   5.814   6.939  1.9421 -0.1759  0.1681
   95SAPS    C3 9371   0.767   5.569   6.510  0.4449  0.1019  0.6708
   95SAPS    HX 9372   0.806   5.671   6.490  2.3892 -0.7464 -0.1539
   95SAPS    HY 9373   0.732   5.530   6.412 -1.5752  2.2825  0.4315
   95SAPS   O31 9374   0.868   5.492   6.580 -0.6434  0.0043  0.5626
   95SAPS   C31 9375   0.861   5.361   6.575 -0.9589  0.4580 -0.3672
   95SAPS   O32 9376   0.767   5.296   6.528  0.2846  0.4213 -0.4138
   95SAPS   C32 9377   0.994   5.306   6.634 -0.3543  1.1478 -0.2869
   95SAPS   H2X 9378   1.076   5.381   6.627  0.9664 -0.2246  0.1545
   95SAPS   H2Y 9379   1.030   5.226   6.566 -1.9112 -0.1274  0.3342
   95SAPS   C23 9380   0.520   5.677   7.057 -0.2106 -0.1642 -0.1575
   95SAPS   H3R 9381   0.493   5.569   7.055  0.4674 -0.3561  0.5288
   95SAPS   H3S 9382   0.426   5.734   7.037 -0.1584 -0.6736 -2.0676
   95SAPS   C24 9383   0.584   5.734   7.187  0.0491 -0.4814 -0.7434
   95SAPS   H4R 9384   0.693   5.741   7.163  0.1615  1.1706  0.1739
   95SAPS   H4S 9385   0.585   5.659   7.269  0.0691 -2.2966 -2.3228
   95SAPS   C25 9386   0.550   5.882   7.221  0.2910  0.5504 -0.2212
   95SAPS   H5R 9387   0.538   5.947   7.133 -2.1370 -0.1869 -0.5107
   95SAPS   C26 9388   0.522   5.928   7.342  0.5887  0.5510  0.3772
   95SAPS   H6R 9389   0.512   6.036   7.365  0.6053  0.5129  0.5635
   95SAPS   C27 9390   0.516   5.840   7.468 -0.2712 -0.2216 -0.5893
   95SAPS   H7R 9391   0.610   5.786   7.492  0.5332  1.1638 -0.5314
   95SAPS   H7S 9392   0.437   5.764   7.448 -0.0241 -0.3503 -1.1026
   95SAPS   C28 9393   0.484   5.915   7.597  0.1127 -0.6260  0.3729
   95SAPS   H8R 9394   0.382   5.901   7.635 -0.1141  2.8727  1.3664
   95SAPS   C29 9395   0.576   5.987   7.670  0.1181 -0.1668 -0.0291
   95SAPS   H9R 9396   0.551   6.010   7.775  1.3858 -1.1541  0.5062
   95SAPS  C210 9397   0.721   6.016   7.631 -0.0047 -0.6683 -0.1327
   95SAPS  H10R 9398   0.738   6.123   7.655 -0.9925 -0.7424  0.9685
   95SAPS  H10S 9399   0.739   6.018   7.521  0.7553  1.2241 -0.0090
   95SAPS  C211 9400   0.817   5.924   7.701 -0.3814 -0.3823 -0.2224
   95SAPS  H11R 9401   0.813   5.828   7.647  1.0192 -0.5849 -0.0216
   95SAPS  C212 9402   0.886   5.947   7.817 -0.2418  0.6217  0.0309
   95SAPS  H12R 9403   0.968   5.876   7.838  0.8212  1.0158 -2.3609
   95SAPS  C213 9404   0.882   6.073   7.900  0.0163  0.2573 -0.3302
   95SAPS  H13R 9405   0.912   6.161   7.839  0.5266 -1.3198 -2.4629
   95SAPS  H13S 9406   0.966   6.053   7.969 -0.7595 -0.9708  0.2893
   95SAPS  C214 9407   0.758   6.114   7.979  0.2457  0.5972  0.0379
   95SAPS  H14R 9408   0.698   6.188   7.924  1.4311  0.6917 -1.1959
   95SAPS  C215 9409   0.708   6.054   8.087  0.1524 -0.2858 -0.4641
   95SAPS  H15R 9410   0.637   6.111   8.149  0.5355  0.7661 -0.9611
   95SAPS  C216 9411   0.772   5.945   8.165  0.0724  1.1006 -0.3152
   95SAPS  H16R 9412   0.848   5.895   8.102  1.0246  0.7270  1.0812
   95SAPS  H16S 9413   0.696   5.871   8.199 -2.2911  2.4385 -2.3373
   95SAPS  C217 9414   0.853   6.010   8.281 -0.4775 -0.2101 -0.0902
   95SAPS  H17R 9415   0.781   6.059   8.349 -0.0853 -0.2792  0.3788
   95SAPS  H17S 9416   0.915   6.096   8.248 -0.6648 -0.6580 -1.7242
   95SAPS  C218 9417   0.961   5.919   8.343  1.0459  0.3220  0.7900
   95SAPS  H18R 9418   1.032   5.911   8.258 -1.7720 -1.6377 -1.5986
   95SAPS  H18S 9419   0.921   5.818   8.368  1.8937 -0.5764 -1.2831
   95SAPS  C219 9420   1.017   5.985   8.471  0.2012 -0.5559  0.2102
   95SAPS  H19R 9421   0.932   5.981   8.542 -2.0477 -0.2390 -2.2777
   95SAPS  H19S 9422   1.048   6.090   8.451 -1.7495 -0.3621 -2.3331
   95SAPS  C220 9423   1.141   5.921   8.517 -0.1318 -0.1111 -0.1962
   95SAPS  H20R 9424   1.222   5.912   8.442  1.8902 -0.7971  1.9563
   95SAPS  H20S 9425   1.126   5.824   8.569 -2.9891  0.7230  0.7317
   95SAPS  H20T 9426   1.188   5.982   8.597 -1.0377 -1.4151  1.3920
   95SAPS   C33 9427   0.989   5.266   6.781 -0.4051 -0.1617  0.0167
   95SAPS   H3X 9428   1.078   5.210   6.817  1.3709  1.4219 -1.6794
   95SAPS   H3Y 9429   0.906   5.196   6.807 -0.3720  0.3114  1.4694
   95SAPS   C34 9430   0.966   5.391   6.871 -0.2856  0.1044 -0.0116
   95SAPS   H4X 9431   0.871   5.439   6.837 -0.8791  1.3459  3.0632
   95SAPS   H4Y 9432   1.054   5.456   6.855  0.4595 -1.2650 -1.8886
   95SAPS   C35 9433   0.945   5.347   7.019  0.7916 -0.5473 -0.1691
   95SAPS   H5X 9434   1.040   5.293   7.043  0.4399 -0.6269  1.1327
   95SAPS   H5Y 9435   0.867   5.268   7.023 -0.1143  0.2328 -1.5421
   95SAPS   C36 9436   0.917   5.466   7.113  0.5821  0.4371 -0.1770
   95SAPS   H6X 9437   0.827   5.522   7.080  0.7133  1.2746  0.8152
   95SAPS   H6Y 9438   0.996   5.544   7.121  2.1675 -1.2301  2.1232
   95SAPS   C37 9439   0.913   5.412   7.264 -0.1249  0.8212 -0.7061
   95SAPS   H7X 9440   1.004   5.350   7.280 -1.7432 -1.5118 -0.1273
   95SAPS   H7Y 9441   0.833   5.336   7.270  0.1206  0.6775  1.6709
   95SAPS   C38 9442   0.896   5.521   7.374  0.5395  0.2177 -0.0340
   95SAPS   H8X 9443   0.798   5.571   7.355 -0.4110 -2.6988 -4.3828
   95SAPS   H8Y 9444   0.973   5.601   7.364  1.2098 -0.4606 -0.4035
   95SAPS   C39 9445   0.902   5.455   7.518  0.3904 -0.3892  1.0082
   95SAPS   H9X 9446   1.007   5.417   7.516  0.7397  0.4655 -2.0569
   95SAPS   H9Y 9447   0.830   5.371   7.510  0.3567 -0.3559  0.9591
   95SAPS  C310 9448   0.875   5.557   7.628  0.6643  0.1011 -0.1402
   95SAPS  H10X 9449   0.779   5.606   7.600  0.3610 -2.2997 -4.0303
   95SAPS  H10Y 9450   0.951   5.638   7.631 -0.6184  1.4402 -1.5587
   95SAPS  C311 9451   0.856   5.494   7.762  1.0878  0.4823  0.4858
   95SAPS  H11X 9452   0.953   5.449   7.789  1.5263  1.8057  1.1857
   95SAPS  H11Y 9453   0.779   5.414   7.757  1.4666  0.1786 -0.9482
   95SAPS  C312 9454   0.836   5.595   7.875  0.5950  0.0549  0.5693
   95SAPS  H12X 9455   0.749   5.662   7.861  1.7342  1.8638  1.7385
   95SAPS  H12Y 9456   0.927   5.659   7.880  0.8404 -0.1205 -0.9315
   95SAPS  C313 9457   0.814   5.519   8.010 -0.0662  0.4077  0.6151
   95SAPS  H13X 9458   0.896   5.444   8.019  0.4262  0.6920 -1.2320
   95SAPS  H13Y 9459   0.721   5.461   7.990  1.1010 -1.2977 -0.1313
   95SAPS  C314 9460   0.811   5.612   8.129 -0.1785  0.7852  0.3080
   95SAPS  H14X 9461   0.720   5.675   8.118  0.5906  1.8192 -0.4208
   95SAPS  H14Y 9462   0.892   5.687   8.117 -1.8597  2.4661 -1.3592
   95SAPS  C315 9463   0.800   5.551   8.268  0.5813 -0.6247 -0.6793
   95SAPS  H15X 9464   0.715   5.480   8.276 -0.7542  1.0765  1.4422
   95SAPS  H15Y 9465   0.757   5.624   8.339 -1.2885  0.2901 -2.6432
   95SAPS  C316 9466   0.925   5.484   8.328  0.1647 -0.5938 -0.8270
   95SAPS  H16X 9467   0.974   5.427   8.246  1.0670 -1.2182  0.1303
   95SAPS  H16Y 9468   0.904   5.416   8.414  1.5331 -0.2095 -0.1654
   95SAPS  C317 9469   1.036   5.580   8.384  0.2268 -0.2995 -0.1127
   95SAPS  H17X 9470   0.993   5.634   8.471 -0.2901  2.1844 -1.7873
   95SAPS  H17Y 9471   1.069   5.650   8.304  0.6393 -3.0874 -2.5552
   95SAPS  C318 9472   1.158   5.500   8.426  0.0194  0.1080  0.6253
   95SAPS  H18X 9473   1.193   5.441   8.339 -0.1727  1.4466 -0.3975
   95SAPS  H18Y 9474   1.135   5.424   8.503 -4.0299  0.0609 -0.4433
   95SAPS  H18Z 9475   1.244   5.566   8.452  0.7708 -0.1503 -1.0152
   96SAPS     N 9476   6.751   6.175   6.043 -0.6118 -0.4818  0.5385
   96SAPS   HN1 9477   6.690   6.156   6.125 -0.6580 -0.2437  0.5623
   96SAPS   HN2 9478   6.798   6.267   6.056  1.7374 -1.0018 -2.8803
   96SAPS   HN3 9479   6.697   6.179   5.954 -0.2446  0.5959  0.3511
   96SAPS   C12 9480   6.848   6.060   6.037 -0.0751 -0.5924 -0.0673
   96SAPS  H12A 9481   6.788   5.970   6.030  1.7344 -1.8081 -0.6654
   96SAPS   C13 9482   6.940   6.062   5.918 -0.2529 -0.7611 -0.0444
   96SAPS  O13A 9483   6.927   6.156   5.835 -0.6407 -0.1504  0.5048
   96SAPS  O13B 9484   7.007   5.965   5.880 -0.3015 -0.3606 -0.3165
   96SAPS   C11 9485   6.933   6.061   6.180 -0.5639  0.0211 -0.2459
   96SAPS  H11A 9486   6.972   5.959   6.200 -4.1644 -1.1108  1.8456
   96SAPS  H11B 9487   6.874   6.090   6.269  0.6139 -0.1119  0.6035
   96SAPS     P 9488   7.018   6.309   6.218 -0.1331 -0.1305  0.1936
   96SAPS   O13 9489   7.141   6.385   6.196  0.1869  0.6247 -0.6762
   96SAPS   O14 9490   6.896   6.358   6.152 -0.2749  0.4026 -0.2773
   96SAPS   O12 9491   7.046   6.154   6.180  0.4073 -0.1265 -0.1688
   96SAPS   O11 9492   6.987   6.298   6.374  0.5366 -0.5158  0.2764
   96SAPS    C1 9493   7.069   6.228   6.456 -0.2042 -0.1389  0.3076
   96SAPS    HA 9494   7.084   6.127   6.411 -0.6071  0.2326 -0.6909
   96SAPS    HB 9495   7.165   6.282   6.472 -0.2945 -0.3135  1.5117
   96SAPS    C2 9496   7.019   6.211   6.599  0.8171  0.4236  0.3960
   96SAPS    HS 9497   6.920   6.162   6.587  0.8254  0.6308 -0.5705
   96SAPS   O21 9498   7.003   6.342   6.650 -0.2018 -0.2932 -0.4392
   96SAPS   C21 9499   6.945   6.351   6.768  0.2412 -0.8339 -0.5571
   96SAPS   O22 9500   6.887   6.260   6.823  0.1385 -0.4646  0.2299
   96SAPS   C22 9501   6.970   6.496   6.819  0.4850  0.5250  1.0138
   96SAPS   H2R 9502   6.994   6.568   6.737  0.1568  0.1812  0.6093
   96SAPS   H2S 9503   6.879   6.537   6.867 -0.4527 -1.1229  0.7400
   96SAPS    C3 9504   7.104   6.111   6.681  0.9983  0.0891  1.1070
   96SAPS    HX 9505   7.135   6.033   6.609 -2.8704  1.0725 -1.9642
   96SAPS    HY 9506   7.044   6.068   6.764 -1.3144 -1.0832 -1.0296
   96SAPS   O31 9507   7.223   6.172   6.734  0.0834 -0.2548 -0.3762
   96SAPS   C31 9508   7.317   6.091   6.779 -0.3778  0.0510  0.1458
   96SAPS   O32 9509   7.322   5.968   6.764  0.0144 -0.4112 -0.8743
   96SAPS   C32 9510   7.433   6.180   6.849 -0.6084 -0.1494 -0.2949
   96SAPS   H2X 9511   7.397   6.285   6.855 -1.9440 -0.6622  3.3757
   96SAPS   H2Y 9512   7.521   6.180   6.781  0.1387 -1.7795  0.6195
   96SAPS   C23 9513   7.085   6.499   6.922  0.8510 -0.1717  0.4164
   96SAPS   H3R 9514   7.098   6.607   6.945 -0.5564  0.3993 -1.2729
   96SAPS   H3S 9515   7.180   6.460   6.880 -0.5109 -3.5763  0.1858
   96SAPS   C24 9516   7.035   6.440   7.057 -0.0051 -0.6975 -0.0924
   96SAPS   H4R 9517   7.008   6.333   7.049  1.2354 -1.1045  0.9042
   96SAPS   H4S 9518   6.948   6.500   7.089 -0.4612 -0.8545 -1.0035
   96SAPS   C25 9519   7.142   6.461   7.160 -0.2082 -0.1731 -0.4649
   96SAPS   H5R 9520   7.242   6.493   7.126 -0.6915 -0.8304 -2.6854
   96SAPS   C26 9521   7.128   6.412   7.287 -0.2602  0.1390  0.0250
   96SAPS   H6R 9522   7.192   6.447   7.369 -1.2797  0.6599  0.6168
   96SAPS   C27 9523   7.011   6.345   7.347  0.1158  0.1419 -0.0290
   96SAPS   H7R 9524   6.941   6.326   7.263 -1.3160 -0.6079  1.2599
   96SAPS   H7S 9525   6.957   6.405   7.423  0.5104 -1.0919  1.2828
   96SAPS   C28 9526   7.042   6.205   7.403 -0.4715 -0.2497  0.4628
   96SAPS   H8R 9527   7.055   6.130   7.324 -3.5006  0.3080 -0.7151
   96SAPS   C29 9528   7.028   6.160   7.526  0.3329 -0.2149  0.2442
   96SAPS   H9R 9529   7.056   6.055   7.544 -0.3619 -0.4409  0.0238
   96SAPS  C210 9530   6.983   6.229   7.652  0.0054 -0.0801  0.0143
   96SAPS  H10R 9531   6.916   6.161   7.710  1.7477 -2.1260 -0.2445
   96SAPS  H10S 9532   6.927   6.321   7.625  0.5355 -0.3929 -2.3372
   96SAPS  C211 9533   7.113   6.257   7.725 -0.9846  0.4998  0.0605
   96SAPS  H11R 9534   7.180   6.325   7.670 -2.1855  1.5655 -0.1472
   96SAPS  C212 9535   7.142   6.207   7.849 -0.6767  0.4791 -0.0480
   96SAPS  H12R 9536   7.236   6.239   7.895 -2.0330  2.9154  1.2173
   96SAPS  C213 9537   7.063   6.111   7.946 -0.5833 -0.3226  0.8758
   96SAPS  H13R 9538   7.005   6.039   7.884 -0.7215  0.4401  0.0941
   96SAPS  H13S 9539   6.996   6.171   8.010 -0.6765 -1.4257  1.8344
   96SAPS  C214 9540   7.159   6.037   8.032  0.2326  0.1174  0.8832
   96SAPS  H14R 9541   7.230   5.964   7.989 -0.4456 -2.3955  3.6780
   96SAPS  C215 9542   7.159   6.047   8.168 -0.1124 -0.2686 -0.4395
   96SAPS  H15R 9543   7.238   5.990   8.220  0.9152  1.8102  0.4041
   96SAPS  C216 9544   7.082   6.148   8.245 -0.1720 -0.0205 -0.3212
   96SAPS  H16R 9545   6.980   6.109   8.261  0.4848 -0.6928  2.7668
   96SAPS  H16S 9546   7.081   6.251   8.203  0.8652 -0.4633 -1.5280
   96SAPS  C217 9547   7.146   6.168   8.389  0.5367  0.4860 -0.0842
   96SAPS  H17R 9548   7.079   6.238   8.442 -1.0289  0.2843 -1.7242
   96SAPS  H17S 9549   7.245   6.216   8.373  0.1829  0.8124 -1.4600
   96SAPS  C218 9550   7.164   6.039   8.476  0.9880  0.6753 -0.1998
   96SAPS  H18R 9551   7.225   5.966   8.418  0.8114 -1.0023  1.5778
   96SAPS  H18S 9552   7.072   5.981   8.500 -0.0912  0.3186 -4.4568
   96SAPS  C219 9553   7.236   6.061   8.610 -0.6337 -0.2406  0.3174
   96SAPS  H19R 9554   7.193   5.993   8.686 -1.4841  2.2825  2.2079
   96SAPS  H19S 9555   7.207   6.161   8.648 -1.0592  0.2935 -1.2982
   96SAPS  C220 9556   7.386   6.054   8.609  0.2141  0.7045  0.0904
   96SAPS  H20R 9557   7.406   5.948   8.637 -2.4090  0.4282  1.2323
   96SAPS  H20S 9558   7.432   6.102   8.697  0.3797 -0.7553  0.8292
   96SAPS  H20T 9559   7.435   6.082   8.513 -2.3267  0.0985 -1.5155
   96SAPS   C33 9560   7.470   6.147   6.995 -0.4445  0.3284  0.0300
   96SAPS   H3X 9561   7.516   6.046   6.999  0.2591  0.3705 -3.4711
   96SAPS   H3Y 9562   7.372   6.151   7.045 -1.0026  0.7413 -1.0598
   96SAPS   C34 9563   7.567   6.246   7.054 -0.0054 -0.5595  0.2167
   96SAPS   H4X 9564   7.537   6.349   7.027  0.5015  0.4985  3.3834
   96SAPS   H4Y 9565   7.664   6.222   7.005 -1.1661 -2.0792 -1.5052
   96SAPS   C35 9566   7.573   6.244   7.213  0.3504  0.3385  0.7376
   96SAPS   H5X 9567   7.679   6.273   7.231  0.2825 -0.2914  2.2865
   96SAPS   H5Y 9568   7.567   6.141   7.256  0.9765  0.1506  0.3953
   96SAPS   C36 9569   7.477   6.348   7.275  0.5674 -0.4025  0.2121
   96SAPS   H6X 9570   7.377   6.302   7.258 -0.1963  0.5197  1.9752
   96SAPS   H6Y 9571   7.490   6.449   7.231 -0.5544 -0.7533 -0.9856
   96SAPS   C37 9572   7.495   6.364   7.431  0.4104 -0.6167  0.3760
   96SAPS   H7X 9573   7.478   6.268   7.484  1.4551 -1.8045 -1.3315
   96SAPS   H7Y 9574   7.421   6.437   7.470  0.1129 -0.7962  0.1534
   96SAPS   C38 9575   7.634   6.401   7.477  0.9721  0.0108 -0.1915
   96SAPS   H8X 9576   7.691   6.479   7.423  2.4213 -0.7619  0.1855
   96SAPS   H8Y 9577   7.691   6.306   7.480 -0.7991 -1.2760 -2.8011
   96SAPS   C39 9578   7.632   6.441   7.625  0.3694  0.0483 -0.3077
   96SAPS   H9X 9579   7.590   6.353   7.678  1.5259 -0.2574  0.1311
   96SAPS   H9Y 9580   7.567   6.530   7.635  1.5228  0.6944  2.2492
   96SAPS  C310 9581   7.766   6.483   7.685  0.2526  0.2262  0.2026
   96SAPS  H10X 9582   7.792   6.584   7.647  2.9617 -0.4037  0.1483
   96SAPS  H10Y 9583   7.850   6.429   7.636 -0.6617 -0.7808 -0.2984
   96SAPS  C311 9584   7.776   6.460   7.843  0.5914 -0.2767  0.5138
   96SAPS  H11X 9585   7.732   6.370   7.894  1.1081 -0.2879  0.9465
   96SAPS  H11Y 9586   7.706   6.542   7.871  0.6694 -0.5788  1.6606
   96SAPS  C312 9587   7.909   6.481   7.914 -0.2268  0.1219  0.3157
   96SAPS  H12X 9588   7.963   6.568   7.871  0.4972 -0.1697  0.6184
   96SAPS  H12Y 9589   7.956   6.381   7.904 -1.6196 -0.6163  0.8382
   96SAPS  C313 9590   7.882   6.510   8.062  0.0393 -0.7211  0.2574
   96SAPS  H13X 9591   7.811   6.440   8.112  1.7242 -0.1703  3.7316
   96SAPS  H13Y 9592   7.848   6.615   8.078  0.4471 -0.7143  1.1329
   96SAPS  C314 9593   8.006   6.516   8.147  0.0357  0.1410 -0.4659
   96SAPS  H14X 9594   8.084   6.585   8.107  0.0489 -0.5477 -1.6802
   96SAPS  H14Y 9595   8.045   6.412   8.152 -1.7088 -0.4816  2.5615
   96SAPS  C315 9596   7.986   6.557   8.292  0.0981  0.1432  0.6445
   96SAPS  H15X 9597   7.904   6.494   8.333  0.4662 -2.2266 -1.9978
   96SAPS  H15Y 9598   7.980   6.667   8.304  0.8800  0.1045  1.5504
   96SAPS  C316 9599   8.104   6.517   8.389 -0.3137 -0.0752 -0.9045
   96SAPS  H16X 9600   8.202   6.537   8.341 -0.0456 -1.6439 -1.0481
   96SAPS  H16Y 9601   8.084   6.408   8.400 -3.5406  0.5489  0.3771
   96SAPS  C317 9602   8.105   6.592   8.525  0.5891 -0.5690 -0.1439
   96SAPS  H17X 9603   8.027   6.544   8.588  2.2203 -1.9387  0.9298
   96SAPS  H17Y 9604   8.091   6.700   8.504 -0.2207  0.1566  3.4197
   96SAPS  C318 9605   8.236   6.572   8.605 -0.2900 -0.2644 -0.6840
   96SAPS  H18X 9606   8.215   6.626   8.700 -0.8985  0.0716 -1.0046
   96SAPS  H18Y 9607   8.317   6.629   8.554  1.5518 -1.1078  1.1632
   96SAPS  H18Z 9608   8.272   6.468   8.617 -1.3641 -0.5290  0.5266
   97SAPS     N 9609   3.406   5.500   6.088 -0.1533 -0.1586 -0.0253
   97SAPS   HN1 9610   3.495   5.505   6.035  0.8235 -0.7051  1.4889
   97SAPS   HN2 9611   3.412   5.545   6.181 -2.8915  0.5450 -0.0917
   97SAPS   HN3 9612   3.378   5.400   6.092 -1.4536  0.2204  1.6386
   97SAPS   C12 9613   3.313   5.590   6.004  0.6784 -0.0839 -0.6419
   97SAPS  H12A 9614   3.349   5.691   6.022  2.5566 -0.6549 -1.0267
   97SAPS   C13 9615   3.313   5.569   5.846 -0.1672  0.1128 -0.5545
   97SAPS  O13A 9616   3.363   5.472   5.787 -0.7316  0.2592  0.0964
   97SAPS  O13B 9617   3.234   5.642   5.783  0.6506 -0.9399  0.3487
   97SAPS   C11 9618   3.172   5.585   6.059  0.2417  0.3787 -0.1271
   97SAPS  H11A 9619   3.136   5.482   6.082  2.9149 -0.4178  0.9157
   97SAPS  H11B 9620   3.096   5.635   5.996 -0.3194  0.2926  0.4675
   97SAPS     P 9621   3.098   5.626   6.308  0.1571  0.2235  0.3795
   97SAPS   O13 9622   3.115   5.740   6.397  0.0889 -0.4783 -0.1066
   97SAPS   O14 9623   2.963   5.586   6.278 -0.1225 -0.1698 -0.0845
   97SAPS   O12 9624   3.171   5.664   6.175  0.4988 -0.4658  0.0005
   97SAPS   O11 9625   3.181   5.499   6.351 -0.0847 -0.5382  0.2313
   97SAPS    C1 9626   3.136   5.395   6.437 -0.1523  0.6229 -0.4699
   97SAPS    HA 9627   3.040   5.425   6.483 -1.5264 -1.3082 -1.8596
   97SAPS    HB 9628   3.104   5.303   6.383  0.1719  0.5488 -0.5398
   97SAPS    C2 9629   3.248   5.353   6.540 -0.5091  0.8208 -0.4656
   97SAPS    HS 9630   3.196   5.302   6.624 -0.9799 -0.7730 -1.6707
   97SAPS   O21 9631   3.319   5.471   6.586  0.5375 -0.3268  0.5964
   97SAPS   C21 9632   3.274   5.541   6.686  0.5288 -0.6140 -0.1322
   97SAPS   O22 9633   3.163   5.534   6.731  0.5451 -0.0290 -0.2613
   97SAPS   C22 9634   3.393   5.623   6.736 -0.3077 -0.0133 -0.1844
   97SAPS   H2R 9635   3.476   5.552   6.757  0.1032  0.4353 -0.2664
   97SAPS   H2S 9636   3.433   5.694   6.660 -0.6201 -0.0093 -0.3466
   97SAPS    C3 9637   3.350   5.257   6.481  0.0177 -0.3001  0.1453
   97SAPS    HX 9638   3.386   5.306   6.388  2.6679  0.4760  1.4996
   97SAPS    HY 9639   3.313   5.158   6.445 -1.4771  0.8887 -1.8271
   97SAPS   O31 9640   3.465   5.253   6.567  1.0386  0.5090 -0.1968
   97SAPS   C31 9641   3.473   5.131   6.634  0.0713  0.1722 -0.2952
   97SAPS   O32 9642   3.394   5.037   6.622 -0.5019  0.0969 -0.0242
   97SAPS   C32 9643   3.603   5.121   6.722  0.3151 -0.1260  0.3429
   97SAPS   H2X 9644   3.687   5.101   6.653  0.4386  0.9781  0.1427
   97SAPS   H2Y 9645   3.589   5.046   6.803  2.7896 -0.8986  0.1402
   97SAPS   C23 9646   3.367   5.707   6.863  0.6039  0.0679  0.6371
   97SAPS   H3R 9647   3.281   5.776   6.847  0.5608  0.2761  1.7001
   97SAPS   H3S 9648   3.455   5.775   6.869  0.2667  0.5306  0.3403
   97SAPS   C24 9649   3.357   5.626   6.994  0.0572 -0.0050 -0.3463
   97SAPS   H4R 9650   3.453   5.570   6.998 -0.6263 -1.4933 -2.6180
   97SAPS   H4S 9651   3.275   5.553   6.981 -2.3075  2.7431 -2.2170
   97SAPS   C25 9652   3.342   5.726   7.104  0.5020  0.6604 -0.2949
   97SAPS   H5R 9653   3.419   5.804   7.116 -0.5083  1.4108  1.6134
   97SAPS   C26 9654   3.238   5.719   7.185  0.1234  0.4933 -0.4929
   97SAPS   H6R 9655   3.266   5.783   7.270  1.9236  0.5900 -1.1047
   97SAPS   C27 9656   3.124   5.624   7.195  0.0771  0.2851  0.4461
   97SAPS   H7R 9657   3.147   5.519   7.166  1.6153  0.8236 -0.3840
   97SAPS   H7S 9658   3.059   5.651   7.109  2.7929 -2.2500 -2.7032
   97SAPS   C28 9659   3.063   5.629   7.332 -0.1538 -0.7853 -0.3178
   97SAPS   H8R 9660   2.963   5.673   7.326  0.4058  0.4148 -1.1973
   97SAPS   C29 9661   3.099   5.579   7.453 -0.5641  0.4142 -0.0387
   97SAPS   H9R 9662   3.044   5.606   7.545  2.5108  3.4941  1.0954
   97SAPS  C210 9663   3.229   5.499   7.471 -0.6974  0.8397 -0.3542
   97SAPS  H10R 9664   3.242   5.417   7.397  0.1918 -1.1651  1.9068
   97SAPS  H10S 9665   3.198   5.439   7.558 -0.5034 -0.6573 -1.2891
   97SAPS  C211 9666   3.358   5.579   7.492 -0.4144  0.4772 -0.2763
   97SAPS  H11R 9667   3.430   5.588   7.409  1.5507 -2.6540  0.8543
   97SAPS  C212 9668   3.398   5.620   7.618  0.8744 -0.0754 -0.4266
   97SAPS  H12R 9669   3.489   5.682   7.618  1.5379 -0.9754  1.2306
   97SAPS  C213 9670   3.328   5.608   7.748  0.2346  0.9071  0.0464
   97SAPS  H13R 9671   3.218   5.619   7.731  0.1102  1.0728  0.9278
   97SAPS  H13S 9672   3.362   5.693   7.811 -1.5614  0.2432  2.0215
   97SAPS  C214 9673   3.350   5.477   7.808  0.7923  0.2722  0.2384
   97SAPS  H14R 9674   3.451   5.437   7.794  1.3798  1.1048  1.8813
   97SAPS  C215 9675   3.267   5.398   7.880  0.5050 -0.0955  0.5934
   97SAPS  H15R 9676   3.311   5.302   7.911 -2.9136 -1.5447  1.3715
   97SAPS  C216 9677   3.126   5.412   7.920  0.0811 -0.0985 -0.4931
   97SAPS  H16R 9678   3.065   5.320   7.906 -1.3496  1.1133 -2.8373
   97SAPS  H16S 9679   3.070   5.480   7.853  0.2571  0.6843  0.1331
   97SAPS  C217 9680   3.125   5.455   8.067 -0.2444  0.0535 -0.6158
   97SAPS  H17R 9681   3.149   5.563   8.072 -0.5880  0.1829 -1.6007
   97SAPS  H17S 9682   3.203   5.392   8.116 -1.3844 -0.7163  0.2561
   97SAPS  C218 9683   2.998   5.424   8.144 -0.5384  0.7402 -0.5395
   97SAPS  H18R 9684   3.011   5.437   8.254  1.7566  0.0749 -0.6742
   97SAPS  H18S 9685   2.980   5.314   8.142  0.6327  0.4497  1.6498
   97SAPS  C219 9686   2.862   5.494   8.099 -0.2779  0.2946  0.1892
   97SAPS  H19R 9687   2.838   5.464   7.994  0.0786 -0.9198  0.4429
   97SAPS  H19S 9688   2.892   5.601   8.100  0.3035  0.1342  1.6076
   97SAPS  C220 9689   2.744   5.475   8.186 -0.1027 -0.0667  0.4864
   97SAPS  H20R 9690   2.772   5.488   8.292  0.1626 -2.3004  0.7365
   97SAPS  H20S 9691   2.722   5.367   8.174  2.0560 -0.5241  0.1148
   97SAPS  H20T 9692   2.647   5.523   8.161 -0.1932  0.6923  2.2040
   97SAPS   C33 9693   3.637   5.257   6.791  0.0070  0.6015  0.4073
   97SAPS   H3X 9694   3.655   5.330   6.710 -0.1731  0.7137  0.4676
   97SAPS   H3Y 9695   3.736   5.249   6.841  0.2477 -0.6392 -0.2374
   97SAPS   C34 9696   3.520   5.306   6.881  0.3270  0.6096  0.0873
   97SAPS   H4X 9697   3.438   5.327   6.808 -0.9350  0.0888  1.3116
   97SAPS   H4Y 9698   3.554   5.397   6.935  0.1455 -0.2470  1.6811
   97SAPS   C35 9699   3.461   5.212   6.985 -0.1512 -0.3351 -0.2711
   97SAPS   H5X 9700   3.545   5.151   7.024  0.0273 -0.8655 -1.4437
   97SAPS   H5Y 9701   3.387   5.141   6.942 -2.1969  0.3482  1.9040
   97SAPS   C36 9702   3.388   5.286   7.097  0.0992  0.0475  0.0415
   97SAPS   H6X 9703   3.329   5.203   7.142  1.2403 -1.1633 -0.5965
   97SAPS   H6Y 9704   3.309   5.357   7.066 -0.3006 -0.4711 -0.1466
   97SAPS   C37 9705   3.491   5.351   7.198 -0.8147  0.3138 -0.4734
   97SAPS   H7X 9706   3.446   5.434   7.257 -0.1911  0.0281  0.4375
   97SAPS   H7Y 9707   3.581   5.399   7.154  0.6078  0.6242  2.5149
   97SAPS   C38 9708   3.538   5.246   7.305 -0.7587  0.1589 -0.3558
   97SAPS   H8X 9709   3.610   5.292   7.376  2.4911 -1.6904 -2.2347
   97SAPS   H8Y 9710   3.592   5.163   7.255 -2.2754 -0.6012 -0.7680
   97SAPS   C39 9711   3.425   5.197   7.402  0.3338 -0.4233 -0.1025
   97SAPS   H9X 9712   3.340   5.148   7.352 -0.3570 -1.0465  1.6264
   97SAPS   H9Y 9713   3.393   5.292   7.451 -0.3994  0.5345 -2.3075
   97SAPS  C310 9714   3.484   5.097   7.507 -0.1698 -0.3013  0.5662
   97SAPS  H10X 9715   3.583   5.140   7.535 -1.2775  0.6879  3.3740
   97SAPS  H10Y 9716   3.506   5.001   7.455  0.6405  0.4981 -0.6174
   97SAPS  C311 9717   3.398   5.077   7.633 -0.2745 -0.7001 -0.1332
   97SAPS  H11X 9718   3.289   5.080   7.614 -0.3116  1.4260  0.2309
   97SAPS  H11Y 9719   3.409   5.169   7.694 -0.8535 -0.1557 -0.8281
   97SAPS  C312 9720   3.407   4.954   7.728  0.5671  0.7495 -0.5091
   97SAPS  H12X 9721   3.395   4.864   7.664  0.9376 -0.4200  0.9947
   97SAPS  H12Y 9722   3.310   4.955   7.783  0.0558 -1.4043 -1.2714
   97SAPS  C313 9723   3.530   4.956   7.826  0.7274 -0.5279 -0.4327
   97SAPS  H13X 9724   3.510   5.040   7.896  0.5793 -1.8143  1.0971
   97SAPS  H13Y 9725   3.618   4.981   7.762  0.7457  0.3564 -0.0776
   97SAPS  C314 9726   3.544   4.822   7.899  0.2870 -0.2254  0.0822
   97SAPS  H14X 9727   3.611   4.760   7.835 -1.3200 -0.5137 -1.4012
   97SAPS  H14Y 9728   3.448   4.766   7.901 -1.4665  2.6015  0.8520
   97SAPS  C315 9729   3.597   4.849   8.035  0.1915  0.3686 -0.5976
   97SAPS  H15X 9730   3.525   4.903   8.100 -0.3679 -3.4247  2.3482
   97SAPS  H15Y 9731   3.691   4.908   8.037 -1.6296  3.4618  0.6646
   97SAPS  C316 9732   3.630   4.721   8.119 -0.3430 -0.1293  0.1388
   97SAPS  H16X 9733   3.713   4.660   8.077  2.7603  2.5944  1.8474
   97SAPS  H16Y 9734   3.534   4.668   8.136 -0.7822  0.2901 -0.9598
   97SAPS  C317 9735   3.696   4.746   8.260  0.5668 -0.2108  0.3637
   97SAPS  H17X 9736   3.657   4.843   8.299 -1.5919 -1.3876  1.3366
   97SAPS  H17Y 9737   3.804   4.751   8.239  0.5993 -3.2850 -0.6706
   97SAPS  C318 9738   3.671   4.622   8.354  0.0237 -0.2970 -0.6080
   97SAPS  H18X 9739   3.708   4.643   8.457  2.8362 -1.3485 -1.3108
   97SAPS  H18Y 9740   3.721   4.529   8.319 -2.0794 -0.7895 -2.5122
   97SAPS  H18Z 9741   3.565   4.587   8.357 -0.4209  1.0497  0.8492
   98SAPS     N 9742   2.247   5.633   6.241 -0.4900  0.7583 -0.3340
   98SAPS   HN1 9743   2.234   5.721   6.296 -1.6835  0.5283 -0.2274
   98SAPS   HN2 9744   2.176   5.565   6.276 -0.9851  2.0146  1.2647
   98SAPS   HN3 9745   2.344   5.597   6.252 -0.6794  0.9521  4.0193
   98SAPS   C12 9746   2.227   5.676   6.099  0.2241  0.1277 -0.1479
   98SAPS  H12A 9747   2.279   5.769   6.084 -0.0733  0.6618  1.7808
   98SAPS   C13 9748   2.276   5.565   5.992 -0.1298  0.0349 -0.3589
   98SAPS  O13A 9749   2.317   5.452   6.040 -0.2826  0.3037 -0.4588
   98SAPS  O13B 9750   2.259   5.589   5.870  0.0001 -0.7268 -0.1116
   98SAPS   C11 9751   2.080   5.718   6.078 -0.0087  0.2377  0.8190
   98SAPS  H11A 9752   2.023   5.625   6.100  3.0801 -1.5691  1.7280
   98SAPS  H11B 9753   2.068   5.752   5.973  0.1512 -4.2107 -0.8351
   98SAPS     P 9754   1.893   5.855   6.187 -0.4670 -0.2637  0.2710
   98SAPS   O13 9755   1.865   5.970   6.276 -1.0168 -0.1253 -0.4150
   98SAPS   O14 9756   1.826   5.866   6.056 -0.1850  0.1084 -0.2004
   98SAPS   O12 9757   2.045   5.824   6.166 -0.3425  0.3973 -0.3221
   98SAPS   O11 9758   1.847   5.717   6.248  0.2669  0.3701 -0.1269
   98SAPS    C1 9759   1.710   5.693   6.265  0.3241  0.1357 -0.0479
   98SAPS    HA 9760   1.645   5.783   6.264  0.7280  0.4339 -1.4644
   98SAPS    HB 9761   1.675   5.627   6.183  0.0648  0.7264 -0.4122
   98SAPS    C2 9762   1.686   5.629   6.406 -0.0737  0.5920 -0.0938
   98SAPS    HS 9763   1.673   5.520   6.392  1.7916  0.3360 -0.1470
   98SAPS   O21 9764   1.576   5.689   6.470  0.4111 -0.2225  0.2637
   98SAPS   C21 9765   1.457   5.655   6.434 -0.4694  0.3232 -0.4878
   98SAPS   O22 9766   1.431   5.586   6.340  0.9655 -0.2520 -0.2292
   98SAPS   C22 9767   1.349   5.731   6.517 -0.4450  0.5811  0.2917
   98SAPS   H2R 9768   1.362   5.841   6.511  1.4580  0.3668 -0.1480
   98SAPS   H2S 9769   1.253   5.688   6.482 -1.8028  3.5416  0.0645
   98SAPS    C3 9770   1.812   5.639   6.500 -0.4094  0.4959  0.0225
   98SAPS    HX 9771   1.855   5.741   6.489  1.4628 -0.3924 -1.4692
   98SAPS    HY 9772   1.890   5.580   6.447  2.5719  4.6022 -0.6618
   98SAPS   O31 9773   1.788   5.593   6.635 -0.0853 -0.4502  0.0277
   98SAPS   C31 9774   1.755   5.689   6.729 -0.4050 -0.0623  0.0419
   98SAPS   O32 9775   1.763   5.810   6.701  0.0796 -0.4198 -0.5684
   98SAPS   C32 9776   1.706   5.636   6.866  0.0269 -0.1737 -0.0091
   98SAPS   H2X 9777   1.796   5.606   6.923  0.0822 -1.8796 -0.9268
   98SAPS   H2Y 9778   1.647   5.544   6.846  0.1704 -0.3790  0.5063
   98SAPS   C23 9779   1.377   5.710   6.670  0.1165  0.7184  0.3860
   98SAPS   H3R 9780   1.481   5.747   6.682  0.9272 -0.8903 -1.0988
   98SAPS   H3S 9781   1.374   5.600   6.687 -0.6025  1.0346  2.5915
   98SAPS   C24 9782   1.282   5.778   6.761 -0.0056  0.2702 -0.6286
   98SAPS   H4R 9783   1.287   5.885   6.733 -0.5745  0.5582  0.3120
   98SAPS   H4S 9784   1.316   5.773   6.867  0.9067  2.4245 -0.7800
   98SAPS   C25 9785   1.137   5.732   6.769 -0.4416 -0.2614  0.7513
   98SAPS   H5R 9786   1.095   5.696   6.674  2.3612  0.8904 -1.0622
   98SAPS   C26 9787   1.061   5.728   6.879 -0.2380 -0.9484 -0.0203
   98SAPS   H6R 9788   0.955   5.704   6.860 -0.4591  1.3532 -2.3251
   98SAPS   C27 9789   1.105   5.778   7.015  0.4130 -0.6004  0.0371
   98SAPS   H7R 9790   1.201   5.833   7.008  0.7215 -1.2971 -1.5666
   98SAPS   H7S 9791   1.143   5.687   7.065 -1.4417 -2.0977 -1.1480
   98SAPS   C28 9792   1.004   5.847   7.102  0.3276  0.1200 -0.1002
   98SAPS   H8R 9793   0.916   5.896   7.058  0.6861 -0.0261 -1.0011
   98SAPS   C29 9794   1.016   5.864   7.235  0.0281  0.0711 -0.0887
   98SAPS   H9R 9795   0.936   5.907   7.297  1.1072  1.5790  0.3196
   98SAPS  C210 9796   1.141   5.827   7.320  0.9213 -0.3488 -0.3844
   98SAPS  H10R 9797   1.226   5.891   7.289  2.3722 -1.8506  0.3094
   98SAPS  H10S 9798   1.182   5.726   7.299 -1.8156 -1.9639  1.3568
   98SAPS  C211 9799   1.111   5.843   7.467 -0.6985  0.3681  0.1414
   98SAPS  H11R 9800   1.045   5.764   7.505 -1.0240  1.6594  2.3594
   98SAPS  C212 9801   1.169   5.940   7.545  0.2623  0.4844 -0.1345
   98SAPS  H12R 9802   1.140   5.943   7.651  0.3695  1.0307 -0.1173
   98SAPS  C213 9803   1.252   6.055   7.506 -0.8000 -0.0293  0.2098
   98SAPS  H13R 9804   1.241   6.074   7.397  0.7207 -0.9948 -0.1473
   98SAPS  H13S 9805   1.358   6.026   7.521  0.9876  3.2017 -3.9729
   98SAPS  C214 9806   1.223   6.181   7.586 -0.1229 -0.2838 -0.4073
   98SAPS  H14R 9807   1.118   6.213   7.594 -0.9738 -3.0183  0.7374
   98SAPS  C215 9808   1.317   6.253   7.656 -0.1599  0.0794  0.5194
   98SAPS  H15R 9809   1.291   6.345   7.711  0.2726  1.4893 -1.5176
   98SAPS  C216 9810   1.459   6.218   7.668 -0.5526 -0.0305 -0.3675
   98SAPS  H16R 9811   1.520   6.307   7.641  1.4299 -0.3122  2.7117
   98SAPS  H16S 9812   1.503   6.146   7.595  2.6092  0.3483  0.9852
   98SAPS  C217 9813   1.496   6.178   7.808 -0.4714  0.2053 -0.1715
   98SAPS  H17R 9814   1.602   6.143   7.815 -0.3845  0.4290 -0.3549
   98SAPS  H17S 9815   1.431   6.097   7.846  0.8117  0.0790  1.9298
   98SAPS  C218 9816   1.495   6.285   7.917 -0.2259  0.6240  0.2412
   98SAPS  H18R 9817   1.389   6.296   7.948 -0.4555  0.7627 -0.5704
   98SAPS  H18S 9818   1.528   6.381   7.872  4.6681 -1.8417 -2.3056
   98SAPS  C219 9819   1.588   6.258   8.036 -0.9842 -0.9779 -0.8326
   98SAPS  H19R 9820   1.695   6.276   8.011 -1.0017 -0.3664 -0.4817
   98SAPS  H19S 9821   1.580   6.158   8.082  0.9855 -0.4168  0.8521
   98SAPS  C220 9822   1.575   6.370   8.142 -0.1513 -0.0089  0.8443
   98SAPS  H20R 9823   1.475   6.358   8.189  0.1731  3.6016  2.8248
   98SAPS  H20S 9824   1.588   6.473   8.104  0.1137 -0.4791 -0.3817
   98SAPS  H20T 9825   1.649   6.355   8.224  0.0746  0.6248  0.7588
   98SAPS   C33 9826   1.625   5.742   6.949 -0.0934  0.0927 -0.2211
   98SAPS   H3X 9827   1.517   5.738   6.925 -0.0946 -0.8589 -0.0998
   98SAPS   H3Y 9828   1.673   5.842   6.940  0.4587 -0.2687 -1.6083
   98SAPS   C34 9829   1.637   5.718   7.097 -0.8226 -0.3152  0.0740
   98SAPS   H4X 9830   1.743   5.727   7.129 -1.3335 -1.8673  2.4599
   98SAPS   H4Y 9831   1.614   5.616   7.134  0.0984  0.9105  4.6512
   98SAPS   C35 9832   1.544   5.805   7.184  0.2998 -0.0084 -0.7206
   98SAPS   H5X 9833   1.437   5.790   7.157 -0.1667 -0.4888  1.2342
   98SAPS   H5Y 9834   1.579   5.911   7.186 -1.4554  0.6080 -0.9739
   98SAPS   C36 9835   1.563   5.776   7.337  0.4920 -1.2232 -0.0580
   98SAPS   H6X 9836   1.555   5.667   7.360 -0.7930 -1.8596 -3.0234
   98SAPS   H6Y 9837   1.468   5.817   7.378  0.3444 -1.1465 -0.4636
   98SAPS   C37 9838   1.691   5.821   7.413 -0.2867 -0.2039 -0.6689
   98SAPS   H7X 9839   1.694   5.931   7.403 -0.8105 -0.2852 -1.7914
   98SAPS   H7Y 9840   1.784   5.774   7.375 -1.3263 -4.3941  1.3077
   98SAPS   C38 9841   1.700   5.788   7.567  0.8810 -0.2591  0.7402
   98SAPS   H8X 9842   1.715   5.678   7.568  1.1903 -0.2778 -1.4387
   98SAPS   H8Y 9843   1.599   5.807   7.608  0.4087 -2.8174  0.8960
   98SAPS   C39 9844   1.802   5.863   7.645  0.2340  0.2594  0.0583
   98SAPS   H9X 9845   1.789   5.972   7.628 -0.6972  0.3897  1.4334
   98SAPS   H9Y 9846   1.899   5.833   7.598 -0.1837  0.9096 -1.2637
   98SAPS  C310 9847   1.818   5.839   7.790 -0.4817 -0.7291 -0.0872
   98SAPS  H10X 9848   1.844   5.731   7.799 -0.2462 -0.7230 -0.6807
   98SAPS  H10Y 9849   1.720   5.860   7.837 -0.3407  0.3120 -0.2388
   98SAPS  C311 9850   1.923   5.933   7.858 -0.3172 -0.4032  0.1186
   98SAPS  H11X 9851   1.887   6.037   7.840 -1.5740 -0.9719 -0.8426
   98SAPS  H11Y 9852   2.019   5.903   7.813 -0.2383  0.5274 -0.3514
   98SAPS  C312 9853   1.935   5.902   8.002 -0.2998 -0.5491 -0.1636
   98SAPS  H12X 9854   2.032   5.938   8.043  0.0086 -0.7861 -0.6805
   98SAPS  H12Y 9855   1.932   5.792   8.016  1.4626 -0.3359  2.5590
   98SAPS  C313 9856   1.819   5.963   8.088 -0.4296  0.7606  0.9162
   98SAPS  H13X 9857   1.733   5.896   8.068  2.0636 -2.9769  1.7379
   98SAPS  H13Y 9858   1.794   6.067   8.060  2.7897  1.4937  0.3115
   98SAPS  C314 9859   1.853   5.952   8.238  0.0447 -0.5154  0.4026
   98SAPS  H14X 9860   1.924   6.030   8.271 -0.7512  0.9091 -1.0923
   98SAPS  H14Y 9861   1.905   5.854   8.245 -0.2559 -0.6170  1.4271
   98SAPS  C315 9862   1.731   5.956   8.326 -0.2035  0.3646  0.5595
   98SAPS  H15X 9863   1.744   5.886   8.412  0.0510  0.3699  0.5275
   98SAPS  H15Y 9864   1.642   5.924   8.268  0.8266  0.4084 -1.1284
   98SAPS  C316 9865   1.697   6.097   8.380  0.2378  0.1316  0.4703
   98SAPS  H16X 9866   1.689   6.172   8.298  0.6463  0.6531  0.8971
   98SAPS  H16Y 9867   1.791   6.131   8.430  1.4895  1.0676 -2.2641
   98SAPS  C317 9868   1.589   6.101   8.489 -0.0960 -0.2806  0.3346
   98SAPS  H17X 9869   1.482   6.093   8.459 -0.2268 -0.9357  0.9650
   98SAPS  H17Y 9870   1.585   6.200   8.539  0.4000 -1.3209  2.5361
   98SAPS  C318 9871   1.598   5.999   8.607  0.0448 -0.6409  0.3836
   98SAPS  H18X 9872   1.506   5.998   8.670 -0.5275 -1.4827 -0.4386
   98SAPS  H18Y 9873   1.691   6.021   8.662  2.0923 -0.4381 -2.9021
   98SAPS  H18Z 9874   1.598   5.897   8.563 -0.8444 -0.3646 -0.2888
   99SAPS     N 9875   0.576   3.793   6.069  0.0897 -0.1296  0.6875
   99SAPS   HN1 9876   0.500   3.865   6.069 -1.2816 -1.5393  0.4346
   99SAPS   HN2 9877   0.565   3.747   6.162 -2.7985  1.6930  1.4027
   99SAPS   HN3 9878   0.669   3.840   6.065  0.3732 -0.4611  2.4943
   99SAPS   C12 9879   0.548   3.718   5.941  0.4112  0.0255  0.6814
   99SAPS  H12A 9880   0.449   3.675   5.944  0.3148 -0.4945 -3.6560
   99SAPS   C13 9881   0.551   3.806   5.808 -0.7133 -0.0382 -0.1358
   99SAPS  O13A 9882   0.605   3.917   5.815 -0.4506 -0.0784 -0.3385
   99SAPS  O13B 9883   0.564   3.737   5.705 -0.4176 -0.3730  0.5647
   99SAPS   C11 9884   0.661   3.611   5.928  0.2607 -0.1509  0.1013
   99SAPS  H11A 9885   0.753   3.660   5.888  0.5667 -0.8403 -0.0560
   99SAPS  H11B 9886   0.635   3.540   5.846 -1.5573 -1.0659  1.4008
   99SAPS     P 9887   0.705   3.384   6.064  0.0913  0.2770 -0.5618
   99SAPS   O13 9888   0.652   3.314   5.943  0.6659  0.1445 -0.6404
   99SAPS   O14 9889   0.852   3.360   6.083  0.2729  0.5870  0.3543
   99SAPS   O12 9890   0.686   3.541   6.052 -0.4616  0.1557 -0.1668
   99SAPS   O11 9891   0.622   3.352   6.187 -0.4519 -0.2732 -0.0422
   99SAPS    C1 9892   0.609   3.432   6.307 -0.3871  0.1752 -0.1423
   99SAPS    HA 9893   0.611   3.366   6.396 -1.7713  0.5133  0.1582
   99SAPS    HB 9894   0.692   3.506   6.307  0.1841 -0.4604  0.5454
   99SAPS    C2 9895   0.481   3.519   6.308  0.5630 -0.2617 -0.1689
   99SAPS    HS 9896   0.471   3.571   6.210 -1.2700 -0.9164 -0.3845
   99SAPS   O21 9897   0.480   3.600   6.422  0.4167 -0.0046 -0.6398
   99SAPS   C21 9898   0.554   3.713   6.416 -0.4928  0.0847 -0.7103
   99SAPS   O22 9899   0.619   3.742   6.320 -0.1790 -0.4262 -0.6482
   99SAPS   C22 9900   0.543   3.795   6.544  0.3365  0.1597  0.6005
   99SAPS   H2R 9901   0.509   3.725   6.624  1.2404  0.9884  1.7535
   99SAPS   H2S 9902   0.636   3.849   6.568 -1.0629  2.8395  0.3477
   99SAPS    C3 9903   0.341   3.442   6.303 -0.1735  1.3457 -0.4818
   99SAPS    HX 9904   0.336   3.380   6.211  1.2561 -1.1689  1.0353
   99SAPS    HY 9905   0.261   3.515   6.328 -1.3278 -1.2519  4.6750
   99SAPS   O31 9906   0.333   3.343   6.417 -0.5526 -0.1349 -0.1205
   99SAPS   C31 9907   0.269   3.378   6.531 -0.7836  1.0263 -0.1265
   99SAPS   O32 9908   0.224   3.486   6.560 -0.4104  0.3838  0.4878
   99SAPS   C32 9909   0.254   3.249   6.612 -0.1816  0.5466 -0.1633
   99SAPS   H2X 9910   0.347   3.188   6.614  0.3331  1.3052 -0.5496
   99SAPS   H2Y 9911   0.175   3.191   6.558 -1.4180  1.6251  0.4281
   99SAPS   C23 9912   0.426   3.897   6.541  0.0826 -0.0967 -0.5693
   99SAPS   H3R 9913   0.338   3.831   6.528 -0.5813  0.8646 -1.1183
   99SAPS   H3S 9914   0.433   3.957   6.448 -0.7607  1.2907  0.2284
   99SAPS   C24 9915   0.414   3.986   6.666 -0.2196  0.8410  0.2739
   99SAPS   H4R 9916   0.424   3.923   6.757  0.3041  0.6200  0.0658
   99SAPS   H4S 9917   0.320   4.046   6.669 -0.9555 -0.0130 -2.6329
   99SAPS   C25 9918   0.527   4.085   6.663 -0.1511  0.3308  0.1621
   99SAPS   H5R 9919   0.549   4.136   6.568 -2.7625  0.4750 -0.4510
   99SAPS   C26 9920   0.624   4.087   6.758  0.7494 -0.1187 -1.1108
   99SAPS   H6R 9921   0.705   4.161   6.745 -0.1139  1.3801  1.4540
   99SAPS   C27 9922   0.627   4.024   6.893 -0.0117  1.0191 -0.4415
   99SAPS   H7R 9923   0.733   4.016   6.923 -0.5840 -1.1723  1.3228
   99SAPS   H7S 9924   0.586   3.921   6.901  0.0834  1.1270  2.4097
   99SAPS   C28 9925   0.548   4.101   6.996  0.6930 -0.4077  0.1502
   99SAPS   H8R 9926   0.489   4.184   6.953 -0.9620 -1.2668  0.6818
   99SAPS   C29 9927   0.555   4.093   7.124 -0.3627  0.4423 -0.6363
   99SAPS   H9R 9928   0.483   4.155   7.180 -1.7822  1.3431 -3.2408
   99SAPS  C210 9929   0.649   3.991   7.196  0.3666  0.0411  0.8255
   99SAPS  H10R 9930   0.740   4.049   7.222 -0.1400  1.1805  0.1776
   99SAPS  H10S 9931   0.696   3.923   7.122 -1.8050 -0.6930  0.0493
   99SAPS  C211 9932   0.583   3.913   7.302  0.3383  0.7736 -0.7768
   99SAPS  H11R 9933   0.545   3.816   7.266 -0.7753  0.7194  0.4572
   99SAPS  C212 9934   0.585   3.934   7.434  0.5973 -1.8969  0.2353
   99SAPS  H12R 9935   0.542   3.863   7.505  3.8082 -2.9859  1.2684
   99SAPS  C213 9936   0.644   4.063   7.493  0.0668 -0.1025 -0.1978
   99SAPS  H13R 9937   0.574   4.111   7.565 -1.7881  0.7769 -2.4820
   99SAPS  H13S 9938   0.662   4.149   7.425 -1.0797  0.7811  0.5735
   99SAPS  C214 9939   0.780   4.031   7.549  0.2016  0.2761  0.2135
   99SAPS  H14R 9940   0.852   4.009   7.469  0.0489 -3.3759  0.9336
   99SAPS  C215 9941   0.814   4.040   7.677 -0.1627  0.1316 -0.4015
   99SAPS  H15R 9942   0.917   4.015   7.707  0.1354 -0.3552 -1.7503
   99SAPS  C216 9943   0.728   4.074   7.792  0.3824 -0.7176  0.1086
   99SAPS  H16R 9944   0.652   3.995   7.808 -0.2241  0.0176  0.9359
   99SAPS  H16S 9945   0.671   4.166   7.766  0.9753 -0.7499 -1.4057
   99SAPS  C217 9946   0.818   4.102   7.917  0.3740 -0.1852 -0.4383
   99SAPS  H17R 9947   0.756   4.135   8.003 -1.1249  0.0386 -1.5493
   99SAPS  H17S 9948   0.895   4.178   7.893  0.0147 -0.1527 -1.5795
   99SAPS  C218 9949   0.906   3.990   7.965  0.7086 -0.0656 -0.1564
   99SAPS  H18R 9950   0.983   3.963   7.890 -1.1359 -0.5071 -1.9918
   99SAPS  H18S 9951   0.840   3.902   7.985  2.3725 -1.3070  0.0592
   99SAPS  C219 9952   0.988   4.016   8.093  0.4596 -0.0990 -0.5017
   99SAPS  H19R 9953   0.917   4.044   8.173 -0.3408 -1.1317 -0.8357
   99SAPS  H19S 9954   1.060   4.096   8.067  1.7532 -1.6953 -2.0888
   99SAPS  C220 9955   1.069   3.893   8.136  0.4551 -0.6700 -0.1958
   99SAPS  H20R 9956   1.124   3.852   8.049  0.3974  0.4486 -0.7750
   99SAPS  H20S 9957   1.003   3.817   8.183  1.3539 -0.4263  1.5754
   99SAPS  H20T 9958   1.139   3.919   8.219 -0.6603  2.8495 -0.1828
   99SAPS   C33 9959   0.215   3.281   6.764 -0.1806  0.3920 -0.8933
   99SAPS   H3X 9960   0.192   3.183   6.812  1.9176  1.8177  3.5188
   99SAPS   H3Y 9961   0.137   3.360   6.756  1.5906  2.1804 -1.2603
   99SAPS   C34 9962   0.339   3.336   6.842  0.6561  0.3589 -0.2079
   99SAPS   H4X 9963   0.373   3.431   6.795 -1.3568  1.2899  0.1239
   99SAPS   H4Y 9964   0.418   3.258   6.842  1.8759  1.5452 -0.8975
   99SAPS   C35 9965   0.306   3.369   6.988  0.4351  0.0550  0.4107
   99SAPS   H5X 9966   0.253   3.467   6.988  0.4971  0.1584 -2.1386
   99SAPS   H5Y 9967   0.404   3.380   7.039  1.8707  0.8839 -2.3237
   99SAPS   C36 9968   0.209   3.260   7.057  0.2019 -0.2613 -0.4235
   99SAPS   H6X 9969   0.260   3.165   7.033  0.2112 -0.1145 -0.9924
   99SAPS   H6Y 9970   0.113   3.261   7.002 -0.3531  1.1931  0.4978
   99SAPS   C37 9971   0.184   3.286   7.204 -0.2748  0.3543  0.5811
   99SAPS   H7X 9972   0.144   3.390   7.212  1.8826  1.3156 -0.3674
   99SAPS   H7Y 9973   0.281   3.296   7.258 -1.0813  0.5079  2.0686
   99SAPS   C38 9974   0.092   3.189   7.282 -0.1739  0.4703 -0.6043
   99SAPS   H8X 9975   0.133   3.086   7.275 -0.1021  0.3680  1.0718
   99SAPS   H8Y 9976  -0.012   3.169   7.248  0.0078 -1.5185 -0.1342
   99SAPS   C39 9977   0.087   3.217   7.427  0.0873 -0.6509  1.0251
   99SAPS   H9X 9978   0.069   3.325   7.447 -2.6571 -1.0863  1.3810
   99SAPS   H9Y 9979   0.189   3.196   7.466  0.9855  0.8255 -0.3973
   99SAPS  C310 9980  -0.005   3.118   7.490 -0.1111  0.1844 -0.4790
   99SAPS  H10X 9981  -0.012   3.017   7.443 -1.8041 -0.2281  0.5755
   99SAPS  H10Y 9982  -0.110   3.150   7.477 -1.2842 -2.5614  1.3046
   99SAPS  C311 9983   0.027   3.089   7.633  0.6526  0.4946  0.1885
   99SAPS  H11X 9984  -0.053   3.053   7.701  1.7415  0.0193  1.2487
   99SAPS  H11Y 9985   0.076   3.175   7.684  1.4078  0.4725 -0.4851
   99SAPS  C312 9986   0.129   2.967   7.633  0.6102 -1.0579  0.1994
   99SAPS  H12X 9987   0.228   3.015   7.617 -0.4648  1.2544  0.0546
   99SAPS  H12Y 9988   0.110   2.897   7.549  3.0876  0.2724 -1.6108
   99SAPS  C313 9989   0.120   2.897   7.771 -0.0285  0.6001  0.6562
   99SAPS  H13X 9990   0.015   2.861   7.782  0.2724 -0.5305 -0.0298
   99SAPS  H13Y 9991   0.143   2.976   7.845  1.7346  0.0330  0.7524
   99SAPS  C314 9992   0.222   2.794   7.779  0.0638  0.1382  0.1584
   99SAPS  H14X 9993   0.323   2.831   7.749 -0.5918  2.1660  0.3215
   99SAPS  H14Y 9994   0.197   2.717   7.702 -0.7667  3.2529 -2.9221
   99SAPS  C315 9995   0.234   2.720   7.919  0.5466 -0.6225  1.3040
   99SAPS  H15X 9996   0.295   2.629   7.902  1.5473  0.5573 -2.1218
   99SAPS  H15Y 9997   0.129   2.688   7.942  0.1213 -1.2738 -1.2687
   99SAPS  C316 9998   0.283   2.822   8.026 -0.6091  0.4798 -0.0336
   99SAPS  H16X 9999   0.230   2.920   8.029  0.4009  1.0245  2.1363
   99SAPS  H16Y10000   0.387   2.854   8.002 -0.2698  0.9959  1.9138
   99SAPS  C31710001   0.296   2.772   8.170  0.0353 -0.3903 -0.2742
   99SAPS  H17X10002   0.203   2.726   8.208  0.7872 -1.7377 -0.0035
   99SAPS  H17Y10003   0.318   2.866   8.225 -0.0562  0.4910 -1.6748
   99SAPS  C31810004   0.390   2.656   8.196 -0.1895  0.1932 -0.2914
   99SAPS  H18X10005   0.489   2.666   8.146  1.6065 -0.3300  2.8695
   99SAPS  H18Y10006   0.341   2.560   8.167  0.3983 -0.2397  0.1134
   99SAPS  H18Z10007   0.421   2.655   8.303  1.7168  1.7263 -0.7781
  100SAPS     N10008   3.973   5.648   6.190 -0.3664  0.1285 -0.2929
  100SAPS   HN110009   4.003   5.549   6.179 -0.8081 -0.0089 -0.2759
  100SAPS   HN210010   4.053   5.710   6.168 -0.1738  0.1218  0.3707
  100SAPS   HN310011   3.949   5.660   6.291  0.1199 -0.2465 -0.1294
  100SAPS   C1210012   3.851   5.670   6.112 -1.2556  0.3155  0.3624
  100SAPS  H12A10013   3.896   5.689   6.016  2.8970 -0.3464  1.9645
  100SAPS   C1310014   3.770   5.538   6.102 -0.6241  0.6516  0.2281
  100SAPS  O13A10015   3.804   5.432   6.160 -0.2097  0.0438  0.2795
  100SAPS  O13B10016   3.673   5.550   6.023 -0.0855 -0.1605 -0.0871
  100SAPS   C1110017   3.766   5.787   6.162 -0.2046 -0.0437 -0.2940
  100SAPS  H11A10018   3.714   5.752   6.254  0.4147  1.3677  0.6216
  100SAPS  H11B10019   3.697   5.823   6.083  2.7188  1.7097 -2.2507
  100SAPS     P10020   3.792   6.011   6.301  0.6955  0.2056  0.1000
  100SAPS   O1310021   3.910   6.095   6.328 -0.1082 -0.7836  0.1845
  100SAPS   O1410022   3.669   6.082   6.255  0.5400  0.8162 -0.4519
  100SAPS   O1210023   3.840   5.903   6.196 -0.5931  0.4115  0.1105
  100SAPS   O1110024   3.765   5.907   6.422  0.2203  0.0565  0.3649
  100SAPS    C110025   3.643   5.909   6.498 -0.1320 -0.0523  0.0262
  100SAPS    HA10026   3.560   5.962   6.447 -0.7330 -2.6825 -1.9560
  100SAPS    HB10027   3.600   5.808   6.511 -1.3094  0.3058 -0.8617
  100SAPS    C210028   3.666   5.984   6.632  0.9637 -0.5029  0.0615
  100SAPS    HS10029   3.575   5.964   6.693  0.0525  1.9302 -0.3855
  100SAPS   O2110030   3.673   6.133   6.618 -0.2005 -0.1275 -0.1174
  100SAPS   C2110031   3.555   6.191   6.612  0.1152  0.1802 -0.3989
  100SAPS   O2210032   3.448   6.135   6.627  0.0660  0.0920  0.5668
  100SAPS   C2210033   3.568   6.342   6.612 -0.2869  0.3411  0.4435
  100SAPS   H2R10034   3.653   6.373   6.548 -1.2821 -0.1313 -1.1726
  100SAPS   H2S10035   3.471   6.375   6.570 -1.0095 -1.8820  0.2608
  100SAPS    C310036   3.797   5.936   6.701 -0.2388 -0.4804 -0.1656
  100SAPS    HX10037   3.815   5.998   6.792  0.7887 -1.4644  0.3205
  100SAPS    HY10038   3.875   5.956   6.625 -1.6807  0.9292 -1.3585
  100SAPS   O3110039   3.801   5.798   6.739  0.4114 -0.4820  0.2992
  100SAPS   C3110040   3.746   5.761   6.859  0.0661  0.1590  0.6526
  100SAPS   O3210041   3.689   5.834   6.933 -0.2980  0.1684 -0.4486
  100SAPS   C3210042   3.770   5.607   6.870 -0.1021  0.3160 -0.3661
  100SAPS   H2X10043   3.836   5.574   6.787  0.5050  0.4296  0.0592
  100SAPS   H2Y10044   3.673   5.556   6.855  0.5812 -0.8453 -0.9060
  100SAPS   C2310045   3.581   6.397   6.760 -0.1532  0.1915  0.2780
  100SAPS   H3R10046   3.599   6.506   6.753  1.0246  0.0509  0.7569
  100SAPS   H3S10047   3.675   6.354   6.801  0.5723  1.2054 -0.2662
  100SAPS   C2410048   3.457   6.383   6.852 -0.0022 -0.1896  0.1868
  100SAPS   H4R10049   3.396   6.293   6.828  0.4188 -0.5807  0.5690
  100SAPS   H4S10050   3.410   6.478   6.819  0.0423 -0.5166 -0.8578
  100SAPS   C2510051   3.492   6.403   6.995 -0.3476 -0.0310  0.1637
  100SAPS   H5R10052   3.555   6.491   7.013 -0.8148  1.1572 -3.3188
  100SAPS   C2610053   3.471   6.313   7.092 -0.0061 -0.1898 -0.6138
  100SAPS   H6R10054   3.521   6.328   7.189 -0.0489  1.0501 -0.7713
  100SAPS   C2710055   3.405   6.176   7.083  0.2036 -0.4379  0.2549
  100SAPS   H7R10056   3.344   6.155   6.992  1.6421  0.4596 -0.9619
  100SAPS   H7S10057   3.333   6.163   7.166  1.1644 -0.2771  1.1364
  100SAPS   C2810058   3.508   6.069   7.107  0.1505  0.4931 -0.0036
  100SAPS   H8R10059   3.559   6.032   7.018  1.1447  3.5499 -0.8209
  100SAPS   C2910060   3.548   6.011   7.226  0.9318  0.3555 -0.0963
  100SAPS   H9R10061   3.635   5.944   7.227  1.9423  1.6162  1.0698
  100SAPS  C21010062   3.487   6.036   7.364 -0.8563 -1.0536 -0.0626
  100SAPS  H10R10063   3.478   5.943   7.424  1.2326 -1.5516 -0.4507
  100SAPS  H10S10064   3.383   6.073   7.357 -0.1748  0.6920 -1.8139
  100SAPS  C21110065   3.561   6.150   7.424 -0.3935  0.4131  0.8412
  100SAPS  H11R10066   3.590   6.233   7.357 -0.5987 -0.7925 -0.8079
  100SAPS  C21210067   3.609   6.154   7.551  0.0185  0.5233 -0.3005
  100SAPS  H12R10068   3.656   6.244   7.593  2.2954 -0.9439  0.4454
  100SAPS  C21310069   3.589   6.038   7.657 -0.1501 -0.7721  0.1303
  100SAPS  H13R10070   3.489   5.993   7.644 -2.0155  2.8635  0.4926
  100SAPS  H13S10071   3.586   6.080   7.760  3.0801 -0.6726  0.2949
  100SAPS  C21410072   3.678   5.915   7.635 -0.0646 -0.4069 -0.3795
  100SAPS  H14R10073   3.707   5.896   7.530 -0.9889 -1.7917 -0.4021
  100SAPS  C21510074   3.736   5.835   7.726 -0.1117 -0.3489 -0.3110
  100SAPS  H15R10075   3.802   5.755   7.689  1.6003  0.8888 -0.0510
  100SAPS  C21610076   3.739   5.847   7.876 -0.9707  0.2434 -0.4762
  100SAPS  H16R10077   3.696   5.938   7.923 -2.2769 -1.4950  1.9427
  100SAPS  H16S10078   3.841   5.823   7.914 -2.0077 -2.7937  0.7907
  100SAPS  C21710079   3.665   5.729   7.949  0.0567 -0.3379  0.1026
  100SAPS  H17R10080   3.708   5.632   7.917  0.3727 -0.1080 -0.1694
  100SAPS  H17S10081   3.561   5.730   7.910  0.4424  1.6393 -1.0077
  100SAPS  C21810082   3.664   5.745   8.099  0.0496  0.2590  0.4365
  100SAPS  H18R10083   3.617   5.843   8.123 -0.9027  0.4209 -1.8126
  100SAPS  H18S10084   3.762   5.752   8.151 -0.3286  2.9348  0.9657
  100SAPS  C21910085   3.577   5.641   8.170  0.0893  0.1022 -0.1458
  100SAPS  H19R10086   3.614   5.542   8.135  2.3279  0.2927  1.4774
  100SAPS  H19S10087   3.469   5.636   8.142 -0.5120 -0.0538  1.9801
  100SAPS  C22010088   3.584   5.659   8.328 -0.1088  0.3857 -0.5395
  100SAPS  H20R10089   3.688   5.660   8.366 -0.0190 -1.8107 -0.6020
  100SAPS  H20S10090   3.527   5.567   8.356 -0.9569  1.4561  1.4832
  100SAPS  H20T10091   3.532   5.750   8.363  0.1578  0.2040  0.3553
  100SAPS   C3310092   3.831   5.574   7.005  0.1001 -0.1557 -0.1732
  100SAPS   H3X10093   3.762   5.603   7.087  0.7400 -0.9720  0.6771
  100SAPS   H3Y10094   3.923   5.634   7.022 -1.2157  2.0093 -0.3406
  100SAPS   C3410095   3.873   5.429   7.025 -0.7391  0.0713 -0.3209
  100SAPS   H4X10096   3.938   5.400   6.940  0.9589  1.4113  0.4857
  100SAPS   H4Y10097   3.777   5.373   7.020 -1.6813  1.7445 -2.3695
  100SAPS   C3510098   3.925   5.394   7.163  0.5447 -0.3028 -0.3096
  100SAPS   H5X10099   3.909   5.285   7.175 -2.4050  0.0160 -0.5332
  100SAPS   H5Y10100   3.863   5.451   7.236  1.0803  0.3130 -0.3337
  100SAPS   C3610101   4.074   5.409   7.175  0.3416 -0.6103  0.0570
  100SAPS   H6X10102   4.100   5.517   7.186 -0.2042 -0.4873  0.1787
  100SAPS   H6Y10103   4.123   5.367   7.085 -0.2902 -0.6133 -0.2853
  100SAPS   C3710104   4.130   5.352   7.312  0.2753  0.9115  0.1801
  100SAPS   H7X10105   4.115   5.243   7.322  2.6134  0.5242  0.0326
  100SAPS   H7Y10106   4.065   5.401   7.388  0.2660 -1.3544  1.7103
  100SAPS   C3810107   4.269   5.401   7.342  0.5415  0.2232 -0.1187
  100SAPS   H8X10108   4.273   5.512   7.338 -0.9239  0.3438  1.0600
  100SAPS   H8Y10109   4.331   5.351   7.265 -0.6434 -0.8899 -0.3834
  100SAPS   C3910110   4.315   5.381   7.482  0.3302 -0.4544 -0.6357
  100SAPS   H9X10111   4.332   5.275   7.510 -1.1908 -0.2752  1.1733
  100SAPS   H9Y10112   4.242   5.415   7.559  2.3399  0.2722  1.0318
  100SAPS  C31010113   4.449   5.444   7.516 -0.8248 -0.0309  0.1101
  100SAPS  H10X10114   4.438   5.553   7.530  0.3497 -0.0959  1.8026
  100SAPS  H10Y10115   4.520   5.423   7.433 -0.0216  1.6809  0.3172
  100SAPS  C31110116   4.515   5.385   7.642 -0.4047  0.2018  0.1718
  100SAPS  H11X10117   4.536   5.276   7.639  0.2990  0.2643  1.9227
  100SAPS  H11Y10118   4.449   5.402   7.730  0.3003  1.8761  0.4070
  100SAPS  C31210119   4.648   5.451   7.675 -0.2193 -0.3178 -0.2674
  100SAPS  H12X10120   4.648   5.559   7.650 -1.5805  0.1152  1.4755
  100SAPS  H12Y10121   4.728   5.419   7.605  0.0868  2.0030 -1.0561
  100SAPS  C31310122   4.686   5.434   7.822 -0.5590 -0.0721  0.4395
  100SAPS  H13X10123   4.605   5.479   7.883  0.3663 -1.6627  3.0293
  100SAPS  H13Y10124   4.778   5.491   7.846  0.5518 -0.4893 -2.3859
  100SAPS  C31410125   4.695   5.290   7.872  0.1175  0.6549  0.2056
  100SAPS  H14X10126   4.777   5.247   7.810  1.4409  0.1258  2.2363
  100SAPS  H14Y10127   4.603   5.234   7.846  0.7151  0.1519 -0.9208
  100SAPS  C31510128   4.736   5.273   8.027  0.2444 -0.6709 -0.3317
  100SAPS  H15X10129   4.672   5.338   8.091 -0.1212  1.2777 -2.5282
  100SAPS  H15Y10130   4.838   5.316   8.035  0.4802 -1.5636  2.6673
  100SAPS  C31610131   4.731   5.131   8.078 -0.1835 -1.1867  0.4006
  100SAPS  H16X10132   4.626   5.097   8.077 -0.5058 -0.2223 -0.4318
  100SAPS  H16Y10133   4.755   5.123   8.186 -2.5047 -0.3451  1.0408
  100SAPS  C31710134   4.826   5.039   8.017 -0.4820  0.1462  0.0681
  100SAPS  H17X10135   4.930   5.076   8.023  0.4910 -2.5502  1.9748
  100SAPS  H17Y10136   4.796   5.034   7.910 -3.1580 -1.9508  0.7916
  100SAPS  C31810137   4.824   4.888   8.065  0.1614 -0.2298  0.2916
  100SAPS  H18X10138   4.843   4.875   8.174  0.2530 -0.0711  0.2957
  100SAPS  H18Y10139   4.897   4.820   8.017  0.3919 -0.9889  1.6439
  100SAPS  H18Z10140   4.722   4.846   8.051 -0.4273  1.0856  0.5011
  101OSM      N10141   1.781   0.351  10.975 -0.4078 -0.0292 -0.1165
  101OSM    C1510142   1.793   0.400  11.115  0.8324 -1.0196 -0.2418
  101OSM   H15A10143   1.880   0.364  11.168  2.2476  0.5699 -1.4131
  101OSM   H15B10144   1.703   0.381  11.173  0.8135 -2.0051 -0.5738
  101OSM   H15C10145   1.805   0.507  11.108  0.9743 -1.0734 -0.7856
  101OSM    C1410146   1.760   0.204  10.970  1.2993  0.4016 -0.1439
  101OSM   H14A10147   1.846   0.140  10.985  0.5997 -0.1631  1.7198
  101OSM   H14B10148   1.713   0.175  10.878 -1.8588 -2.3965  2.1296
  101OSM   H14C10149   1.696   0.175  11.052 -0.3919 -1.7786 -2.1501
  101OSM    C1310150   1.650   0.409  10.924 -0.3898 -0.3826  1.3423
  101OSM   H13A10151   1.571   0.391  10.994 -0.4134 -1.3613  1.0874
  101OSM   H13B10152   1.630   0.358  10.831  1.4079 -0.7305  1.1063
  101OSM   H13C10153   1.655   0.516  10.916  2.0006 -0.5480 -1.0350
  101OSM    C1210154   1.902   0.390  10.898  0.5204  0.1431 -0.1541
  101OSM   H12A10155   1.985   0.325  10.921 -0.5047 -0.4675  2.1489
  101OSM   H12B10156   1.931   0.487  10.936  0.3689  0.4630 -0.8252
  101OSM    C1110157   1.885   0.408  10.745  0.6434 -0.6428 -0.2333
  101OSM   H11A10158   1.979   0.444  10.699  0.4682  2.1905  1.3997
  101OSM   H11B10159   1.810   0.487  10.723 -0.2243 -1.1664  0.7527
  101OSM      P10160   1.905   0.190  10.610 -0.2744  0.1453  0.0614
  101OSM    O1310161   2.031   0.170  10.682  0.1824  0.2785 -0.4494
  101OSM    O1410162   1.811   0.069  10.594  0.0373 -0.4683 -0.2068
  101OSM    O1110163   1.933   0.259  10.471  0.1891 -0.1712 -0.6833
  101OSM    O1210164   1.820   0.299  10.682 -0.2338  0.0627 -0.5670
  101OSM    C1S10165   1.820   0.346  10.424  0.0530  0.3309 -0.0771
  101OSM    H1S10166   1.829   0.450  10.463  1.2126  1.5198 -3.1409
  101OSM    H1T10167   1.720   0.301  10.442  0.5921 -0.7673  0.2349
  101OSM     NF10168   1.762   0.493  10.235  0.1305  0.1669 -0.5368
  101OSM    HNF10169   1.668   0.492  10.203 -0.4622 -0.6324  1.0802
  101OSM    C2S10170   1.826   0.367  10.273 -0.0329 -0.6279  0.4664
  101OSM    H2S10171   1.932   0.378  10.241  0.5973  0.3716  2.7181
  101OSM    C3S10172   1.771   0.240  10.194  0.0296 -0.3952  0.1017
  101OSM    H3S10173   1.663   0.231  10.217  0.1518  0.9073  1.3306
  101OSM     O310174   1.829   0.113  10.218  0.3544 -0.1035  0.7178
  101OSM    HO310175   1.908   0.145  10.263  0.8209  1.2573 -0.9364
  101OSM    C4S10176   1.785   0.269  10.052 -0.5637  0.4841  0.9484
  101OSM    H4S10177   1.888   0.278  10.015 -0.1191  3.3884  2.6012
  101OSM    C5S10178   1.685   0.287   9.964 -0.0701 -0.0640 -0.7897
  101OSM    H5S10179   1.584   0.286  10.007 -1.0936 -1.7085 -3.0621
  101OSM    C6S10180   1.696   0.320   9.816 -0.4024 -0.1793  0.4432
  101OSM    H6S10181   1.649   0.416   9.787 -0.8520 -1.1730 -2.5136
  101OSM    H6T10182   1.652   0.238   9.755 -2.7252  0.5415  1.0365
  101OSM    C7S10183   1.841   0.338   9.765 -1.2536 -0.7146 -0.0859
  101OSM    H7S10184   1.892   0.239   9.772 -1.3515 -0.7877 -0.3653
  101OSM    H7T10185   1.897   0.411   9.826  0.2007 -2.7405  1.1385
  101OSM    C8S10186   1.860   0.371   9.621  0.8210 -0.6019 -0.1491
  101OSM    H8S10187   1.966   0.393   9.597  1.1431 -2.2129 -0.3705
  101OSM    H8T10188   1.806   0.465   9.598 -0.5031 -0.8705  1.6436
  101OSM    C9S10189   1.812   0.262   9.519 -0.1459  0.1043 -0.4562
  101OSM    H9S10190   1.707   0.233   9.542  0.3507 -0.2786  1.5776
  101OSM    H9T10191   1.883   0.176   9.522 -0.4658 -0.1535 -0.2120
  101OSM   C10S10192   1.797   0.306   9.371  0.4951 -0.1003 -0.3335
  101OSM   H10S10193   1.897   0.337   9.336 -0.0681  0.4194 -1.5376
  101OSM   H10T10194   1.734   0.398   9.366  0.9158  0.1502 -1.0808
  101OSM   C11S10195   1.728   0.211   9.269 -0.0080  0.2726 -0.2460
  101OSM   H11S10196   1.634   0.202   9.327  0.0511 -0.9656 -0.3184
  101OSM   H11T10197   1.793   0.121   9.263 -0.0997  0.2667 -1.3663
  101OSM   C12S10198   1.698   0.277   9.134  0.2346  0.4834  0.9308
  101OSM   H12S10199   1.790   0.332   9.105 -0.5792  1.0947 -0.5841
  101OSM   H12T10200   1.626   0.361   9.136 -0.9424 -0.4335 -0.4883
  101OSM   C13S10201   1.649   0.182   9.026 -0.1082 -0.5968 -0.0442
  101OSM   H13S10202   1.560   0.131   9.070 -1.1939  1.1894 -0.0552
  101OSM   H13T10203   1.738   0.116   9.023  2.2499  2.1869  1.7908
  101OSM   C14S10204   1.630   0.257   8.890 -0.0461  0.7153 -0.3609
  101OSM   H14S10205   1.544   0.327   8.890 -0.7322 -0.0875  1.2201
  101OSM   H14T10206   1.615   0.183   8.809 -1.0665  1.8486 -1.2403
  101OSM   C15S10207   1.754   0.343   8.855  0.0371 -0.3555 -0.2839
  101OSM   H15S10208   1.848   0.285   8.867  0.1407 -0.6004 -1.9844
  101OSM   H15T10209   1.755   0.437   8.913  1.7810 -0.1491 -0.5761
  101OSM   C16S10210   1.755   0.367   8.708  1.2226 -0.9828  0.5520
  101OSM   H16S10211   1.723   0.469   8.678  0.7711 -1.1946  0.2946
  101OSM   H16T10212   1.690   0.291   8.660  0.5076 -0.9580  1.4471
  101OSM   C17S10213   1.893   0.355   8.643 -0.6405  0.3997  0.3962
  101OSM   H17S10214   1.895   0.403   8.543  2.0679  0.2691  0.3287
  101OSM   H17T10215   1.908   0.246   8.630 -1.2537  0.5368 -2.0356
  101OSM   C18S10216   2.004   0.431   8.713 -0.1596  0.1628  0.3733
  101OSM   H18S10217   2.025   0.378   8.808 -1.6072 -1.1513  0.0107
  101OSM   H18T10218   1.967   0.535   8.725  1.4956  1.2410 -2.7373
  101OSM   H18U10219   2.101   0.423   8.659 -0.9508 -0.0354 -1.0952
  101OSM    C1F10220   1.819   0.612  10.271 -0.1441 -0.9477  0.7864
  101OSM     OF10221   1.922   0.626  10.334 -0.3746 -0.1207 -0.0582
  101OSM    C2F10222   1.743   0.734  10.225  0.4256 -0.2707 -0.4010
  101OSM    H2F10223   1.704   0.783  10.317  0.0696  1.1101 -1.2626
  101OSM    H2G10224   1.657   0.717  10.157 -0.9432  0.3224  1.1232
  101OSM    C3F10225   1.834   0.841  10.165 -0.3212 -0.3678 -0.3711
  101OSM    H3F10226   1.935   0.840  10.210 -0.1503 -1.9469 -0.7160
  101OSM    H3G10227   1.773   0.930  10.190  0.7844  0.3850 -0.2863
  101OSM    C4F10228   1.852   0.837  10.008 -0.0497 -0.2306  0.2043
  101OSM    H4F10229   1.910   0.923   9.969 -0.2258 -0.6742 -1.0944
  101OSM    H4G10230   1.751   0.838   9.961  0.5263  1.5544 -1.1079
  101OSM    C5F10231   1.911   0.709   9.950  0.2823 -0.1318 -0.5609
  101OSM    H5F10232   1.866   0.619   9.998  0.5233 -0.4023 -0.8457
  101OSM    H5G10233   2.019   0.714   9.976  0.3389  1.9731 -1.0303
  101OSM    C6F10234   1.892   0.696   9.797  0.1290  0.3838  0.4879
  101OSM    H6F10235   1.784   0.672   9.795 -0.6203  3.2252  1.7465
  101OSM    H6G10236   1.942   0.602   9.766 -0.9859 -0.0073 -0.1718
  101OSM    C7F10237   1.921   0.814   9.711  0.2838  0.5771  0.0962
  101OSM    H7F10238   2.013   0.863   9.752  0.7998 -0.5655  0.3386
  101OSM    H7G10239   1.843   0.891   9.728 -0.5567 -0.2415 -0.0348
  101OSM    C8F10240   1.929   0.774   9.567 -0.0823  0.3226 -0.2147
  101OSM    H8F10241   1.852   0.695   9.555  0.3801 -1.1404  4.4324
  101OSM    H8G10242   2.028   0.728   9.545  0.1853  2.0245 -2.9708
  101OSM    C9F10243   1.916   0.890   9.482  0.4084 -0.0411  0.0751
  101OSM    H9F10244   1.838   0.956   9.524  0.5079 -0.0040  0.2027
  101OSM   C10F10245   1.985   0.919   9.367 -0.2660  0.3520  0.6710
  101OSM   H10F10246   1.965   1.006   9.302 -2.7313 -0.1081  0.7241
  101OSM   C11F10247   2.078   0.832   9.286 -0.4405 -0.0182 -0.2966
  101OSM   H11F10248   2.145   0.785   9.361  0.1124  0.2488 -0.6217
  101OSM   H11G10249   2.140   0.899   9.223 -0.3931  0.6797  0.4657
  101OSM   C12F10250   2.011   0.714   9.212 -0.0718  0.8743 -0.3315
  101OSM   H12F10251   1.929   0.748   9.145 -0.0160 -1.5267 -1.7029
  101OSM   H12G10252   1.955   0.655   9.288  1.0299  1.9179  1.3706
  101OSM   C13F10253   2.102   0.631   9.122  0.0354  0.4072  0.4167
  101OSM   H13F10254   2.057   0.547   9.065  0.4891  0.7941 -0.5413
  101OSM   H13G10255   2.175   0.586   9.192 -1.0334 -0.4753  0.9927
  101OSM   C14F10256   2.163   0.718   9.003 -0.4802 -0.1686 -0.1966
  101OSM   H14F10257   2.219   0.805   9.041 -1.9201  0.5539  0.3673
  101OSM   H14G10258   2.077   0.755   8.944 -1.9191 -3.7093 -0.6097
  101OSM   C15F10259   2.239   0.621   8.915  0.4900  0.0431  0.3343
  101OSM   H15F10260   2.159   0.561   8.866  1.4075 -0.8357 -0.1191
  101OSM   H15G10261   2.293   0.547   8.978 -0.5825 -1.4180 -0.3828
  101OSM   C16F10262   2.339   0.684   8.823 -0.0261 -0.3092 -0.1944
  101OSM   H16F10263   2.401   0.759   8.876  2.3689 -4.0386  2.7776
  101OSM   H16G10264   2.281   0.745   8.750 -0.1121 -0.0849  0.0601
  101OSM   C17F10265   2.425   0.580   8.743  0.4254  0.0765 -0.1195
  101OSM   H17F10266   2.358   0.510   8.689  1.6563 -0.0625 -1.5276
  101OSM   H17G10267   2.479   0.517   8.816  0.3949  0.3793  0.1671
  101OSM   C18F10268   2.511   0.653   8.639 -0.2351 -0.5458 -0.3695
  101OSM   H18F10269   2.589   0.589   8.593 -0.7407 -2.2464  0.9989
  101OSM   H18G10270   2.554   0.746   8.681  1.2666 -0.1338 -2.6935
  101OSM   H18H10271   2.446   0.683   8.554 -1.4888 -3.4681 -0.5725
  102OSM      N10272   2.211   0.778  10.614  0.1839 -0.2567  0.5484
  102OSM    C1510273   2.232   0.652  10.687 -0.2036 -0.4055 -0.0381
  102OSM   H15A10274   2.156   0.644  10.763  0.1008  1.6489  0.5243
  102OSM   H15B10275   2.329   0.650  10.735 -0.6067  1.2402  0.9118
  102OSM   H15C10276   2.235   0.568  10.618 -1.1704 -0.7116  0.2786
  102OSM    C1410277   2.226   0.900  10.696  0.2703  0.4207 -0.1852
  102OSM   H14A10278   2.203   0.974  10.621  0.1739  1.6325  1.0095
  102OSM   H14B10279   2.329   0.924  10.716  0.6602  0.5489 -2.1253
  102OSM   H14C10280   2.159   0.895  10.781  2.5866  0.4616  1.7408
  102OSM    C1310281   2.315   0.794  10.509 -0.1162 -0.2469 -0.0428
  102OSM   H13A10282   2.306   0.712  10.438  0.1267  1.2860 -1.9268
  102OSM   H13B10283   2.415   0.810  10.546  0.7058 -1.6143 -1.5576
  102OSM   H13C10284   2.298   0.883  10.451  2.8062 -0.4065 -1.2803
  102OSM    C1210285   2.069   0.778  10.555  0.0586 -0.0146 -0.4405
  102OSM   H12A10286   1.992   0.774  10.630 -0.8361  1.7502 -1.2091
  102OSM   H12B10287   2.062   0.688  10.496 -1.1203  0.8163 -1.6236
  102OSM    C1110288   2.031   0.899  10.466  0.8297 -0.3526  0.5908
  102OSM   H11A10289   1.928   0.878  10.430  1.5134 -2.4514 -0.2856
  102OSM   H11B10290   2.096   0.910  10.378  0.0770 -2.3575 -0.2840
  102OSM      P10291   1.901   1.068  10.620 -0.2398 -0.0464 -0.3302
  102OSM    O1310292   1.834   0.940  10.666 -0.2168 -0.1091  0.2466
  102OSM    O1410293   1.950   1.147  10.733 -0.3909 -0.3226 -0.7743
  102OSM    O1110294   1.808   1.152  10.524 -0.0846 -0.2972 -0.5368
  102OSM    O1210295   2.027   1.021  10.539 -1.0386  0.9044 -0.2476
  102OSM    C1S10296   1.844   1.177  10.391 -0.5502  0.5804 -0.2508
  102OSM    H1S10297   1.807   1.092  10.329  0.1777  0.4636 -0.5266
  102OSM    H1T10298   1.953   1.188  10.374 -0.2501  1.5544  1.9244
  102OSM     NF10299   1.801   1.311  10.189 -0.1304 -0.1779  0.3404
  102OSM    HNF10300   1.883   1.345  10.143  1.1948 -0.5489  2.3293
  102OSM    C2S10301   1.789   1.309  10.336  0.1173  0.0474  0.2236
  102OSM    H2S10302   1.681   1.305  10.364 -0.8042  1.0694 -2.7680
  102OSM    C3S10303   1.866   1.428  10.405 -0.8389  0.1650 -0.2071
  102OSM    H3S10304   1.968   1.408  10.365 -1.4332 -2.2756 -0.6710
  102OSM     O310305   1.876   1.425  10.547 -0.4455 -0.3044 -0.0012
  102OSM    HO310306   1.817   1.357  10.581  0.2975 -0.2911  1.3578
  102OSM    C4S10307   1.810   1.563  10.359 -0.4347 -0.1109  0.1405
  102OSM    H4S10308   1.708   1.587  10.393 -0.9552 -3.1825  1.1097
  102OSM    C5S10309   1.878   1.652  10.280 -0.7672 -0.5028  0.2639
  102OSM    H5S10310   1.981   1.634  10.248 -0.2549  0.3005  1.4086
  102OSM    C6S10311   1.825   1.781  10.226 -0.6339  0.3371  0.6746
  102OSM    H6S10312   1.903   1.861  10.225  1.8735 -1.8488 -2.7852
  102OSM    H6T10313   1.750   1.830  10.291  1.0500 -0.0111  2.9997
  102OSM    C7S10314   1.780   1.781  10.077 -0.2774  0.0241 -0.1648
  102OSM    H7S10315   1.726   1.873  10.046  3.4519  1.8835 -1.9170
  102OSM    H7T10316   1.719   1.692  10.052 -0.5794  0.3756 -0.7094
  102OSM    C8S10317   1.915   1.773   9.985  0.1559  0.3378  0.3846
  102OSM    H8S10318   1.966   1.674   9.993 -0.0141  0.2822  0.7992
  102OSM    H8T10319   2.000   1.837  10.015  2.1245 -0.1245 -3.4839
  102OSM    C9S10320   1.904   1.833   9.844  0.1769  0.7758  0.5935
  102OSM    H9S10321   1.879   1.941   9.842  2.5313  1.3645 -0.3464
  102OSM    H9T10322   1.822   1.786   9.785  1.6157 -0.4424 -0.5235
  102OSM   C10S10323   2.033   1.811   9.766  0.1859 -0.1016  0.3865
  102OSM   H10S10324   2.042   1.701   9.753  1.9235 -0.1979  1.9267
  102OSM   H10T10325   2.127   1.850   9.811 -0.3159  1.9612 -0.2578
  102OSM   C11S10326   2.031   1.870   9.622 -0.4240 -0.0138 -0.3877
  102OSM   H11S10327   2.134   1.890   9.586 -0.6480  0.9131 -0.5433
  102OSM   H11T10328   1.998   1.976   9.628  0.3058  0.2614 -1.0816
  102OSM   C12S10329   1.950   1.780   9.523  0.0550  0.0701  0.1338
  102OSM   H12S10330   1.842   1.779   9.550  0.5304 -1.1959  2.2286
  102OSM   H12T10331   1.997   1.680   9.531  2.4529  1.1528  0.5158
  102OSM   C13S10332   1.968   1.830   9.375 -0.0742  0.7441  0.2194
  102OSM   H13S10333   2.072   1.833   9.337 -0.4573  0.2210 -0.9213
  102OSM   H13T10334   1.942   1.938   9.373  1.4303  1.1731  1.5311
  102OSM   C14S10335   1.894   1.746   9.271 -0.3194  0.2899  0.6370
  102OSM   H14S10336   1.790   1.725   9.303 -0.3184 -0.6472  0.0503
  102OSM   H14T10337   1.954   1.653   9.277 -2.0121 -0.9985 -1.2373
  102OSM   C15S10338   1.895   1.810   9.126  0.1931 -0.2376  0.2451
  102OSM   H15S10339   1.998   1.822   9.084 -0.5048 -0.9027 -1.7913
  102OSM   H15T10340   1.844   1.908   9.128 -0.5134 -0.5750 -0.5663
  102OSM   C16S10341   1.815   1.712   9.031 -0.2004 -0.2885  0.4507
  102OSM   H16S10342   1.714   1.684   9.070 -1.3027  0.3890 -1.7699
  102OSM   H16T10343   1.892   1.632   9.032  1.8454  1.6115  1.2975
  102OSM   C17S10344   1.800   1.780   8.889 -0.5632 -0.3993  0.4545
  102OSM   H17S10345   1.737   1.868   8.915 -0.7289 -1.2290  3.1586
  102OSM   H17T10346   1.739   1.712   8.826 -4.5708  2.5897  0.7066
  102OSM   C18S10347   1.939   1.811   8.824  0.7088 -0.4009  0.0853
  102OSM   H18S10348   1.997   1.717   8.827  0.8570 -0.3170 -0.1208
  102OSM   H18T10349   1.982   1.897   8.879 -1.4843  1.1256 -0.4278
  102OSM   H18U10350   1.925   1.835   8.717 -0.0770  2.1789  0.6938
  102OSM    C1F10351   1.711   1.252  10.111  0.4922  0.3551  0.3063
  102OSM     OF10352   1.611   1.197  10.157 -0.2950  0.1252 -0.2129
  102OSM    C2F10353   1.737   1.247   9.962  0.6255 -0.0580  0.5619
  102OSM    H2F10354   1.651   1.191   9.920 -0.5714  1.9473  0.1880
  102OSM    H2G10355   1.832   1.192   9.944  0.8940  0.1793  1.2099
  102OSM    C3F10356   1.729   1.392   9.899 -0.1485 -0.4466  0.3495
  102OSM    H3F10357   1.822   1.442   9.932  1.3278 -2.5992 -0.2860
  102OSM    H3G10358   1.639   1.445   9.937 -0.5656  0.2182 -1.4681
  102OSM    C4F10359   1.733   1.401   9.743 -0.2203  0.1600  0.3402
  102OSM    H4F10360   1.837   1.379   9.709 -0.4886  0.3406 -0.6202
  102OSM    H4G10361   1.699   1.499   9.705  1.4710 -0.0577 -1.9061
  102OSM    C5F10362   1.652   1.294   9.673 -0.1232 -0.0950 -1.1992
  102OSM    H5F10363   1.547   1.309   9.707  1.0939  3.8899  1.4834
  102OSM    H5G10364   1.697   1.193   9.683 -2.1326 -1.0611 -1.3700
  102OSM    C6F10365   1.646   1.325   9.526  0.6903 -1.0487 -0.7836
  102OSM    H6F10366   1.631   1.435   9.531  0.6255 -1.0855 -0.1578
  102OSM    H6G10367   1.554   1.272   9.493  0.8487 -0.8705 -1.5373
  102OSM    C7F10368   1.763   1.294   9.437 -0.1694  0.6036  0.1881
  102OSM    H7F10369   1.780   1.184   9.433  1.6629  0.8153  0.9291
  102OSM    H7G10370   1.854   1.337   9.485  1.2464 -1.7970 -0.1393
  102OSM    C8F10371   1.749   1.347   9.297  0.7937  0.2173 -0.1409
  102OSM    H8F10372   1.735   1.456   9.308  3.0266  0.4764  0.6623
  102OSM    H8G10373   1.661   1.297   9.250  2.6617 -0.0378 -3.6794
  102OSM    C9F10374   1.870   1.323   9.214 -0.4453  0.2491  1.0564
  102OSM    H9F10375   1.969   1.317   9.263  1.0050 -1.7396 -1.7957
  102OSM   C10F10376   1.863   1.303   9.075  0.0406  0.0755  0.1659
  102OSM   H10F10377   1.960   1.300   9.024 -0.9645  0.1518 -1.8673
  102OSM   C11F10378   1.735   1.319   8.999  0.6001 -0.2425 -0.1533
  102OSM   H11F10379   1.655   1.384   9.042  0.8480 -0.1314  0.1412
  102OSM   H11G10380   1.679   1.223   8.986 -1.8781  0.9658  0.9325
  102OSM   C12F10381   1.761   1.368   8.853 -0.1024  0.2518 -0.4247
  102OSM   H12F10382   1.826   1.457   8.868  1.7034 -1.1059  0.0839
  102OSM   H12G10383   1.667   1.401   8.803  0.1448  1.2997 -0.2275
  102OSM   C13F10384   1.840   1.265   8.760 -1.1302 -0.2800 -0.2984
  102OSM   H13F10385   1.779   1.173   8.749 -0.0754 -0.9204 -0.9670
  102OSM   H13G10386   1.942   1.245   8.800 -1.8774 -0.6010  1.5126
  102OSM   C14F10387   1.856   1.327   8.619  0.8833  0.4271 -0.6078
  102OSM   H14F10388   1.874   1.436   8.634  0.0908  0.4969 -0.0674
  102OSM   H14G10389   1.758   1.311   8.568 -0.3577  0.0903  1.7240
  102OSM   C15F10390   1.978   1.269   8.539 -0.0218  0.5989  0.1866
  102OSM   H15F10391   1.935   1.205   8.459  0.1487 -0.5122  0.9623
  102OSM   H15G10392   2.032   1.192   8.598  0.6897  1.6610  0.9475
  102OSM   C16F10393   2.062   1.376   8.482  0.2568 -0.1176 -0.4608
  102OSM   H16F10394   2.113   1.432   8.564 -1.4067 -1.4151  1.5506
  102OSM   H16G10395   2.002   1.456   8.434 -0.5361  0.2524  1.0748
  102OSM   C17F10396   2.153   1.328   8.375  0.5561 -0.0185 -0.2207
  102OSM   H17F10397   2.098   1.241   8.335 -0.5054 -1.3949  3.7733
  102OSM   H17G10398   2.246   1.280   8.411  0.9205  0.0803 -1.0292
  102OSM   C18F10399   2.188   1.432   8.269 -0.0432 -0.3144  0.0688
  102OSM   H18F10400   2.105   1.505   8.253 -1.5988 -2.0338  0.0181
  102OSM   H18G10401   2.205   1.388   8.169 -1.7657 -0.6043 -0.1234
  102OSM   H18H10402   2.284   1.478   8.302  0.5019 -3.0122  2.7744
  103OSM      N10403   1.038   3.204  10.607  0.0941  0.0465 -0.6852
  103OSM    C1510404   0.907   3.147  10.662 -0.5887 -0.6631  0.0786
  103OSM   H15A10405   0.933   3.121  10.763  1.0186 -0.3664 -0.2433
  103OSM   H15B10406   0.881   3.050  10.623 -3.3834 -0.1993  0.5228
  103OSM   H15C10407   0.819   3.211  10.667  0.7936  1.2777  0.8492
  103OSM    C1410408   1.009   3.256  10.472  0.9415  0.1756 -0.3506
  103OSM   H14A10409   0.918   3.314  10.476 -0.1437 -1.4997  0.5802
  103OSM   H14B10410   1.004   3.179  10.396 -2.1258 -0.7015  0.5870
  103OSM   H14C10411   1.081   3.332  10.447 -0.0601  2.3718  2.8685
  103OSM    C1310412   1.082   3.315  10.692 -0.4645 -0.9531  0.1239
  103OSM   H13A10413   1.004   3.387  10.713  0.3727 -0.4519  1.6463
  103OSM   H13B10414   1.166   3.361  10.642  0.2046 -0.0107  2.0220
  103OSM   H13C10415   1.122   3.291  10.789  1.4389  1.1369 -0.0602
  103OSM    C1210416   1.145   3.096  10.601  0.0275 -0.0722  0.8065
  103OSM   H12A10417   1.239   3.130  10.561  0.4232 -1.8519  0.1208
  103OSM   H12B10418   1.119   3.021  10.528  1.3286  3.0464 -3.1847
  103OSM    C1110419   1.181   3.012  10.732 -0.0953  0.0477  0.6874
  103OSM   H11A10420   1.179   3.080  10.820  1.3872  1.8181 -0.5632
  103OSM   H11B10421   1.288   2.980  10.731  0.0728  0.6026  0.2269
  103OSM      P10422   1.095   2.777  10.668  0.0968 -0.3239 -0.1384
  103OSM    O1310423   1.229   2.716  10.707 -0.5750  0.2517  0.4371
  103OSM    O1410424   0.975   2.691  10.700 -0.2241  0.5113  0.6545
  103OSM    O1110425   1.092   2.839  10.520 -0.8712  0.2979 -1.1190
  103OSM    O1210426   1.092   2.907  10.757 -0.4012 -0.0502  0.1844
  103OSM    C1S10427   0.986   2.864  10.442  0.5046 -0.5546 -0.0433
  103OSM    H1S10428   0.943   2.964  10.464 -0.5602 -0.8814 -0.5454
  103OSM    H1T10429   0.903   2.791  10.458  0.3453 -0.3953 -0.1339
  103OSM     NF10430   0.895   2.877  10.215 -0.5013  0.2569 -0.5182
  103OSM    HNF10431   0.831   2.800  10.208 -1.0541  0.6036  0.4624
  103OSM    C2S10432   1.014   2.837  10.293 -0.1426 -0.8171 -0.1197
  103OSM    H2S10433   1.083   2.913  10.250 -1.5555 -0.1127 -1.2393
  103OSM    C3S10434   1.074   2.695  10.258  0.0303  0.2058 -0.5019
  103OSM    H3S10435   1.000   2.618  10.288  0.5766  0.0644  0.5294
  103OSM     O310436   1.186   2.656  10.324 -0.0106  0.0673  0.0338
  103OSM    HO310437   1.193   2.714  10.400 -1.3738 -0.3556  0.5138
  103OSM    C4S10438   1.083   2.686  10.113 -0.2215  0.4458  0.2047
  103OSM    H4S10439   0.986   2.670  10.063  1.3068  1.5228 -3.3799
  103OSM    C5S10440   1.176   2.728  10.030 -0.2599  0.4398  0.1725
  103OSM    H5S10441   1.267   2.782  10.061  0.5018 -1.4082  1.3503
  103OSM    C6S10442   1.162   2.701   9.879 -0.3502  0.7391  0.2783
  103OSM    H6S10443   1.206   2.790   9.831  1.9177 -0.2695  0.3646
  103OSM    H6T10444   1.056   2.674   9.858  0.6533 -2.8317 -0.9216
  103OSM    C7S10445   1.248   2.584   9.825 -0.4271  0.5473  0.1985
  103OSM    H7S10446   1.192   2.487   9.831  0.7342 -0.0860  1.3419
  103OSM    H7T10447   1.340   2.567   9.885 -1.4431 -0.8922  1.4419
  103OSM    C8S10448   1.288   2.607   9.678 -0.6076 -0.7170  0.6590
  103OSM    H8S10449   1.356   2.533   9.631 -0.0793 -2.0589  3.3501
  103OSM    H8T10450   1.336   2.706   9.665 -0.2307 -0.8764  0.8376
  103OSM    C9S10451   1.162   2.624   9.594  0.0936  0.3777  1.1423
  103OSM    H9S10452   1.106   2.719   9.602 -0.2816  0.3668 -0.8582
  103OSM    H9T10453   1.093   2.542   9.624 -1.5741  1.0676 -0.6258
  103OSM   C10S10454   1.190   2.613   9.444  0.5167 -0.1795  0.0412
  103OSM   H10S10455   1.099   2.628   9.382 -0.1019  0.1628  1.0136
  103OSM   H10T10456   1.239   2.519   9.413  4.1913  1.0465  1.6146
  103OSM   C11S10457   1.282   2.722   9.386 -0.4841  0.1341 -1.1252
  103OSM   H11S10458   1.333   2.771   9.471 -0.9457  1.2912 -1.4939
  103OSM   H11T10459   1.213   2.799   9.344  0.4893  1.8590  0.3324
  103OSM   C12S10460   1.386   2.667   9.281  0.8139  0.8796  0.4921
  103OSM   H12S10461   1.430   2.572   9.319 -0.2778 -0.3267 -1.1711
  103OSM   H12T10462   1.475   2.732   9.262 -0.0694  1.6615 -1.2246
  103OSM   C13S10463   1.325   2.624   9.140 -1.1913  0.6113 -0.6569
  103OSM   H13S10464   1.258   2.697   9.090  0.0472 -0.2246 -3.7873
  103OSM   H13T10465   1.262   2.535   9.162  0.5197 -0.3138  0.8193
  103OSM   C14S10466   1.432   2.574   9.046  0.0780  0.0981  0.0408
  103OSM   H14S10467   1.526   2.529   9.084  0.5259  0.1418 -0.9578
  103OSM   H14T10468   1.486   2.663   9.007 -0.1334 -0.1977 -0.9622
  103OSM   C15S10469   1.373   2.481   8.933 -0.7940 -0.5530 -0.5790
  103OSM   H15S10470   1.271   2.515   8.905 -0.5635 -1.1383 -2.2412
  103OSM   H15T10471   1.360   2.382   8.982 -0.2616 -0.1776  0.3568
  103OSM   C16S10472   1.451   2.481   8.806 -0.3574 -0.3154  0.0000
  103OSM   H16S10473   1.556   2.451   8.822 -0.1919 -0.6500 -1.5500
  103OSM   H16T10474   1.461   2.582   8.761  0.4388 -1.3620 -2.3574
  103OSM   C17S10475   1.386   2.386   8.706  0.1747 -0.0895 -0.4023
  103OSM   H17S10476   1.278   2.414   8.705 -0.3773 -2.0833 -1.7098
  103OSM   H17T10477   1.398   2.278   8.733 -1.5702 -0.3229 -0.4461
  103OSM   C18S10478   1.441   2.399   8.567 -0.8972  0.2205 -0.3437
  103OSM   H18S10479   1.551   2.390   8.579 -0.6349  2.6852 -0.2336
  103OSM   H18T10480   1.420   2.499   8.521 -0.6365  0.0928 -0.7435
  103OSM   H18U10481   1.409   2.318   8.498  1.2492 -0.9009 -0.1158
  103OSM    C1F10482   0.849   2.998  10.208  0.2771  0.1998 -0.0348
  103OSM     OF10483   0.910   3.086  10.262  0.5644 -0.6115  0.1277
  103OSM    C2F10484   0.717   3.013  10.134  0.0679  0.4663 -0.0753
  103OSM    H2F10485   0.651   3.089  10.181  0.3306  0.9906 -0.5367
  103OSM    H2G10486   0.659   2.919  10.131  1.0156 -0.1046 -1.7010
  103OSM    C3F10487   0.743   3.071   9.996  0.6629 -0.2082 -0.1983
  103OSM    H3F10488   0.786   3.173   9.999 -1.0525  0.5436  1.1099
  103OSM    H3G10489   0.641   3.094   9.957  1.2628  0.5366 -1.3624
  103OSM    C4F10490   0.820   2.981   9.899 -0.4353 -0.9057 -0.1864
  103OSM    H4F10491   0.774   2.880   9.905 -1.7867 -0.2264  2.0430
  103OSM    H4G10492   0.924   2.958   9.931 -0.6047 -1.4011  0.0219
  103OSM    C5F10493   0.828   3.040   9.757 -0.0844  0.7802  0.6083
  103OSM    H5F10494   0.893   3.130   9.767  1.6247 -0.4295  0.8365
  103OSM    H5G10495   0.726   3.075   9.732  0.0413  0.5541 -0.2556
  103OSM    C6F10496   0.874   2.935   9.652 -0.2441 -0.2337 -0.6268
  103OSM    H6F10497   0.802   2.850   9.647  0.8471 -1.1824 -0.7038
  103OSM    H6G10498   0.973   2.891   9.675 -0.1342 -0.8731 -2.1684
  103OSM    C7F10499   0.886   3.010   9.513  1.1596 -0.3995  0.2216
  103OSM    H7F10500   0.969   3.083   9.526  1.1193 -0.2383 -0.3916
  103OSM    H7G10501   0.795   3.072   9.500  1.6485  0.2772 -0.0237
  103OSM    C8F10502   0.912   2.914   9.396  0.0749  0.7281  0.2333
  103OSM    H8F10503   0.844   2.826   9.410  1.2150 -0.5370 -1.7216
  103OSM    H8G10504   1.014   2.870   9.397  0.0504  0.6261 -0.9119
  103OSM    C9F10505   0.864   2.992   9.271 -0.3369  1.0362  0.2037
  103OSM    H9F10506   0.863   3.102   9.275 -0.2282  1.0108  1.0616
  103OSM   C10F10507   0.825   2.930   9.157 -0.6963  0.7421  0.2552
  103OSM   H10F10508   0.791   2.990   9.071  0.9520 -0.2083 -1.1210
  103OSM   C11F10509   0.818   2.783   9.133 -1.0278 -0.0699  0.0393
  103OSM   H11F10510   0.711   2.754   9.130 -1.0315 -0.0838  0.2572
  103OSM   H11G10511   0.870   2.714   9.203 -0.6282 -1.1471 -1.2827
  103OSM   C12F10512   0.894   2.744   8.995  0.3658  1.1742  0.2579
  103OSM   H12F10513   1.005   2.756   9.001  0.4557  0.8368 -0.5259
  103OSM   H12G10514   0.842   2.809   8.922 -1.2560  1.2481  1.4211
  103OSM   C13F10515   0.868   2.594   8.950 -0.0749 -0.3306  0.1570
  103OSM   H13F10516   0.926   2.581   8.857  1.4985  2.6222  0.6018
  103OSM   H13G10517   0.918   2.522   9.020 -1.6516 -0.5131  1.1494
  103OSM   C14F10518   0.718   2.551   8.942 -0.2282 -0.4331  0.0981
  103OSM   H14F10519   0.658   2.637   8.907 -1.2312 -1.8468 -1.8282
  103OSM   H14G10520   0.680   2.529   9.044 -0.0212  1.6169  0.6565
  103OSM   C15F10521   0.689   2.426   8.849  0.0153  0.6450 -0.3469
  103OSM   H15F10522   0.582   2.395   8.857 -0.6033  3.1168  3.4482
  103OSM   H15G10523   0.742   2.336   8.885 -0.2331 -0.0666 -1.6793
  103OSM   C16F10524   0.738   2.450   8.710  0.3838  0.1482  0.0240
  103OSM   H16F10525   0.849   2.454   8.699  0.4447 -2.3784 -1.1239
  103OSM   H16G10526   0.694   2.549   8.688 -2.7698 -0.5461  2.4734
  103OSM   C17F10527   0.675   2.349   8.614  0.7747 -0.5457 -0.1096
  103OSM   H17F10528   0.567   2.366   8.632  0.9509  2.3532 -1.2482
  103OSM   H17G10529   0.710   2.249   8.646  0.7775  0.0865  2.0043
  103OSM   C18F10530   0.712   2.366   8.468  0.4407  0.0168 -0.1156
  103OSM   H18F10531   0.693   2.470   8.433 -1.5841  0.1909  1.3394
  103OSM   H18G10532   0.648   2.293   8.413  2.0997 -0.5189 -1.4195
  103OSM   H18H10533   0.818   2.337   8.448 -0.2470 -1.1233 -2.5711
  104OSM      N10534   5.290   1.975  11.007  0.1018 -0.3490 -0.0371
  104OSM    C1510535   5.159   1.928  11.057  0.2915 -0.2585 -0.3603
  104OSM   H15A10536   5.128   1.839  11.005 -0.6578 -0.6257  0.7998
  104OSM   H15B10537   5.083   2.003  11.040 -1.5149 -1.5622  1.4545
  104OSM   H15C10538   5.161   1.925  11.165 -0.5665 -0.4585 -0.3477
  104OSM    C1410539   5.319   2.104  11.074  0.0266 -0.5302  0.2962
  104OSM   H14A10540   5.262   2.183  11.026 -2.3377 -1.0568  2.0827
  104OSM   H14B10541   5.422   2.127  11.051 -0.1534 -0.9077 -0.9703
  104OSM   H14C10542   5.294   2.111  11.178  0.5055  2.5332  0.3063
  104OSM    C1310543   5.397   1.878  11.054  0.0039 -0.1410  0.1299
  104OSM   H13A10544   5.396   1.881  11.162 -0.1375 -1.5431  0.1843
  104OSM   H13B10545   5.500   1.896  11.030 -0.0261  1.6312  1.1017
  104OSM   H13C10546   5.370   1.774  11.043  0.4292 -0.5064  2.1398
  104OSM    C1210547   5.290   1.984  10.857  0.5093  0.1427 -0.8979
  104OSM   H12A10548   5.260   1.887  10.818  2.1496 -0.1382 -1.5523
  104OSM   H12B10549   5.386   2.018  10.820  0.4769 -0.5977 -1.6904
  104OSM    C1110550   5.184   2.079  10.790 -0.2305 -0.1537  0.4381
  104OSM   H11A10551   5.088   2.066  10.845  0.2481 -3.0702  0.7482
  104OSM   H11B10552   5.168   2.043  10.686 -0.8228  0.3727  0.3381
  104OSM      P10553   5.173   2.321  10.693 -0.1235 -0.2252 -0.0006
  104OSM    O1310554   5.046   2.367  10.756 -0.0058  0.3322  0.3211
  104OSM    O1410555   5.267   2.431  10.659  0.1178  0.1785  0.4734
  104OSM    O1110556   5.132   2.234  10.560  0.1072 -0.1488  0.4173
  104OSM    O1210557   5.239   2.210  10.784  0.4098  0.3627  0.1751
  104OSM    C1S10558   5.050   2.305  10.459 -0.1356  0.7677 -0.3836
  104OSM    H1S10559   5.070   2.413  10.445  0.4757  0.5240 -1.6249
  104OSM    H1T10560   4.943   2.304  10.490  0.0931 -0.8122  0.4569
  104OSM     NF10561   5.009   2.315  10.205  0.1414  0.2194 -0.9133
  104OSM    HNF10562   4.932   2.275  10.154  0.7607 -0.2011 -1.5357
  104OSM    C2S10563   5.067   2.233  10.322  0.6964 -0.1177  0.6219
  104OSM    H2S10564   5.176   2.220  10.301  0.0268 -1.0672 -2.8699
  104OSM    C3S10565   5.003   2.091  10.341 -0.1025  0.0050  0.7193
  104OSM    H3S10566   4.896   2.097  10.371 -0.3651 -1.0111  0.0232
  104OSM     O310567   5.051   2.012  10.445  1.0725 -0.1294 -0.4406
  104OSM    HO310568   5.084   2.080  10.504  0.7671 -0.7810  0.5080
  104OSM    C4S10569   4.999   2.011  10.208 -0.5323 -0.5025  0.0154
  104OSM    H4S10570   4.916   2.026  10.137 -0.3172  1.3147  0.0936
  104OSM    C5S10571   5.088   1.918  10.173  0.3300 -0.2491 -0.5580
  104OSM    H5S10572   5.168   1.882  10.240 -1.6209  2.6871  3.8532
  104OSM    C6S10573   5.078   1.855  10.036 -0.0311 -0.2225 -0.1173
  104OSM    H6S10574   5.181   1.814  10.027  1.3772  2.6107  1.5145
  104OSM    H6T10575   5.079   1.936   9.960 -1.9451  0.9083  0.9707
  104OSM    C7S10576   4.965   1.753  10.008  0.3808  0.2132  0.3913
  104OSM    H7S10577   4.866   1.800  10.021  0.7547  1.2283 -0.3020
  104OSM    H7T10578   4.987   1.682  10.090 -0.2470  0.7474  1.0330
  104OSM    C8S10579   4.985   1.694   9.869 -0.2657 -0.1215  0.0475
  104OSM    H8S10580   4.962   1.586   9.863  0.4221 -0.1985 -1.8821
  104OSM    H8T10581   5.093   1.706   9.847 -0.3344  2.6412  0.7842
  104OSM    C9S10582   4.889   1.772   9.769 -0.0670 -0.1358  0.0695
  104OSM    H9S10583   4.832   1.853   9.819 -0.0392 -1.0590  1.6616
  104OSM    H9T10584   4.805   1.705   9.744 -1.1689  0.7859  1.2233
  104OSM   C10S10585   4.955   1.805   9.636  0.1993 -0.2562  0.5906
  104OSM   H10S10586   4.877   1.860   9.579  1.7456  3.4162  1.7348
  104OSM   H10T10587   4.988   1.717   9.577  2.2955  0.6234  0.3407
  104OSM   C11S10588   5.067   1.902   9.643  0.0619  0.2944 -0.0683
  104OSM   H11S10589   5.138   1.879   9.726  0.7812 -0.3353 -0.8478
  104OSM   H11T10590   5.018   1.998   9.669  2.5829  1.5728  0.3677
  104OSM   C12S10591   5.137   1.932   9.512  0.2610  0.5137 -0.0193
  104OSM   H12S10592   5.185   1.839   9.475  1.3769  0.0931  2.3146
  104OSM   H12T10593   5.200   2.023   9.507 -1.3005  1.5983 -1.1995
  104OSM   C13S10594   5.037   1.968   9.395  0.1978  0.1588  0.3407
  104OSM   H13S10595   4.951   2.034   9.417  1.0153  1.2520  0.3475
  104OSM   H13T10596   4.972   1.880   9.373 -2.1454  2.0159 -0.5208
  104OSM   C14S10597   5.108   2.001   9.261 -0.1429  0.3106  1.2740
  104OSM   H14S10598   5.203   1.945   9.245  0.4711  1.2529  1.5204
  104OSM   H14T10599   5.133   2.108   9.243 -0.7408  0.2877  0.2262
  104OSM   C15S10600   5.026   1.947   9.144 -0.5811 -0.1616  1.2365
  104OSM   H15S10601   4.936   2.011   9.134  0.6344  1.3812 -0.9653
  104OSM   H15T10602   4.985   1.850   9.177 -0.1804 -0.1096  1.8959
  104OSM   C16S10603   5.091   1.950   9.006  0.6480 -0.0230  0.4858
  104OSM   H16S10604   5.197   1.921   9.015  0.5233 -0.4219  0.6875
  104OSM   H16T10605   5.106   2.055   8.973 -0.0066  0.5544  1.9449
  104OSM   C17S10606   5.015   1.871   8.900  0.0310  0.0649  0.8331
  104OSM   H17S10607   4.907   1.894   8.907 -0.5332 -1.9431 -0.5933
  104OSM   H17T10608   5.016   1.766   8.936  0.6590  0.1877  1.1951
  104OSM   C18S10609   5.057   1.884   8.748 -0.0260 -0.0318  0.1885
  104OSM   H18S10610   5.073   1.992   8.729  0.2033  0.2094  1.6259
  104OSM   H18T10611   4.983   1.838   8.680  1.6849 -0.9916 -1.1058
  104OSM   H18U10612   5.149   1.824   8.727 -0.7997 -1.9154  1.7910
  104OSM    C1F10613   5.063   2.431  10.171 -0.5753  0.3150  0.3410
  104OSM     OF10614   5.178   2.459  10.208 -0.3197  0.0659  0.4233
  104OSM    C2F10615   4.991   2.520  10.076 -0.3453  0.0699 -0.4465
  104OSM    H2F10616   4.884   2.527  10.107 -0.3551 -0.1870 -0.4209
  104OSM    H2G10617   5.003   2.492   9.970 -0.8291 -2.1181  0.0372
  104OSM    C3F10618   5.054   2.663  10.076  0.9306  0.0419  0.2364
  104OSM    H3F10619   5.165   2.661  10.075  0.9500 -1.2273  1.5187
  104OSM    H3G10620   5.008   2.716  10.162  0.8444 -0.7760  0.7115
  104OSM    C4F10621   5.027   2.737   9.946 -0.2713  0.2976  0.1363
  104OSM    H4F10622   4.923   2.714   9.914 -0.8338  0.7414  1.5441
  104OSM    H4G10623   5.088   2.700   9.861  0.8777  1.0018  0.6240
  104OSM    C5F10624   5.043   2.893   9.946 -0.8449  0.4259 -0.4725
  104OSM    H5F10625   5.152   2.909   9.962 -0.9994  1.2285 -0.2124
  104OSM    H5G10626   4.982   2.941  10.025  0.9312  0.6271  0.8421
  104OSM    C6F10627   5.008   2.957   9.815  0.0305 -0.7148 -0.7708
  104OSM    H6F10628   5.036   3.064   9.828 -1.5097 -0.3768 -0.0423
  104OSM    H6G10629   4.898   2.951   9.799 -0.1048  0.9263 -0.6040
  104OSM    C7F10630   5.082   2.906   9.692  0.2531  0.1858  0.3919
  104OSM    H7F10631   5.039   2.809   9.659  1.7965 -0.1484 -0.7015
  104OSM    H7G10632   5.186   2.880   9.722  0.7856  0.9227 -0.7428
  104OSM    C8F10633   5.077   2.997   9.574  0.4187 -0.1645 -0.0279
  104OSM    H8F10634   5.132   3.087   9.609 -0.2160  0.0039  0.5492
  104OSM    H8G10635   4.969   3.020   9.558  0.1028 -2.5544 -1.9022
  104OSM    C9F10636   5.120   2.954   9.441 -0.5209  0.0882  0.9839
  104OSM    H9F10637   5.057   2.887   9.380  1.1494  0.9386 -1.8635
  104OSM   C10F10638   5.228   3.004   9.376 -0.1326 -0.0513  0.7702
  104OSM   H10F10639   5.260   2.974   9.276  1.1596  0.3743  1.0296
  104OSM   C11F10640   5.328   3.100   9.444  0.2230 -0.0562 -0.2671
  104OSM   H11F10641   5.397   3.038   9.505  0.9454  0.0706 -0.9353
  104OSM   H11G10642   5.276   3.171   9.512  1.6477 -0.8052  1.6871
  104OSM   C12F10643   5.404   3.183   9.342 -0.6703  0.0106 -0.8655
  104OSM   H12F10644   5.484   3.235   9.398 -1.0558 -0.9799  0.6588
  104OSM   H12G10645   5.345   3.264   9.294  1.9869  0.6015 -3.4100
  104OSM   C13F10646   5.469   3.106   9.223 -0.8044 -0.0362 -0.1728
  104OSM   H13F10647   5.381   3.072   9.165 -0.8470  1.7668 -1.2450
  104OSM   H13G10648   5.522   3.014   9.254 -1.0505 -0.0895  0.0938
  104OSM   C14F10649   5.552   3.203   9.137 -0.8443  0.3211 -0.5972
  104OSM   H14F10650   5.661   3.184   9.143 -0.9059 -0.7865 -2.2421
  104OSM   H14G10651   5.529   3.310   9.159 -2.5896 -0.2075  0.3176
  104OSM   C15F10652   5.512   3.185   8.989  0.7146  0.5344  0.2381
  104OSM   H15F10653   5.541   3.276   8.931 -4.4931  1.2664 -1.7716
  104OSM   H15G10654   5.402   3.174   8.981  0.8824 -0.1946 -1.4661
  104OSM   C16F10655   5.576   3.055   8.926 -0.1672 -0.9415  0.3110
  104OSM   H16F10656   5.534   2.969   8.983 -1.7094 -0.7232 -0.4312
  104OSM   H16G10657   5.683   3.072   8.950 -0.3109 -2.1429  1.9931
  104OSM   C17F10658   5.538   3.032   8.782  0.4866  0.4549 -0.0195
  104OSM   H17F10659   5.583   2.937   8.747 -2.0539 -1.3615  1.3615
  104OSM   H17G10660   5.573   3.114   8.714 -1.6193  1.1039 -0.3899
  104OSM   C18F10661   5.382   3.032   8.754 -0.2445  0.7181 -1.0632
  104OSM   H18F10662   5.328   2.962   8.821  1.3787  0.4697  0.0674
  104OSM   H18G10663   5.372   3.007   8.646 -1.2723 -0.8789 -0.6293
  104OSM   H18H10664   5.347   3.136   8.768 -2.0027  0.0863 -0.6060
  105OSM      N10665   6.020   6.708  10.804 -0.3881  0.1642  0.6683
  105OSM    C1510666   6.035   6.582  10.723  0.2044 -0.6803 -0.4802
  105OSM   H15A10667   6.043   6.490  10.779  0.4538 -0.9853 -1.0074
  105OSM   H15B10668   6.127   6.600  10.669 -0.0125  0.5861 -0.4605
  105OSM   H15C10669   5.959   6.579  10.647 -1.5195  1.1073  1.0780
  105OSM    C1410670   5.933   6.683  10.922 -0.1912  0.1973  0.9000
  105OSM   H14A10671   5.835   6.726  10.906 -0.5085 -0.5841  0.6755
  105OSM   H14B10672   5.975   6.728  11.010  1.1110 -0.1279  0.4706
  105OSM   H14C10673   5.926   6.581  10.957  0.8426  0.0622  0.7357
  105OSM    C1310674   6.164   6.730  10.853  0.2067  1.2410 -0.5549
  105OSM   H13A10675   6.174   6.816  10.918 -4.0795  1.3708  0.2192
  105OSM   H13B10676   6.238   6.749  10.776  2.9068 -0.8193  1.3541
  105OSM   H13C10677   6.202   6.649  10.913 -0.5997  0.2934 -1.2846
  105OSM    C1210678   5.990   6.834  10.732  1.3908 -0.2688 -0.0303
  105OSM   H12A10679   5.993   6.913  10.806 -1.8523 -2.3622  2.6297
  105OSM   H12B10680   5.895   6.827  10.682  2.7527  0.5052 -2.9611
  105OSM    C1110681   6.072   6.870  10.607 -0.1029  0.1196 -0.1436
  105OSM   H11A10682   6.005   6.925  10.537  0.5305  2.1234  0.7570
  105OSM   H11B10683   6.096   6.777  10.551 -0.2702 -1.0932  1.7131
  105OSM      P10684   6.180   7.106  10.651  0.2091 -0.0499  0.7550
  105OSM    O1310685   6.049   7.145  10.712 -0.0791  0.2596  0.2664
  105OSM    O1410686   6.304   7.158  10.703  0.1122  0.7087 -0.0156
  105OSM    O1110687   6.167   7.159  10.505  0.4832  1.0403  0.1861
  105OSM    O1210688   6.188   6.948  10.638 -0.4525 -0.0072  0.4203
  105OSM    C1S10689   6.250   7.114  10.394 -0.5120 -0.5541 -0.0168
  105OSM    H1S10690   6.199   7.021  10.359  0.6092 -2.0834  2.1332
  105OSM    H1T10691   6.351   7.090  10.433 -1.0223 -0.4585  1.4603
  105OSM     NF10692   6.304   7.157  10.147 -0.3301  0.0815  0.1091
  105OSM    HNF10693   6.385   7.199  10.108  1.2498 -2.0135  0.9536
  105OSM    C2S10694   6.252   7.218  10.270  0.5454 -0.0066 -0.9696
  105OSM    H2S10695   6.146   7.242  10.249  0.3412 -2.7771 -3.8764
  105OSM    C3S10696   6.314   7.352  10.314  0.2112 -0.0147 -0.2142
  105OSM    H3S10697   6.419   7.331  10.344  0.1878 -2.0669 -1.3757
  105OSM     O310698   6.262   7.396  10.434  0.0519  0.2448 -0.5792
  105OSM    HO310699   6.222   7.319  10.476 -0.6098  1.4166  1.0386
  105OSM    C4S10700   6.297   7.461  10.214  0.1075 -0.4528  0.5373
  105OSM    H4S10701   6.199   7.511  10.204  1.1632  1.2086 -3.6124
  105OSM    C5S10702   6.399   7.510  10.138 -0.0700  0.8626  0.3835
  105OSM    H5S10703   6.500   7.474  10.162  0.1321 -0.3201 -2.0212
  105OSM    C6S10704   6.392   7.611  10.028 -0.0844  0.4059 -0.1173
  105OSM    H6S10705   6.435   7.707  10.062  1.0681 -0.2161  0.2246
  105OSM    H6T10706   6.292   7.635   9.985  1.0145 -0.5482 -3.5192
  105OSM    C7S10707   6.462   7.558   9.898 -0.0883  0.7516  0.1967
  105OSM    H7S10708   6.402   7.473   9.856 -0.2961  0.5207  0.9424
  105OSM    H7T10709   6.563   7.514   9.911 -0.2142 -0.1592 -1.5121
  105OSM    C8S10710   6.484   7.664   9.793 -0.3411  0.2285  0.0522
  105OSM    H8S10711   6.549   7.738   9.843 -2.7912  2.8139 -0.3469
  105OSM    H8T10712   6.392   7.724   9.771 -1.0658 -0.8579  0.0211
  105OSM    C9S10713   6.549   7.604   9.678 -0.6478 -0.4423  0.2816
  105OSM    H9S10714   6.489   7.521   9.635 -0.2803 -0.5596 -0.0098
  105OSM    H9T10715   6.641   7.552   9.710  0.4610  0.3058 -1.5432
  105OSM   C10S10716   6.589   7.705   9.571  0.1072  0.0844  0.4555
  105OSM   H10S10717   6.667   7.663   9.503  0.1808  1.0852 -0.0979
  105OSM   H10T10718   6.631   7.798   9.615  1.6123 -0.6736  0.7018
  105OSM   C11S10719   6.472   7.747   9.479  0.0280 -0.1272  0.3066
  105OSM   H11S10720   6.399   7.815   9.529 -0.3053 -1.1646  1.2713
  105OSM   H11T10721   6.405   7.664   9.449  1.4427 -1.4264  0.6265
  105OSM   C12S10722   6.534   7.811   9.359 -1.0806  0.3708  1.1221
  105OSM   H12S10723   6.607   7.735   9.324 -1.6775 -0.6493  2.0428
  105OSM   H12T10724   6.597   7.897   9.392  1.1984 -1.1616  0.9838
  105OSM   C13S10725   6.430   7.837   9.248  0.9917 -0.2911 -0.3414
  105OSM   H13S10726   6.369   7.930   9.256  0.1100 -0.8060 -1.0235
  105OSM   H13T10727   6.358   7.753   9.255  1.1587 -0.3197  3.0295
  105OSM   C14S10728   6.509   7.842   9.115  0.5337  0.2060 -0.2529
  105OSM   H14S10729   6.548   7.738   9.110 -0.9660 -0.3928  0.0632
  105OSM   H14T10730   6.589   7.915   9.140 -1.1313  1.6173  1.2492
  105OSM   C15S10731   6.424   7.879   8.999 -0.3884  0.1122 -0.8225
  105OSM   H15S10732   6.363   7.968   9.026 -0.2069 -0.5518  2.1056
  105OSM   H15T10733   6.350   7.801   8.971 -1.6396  0.3744  1.4985
  105OSM   C16S10734   6.510   7.924   8.879 -0.0451  0.4017  0.1282
  105OSM   H16S10735   6.539   7.836   8.818 -1.1894  0.2564 -0.2304
  105OSM   H16T10736   6.599   7.980   8.915  2.2299 -0.6644 -3.3030
  105OSM   C17S10737   6.425   8.011   8.783  0.1819 -0.5526 -0.2183
  105OSM   H17S10738   6.385   8.100   8.835  2.7372 -0.7292  2.3471
  105OSM   H17T10739   6.332   7.953   8.764  0.4386 -1.1262  0.2139
  105OSM   C18S10740   6.506   8.037   8.659  0.0685 -0.3168  0.6481
  105OSM   H18S10741   6.597   8.093   8.690  0.7936 -1.2423  0.2366
  105OSM   H18T10742   6.447   8.078   8.575 -0.2403 -0.5480  0.7526
  105OSM   H18U10743   6.553   7.943   8.622 -3.4781 -1.4467 -1.4602
  105OSM    C1F10744   6.247   7.049  10.086 -0.0293  0.5158 -0.0717
  105OSM     OF10745   6.143   6.997  10.127  0.2606 -0.0575  0.8142
  105OSM    C2F10746   6.328   6.998   9.962  0.2985 -0.2759 -0.0301
  105OSM    H2F10747   6.421   6.949   9.998 -0.6374 -2.1118 -0.0096
  105OSM    H2G10748   6.349   7.091   9.905 -1.6593 -0.2222 -0.7586
  105OSM    C3F10749   6.240   6.897   9.882  0.0093 -0.0805 -0.1473
  105OSM    H3F10750   6.147   6.940   9.838  1.8223  3.3062 -0.9458
  105OSM    H3G10751   6.206   6.817   9.951  1.2344 -0.7336 -0.2753
  105OSM    C4F10752   6.311   6.823   9.760  0.5967 -0.7039  0.3321
  105OSM    H4F10753   6.253   6.730   9.743  0.8914 -1.2123  1.9311
  105OSM    H4G10754   6.406   6.774   9.791  0.9333 -0.7627 -0.7273
  105OSM    C5F10755   6.312   6.906   9.630 -0.1649  0.0094 -0.1179
  105OSM    H5F10756   6.381   6.991   9.651  0.8482 -0.6764 -0.6006
  105OSM    H5G10757   6.211   6.949   9.613  0.3503  1.8842  1.2596
  105OSM    C6F10758   6.352   6.833   9.503 -0.3894  0.1802 -0.1882
  105OSM    H6F10759   6.271   6.761   9.478  0.9712 -0.9094 -1.6954
  105OSM    H6G10760   6.440   6.771   9.528 -0.8900  0.3878  2.2670
  105OSM    C7F10761   6.368   6.918   9.377 -0.7118 -0.0569  0.4279
  105OSM    H7F10762   6.438   6.999   9.406 -0.4313 -0.5983  1.2751
  105OSM    H7G10763   6.271   6.959   9.339 -0.4358 -0.5718 -0.8849
  105OSM    C8F10764   6.429   6.846   9.257  0.7157  0.3797 -0.6662
  105OSM    H8F10765   6.424   6.920   9.174 -0.2136  0.8366 -0.2169
  105OSM    H8G10766   6.350   6.771   9.239  1.2481 -0.5554  0.7612
  105OSM    C9F10767   6.568   6.785   9.270 -0.5179 -0.2068 -0.1631
  105OSM    H9F10768   6.574   6.690   9.325 -0.7655 -0.2475 -0.2034
  105OSM   C10F10769   6.678   6.841   9.227  0.2719 -0.0238  0.3608
  105OSM   H10F10770   6.769   6.779   9.231 -0.2506 -1.0799 -1.9776
  105OSM   C11F10771   6.702   6.969   9.150 -0.0878 -0.1638 -0.1298
  105OSM   H11F10772   6.805   7.010   9.145 -0.0957 -0.2768 -3.0379
  105OSM   H11G10773   6.643   7.055   9.189  0.6271  0.2229  0.1264
  105OSM   C12F10774   6.668   6.976   9.001  0.6412  0.6729  0.2314
  105OSM   H12F10775   6.571   6.926   8.978  0.5918  1.8967 -2.7025
  105OSM   H12G10776   6.733   6.910   8.939 -1.4640  0.0350 -1.4385
  105OSM   C13F10777   6.641   7.115   8.933 -0.3106  0.5221 -0.2551
  105OSM   H13F10778   6.720   7.191   8.949 -0.7109  0.9284 -0.1876
  105OSM   H13G10779   6.543   7.156   8.964 -1.0111  0.3668 -2.1154
  105OSM   C14F10780   6.645   7.093   8.783 -0.4370  0.4538 -0.5552
  105OSM   H14F10781   6.620   7.190   8.736 -1.2787  0.5235  0.0199
  105OSM   H14G10782   6.568   7.019   8.752  0.6868 -1.3431  0.7355
  105OSM   C15F10783   6.784   7.057   8.724 -0.1430  0.8097 -0.1594
  105OSM   H15F10784   6.787   6.960   8.670  1.9151 -0.8830  2.6950
  105OSM   H15G10785   6.849   7.026   8.809  1.1917 -0.4735 -1.5838
  105OSM   C16F10786   6.855   7.163   8.640 -0.6709  0.1399  0.2651
  105OSM   H16F10787   6.958   7.123   8.624 -1.3132 -1.7514  0.6371
  105OSM   H16G10788   6.862   7.251   8.708 -0.1385 -1.4090  2.3316
  105OSM   C17F10789   6.783   7.212   8.517 -0.0463 -0.5169  0.8636
  105OSM   H17F10790   6.691   7.264   8.551 -0.7720 -1.7995  0.9607
  105OSM   H17G10791   6.752   7.131   8.447 -3.4416  1.3701 -0.0545
  105OSM   C18F10792   6.870   7.306   8.431  0.1161 -0.1955 -0.6589
  105OSM   H18F10793   6.966   7.266   8.391 -0.3980 -1.5536 -0.5639
  105OSM   H18G10794   6.893   7.404   8.479  0.8808  0.5504 -2.4493
  105OSM   H18H10795   6.808   7.342   8.346 -3.1593  0.2563  1.7229
  106OSM      N10796   1.333   0.909  10.537 -0.2926 -0.0004 -0.1925
  106OSM    C1510797   1.387   0.865  10.402  0.1913  0.3697  0.1838
  106OSM   H15A10798   1.473   0.800  10.409 -1.6185 -2.1767  0.2758
  106OSM   H15B10799   1.417   0.952  10.346  2.9334  0.5938  1.7953
  106OSM   H15C10800   1.310   0.812  10.349  0.6498 -0.1716  0.0497
  106OSM    C1410801   1.333   0.796  10.636 -0.2196 -0.0339  0.7469
  106OSM   H14A10802   1.246   0.738  10.611 -0.4612  1.1349 -1.3566
  106OSM   H14B10803   1.340   0.827  10.739 -2.2708 -0.6916  1.1187
  106OSM   H14C10804   1.418   0.729  10.627  0.7086  1.1977 -0.0077
  106OSM    C1310805   1.425   1.015  10.583 -0.1680  0.2187  0.4184
  106OSM   H13A10806   1.414   1.101  10.519 -1.1938 -0.6140 -0.5604
  106OSM   H13B10807   1.529   0.988  10.582 -0.1212  0.3044  1.5325
  106OSM   H13C10808   1.399   1.054  10.681 -0.8001 -0.2679  0.4498
  106OSM    C1210809   1.193   0.965  10.517  0.6391  0.3747 -0.5399
  106OSM   H12A10810   1.128   0.880  10.502  0.3439  0.3680  0.6923
  106OSM   H12B10811   1.191   1.025  10.427 -0.4069  0.8982 -0.1830
  106OSM    C1110812   1.124   1.041  10.639  0.0159 -0.4023 -0.3194
  106OSM   H11A10813   1.132   0.988  10.736 -1.2359  1.9719  1.1849
  106OSM   H11B10814   1.014   1.045  10.628 -0.0481  0.4042  0.5257
  106OSM      P10815   1.174   1.276  10.540  0.0277  0.3365 -0.2706
  106OSM    O1310816   1.175   1.405  10.606 -0.4082 -0.2222  0.5556
  106OSM    O1410817   1.280   1.244  10.443 -0.3466  0.1218  0.4785
  106OSM    O1110818   1.033   1.245  10.470 -1.2925 -0.0378 -0.8601
  106OSM    O1210819   1.174   1.172  10.661  0.2712 -0.2864 -0.2265
  106OSM    C1S10820   0.946   1.352  10.435  0.1289  0.2744  0.6921
  106OSM    H1S10821   0.950   1.443  10.499 -1.0783  0.5596  0.3755
  106OSM    H1T10822   0.846   1.306  10.445 -0.3775  0.8450 -1.3155
  106OSM     NF10823   0.856   1.508  10.253 -0.0326 -0.6832 -0.2047
  106OSM    HNF10824   0.788   1.491  10.183  1.4992 -1.2922 -1.6201
  106OSM    C2S10825   0.950   1.400  10.281  0.2773 -0.1418 -0.7056
  106OSM    H2S10826   1.051   1.442  10.261  1.2538 -2.3743 -0.7365
  106OSM    C3S10827   0.927   1.274  10.189  0.5178 -0.6178 -0.5037
  106OSM    H3S10828   0.836   1.223  10.228 -0.5099  1.9132  0.6177
  106OSM     O310829   1.044   1.188  10.188 -0.2414  0.4563  0.2888
  106OSM    HO310830   1.087   1.212  10.270 -1.2330  0.3233  0.8704
  106OSM    C4S10831   0.906   1.312  10.046  0.2922  0.3427 -0.1222
  106OSM    H4S10832   0.993   1.335   9.983  0.3287  0.6754  0.0461
  106OSM    C5S10833   0.780   1.321  10.003  0.4099 -0.6098 -0.5874
  106OSM    H5S10834   0.700   1.307  10.077  0.0709  3.6811  0.1476
  106OSM    C6S10835   0.728   1.369   9.873 -0.2896  0.9068  0.5058
  106OSM    H6S10836   0.684   1.469   9.892 -0.8224  1.0203 -1.2058
  106OSM    H6T10837   0.649   1.300   9.836 -0.4473  0.6496  1.3003
  106OSM    C7S10838   0.824   1.383   9.752 -0.8379  0.1904  0.0557
  106OSM    H7S10839   0.873   1.287   9.728  2.7159  1.2974  2.1491
  106OSM    H7T10840   0.905   1.451   9.786 -0.7888 -0.2291  0.7947
  106OSM    C8S10841   0.759   1.451   9.631 -0.0301 -0.1974 -0.9994
  106OSM    H8S10842   0.821   1.509   9.559 -0.4526  1.4937 -0.0666
  106OSM    H8T10843   0.692   1.525   9.680 -0.0817 -1.3387  0.7492
  106OSM    C9S10844   0.675   1.360   9.544 -0.1326  0.1224  0.2235
  106OSM    H9S10845   0.602   1.422   9.487  2.0725  1.5898 -1.1526
  106OSM    H9T10846   0.618   1.285   9.603 -0.6518 -1.2912 -1.9665
  106OSM   C10S10847   0.748   1.270   9.442 -0.0462  0.3797 -0.1259
  106OSM   H10S10848   0.684   1.181   9.421 -0.3708  0.9011 -1.4255
  106OSM   H10T10849   0.845   1.239   9.487 -0.2434 -1.1746 -0.6968
  106OSM   C11S10850   0.771   1.323   9.296 -0.1962 -0.0968  0.1600
  106OSM   H11S10851   0.841   1.256   9.243 -0.6651  0.7594 -1.6200
  106OSM   H11T10852   0.831   1.416   9.307  1.9105 -1.5191  1.2128
  106OSM   C12S10853   0.647   1.348   9.220  0.5303 -0.2801 -0.2853
  106OSM   H12S10854   0.613   1.448   9.254 -1.2495 -0.5183 -1.2414
  106OSM   H12T10855   0.569   1.269   9.223 -1.3429  1.4986  1.9152
  106OSM   C13S10856   0.666   1.363   9.071 -0.2259  0.1475  0.0056
  106OSM   H13S10857   0.752   1.432   9.054  0.6891 -0.7422  0.8962
  106OSM   H13T10858   0.572   1.410   9.035  0.1790  0.2205 -0.9763
  106OSM   C14S10859   0.689   1.220   9.006 -0.2284  0.2587 -0.5951
  106OSM   H14S10860   0.602   1.155   9.030 -0.0377  0.5086  0.8640
  106OSM   H14T10861   0.778   1.172   9.053  0.5912  0.3743 -1.9736
  106OSM   C15S10862   0.696   1.215   8.858 -0.1578 -0.1114  0.5521
  106OSM   H15S10863   0.697   1.108   8.828  0.5930  0.5794 -2.1474
  106OSM   H15T10864   0.784   1.266   8.814  1.5440 -3.1510  0.1477
  106OSM   C16S10865   0.575   1.278   8.790 -0.1421  0.1302 -0.7120
  106OSM   H16S10866   0.580   1.388   8.805  1.8881 -0.1412  1.0086
  106OSM   H16T10867   0.484   1.223   8.820 -1.4678  2.3924 -0.3499
  106OSM   C17S10868   0.574   1.273   8.636 -0.0268  0.1540 -0.1315
  106OSM   H17S10869   0.478   1.312   8.597  0.7763 -0.6025 -3.1042
  106OSM   H17T10870   0.588   1.164   8.620  0.5225  0.1507  0.3381
  106OSM   C18S10871   0.683   1.354   8.564  0.0358  0.5404 -0.1246
  106OSM   H18S10872   0.674   1.335   8.455  1.2712 -0.9981 -0.0063
  106OSM   H18T10873   0.784   1.324   8.601 -0.2207 -0.1384  0.0429
  106OSM   H18U10874   0.689   1.462   8.588 -0.0518  0.4861  0.1485
  106OSM    C1F10875   0.883   1.637  10.285  0.1858 -0.4308  0.6198
  106OSM     OF10876   0.976   1.673  10.357  0.4492  0.4329  0.4819
  106OSM    C2F10877   0.788   1.736  10.223  0.1285 -0.1912  0.5942
  106OSM    H2F10878   0.805   1.829  10.281  0.7861 -0.8925  1.5585
  106OSM    H2G10879   0.687   1.702  10.252  1.1030 -1.9641  2.1134
  106OSM    C3F10880   0.795   1.754  10.065 -0.1447  0.0767 -0.5341
  106OSM    H3F10881   0.793   1.650  10.024  0.0648 -0.1031 -0.0895
  106OSM    H3G10882   0.885   1.810  10.033  0.2165 -0.2467 -0.0898
  106OSM    C4F10883   0.663   1.827  10.029 -0.3870  0.3443  0.3376
  106OSM    H4F10884   0.655   1.908  10.105 -1.3661 -0.9061  1.6190
  106OSM    H4G10885   0.574   1.761  10.036  0.3370 -0.6859  0.0164
  106OSM    C5F10886   0.667   1.883   9.886  0.0962 -0.4757  0.6186
  106OSM    H5F10887   0.667   1.800   9.812  0.7064 -0.8395  1.0243
  106OSM    H5G10888   0.766   1.932   9.875 -0.1737  0.1823  1.0732
  106OSM    C6F10889   0.563   1.988   9.848  0.2514 -0.2710  0.1165
  106OSM    H6F10890   0.568   2.067   9.926  0.4690 -0.6311  0.4679
  106OSM    H6G10891   0.456   1.959   9.843  0.0296  0.3188  1.1653
  106OSM    C7F10892   0.593   2.051   9.712  0.5506 -0.3086  0.2045
  106OSM    H7F10893   0.701   2.078   9.710  0.1343  1.4483 -0.7542
  106OSM    H7G10894   0.541   2.148   9.697  1.1846 -0.0328 -0.2735
  106OSM    C8F10895   0.571   1.961   9.585 -0.1601  0.3740 -0.8599
  106OSM    H8F10896   0.462   1.939   9.583  0.1790 -1.4857 -0.8136
  106OSM    H8G10897   0.629   1.868   9.602 -0.1064  0.6873  0.8287
  106OSM    C9F10898   0.627   2.022   9.457 -0.4860 -0.3477  0.0704
  106OSM    H9F10899   0.578   2.117   9.429  0.6316  0.3857  0.5260
  106OSM   C10F10900   0.720   1.971   9.376 -0.0143  0.2474  0.2060
  106OSM   H10F10901   0.752   2.026   9.286 -0.5140 -0.9160 -0.7094
  106OSM   C11F10902   0.808   1.849   9.410 -0.2041 -1.0816 -0.4065
  106OSM   H11F10903   0.813   1.827   9.519 -0.5900 -1.3735 -0.4431
  106OSM   H11G10904   0.910   1.871   9.374 -0.3471  0.4150  0.0556
  106OSM   C12F10905   0.741   1.726   9.344 -0.1257  0.1457 -0.2238
  106OSM   H12F10906   0.636   1.720   9.380 -0.3806  0.8076 -0.8417
  106OSM   H12G10907   0.794   1.632   9.371 -0.1467  0.7990  2.3280
  106OSM   C13F10908   0.729   1.738   9.189  0.6020  0.9020  0.2321
  106OSM   H13F10909   0.678   1.826   9.144 -1.1475 -0.1505  0.0614
  106OSM   H13G10910   0.667   1.651   9.157  2.1693  0.2776 -1.2650
  106OSM   C14F10911   0.862   1.709   9.110  0.6000 -0.2699  0.4698
  106OSM   H14F10912   0.884   1.601   9.128 -0.8805 -1.1775 -2.4966
  106OSM   H14G10913   0.943   1.761   9.165  1.5671  0.7663 -1.8068
  106OSM   C15F10914   0.832   1.740   8.970 -0.2307 -0.2951  1.0224
  106OSM   H15F10915   0.824   1.845   8.936  1.9991 -0.5870 -0.6073
  106OSM   H15G10916   0.740   1.683   8.944 -0.2653  0.3759 -0.3982
  106OSM   C16F10917   0.931   1.670   8.872  0.1858 -0.1072 -0.0545
  106OSM   H16F10918   0.928   1.559   8.884  1.3422 -0.3394 -1.6038
  106OSM   H16G10919   1.034   1.703   8.894  0.3390  0.5870 -1.7017
  106OSM   C17F10920   0.909   1.707   8.723  0.0614  0.0884  0.0641
  106OSM   H17F10921   0.953   1.809   8.716  1.8959 -0.6418  0.2859
  106OSM   H17G10922   0.801   1.703   8.698  0.2875 -0.8435 -0.8292
  106OSM   C18F10923   0.988   1.612   8.631 -0.1838  0.5408 -0.0431
  106OSM   H18F10924   0.999   1.660   8.532  0.5850  1.5926  0.5363
  106OSM   H18G10925   0.948   1.510   8.611  1.6513  0.2490 -2.6954
  106OSM   H18H10926   1.092   1.604   8.668  0.4844  0.1412 -1.9339
  107OSM      N10927   2.167   3.911  10.677  0.3823  0.2243  0.1980
  107OSM    C1510928   2.184   4.005  10.564 -0.1863 -0.2781 -0.4544
  107OSM   H15A10929   2.088   4.021  10.515 -0.9354 -2.2801  0.2894
  107OSM   H15B10930   2.255   3.972  10.490 -0.3308 -1.8957  0.0985
  107OSM   H15C10931   2.215   4.098  10.609 -1.6119  1.0482 -2.0564
  107OSM    C1410932   2.064   3.962  10.762  0.3031  0.7732 -1.1040
  107OSM   H14A10933   2.100   4.041  10.826  0.6431 -1.2640  1.3714
  107OSM   H14B10934   2.026   3.884  10.827 -1.8050  1.6276 -1.2366
  107OSM   H14C10935   1.969   3.991  10.719  0.7634 -1.4196 -3.8843
  107OSM    C1310936   2.119   3.775  10.613  0.1824 -0.2037 -0.9579
  107OSM   H13A10937   2.048   3.794  10.534 -0.1445  0.7294 -0.4551
  107OSM   H13B10938   2.087   3.705  10.688 -1.8720  3.2743  1.6947
  107OSM   H13C10939   2.200   3.732  10.556  1.4192  0.4009  0.2872
  107OSM    C1210940   2.294   3.890  10.755  0.3810  0.2874 -0.5113
  107OSM   H12A10941   2.272   3.826  10.839  1.5362  2.2358  1.3772
  107OSM   H12B10942   2.308   3.986  10.802 -0.8924  0.4294 -0.3727
  107OSM    C1110943   2.429   3.851  10.685  0.0067  0.1956 -0.0325
  107OSM   H11A10944   2.495   3.876  10.770 -2.6509  1.1610  1.8927
  107OSM   H11B10945   2.444   3.927  10.605 -2.1934 -1.0990 -1.8141
  107OSM      P10946   2.479   3.599  10.719 -0.3424 -0.0993 -0.3620
  107OSM    O1310947   2.619   3.617  10.765  0.5089 -0.1716 -0.2966
  107OSM    O1410948   2.371   3.569  10.818 -0.5757 -0.1861 -0.6894
  107OSM    O1110949   2.469   3.488  10.616  0.4416  0.0455  0.0199
  107OSM    O1210950   2.440   3.717  10.632  0.1109  0.3508 -0.7214
  107OSM    C1S10951   2.341   3.448  10.566 -0.4155  0.0043  0.0963
  107OSM    H1S10952   2.252   3.511  10.590 -1.1454 -0.6246 -0.8848
  107OSM    H1T10953   2.312   3.356  10.621  0.2102  1.0333  2.2540
  107OSM     NF10954   2.202   3.390  10.377  0.1493 -0.3333  0.2032
  107OSM    HNF10955   2.171   3.296  10.388  1.0615 -0.7139 -0.3427
  107OSM    C2S10956   2.342   3.413  10.413  0.6746  0.0597 -0.3362
  107OSM    H2S10957   2.376   3.504  10.358 -0.7011  0.2096 -0.9708
  107OSM    C3S10958   2.443   3.300  10.381  0.6606 -0.5304  0.4090
  107OSM    H3S10959   2.405   3.210  10.433 -0.3035 -2.4140 -3.1880
  107OSM     O310960   2.571   3.333  10.430 -0.5191  0.2525 -0.0108
  107OSM    HO310961   2.548   3.402  10.492 -1.6134  0.5152 -0.6796
  107OSM    C4S10962   2.429   3.254  10.235 -0.0404 -0.0529 -0.4618
  107OSM    H4S10963   2.335   3.204  10.207 -0.2095 -2.0195  3.1334
  107OSM    C5S10964   2.516   3.275  10.134 -0.8215 -0.1613  0.7582
  107OSM    H5S10965   2.607   3.331  10.161 -0.3556 -1.0441  1.0606
  107OSM    C6S10966   2.498   3.227   9.993 -0.5077 -0.3034  0.2713
  107OSM    H6S10967   2.575   3.153   9.964  0.4388  1.3615 -1.6304
  107OSM    H6T10968   2.502   3.305   9.914 -0.9676 -0.9781 -0.4319
  107OSM    C7S10969   2.354   3.168   9.978  0.2154  0.1861 -0.0162
  107OSM    H7S10970   2.276   3.241  10.005 -1.2659 -1.5809  0.7076
  107OSM    H7T10971   2.355   3.083  10.049 -0.7374  0.1406 -0.0499
  107OSM    C8S10972   2.326   3.108   9.844 -0.3772  0.4645 -0.1730
  107OSM    H8S10973   2.250   3.027   9.854  1.1714 -1.3064 -1.7671
  107OSM    H8T10974   2.424   3.059   9.823 -0.7394 -1.7250  2.6651
  107OSM    C9S10975   2.301   3.202   9.729 -0.5257  0.1873 -0.8544
  107OSM    H9S10976   2.387   3.271   9.729 -0.5727  0.2453 -0.2016
  107OSM    H9T10977   2.213   3.269   9.737  0.7021  1.7202  0.2811
  107OSM   C10S10978   2.293   3.148   9.587  0.4324  0.4550  0.2835
  107OSM   H10S10979   2.267   3.232   9.518  1.0455 -0.5655 -1.2604
  107OSM   H10T10980   2.211   3.073   9.577  1.4861 -0.4539 -2.5297
  107OSM   C11S10981   2.428   3.079   9.534  0.5103  0.4053 -0.4063
  107OSM   H11S10982   2.459   2.997   9.603 -0.1698  1.7811  1.6419
  107OSM   H11T10983   2.511   3.152   9.539  0.3657  0.6411 -1.2708
  107OSM   C12S10984   2.410   3.039   9.386  0.1449  0.2625 -0.3248
  107OSM   H12S10985   2.319   2.975   9.377  0.3128 -0.0116 -0.0418
  107OSM   H12T10986   2.497   2.982   9.348  0.2059 -0.8483  1.3896
  107OSM   C13S10987   2.392   3.164   9.295  0.2844 -0.2538 -0.2638
  107OSM   H13S10988   2.458   3.247   9.329 -1.8523  2.7716 -2.8701
  107OSM   H13T10989   2.289   3.205   9.305 -0.4865 -1.7927 -1.5033
  107OSM   C14S10990   2.424   3.129   9.146 -0.2058 -0.1949 -0.2948
  107OSM   H14S10991   2.348   3.057   9.109 -1.1665  0.0117  1.2253
  107OSM   H14T10992   2.521   3.074   9.147 -0.2999 -0.3542  0.3606
  107OSM   C15S10993   2.449   3.252   9.055 -0.5282  0.2558 -0.2511
  107OSM   H15S10994   2.554   3.271   9.087 -0.6706  0.8404 -0.1282
  107OSM   H15T10995   2.406   3.347   9.093  4.1276  2.1141  1.2079
  107OSM   C16S10996   2.424   3.242   8.906  0.0251 -0.4241  0.5304
  107OSM   H16S10997   2.316   3.235   8.881  0.0049  2.3118 -0.5068
  107OSM   H16T10998   2.479   3.154   8.866 -1.0486 -1.0464  0.4053
  107OSM   C17S10999   2.478   3.372   8.834  0.1218 -0.3146 -0.4311
  107OSM   H17S11000   2.423   3.462   8.868 -0.0142  0.7362 -3.2385
  107OSM   H17T11001   2.452   3.377   8.727 -0.7471  1.4038 -0.1757
  107OSM   C18S11002   2.631   3.392   8.847  0.2283  0.8563 -0.0068
  107OSM   H18S11003   2.653   3.429   8.949  2.9684  2.1140 -0.9295
  107OSM   H18T11004   2.676   3.469   8.781  0.6072  2.7508  2.3291
  107OSM   H18U11005   2.679   3.292   8.836  0.6873  0.9645  0.8910
  107OSM    C1F11006   2.110   3.485  10.372 -0.0314 -0.1248  0.0100
  107OSM     OF11007   2.151   3.599  10.374 -0.3423  0.2859 -0.6520
  107OSM    C2F11008   1.965   3.448  10.393  0.7807  0.2378  0.5464
  107OSM    H2F11009   1.945   3.429  10.501 -3.8396 -2.6671 -0.5540
  107OSM    H2G11010   1.936   3.352  10.346  0.3567  0.0608  1.1532
  107OSM    C3F11011   1.867   3.552  10.346 -0.6694  0.8043 -0.0500
  107OSM    H3F11012   1.891   3.651  10.389 -1.0312  0.0960  1.9079
  107OSM    H3G11013   1.766   3.525  10.384 -0.1406 -1.3888 -0.0522
  107OSM    C4F11014   1.865   3.564  10.195  0.7813 -0.2374  0.6005
  107OSM    H4F11015   1.864   3.462  10.151  2.9845  0.3432 -0.9817
  107OSM    H4G11016   1.960   3.608  10.158  1.1628 -1.7575 -0.3489
  107OSM    C5F11017   1.744   3.643  10.149  0.4285 -0.5266  0.1150
  107OSM    H5F11018   1.756   3.746  10.188 -0.4026 -0.6182  0.6122
  107OSM    H5G11019   1.651   3.591  10.179 -1.4899  0.8802 -2.9656
  107OSM    C6F11020   1.725   3.649   9.996 -0.4527 -0.1789 -0.2315
  107OSM    H6F11021   1.821   3.672   9.946  0.2260 -0.2572  0.9994
  107OSM    H6G11022   1.659   3.734   9.968  0.0992  0.9287  1.6386
  107OSM    C7F11023   1.668   3.515   9.939  0.3505  0.4433  0.3271
  107OSM    H7F11024   1.573   3.484   9.985  0.1999  0.2326 -0.1171
  107OSM    H7G11025   1.749   3.444   9.966 -0.4417 -0.4175  0.4837
  107OSM    C8F11026   1.646   3.523   9.785  0.8680 -0.7456  0.1087
  107OSM    H8F11027   1.654   3.417   9.754 -0.6844 -0.8397 -0.0321
  107OSM    H8G11028   1.735   3.577   9.745  1.1143 -0.8553  0.5003
  107OSM    C9F11029   1.517   3.593   9.751  0.0433  0.3808  0.2583
  107OSM    H9F11030   1.479   3.665   9.826 -0.3764 -0.2068  0.6213
  107OSM   C10F11031   1.436   3.567   9.642  0.0425 -0.7800 -0.5073
  107OSM   H10F11032   1.352   3.636   9.626  1.9298  1.0289 -3.4126
  107OSM   C11F11033   1.471   3.471   9.529  0.4556 -0.6939 -0.4332
  107OSM   H11F11034   1.381   3.470   9.465  0.4885  1.2308 -0.5655
  107OSM   H11G11035   1.498   3.373   9.576  0.0006  0.4093  2.3017
  107OSM   C12F11036   1.598   3.524   9.456  0.0746  0.0546 -0.6893
  107OSM   H12F11037   1.678   3.542   9.530 -0.8087 -1.9810  0.8707
  107OSM   H12G11038   1.577   3.627   9.420  0.9193  0.3417 -0.3705
  107OSM   C13F11039   1.654   3.454   9.331  0.1411  0.2055 -0.3368
  107OSM   H13F11040   1.673   3.347   9.357  1.8888  0.5368 -0.1169
  107OSM   H13G11041   1.756   3.495   9.316  0.4176 -0.4492 -0.3148
  107OSM   C14F11042   1.570   3.460   9.206 -0.1866  0.1785 -0.5442
  107OSM   H14F11043   1.560   3.567   9.179  1.1192 -0.3039 -3.3004
  107OSM   H14G11044   1.470   3.415   9.226  0.6491 -2.4251 -1.7172
  107OSM   C15F11045   1.643   3.394   9.095 -0.6092  0.3627  0.2703
  107OSM   H15F11046   1.668   3.294   9.136 -0.1803  0.1708 -0.4549
  107OSM   H15G11047   1.746   3.430   9.071  0.5262 -3.0405 -0.4467
  107OSM   C16F11048   1.558   3.381   8.967  0.5163 -0.0840 -0.2375
  107OSM   H16F11049   1.534   3.480   8.923  1.5140  0.2677 -0.0094
  107OSM   H16G11050   1.459   3.341   9.000 -0.6890 -1.3084 -4.6913
  107OSM   C17F11051   1.609   3.284   8.861  0.2664 -0.4008  1.1900
  107OSM   H17F11052   1.600   3.180   8.901 -0.6153  0.3123  2.9858
  107OSM   H17G11053   1.714   3.303   8.831  0.2410 -1.6179  0.2692
  107OSM   C18F11054   1.523   3.277   8.732  0.4993  0.6037  0.3505
  107OSM   H18F11055   1.558   3.193   8.668 -0.2744 -1.0928  2.0582
  107OSM   H18G11056   1.511   3.377   8.685 -2.0088 -0.4773 -1.5186
  107OSM   H18H11057   1.422   3.237   8.757  0.9116  0.0583  1.2040
  108OSM      N11058   4.297   0.111  10.795  0.0175 -0.0394 -0.7014
  108OSM    C1511059   4.342   0.208  10.907  0.3531  0.3260 -0.0141
  108OSM   H15A11060   4.448   0.227  10.902  0.9354 -2.3036  0.8758
  108OSM   H15B11061   4.337   0.164  11.005 -0.8078  2.1525  0.7971
  108OSM   H15C11062   4.281   0.297  10.911 -0.9609 -0.5330 -0.2296
  108OSM    C1411063   4.329   0.176  10.660 -0.9517  0.0610 -0.3199
  108OSM   H14A11064   4.280   0.272  10.655  1.7398  1.6191  0.9852
  108OSM   H14B11065   4.280   0.122  10.580 -1.1111  1.0413 -0.8982
  108OSM   H14C11066   4.436   0.183  10.648 -1.2125  0.8081 -2.8859
  108OSM    C1311067   4.384  -0.013  10.811  0.4522 -0.1766 -0.6147
  108OSM   H13A11068   4.348  -0.097  10.753 -1.5183 -1.1403  1.8293
  108OSM   H13B11069   4.385  -0.049  10.912 -0.2160  1.7523  0.1246
  108OSM   H13C11070   4.485   0.004  10.779  1.1707 -1.6043  0.7992
  108OSM    C1211071   4.152   0.075  10.807  0.8819 -0.1922 -0.6377
  108OSM   H12A11072   4.089   0.163  10.805  0.3672 -0.5408 -0.0700
  108OSM   H12B11073   4.149   0.028  10.904 -1.4346 -1.6778 -1.3454
  108OSM    C1111074   4.099  -0.035  10.701  0.4465 -0.2187 -0.6822
  108OSM   H11A11075   4.137   0.006  10.605  3.5983  2.0158  1.3148
  108OSM   H11B11076   3.988  -0.033  10.708  0.4786 -1.4878  0.7285
  108OSM      P11077   4.119  -0.283  10.630 -0.8571 -0.3242  0.0325
  108OSM    O1311078   4.236  -0.373  10.626 -0.2560 -0.3443 -0.0004
  108OSM    O1411079   3.987  -0.341  10.665 -0.1292 -0.2237  0.3737
  108OSM    O1111080   4.107  -0.208  10.489 -0.1946  0.5949  0.2655
  108OSM    O1211081   4.153  -0.167  10.729  0.3606 -0.3169  0.3160
  108OSM    C1S11082   4.231  -0.169  10.420  0.3629  0.0064  0.2377
  108OSM    H1S11083   4.308  -0.242  10.452 -0.1863 -0.0336  1.5418
  108OSM    H1T11084   4.255  -0.067  10.456 -2.9657  0.7589  0.6515
  108OSM     NF11085   4.346  -0.169  10.200 -0.0589 -0.2090 -0.6986
  108OSM    HNF11086   4.392  -0.081  10.207 -0.3973  0.0783 -1.9394
  108OSM    C2S11087   4.217  -0.173  10.267 -0.6309  0.1394 -0.0898
  108OSM    H2S11088   4.159  -0.261  10.232  0.2848 -0.8651  0.8491
  108OSM    C3S11089   4.123  -0.055  10.216  0.3998 -0.2563 -0.3461
  108OSM    H3S11090   4.177   0.039  10.242  0.4833  0.3003 -2.3718
  108OSM     O311091   3.995  -0.038  10.274  0.1470 -0.7346 -0.0640
  108OSM    HO311092   3.982  -0.102  10.345  1.5471 -0.4255  0.4963
  108OSM    C4S11093   4.116  -0.055  10.067  0.1225  0.6555 -0.1583
  108OSM    H4S11094   4.188   0.009  10.013 -2.2028  1.4915 -2.5198
  108OSM    C5S11095   4.024  -0.116   9.990 -0.8031  0.4173 -0.4386
  108OSM    H5S11096   3.931  -0.151  10.036 -1.9825  0.8900 -2.3453
  108OSM    C6S11097   4.018  -0.101   9.836  0.0995  0.6892 -0.6109
  108OSM    H6S11098   3.963  -0.009   9.807  1.2696  1.2605 -1.1016
  108OSM    H6T11099   3.956  -0.188   9.808 -1.2493  1.1747  0.7179
  108OSM    C7S11100   4.150  -0.111   9.756  0.0990  0.4294  0.6569
  108OSM    H7S11101   4.209  -0.203   9.775  1.4637  0.9589 -0.8514
  108OSM    H7T11102   4.213  -0.025   9.788 -0.6927  1.2745  0.0102
  108OSM    C8S11103   4.128  -0.096   9.603  0.0972 -0.4379  0.0738
  108OSM    H8S11104   4.051  -0.018   9.582  2.1059  1.1904 -1.7519
  108OSM    H8T11105   4.084  -0.194   9.574 -1.5645 -0.9451  3.7563
  108OSM    C9S11106   4.260  -0.063   9.530  0.7913 -0.3214 -0.3804
  108OSM    H9S11107   4.337  -0.137   9.560 -0.3113 -0.6211  1.8551
  108OSM    H9T11108   4.300   0.036   9.561  1.9863 -1.5871  2.4230
  108OSM   C10S11109   4.240  -0.070   9.379 -0.3929 -0.5543  0.6911
  108OSM   H10S11110   4.134  -0.042   9.360 -0.7913 -2.7194 -0.6802
  108OSM   H10T11111   4.255  -0.176   9.349  2.4024 -0.4221  1.3155
  108OSM   C11S11112   4.333   0.019   9.290 -0.5673  0.1795 -0.3153
  108OSM   H11S11113   4.437  -0.018   9.304 -1.0207 -1.2514 -0.5615
  108OSM   H11T11114   4.329   0.128   9.312  1.8248  0.4658 -0.9679
  108OSM   C12S11115   4.310  -0.003   9.141 -0.1368 -0.8003  0.8803
  108OSM   H12S11116   4.209   0.032   9.112  0.9305 -0.4641 -3.1198
  108OSM   H12T11117   4.312  -0.112   9.121  0.8311 -0.4980 -0.9149
  108OSM   C13S11118   4.413   0.059   9.039  0.1458 -0.4570 -0.3745
  108OSM   H13S11119   4.515   0.016   9.047  0.3224  0.2067  1.4322
  108OSM   H13T11120   4.446   0.160   9.070  1.0519 -0.9316  0.2982
  108OSM   C14S11121   4.372   0.058   8.898 -0.3452  0.9572 -0.8090
  108OSM   H14S11122   4.281   0.121   8.905 -1.7569 -1.1189  0.8346
  108OSM   H14T11123   4.341  -0.048   8.882 -0.4801  0.9395 -0.4397
  108OSM   C15S11124   4.461   0.119   8.790 -0.9735 -0.1428  0.8037
  108OSM   H15S11125   4.420   0.096   8.690 -0.3495  1.4929  0.1530
  108OSM   H15T11126   4.557   0.062   8.789 -0.8274  0.1096  0.2934
  108OSM   C16S11127   4.495   0.267   8.810 -0.1372  0.7720 -0.2650
  108OSM   H16S11128   4.527   0.287   8.915  1.6984 -0.1433 -0.6033
  108OSM   H16T11129   4.401   0.324   8.797 -0.6487  0.3093  1.1774
  108OSM   C17S11130   4.593   0.332   8.708 -0.7142  0.0301 -0.3404
  108OSM   H17S11131   4.548   0.324   8.607 -1.8749 -0.7850  0.2195
  108OSM   H17T11132   4.696   0.292   8.715 -0.6039  0.2506 -0.6731
  108OSM   C18S11133   4.600   0.479   8.737 -0.4624 -0.0033  0.8312
  108OSM   H18S11134   4.667   0.507   8.822  2.0797 -0.3826 -0.9301
  108OSM   H18T11135   4.497   0.518   8.754 -0.3960  0.7581 -0.3901
  108OSM   H18U11136   4.646   0.528   8.649  0.6557  0.1072  1.4515
  108OSM    C1F11137   4.421  -0.282  10.208 -0.4334 -0.3923 -0.1805
  108OSM     OF11138   4.374  -0.389  10.243  0.4860  0.4666  0.5715
  108OSM    C2F11139   4.566  -0.272  10.194 -0.2654 -0.4588  0.0244
  108OSM    H2F11140   4.611  -0.305  10.291 -0.3163  0.4454  0.3662
  108OSM    H2G11141   4.604  -0.171  10.171  0.4686 -1.0406 -1.4499
  108OSM    C3F11142   4.617  -0.363  10.084 -0.1592  0.4436 -0.0680
  108OSM    H3F11143   4.583  -0.469  10.090  0.6863  0.2408  1.7113
  108OSM    H3G11144   4.726  -0.374  10.102 -0.3151 -0.7969  0.1879
  108OSM    C4F11145   4.580  -0.314   9.941 -0.8101  0.1631  0.3070
  108OSM    H4F11146   4.623  -0.212   9.927  0.5237 -0.4118 -0.0017
  108OSM    H4G11147   4.469  -0.307   9.941 -0.9095 -1.1360  0.1258
  108OSM    C5F11148   4.632  -0.411   9.837  0.0888 -0.6063 -0.1482
  108OSM    H5F11149   4.568  -0.501   9.837  0.9879 -1.2666 -0.7453
  108OSM    H5G11150   4.740  -0.431   9.859  0.0307  0.4540  1.2434
  108OSM    C6F11151   4.621  -0.341   9.705  0.3262  0.8712  1.0834
  108OSM    H6F11152   4.682  -0.249   9.711  1.0036  0.5753 -0.5993
  108OSM    H6G11153   4.516  -0.317   9.679  0.5346 -0.5095 -1.4503
  108OSM    C7F11154   4.668  -0.426   9.583 -0.0330  0.0831 -0.2872
  108OSM    H7F11155   4.617  -0.525   9.589 -1.5306  0.7256 -1.5876
  108OSM    H7G11156   4.778  -0.441   9.582  0.0972  0.7635 -2.6974
  108OSM    C8F11157   4.620  -0.367   9.445 -0.5485 -1.2254  0.6853
  108OSM    H8F11158   4.517  -0.326   9.457  0.3340  1.4921 -0.2281
  108OSM    H8G11159   4.626  -0.441   9.363 -1.5271 -1.2517  0.6293
  108OSM    C9F11160   4.689  -0.234   9.408  0.3766 -0.2733 -0.5897
  108OSM    H9F11161   4.731  -0.176   9.491  1.9739 -0.9404 -0.8923
  108OSM   C10F11162   4.702  -0.191   9.279 -0.0416 -0.9471  0.8453
  108OSM   H10F11163   4.758  -0.100   9.256 -2.4424 -0.0024 -1.7389
  108OSM   C11F11164   4.654  -0.256   9.155  0.4649  0.2327  0.7628
  108OSM   H11F11165   4.584  -0.191   9.099  1.8202 -0.9965 -2.6596
  108OSM   H11G11166   4.600  -0.351   9.175  0.3307  0.3153  0.7923
  108OSM   C12F11167   4.772  -0.286   9.065 -0.3895  0.5750  0.3886
  108OSM   H12F11168   4.732  -0.354   8.987 -1.5102  0.5605  0.9437
  108OSM   H12G11169   4.848  -0.349   9.115 -1.6416 -3.2174 -2.1015
  108OSM   C13F11170   4.828  -0.157   9.009 -0.4977  0.2226 -0.4645
  108OSM   H13F11171   4.875  -0.098   9.090 -1.1746  2.1053 -1.3747
  108OSM   H13G11172   4.734  -0.118   8.965 -0.9462 -0.1824  0.1340
  108OSM   C14F11173   4.938  -0.181   8.903 -0.0189  0.1120  0.3504
  108OSM   H14F11174   4.913  -0.258   8.827 -2.0189 -1.2876  2.3089
  108OSM   H14G11175   5.027  -0.221   8.957  0.1670 -1.5234 -1.1143
  108OSM   C15F11176   4.978  -0.047   8.830 -0.1523  0.5290 -1.1481
  108OSM   H15F11177   5.087  -0.039   8.811  0.2517  2.0394  1.2854
  108OSM   H15G11178   4.959   0.036   8.903 -1.1970  1.3812 -2.3485
  108OSM   C16F11179   4.903  -0.030   8.700  1.2965 -0.2557 -0.7374
  108OSM   H16F11180   4.898   0.079   8.681  0.0375  0.0510  1.0498
  108OSM   H16G11181   4.800  -0.072   8.709  0.7239  1.5393  3.7962
  108OSM   C17F11182   4.971  -0.061   8.575 -0.3776  0.5710  0.1774
  108OSM   H17F11183   4.973  -0.171   8.562 -0.2627  0.7418 -1.4020
  108OSM   H17G11184   5.068  -0.006   8.583 -1.3152  2.1574  1.1052
  108OSM   C18F11185   4.901  -0.018   8.439 -0.1678 -0.3260 -0.6487
  108OSM   H18F11186   4.968  -0.049   8.356 -1.0367 -0.0807 -1.4628
  108OSM   H18G11187   4.893   0.093   8.439  2.6051 -0.0217 -2.5847
  108OSM   H18H11188   4.798  -0.058   8.434 -0.1112 -0.7327  1.0879
  109OSM      N11189   5.202   0.660  10.771 -0.0927 -0.7257  0.7539
  109OSM    C1511190   5.231   0.788  10.837 -0.0173 -0.5505  0.2971
  109OSM   H15A11191   5.165   0.863  10.794 -1.6933 -1.5661  1.0021
  109OSM   H15B11192   5.325   0.828  10.802 -1.1309  3.0524  0.9643
  109OSM   H15C11193   5.229   0.796  10.944  2.8264  1.0095  0.3408
  109OSM    C1411194   5.300   0.561  10.825 -0.4884  1.0613 -0.2544
  109OSM   H14A11195   5.274   0.459  10.804  0.3391  0.4883  1.3246
  109OSM   H14B11196   5.297   0.574  10.933  4.8611 -0.1563  0.2878
  109OSM   H14C11197   5.398   0.589  10.791 -0.1701  0.1519 -0.0876
  109OSM    C1311198   5.063   0.596  10.817 -0.3541  0.3069 -0.0154
  109OSM   H13A11199   5.043   0.594  10.924  0.6993  2.7740  0.3092
  109OSM   H13B11200   5.055   0.494  10.785 -1.5170  0.5584 -0.5749
  109OSM   H13C11201   4.983   0.657  10.777  0.7751  2.1798  0.4473
  109OSM    C1211202   5.208   0.671  10.618 -0.2626  0.2205 -0.1188
  109OSM   H12A11203   5.152   0.759  10.592 -1.7118 -0.7394 -0.3513
  109OSM   H12B11204   5.155   0.587  10.576  0.2735 -0.9576  1.4409
  109OSM    C1111205   5.352   0.672  10.546  0.5592  0.8000 -0.1320
  109OSM   H11A11206   5.401   0.752  10.605  0.5230  0.0706  0.9022
  109OSM   H11B11207   5.335   0.710  10.443  0.6959  0.0504 -0.4414
  109OSM      P11208   5.379   0.430  10.459 -0.0404  0.0379 -0.1001
  109OSM    O1311209   5.467   0.312  10.491 -0.1996  0.0406 -0.3101
  109OSM    O1411210   5.230   0.414  10.460  0.8598  0.1663 -0.1014
  109OSM    O1111211   5.423   0.492  10.316  0.3640 -0.0040  0.0841
  109OSM    O1211212   5.422   0.547  10.554  0.2017 -0.1467 -0.0406
  109OSM    C1S11213   5.553   0.545  10.295  0.3906  0.1662 -0.2903
  109OSM    H1S11214   5.626   0.461  10.290 -0.4642 -0.6797  0.8726
  109OSM    H1T11215   5.587   0.612  10.376 -0.4836  1.0988 -0.6683
  109OSM     NF11216   5.698   0.631  10.124 -0.1532 -0.0033 -0.0010
  109OSM    HNF11217   5.722   0.725  10.146  0.7507 -0.5098  1.2617
  109OSM    C2S11218   5.557   0.604  10.155 -0.1504 -0.2772 -0.5629
  109OSM    H2S11219   5.509   0.534  10.083 -0.2487 -2.6002  1.6078
  109OSM    C3S11220   5.472   0.734  10.167  0.6656  0.6088  0.2821
  109OSM    H3S11221   5.518   0.804  10.240 -1.7589  3.6865 -0.9185
  109OSM     O311222   5.333   0.707  10.205 -0.8274  0.3051  0.2119
  109OSM    HO311223   5.340   0.614  10.227 -0.9691  0.4558  0.9377
  109OSM    C4S11224   5.472   0.793  10.033 -0.2931 -0.3361 -0.1363
  109OSM    H4S11225   5.467   0.727   9.945 -1.3138  1.0396 -1.1514
  109OSM    C5S11226   5.476   0.925  10.019 -0.9860 -0.3725 -0.4769
  109OSM    H5S11227   5.486   0.986  10.111 -0.0600 -0.2788 -0.6241
  109OSM    C6S11228   5.494   1.000   9.891 -0.5748 -0.2487  0.3450
  109OSM    H6S11229   5.584   1.065   9.895  0.7809 -1.7912 -1.9240
  109OSM    H6T11230   5.405   1.066   9.881  0.5944  1.0690 -2.6323
  109OSM    C7S11231   5.521   0.918   9.760  0.0743 -0.2658 -0.0856
  109OSM    H7S11232   5.461   0.826   9.742  1.6138 -1.7236  1.6927
  109OSM    H7T11233   5.624   0.876   9.766 -0.6974 -2.2091  0.4599
  109OSM    C8S11234   5.503   1.011   9.636 -0.5618 -0.1986  0.8173
  109OSM    H8S11235   5.454   1.106   9.667 -1.4721 -0.4713  0.2309
  109OSM    H8T11236   5.423   0.971   9.569 -1.5420  0.1637  1.7415
  109OSM    C9S11237   5.637   1.028   9.552  0.3808 -0.0548 -0.2454
  109OSM    H9S11238   5.686   0.935   9.515  0.0006  0.4785 -2.2204
  109OSM    H9T11239   5.710   1.073   9.623  0.2272  0.2225 -0.2609
  109OSM   C10S11240   5.610   1.126   9.440 -0.8864 -0.3818  0.1444
  109OSM   H10S11241   5.708   1.156   9.398 -1.4618  0.8622 -0.3881
  109OSM   H10T11242   5.560   1.216   9.482 -0.2208  0.4965 -0.8992
  109OSM   C11S11243   5.513   1.084   9.326  0.2668  0.4387  0.3634
  109OSM   H11S11244   5.414   1.069   9.374 -0.4425 -0.2409 -1.2426
  109OSM   H11T11245   5.526   0.985   9.278 -2.2958 -0.2773  0.9828
  109OSM   C12S11246   5.494   1.194   9.224  0.5765 -0.4035  0.1274
  109OSM   H12S11247   5.597   1.226   9.200  1.3143 -1.6201  1.4649
  109OSM   H12T11248   5.437   1.282   9.262 -1.1760 -0.5761 -1.9431
  109OSM   C13S11249   5.406   1.155   9.102  0.6306 -0.2003  1.1946
  109OSM   H13S11250   5.409   1.048   9.073  1.3604 -0.1683  1.1287
  109OSM   H13T11251   5.440   1.211   9.013  1.1984  0.2418  1.6768
  109OSM   C14S11252   5.254   1.179   9.119  0.1677 -0.3512  0.6376
  109OSM   H14S11253   5.245   1.290   9.117  2.6768 -0.1084 -1.0093
  109OSM   H14T11254   5.230   1.136   9.219  0.1427  2.0374  1.7234
  109OSM   C15S11255   5.157   1.120   9.016  0.5202 -0.0002 -0.0735
  109OSM   H15S11256   5.057   1.166   9.029  0.3532 -0.8302  1.9831
  109OSM   H15T11257   5.156   1.011   9.040 -0.3480 -0.2017 -0.9714
  109OSM   C16S11258   5.199   1.127   8.868  0.2423 -0.1647  0.5926
  109OSM   H16S11259   5.298   1.079   8.853  1.1136  1.3215  1.2823
  109OSM   H16T11260   5.185   1.231   8.830 -5.0901 -0.4709  1.0711
  109OSM   C17S11261   5.101   1.038   8.784 -0.0564 -0.1620 -0.1357
  109OSM   H17S11262   5.001   1.085   8.798  0.6645  1.6040 -0.5998
  109OSM   H17T11263   5.102   0.932   8.816  0.7560 -0.4377 -1.0306
  109OSM   C18S11264   5.134   1.033   8.636 -0.1706  0.3077  0.9013
  109OSM   H18S11265   5.198   0.945   8.611 -0.5159  0.2906  0.0373
  109OSM   H18T11266   5.180   1.129   8.604  2.4710  0.3028  4.2177
  109OSM   H18U11267   5.045   1.026   8.570 -0.3516 -1.4884  1.2614
  109OSM    C1F11268   5.785   0.540  10.085  0.5341 -0.6122 -0.3439
  109OSM     OF11269   5.753   0.423  10.063 -0.3094  0.3113 -0.0276
  109OSM    C2F11270   5.926   0.593  10.057  0.1655  0.1016  0.1923
  109OSM    H2F11271   5.971   0.607  10.158  0.6643  0.5526 -0.0845
  109OSM    H2G11272   5.914   0.695  10.014 -4.4716 -1.3307 -2.6282
  109OSM    C3F11273   6.028   0.501   9.987  0.7145  0.2141 -0.0580
  109OSM    H3F11274   6.007   0.399  10.027  1.2323  0.4275  0.7657
  109OSM    H3G11275   6.129   0.542  10.008  1.1859 -1.7726  1.8537
  109OSM    C4F11276   6.001   0.487   9.831 -0.1117 -0.2069 -0.2307
  109OSM    H4F11277   5.962   0.590   9.811  0.7866  0.0811 -0.5308
  109OSM    H4G11278   5.910   0.427   9.809 -0.8404  0.1852  1.4927
  109OSM    C5F11279   6.126   0.465   9.754  0.3150  0.5953 -0.2287
  109OSM    H5F11280   6.150   0.357   9.770  0.5013  0.3772 -1.7632
  109OSM    H5G11281   6.199   0.526   9.810 -1.2701  0.3411  2.2499
  109OSM    C6F11282   6.111   0.502   9.605 -0.0241  0.4734 -0.9195
  109OSM    H6F11283   6.098   0.612   9.610 -1.0176  0.2981  1.9897
  109OSM    H6G11284   6.018   0.452   9.569  0.5956 -0.6486 -1.0153
  109OSM    C7F11285   6.229   0.457   9.526  0.0200 -0.0163  0.8704
  109OSM    H7F11286   6.254   0.355   9.562  0.7931 -0.3982 -0.6870
  109OSM    H7G11287   6.313   0.524   9.552 -0.7653  0.3546  2.5898
  109OSM    C8F11288   6.210   0.461   9.373  0.6789 -0.2595  0.7787
  109OSM    H8F11289   6.161   0.560   9.360  0.6692 -0.3877 -0.2471
  109OSM    H8G11290   6.124   0.393   9.357 -0.4406  1.1844  0.5195
  109OSM    C9F11291   6.329   0.427   9.277  0.0796 -0.7110  0.2672
  109OSM    H9F11292   6.382   0.332   9.295  0.1043 -0.8720 -0.6021
  109OSM   C10F11293   6.388   0.511   9.183 -0.6161  0.4186 -0.8236
  109OSM   H10F11294   6.479   0.471   9.136 -0.0700 -0.6131  1.0190
  109OSM   C11F11295   6.330   0.646   9.156  0.7201  0.0042  0.0745
  109OSM   H11F11296   6.399   0.729   9.181  0.9526 -1.1570  3.9910
  109OSM   H11G11297   6.235   0.656   9.213  1.7637  0.1737  1.8472
  109OSM   C12F11298   6.282   0.658   9.004  0.0893  0.1848  0.0527
  109OSM   H12F11299   6.209   0.740   8.989 -1.5650 -1.0537  1.0687
  109OSM   H12G11300   6.230   0.563   8.981  0.1781  0.0477  0.4104
  109OSM   C13F11301   6.397   0.691   8.908 -0.2036  0.4987 -0.2612
  109OSM   H13F11302   6.462   0.602   8.905  1.1316  1.4799 -1.3954
  109OSM   H13G11303   6.460   0.770   8.955  0.0561  1.2586 -1.8104
  109OSM   C14F11304   6.371   0.730   8.763 -0.4151  0.3849 -0.9608
  109OSM   H14F11305   6.316   0.826   8.761 -2.5106 -0.6696  1.1385
  109OSM   H14G11306   6.306   0.660   8.707 -0.8765  2.4018 -3.1036
  109OSM   C15F11307   6.502   0.758   8.678  1.0503 -0.2516 -0.0408
  109OSM   H15F11308   6.559   0.663   8.671  1.4783  0.0763 -1.2585
  109OSM   H15G11309   6.564   0.835   8.729  1.8505 -1.1872  0.4283
  109OSM   C16F11310   6.454   0.798   8.536  0.2632  0.0490  0.4533
  109OSM   H16F11311   6.405   0.898   8.524 -2.0808 -1.0267  0.4576
  109OSM   H16G11312   6.368   0.731   8.515  0.6913 -1.0203  1.9630
  109OSM   C17F11313   6.569   0.775   8.437  0.8331 -0.6961 -0.0570
  109OSM   H17F11314   6.535   0.800   8.334  2.5300 -0.6165 -0.6298
  109OSM   H17G11315   6.595   0.667   8.431  2.4330 -0.3015 -0.5568
  109OSM   C18F11316   6.696   0.857   8.468  0.3463  0.0448  0.1318
  109OSM   H18F11317   6.681   0.963   8.437  0.3167 -0.4276 -1.5898
  109OSM   H18G11318   6.775   0.823   8.398 -0.2578 -0.4822 -0.3066
  109OSM   H18H11319   6.731   0.852   8.573  0.0473  0.6643  0.2689
  110OSM      N11320   1.661   1.723  10.750  0.5126  0.1467  0.2977
  110OSM    C1511321   1.812   1.714  10.723  0.5540 -0.8377 -0.0602
  110OSM   H15A11322   1.833   1.650  10.638  0.4897 -0.5197 -0.3194
  110OSM   H15B11323   1.863   1.661  10.802  0.3474  0.1624  0.7583
  110OSM   H15C11324   1.860   1.809  10.704  1.6020 -1.4616 -0.6141
  110OSM    C1411325   1.628   1.586  10.794  0.2914 -0.2555 -0.8230
  110OSM   H14A11326   1.627   1.526  10.704  0.9957 -0.8461 -0.4447
  110OSM   H14B11327   1.529   1.574  10.837  0.4493 -1.0256 -0.6545
  110OSM   H14C11328   1.695   1.547  10.868 -1.9850 -4.0100 -0.4606
  110OSM    C1311329   1.633   1.811  10.868 -0.4077 -0.8329  0.4964
  110OSM   H13A11330   1.634   1.910  10.825  0.2137 -0.8327  0.5168
  110OSM   H13B11331   1.715   1.811  10.938  1.0323  2.5975 -1.0222
  110OSM   H13C11332   1.542   1.778  10.917 -0.2624 -2.0469  0.0001
  110OSM    C1211333   1.576   1.757  10.632  0.0766  0.4375 -0.0112
  110OSM   H12A11334   1.476   1.770  10.671 -0.6222  2.4160 -2.1943
  110OSM   H12B11335   1.581   1.677  10.560 -1.5663 -0.5992  0.9634
  110OSM    C1111336   1.598   1.881  10.548 -0.9640 -0.6117 -0.2790
  110OSM   H11A11337   1.568   1.878  10.441  2.4547  1.1510 -1.4417
  110OSM   H11B11338   1.705   1.907  10.539 -1.4378  0.9401 -2.1251
  110OSM      P11339   1.382   2.001  10.624  0.3233 -0.2784 -0.4597
  110OSM    O1311340   1.320   1.876  10.677 -0.4113 -0.1712 -0.2582
  110OSM    O1411341   1.354   2.125  10.704  0.3686 -0.6273 -0.3273
  110OSM    O1111342   1.341   2.027  10.471 -0.1610 -0.2243  0.0107
  110OSM    O1211343   1.535   1.987  10.624 -1.0358 -0.0041 -0.3021
  110OSM    C1S11344   1.408   2.133  10.401 -0.0161 -0.1483 -0.0786
  110OSM    H1S11345   1.518   2.119  10.411 -0.0570 -0.5287 -0.1631
  110OSM    H1T11346   1.380   2.233  10.440  2.0307 -0.3775  2.2824
  110OSM     NF11347   1.461   2.214  10.175 -0.2793 -0.6996  0.0544
  110OSM    HNF11348   1.419   2.301  10.151 -2.0558 -1.4303  0.3547
  110OSM    C2S11349   1.372   2.127  10.249  0.0308 -0.5206 -0.8465
  110OSM    H2S11350   1.406   2.023  10.225 -0.7530 -1.7706  2.8690
  110OSM    C3S11351   1.225   2.153  10.231 -0.7470  1.0221 -0.0790
  110OSM    H3S11352   1.193   2.258  10.250  0.3191  1.3339  0.0689
  110OSM     O311353   1.137   2.078  10.317  0.0517 -0.7266 -1.0292
  110OSM    HO311354   1.197   2.041  10.383 -3.0698  0.2366  2.6886
  110OSM    C4S11355   1.196   2.130  10.080  0.6362 -0.7375 -0.3491
  110OSM    H4S11356   1.195   2.225  10.024  0.8784 -0.4660  0.1041
  110OSM    C5S11357   1.179   2.006  10.028 -0.1739 -0.6374  0.4065
  110OSM    H5S11358   1.198   1.915  10.087  2.9132 -0.8344 -0.7256
  110OSM    C6S11359   1.143   1.986   9.888  0.4733 -0.6107  0.2176
  110OSM    H6S11360   1.038   1.950   9.886  0.4479 -0.6111  1.2702
  110OSM    H6T11361   1.210   1.909   9.847  0.5473 -0.4452  0.0238
  110OSM    C7S11362   1.150   2.109   9.793  0.1484  0.0796  0.3169
  110OSM    H7S11363   1.256   2.138   9.782 -0.0663  1.5151  1.6536
  110OSM    H7T11364   1.104   2.195   9.846 -2.0966 -1.4576  1.0434
  110OSM    C8S11365   1.097   2.076   9.650 -0.7373  0.1626 -0.4534
  110OSM    H8S11366   0.993   2.038   9.666  0.4050 -1.7989  3.4710
  110OSM    H8T11367   1.148   1.990   9.601  0.2074 -0.8854  2.1903
  110OSM    C9S11368   1.094   2.194   9.557 -0.4296  0.3155  0.2182
  110OSM    H9S11369   1.198   2.221   9.528  0.5471 -1.9135  1.3916
  110OSM    H9T11370   1.040   2.282   9.597 -0.8330  0.6017 -0.9124
  110OSM   C10S11371   1.027   2.159   9.417  0.2560 -0.6006  0.2911
  110OSM   H10S11372   0.917   2.153   9.434 -0.0427 -2.1291 -1.8655
  110OSM   H10T11373   1.055   2.059   9.380 -0.9482 -0.6916 -0.4257
  110OSM   C11S11374   1.025   2.266   9.302 -0.5574  0.4423  0.2921
  110OSM   H11S11375   1.123   2.261   9.248 -0.7319  2.6255 -0.3061
  110OSM   H11T11376   1.007   2.365   9.348  0.2276  0.2416  1.0515
  110OSM   C12S11377   0.906   2.230   9.207  0.3732 -0.2073 -0.0921
  110OSM   H12S11378   0.888   2.324   9.151 -0.6886 -0.3573 -0.0289
  110OSM   H12T11379   0.819   2.212   9.275 -0.1305  0.9286 -0.4227
  110OSM   C13S11380   0.932   2.116   9.109 -0.0988  0.0220 -0.0869
  110OSM   H13S11381   0.834   2.076   9.077  0.0194 -0.4081  0.0797
  110OSM   H13T11382   1.003   2.040   9.150 -0.6857 -1.4404 -1.6682
  110OSM   C14S11383   0.984   2.174   8.975  0.2992 -0.2875 -0.2682
  110OSM   H14S11384   1.085   2.216   8.990  0.3051  0.5368 -2.2711
  110OSM   H14T11385   0.914   2.255   8.946 -0.9009 -1.0379  0.4297
  110OSM   C15S11386   0.991   2.085   8.854  0.4840 -0.7371 -0.5200
  110OSM   H15S11387   0.887   2.055   8.829  0.0196  0.3706  0.0421
  110OSM   H15T11388   1.052   1.993   8.869  2.8940  0.6845 -1.0942
  110OSM   C16S11389   1.035   2.167   8.727  0.0401  0.7144 -0.2769
  110OSM   H16S11390   1.143   2.189   8.737 -0.0561  0.7688  0.7196
  110OSM   H16T11391   0.976   2.261   8.728  1.4343  1.6181 -0.0128
  110OSM   C17S11392   1.011   2.087   8.603  0.3929  0.2955 -0.0189
  110OSM   H17S11393   0.902   2.092   8.579  1.0312  2.1061 -2.9682
  110OSM   H17T11394   1.045   1.983   8.620 -0.0122  0.3706  1.3881
  110OSM   C18S11395   1.076   2.139   8.474  0.4454 -0.2119  0.5654
  110OSM   H18S11396   1.181   2.159   8.502 -0.0405  1.9074  1.1016
  110OSM   H18T11397   1.037   2.235   8.433  1.1703  0.2340  0.9019
  110OSM   H18U11398   1.068   2.068   8.389  0.3372 -0.0277  0.4203
  110OSM    C1F11399   1.591   2.181  10.148  0.6391 -0.2774 -0.8376
  110OSM     OF11400   1.649   2.080  10.189  0.1523 -0.8903  0.4629
  110OSM    C2F11401   1.666   2.276  10.064  0.4024  0.1257  0.0177
  110OSM    H2F11402   1.758   2.313  10.114 -1.5321  0.8931  3.3230
  110OSM    H2G11403   1.608   2.364  10.028 -0.8498 -0.6591  0.0524
  110OSM    C3F11404   1.713   2.198   9.933  0.0365 -0.0454 -0.4218
  110OSM    H3F11405   1.768   2.104   9.954 -0.4773 -0.1118  0.6940
  110OSM    H3G11406   1.784   2.269   9.886  0.5195 -1.3922 -1.8228
  110OSM    C4F11407   1.595   2.159   9.838 -0.0791  0.9336 -0.5189
  110OSM    H4F11408   1.520   2.240   9.821  0.6293  1.4633 -1.1707
  110OSM    H4G11409   1.537   2.075   9.882 -0.5716  2.0351  1.0396
  110OSM    C5F11410   1.644   2.108   9.702  0.2757  0.0747  0.7180
  110OSM    H5F11411   1.678   2.005   9.721 -0.9845 -0.7573 -1.2017
  110OSM    H5G11412   1.726   2.180   9.681 -1.0160  1.1384 -1.1147
  110OSM    C6F11413   1.542   2.126   9.593 -0.5540 -0.3480  0.0908
  110OSM    H6F11414   1.542   2.236   9.574 -1.9661 -0.2966  0.2678
  110OSM    H6G11415   1.435   2.106   9.617 -1.0736 -0.5255 -2.1259
  110OSM    C7F11416   1.577   2.073   9.449 -0.8640 -0.4380  0.1785
  110OSM    H7F11417   1.585   1.962   9.454 -1.7767 -0.5914 -1.1469
  110OSM    H7G11418   1.679   2.114   9.433 -1.1450  0.7186  1.2229
  110OSM    C8F11419   1.485   2.125   9.336 -0.3659  0.1215  0.5983
  110OSM    H8F11420   1.542   2.132   9.241  0.7186 -1.4085  1.1020
  110OSM    H8G11421   1.462   2.229   9.366  1.4885  0.8552 -0.4107
  110OSM    C9F11422   1.353   2.047   9.320  0.4011  0.0194 -0.3942
  110OSM    H9F11423   1.291   2.046   9.411  0.3242 -0.7762 -0.4485
  110OSM   C10F11424   1.318   1.985   9.205  0.1645  0.6140 -0.1080
  110OSM   H10F11425   1.219   1.936   9.196  1.2351 -1.3859 -1.5966
  110OSM   C11F11426   1.399   1.982   9.081  0.5478  0.2595 -0.0457
  110OSM   H11F11427   1.501   1.946   9.106  0.0543 -0.7698  0.5866
  110OSM   H11G11428   1.427   2.083   9.045 -0.7618  0.6677  0.0362
  110OSM   C12F11429   1.336   1.891   8.984 -0.0265  0.2506  0.0099
  110OSM   H12F11430   1.236   1.931   8.958 -0.2205  0.2916  0.7865
  110OSM   H12G11431   1.314   1.789   9.023 -0.8008 -0.0960 -1.2717
  110OSM   C13F11432   1.406   1.871   8.853  0.1262  0.3328  0.7362
  110OSM   H13F11433   1.496   1.806   8.862 -0.3189 -0.5821 -0.9749
  110OSM   H13G11434   1.429   1.973   8.816 -2.4135  1.0548  0.9930
  110OSM   C14F11435   1.326   1.813   8.737  0.3356  0.3127  0.5567
  110OSM   H14F11436   1.226   1.860   8.748 -0.1603 -0.1012 -1.6593
  110OSM   H14G11437   1.310   1.704   8.747  1.8707  0.0903  0.8578
  110OSM   C15F11438   1.384   1.837   8.590 -0.1710  0.2327 -0.1822
  110OSM   H15F11439   1.494   1.817   8.592 -0.0519  0.7348 -1.0804
  110OSM   H15G11440   1.389   1.944   8.561 -0.8379  0.1194 -0.7353
  110OSM   C16F11441   1.320   1.757   8.483 -0.5001 -0.3234  0.5286
  110OSM   H16F11442   1.210   1.774   8.486 -0.5308 -0.3274 -0.2746
  110OSM   H16G11443   1.347   1.650   8.496  1.1486  0.0464  0.3287
  110OSM   C17F11444   1.370   1.793   8.339 -0.1889 -0.2415 -0.5788
  110OSM   H17F11445   1.480   1.779   8.333 -0.3336 -1.1302 -1.2949
  110OSM   H17G11446   1.343   1.896   8.307 -2.8271 -0.0809  1.7570
  110OSM   C18F11447   1.310   1.706   8.230  0.3405 -0.1696  1.3585
  110OSM   H18F11448   1.201   1.719   8.214 -0.0670 -0.7372  3.3909
  110OSM   H18G11449   1.338   1.599   8.227  0.2442 -0.2140 -1.6733
  110OSM   H18H11450   1.355   1.743   8.135 -0.2928 -1.0854  0.6848
  111OSM      N11451   1.858   4.318  11.098 -0.0546 -0.2847 -0.2770
  111OSM    C1511452   1.949   4.202  11.083  0.2158  0.8710  0.3984
  111OSM   H15A11453   2.049   4.242  11.088  0.3872  0.3541  1.3588
  111OSM   H15B11454   1.925   4.144  10.995 -0.0325  2.3238 -0.5207
  111OSM   H15C11455   1.939   4.129  11.162 -0.7746  1.1388  0.5280
  111OSM    C1411456   1.710   4.285  11.115  0.1239  0.1066  0.2112
  111OSM   H14A11457   1.694   4.222  11.201  1.2146  0.4397  0.6770
  111OSM   H14B11458   1.670   4.228  11.033 -2.1131  0.4819  0.9729
  111OSM   H14C11459   1.657   4.379  11.117 -2.1487 -1.0794 -0.3987
  111OSM    C1311460   1.888   4.389  11.218  0.0153  0.2762 -0.1698
  111OSM   H13A11461   1.827   4.477  11.230 -2.4183 -1.5817  1.9269
  111OSM   H13B11462   1.990   4.424  11.225 -1.0817  3.8522  0.0266
  111OSM   H13C11463   1.872   4.327  11.304  0.7964  2.0906  1.3664
  111OSM    C1211464   1.880   4.399  10.973  0.1902 -0.2222  0.2053
  111OSM   H12A11465   1.984   4.424  10.982  0.3403 -1.4642  3.4012
  111OSM   H12B11466   1.814   4.484  10.988 -1.4247 -1.3263 -0.4349
  111OSM    C1111467   1.846   4.323  10.843 -0.1927 -0.3061 -0.0249
  111OSM   H11A11468   1.941   4.275  10.811 -0.0452 -1.4340  1.9551
  111OSM   H11B11469   1.812   4.402  10.773 -2.2984 -0.4525  0.7463
  111OSM      P11470   1.695   4.159  10.713  0.6665 -0.2164 -0.3888
  111OSM    O1311471   1.765   4.030  10.704 -0.4675 -0.1671  0.0308
  111OSM    O1411472   1.548   4.155  10.732 -0.6212  0.1509  0.2964
  111OSM    O1111473   1.731   4.252  10.597  0.3200  0.4540  0.3826
  111OSM    O1211474   1.742   4.231  10.846  0.1282  0.3706  0.7015
  111OSM    C1S11475   1.856   4.251  10.529 -0.2805 -0.3329  0.0134
  111OSM    H1S11476   1.926   4.174  10.568  0.7975  0.1573 -0.8976
  111OSM    H1T11477   1.903   4.349  10.556 -1.9942  0.5764 -0.1848
  111OSM     NF11478   1.953   4.197  10.301  0.2897  0.4731 -0.2054
  111OSM    HNF11479   2.003   4.272  10.258 -0.0932  0.9128  0.0945
  111OSM    C2S11480   1.833   4.236  10.376  0.5680 -0.4057 -0.3589
  111OSM    H2S11481   1.764   4.153  10.353 -0.4088  0.9616 -2.7242
  111OSM    C3S11482   1.762   4.366  10.322 -0.4569 -1.1259  0.1378
  111OSM    H3S11483   1.845   4.439  10.319  0.7852 -2.5149 -2.2405
  111OSM     O311484   1.659   4.404  10.410  0.0503 -0.0863 -0.1379
  111OSM    HO311485   1.676   4.348  10.486  0.4292 -0.6392 -0.6190
  111OSM    C4S11486   1.707   4.350  10.186  1.1413  0.2381 -0.1337
  111OSM    H4S11487   1.610   4.298  10.187  1.6988 -0.9027  2.1040
  111OSM    C5S11488   1.769   4.385  10.071 -0.3053 -0.0722  0.1710
  111OSM    H5S11489   1.870   4.428  10.071  0.3241 -1.3273 -2.5110
  111OSM    C6S11490   1.699   4.372   9.938 -0.5374  0.0679  0.0185
  111OSM    H6S11491   1.700   4.467   9.880  0.7231 -0.4925 -0.9231
  111OSM    H6T11492   1.595   4.334   9.940 -0.0767 -1.2787  2.4517
  111OSM    C7S11493   1.780   4.270   9.854 -0.6129  1.1182  0.7159
  111OSM    H7S11494   1.786   4.172   9.904  0.2782 -0.3377 -2.0283
  111OSM    H7T11495   1.883   4.312   9.844 -0.7875  1.3530 -0.2442
  111OSM    C8S11496   1.716   4.247   9.716 -0.0877 -0.0385 -0.1504
  111OSM    H8S11497   1.698   4.343   9.661  1.0295 -0.3111 -1.0221
  111OSM    H8T11498   1.618   4.198   9.732 -0.9193  1.9593  1.3936
  111OSM    C9S11499   1.811   4.157   9.636 -0.4186 -0.8038  0.3671
  111OSM    H9S11500   1.840   4.066   9.694  2.9934  0.7560  1.3358
  111OSM    H9T11501   1.899   4.223   9.625 -0.8778 -0.2702 -0.1669
  111OSM   C10S11502   1.746   4.106   9.507 -0.0712 -0.4421 -0.2012
  111OSM   H10S11503   1.653   4.047   9.525 -0.9403  1.2550  1.1573
  111OSM   H10T11504   1.824   4.041   9.460  2.3459  1.0749  1.4952
  111OSM   C11S11505   1.737   4.220   9.401  0.2249 -0.3428  0.4822
  111OSM   H11S11506   1.839   4.254   9.372  0.4650 -1.4298 -0.0139
  111OSM   H11T11507   1.683   4.302   9.453  1.3956  0.4285  0.5040
  111OSM   C12S11508   1.655   4.179   9.278 -0.6050  0.0448 -0.2266
  111OSM   H12S11509   1.668   4.257   9.201 -0.2142 -0.0298 -0.2354
  111OSM   H12T11510   1.550   4.168   9.316  0.5009 -1.0874  2.8854
  111OSM   C13S11511   1.696   4.047   9.208  0.5848  0.3958  0.2594
  111OSM   H13S11512   1.669   3.967   9.280 -1.5199 -0.6490 -1.5713
  111OSM   H13T11513   1.803   4.070   9.189  0.1515  0.7958 -1.9323
  111OSM   C14S11514   1.627   4.030   9.068 -0.0838 -0.3123 -0.6101
  111OSM   H14S11515   1.622   4.129   9.018 -1.4552  0.0635  0.1994
  111OSM   H14T11516   1.521   3.998   9.080 -0.9085  2.2611 -0.4343
  111OSM   C15S11517   1.704   3.932   8.982  1.5288 -0.5182  0.8230
  111OSM   H15S11518   1.767   3.868   9.047  2.0784 -4.2471 -2.9228
  111OSM   H15T11519   1.780   3.991   8.927 -0.1750  1.6875  0.7146
  111OSM   C16S11520   1.623   3.857   8.878 -0.1520 -0.0853 -0.1942
  111OSM   H16S11521   1.584   3.930   8.804  0.5722  0.5806  0.0674
  111OSM   H16T11522   1.539   3.812   8.935 -0.0153  1.2324  1.0855
  111OSM   C17S11523   1.709   3.753   8.804 -0.3109  0.1576  0.2242
  111OSM   H17S11524   1.720   3.663   8.869 -0.7861  0.6350  0.9867
  111OSM   H17T11525   1.806   3.805   8.787  0.5395 -2.1778 -2.9682
  111OSM   C18S11526   1.653   3.694   8.670  0.1221 -0.5250 -0.5659
  111OSM   H18S11527   1.641   3.777   8.597 -0.2200 -1.0072 -1.0610
  111OSM   H18T11528   1.560   3.635   8.686 -2.1933  3.3057  1.6212
  111OSM   H18U11529   1.719   3.620   8.620 -0.7867 -2.4290  0.8975
  111OSM    C1F11530   1.986   4.067  10.299 -0.8154 -0.3795  0.2888
  111OSM     OF11531   1.931   3.979  10.367 -0.5044 -0.1410  0.4733
  111OSM    C2F11532   2.097   4.035  10.207 -0.1023 -0.3719  0.0909
  111OSM    H2F11533   2.189   4.048  10.267  0.5796 -0.2533 -0.9577
  111OSM    H2G11534   2.111   4.104  10.121 -1.7648  1.7362  1.3989
  111OSM    C3F11535   2.080   3.889  10.153  0.5247  0.2857  0.6636
  111OSM    H3F11536   1.986   3.883  10.095  0.5424 -0.4216  0.7023
  111OSM    H3G11537   2.079   3.816  10.236  3.8187  0.7814  1.2810
  111OSM    C4F11538   2.194   3.849  10.068  0.1226 -0.9109 -0.0761
  111OSM    H4F11539   2.288   3.850  10.128 -0.2348  1.9028  0.5824
  111OSM    H4G11540   2.210   3.929   9.992 -0.7765 -0.7977 -0.1545
  111OSM    C5F11541   2.165   3.722   9.990 -0.0150 -0.0862  0.5983
  111OSM    H5F11542   2.055   3.709   9.990 -0.1498  0.2297  3.7437
  111OSM    H5G11543   2.205   3.638  10.050  0.6158  1.0212  1.7903
  111OSM    C6F11544   2.236   3.705   9.852 -0.2281 -1.0012 -0.3551
  111OSM    H6F11545   2.234   3.602   9.811  2.1609 -1.4765  0.5447
  111OSM    H6G11546   2.342   3.735   9.866 -0.0190 -2.2408  0.9668
  111OSM    C7F11547   2.174   3.786   9.737  0.3084 -1.2183 -0.3275
  111OSM    H7F11548   2.232   3.756   9.648  2.5152 -1.2591  1.0442
  111OSM    H7G11549   2.188   3.895   9.756 -2.0349 -0.7228 -1.0302
  111OSM    C8F11550   2.015   3.786   9.722 -0.5985 -0.2192 -0.0871
  111OSM    H8F11551   1.980   3.874   9.663  0.1460 -1.2847 -2.2493
  111OSM    H8G11552   1.982   3.794   9.827  0.3529  1.9837  0.0826
  111OSM    C9F11553   1.976   3.664   9.641 -0.1754  0.5009  0.4559
  111OSM    H9F11554   1.923   3.587   9.699 -2.5299  2.0283  0.4837
  111OSM   C10F11555   2.002   3.638   9.512 -0.7158  0.3749  0.2305
  111OSM   H10F11556   1.960   3.545   9.470 -0.4708  1.3090 -2.2663
  111OSM   C11F11557   2.085   3.720   9.409  0.3867  0.3616  0.1854
  111OSM   H11F11558   2.179   3.667   9.381  0.1648 -0.5133  1.0420
  111OSM   H11G11559   2.123   3.810   9.462  2.8548 -0.7839  0.5242
  111OSM   C12F11560   2.000   3.747   9.285 -0.4996  0.1401 -0.0224
  111OSM   H12F11561   2.049   3.823   9.220  0.3890  0.5743  1.1286
  111OSM   H12G11562   1.903   3.789   9.318 -1.2167 -1.3104 -0.1980
  111OSM   C13F11563   1.985   3.628   9.186  0.2356  0.1946 -0.4943
  111OSM   H13F11564   1.896   3.652   9.124  1.7439  1.7438 -2.1668
  111OSM   H13G11565   1.949   3.539   9.241 -1.1865  1.2675  0.4080
  111OSM   C14F11566   2.126   3.590   9.121 -0.0388  0.1074  0.1326
  111OSM   H14F11567   2.194   3.560   9.203 -0.2330 -0.2828  0.1531
  111OSM   H14G11568   2.178   3.676   9.074  1.1204 -0.8494 -0.3946
  111OSM   C15F11569   2.119   3.475   9.024  0.0805 -0.3189  0.8755
  111OSM   H15F11570   2.210   3.473   8.961 -0.5318  0.6755 -0.0894
  111OSM   H15G11571   2.046   3.509   8.947  1.3308 -3.2458 -1.8424
  111OSM   C16F11572   2.080   3.335   9.072 -0.0882 -0.9648  0.0028
  111OSM   H16F11573   2.024   3.358   9.166 -1.4104 -0.8363 -0.7829
  111OSM   H16G11574   2.179   3.288   9.087  1.4597  2.1659  0.4667
  111OSM   C17F11575   1.989   3.256   8.973 -0.4319 -0.2709  0.5361
  111OSM   H17F11576   2.029   3.276   8.871 -1.1835 -0.8278  0.1165
  111OSM   H17G11577   1.880   3.278   8.980 -0.8532 -2.1881  0.6014
  111OSM   C18F11578   2.010   3.108   9.003 -0.1172 -0.3285  0.4980
  111OSM   H18F11579   2.118   3.086   8.988 -0.0697 -0.2308  0.6914
  111OSM   H18G11580   1.954   3.054   8.924  1.6461  1.8491 -2.4514
  111OSM   H18H11581   1.966   3.077   9.100  1.7604  0.4168  1.6435
  112OSM      N11582   2.599   3.196  10.870 -0.0228 -0.9995  0.5322
  112OSM    C1511583   2.661   3.277  10.753  0.9055  0.4197  0.3794
  112OSM   H15A11584   2.618   3.260  10.656  0.7464 -0.7092  0.6256
  112OSM   H15B11585   2.768   3.265  10.741  0.8337 -0.6091  0.6140
  112OSM   H15C11586   2.637   3.379  10.779  1.2090  0.1700  1.7427
  112OSM    C1411587   2.704   3.175  10.971 -0.3616 -0.4539 -0.0575
  112OSM   H14A11588   2.781   3.110  10.931  0.6307  1.3217 -1.1646
  112OSM   H14B11589   2.658   3.132  11.059 -2.3044 -0.4336 -1.0086
  112OSM   H14C11590   2.748   3.269  11.000 -1.3430 -0.4704  1.5794
  112OSM    C1311591   2.480   3.285  10.914 -0.8018  0.9158 -0.0160
  112OSM   H13A11592   2.431   3.252  11.005 -0.9518  1.7021  0.1976
  112OSM   H13B11593   2.408   3.280  10.834  0.4838 -0.9087 -1.1222
  112OSM   H13C11594   2.520   3.381  10.941  2.9823 -0.1534 -1.2657
  112OSM    C1211595   2.543   3.065  10.823 -0.1078  0.6795 -0.0664
  112OSM   H12A11596   2.484   3.026  10.904 -2.3640  1.1637 -1.3690
  112OSM   H12B11597   2.620   2.991  10.808  0.7758  1.5799 -0.0992
  112OSM    C1111598   2.434   3.050  10.703 -0.7752 -0.4408  0.1423
  112OSM   H11A11599   2.433   2.944  10.670  0.9497 -0.7932  1.0619
  112OSM   H11B11600   2.468   3.101  10.611 -3.3353 -1.1486 -1.2876
  112OSM      P11601   2.228   3.003  10.836 -0.2888 -0.0554 -0.1387
  112OSM    O1311602   2.315   2.937  10.935 -0.2104  0.2407 -0.0640
  112OSM    O1411603   2.109   3.066  10.889 -0.1599  0.3238 -0.3273
  112OSM    O1111604   2.185   2.881  10.742  0.1835 -0.1579 -0.2173
  112OSM    O1211605   2.304   3.107  10.745 -0.6995  0.3200  0.1036
  112OSM    C1S11606   2.108   2.903  10.616  0.6830  0.4089 -0.0319
  112OSM    H1S11607   2.037   2.988  10.623 -0.2453 -0.3563 -0.0869
  112OSM    H1T11608   2.034   2.821  10.609 -0.2665  1.2202  0.3893
  112OSM     NF11609   2.133   2.918  10.378 -0.4296  0.9036  0.1764
  112OSM    HNF11610   2.112   2.844  10.314  1.6057  2.4032 -2.4350
  112OSM    C2S11611   2.202   2.886  10.496 -0.2774 -0.2144  0.0993
  112OSM    H2S11612   2.290   2.954  10.499 -0.6453  0.3160 -0.8805
  112OSM    C3S11613   2.270   2.742  10.488  0.4048 -0.7501  0.0062
  112OSM    H3S11614   2.188   2.669  10.470  0.6028 -0.8209 -0.6191
  112OSM     O311615   2.338   2.707  10.609 -0.4149  0.1625  0.2348
  112OSM    HO311616   2.320   2.782  10.666 -1.1296 -2.0585  3.1324
  112OSM    C4S11617   2.350   2.742  10.362  0.2651 -0.0069  0.1109
  112OSM    H4S11618   2.293   2.686  10.286 -1.3385 -0.6693  1.7295
  112OSM    C5S11619   2.479   2.802  10.346  0.5530  0.4661 -0.0131
  112OSM    H5S11620   2.532   2.843  10.434  3.6534  0.4853 -1.7264
  112OSM    C6S11621   2.551   2.809  10.217  0.3117  0.1796 -0.8241
  112OSM    H6S11622   2.652   2.765  10.232 -0.3455 -0.3448  3.0161
  112OSM    H6T11623   2.563   2.918  10.198 -0.3337  0.4454  0.1936
  112OSM    C7S11624   2.487   2.746  10.092 -0.0121  0.1630  0.1173
  112OSM    H7S11625   2.383   2.784  10.084 -0.1603 -0.6274 -3.7071
  112OSM    H7T11626   2.483   2.638  10.118 -0.1413  0.4182  1.2243
  112OSM    C8S11627   2.553   2.779   9.963 -0.4698  0.7506  0.0258
  112OSM    H8S11628   2.646   2.719   9.960 -0.6612  0.4746 -2.0562
  112OSM    H8T11629   2.578   2.887   9.970 -0.4974  0.8307 -0.8900
  112OSM    C9S11630   2.479   2.746   9.832 -0.1286  0.1264 -0.8068
  112OSM    H9S11631   2.536   2.803   9.756  2.8186  1.7959  2.4024
  112OSM    H9T11632   2.373   2.777   9.846  0.2651  1.2308 -0.1853
  112OSM   C10S11633   2.492   2.597   9.789 -0.6033  0.0854 -0.8006
  112OSM   H10S11634   2.433   2.543   9.866 -1.8938  2.2094 -0.1971
  112OSM   H10T11635   2.603   2.589   9.783 -0.7373 -1.9653 -1.1407
  112OSM   C11S11636   2.439   2.562   9.648  0.3964  0.1930 -0.6929
  112OSM   H11S11637   2.329   2.546   9.648  0.3189  0.5339 -2.5176
  112OSM   H11T11638   2.489   2.470   9.611  0.2293 -0.1451 -0.0823
  112OSM   C12S11639   2.454   2.668   9.535  0.5729  0.9376  0.5648
  112OSM   H12S11640   2.562   2.686   9.518  0.1774  0.5245 -3.3933
  112OSM   H12T11641   2.411   2.766   9.562  0.7645  0.7807  1.4551
  112OSM   C13S11642   2.415   2.615   9.394  0.2123 -0.2178 -0.1671
  112OSM   H13S11643   2.307   2.589   9.393  0.2315 -0.2891 -0.7521
  112OSM   H13T11644   2.479   2.528   9.367  0.5727  0.5994 -2.1600
  112OSM   C14S11645   2.449   2.713   9.283 -0.2401 -0.7865  0.1938
  112OSM   H14S11646   2.555   2.745   9.289 -0.1035 -0.2850 -2.9309
  112OSM   H14T11647   2.383   2.802   9.294 -0.0321 -0.8084  1.8202
  112OSM   C15S11648   2.435   2.640   9.146 -0.2053 -0.3819  0.4618
  112OSM   H15S11649   2.355   2.563   9.158  1.6800 -2.5201  0.1094
  112OSM   H15T11650   2.520   2.573   9.121 -0.6655 -0.3577 -1.3247
  112OSM   C16S11651   2.401   2.738   9.034  0.0215  0.2456  0.2485
  112OSM   H16S11652   2.466   2.827   9.047  0.3931  0.3958 -2.2767
  112OSM   H16T11653   2.294   2.768   9.041  0.1165  1.1514 -1.7159
  112OSM   C17S11654   2.412   2.680   8.896  0.2608 -0.4358  0.0701
  112OSM   H17S11655   2.371   2.576   8.896  0.1707 -0.4009 -0.2020
  112OSM   H17T11656   2.522   2.679   8.876  0.3777  1.2118  0.4797
  112OSM   C18S11657   2.340   2.770   8.791 -0.1941  0.3852 -0.0272
  112OSM   H18S11658   2.233   2.786   8.815  0.1470  0.3585  1.7056
  112OSM   H18T11659   2.348   2.734   8.686 -0.1362 -2.4629  0.8526
  112OSM   H18U11660   2.391   2.868   8.798  1.1977 -0.2995 -0.0212
  112OSM    C1F11661   2.074   3.042  10.365 -0.2613  0.3345  0.0385
  112OSM     OF11662   2.102   3.135  10.439  0.2467  0.5067  0.2695
  112OSM    C2F11663   1.958   3.059  10.276 -0.0775 -0.3473 -0.0409
  112OSM    H2F11664   1.868   3.097  10.329 -0.7241 -1.9148  0.0383
  112OSM    H2G11665   1.919   2.968  10.225 -1.5582 -0.2614  0.8641
  112OSM    C3F11666   1.997   3.146  10.151 -0.2952  0.1131  0.7323
  112OSM    H3F11667   2.081   3.099  10.096 -0.9191  0.3616 -0.4697
  112OSM    H3G11668   2.036   3.247  10.178 -1.5008  0.0916  2.8266
  112OSM    C4F11669   1.895   3.177  10.036  0.0657 -0.5662  0.2718
  112OSM    H4F11670   1.806   3.235  10.067 -1.0472 -1.6303 -0.8321
  112OSM    H4G11671   1.867   3.075  10.001 -0.1593 -0.0114 -1.2066
  112OSM    C5F11672   1.969   3.259   9.929  0.3391 -0.8638 -0.6220
  112OSM    H5F11673   2.075   3.234   9.911  0.6863  0.4691 -0.5107
  112OSM    H5G11674   1.968   3.362   9.971  1.2496 -0.6018 -1.2354
  112OSM    C6F11675   1.899   3.259   9.792 -0.5514  0.3547 -0.1349
  112OSM    H6F11676   1.937   3.345   9.733 -1.6399  0.4032 -0.7912
  112OSM    H6G11677   1.790   3.269   9.810 -0.6416 -3.0154  2.0387
  112OSM    C7F11678   1.934   3.132   9.716  0.5498  0.2876 -0.3617
  112OSM    H7F11679   1.885   3.041   9.757  0.4298  0.1150 -0.8892
  112OSM    H7G11680   2.044   3.121   9.728  0.4708  1.5606  2.6968
  112OSM    C8F11681   1.911   3.133   9.564  0.5172 -0.0502  0.6709
  112OSM    H8F11682   1.942   3.034   9.523  0.0986 -1.0519  2.6403
  112OSM    H8G11683   1.989   3.202   9.525  2.0102 -1.7799  0.4640
  112OSM    C9F11684   1.768   3.165   9.534 -0.5131  0.8699 -0.4003
  112OSM    H9F11685   1.737   3.256   9.587 -0.0320  0.7451  0.1087
  112OSM   C10F11686   1.686   3.097   9.459  0.5789 -0.2824  0.0764
  112OSM   H10F11687   1.586   3.137   9.441  0.8734  0.2649 -0.3673
  112OSM   C11F11688   1.720   2.975   9.376 -0.4087 -0.8666  0.0063
  112OSM   H11F11689   1.688   2.879   9.422 -0.0134 -1.4251 -0.8529
  112OSM   H11G11690   1.829   2.959   9.367 -0.4711 -1.4402  0.2454
  112OSM   C12F11691   1.657   2.989   9.239  0.1807 -0.0767  0.4015
  112OSM   H12F11692   1.674   3.094   9.204  0.3140  0.5230  2.1492
  112OSM   H12G11693   1.548   2.971   9.240  0.4956 -2.2442  0.1400
  112OSM   C13F11694   1.720   2.891   9.142  0.7212 -0.2373 -0.1327
  112OSM   H13F11695   1.684   2.786   9.154 -0.5664  0.0790 -1.0732
  112OSM   H13G11696   1.830   2.887   9.160  1.3516 -0.9691 -3.5084
  112OSM   C14F11697   1.703   2.931   8.997 -0.0166  0.3340  0.1362
  112OSM   H14F11698   1.748   3.024   8.956  1.0781 -0.2687 -0.0622
  112OSM   H14G11699   1.594   2.937   8.977 -0.1849 -1.8659  0.1824
  112OSM   C15F11700   1.749   2.821   8.906 -0.4035 -0.0557 -0.3534
  112OSM   H15F11701   1.720   2.724   8.953 -0.3345  1.2546  2.6224
  112OSM   H15G11702   1.860   2.821   8.909 -0.3913 -0.2216 -0.7057
  112OSM   C16F11703   1.689   2.833   8.764  0.3743  0.4028 -0.4362
  112OSM   H16F11704   1.730   2.919   8.708 -0.6234  1.7909  0.8860
  112OSM   H16G11705   1.580   2.842   8.781 -0.1794 -2.6483 -1.6565
  112OSM   C17F11706   1.719   2.705   8.689  0.3875 -0.1048 -0.1331
  112OSM   H17F11707   1.653   2.713   8.600  0.4718  0.5277 -0.1455
  112OSM   H17G11708   1.697   2.617   8.752  0.0269  0.0184 -0.0836
  112OSM   C18F11709   1.857   2.692   8.640 -0.3043 -0.3211 -0.1500
  112OSM   H18F11710   1.863   2.606   8.570  0.7856 -1.9010  1.7919
  112OSM   H18G11711   1.933   2.676   8.719 -2.4900 -0.3090  2.0756
  112OSM   H18H11712   1.897   2.769   8.570  2.4097 -2.9327 -1.6631
  113OSM      N11713   1.418   6.524  10.966 -0.4506  0.1530  0.0000
  113OSM    C1511714   1.537   6.437  10.986 -0.5367  0.6852  0.1802
  113OSM   H15A11715   1.546   6.378  11.076  1.2656  1.2072  0.3811
  113OSM   H15B11716   1.628   6.493  10.970  0.8990 -1.9499 -1.5690
  113OSM   H15C11717   1.538   6.368  10.903  0.1606 -1.7317  2.0751
  113OSM    C1411718   1.299   6.458  11.033 -0.2379 -0.0611 -0.7828
  113OSM   H14A11719   1.254   6.376  10.978 -1.1381  1.0532 -1.7691
  113OSM   H14B11720   1.217   6.529  11.028  0.1151  0.5588  1.2948
  113OSM   H14C11721   1.309   6.440  11.139 -3.2352 -2.1881 -0.7305
  113OSM    C1311722   1.450   6.646  11.044  0.3201 -0.0687  0.1872
  113OSM   H13A11723   1.369   6.717  11.056  0.7096  0.2241  1.1823
  113OSM   H13B11724   1.531   6.702  11.002 -1.8224  2.6348 -0.6544
  113OSM   H13C11725   1.473   6.616  11.146 -1.4746 -1.2642  0.2867
  113OSM    C1211726   1.392   6.575  10.825  0.0700 -0.5904  0.1609
  113OSM   H12A11727   1.372   6.491  10.760 -0.9136  0.3015 -0.7237
  113OSM   H12B11728   1.478   6.627  10.786 -0.1461 -0.6122 -0.3556
  113OSM    C1111729   1.277   6.669  10.804  0.2970 -0.4044 -0.1527
  113OSM   H11A11730   1.280   6.710  10.701 -1.4857 -0.4121 -0.2314
  113OSM   H11B11731   1.292   6.758  10.870 -0.2342  0.2525 -0.9014
  113OSM      P11732   1.080   6.508  10.739  0.0750  0.0393  0.1098
  113OSM    O1311733   1.177   6.472  10.639  0.4747 -0.1800  0.1994
  113OSM    O1411734   1.007   6.399  10.814  0.1141  0.2959  0.4249
  113OSM    O1111735   0.960   6.598  10.677 -0.1367 -0.6186  0.1414
  113OSM    O1211736   1.151   6.614  10.836  0.3896 -0.3823  0.1517
  113OSM    C1S11737   0.992   6.678  10.561  0.5753  1.1344 -0.9797
  113OSM    H1S11738   1.098   6.710  10.559  0.1601  2.9993  1.7036
  113OSM    H1T11739   0.941   6.776  10.564 -1.1000  0.3014 -1.1676
  113OSM     NF11740   1.009   6.711  10.322 -0.5132 -0.3566 -0.0850
  113OSM    HNF11741   0.944   6.755  10.261  1.2766  1.9271 -0.4750
  113OSM    C2S11742   0.964   6.620  10.421 -0.3875 -0.0651  0.1207
  113OSM    H2S11743   1.037   6.536  10.425  1.8137  1.7382 -0.0541
  113OSM    C3S11744   0.823   6.568  10.414 -0.3515  0.1560 -0.1781
  113OSM    H3S11745   0.755   6.654  10.434  1.2882  1.3476  0.4384
  113OSM     O311746   0.801   6.471  10.520  0.3809  0.0193  0.0873
  113OSM    HO311747   0.864   6.492  10.589  0.6503 -0.8946  0.1273
  113OSM    C4S11748   0.793   6.496  10.279 -0.1407 -0.3153 -1.2162
  113OSM    H4S11749   0.871   6.429  10.239  0.2461 -0.0888 -0.8597
  113OSM    C5S11750   0.678   6.515  10.207  0.1782  0.0879 -0.2291
  113OSM    H5S11751   0.612   6.595  10.244 -1.1856 -0.8905 -0.4804
  113OSM    C6S11752   0.667   6.455  10.070 -0.5580 -0.4598 -0.9359
  113OSM    H6S11753   0.642   6.537  10.000 -0.8888  3.2827  3.0893
  113OSM    H6T11754   0.587   6.378  10.068 -2.0097  0.6154  3.3542
  113OSM    C7S11755   0.794   6.381  10.005  0.6029  0.2791 -0.0979
  113OSM    H7S11756   0.819   6.296  10.072 -2.3743 -0.4278  0.2916
  113OSM    H7T11757   0.868   6.462   9.991 -1.6117  2.7303  1.4977
  113OSM    C8S11758   0.757   6.312   9.877 -0.3134 -0.6306  0.3545
  113OSM    H8S11759   0.718   6.394   9.814  0.1875 -0.9228 -0.3461
  113OSM    H8T11760   0.680   6.233   9.893 -0.9754 -0.0385  0.1313
  113OSM    C9S11761   0.883   6.255   9.814 -0.6317  1.0668  0.3070
  113OSM    H9S11762   0.900   6.160   9.869 -3.0276  0.9996  1.0566
  113OSM    H9T11763   0.971   6.321   9.830 -1.3487  1.7306  1.6475
  113OSM   C10S11764   0.850   6.224   9.664  0.4294  0.5021  0.2457
  113OSM   H10S11765   0.792   6.310   9.625 -1.7837 -1.7312 -1.8272
  113OSM   H10T11766   0.784   6.135   9.660  2.4045 -1.0171 -1.4481
  113OSM   C11S11767   0.976   6.186   9.578  0.9532 -0.1993  0.1830
  113OSM   H11S11768   1.013   6.083   9.595  1.8128  0.0981  0.1653
  113OSM   H11T11769   1.062   6.254   9.595  0.4154  1.1103 -1.8448
  113OSM   C12S11770   0.953   6.198   9.427 -0.3348  0.1851  0.4709
  113OSM   H12S11771   0.942   6.305   9.402 -1.5997  0.1932  1.0019
  113OSM   H12T11772   0.849   6.171   9.399 -0.5023  1.9662 -0.7878
  113OSM   C13S11773   1.052   6.127   9.336 -0.2965 -0.2099 -0.6506
  113OSM   H13S11774   1.047   6.017   9.354 -0.9132 -0.4432 -2.1471
  113OSM   H13T11775   1.157   6.147   9.366 -1.0694  1.3642  1.2530
  113OSM   C14S11776   1.026   6.131   9.183  0.4659  0.4626  0.4827
  113OSM   H14S11777   0.917   6.143   9.164  0.5245  0.7883  0.3427
  113OSM   H14T11778   1.056   6.031   9.145 -0.3639 -0.8325  3.0643
  113OSM   C15S11779   1.095   6.247   9.110  0.7534  0.5937 -0.4893
  113OSM   H15S11780   1.200   6.248   9.147  0.5756  0.0294  0.0409
  113OSM   H15T11781   1.069   6.350   9.143  2.0429  0.5565  0.7212
  113OSM   C16S11782   1.089   6.232   8.954  0.2041 -1.0276  0.2746
  113OSM   H16S11783   0.989   6.260   8.913  1.0958 -0.1706 -1.4643
  113OSM   H16T11784   1.107   6.126   8.927 -1.7367 -1.2006 -0.5127
  113OSM   C17S11785   1.205   6.307   8.889  0.0276  0.1384  0.4336
  113OSM   H17S11786   1.302   6.278   8.934  0.7217  0.7200 -0.6375
  113OSM   H17T11787   1.180   6.413   8.913 -0.2683  0.1296  0.1721
  113OSM   C18S11788   1.203   6.281   8.737  0.3640 -0.2895  0.4687
  113OSM   H18S11789   1.101   6.311   8.704  0.3024  0.6043  1.3996
  113OSM   H18T11790   1.227   6.178   8.702  0.1625  0.2955 -1.4762
  113OSM   H18U11791   1.284   6.348   8.702  3.3689 -2.9045  1.9542
  113OSM    C1F11792   1.134   6.752  10.309 -0.3825  0.4059  0.1552
  113OSM     OF11793   1.225   6.685  10.358 -0.0558  0.1264 -0.2313
  113OSM    C2F11794   1.160   6.876  10.232  0.2392  0.1010 -0.1300
  113OSM    H2F11795   1.187   6.952  10.309  0.8822  0.4552 -0.7003
  113OSM    H2G11796   1.069   6.914  10.182  0.7154 -0.2385 -1.2701
  113OSM    C3F11797   1.283   6.863  10.133  0.0843 -0.3936  0.6708
  113OSM    H3F11798   1.367   6.819  10.191  0.2088  0.5186  1.1940
  113OSM    H3G11799   1.313   6.963  10.095  0.4817 -0.3328  1.1324
  113OSM    C4F11800   1.263   6.766  10.014  0.1053 -0.3065 -0.1918
  113OSM    H4F11801   1.186   6.797   9.940 -1.2019  0.1961  1.3469
  113OSM    H4G11802   1.235   6.660  10.035  0.5207 -0.8414 -2.1049
  113OSM    C5F11803   1.397   6.757   9.932  0.2976  0.2415 -0.1646
  113OSM    H5F11804   1.474   6.705   9.994  1.5132  1.5743 -0.5007
  113OSM    H5G11805   1.434   6.862   9.927  1.6184 -0.2542 -1.2397
  113OSM    C6F11806   1.377   6.698   9.794  0.2677 -0.0519 -0.5641
  113OSM    H6F11807   1.312   6.766   9.736 -0.9727 -0.0428  0.7938
  113OSM    H6G11808   1.308   6.613   9.814  1.4358 -1.1882 -1.1809
  113OSM    C7F11809   1.498   6.648   9.715  0.3000 -0.6556  0.3204
  113OSM    H7F11810   1.458   6.566   9.652  0.3299 -1.4429  1.2831
  113OSM    H7G11811   1.567   6.608   9.793 -1.0675  0.9208  2.4719
  113OSM    C8F11812   1.568   6.760   9.637  1.0501  0.0295 -0.1927
  113OSM    H8F11813   1.613   6.827   9.714  0.8158  0.3422 -0.3282
  113OSM    H8G11814   1.479   6.804   9.589 -0.5009 -1.4269  1.2226
  113OSM    C9F11815   1.677   6.713   9.546  0.7138  0.0241 -0.4099
  113OSM    H9F11816   1.773   6.707   9.599 -0.1543  0.5272  1.3157
  113OSM   C10F11817   1.666   6.670   9.417  0.1370  0.4987  0.1422
  113OSM   H10F11818   1.748   6.614   9.368  0.2639  1.0662 -0.2995
  113OSM   C11F11819   1.553   6.673   9.313 -0.2392  0.0981 -0.0895
  113OSM   H11F11820   1.548   6.768   9.256  1.0105  0.7185  0.7844
  113OSM   H11G11821   1.459   6.657   9.372  0.9167 -2.9320  1.1245
  113OSM   C12F11822   1.552   6.558   9.204 -0.5158  0.1464 -0.1044
  113OSM   H12F11823   1.448   6.565   9.164 -2.1615  1.6581  3.9607
  113OSM   H12G11824   1.572   6.460   9.251  0.6770  0.3277 -0.2003
  113OSM   C13F11825   1.662   6.593   9.096 -0.5601  0.8081 -0.6851
  113OSM   H13F11826   1.762   6.564   9.134 -0.7875 -1.1812 -1.5000
  113OSM   H13G11827   1.657   6.702   9.074 -1.5808  0.8868 -0.1354
  113OSM   C14F11828   1.640   6.517   8.968  0.5038  0.9498  0.2682
  113OSM   H14F11829   1.535   6.527   8.934  0.0013  0.5563  1.6394
  113OSM   H14G11830   1.658   6.409   8.984 -0.1693  0.3761 -2.3148
  113OSM   C15F11831   1.726   6.555   8.853  0.3252 -0.5914  0.1232
  113OSM   H15F11832   1.696   6.652   8.807  3.0727 -0.3351 -1.3628
  113OSM   H15G11833   1.718   6.474   8.778 -1.1434 -0.7478  0.4225
  113OSM   C16F11834   1.874   6.564   8.893  0.0986  0.2830  0.5711
  113OSM   H16F11835   1.904   6.466   8.936  1.4617  0.7798  0.8011
  113OSM   H16G11836   1.894   6.639   8.973  0.1603  0.4379  0.4111
  113OSM   C17F11837   1.963   6.616   8.784  0.2585 -0.1083  0.8450
  113OSM   H17F11838   1.958   6.554   8.692 -1.5784  0.3555  0.5991
  113OSM   H17G11839   2.069   6.612   8.817  1.5677 -1.5556 -2.8897
  113OSM   C18F11840   1.941   6.758   8.736 -0.0415 -0.8911 -0.2718
  113OSM   H18F11841   2.008   6.780   8.650  0.3163  1.0563  0.4494
  113OSM   H18G11842   1.959   6.836   8.813 -1.6802 -0.5100 -0.2358
  113OSM   H18H11843   1.838   6.761   8.694  0.3224 -0.9790 -1.1922
  114OSM      N11844   6.009   1.781  10.675  0.2160 -0.3394 -0.9318
  114OSM    C1511845   6.148   1.722  10.686 -0.4650  0.1616 -0.1473
  114OSM   H15A11846   6.160   1.662  10.774 -0.8540 -1.6724 -1.2922
  114OSM   H15B11847   6.231   1.791  10.692 -0.0856 -0.3068  0.0154
  114OSM   H15C11848   6.162   1.659  10.599  0.5005  0.9671 -0.6002
  114OSM    C1411849   5.903   1.671  10.674 -0.4093 -0.8394 -0.1372
  114OSM   H14A11850   5.807   1.713  10.652 -1.4285 -3.2206 -0.5926
  114OSM   H14B11851   5.898   1.611  10.763  1.1478 -1.8036 -0.6478
  114OSM   H14C11852   5.935   1.608  10.592  0.0162 -1.1501  0.2592
  114OSM    C1311853   5.977   1.865  10.796 -0.1339 -0.1514 -0.1140
  114OSM   H13A11854   5.964   1.802  10.882  0.7562  0.1158  0.2226
  114OSM   H13B11855   5.880   1.911  10.785 -2.2085 -3.8984  0.5598
  114OSM   H13C11856   6.046   1.946  10.809 -2.6799  2.0156  0.8411
  114OSM    C1211857   5.991   1.865  10.543 -0.2893 -0.6089  0.0479
  114OSM   H12A11858   6.032   1.817  10.455 -0.4663  0.0599 -0.4121
  114OSM   H12B11859   6.047   1.958  10.550 -1.0703  0.0315 -1.5339
  114OSM    C1111860   5.843   1.906  10.507  0.6189 -0.2713 -0.6647
  114OSM   H11A11861   5.782   1.823  10.467 -1.9921  1.0360  0.3754
  114OSM   H11B11862   5.844   1.971  10.417 -0.9217 -0.2102 -0.6719
  114OSM      P11863   5.636   1.934  10.685 -0.0775 -0.0362  0.1216
  114OSM    O1311864   5.605   1.798  10.641 -0.2182 -0.1340  0.3549
  114OSM    O1411865   5.660   1.965  10.830 -0.0073  0.0396  0.9427
  114OSM    O1111866   5.537   2.034  10.623 -0.3671  0.3811  0.1249
  114OSM    O1211867   5.770   1.975  10.612 -1.2873  0.5917 -0.4554
  114OSM    C1S11868   5.554   2.152  10.546  0.4059 -0.0439 -0.0101
  114OSM    H1S11869   5.641   2.216  10.570  1.3450 -1.4799  0.5042
  114OSM    H1T11870   5.464   2.210  10.576  0.9952  0.6015  0.5424
  114OSM     NF11871   5.578   2.231  10.316  0.0747  0.0241  0.5586
  114OSM    HNF11872   5.501   2.248  10.255  0.3632 -0.7262 -0.0280
  114OSM    C2S11873   5.559   2.117  10.394 -0.7127  0.7930  0.6485
  114OSM    H2S11874   5.655   2.062  10.383 -1.3509 -0.4430  1.0726
  114OSM    C3S11875   5.437   2.023  10.346 -0.2462 -0.1093 -0.0982
  114OSM    H3S11876   5.343   2.077  10.373 -0.9242 -1.6847  0.8129
  114OSM     O311877   5.413   1.900  10.415  0.0269  0.1480  0.2578
  114OSM    HO311878   5.446   1.932  10.499 -2.2486  0.4456  1.1036
  114OSM    C4S11879   5.444   1.995  10.201  0.6998 -0.2278 -0.4103
  114OSM    H4S11880   5.381   2.066  10.145  1.7871  0.2692 -1.0117
  114OSM    C5S11881   5.492   1.890  10.135  0.5538 -0.0545  0.1585
  114OSM    H5S11882   5.545   1.809  10.188  0.0142 -1.6365 -1.5779
  114OSM    C6S11883   5.477   1.883   9.983  0.4249  0.2968  0.3048
  114OSM    H6S11884   5.571   1.910   9.930 -0.1483  1.1744 -0.2804
  114OSM    H6T11885   5.399   1.952   9.944  2.2264  1.6155 -1.1289
  114OSM    C7S11886   5.443   1.744   9.937  0.3767 -0.1228  0.1624
  114OSM    H7S11887   5.356   1.696   9.987  1.4773 -0.6860  1.5816
  114OSM    H7T11888   5.530   1.681   9.963 -0.8420 -1.5895  0.8811
  114OSM    C8S11889   5.419   1.741   9.786  0.2744  0.2676  0.0457
  114OSM    H8S11890   5.352   1.826   9.760 -0.6861  0.2011  2.0846
  114OSM    H8T11891   5.376   1.640   9.769  2.5919 -0.6970 -0.4529
  114OSM    C9S11892   5.545   1.749   9.695 -0.9886 -0.3747 -0.0630
  114OSM    H9S11893   5.602   1.654   9.704  0.2803  0.5208  3.0854
  114OSM    H9T11894   5.605   1.833   9.737 -3.8532  0.1197  3.5362
  114OSM   C10S11895   5.535   1.790   9.546 -0.0617  0.4881  0.3973
  114OSM   H10S11896   5.641   1.792   9.512  0.7027 -0.1814  2.5398
  114OSM   H10T11897   5.480   1.885   9.534 -0.7940  0.1338  0.9132
  114OSM   C11S11898   5.459   1.686   9.456 -0.0174 -0.1023 -0.1040
  114OSM   H11S11899   5.350   1.677   9.473  0.1346 -1.5611  0.2201
  114OSM   H11T11900   5.516   1.591   9.447 -0.0419 -0.1481  0.2243
  114OSM   C12S11901   5.468   1.728   9.308 -0.3574 -0.1373 -0.8663
  114OSM   H12S11902   5.571   1.767   9.292 -0.5271  0.1783 -1.2144
  114OSM   H12T11903   5.410   1.822   9.292  0.3907  0.4763 -0.1016
  114OSM   C13S11904   5.435   1.612   9.209  0.5611 -0.5719 -0.3526
  114OSM   H13S11905   5.330   1.584   9.232 -0.2245 -0.8815 -3.7331
  114OSM   H13T11906   5.503   1.524   9.212  0.3402 -0.7266  0.1497
  114OSM   C14S11907   5.420   1.671   9.069 -0.7012 -0.4856 -0.0392
  114OSM   H14S11908   5.519   1.711   9.036 -0.8558  1.2064  1.3874
  114OSM   H14T11909   5.350   1.757   9.071  1.7355  1.6532  0.3276
  114OSM   C15S11910   5.370   1.574   8.961 -0.0869 -0.4814 -0.1552
  114OSM   H15S11911   5.271   1.539   8.998  1.1284 -1.9719  1.9085
  114OSM   H15T11912   5.447   1.495   8.948 -0.4282 -1.0687  1.2390
  114OSM   C16S11913   5.350   1.639   8.825  0.3100  0.2400  0.3620
  114OSM   H16S11914   5.449   1.658   8.779  0.2905 -1.5594 -0.5223
  114OSM   H16T11915   5.300   1.737   8.837  1.1817  1.2163 -2.9398
  114OSM   C17S11916   5.278   1.539   8.733  0.9251  0.5057  0.5709
  114OSM   H17S11917   5.247   1.590   8.639 -1.4677 -0.4001  0.7996
  114OSM   H17T11918   5.195   1.498   8.795  0.2774  1.8786  0.6530
  114OSM   C18S11919   5.361   1.416   8.691  0.5797  0.3208 -0.3055
  114OSM   H18S11920   5.461   1.432   8.645  1.1612 -0.5941  0.5850
  114OSM   H18T11921   5.306   1.367   8.608 -0.3894  1.4551 -0.3561
  114OSM   H18U11922   5.370   1.349   8.779 -2.6772  0.3451  0.1575
  114OSM    C1F11923   5.671   2.322  10.321 -0.2340  0.9141 -0.6533
  114OSM     OF11924   5.779   2.295  10.367 -0.3142  0.1445  0.4474
  114OSM    C2F11925   5.633   2.461  10.289 -0.2651 -0.0860 -0.5915
  114OSM    H2F11926   5.665   2.527  10.371  0.9239 -0.9583 -0.3276
  114OSM    H2G11927   5.522   2.451  10.288 -0.1867 -2.1394  1.4620
  114OSM    C3F11928   5.692   2.522  10.157 -0.0250  0.5501  0.5819
  114OSM    H3F11929   5.631   2.605  10.116 -1.2797 -0.7960 -0.3738
  114OSM    H3G11930   5.689   2.441  10.081 -0.1373  1.0182  0.0869
  114OSM    C4F11931   5.831   2.590  10.169  0.1258  0.0150 -0.0491
  114OSM    H4F11932   5.916   2.524  10.197  1.1166  2.2547  2.7944
  114OSM    H4G11933   5.822   2.668  10.248 -0.2368  1.4978 -1.4882
  114OSM    C5F11934   5.874   2.671  10.046  0.6508 -0.1792  0.1363
  114OSM    H5F11935   5.809   2.761  10.045 -1.0317 -1.2454  2.8672
  114OSM    H5G11936   5.844   2.613   9.956 -1.5559 -1.4490  1.6109
  114OSM    C6F11937   6.014   2.727  10.054 -0.2214  0.7244  0.4931
  114OSM    H6F11938   6.081   2.648  10.094 -1.3042 -0.0474  0.8366
  114OSM    H6G11939   6.017   2.804  10.134  0.7669  0.3156  0.8662
  114OSM    C7F11940   6.075   2.786   9.928 -0.1507 -0.5190 -0.1076
  114OSM    H7F11941   6.170   2.839   9.951  0.1366 -1.6562  1.4964
  114OSM    H7G11942   5.997   2.861   9.906 -0.3809  0.0028  2.2146
  114OSM    C8F11943   6.105   2.698   9.802 -0.2038  0.3551 -0.1459
  114OSM    H8F11944   6.135   2.762   9.717 -1.1362 -0.2387 -0.9405
  114OSM    H8G11945   6.014   2.651   9.760 -0.1321  0.6920 -0.6744
  114OSM    C9F11946   6.212   2.595   9.828 -0.7011 -0.4312 -0.4187
  114OSM    H9F11947   6.228   2.589   9.937  0.0186  0.4109 -0.4695
  114OSM   C10F11948   6.269   2.518   9.738  0.1190 -0.7956 -0.5194
  114OSM   H10F11949   6.345   2.442   9.766  0.7515  0.0604  0.1313
  114OSM   C11F11950   6.243   2.546   9.596  0.4870  0.1121  0.4601
  114OSM   H11F11951   6.239   2.654   9.571  1.8873  0.2812  0.8860
  114OSM   H11G11952   6.144   2.506   9.563 -0.0485  2.0805 -0.4858
  114OSM   C12F11953   6.349   2.473   9.504  0.2537  0.0577 -0.7671
  114OSM   H12F11954   6.356   2.374   9.554  0.0160  0.7856  0.7467
  114OSM   H12G11955   6.442   2.531   9.523 -0.7457  1.5485 -0.2107
  114OSM   C13F11956   6.314   2.479   9.357 -0.3106  0.0721  0.5700
  114OSM   H13F11957   6.217   2.427   9.341  0.8731 -1.9171 -0.5465
  114OSM   H13G11958   6.392   2.413   9.315 -0.4508 -0.9645  1.8631
  114OSM   C14F11959   6.326   2.621   9.293  0.4125 -0.5075  0.0986
  114OSM   H14F11960   6.430   2.659   9.306 -0.5348  1.4003  3.2490
  114OSM   H14G11961   6.257   2.693   9.341  0.8859  0.7360 -1.0379
  114OSM   C15F11962   6.295   2.600   9.142 -0.0316 -0.1984 -0.1360
  114OSM   H15F11963   6.188   2.573   9.146  0.2760 -1.3386  0.9834
  114OSM   H15G11964   6.344   2.508   9.104  0.8769  0.2954 -0.2002
  114OSM   C16F11965   6.312   2.723   9.058  0.4934  0.7069 -0.0566
  114OSM   H16F11966   6.412   2.770   9.066  0.6166  0.7475 -1.5807
  114OSM   H16G11967   6.235   2.796   9.092 -0.1362 -0.2601  0.6661
  114OSM   C17F11968   6.287   2.691   8.910  0.6325 -0.6013  0.1836
  114OSM   H17F11969   6.184   2.649   8.905  1.7054 -3.5772  0.8961
  114OSM   H17G11970   6.363   2.615   8.885  0.9121 -0.3985  0.4045
  114OSM   C18F11971   6.283   2.811   8.812  0.2558 -0.1847  0.0363
  114OSM   H18F11972   6.383   2.847   8.779  0.1740  1.2512  1.2200
  114OSM   H18G11973   6.218   2.895   8.843 -2.2393 -0.9474 -2.6889
  114OSM   H18H11974   6.235   2.764   8.724  0.8185 -0.2678 -0.2287
  115OSM      N11975   3.502   0.462  11.095  0.2468 -0.1725  0.1379
  115OSM    C1511976   3.617   0.410  11.176 -0.3597  0.5572  0.3639
  115OSM   H15A11977   3.711   0.417  11.122 -0.9034 -1.6251 -0.9836
  115OSM   H15B11978   3.604   0.306  11.202 -0.2983 -0.0600 -1.8893
  115OSM   H15C11979   3.629   0.474  11.262 -2.4852 -0.0906  1.2033
  115OSM    C1411980   3.382   0.411  11.171  0.0436 -0.1428 -0.5278
  115OSM   H14A11981   3.358   0.308  11.149  1.1764 -0.3638 -0.8136
  115OSM   H14B11982   3.296   0.467  11.137 -0.0916 -1.4912 -2.5578
  115OSM   H14C11983   3.393   0.421  11.278 -2.0004  0.6848 -0.3508
  115OSM    C1311984   3.502   0.613  11.098 -0.2291  0.0734 -0.3052
  115OSM   H13A11985   3.410   0.652  11.056 -1.3866 -2.2950 -0.1354
  115OSM   H13B11986   3.579   0.669  11.047  1.6022 -0.0968  2.0860
  115OSM   H13C11987   3.516   0.654  11.197  0.4972  0.7058 -0.6606
  115OSM    C1211988   3.511   0.406  10.956  0.2720 -0.6447  0.2419
  115OSM   H12A11989   3.420   0.438  10.907  0.7045  0.7512  0.3110
  115OSM   H12B11990   3.505   0.298  10.963 -2.2294 -0.7109 -1.6243
  115OSM    C1111991   3.625   0.454  10.866 -0.0653  0.1491  0.4030
  115OSM   H11A11992   3.633   0.565  10.870  3.0875 -0.0120  0.6458
  115OSM   H11B11993   3.604   0.430  10.759 -0.5016 -0.5966  0.6523
  115OSM      P11994   3.824   0.283  10.835  0.2606 -0.4758  0.1209
  115OSM    O1311995   3.951   0.249  10.905 -0.2529  0.2845 -0.7992
  115OSM    O1411996   3.730   0.169  10.811 -0.3939 -0.0159 -0.3603
  115OSM    O1111997   3.854   0.346  10.694  0.2863 -0.0276  0.4676
  115OSM    O1211998   3.752   0.405  10.909 -0.2732  0.5688 -0.6745
  115OSM    C1S11999   3.816   0.270  10.583 -0.4894  0.1911 -0.1062
  115OSM    H1S12000   3.707   0.291  10.583 -0.0959  3.4322  3.1732
  115OSM    H1T12001   3.833   0.160  10.594 -1.1100  0.1323  0.3495
  115OSM     NF12002   3.847   0.211  10.335  0.2108  0.7863  0.0423
  115OSM    HNF12003   3.910   0.138  10.312 -0.6459  0.8522 -2.9799
  115OSM    C2S12004   3.887   0.303  10.445 -0.0056 -0.1887  0.3830
  115OSM    H2S12005   3.869   0.407  10.412  0.1072 -0.3404 -0.1593
  115OSM    C3S12006   4.033   0.300  10.474 -0.0362  0.5706  0.7421
  115OSM    H3S12007   4.060   0.197  10.506  2.5511  0.6392 -0.9067
  115OSM     O312008   4.073   0.381  10.585 -0.1154  0.0321 -0.0791
  115OSM    HO312009   3.997   0.385  10.644  0.0647  1.0959  0.1042
  115OSM    C4S12010   4.120   0.328  10.350  0.2226  0.2321  0.0859
  115OSM    H4S12011   4.146   0.241  10.289  0.5485  0.8026 -0.6076
  115OSM    C5S12012   4.166   0.450  10.313  0.2035 -0.2910  0.2719
  115OSM    H5S12013   4.143   0.543  10.367  1.7317 -0.2600  0.9209
  115OSM    C6S12014   4.249   0.460  10.186  0.6492  0.0963 -0.0220
  115OSM    H6S12015   4.356   0.432  10.195  1.0816  1.2906 -1.1757
  115OSM    H6T12016   4.251   0.564  10.147 -0.4516  0.2209  0.2225
  115OSM    C7S12017   4.182   0.383  10.069 -0.3011 -0.7741  0.7669
  115OSM    H7S12018   4.164   0.275  10.088  0.1339 -0.7827  1.1267
  115OSM    H7T12019   4.248   0.380   9.980 -2.2656 -1.8399 -0.7515
  115OSM    C8S12020   4.059   0.458  10.018  0.0406  0.3719  0.5027
  115OSM    H8S12021   4.056   0.569  10.023 -0.3566  0.4524 -0.8977
  115OSM    H8T12022   3.975   0.418  10.077 -0.7528 -1.1490 -1.5433
  115OSM    C9S12023   4.024   0.419   9.875 -0.1925 -0.1592  1.0460
  115OSM    H9S12024   4.117   0.442   9.818 -0.2740  2.4190  1.8091
  115OSM    H9T12025   3.948   0.490   9.835  1.2864  0.2804 -1.1743
  115OSM   C10S12026   3.969   0.277   9.864  0.0336 -0.1725 -0.4844
  115OSM   H10S12027   3.894   0.269   9.945 -2.7440 -1.0381 -2.9538
  115OSM   H10T12028   4.046   0.199   9.880  0.2017 -0.6621 -3.2522
  115OSM   C11S12029   3.897   0.261   9.731 -0.0100  0.3287 -0.1380
  115OSM   H11S12030   3.816   0.336   9.720 -0.3189  0.2925  1.5726
  115OSM   H11T12031   3.864   0.155   9.734  0.6235  0.1505  1.8164
  115OSM   C12S12032   3.991   0.281   9.611 -0.1404 -0.1492  0.1978
  115OSM   H12S12033   4.043   0.182   9.607 -1.2669 -0.7631  0.4160
  115OSM   H12T12034   4.068   0.359   9.625 -2.1487  2.4666 -2.1521
  115OSM   C13S12035   3.913   0.308   9.483 -0.7812  0.7080 -0.4914
  115OSM   H13S12036   3.898   0.418   9.476 -0.7745  0.7025 -0.5874
  115OSM   H13T12037   3.815   0.258   9.472  0.0711 -0.4269 -4.2464
  115OSM   C14S12038   4.003   0.256   9.364  0.1618  0.0686  0.7865
  115OSM   H14S12039   3.974   0.152   9.342 -0.7866 -0.2246  3.1095
  115OSM   H14T12040   4.107   0.261   9.402  0.5915  2.4265 -0.4857
  115OSM   C15S12041   3.995   0.365   9.256 -0.1556 -0.0249  0.1815
  115OSM   H15S12042   4.013   0.466   9.300 -0.3530 -0.1806  0.6269
  115OSM   H15T12043   3.890   0.367   9.221 -2.3778  1.2166  5.8064
  115OSM   C16S12044   4.091   0.347   9.134  0.0033 -0.4820  0.9913
  115OSM   H16S12045   4.066   0.246   9.096  1.2364 -1.9814  3.7969
  115OSM   H16T12046   4.198   0.337   9.163  0.1123 -0.4720  0.5918
  115OSM   C17S12047   4.074   0.454   9.026 -0.4345  0.8405  0.0393
  115OSM   H17S12048   4.056   0.553   9.072  0.1337  0.2920  1.4884
  115OSM   H17T12049   3.981   0.429   8.970  0.7537 -2.0918 -0.8150
  115OSM   C18S12050   4.198   0.482   8.936  0.3715  0.3104  0.1305
  115OSM   H18S12051   4.247   0.391   8.894  0.6949  1.0936 -1.2407
  115OSM   H18T12052   4.265   0.551   8.992  1.3484  0.9456 -1.7454
  115OSM   H18U12053   4.169   0.547   8.851  0.4191  0.5833  0.3203
  115OSM    C1F12054   3.723   0.203  10.292 -0.4834 -1.0563  0.8089
  115OSM     OF12055   3.635   0.281  10.327  0.1568  0.6043  0.1259
  115OSM    C2F12056   3.685   0.086  10.197 -0.1782 -0.7489  0.1006
  115OSM    H2F12057   3.604   0.035  10.252 -0.5047 -0.8405 -0.4557
  115OSM    H2G12058   3.773   0.020  10.184 -0.1192 -0.9648  1.5164
  115OSM    C3F12059   3.629   0.122  10.056 -0.9999 -0.3103 -0.0862
  115OSM    H3F12060   3.696   0.206  10.026 -1.1598 -0.5935 -1.3265
  115OSM    H3G12061   3.527   0.159  10.077 -1.4663 -1.3448 -0.4311
  115OSM    C4F12062   3.615   0.019   9.945 -0.2703  0.1413  0.0790
  115OSM    H4F12063   3.713  -0.027   9.920 -0.6058 -0.6426  0.1691
  115OSM    H4G12064   3.581   0.073   9.854  0.7467  0.6504 -0.0077
  115OSM    C5F12065   3.512  -0.096   9.966 -0.3965  0.1906 -0.1297
  115OSM    H5F12066   3.409  -0.056   9.974 -0.2205  0.5004  0.7407
  115OSM    H5G12067   3.530  -0.136  10.068 -2.8265  1.7981  1.0112
  115OSM    C6F12068   3.518  -0.217   9.872 -0.6451  0.4011 -0.0798
  115OSM    H6F12069   3.436  -0.284   9.906  1.0394 -0.6617  2.2086
  115OSM    H6G12070   3.612  -0.272   9.894  0.5081  1.2786 -2.4655
  115OSM    C7F12071   3.504  -0.188   9.722 -0.8468 -0.4744  0.2731
  115OSM    H7F12072   3.428  -0.111   9.698  1.4893  1.5469 -1.0386
  115OSM    H7G12073   3.473  -0.287   9.680  0.6120  0.0321 -2.1852
  115OSM    C8F12074   3.634  -0.145   9.646  0.1897 -0.1908 -0.0474
  115OSM    H8F12075   3.682  -0.060   9.699  0.8418 -1.0951  0.8419
  115OSM    H8G12076   3.617  -0.111   9.542  1.6410  2.3930  0.4787
  115OSM    C9F12077   3.735  -0.250   9.642 -1.0034  0.1064 -0.0089
  115OSM    H9F12078   3.765  -0.290   9.740 -1.3221  0.7554  0.3591
  115OSM   C10F12079   3.798  -0.326   9.544  0.0055  0.1896  0.3079
  115OSM   H10F12080   3.871  -0.404   9.572 -0.4025  0.2364  1.5501
  115OSM   C11F12081   3.777  -0.317   9.402  0.2131 -0.0784  0.0253
  115OSM   H11F12082   3.669  -0.295   9.394 -0.2359 -1.2860  2.0051
  115OSM   H11G12083   3.797  -0.412   9.346 -0.1923 -0.0131 -0.2337
  115OSM   C12F12084   3.874  -0.217   9.336  1.3844  0.0279 -0.2138
  115OSM   H12F12085   3.979  -0.246   9.355  1.2669  0.1890  0.7346
  115OSM   H12G12086   3.859  -0.114   9.375 -0.8919 -0.4932  0.4344
  115OSM   C13F12087   3.846  -0.210   9.188  0.2732 -0.3755  0.1239
  115OSM   H13F12088   3.738  -0.188   9.177  0.1109 -0.6087  1.1873
  115OSM   H13G12089   3.862  -0.310   9.142 -1.4311  0.2288 -1.9385
  115OSM   C14F12090   3.939  -0.111   9.120 -0.1416 -0.2466  0.4632
  115OSM   H14F12091   4.040  -0.144   9.152 -0.8595 -1.3687  1.6872
  115OSM   H14G12092   3.933  -0.006   9.157 -1.9259 -0.4923  0.9707
  115OSM   C15F12093   3.936  -0.112   8.966  0.1697 -0.2887  0.6188
  115OSM   H15F12094   3.834  -0.089   8.927  0.5287  1.5785  0.6915
  115OSM   H15G12095   3.959  -0.210   8.919  1.4010  1.1727 -2.0645
  115OSM   C16F12096   4.011  -0.000   8.888 -0.0482  0.2157 -0.5711
  115OSM   H16F12097   4.121  -0.010   8.899 -0.2004  0.0163  0.9813
  115OSM   H16G12098   3.988   0.090   8.949  1.1814  0.4431 -0.4247
  115OSM   C17F12099   3.969   0.027   8.749  0.2127  0.5388 -0.3153
  115OSM   H17F12100   3.866   0.069   8.746  0.1894  0.4590 -0.8642
  115OSM   H17G12101   3.955  -0.071   8.699 -2.8256 -0.0692  1.4863
  115OSM   C18F12102   4.058   0.114   8.667  0.0896 -0.4735 -0.0200
  115OSM   H18F12103   3.995   0.155   8.586 -0.0121  1.5003  0.9946
  115OSM   H18G12104   4.137   0.054   8.617  0.3062 -0.4671  0.3146
  115OSM   H18H12105   4.103   0.190   8.734  0.1387  0.9078 -1.5808
  116OSM      N12106   1.078   4.698  10.794  0.1635 -0.1528  0.2928
  116OSM    C1512107   1.135   4.561  10.788  0.2979  0.3261 -0.2983
  116OSM   H15A12108   1.212   4.563  10.864  0.5374  2.1540 -0.5508
  116OSM   H15B12109   1.174   4.544  10.689 -3.1058 -2.3023 -1.4157
  116OSM   H15C12110   1.054   4.489  10.792  1.4597 -1.0146  0.2443
  116OSM    C1412111   0.988   4.728  10.669  0.8396 -0.2217 -0.3105
  116OSM   H14A12112   0.940   4.824  10.656  0.3093 -0.2998  0.9199
  116OSM   H14B12113   0.909   4.657  10.651  0.1349 -0.1720  2.1783
  116OSM   H14C12114   1.057   4.717  10.587  1.5630  0.0498  0.2524
  116OSM    C1312115   0.989   4.710  10.911  0.1354 -0.5590 -0.4957
  116OSM   H13A12116   0.906   4.640  10.903 -0.3003  0.0909 -1.9371
  116OSM   H13B12117   0.950   4.809  10.928  0.1295 -0.9167  1.9296
  116OSM   H13C12118   1.046   4.681  10.998 -0.1505  0.8248  0.1757
  116OSM    C1212119   1.194   4.797  10.806  0.1870  0.0958  0.6856
  116OSM   H12A12120   1.152   4.897  10.812 -4.1164 -1.5861  2.1016
  116OSM   H12B12121   1.243   4.781  10.711  0.8255  1.5260  0.7422
  116OSM    C1112122   1.289   4.784  10.935  0.2218  0.3123 -0.1641
  116OSM   H11A12123   1.249   4.829  11.028  0.2021 -1.2694  0.6280
  116OSM   H11B12124   1.379   4.843  10.909  0.9212 -0.2559  0.9008
  116OSM      P12125   1.473   4.609  11.026  0.1084 -0.2850 -0.2699
  116OSM    O1312126   1.530   4.712  11.121  0.2620  0.2160 -0.1419
  116OSM    O1412127   1.462   4.471  11.069 -0.2928 -0.0291 -0.8237
  116OSM    O1112128   1.559   4.610  10.901  0.0354 -0.8071 -0.3804
  116OSM    O1212129   1.328   4.652  10.970  0.0757 -0.1018 -0.6511
  116OSM    C1S12130   1.531   4.551  10.773 -0.5308  0.0131  0.1851
  116OSM    H1S12131   1.428   4.508  10.767 -0.4266 -0.0474 -4.1870
  116OSM    H1T12132   1.604   4.471  10.747  1.4002  1.5454  0.6341
  116OSM     NF12133   1.494   4.595  10.531 -0.8206 -0.1114  0.3725
  116OSM    HNF12134   1.556   4.532  10.486 -0.7460 -0.5162  1.0287
  116OSM    C2S12135   1.547   4.655  10.661  0.8610  0.2004  0.7299
  116OSM    H2S12136   1.493   4.747  10.692 -2.4359 -0.4782 -2.3429
  116OSM    C3S12137   1.697   4.699  10.663  0.2344 -0.2709  0.3240
  116OSM    H3S12138   1.769   4.615  10.650  0.6397 -0.1214  1.4583
  116OSM     O312139   1.733   4.770  10.785 -0.6580  0.0131  0.2018
  116OSM    HO312140   1.678   4.743  10.859  0.2066  1.6495  1.5145
  116OSM    C4S12141   1.720   4.789  10.548  0.4059  0.0497 -0.2105
  116OSM    H4S12142   1.661   4.882  10.544  2.8850  1.6266 -2.2941
  116OSM    C5S12143   1.800   4.758  10.445 -0.5708 -0.3087 -0.1248
  116OSM    H5S12144   1.834   4.654  10.433 -1.9022 -0.5821 -2.1600
  116OSM    C6S12145   1.801   4.856  10.324  0.1180  0.1225  0.4817
  116OSM    H6S12146   1.888   4.925  10.322 -1.2013  1.9149  1.1526
  116OSM    H6T12147   1.712   4.923  10.320  0.4948  0.6665 -3.5748
  116OSM    C7S12148   1.800   4.770  10.199  0.3531 -0.0930 -1.1740
  116OSM    H7S12149   1.730   4.684  10.198  1.5439 -1.1108 -0.5349
  116OSM    H7T12150   1.897   4.715  10.194 -0.5927 -1.7659 -2.2908
  116OSM    C8S12151   1.782   4.846  10.067 -0.5751  1.2797  1.1114
  116OSM    H8S12152   1.872   4.909  10.050  0.8469 -1.1141 -1.0241
  116OSM    H8T12153   1.690   4.908  10.066 -2.3264 -1.1012  2.6611
  116OSM    C9S12154   1.787   4.748   9.939  0.4987 -0.8605 -0.9224
  116OSM    H9S12155   1.699   4.681   9.947 -0.1238 -0.1405 -1.6073
  116OSM    H9T12156   1.878   4.684   9.947 -0.3605 -1.8824  1.7914
  116OSM   C10S12157   1.786   4.809   9.802  0.3145 -0.5860  0.0546
  116OSM   H10S12158   1.867   4.885   9.799  0.4203 -0.5484  2.0393
  116OSM   H10T12159   1.692   4.865   9.785  0.6022 -0.3732 -0.8703
  116OSM   C11S12160   1.786   4.714   9.683  0.6116 -0.7776 -0.2545
  116OSM   H11S12161   1.693   4.654   9.680 -0.7765  1.1480  1.4163
  116OSM   H11T12162   1.869   4.643   9.701 -0.9357 -3.0092 -1.4853
  116OSM   C12S12163   1.809   4.785   9.545  0.2054  0.7948  0.6691
  116OSM   H12S12164   1.913   4.822   9.541 -0.1912  1.8532 -0.9565
  116OSM   H12T12165   1.732   4.865   9.535 -2.7610 -1.7447  1.5240
  116OSM   C13S12166   1.796   4.687   9.426 -0.8646  1.0219  0.1360
  116OSM   H13S12167   1.704   4.628   9.442  0.0539 -0.6073 -0.3703
  116OSM   H13T12168   1.877   4.611   9.428 -0.7469  1.0543 -1.5920
  116OSM   C14S12169   1.802   4.760   9.293 -0.1998  0.4683  0.1545
  116OSM   H14S12170   1.897   4.817   9.285  0.0026  0.3271  1.3806
  116OSM   H14T12171   1.720   4.834   9.307 -0.7316 -0.3250  1.4464
  116OSM   C15S12172   1.781   4.677   9.170  0.6126 -0.4051 -0.0533
  116OSM   H15S12173   1.757   4.757   9.097  0.5769  0.2919  0.7216
  116OSM   H15T12174   1.690   4.614   9.169 -1.0526  1.8753 -1.1637
  116OSM   C16S12175   1.903   4.593   9.125 -0.5385 -0.7464  0.1347
  116OSM   H16S12176   1.898   4.507   9.196  0.5283 -2.0618 -1.3248
  116OSM   H16T12177   1.997   4.653   9.131 -1.0898  0.2263 -0.7207
  116OSM   C17S12178   1.880   4.527   8.992 -0.0685 -0.2915  0.1135
  116OSM   H17S12179   1.783   4.475   8.999 -0.9240  1.0911 -0.9986
  116OSM   H17T12180   1.967   4.458   8.984  0.7959  0.7276  0.4125
  116OSM   C18S12181   1.869   4.613   8.862 -0.6076  0.0822  0.2295
  116OSM   H18S12182   1.794   4.692   8.886 -0.1968  0.8829 -1.0125
  116OSM   H18T12183   1.829   4.555   8.776 -0.1810 -0.8719  0.6616
  116OSM   H18U12184   1.968   4.658   8.842 -0.3319 -0.1658  1.0230
  116OSM    C1F12185   1.367   4.599  10.499  0.0426 -0.3167 -0.0515
  116OSM     OF12186   1.289   4.674  10.554  0.5456 -0.0046 -0.1420
  116OSM    C2F12187   1.329   4.496  10.410  1.0545 -0.3884  0.1679
  116OSM    H2F12188   1.246   4.435  10.452 -0.5628  3.4345  3.1661
  116OSM    H2G12189   1.404   4.425  10.369 -1.6477 -2.6084 -1.2452
  116OSM    C3F12190   1.274   4.565  10.279  0.4123 -0.1878 -0.7260
  116OSM    H3F12191   1.194   4.630  10.320 -0.8971 -2.2574  0.2015
  116OSM    H3G12192   1.224   4.487  10.217 -1.1890  0.7661 -0.6940
  116OSM    C4F12193   1.384   4.622  10.187 -0.2359 -0.1343 -0.2847
  116OSM    H4F12194   1.471   4.553  10.182  1.3528  1.7976 -0.6646
  116OSM    H4G12195   1.426   4.706  10.246 -2.3614  1.2797 -0.6703
  116OSM    C5F12196   1.345   4.667  10.047  1.1472 -0.6310 -0.5533
  116OSM    H5F12197   1.439   4.713  10.010  1.6771 -0.9327  0.3972
  116OSM    H5G12198   1.270   4.748  10.038  3.0507  1.4014  0.7852
  116OSM    C6F12199   1.327   4.563   9.937 -0.2616 -0.4730  0.1418
  116OSM    H6F12200   1.243   4.495   9.964 -0.6416 -0.7134 -1.5248
  116OSM    H6G12201   1.423   4.507   9.942  0.2815  0.5297  1.1882
  116OSM    C7F12202   1.310   4.628   9.799 -0.0181  0.1455 -0.5233
  116OSM    H7F12203   1.402   4.673   9.759 -0.9574  1.6457 -1.0723
  116OSM    H7G12204   1.246   4.717   9.816 -0.0517  0.7284 -3.3519
  116OSM    C8F12205   1.257   4.529   9.696 -0.5281 -0.0328  0.2477
  116OSM    H8F12206   1.212   4.601   9.624 -0.8106  2.0450  2.3507
  116OSM    H8G12207   1.172   4.471   9.736  1.4983 -1.9297  2.0529
  116OSM    C9F12208   1.354   4.430   9.632 -0.0007 -0.4132 -0.1233
  116OSM    H9F12209   1.366   4.339   9.693 -0.0360 -0.7635 -0.6358
  116OSM   C10F12210   1.416   4.449   9.510  0.4629 -0.0007  0.2626
  116OSM   H10F12211   1.473   4.368   9.462  1.1769  1.0983 -0.8108
  116OSM   C11F12212   1.399   4.574   9.426  0.5240  0.0652 -0.5173
  116OSM   H11F12213   1.486   4.593   9.359  0.0601  1.1052 -0.8420
  116OSM   H11G12214   1.391   4.671   9.479 -1.6526  0.5722 -1.6682
  116OSM   C12F12215   1.262   4.555   9.351  0.7408 -0.2798  0.1502
  116OSM   H12F12216   1.242   4.639   9.282  1.9530  0.1960  0.3454
  116OSM   H12G12217   1.180   4.541   9.424 -0.9766  3.4485 -0.8144
  116OSM   C13F12218   1.257   4.436   9.255  0.0082 -0.1582  0.2933
  116OSM   H13F12219   1.156   4.422   9.210  0.1984 -0.8723  0.0725
  116OSM   H13G12220   1.280   4.349   9.321  1.7079  0.9059  1.1750
  116OSM   C14F12221   1.349   4.452   9.138 -0.4805  0.0445 -0.0742
  116OSM   H14F12222   1.454   4.437   9.169  0.3896  0.3562 -2.6712
  116OSM   H14G12223   1.343   4.558   9.106 -0.4527 -0.7731 -3.0361
  116OSM   C15F12224   1.320   4.357   9.023  0.5890 -0.7379 -0.8366
  116OSM   H15F12225   1.211   4.338   9.006  0.5755 -0.5433 -0.9699
  116OSM   H15G12226   1.360   4.255   9.040 -1.4840 -1.2502  1.5662
  116OSM   C16F12227   1.370   4.402   8.885 -0.4352 -0.2771 -0.5275
  116OSM   H16F12228   1.478   4.426   8.894 -0.4800 -0.0873 -0.4976
  116OSM   H16G12229   1.316   4.493   8.849 -1.6538 -0.0677  1.6558
  116OSM   C17F12230   1.344   4.292   8.780  0.1057 -0.4280 -0.1333
  116OSM   H17F12231   1.235   4.301   8.758 -0.1240  0.3252  1.2534
  116OSM   H17G12232   1.362   4.188   8.815 -0.4589  0.2987  2.4794
  116OSM   C18F12233   1.421   4.308   8.649 -0.4691 -0.0986  0.3601
  116OSM   H18F12234   1.369   4.240   8.577 -3.7405  2.3284  0.2090
  116OSM   H18G12235   1.529   4.284   8.656 -0.4633 -0.1824 -0.0190
  116OSM   H18H12236   1.415   4.415   8.620  0.0266  0.5736  2.5787
  117OSM      N12237   0.760   5.455  10.728  0.0365 -0.0600  0.5207
  117OSM    C1512238   0.813   5.428  10.586 -0.5937  0.0029  0.0126
  117OSM   H15A12239   0.921   5.421  10.577 -0.3871  0.1347  1.9928
  117OSM   H15B12240   0.776   5.509  10.525  0.4520  0.1080 -0.5081
  117OSM   H15C12241   0.779   5.330  10.554  0.2859 -0.0533 -0.8101
  117OSM    C1412242   0.622   5.523  10.725 -0.9309 -0.1088 -0.2681
  117OSM   H14A12243   0.581   5.565  10.815  1.3269  0.9326  0.3443
  117OSM   H14B12244   0.543   5.458  10.690 -1.6840  0.4264  0.4142
  117OSM   H14C12245   0.618   5.599  10.648 -1.8497  0.5826  0.4501
  117OSM    C1312246   0.745   5.316  10.789 -0.5438 -0.2054 -0.8434
  117OSM   H13A12247   0.681   5.254  10.729  1.5059 -0.1353 -3.2608
  117OSM   H13B12248   0.707   5.313  10.890  0.7887 -0.0080 -0.3068
  117OSM   H13C12249   0.838   5.261  10.794  0.5591  1.6377  0.6901
  117OSM    C1212250   0.865   5.531  10.801 -0.3748  0.4466 -0.2329
  117OSM   H12A12251   0.953   5.469  10.807 -0.1120  0.6654 -1.6142
  117OSM   H12B12252   0.835   5.555  10.902 -3.1171 -0.1255 -0.8251
  117OSM    C1112253   0.916   5.662  10.735  1.1337 -0.7114  0.3047
  117OSM   H11A12254   0.829   5.729  10.720  0.7746 -1.4142 -0.9324
  117OSM   H11B12255   0.956   5.653  10.632 -0.7641  0.0477 -0.5548
  117OSM      P12256   1.047   5.865  10.806  0.2262 -0.0486  0.5501
  117OSM    O1312257   0.944   5.957  10.850 -0.7649 -0.3804  0.0892
  117OSM    O1412258   1.178   5.878  10.876  0.5955  0.4615  0.0321
  117OSM    O1112259   1.053   5.873  10.651 -0.0163 -0.3356 -0.4538
  117OSM    O1212260   0.999   5.715  10.835 -0.1554  0.0535  0.3121
  117OSM    C1S12261   1.177   5.889  10.590  0.0887 -0.1684  0.6947
  117OSM    H1S12262   1.222   5.787  10.581 -1.4606 -1.1686  3.2042
  117OSM    H1T12263   1.248   5.956  10.643  2.2234  0.7163 -2.9500
  117OSM     NF12264   1.295   5.921  10.372 -0.4035  0.2822 -0.3466
  117OSM    HNF12265   1.363   5.994  10.365  1.2400 -0.9972  1.3124
  117OSM    C2S12266   1.167   5.946  10.444  0.2884 -0.0640 -0.0724
  117OSM    H2S12267   1.099   5.883  10.382  0.2026 -0.2616  0.2168
  117OSM    C3S12268   1.112   6.087  10.432  0.1312 -0.4320  0.0295
  117OSM    H3S12269   1.184   6.157  10.481  0.7227 -0.4764 -0.7555
  117OSM     O312270   0.988   6.094  10.500  0.2278  0.0739 -0.1577
  117OSM    HO312271   0.982   6.015  10.554 -1.4241 -1.2010 -2.0440
  117OSM    C4S12272   1.097   6.143  10.290  0.3471  0.6497 -0.3186
  117OSM    H4S12273   1.049   6.069  10.224  3.3903 -2.3927  0.6039
  117OSM    C5S12274   1.141   6.257  10.224  0.4554  0.6787  0.0171
  117OSM    H5S12275   1.203   6.325  10.286 -0.7761  1.5515  0.3309
  117OSM    C6S12276   1.126   6.281  10.076  0.1939 -0.0633  0.3202
  117OSM    H6S12277   1.057   6.365  10.054 -0.3734 -1.1032 -2.1714
  117OSM    H6T12278   1.075   6.196  10.027 -2.4997  2.8842 -2.4204
  117OSM    C7S12279   1.265   6.305  10.017  0.1295 -0.3692  0.0215
  117OSM    H7S12280   1.341   6.238  10.063  0.8260  1.0556  1.0379
  117OSM    H7T12281   1.289   6.408  10.053 -3.4175  1.2898 -1.8237
  117OSM    C8S12282   1.269   6.289   9.861 -0.1506  1.1342 -0.1912
  117OSM    H8S12283   1.208   6.372   9.818 -2.4865 -0.4978 -0.2537
  117OSM    H8T12284   1.221   6.193   9.831 -1.7169  2.5043 -2.3278
  117OSM    C9S12285   1.411   6.296   9.817  0.1182  0.4423  0.2038
  117OSM    H9S12286   1.474   6.227   9.878 -1.5884 -1.0556  0.3552
  117OSM    H9T12287   1.447   6.400   9.831 -1.2395  0.9668 -0.0416
  117OSM   C10S12288   1.416   6.274   9.667  0.3939  0.7099  0.2315
  117OSM   H10S12289   1.364   6.358   9.617  2.7567 -0.3051 -4.5306
  117OSM   H10T12290   1.360   6.184   9.633  1.0102  1.2033 -2.3490
  117OSM   C11S12291   1.564   6.266   9.612  0.4935  0.4151 -1.1110
  117OSM   H11S12292   1.630   6.191   9.661 -1.5095 -0.1330  0.9299
  117OSM   H11T12293   1.602   6.367   9.638 -0.1068  0.7159 -1.4042
  117OSM   C12S12294   1.570   6.259   9.458 -0.2992  0.4351  0.2771
  117OSM   H12S12295   1.676   6.253   9.426 -0.7621  1.0717 -1.4689
  117OSM   H12T12296   1.517   6.351   9.427 -1.6046 -0.1196  0.7773
  117OSM   C13S12297   1.503   6.133   9.411  0.2589 -0.1271  0.3327
  117OSM   H13S12298   1.399   6.117   9.445  0.8304 -0.1659  2.1636
  117OSM   H13T12299   1.561   6.053   9.462 -1.5875 -2.7929 -1.4744
  117OSM   C14S12300   1.505   6.111   9.255 -0.4784 -0.0961  0.4019
  117OSM   H14S12301   1.612   6.111   9.224 -0.5607 -2.7599 -0.1013
  117OSM   H14T12302   1.465   6.205   9.211  0.6351  0.1296 -0.1564
  117OSM   C15S12303   1.435   5.983   9.212  0.4140 -0.8055  0.5712
  117OSM   H15S12304   1.348   5.962   9.278  0.6040 -2.3013  0.3838
  117OSM   H15T12305   1.511   5.902   9.223  0.5020 -0.9402 -0.7833
  117OSM   C16S12306   1.401   5.985   9.055 -0.2144  0.0126  0.0563
  117OSM   H16S12307   1.487   6.010   8.990 -2.0710  0.0914 -2.5319
  117OSM   H16T12308   1.323   6.064   9.043 -1.5725 -1.4887 -1.5825
  117OSM   C17S12309   1.337   5.853   9.010 -0.8114 -0.1599 -0.2702
  117OSM   H17S12310   1.234   5.841   9.048 -0.3900  0.5632  1.1789
  117OSM   H17T12311   1.398   5.772   9.054 -1.7272  0.1813  1.7221
  117OSM   C18S12312   1.329   5.849   8.861 -0.0350  1.0492  0.0229
  117OSM   H18S12313   1.309   5.746   8.824 -2.1139  0.8025  1.6259
  117OSM   H18T12314   1.430   5.876   8.823  0.9709 -2.8730 -0.5295
  117OSM   H18U12315   1.262   5.920   8.807 -0.9551  0.4495  0.3489
  117OSM    C1F12316   1.356   5.806  10.346  0.6252 -0.7204  0.3839
  117OSM     OF12317   1.294   5.705  10.342  0.5235  0.2831 -0.6470
  117OSM    C2F12318   1.499   5.807  10.326 -0.0072 -0.9570  0.4321
  117OSM    H2F12319   1.540   5.705  10.347  2.2254 -0.0921  0.5337
  117OSM    H2G12320   1.547   5.889  10.382 -1.6588  1.4868 -1.5348
  117OSM    C3F12321   1.543   5.844  10.179  0.6262 -0.3760  0.6069
  117OSM    H3F12322   1.651   5.844  10.156  0.5866  3.4718 -0.2879
  117OSM    H3G12323   1.511   5.950  10.169 -0.9981 -0.9466 -0.9821
  117OSM    C4F12324   1.470   5.759  10.072  0.5209 -0.2718 -0.6038
  117OSM    H4F12325   1.360   5.770  10.085  0.7767 -0.3780  2.4311
  117OSM    H4G12326   1.507   5.657  10.098  2.6661  0.9167  1.3463
  117OSM    C5F12327   1.516   5.804   9.935  0.7046 -0.2391 -0.1055
  117OSM    H5F12328   1.626   5.794   9.944  0.6478  0.0835  1.2241
  117OSM    H5G12329   1.491   5.910   9.916  1.6985  0.2825  1.2566
  117OSM    C6F12330   1.471   5.724   9.818 -0.0401  0.4713  0.0593
  117OSM    H6F12331   1.360   5.715   9.821  0.0655 -1.6671 -0.6942
  117OSM    H6G12332   1.523   5.626   9.827  1.0444  0.8740 -1.4989
  117OSM    C7F12333   1.526   5.771   9.680  0.3784  0.1320  0.5368
  117OSM    H7F12334   1.509   5.879   9.664 -1.1323  0.0657  1.4985
  117OSM    H7G12335   1.469   5.724   9.597 -0.2694  0.2655  0.9004
  117OSM    C8F12336   1.681   5.734   9.644  0.0459  0.3882 -0.8347
  117OSM    H8F12337   1.693   5.625   9.626  2.0138 -0.0373  2.3858
  117OSM    H8G12338   1.748   5.756   9.729 -0.6142 -1.7562  0.3081
  117OSM    C9F12339   1.723   5.811   9.524  0.2599  0.7835  0.9735
  117OSM    H9F12340   1.738   5.915   9.555 -1.8449  0.9748  1.4827
  117OSM   C10F12341   1.749   5.757   9.401  0.1958  0.0560 -0.2202
  117OSM   H10F12342   1.773   5.824   9.317  1.0185  1.0997  0.8263
  117OSM   C11F12343   1.740   5.614   9.353  0.2523  0.4233 -0.0390
  117OSM   H11F12344   1.674   5.561   9.424  2.2421 -0.5961  1.1596
  117OSM   H11G12345   1.840   5.566   9.345  1.5668  3.1673 -1.6646
  117OSM   C12F12346   1.695   5.612   9.205 -0.0619  0.3974  0.8748
  117OSM   H12F12347   1.598   5.664   9.188  1.0944  2.4508  0.1178
  117OSM   H12G12348   1.668   5.507   9.184  1.0909 -0.1953  2.1798
  117OSM   C13F12349   1.801   5.660   9.097  0.7035  0.1192 -0.3867
  117OSM   H13F12350   1.847   5.565   9.062 -0.5240  0.6811 -3.8394
  117OSM   H13G12351   1.887   5.724   9.124  0.0482  0.2290  1.6163
  117OSM   C14F12352   1.727   5.722   8.973  0.0360 -0.1333 -0.1688
  117OSM   H14F12353   1.687   5.821   9.004  5.1506  1.8035  1.1760
  117OSM   H14G12354   1.644   5.660   8.933  0.7171  0.4918 -2.6850
  117OSM   C15F12355   1.824   5.744   8.857 -0.2906 -0.3510  0.3915
  117OSM   H15F12356   1.916   5.796   8.890  0.7701 -2.1376  0.3446
  117OSM   H15G12357   1.772   5.799   8.776 -0.0931 -2.2154 -1.0554
  117OSM   C16F12358   1.858   5.616   8.796  0.0538  0.7661  0.3312
  117OSM   H16F12359   1.767   5.553   8.783 -0.9563  2.0002  1.1902
  117OSM   H16G12360   1.923   5.553   8.860 -0.2193  0.3158  0.1747
  117OSM   C17F12361   1.907   5.628   8.652 -0.5926  0.0152  0.1644
  117OSM   H17F12362   1.841   5.676   8.577  0.4623  1.0193 -0.1520
  117OSM   H17G12363   1.915   5.523   8.618 -0.2664 -0.7314  2.3815
  117OSM   C18F12364   2.053   5.694   8.639  0.9968 -0.2214  0.1451
  117OSM   H18F12365   2.074   5.703   8.530  0.8494  0.7786  0.1871
  117OSM   H18G12366   2.127   5.626   8.685  2.1282  0.2935 -0.8606
  117OSM   H18H12367   2.051   5.798   8.679 -1.7943  0.5611 -1.7415
  118OSM      N12368   5.936   5.984  10.952 -0.7578 -0.1778  0.4276
  118OSM    C1512369   5.919   6.133  10.949 -0.5382 -0.1530  0.0960
  118OSM   H15A12370   5.922   6.167  10.846  0.8211  1.1724  0.5458
  118OSM   H15B12371   5.997   6.187  10.999 -1.9171  2.9632 -0.8357
  118OSM   H15C12372   5.823   6.162  10.989  0.2449 -0.2957  2.2064
  118OSM    C1412373   5.934   5.950  11.093 -0.4977  0.0589  0.3451
  118OSM   H14A12374   6.016   5.995  11.148 -0.9102  1.3638 -0.0749
  118OSM   H14B12375   5.935   5.845  11.118 -0.9651  0.6260  3.1440
  118OSM   H14C12376   5.850   5.991  11.146 -0.4238  0.3032  0.2738
  118OSM    C1312377   5.816   5.925  10.886 -0.0371 -0.3557  0.3446
  118OSM   H13A12378   5.732   5.941  10.952  1.0025 -0.4023  1.7211
  118OSM   H13B12379   5.827   5.818  10.880 -0.8299 -0.4470  0.4249
  118OSM   H13C12380   5.805   5.965  10.786 -0.6108 -1.5881 -0.1113
  118OSM    C1212381   6.067   5.948  10.881  0.5307  0.2093  0.3529
  118OSM   H12A12382   6.064   5.971  10.776  0.3869 -2.2466 -0.2373
  118OSM   H12B12383   6.078   5.841  10.886  0.3847  0.2234  1.0462
  118OSM    C1112384   6.194   6.013  10.935 -0.2522  0.4516 -0.6012
  118OSM   H11A12385   6.267   5.960  10.870 -0.9115 -0.4705 -0.5948
  118OSM   H11B12386   6.219   5.967  11.033 -1.4546 -2.6273 -1.6064
  118OSM      P12387   6.333   6.229  10.915 -0.1504 -0.0824 -0.1561
  118OSM    O1312388   6.309   6.372  10.936 -0.8623  0.6442  0.0361
  118OSM    O1412389   6.435   6.166  11.002 -0.1768  0.1980  0.7312
  118OSM    O1112390   6.356   6.191  10.761  0.1975 -0.1291  0.2874
  118OSM    O1212391   6.201   6.159  10.943 -0.0707  0.1252  0.4906
  118OSM    C1S12392   6.398   6.282  10.664 -0.6699 -0.2767  0.2286
  118OSM    H1S12393   6.509   6.270  10.656 -0.8523 -0.8500 -3.2573
  118OSM    H1T12394   6.376   6.387  10.694 -2.1143 -1.1323  2.3942
  118OSM     NF12395   6.419   6.317  10.418  0.1863  0.0115  1.3173
  118OSM    HNF12396   6.392   6.404  10.377 -1.8879  0.3292  3.1621
  118OSM    C2S12397   6.330   6.252  10.520  0.4742 -0.5197 -0.5312
  118OSM    H2S12398   6.330   6.141  10.511 -0.3428 -0.5220 -0.5394
  118OSM    C3S12399   6.183   6.290  10.508 -0.2654  0.0623 -0.1297
  118OSM    H3S12400   6.175   6.401  10.511 -0.4284  0.0384  0.4454
  118OSM     O312401   6.113   6.250  10.624 -0.3226 -0.1146 -0.0446
  118OSM    HO312402   6.180   6.228  10.689 -1.6164 -2.8426  0.5257
  118OSM    C4S12403   6.123   6.238  10.381 -0.3319 -0.1947 -0.3380
  118OSM    H4S12404   6.098   6.131  10.387 -1.9897  0.1616 -0.4742
  118OSM    C5S12405   6.090   6.310  10.273  0.0723 -0.0391  0.4668
  118OSM    H5S12406   6.092   6.420  10.282  0.0492 -0.1231  1.7637
  118OSM    C6S12407   6.022   6.267  10.143 -0.0388  0.3562  0.1567
  118OSM    H6S12408   5.916   6.299  10.151  0.7270  3.0586  0.5006
  118OSM    H6T12409   6.021   6.157  10.126 -0.2366  0.5381 -1.1809
  118OSM    C7S12410   6.071   6.340  10.019  0.3269 -0.2992  0.3316
  118OSM    H7S12411   6.050   6.449  10.019  3.6500  0.4480 -0.6869
  118OSM    H7T12412   6.017   6.305   9.928  0.7774  0.9904 -0.4491
  118OSM    C8S12413   6.224   6.316   9.985 -0.0258  0.3299 -0.2268
  118OSM    H8S12414   6.245   6.209  10.005  1.2042  0.6364  0.2021
  118OSM    H8T12415   6.289   6.361  10.063 -0.6851 -0.1002  0.5804
  118OSM    C9S12416   6.278   6.358   9.852 -0.8951  0.8862  1.6687
  118OSM    H9S12417   6.388   6.340   9.855 -1.3993 -3.5344  0.8060
  118OSM    H9T12418   6.251   6.466   9.847  1.5248  1.4947 -0.2514
  118OSM   C10S12419   6.213   6.282   9.733 -0.5412  0.8090 -0.6774
  118OSM   H10S12420   6.107   6.307   9.709 -0.8433  0.8400  0.6527
  118OSM   H10T12421   6.210   6.174   9.758  1.1602  0.8021 -0.3461
  118OSM   C11S12422   6.294   6.299   9.607 -0.6797 -0.0410  0.2684
  118OSM   H11S12423   6.404   6.308   9.620 -0.8128  1.7375  0.3876
  118OSM   H11T12424   6.276   6.396   9.557  0.2827  0.7058  1.3441
  118OSM   C12S12425   6.274   6.176   9.516 -0.2338  0.3288  0.2289
  118OSM   H12S12426   6.171   6.155   9.479 -0.3995  0.6934  0.4765
  118OSM   H12T12427   6.310   6.082   9.562 -0.1304 -1.5532 -3.3072
  118OSM   C13S12428   6.368   6.175   9.393  0.2236  0.3207 -0.2656
  118OSM   H13S12429   6.339   6.095   9.321 -0.0367  1.7273 -1.8013
  118OSM   H13T12430   6.472   6.161   9.431  0.2219  1.0189  0.0118
  118OSM   C14S12431   6.361   6.306   9.307  0.0765  0.0357  0.4680
  118OSM   H14S12432   6.397   6.385   9.377 -0.4957  1.4118 -0.7447
  118OSM   H14T12433   6.259   6.325   9.267  0.6742  0.1534 -1.0719
  118OSM   C15S12434   6.457   6.283   9.190 -0.2241 -0.0233  0.0544
  118OSM   H15S12435   6.422   6.199   9.126  0.6938  0.5989 -1.3169
  118OSM   H15T12436   6.559   6.257   9.227 -0.3987 -1.7209 -0.5854
  118OSM   C16S12437   6.490   6.410   9.107 -0.3919 -0.0146  0.5098
  118OSM   H16S12438   6.561   6.372   9.030 -0.3881 -0.6006  0.7982
  118OSM   H16T12439   6.524   6.486   9.180 -3.6846  1.3054  0.8635
  118OSM   C17S12440   6.363   6.463   9.038 -0.5422  0.6013 -0.1261
  118OSM   H17S12441   6.401   6.549   8.978  0.8905  0.7700  0.9658
  118OSM   H17T12442   6.296   6.492   9.122  1.4071  0.3643  1.6055
  118OSM   C18S12443   6.299   6.365   8.945  0.9530  0.4850  0.1094
  118OSM   H18S12444   6.374   6.347   8.865  0.0366  1.2304 -0.9579
  118OSM   H18T12445   6.205   6.401   8.896  0.9879 -0.6232 -0.8236
  118OSM   H18U12446   6.261   6.280   9.006  0.0512 -0.7792 -2.0673
  118OSM    C1F12447   6.542   6.266  10.392 -0.2790  0.2734  0.6247
  118OSM     OF12448   6.573   6.154  10.433 -0.6255  0.3412 -0.0023
  118OSM    C2F12449   6.639   6.357  10.317 -0.0856 -0.6081  0.3890
  118OSM    H2F12450   6.717   6.392  10.387 -1.3060 -0.9709  2.0057
  118OSM    H2G12451   6.584   6.443  10.272 -3.0148 -1.5202  1.9442
  118OSM    C3F12452   6.697   6.290  10.184 -0.7904 -0.3975 -0.3094
  118OSM    H3F12453   6.764   6.202  10.192  0.7664  0.6924 -0.8833
  118OSM    H3G12454   6.761   6.370  10.140 -1.2992 -0.2343 -0.7699
  118OSM    C4F12455   6.583   6.261  10.080  0.2323  0.0002 -0.1078
  118OSM    H4F12456   6.549   6.365  10.058 -3.1104 -1.0151 -0.2773
  118OSM    H4G12457   6.506   6.198  10.129  0.8297  0.8991  2.0976
  118OSM    C5F12458   6.633   6.195   9.953 -0.3353 -0.2956  0.3422
  118OSM    H5F12459   6.553   6.163   9.883 -1.8838  2.2380  0.8133
  118OSM    H5G12460   6.700   6.109   9.975 -1.7178 -1.5888 -0.3776
  118OSM    C6F12461   6.724   6.296   9.867  0.1481  0.2844  0.0185
  118OSM    H6F12462   6.767   6.383   9.922 -0.9331  1.3963 -0.8453
  118OSM    H6G12463   6.659   6.344   9.791 -0.9954  2.1838  2.0693
  118OSM    C7F12464   6.839   6.223   9.801  0.1168  0.3210 -0.0745
  118OSM    H7F12465   6.912   6.185   9.876  0.2304  2.2463  0.8406
  118OSM    H7G12466   6.893   6.299   9.740 -1.2100  0.1777 -1.5070
  118OSM    C8F12467   6.787   6.103   9.711  0.1364  0.5675 -0.0174
  118OSM    H8F12468   6.743   6.157   9.625  1.6311  0.7141 -0.7185
  118OSM    H8G12469   6.705   6.047   9.763 -0.4835  1.4162 -0.0547
  118OSM    C9F12470   6.887   5.997   9.672  0.3639  0.6048 -0.0293
  118OSM    H9F12471   6.910   5.920   9.747  0.8648  1.0074  0.2361
  118OSM   C10F12472   6.943   5.987   9.549 -0.3559  0.6504 -1.3005
  118OSM   H10F12473   7.031   5.922   9.537  0.0707  1.0482 -0.4085
  118OSM   C11F12474   6.922   6.066   9.413  0.3272 -0.0456 -0.3968
  118OSM   H11F12475   7.014   6.100   9.360 -0.1395  0.1463 -1.1092
  118OSM   H11G12476   6.867   6.159   9.439  1.0514 -0.0982  1.3942
  118OSM   C12F12477   6.841   5.985   9.306 -0.1436 -0.4288 -0.9291
  118OSM   H12F12478   6.818   6.058   9.226 -1.2053 -0.1993 -0.4322
  118OSM   H12G12479   6.751   5.944   9.358  0.8595 -2.7651 -0.9102
  118OSM   C13F12480   6.917   5.858   9.259 -0.0689  0.3258 -0.0263
  118OSM   H13F12481   6.841   5.796   9.207  0.7887 -1.2860  0.5766
  118OSM   H13G12482   6.942   5.806   9.354 -0.6010 -0.3503 -0.2396
  118OSM   C14F12483   7.039   5.886   9.167 -0.3476 -0.3146 -0.2318
  118OSM   H14F12484   7.118   5.908   9.242 -0.0097 -0.4878 -0.5337
  118OSM   H14G12485   7.020   5.971   9.098  0.8854 -0.4994 -0.8147
  118OSM   C15F12486   7.095   5.768   9.090  0.4142 -0.0334  0.2278
  118OSM   H15F12487   7.188   5.794   9.035 -1.0420 -3.0161 -4.1978
  118OSM   H15G12488   7.021   5.738   9.012  0.0313  1.9799 -0.2397
  118OSM   C16F12489   7.136   5.643   9.172  0.5817 -0.5906  0.2060
  118OSM   H16F12490   7.044   5.584   9.194  0.4277 -0.5566 -0.3151
  118OSM   H16G12491   7.183   5.677   9.266 -1.7936  1.6751  0.6675
  118OSM   C17F12492   7.237   5.557   9.090 -0.1071  0.2112 -0.2532
  118OSM   H17F12493   7.317   5.635   9.086 -0.3201  0.5956  1.8577
  118OSM   H17G12494   7.202   5.541   8.986  2.0424 -1.4801 -0.7891
  118OSM   C18F12495   7.288   5.427   9.157 -0.8486 -0.3604 -0.1772
  118OSM   H18F12496   7.374   5.383   9.102  0.4967  1.1761  0.6326
  118OSM   H18G12497   7.206   5.351   9.159 -1.8079  0.5458 -2.3382
  118OSM   H18H12498   7.316   5.445   9.263 -0.9587  0.4327 -0.2761
  119OSM      N12499   2.401   1.746  10.831  0.2835 -0.0224 -0.0856
  119OSM    C1512500   2.293   1.775  10.734 -0.0146  0.2036  0.3709
  119OSM   H15A12501   2.293   1.700  10.657  1.4110  0.2887  0.2616
  119OSM   H15B12502   2.296   1.871  10.683  0.1892 -0.0024 -0.0058
  119OSM   H15C12503   2.196   1.779  10.783 -0.9050  2.0871 -1.3774
  119OSM    C1412504   2.404   1.854  10.940  0.2432 -0.4999  0.1279
  119OSM   H14A12505   2.387   1.946  10.887  0.2341 -0.8748 -0.5343
  119OSM   H14B12506   2.497   1.842  10.994 -0.9597 -1.4945  2.1239
  119OSM   H14C12507   2.319   1.845  11.007  1.5724  3.3253  2.6555
  119OSM    C1312508   2.348   1.617  10.903 -0.3518  0.7584 -0.1382
  119OSM   H13A12509   2.364   1.521  10.854  1.6763  0.6814  0.5562
  119OSM   H13B12510   2.248   1.627  10.941  0.1315  2.2565  0.8006
  119OSM   H13C12511   2.407   1.605  10.993  1.1509  1.9039 -0.9180
  119OSM    C1212512   2.530   1.718  10.760  0.0600 -0.3086  0.7376
  119OSM   H12A12513   2.560   1.797  10.693  0.0510 -1.0220 -0.1159
  119OSM   H12B12514   2.516   1.634  10.694 -1.7272  2.2913 -2.5241
  119OSM    C1112515   2.649   1.688  10.854  0.3438  0.1070  0.1671
  119OSM   H11A12516   2.671   1.781  10.911  0.4653  0.0661  0.1878
  119OSM   H11B12517   2.734   1.666  10.786  0.8070 -0.2722  0.8511
  119OSM      P12518   2.664   1.435  10.919 -0.2296  0.2290 -0.1090
  119OSM    O1312519   2.801   1.414  10.985 -0.0328 -0.5952  0.6503
  119OSM    O1412520   2.561   1.341  10.973  0.1127 -0.1312  0.0258
  119OSM    O1112521   2.675   1.418  10.767 -0.0251 -0.0244  0.4767
  119OSM    O1212522   2.629   1.588  10.950  0.1803 -0.4330 -0.8733
  119OSM    C1S12523   2.568   1.345  10.705 -0.3662  0.8949  0.7894
  119OSM    H1S12524   2.464   1.367  10.735 -1.9069 -2.2009 -1.6339
  119OSM    H1T12525   2.576   1.236  10.724  0.2858  1.2940  3.0468
  119OSM     NF12526   2.465   1.303  10.490  0.0709  0.5155 -0.5062
  119OSM    HNF12527   2.470   1.212  10.448  0.8284  0.0936  0.4669
  119OSM    C2S12528   2.583   1.363  10.547  0.1038  0.0642 -0.6133
  119OSM    H2S12529   2.587   1.473  10.528 -0.5934  0.2639  0.3509
  119OSM    C3S12530   2.714   1.303  10.496  0.1835 -0.4066 -0.1958
  119OSM    H3S12531   2.722   1.196  10.527  0.8951 -1.6173 -4.0285
  119OSM     O312532   2.830   1.366  10.537 -0.4094 -0.4758  0.1369
  119OSM    HO312533   2.808   1.406  10.622  3.5411 -0.0305  1.1182
  119OSM    C4S12534   2.722   1.301  10.341 -0.0972 -0.3414  0.9437
  119OSM    H4S12535   2.683   1.212  10.291 -1.6142 -0.4762  2.2863
  119OSM    C5S12536   2.757   1.412  10.263 -0.4144  0.5346  0.1832
  119OSM    H5S12537   2.791   1.503  10.316  1.0561 -0.2194  0.6115
  119OSM    C6S12538   2.754   1.414  10.113 -0.0119  0.2014 -0.3858
  119OSM    H6S12539   2.751   1.308  10.080 -0.8525  0.6323 -1.7595
  119OSM    H6T12540   2.852   1.445  10.071  0.8480 -3.0071 -1.0059
  119OSM    C7S12541   2.640   1.503  10.056 -0.0285 -0.0972  0.4813
  119OSM    H7S12542   2.640   1.604  10.102 -0.6278 -0.6509  1.7634
  119OSM    H7T12543   2.539   1.459  10.075 -0.5816  1.3808  1.1806
  119OSM    C8S12544   2.652   1.532   9.905  0.2476  0.1079  0.2461
  119OSM    H8S12545   2.613   1.443   9.851  0.7274  1.0169 -1.6801
  119OSM    H8T12546   2.762   1.542   9.894  0.1351  1.3564  0.0886
  119OSM    C9S12547   2.565   1.655   9.860  0.1898  0.8885 -0.5535
  119OSM    H9S12548   2.625   1.737   9.905  0.4810  1.6404 -2.2232
  119OSM    H9T12549   2.463   1.644   9.902  1.2197  1.0818  2.2095
  119OSM   C10S12550   2.570   1.682   9.705 -0.0927  0.3870 -0.2184
  119OSM   H10S12551   2.538   1.588   9.657 -1.0447 -0.5296  2.0402
  119OSM   H10T12552   2.679   1.692   9.686  0.5964 -4.1288  0.3284
  119OSM   C11S12553   2.491   1.799   9.651 -0.9759 -0.1753  0.1395
  119OSM   H11S12554   2.521   1.889   9.709 -2.2937  0.6332 -0.3826
  119OSM   H11T12555   2.382   1.783   9.658 -1.3572 -0.3641 -3.9174
  119OSM   C12S12556   2.523   1.820   9.503  0.0758 -0.4435 -0.2920
  119OSM   H12S12557   2.632   1.838   9.493 -0.2906  2.4023  0.0782
  119OSM   H12T12558   2.484   1.915   9.461  0.2972  0.0013  0.4970
  119OSM   C13S12559   2.459   1.711   9.416 -0.4242 -0.3459 -0.7202
  119OSM   H13S12560   2.348   1.710   9.419 -0.5921 -5.4160  0.5321
  119OSM   H13T12561   2.498   1.609   9.437  0.9786  0.3362  0.1164
  119OSM   C14S12562   2.499   1.733   9.266  0.8766 -0.5108 -0.0266
  119OSM   H14S12563   2.605   1.701   9.256  0.6829 -0.6639 -2.0508
  119OSM   H14T12564   2.489   1.842   9.246 -3.1782 -0.8549 -0.7282
  119OSM   C15S12565   2.415   1.656   9.163  0.1880 -0.0746  0.0363
  119OSM   H15S12566   2.312   1.693   9.184  0.3311  0.4412 -0.1731
  119OSM   H15T12567   2.417   1.551   9.202  0.3070 -1.1238 -2.6121
  119OSM   C16S12568   2.477   1.673   9.022  0.9518 -0.2044 -0.7985
  119OSM   H16S12569   2.586   1.653   9.034  1.0360  1.0013  0.9213
  119OSM   H16T12570   2.465   1.780   8.992 -0.1759 -0.0281  0.2236
  119OSM   C17S12571   2.412   1.589   8.915 -0.5671 -0.9533 -0.5291
  119OSM   H17S12572   2.464   1.492   8.932 -0.7305 -0.8515  0.6154
  119OSM   H17T12573   2.444   1.631   8.817 -0.6824  1.1211  0.2836
  119OSM   C18S12574   2.263   1.565   8.909 -0.3148  0.0595  0.3847
  119OSM   H18S12575   2.228   1.523   9.006 -1.5175  0.6826  0.2412
  119OSM   H18T12576   2.230   1.492   8.831  0.5378  0.0896 -0.0137
  119OSM   H18U12577   2.213   1.661   8.883  0.4157  0.3124 -0.1148
  119OSM    C1F12578   2.351   1.371  10.497  0.2096  0.3789  0.4183
  119OSM     OF12579   2.352   1.486  10.537 -0.4839 -0.4763 -0.2736
  119OSM    C2F12580   2.238   1.285  10.453 -0.2529 -0.0515  0.4096
  119OSM    H2F12581   2.137   1.323  10.477  0.2299  1.8885 -0.4786
  119OSM    H2G12582   2.244   1.181  10.494 -2.3324 -1.1271 -1.7967
  119OSM    C3F12583   2.256   1.238  10.305  0.4132 -0.7067 -0.0703
  119OSM    H3F12584   2.176   1.161  10.301 -0.3577  0.1318 -2.7170
  119OSM    H3G12585   2.362   1.208  10.288  1.1117  1.3699  0.2394
  119OSM    C4F12586   2.244   1.354  10.206 -0.5664  0.5621  0.6144
  119OSM    H4F12587   2.336   1.412  10.184 -0.8124  0.8201  0.2566
  119OSM    H4G12588   2.168   1.423  10.249 -2.4092 -1.5895  0.9471
  119OSM    C5F12589   2.184   1.293  10.071 -0.6480 -0.4666 -0.3381
  119OSM    H5F12590   2.084   1.253  10.101 -0.6872  1.2458  2.1467
  119OSM    H5G12591   2.248   1.209  10.038 -1.3749 -1.7127  1.2642
  119OSM    C6F12592   2.175   1.397   9.958  0.1034 -0.6925 -0.2193
  119OSM    H6F12593   2.273   1.445   9.935  0.0258  0.1287  1.0590
  119OSM    H6G12594   2.113   1.480   9.999 -0.2068 -1.8554  1.8257
  119OSM    C7F12595   2.099   1.344   9.837  0.3230 -0.8129 -0.7230
  119OSM    H7F12596   2.066   1.426   9.769  0.8450  0.3848  0.4282
  119OSM    H7G12597   2.006   1.292   9.867  0.2850  0.2976  1.2871
  119OSM    C8F12598   2.186   1.248   9.756 -0.8046 -0.3434 -0.6053
  119OSM    H8F12599   2.132   1.201   9.670  1.9262 -2.8200 -1.1644
  119OSM    H8G12600   2.205   1.161   9.823  1.8009  1.3119  0.9647
  119OSM    C9F12601   2.317   1.311   9.711 -0.0051  0.1756  0.3439
  119OSM    H9F12602   2.386   1.330   9.795  0.6816  0.7381 -0.3305
  119OSM   C10F12603   2.355   1.349   9.585 -0.4778  0.4138 -0.4879
  119OSM   H10F12604   2.450   1.402   9.565  0.3217  0.8059  3.4785
  119OSM   C11F12605   2.269   1.335   9.460 -0.9737  0.6414  0.9995
  119OSM   H11F12606   2.256   1.433   9.411  1.2507  0.7213  0.4623
  119OSM   H11G12607   2.174   1.280   9.479  0.0946 -1.3097  1.0266
  119OSM   C12F12608   2.348   1.253   9.344 -0.5044 -0.2371 -0.0125
  119OSM   H12F12609   2.382   1.158   9.390  1.7911 -0.3250 -1.7105
  119OSM   H12G12610   2.439   1.312   9.320  1.0498 -0.1772  4.8319
  119OSM   C13F12611   2.265   1.230   9.215  0.2569 -0.6679 -0.1445
  119OSM   H13F12612   2.223   1.317   9.161  1.8560  0.4674  0.3652
  119OSM   H13G12613   2.174   1.171   9.237  0.7600 -1.0222  1.0866
  119OSM   C14F12614   2.335   1.153   9.109 -0.1335 -0.0315 -0.5887
  119OSM   H14F12615   2.357   1.057   9.160 -1.9160 -1.2061 -1.8939
  119OSM   H14G12616   2.430   1.201   9.079 -0.3609  2.4005  2.1731
  119OSM   C15F12617   2.257   1.151   8.977 -0.4613  0.7139 -0.2187
  119OSM   H15F12618   2.239   1.260   8.967 -1.7946  0.5683  0.2948
  119OSM   H15G12619   2.158   1.101   8.984 -1.7895  2.5272 -3.6990
  119OSM   C16F12620   2.342   1.105   8.854  0.3318  0.2360 -0.8264
  119OSM   H16F12621   2.367   0.999   8.873  2.6236  1.1763  2.2023
  119OSM   H16G12622   2.439   1.160   8.846  0.5996 -0.2067 -0.6638
  119OSM   C17F12623   2.264   1.114   8.721 -0.1811 -0.4868  0.0010
  119OSM   H17F12624   2.264   1.223   8.696 -0.5841 -0.8946 -1.9708
  119OSM   H17G12625   2.161   1.086   8.750  1.0936 -1.4065  4.2991
  119OSM   C18F12626   2.328   1.028   8.617  0.4127 -0.4899 -0.0697
  119OSM   H18F12627   2.305   1.052   8.511  1.5728 -3.0007 -0.9665
  119OSM   H18G12628   2.294   0.923   8.626  1.3064 -1.1564 -3.2213
  119OSM   H18H12629   2.437   1.018   8.635  0.2438 -1.6167  0.3588
  120OSM      N12630   5.166   2.756  10.517 -0.6066 -0.1608  0.9004
  120OSM    C1512631   5.239   2.847  10.612 -0.3661  0.5405 -0.0743
  120OSM   H15A12632   5.316   2.903  10.562 -1.4986  1.4713 -0.8184
  120OSM   H15B12633   5.293   2.787  10.684 -1.5117  0.8782  1.1137
  120OSM   H15C12634   5.174   2.921  10.657  1.3713  1.6398  0.7809
  120OSM    C1412635   5.269   2.674  10.446 -0.3581  0.2546  0.2325
  120OSM   H14A12636   5.236   2.601  10.373 -0.3513  0.8929 -0.4236
  120OSM   H14B12637   5.319   2.610  10.517 -2.7909 -1.4396  0.5527
  120OSM   H14C12638   5.344   2.733  10.395 -0.4363 -0.1470 -0.3581
  120OSM    C1312639   5.083   2.666  10.605  0.3412  0.0771 -0.3551
  120OSM   H13A12640   5.025   2.725  10.674  0.2350 -0.1265 -0.2695
  120OSM   H13B12641   5.144   2.601  10.666 -0.1012 -1.1268 -1.1544
  120OSM   H13C12642   5.022   2.592  10.555  0.9497 -0.5521 -0.1700
  120OSM    C1212643   5.083   2.842  10.420 -0.6212  0.2738  0.2557
  120OSM   H12A12644   4.996   2.887  10.467 -1.5119 -1.2417  0.1234
  120OSM   H12B12645   5.033   2.777  10.350 -1.6061 -1.2278  2.2290
  120OSM    C1112646   5.156   2.942  10.324  0.0418 -0.0152 -0.6726
  120OSM   H11A12647   5.091   2.972  10.240  0.0852 -0.3951 -0.8475
  120OSM   H11B12648   5.238   2.891  10.269  3.1675  0.7231  2.8720
  120OSM      P12649   5.124   3.164  10.438 -0.7343 -0.0676  0.0167
  120OSM    O1312650   4.998   3.117  10.492  0.5412 -1.0798  0.4805
  120OSM    O1412651   5.212   3.230  10.536 -0.4483 -0.1165  0.0798
  120OSM    O1112652   5.104   3.254  10.306 -0.4349  0.4348 -0.2893
  120OSM    O1212653   5.221   3.043  10.393  0.2328 -0.1980 -0.2139
  120OSM    C1S12654   5.202   3.275  10.205  0.7843  0.5507 -0.2463
  120OSM    H1S12655   5.293   3.214  10.221  0.0096 -0.3591  0.8740
  120OSM    H1T12656   5.241   3.379  10.205  0.1838  0.8079 -2.1650
  120OSM     NF12657   5.249   3.224   9.956 -0.1769 -0.4190 -0.1452
  120OSM    HNF12658   5.268   3.295   9.889  0.9590  0.2224  0.8430
  120OSM    C2S12659   5.148   3.249  10.064  0.5147 -1.0717  0.6244
  120OSM    H2S12660   5.083   3.159  10.067 -0.7031 -0.2246  0.7892
  120OSM    C3S12661   5.049   3.372  10.027 -0.0057  0.5804  0.1874
  120OSM    H3S12662   5.119   3.458  10.021  1.1632 -0.3064  0.7306
  120OSM     O312663   4.957   3.404  10.133  0.3959  0.2062  0.1328
  120OSM    HO312664   4.991   3.357  10.210 -0.6101 -1.2142 -0.2570
  120OSM    C4S12665   4.981   3.355   9.899  0.0389 -0.1139  0.1272
  120OSM    H4S12666   5.053   3.376   9.820  0.9070  1.0218  1.1837
  120OSM    C5S12667   4.852   3.317   9.879  0.0726  0.1859 -0.2040
  120OSM    H5S12668   4.803   3.283   9.971 -0.2714  0.8320 -0.1491
  120OSM    C6S12669   4.785   3.291   9.749  0.1935  0.1795  0.3950
  120OSM    H6S12670   4.681   3.329   9.743  0.6019  1.3623  0.6516
  120OSM    H6T12671   4.770   3.182   9.731 -0.5575  0.0913  1.4641
  120OSM    C7S12672   4.853   3.329   9.618 -0.3423 -0.0016  0.7452
  120OSM    H7S12673   4.953   3.282   9.615 -0.4097 -0.1106 -0.6372
  120OSM    H7T12674   4.869   3.439   9.612 -0.5582  0.0777  1.5669
  120OSM    C8S12675   4.780   3.284   9.486  0.6940  0.1104 -0.2972
  120OSM    H8S12676   4.671   3.301   9.500  0.6578 -1.5653  1.9113
  120OSM    H8T12677   4.788   3.173   9.479 -0.6921 -0.1134  1.1233
  120OSM    C9S12678   4.839   3.343   9.357  0.8218  0.1705  0.2819
  120OSM    H9S12679   4.814   3.452   9.360 -2.0627 -0.2968 -2.3249
  120OSM    H9T12680   4.790   3.302   9.266  3.0614  1.7773 -1.7873
  120OSM   C10S12681   4.992   3.331   9.315  0.7600  0.6915 -0.2683
  120OSM   H10S12682   5.031   3.228   9.324  0.1834  0.4105 -0.9156
  120OSM   H10T12683   5.054   3.396   9.381  0.5738 -0.3447  0.9717
  120OSM   C11S12684   5.007   3.390   9.172  0.2929  0.6433  0.4456
  120OSM   H11S12685   4.975   3.496   9.174 -1.4359  0.2917 -2.5479
  120OSM   H11T12686   4.927   3.342   9.112 -0.8710  2.6253  0.3361
  120OSM   C12S12687   5.141   3.385   9.106 -0.3307  0.0232  0.2024
  120OSM   H12S12688   5.183   3.282   9.102 -2.3086 -0.8033 -1.8398
  120OSM   H12T12689   5.212   3.456   9.154 -0.7880 -0.1763  1.1996
  120OSM   C13S12690   5.131   3.423   8.952  0.7084 -0.5980 -0.3574
  120OSM   H13S12691   5.105   3.529   8.936 -2.2900 -1.1820  0.0786
  120OSM   H13T12692   5.041   3.372   8.911 -0.5726  1.5657 -0.3733
  120OSM   C14S12693   5.253   3.408   8.872 -0.1252 -0.2641  0.4643
  120OSM   H14S12694   5.289   3.303   8.877  1.2183  0.2390  1.9866
  120OSM   H14T12695   5.331   3.466   8.926  1.5349 -0.6885 -1.3600
  120OSM   C15S12696   5.254   3.459   8.729 -0.4308 -0.1221 -0.1723
  120OSM   H15S12697   5.352   3.444   8.678 -0.3119 -1.6381  0.4395
  120OSM   H15T12698   5.230   3.567   8.731  1.8165  0.3983  1.0578
  120OSM   C16S12699   5.161   3.385   8.636  0.1111 -0.0975 -0.5201
  120OSM   H16S12700   5.063   3.386   8.688  0.6822  0.8244  0.5655
  120OSM   H16T12701   5.188   3.278   8.642 -3.4822 -1.2289 -1.6709
  120OSM   C17S12702   5.161   3.438   8.488 -0.3720 -0.6138  0.0769
  120OSM   H17S12703   5.169   3.548   8.496  0.3274 -0.4456 -2.1573
  120OSM   H17T12704   5.073   3.409   8.426 -1.9218  0.1535  1.7930
  120OSM   C18S12705   5.285   3.388   8.408 -0.3095 -0.5891 -0.3206
  120OSM   H18S12706   5.309   3.281   8.426 -1.0911 -0.8119 -0.5772
  120OSM   H18T12707   5.368   3.456   8.437 -0.0726 -0.2701 -1.6902
  120OSM   H18U12708   5.262   3.408   8.301 -1.4096  0.0839  0.0263
  120OSM    C1F12709   5.340   3.129   9.955 -0.1524  0.4699 -0.4785
  120OSM     OF12710   5.342   3.045  10.044 -0.4523 -0.0493 -0.3209
  120OSM    C2F12711   5.433   3.114   9.833 -0.1906 -0.2631 -0.3449
  120OSM    H2F12712   5.492   3.209   9.837 -2.5998  1.2704  1.3183
  120OSM    H2G12713   5.364   3.102   9.747 -1.9547  2.2768  0.6006
  120OSM    C3F12714   5.532   2.985   9.850  0.7105  0.3376  0.3222
  120OSM    H3F12715   5.468   2.894   9.851  0.9703  0.1394 -0.5454
  120OSM    H3G12716   5.597   2.991   9.940 -0.5090 -1.9035  1.4309
  120OSM    C4F12717   5.633   2.964   9.731  0.0340  0.5199 -0.0375
  120OSM    H4F12718   5.572   2.974   9.639 -0.4884 -0.8039  0.1401
  120OSM    H4G12719   5.678   2.863   9.744 -2.3522 -0.4189  1.5679
  120OSM    C5F12720   5.740   3.069   9.730 -0.1782  0.1518  0.0908
  120OSM    H5F12721   5.792   3.070   9.829  0.9768  0.3658 -0.5036
  120OSM    H5G12722   5.694   3.167   9.705 -0.9724 -0.3594 -0.4705
  120OSM    C6F12723   5.848   3.023   9.628 -0.1597  0.0311 -0.9736
  120OSM    H6F12724   5.886   2.931   9.675  0.1236  0.5450 -0.1888
  120OSM    H6G12725   5.930   3.096   9.644 -1.8230  2.3362 -2.3104
  120OSM    C7F12726   5.804   3.007   9.480 -0.1538  0.0331 -0.1882
  120OSM    H7F12727   5.767   3.108   9.452 -1.9989 -0.4875  0.2187
  120OSM    H7G12728   5.715   2.941   9.482 -1.1563  1.3750  1.7645
  120OSM    C8F12729   5.921   2.953   9.393  0.3423 -0.5114  0.7909
  120OSM    H8F12730   6.013   3.016   9.402 -0.1005  0.2694 -0.0055
  120OSM    H8G12731   5.888   2.967   9.288  0.9044 -1.5642  0.4624
  120OSM    C9F12732   5.939   2.806   9.414 -0.5940 -0.6345 -0.0728
  120OSM    H9F12733   5.948   2.767   9.517 -2.2802  0.8297  0.6869
  120OSM   C10F12734   5.945   2.707   9.325  0.5141 -1.4305  1.1868
  120OSM   H10F12735   5.966   2.603   9.352  2.8576 -1.1545  0.6325
  120OSM   C11F12736   5.919   2.738   9.179  0.2704  0.3506 -0.0104
  120OSM   H11F12737   6.005   2.797   9.141  0.1429  1.1099  0.8194
  120OSM   H11G12738   5.826   2.798   9.166  1.4968  2.2977 -0.2224
  120OSM   C12F12739   5.908   2.611   9.091  0.4133  0.2051  0.3640
  120OSM   H12F12740   5.824   2.545   9.122 -0.4980  1.9704  1.8255
  120OSM   H12G12741   5.996   2.546   9.106  0.9871  1.1619  1.1808
  120OSM   C13F12742   5.888   2.644   8.945  0.7320  0.2145 -0.1205
  120OSM   H13F12743   5.974   2.701   8.906  1.3625 -1.7133 -1.7208
  120OSM   H13G12744   5.790   2.696   8.941  1.2202  1.1189 -0.7809
  120OSM   C14F12745   5.858   2.514   8.866 -0.4088  0.4422  0.0977
  120OSM   H14F12746   5.843   2.544   8.760  0.0454  0.7940  0.1285
  120OSM   H14G12747   5.771   2.462   8.911 -0.0431 -1.3798 -1.1438
  120OSM   C15F12748   5.978   2.414   8.871  0.3466  0.0146 -0.3491
  120OSM   H15F12749   6.005   2.373   8.970  0.0211  0.7752  0.0670
  120OSM   H15G12750   6.059   2.485   8.842  0.6345  0.5312  1.5994
  120OSM   C16F12751   5.966   2.305   8.765  0.1456 -0.7849 -0.0524
  120OSM   H16F12752   5.952   2.365   8.672 -0.2713 -0.4926  0.1943
  120OSM   H16G12753   5.877   2.238   8.764 -1.3167  1.0515  1.0544
  120OSM   C17F12754   6.104   2.239   8.740  0.4755 -0.3593  0.7720
  120OSM   H17F12755   6.170   2.324   8.712 -0.0804 -0.8145 -2.3289
  120OSM   H17G12756   6.093   2.185   8.643 -0.3001  3.9202 -1.7525
  120OSM   C18F12757   6.164   2.151   8.843 -0.1794  0.3651 -0.0852
  120OSM   H18F12758   6.087   2.079   8.879 -1.4017  0.7843 -1.7426
  120OSM   H18G12759   6.194   2.201   8.937  0.0366 -1.3409  0.7975
  120OSM   H18H12760   6.251   2.093   8.806  1.8614  0.7738  3.5845
  121OSM      N12761   6.642   5.903  10.792  0.0379  1.0737  0.3603
  121OSM    C1512762   6.557   5.955  10.682  0.1540  0.4453  0.4426
  121OSM   H15A12763   6.464   5.899  10.674 -0.3588  1.5101 -1.6723
  121OSM   H15B12764   6.600   5.948  10.584 -0.1006 -1.1427  0.4132
  121OSM   H15C12765   6.532   6.058  10.700  1.6465  0.8911  0.0870
  121OSM    C1412766   6.568   5.884  10.919  0.2636 -0.9381 -0.6947
  121OSM   H14A12767   6.539   5.979  10.961 -2.0601 -2.2948  0.9881
  121OSM   H14B12768   6.634   5.838  10.991 -1.1030 -0.2900  1.0292
  121OSM   H14C12769   6.484   5.818  10.901 -1.0314 -0.0326  1.6483
  121OSM    C1312770   6.668   5.757  10.746 -0.0026  0.0115 -0.2403
  121OSM   H13A12771   6.570   5.712  10.738 -0.5217  1.3420 -2.0866
  121OSM   H13B12772   6.731   5.705  10.816  0.4814 -1.8843 -1.9833
  121OSM   H13C12773   6.712   5.753  10.647  0.8226 -1.0520  0.1510
  121OSM    C1212774   6.773   5.975  10.805  0.2926  0.1391  0.3923
  121OSM   H12A12775   6.758   6.082  10.801 -1.3367 -0.0692 -0.0083
  121OSM   H12B12776   6.834   5.950  10.720  0.5731 -1.5886  1.0593
  121OSM    C1112777   6.855   5.933  10.927  0.5208  0.6456 -0.2413
  121OSM   H11A12778   6.795   5.948  11.019  0.4973  3.5891 -0.6441
  121OSM   H11B12779   6.941   5.999  10.951  1.8831 -1.2436  0.3891
  121OSM      P12780   7.042   5.762  10.859  0.2557  0.1491  0.2342
  121OSM    O1312781   7.142   5.762  10.971  0.0321 -0.3784  0.0185
  121OSM    O1412782   7.025   5.631  10.785  0.1376  0.2626  0.3320
  121OSM    O1112783   7.075   5.873  10.751  0.0638  0.3200  0.1144
  121OSM    O1212784   6.901   5.801  10.911  0.7871  0.3595 -0.5100
  121OSM    C1S12785   7.214   5.891  10.702 -0.3553  0.1606  0.1600
  121OSM    H1S12786   7.281   5.810  10.736  1.8203  1.5127 -0.6894
  121OSM    H1T12787   7.262   5.974  10.757  1.7552  0.6358 -2.2396
  121OSM     NF12788   7.365   5.941  10.509  0.6713 -0.1919 -0.1986
  121OSM    HNF12789   7.400   6.035  10.507 -0.0921  0.1064 -0.1384
  121OSM    C2S12790   7.224   5.938  10.553 -0.0010 -0.0145  0.3186
  121OSM    H2S12791   7.169   5.862  10.494 -1.3652  0.6102  0.7432
  121OSM    C3S12792   7.149   6.071  10.532 -0.0168  0.0647  0.2476
  121OSM    H3S12793   7.195   6.149  10.597  0.1528 -0.3566  0.6352
  121OSM     O312794   7.014   6.068  10.570  0.3909  0.3698  0.0380
  121OSM    HO312795   6.997   5.980  10.603  2.4408 -1.4815 -3.2077
  121OSM    C4S12796   7.164   6.117  10.385 -0.0713 -0.4494 -0.5098
  121OSM    H4S12797   7.259   6.169  10.365  0.3967  0.0137  2.4430
  121OSM    C5S12798   7.079   6.101  10.280 -1.0851 -0.4631  0.2372
  121OSM    H5S12799   6.984   6.047  10.291 -1.1822 -0.3979 -0.2644
  121OSM    C6S12800   7.120   6.145  10.139 -0.2990 -0.2625  0.0784
  121OSM    H6S12801   7.214   6.204  10.134 -0.1895 -0.4777 -0.4231
  121OSM    H6T12802   7.045   6.212  10.091  0.1117  0.8875  0.9860
  121OSM    C7S12803   7.144   6.031  10.034 -0.5790 -0.2338  0.7132
  121OSM    H7S12804   7.045   5.981  10.028  0.2172 -1.7213 -1.0681
  121OSM    H7T12805   7.221   5.961  10.073  0.4160  1.0339  1.0995
  121OSM    C8S12806   7.197   6.060   9.893  0.3226 -0.1755 -0.2099
  121OSM    H8S12807   7.286   6.124   9.909 -0.5249  1.2076 -0.8394
  121OSM    H8T12808   7.123   6.108   9.824  1.8853  0.7571 -1.3050
  121OSM    C9S12809   7.252   5.933   9.822  0.1933  0.0763  0.4756
  121OSM    H9S12810   7.164   5.868   9.799 -1.7380  3.3867 -2.5462
  121OSM    H9T12811   7.322   5.881   9.891 -1.1116 -0.3283  1.5501
  121OSM   C10S12812   7.328   5.979   9.697  0.1030  0.1968  0.0285
  121OSM   H10S12813   7.414   6.044   9.722 -1.0155  1.2710  1.1516
  121OSM   H10T12814   7.271   6.041   9.624  1.2854 -0.9541 -1.9515
  121OSM   C11S12815   7.385   5.871   9.608  0.2575 -0.0864  0.0101
  121OSM   H11S12816   7.304   5.801   9.582  1.2036 -2.0188  1.9668
  121OSM   H11T12817   7.456   5.809   9.667  0.1911 -0.7942 -0.6410
  121OSM   C12S12818   7.436   5.918   9.475 -0.4508  0.0757 -0.3610
  121OSM   H12S12819   7.510   6.000   9.478 -0.9591  0.5330  0.1427
  121OSM   H12T12820   7.354   5.972   9.423 -1.4228 -0.0835  0.9404
  121OSM   C13S12821   7.482   5.794   9.390 -0.7556 -0.6511  0.0768
  121OSM   H13S12822   7.408   5.712   9.374 -0.6963 -0.3773 -1.8527
  121OSM   H13T12823   7.557   5.752   9.461 -2.0333 -0.3216  1.6608
  121OSM   C14S12824   7.557   5.841   9.261  0.7927 -0.4251  0.1022
  121OSM   H14S12825   7.640   5.909   9.287 -0.9759  1.8196  0.1887
  121OSM   H14T12826   7.492   5.903   9.195  2.4644  0.2286 -0.9732
  121OSM   C15S12827   7.623   5.719   9.181  0.0015  0.1553 -0.2018
  121OSM   H15S12828   7.549   5.648   9.139  0.1578  0.0077 -0.2262
  121OSM   H15T12829   7.689   5.660   9.248  0.0202 -1.5953 -1.7009
  121OSM   C16S12830   7.690   5.770   9.050 -0.1987  0.3917 -0.6499
  121OSM   H16S12831   7.746   5.681   9.013  0.9570  0.5344  0.6898
  121OSM   H16T12832   7.770   5.841   9.080 -0.2236 -0.2423  1.0315
  121OSM   C17S12833   7.588   5.820   8.950 -0.1470  0.1821 -0.4545
  121OSM   H17S12834   7.501   5.873   8.994  0.9372  0.0629  1.9986
  121OSM   H17T12835   7.535   5.737   8.899 -3.1998  2.0932 -0.6422
  121OSM   C18S12836   7.658   5.902   8.841 -0.2974  0.1561  0.3684
  121OSM   H18S12837   7.704   5.998   8.873  1.7239 -0.3511 -0.8313
  121OSM   H18T12838   7.584   5.928   8.763  2.2927 -0.6731 -2.5713
  121OSM   H18U12839   7.732   5.848   8.777 -0.9315  1.6980 -1.7691
  121OSM    C1F12840   7.446   5.838  10.480 -0.4156  0.0667 -0.0474
  121OSM     OF12841   7.392   5.729  10.473  0.3754 -0.1137 -0.5024
  121OSM    C2F12842   7.589   5.868  10.439  0.0808  0.2322 -0.3671
  121OSM    H2F12843   7.644   5.881  10.534  1.0148 -0.5451 -0.7889
  121OSM    H2G12844   7.593   5.967  10.389  0.5078 -0.1944 -1.2058
  121OSM    C3F12845   7.643   5.756  10.351  0.4478  0.0436 -0.3550
  121OSM    H3F12846   7.624   5.660  10.404 -1.6875 -0.4534 -1.8721
  121OSM    H3G12847   7.752   5.763  10.333  0.2238  1.6630 -1.3103
  121OSM    C4F12848   7.564   5.744  10.222  0.3199  0.3642 -0.0848
  121OSM    H4F12849   7.453   5.751  10.232  0.5707  2.1070  2.4884
  121OSM    H4G12850   7.576   5.642  10.179 -1.0075 -1.1479  2.8151
  121OSM    C5F12851   7.619   5.845  10.127 -0.3460  0.1689  0.3231
  121OSM    H5F12852   7.626   5.945  10.176 -0.7023 -0.1282  0.9903
  121OSM    H5G12853   7.539   5.846  10.049 -0.7730 -0.6547  0.7471
  121OSM    C6F12854   7.746   5.800  10.048 -0.0221 -0.3140  0.6862
  121OSM    H6F12855   7.738   5.691  10.028  2.5074 -0.3018 -0.8625
  121OSM    H6G12856   7.839   5.807  10.107 -1.1945  2.2053  2.4320
  121OSM    C7F12857   7.771   5.875   9.912 -0.1466 -0.0546 -0.2350
  121OSM    H7F12858   7.788   5.981   9.940 -0.5184  0.3215 -1.3838
  121OSM    H7G12859   7.676   5.891   9.857  0.4539  0.1805 -1.2360
  121OSM    C8F12860   7.885   5.832   9.824 -0.1307 -0.4413  0.5646
  121OSM    H8F12861   7.974   5.828   9.890  0.4457 -2.3664 -0.2387
  121OSM    H8G12862   7.896   5.912   9.747 -0.4581  0.7744  1.7426
  121OSM    C9F12863   7.855   5.704   9.751  0.6392 -0.0437 -0.2075
  121OSM    H9F12864   7.810   5.630   9.819  0.6429  0.6004  0.5139
  121OSM   C10F12865   7.854   5.671   9.628 -0.3924 -0.0913  0.6957
  121OSM   H10F12866   7.828   5.567   9.605  0.6190 -0.0740 -0.5910
  121OSM   C11F12867   7.902   5.750   9.507 -0.2656 -0.5819 -0.1441
  121OSM   H11F12868   7.932   5.847   9.551  0.5036 -0.9511  0.1729
  121OSM   H11G12869   7.818   5.766   9.436 -0.2415  0.6078  0.0757
  121OSM   C12F12870   8.024   5.696   9.430  0.2634 -0.1792 -0.4955
  121OSM   H12F12871   8.103   5.676   9.506 -0.4546  1.9825  0.8947
  121OSM   H12G12872   8.067   5.784   9.377 -0.7916  0.5365 -0.1844
  121OSM   C13F12873   8.006   5.583   9.338 -0.3527 -0.4965 -0.4420
  121OSM   H13F12874   7.926   5.623   9.272 -1.1778  0.7356  1.2270
  121OSM   H13G12875   7.970   5.485   9.375  1.7982 -1.1637  0.0504
  121OSM   C14F12876   8.141   5.560   9.258  0.1132  0.6089 -0.3276
  121OSM   H14F12877   8.200   5.492   9.322 -0.8389 -1.6397 -1.7184
  121OSM   H14G12878   8.194   5.657   9.244  0.3239  0.5360 -0.0457
  121OSM   C15F12879   8.098   5.490   9.121 -0.2648  0.3163 -0.3010
  121OSM   H15F12880   8.035   5.565   9.069  0.2596  0.7776 -0.2907
  121OSM   H15G12881   8.048   5.395   9.150  0.2552  0.1565  0.0971
  121OSM   C16F12882   8.216   5.466   9.030 -0.1083 -0.3863 -0.3729
  121OSM   H16F12883   8.308   5.418   9.071 -0.5996 -0.2311  0.9820
  121OSM   H16G12884   8.253   5.564   8.993 -2.0779  1.6727  2.5935
  121OSM   C17F12885   8.174   5.381   8.906 -0.4051  0.1946 -0.0543
  121OSM   H17F12886   8.076   5.402   8.860 -0.6094  0.0114  0.2890
  121OSM   H17G12887   8.160   5.275   8.938 -0.9916  0.2758 -0.0354
  121OSM   C18F12888   8.278   5.396   8.786  0.8628 -0.1567  0.6121
  121OSM   H18F12889   8.382   5.402   8.825  0.3349  1.3230  1.9153
  121OSM   H18G12890   8.261   5.497   8.742  0.3834 -0.4977  0.0129
  121OSM   H18H12891   8.258   5.317   8.711 -0.0535  2.2952 -1.9084
  122OSM      N12892   4.812   5.277  10.645 -0.0116 -0.0929  0.1289
  122OSM    C1512893   4.768   5.348  10.768  0.2043 -0.4499  0.1452
  122OSM   H15A12894   4.788   5.454  10.765 -0.1652 -0.3882 -1.8025
  122OSM   H15B12895   4.827   5.315  10.852 -0.5016 -3.3557 -0.3973
  122OSM   H15C12896   4.665   5.336  10.794 -0.1913  3.3961  1.0338
  122OSM    C1412897   4.781   5.133  10.665 -0.0562 -0.0978 -0.0108
  122OSM   H14A12898   4.863   5.084  10.714 -1.7024 -1.4203  1.5718
  122OSM   H14B12899   4.771   5.082  10.570  3.6424 -0.4478 -0.3460
  122OSM   H14C12900   4.690   5.116  10.721 -0.5606 -1.0657 -1.0663
  122OSM    C1312901   4.728   5.337  10.541 -0.5037 -0.0293 -0.4650
  122OSM   H13A12902   4.755   5.441  10.530 -0.0171 -0.0138  0.7115
  122OSM   H13B12903   4.622   5.327  10.563 -0.8441  1.2598 -1.4216
  122OSM   H13C12904   4.752   5.297  10.444  0.3029 -3.4970  0.9825
  122OSM    C1212905   4.963   5.308  10.620 -0.2732  0.8207 -0.5285
  122OSM   H12A12906   4.976   5.414  10.632 -0.5539  0.6366  1.8847
  122OSM   H12B12907   4.979   5.280  10.517  0.6833  3.7410 -1.2586
  122OSM    C1112908   5.051   5.221  10.720  0.0554 -0.2605  0.0336
  122OSM   H11A12909   5.028   5.235  10.828 -0.0693  1.2131 -0.1617
  122OSM   H11B12910   5.152   5.263  10.700  0.2658 -0.6655  0.2384
  122OSM      P12911   5.169   4.995  10.745  0.2458 -0.1658 -0.5402
  122OSM    O1312912   5.197   5.046  10.881 -0.8842  0.5518  0.5153
  122OSM    O1412913   5.114   4.855  10.744 -0.5415 -0.0326 -0.2352
  122OSM    O1112914   5.290   5.016  10.641 -0.5760  0.4073 -0.4708
  122OSM    O1212915   5.059   5.088  10.680 -0.5137 -0.3516  0.6647
  122OSM    C1S12916   5.306   4.918  10.535  0.3355  0.8966 -0.2952
  122OSM    H1S12917   5.205   4.895  10.495  0.4674  1.5906 -1.0699
  122OSM    H1T12918   5.359   4.830  10.577  0.8611  1.0736 -0.5726
  122OSM     NF12919   5.411   4.856  10.324 -0.0828 -0.5846 -0.1152
  122OSM    HNF12920   5.500   4.811  10.317  0.6047  0.6709  0.2997
  122OSM    C2S12921   5.398   4.966  10.418  0.1917 -1.0273  0.5529
  122OSM    H2S12922   5.351   5.049  10.361 -0.1846 -2.6456 -1.6141
  122OSM    C3S12923   5.534   5.014  10.466 -0.8712  0.3569  0.6875
  122OSM    H3S12924   5.586   4.927  10.512 -0.9872  0.0968  0.3298
  122OSM     O312925   5.532   5.117  10.569 -0.3278 -0.4627  0.5172
  122OSM    HO312926   5.444   5.106  10.606 -0.8807 -2.8918 -1.2687
  122OSM    C4S12927   5.610   5.069  10.351 -0.3433 -0.4679 -0.3666
  122OSM    H4S12928   5.578   5.167  10.312 -1.8630 -0.3293  1.1189
  122OSM    C5S12929   5.732   5.017  10.307  0.2191 -0.6361  0.0609
  122OSM    H5S12930   5.769   4.919  10.342  1.3702 -0.2075  0.0733
  122OSM    C6S12931   5.793   5.082  10.187 -0.4859  0.2499  0.2045
  122OSM    H6S12932   5.900   5.106  10.207  0.3545 -0.1529 -3.2678
  122OSM    H6T12933   5.744   5.174  10.151 -0.7357  0.0420  0.0138
  122OSM    C7S12934   5.792   4.986  10.063 -0.3130 -0.2021  0.7094
  122OSM    H7S12935   5.842   4.888  10.077 -0.2214 -0.3074 -0.2362
  122OSM    H7T12936   5.848   5.037   9.982  0.3981  1.3613  2.1258
  122OSM    C8S12937   5.644   4.961  10.021 -0.5617 -0.3912  0.0906
  122OSM    H8S12938   5.593   5.058  10.002  3.2123  1.5859 -1.0931
  122OSM    H8T12939   5.588   4.899  10.093 -0.1807 -1.1875 -0.2783
  122OSM    C9S12940   5.643   4.883   9.887  0.4045  0.3812 -0.4405
  122OSM    H9S12941   5.543   4.844   9.859 -0.2451  2.5956 -1.3841
  122OSM    H9T12942   5.709   4.794   9.890  1.2306  0.9954 -0.0755
  122OSM   C10S12943   5.701   4.967   9.771 -0.3568 -0.3361  0.4146
  122OSM   H10S12944   5.804   5.007   9.781 -0.0572 -0.7923 -0.7344
  122OSM   H10T12945   5.633   5.055   9.764  0.8265  0.6671  1.2135
  122OSM   C11S12946   5.690   4.886   9.639 -0.1259 -0.2841  0.2912
  122OSM   H11S12947   5.585   4.850   9.640 -0.2506  0.0763  0.2941
  122OSM   H11T12948   5.770   4.808   9.635  2.1434  1.9096  0.5920
  122OSM   C12S12949   5.713   4.961   9.509  0.5424 -0.3075  0.2296
  122OSM   H12S12950   5.819   4.995   9.515  0.7408 -1.1055  1.3986
  122OSM   H12T12951   5.647   5.050   9.510  1.2403  0.2591 -0.8150
  122OSM   C13S12952   5.681   4.872   9.388  0.2231  0.2312 -0.6832
  122OSM   H13S12953   5.571   4.877   9.374  0.1495 -1.0236 -0.6626
  122OSM   H13T12954   5.715   4.767   9.401 -2.7656 -0.7579 -0.0618
  122OSM   C14S12955   5.757   4.923   9.261  0.3644  0.9377 -0.0592
  122OSM   H14S12956   5.721   4.853   9.182 -0.3747  0.4017  0.7381
  122OSM   H14T12957   5.867   4.914   9.273  0.4843  0.3910 -1.3357
  122OSM   C15S12958   5.734   5.070   9.216  0.5546  0.8908  0.1675
  122OSM   H15S12959   5.783   5.140   9.287  1.0734 -0.0184  0.7317
  122OSM   H15T12960   5.624   5.090   9.220  1.1162  4.5925  0.6486
  122OSM   C16S12961   5.798   5.096   9.078  0.4603 -0.1200 -0.2721
  122OSM   H16S12962   5.811   4.998   9.028  0.8918 -0.2644  0.1185
  122OSM   H16T12963   5.899   5.134   9.101  0.0745 -0.8010  3.0811
  122OSM   C17S12964   5.716   5.192   8.984  0.0294 -0.5563  0.4812
  122OSM   H17S12965   5.687   5.293   9.021 -0.7906 -0.5194 -0.2166
  122OSM   H17T12966   5.620   5.138   8.969  0.3268 -1.2092  0.9045
  122OSM   C18S12967   5.777   5.214   8.852 -0.1403 -0.6417  0.2654
  122OSM   H18S12968   5.714   5.284   8.794  1.2230  0.9670  0.6380
  122OSM   H18T12969   5.790   5.124   8.788  0.9745 -0.2087 -0.1546
  122OSM   H18U12970   5.876   5.264   8.847 -0.7764  0.5676 -1.0783
  122OSM    C1F12971   5.316   4.809  10.255 -0.5355  0.4606  0.1740
  122OSM     OF12972   5.202   4.848  10.259  0.0626  0.0666 -0.1569
  122OSM    C2F12973   5.354   4.706  10.160 -0.2512 -0.4696 -0.6851
  122OSM    H2F12974   5.304   4.612  10.192 -0.5704 -0.1384 -0.1967
  122OSM    H2G12975   5.461   4.680  10.157  0.2547  1.4652 -0.7082
  122OSM    C3F12976   5.302   4.747  10.014  0.4267  0.3728 -0.4127
  122OSM    H3F12977   5.332   4.847   9.978 -0.5894  0.8790  0.0930
  122OSM    H3G12978   5.191   4.738  10.019  0.5042 -0.2306  0.4493
  122OSM    C4F12979   5.344   4.652   9.910  0.6457 -0.6089  1.0084
  122OSM    H4F12980   5.455   4.663   9.904  0.4698  1.0870  0.3522
  122OSM    H4G12981   5.309   4.672   9.807  0.7805 -3.8007  0.2172
  122OSM    C5F12982   5.301   4.502   9.919 -0.0830  0.6525  0.0782
  122OSM    H5F12983   5.191   4.507   9.930 -0.1634 -0.7819  0.0618
  122OSM    H5G12984   5.339   4.461  10.015 -1.7700  1.6247  1.2106
  122OSM    C6F12985   5.327   4.404   9.800 -0.2928 -0.2110 -0.2805
  122OSM    H6F12986   5.429   4.401   9.756 -0.3197 -0.7025 -0.3084
  122OSM    H6G12987   5.260   4.447   9.722  0.0362  0.7986 -0.0276
  122OSM    C7F12988   5.283   4.253   9.817 -0.3809 -0.5906 -0.2426
  122OSM    H7F12989   5.173   4.252   9.830 -0.4305 -0.1030 -0.5677
  122OSM    H7G12990   5.343   4.192   9.888  2.1156 -0.6977 -2.2888
  122OSM    C8F12991   5.295   4.170   9.687  0.6521 -0.2139 -0.0782
  122OSM    H8F12992   5.211   4.209   9.625 -2.0431  1.2795  4.1062
  122OSM    H8G12993   5.258   4.065   9.694  0.6183 -0.3593 -1.9246
  122OSM    C9F12994   5.434   4.165   9.625  0.4143 -0.0180 -0.1071
  122OSM    H9F12995   5.505   4.110   9.689  0.3625 -1.7908 -1.4814
  122OSM   C10F12996   5.477   4.220   9.512  0.9964  0.3687  0.8377
  122OSM   H10F12997   5.576   4.192   9.473 -0.3326 -1.7957 -1.2600
  122OSM   C11F12998   5.401   4.303   9.414 -0.3181  0.0149  0.5387
  122OSM   H11F12999   5.450   4.403   9.409 -0.8377  0.2167 -2.2020
  122OSM   H11G13000   5.295   4.324   9.441 -0.8082 -2.9477  1.1951
  122OSM   C12F13001   5.376   4.238   9.280  0.1393  0.1071  0.2167
  122OSM   H12F13002   5.280   4.182   9.289  0.4898 -0.4977  0.2125
  122OSM   H12G13003   5.466   4.182   9.246 -0.9364 -0.7536 -1.3542
  122OSM   C13F13004   5.344   4.336   9.169 -0.7254 -0.0169  0.0071
  122OSM   H13F13005   5.436   4.398   9.166 -0.2551 -0.7195 -0.8144
  122OSM   H13G13006   5.260   4.401   9.202 -0.5538 -0.8995  2.3971
  122OSM   C14F13007   5.299   4.278   9.037  0.6263  1.3379 -1.0587
  122OSM   H14F13008   5.231   4.353   8.990  1.4426  2.1677 -0.9418
  122OSM   H14G13009   5.234   4.191   9.059 -0.8941  2.5604 -0.5089
  122OSM   C15F13010   5.422   4.220   8.958 -0.4461  0.7703 -0.0096
  122OSM   H15F13011   5.472   4.140   9.018 -0.8226  1.0518  0.6986
  122OSM   H15G13012   5.493   4.304   8.943  0.9947  0.0163  2.0300
  122OSM   C16F13013   5.374   4.161   8.823  0.1657 -0.6644  0.0586
  122OSM   H16F13014   5.318   4.069   8.853  1.0793 -1.5507 -0.8613
  122OSM   H16G13015   5.465   4.124   8.771  1.9028  0.6171  2.0413
  122OSM   C17F13016   5.303   4.262   8.730  0.3922  0.4996 -0.3724
  122OSM   H17F13017   5.202   4.277   8.774 -1.1260 -4.7224 -1.4010
  122OSM   H17G13018   5.283   4.205   8.636  1.2978 -1.6187  0.6605
  122OSM   C18F13019   5.370   4.392   8.709  0.0683 -0.2798  0.2583
  122OSM   H18F13020   5.317   4.455   8.636  0.4717 -1.5592 -1.1969
  122OSM   H18G13021   5.479   4.387   8.685 -0.2816 -0.3460 -1.4644
  122OSM   H18H13022   5.357   4.454   8.800 -0.8052  0.6761 -0.5014
  123OSM      N13023   0.836   0.733   6.032  0.3378  0.0899 -1.1055
  123OSM    C1513024   0.748   0.694   6.146 -0.2979 -0.2829 -0.7120
  123OSM   H15A13025   0.649   0.674   6.109  0.0266 -1.2313 -1.0848
  123OSM   H15B13026   0.751   0.760   6.232  2.4915 -1.9410  0.5987
  123OSM   H15C13027   0.793   0.602   6.180 -2.9633 -1.6811 -0.6484
  123OSM    C1413028   0.852   0.623   5.941  0.3325  0.8025  0.2553
  123OSM   H14A13029   0.909   0.539   5.977  0.2398  0.8689  0.5534
  123OSM   H14B13030   0.892   0.654   5.845 -1.5507  0.7008 -0.6159
  123OSM   H14C13031   0.752   0.591   5.913  0.5172  0.0207  0.4582
  123OSM    C1313032   0.790   0.863   5.968  0.2175  0.3785 -0.1058
  123OSM   H13A13033   0.796   0.938   6.045  2.7251 -0.7155  0.8695
  123OSM   H13B13034   0.693   0.864   5.921  0.2023  2.2667 -0.1109
  123OSM   H13C13035   0.853   0.890   5.884  0.8020 -0.0880  0.1761
  123OSM    C1213036   0.977   0.763   6.095 -0.1229  0.0793 -0.3087
  123OSM   H12A13037   0.975   0.863   6.136  0.2233  0.2946 -0.7972
  123OSM   H12B13038   1.045   0.768   6.012  1.1676 -0.4873  0.6976
  123OSM    C1113039   1.048   0.675   6.201 -0.8551 -0.5475 -0.0713
  123OSM   H11A13040   0.996   0.690   6.298 -2.4399  0.4200 -1.0401
  123OSM   H11B13041   1.145   0.721   6.229 -1.7312  1.1370  0.3103
  123OSM      P13042   1.002   0.416   6.220  0.1856 -0.1676  0.0242
  123OSM    O1313043   0.909   0.354   6.123  0.0741  0.4385 -0.0576
  123OSM    O1413044   1.109   0.332   6.271  0.2335 -0.5746  0.8549
  123OSM    O1113045   0.911   0.470   6.342 -0.1003  0.7045 -0.4893
  123OSM    O1213046   1.076   0.543   6.156 -0.0185 -0.5265  0.5516
  123OSM    C1S13047   0.948   0.458   6.478 -0.1379  0.5955  0.8395
  123OSM    H1S13048   1.054   0.488   6.486  1.1589 -1.6321 -4.1466
  123OSM    H1T13049   0.935   0.352   6.510 -3.4651 -0.0219 -1.8619
  123OSM     NF13050   0.887   0.564   6.707  0.4363  0.6277 -0.1140
  123OSM    HNF13051   0.844   0.512   6.781 -1.2779 -2.3747 -2.9267
  123OSM    C2S13052   0.846   0.537   6.565 -0.0296 -0.3602  0.1520
  123OSM    H2S13053   0.830   0.635   6.516 -0.0893  0.5671  1.9575
  123OSM    C3S13054   0.711   0.452   6.556  0.2320 -0.1364 -0.0678
  123OSM    H3S13055   0.732   0.350   6.595 -0.6906 -0.4012 -0.2392
  123OSM     O313056   0.658   0.431   6.419 -0.4753 -0.0967  0.1300
  123OSM    HO313057   0.728   0.454   6.357 -0.7561 -0.1821 -0.2235
  123OSM    C4S13058   0.608   0.532   6.628 -0.2649  0.8584 -0.0112
  123OSM    H4S13059   0.610   0.637   6.595  1.0558  0.5364 -1.0446
  123OSM    C5S13060   0.527   0.489   6.721 -0.3438 -0.4764 -0.2343
  123OSM    H5S13061   0.525   0.384   6.753 -0.2412 -0.5965 -0.6092
  123OSM    C6S13062   0.417   0.573   6.773  0.4851  0.1036  0.1949
  123OSM    H6S13063   0.322   0.516   6.770 -1.4328  2.9422  2.2731
  123OSM    H6T13064   0.398   0.659   6.706  0.3124 -0.3736 -0.3668
  123OSM    C7S13065   0.447   0.615   6.917 -0.3160 -0.8712 -0.2803
  123OSM    H7S13066   0.380   0.702   6.935 -0.4721 -1.1121  0.3067
  123OSM    H7T13067   0.554   0.646   6.922 -0.3554 -0.8328  0.3156
  123OSM    C8S13068   0.421   0.505   7.025  0.5305 -0.9291 -0.2174
  123OSM    H8S13069   0.512   0.440   7.021  0.6610 -0.7512 -0.1445
  123OSM    H8T13070   0.334   0.443   6.993 -1.2659  1.0778  0.5592
  123OSM    C9S13071   0.404   0.571   7.158  0.1841  0.3274 -0.6609
  123OSM    H9S13072   0.325   0.648   7.158 -0.6498 -0.5049 -0.1610
  123OSM    H9T13073   0.499   0.622   7.185 -0.1243  0.9836 -0.8053
  123OSM   C10S13074   0.379   0.459   7.263 -0.3314  0.3067 -0.1874
  123OSM   H10S13075   0.468   0.393   7.252 -1.1759 -0.7664 -0.8042
  123OSM   H10T13076   0.286   0.404   7.236 -0.4964 -0.7106  2.1853
  123OSM   C11S13077   0.361   0.514   7.401 -0.5443 -0.0657 -0.5274
  123OSM   H11S13078   0.261   0.563   7.400 -1.5607 -1.8705 -3.9185
  123OSM   H11T13079   0.434   0.595   7.424 -1.9801  1.0324  0.3353
  123OSM   C12S13080   0.368   0.401   7.509  0.0672 -1.0748 -0.1539
  123OSM   H12S13081   0.449   0.333   7.474 -1.0020 -3.2135  1.3000
  123OSM   H12T13082   0.271   0.347   7.509 -0.5502  0.0143 -0.5266
  123OSM   C13S13083   0.412   0.448   7.645 -0.2372 -0.1665  0.0168
  123OSM   H13S13084   0.327   0.507   7.687 -0.0761 -1.3699  2.1538
  123OSM   H13T13085   0.497   0.520   7.641  0.7059 -1.2684  0.0054
  123OSM   C14S13086   0.458   0.337   7.734 -0.1076  0.4247  0.8326
  123OSM   H14S13087   0.561   0.302   7.714 -0.1944 -0.4143  1.7907
  123OSM   H14T13088   0.390   0.249   7.728  2.1318 -1.3709  0.8755
  123OSM   C15S13089   0.463   0.364   7.889 -0.6453 -1.0348  0.1695
  123OSM   H15S13090   0.375   0.423   7.921 -0.3174 -0.0106 -0.7653
  123OSM   H15T13091   0.544   0.436   7.914 -2.5891  1.2386  0.2209
  123OSM   C16S13092   0.479   0.236   7.966 -0.3177 -0.2843  0.1486
  123OSM   H16S13093   0.578   0.199   7.932 -0.6416  0.1427 -1.3641
  123OSM   H16T13094   0.407   0.161   7.927 -0.6674 -0.4513  1.0845
  123OSM   C17S13095   0.467   0.248   8.116  0.7255  0.0896  1.0094
  123OSM   H17S13096   0.365   0.287   8.135  0.6201  0.1419  0.3413
  123OSM   H17T13097   0.541   0.327   8.139  0.2265  0.2072  2.3183
  123OSM   C18S13098   0.499   0.121   8.181 -0.1490 -0.6495  0.1037
  123OSM   H18S13099   0.472   0.124   8.289 -2.0582  0.7475 -0.3510
  123OSM   H18T13100   0.608   0.108   8.166 -0.1139  0.0575 -0.2808
  123OSM   H18U13101   0.452   0.032   8.133  0.6527 -0.7343 -0.5443
  123OSM    C1F13102   0.984   0.650   6.728  0.0197  0.0531 -0.5706
  123OSM     OF13103   1.016   0.728   6.637 -0.2215  0.0837 -0.1691
  123OSM    C2F13104   1.048   0.655   6.860 -0.2067 -0.7332  0.7088
  123OSM    H2F13105   1.081   0.553   6.888  1.9327  0.0070  1.0223
  123OSM    H2G13106   0.981   0.685   6.944  0.1989  4.3195 -0.4432
  123OSM    C3F13107   1.178   0.749   6.873  1.2378  1.0232  0.5972
  123OSM    H3F13108   1.141   0.853   6.887  0.5247  0.6189  1.9092
  123OSM    H3G13109   1.238   0.742   6.780 -1.9043  1.3908 -1.5951
  123OSM    C4F13110   1.259   0.726   7.001  0.0880 -0.3565  0.3665
  123OSM    H4F13111   1.363   0.765   6.990  0.7093 -1.8629  0.6717
  123OSM    H4G13112   1.259   0.615   7.004  0.4907 -0.3678  0.0051
  123OSM    C5F13113   1.189   0.798   7.124  0.3150  0.5158 -0.1113
  123OSM    H5F13114   1.082   0.768   7.118 -0.4021  2.4028  1.8047
  123OSM    H5G13115   1.192   0.908   7.112 -0.5042  0.3252 -2.5028
  123OSM    C6F13116   1.244   0.749   7.258 -0.0986  0.8403 -0.4354
  123OSM    H6F13117   1.348   0.713   7.242 -0.8614 -1.8701  0.2287
  123OSM    H6G13118   1.179   0.664   7.287  0.8626 -0.7725 -2.7566
  123OSM    C7F13119   1.237   0.857   7.357 -0.0558 -0.8174  0.6148
  123OSM    H7F13120   1.131   0.888   7.357 -0.2950 -1.3887 -2.1308
  123OSM    H7G13121   1.309   0.936   7.326  0.5309 -1.0557  1.3187
  123OSM    C8F13122   1.272   0.813   7.497 -0.4139  0.2909  0.0826
  123OSM    H8F13123   1.202   0.732   7.524 -1.9749  1.8060  0.7695
  123OSM    H8G13124   1.248   0.900   7.561 -2.7486 -1.2243  1.3873
  123OSM    C9F13125   1.413   0.771   7.505 -0.2420 -0.1520  0.2468
  123OSM    H9F13126   1.434   0.694   7.428 -0.5922  0.7522 -0.7875
  123OSM   C10F13127   1.512   0.831   7.570 -0.6144  0.2312 -0.0239
  123OSM   H10F13128   1.613   0.794   7.551 -0.7663  0.0383 -0.4673
  123OSM   C11F13129   1.515   0.941   7.668  0.1090  0.5834 -0.1791
  123OSM   H11F13130   1.415   0.990   7.663 -0.1174  0.2286  0.7327
  123OSM   H11G13131   1.581   1.030   7.654 -2.0452  2.3773  0.4420
  123OSM   C12F13132   1.548   0.903   7.820 -0.4204 -0.4044  0.0233
  123OSM   H12F13133   1.634   0.833   7.816 -1.6003 -1.8451 -1.5585
  123OSM   H12G13134   1.459   0.841   7.844 -0.0400 -0.9695 -0.0008
  123OSM   C13F13135   1.574   1.019   7.915  0.4237 -0.1554  0.2670
  123OSM   H13F13136   1.476   1.070   7.913 -0.7495 -2.1728 -3.3404
  123OSM   H13G13137   1.657   1.083   7.879 -0.6479  1.4206  0.4975
  123OSM   C14F13138   1.610   0.976   8.062  0.1260 -0.3933  0.5161
  123OSM   H14F13139   1.715   0.940   8.055  1.2140  2.8491 -1.9472
  123OSM   H14G13140   1.546   0.890   8.093 -0.5926 -0.0302  0.0659
  123OSM   C15F13141   1.612   1.102   8.160 -0.2087  1.0782  0.0280
  123OSM   H15F13142   1.641   1.198   8.111  0.4936 -0.2780 -2.3620
  123OSM   H15G13143   1.685   1.072   8.239 -0.1441  0.1876 -0.3588
  123OSM   C16F13144   1.474   1.117   8.228 -0.4614 -0.8146  0.5292
  123OSM   H16F13145   1.455   1.020   8.279  0.6047  0.2554  3.1666
  123OSM   H16G13146   1.392   1.154   8.164 -0.8719  1.2668  2.1339
  123OSM   C17F13147   1.493   1.224   8.339  0.4194  0.0394 -0.6755
  123OSM   H17F13148   1.592   1.226   8.389 -0.0471  0.5314  0.2552
  123OSM   H17G13149   1.415   1.206   8.416  0.4632  2.7894  0.1316
  123OSM   C18F13150   1.468   1.369   8.302  0.3399 -0.5425  0.8436
  123OSM   H18F13151   1.375   1.386   8.244  0.6945  1.5430  0.7989
  123OSM   H18G13152   1.549   1.415   8.241 -1.2377  1.7380  0.3651
  123OSM   H18H13153   1.467   1.432   8.394  0.5432 -0.4728  0.7997
  124OSM      N13154   5.175   4.828   6.231  0.3329  0.4103 -0.4995
  124OSM    C1513155   5.113   4.753   6.350  0.0694  0.1413 -0.2091
  124OSM   H15A13156   5.196   4.703   6.396  1.9058  0.8633 -2.5205
  124OSM   H15B13157   5.044   4.679   6.311  0.7533 -0.0233 -1.1378
  124OSM   H15C13158   5.061   4.820   6.416 -0.7056 -2.6668  2.2300
  124OSM    C1413159   5.220   4.730   6.137  0.4872  0.3737  0.5419
  124OSM   H14A13160   5.246   4.772   6.041 -2.4978  0.6867 -0.2245
  124OSM   H14B13161   5.147   4.653   6.116  0.2808  0.5323  0.6771
  124OSM   H14C13162   5.311   4.680   6.167  1.2895 -0.3546 -2.6679
  124OSM    C1313163   5.068   4.903   6.176  0.5986 -0.5518 -0.0723
  124OSM   H13A13164   5.087   4.941   6.077  1.3198 -0.5784  0.0505
  124OSM   H13B13165   5.037   4.980   6.246  0.0473 -1.2821  0.4986
  124OSM   H13C13166   4.978   4.845   6.157  0.5956 -0.1692 -1.3296
  124OSM    C1213167   5.294   4.906   6.277  0.6277 -0.1287  0.2479
  124OSM   H12A13168   5.334   4.948   6.187  1.9148 -1.1429  0.3192
  124OSM   H12B13169   5.377   4.853   6.322  0.7101 -0.0233  0.2197
  124OSM    C1113170   5.276   5.028   6.375 -0.1482 -0.7250 -0.4984
  124OSM   H11A13171   5.373   5.062   6.417 -0.5650  0.6669 -0.5931
  124OSM   H11B13172   5.212   4.994   6.460  0.7676 -1.0482  0.0719
  124OSM      P13173   5.266   5.241   6.221  0.0384 -0.4692 -0.6593
  124OSM    O1313174   5.349   5.168   6.126  0.0157 -1.0103 -0.8473
  124OSM    O1413175   5.173   5.333   6.164  0.2629  0.8059  0.1288
  124OSM    O1113176   5.357   5.320   6.316  0.4848  0.5484  0.4020
  124OSM    O1213177   5.198   5.135   6.314  0.3322 -0.2553  0.2860
  124OSM    C1S13178   5.302   5.381   6.435 -0.3155 -0.6923  0.4542
  124OSM    H1S13179   5.270   5.305   6.510 -1.2107  1.2004  2.1120
  124OSM    H1T13180   5.212   5.439   6.407  0.2375  0.0199  0.1340
  124OSM     NF13181   5.324   5.540   6.621  0.5219  0.0118 -0.3137
  124OSM    HNF13182   5.306   5.638   6.610 -0.6811 -0.3029 -1.3815
  124OSM    C2S13183   5.398   5.482   6.512 -0.3008 -0.1896  0.7224
  124OSM    H2S13184   5.475   5.416   6.558  1.9847 -1.1565 -3.8888
  124OSM    C3S13185   5.466   5.581   6.406 -0.5346 -0.0321  0.3274
  124OSM    H3S13186   5.393   5.629   6.339 -0.3477 -0.2512 -0.0358
  124OSM     O313187   5.568   5.512   6.328 -0.1527 -0.5535  0.1484
  124OSM    HO313188   5.537   5.421   6.320  0.1738 -0.8172  1.6063
  124OSM    C4S13189   5.532   5.701   6.478 -0.4530 -0.1017 -0.0322
  124OSM    H4S13190   5.470   5.792   6.482  2.5670  2.1580 -0.5540
  124OSM    C5S13191   5.661   5.730   6.528  0.3672  0.0020 -0.1513
  124OSM    H5S13192   5.733   5.648   6.528 -0.2568 -0.5509 -0.1380
  124OSM    C6S13193   5.711   5.858   6.594  0.6031 -0.1252 -0.0807
  124OSM    H6S13194   5.642   5.945   6.593  0.4005 -0.0927  3.4654
  124OSM    H6T13195   5.804   5.881   6.538 -0.4157  0.9491 -1.4043
  124OSM    C7S13196   5.764   5.842   6.739 -0.3570 -0.5381  0.3218
  124OSM    H7S13197   5.820   5.937   6.755 -1.7817  0.8348 -2.1770
  124OSM    H7T13198   5.820   5.747   6.751 -2.6331 -1.7390  2.3203
  124OSM    C8S13199   5.651   5.841   6.852 -0.0177 -0.1135  0.0274
  124OSM    H8S13200   5.574   5.766   6.822 -0.0247 -0.0073 -0.2221
  124OSM    H8T13201   5.601   5.940   6.857  0.1492 -0.0378  0.1960
  124OSM    C9S13202   5.708   5.812   6.987  0.2353 -0.2436  0.4316
  124OSM    H9S13203   5.812   5.851   6.989 -0.3571  1.4194  1.4748
  124OSM    H9T13204   5.705   5.702   6.992 -0.5533 -0.3644 -1.6013
  124OSM   C10S13205   5.636   5.872   7.102  0.6637  0.4255 -0.2998
  124OSM   H10S13206   5.529   5.843   7.107  0.6358  0.6647  0.5794
  124OSM   H10T13207   5.627   5.982   7.094 -1.6371  0.2253 -1.5109
  124OSM   C11S13208   5.716   5.843   7.237  0.3638  0.3334  0.1152
  124OSM   H11S13209   5.823   5.875   7.237  0.3605  0.5829  2.8503
  124OSM   H11T13210   5.714   5.736   7.265 -1.0216  0.6153  1.1813
  124OSM   C12S13211   5.653   5.915   7.356  0.6664 -0.2698  0.1378
  124OSM   H12S13212   5.546   5.885   7.361  1.2499 -2.3081  1.3755
  124OSM   H12T13213   5.651   6.024   7.335 -0.4809 -0.2071  0.4967
  124OSM   C13S13214   5.718   5.898   7.493  0.3420  0.6730  0.4316
  124OSM   H13S13215   5.819   5.945   7.495 -0.5612  2.8240 -1.0582
  124OSM   H13T13216   5.734   5.788   7.498  0.5584  0.6738 -0.1571
  124OSM   C14S13217   5.626   5.946   7.613 -0.5721 -0.1724  0.5481
  124OSM   H14S13218   5.534   5.884   7.614  0.1963 -1.3437  0.9607
  124OSM   H14T13219   5.594   6.051   7.598  0.5124 -0.1572 -2.2475
  124OSM   C15S13220   5.700   5.928   7.746 -0.3033  0.3368 -0.3485
  124OSM   H15S13221   5.797   5.982   7.741  0.4958 -0.9993  0.1241
  124OSM   H15T13222   5.737   5.823   7.747 -1.1842 -0.0096 -1.5196
  124OSM   C16S13223   5.617   5.973   7.866  0.2500 -0.0961  0.5544
  124OSM   H16S13224   5.515   5.931   7.878 -0.7716  2.4686  1.5644
  124OSM   H16T13225   5.599   6.083   7.860 -1.3611 -0.4013 -1.3061
  124OSM   C17S13226   5.688   5.942   7.998 -0.0096 -0.2811 -0.0751
  124OSM   H17S13227   5.612   5.956   8.078  0.9245 -0.1669  0.8113
  124OSM   H17T13228   5.769   6.016   8.014  0.0239 -0.6074  1.3555
  124OSM   C18S13229   5.732   5.796   8.021  0.6447 -0.0495  0.2937
  124OSM   H18S13230   5.795   5.786   8.112  0.8161  1.2668  0.3365
  124OSM   H18T13231   5.786   5.750   7.937  1.5023  1.2037  0.1380
  124OSM   H18U13232   5.635   5.743   8.032 -0.4044  1.1095 -2.5287
  124OSM    C1F13233   5.292   5.475   6.732 -0.4099  0.0387  0.7465
  124OSM     OF13234   5.346   5.371   6.762  0.3369 -0.0772 -0.2781
  124OSM    C2F13235   5.232   5.559   6.846  0.4308  0.3999 -0.6611
  124OSM    H2F13236   5.142   5.509   6.887  0.9043 -0.5183 -0.7143
  124OSM    H2G13237   5.187   5.653   6.806  0.2436  0.1038 -1.1495
  124OSM    C3F13238   5.343   5.591   6.944 -0.0108  0.0838 -0.8924
  124OSM    H3F13239   5.429   5.647   6.904  0.5213  0.1000  0.2333
  124OSM    H3G13240   5.378   5.495   6.988 -1.3101  0.2122  0.5450
  124OSM    C4F13241   5.286   5.663   7.064 -0.0450  0.1930  0.4318
  124OSM    H4F13242   5.229   5.745   7.017 -2.3505 -0.0546  2.5883
  124OSM    H4G13243   5.357   5.711   7.135  0.0030  0.6625  0.0700
  124OSM    C5F13244   5.190   5.586   7.152  0.2218 -0.1822 -0.4193
  124OSM    H5F13245   5.196   5.480   7.121 -2.0927 -0.0165 -1.5831
  124OSM    H5G13246   5.083   5.614   7.145  0.4376  1.2156  1.2854
  124OSM    C6F13247   5.232   5.594   7.303  0.1880 -0.1274  0.0702
  124OSM    H6F13248   5.237   5.701   7.332 -1.8251 -0.2919  1.2285
  124OSM    H6G13249   5.324   5.533   7.313  1.8628  2.5831  3.7020
  124OSM    C7F13250   5.112   5.534   7.394 -0.1372 -0.2694  0.5236
  124OSM    H7F13251   5.093   5.426   7.380  0.5611 -0.0853 -2.6110
  124OSM    H7G13252   5.023   5.581   7.347  0.3241 -0.1073 -0.2166
  124OSM    C8F13253   5.124   5.567   7.550  0.0516 -0.0552  0.3981
  124OSM    H8F13254   5.025   5.542   7.595 -0.5037 -0.3048 -0.9401
  124OSM    H8G13255   5.128   5.678   7.555 -0.7641  0.0554 -1.0063
  124OSM    C9F13256   5.233   5.501   7.620  0.6168 -0.0655  0.0201
  124OSM    H9F13257   5.278   5.421   7.560  1.1085  0.5714 -0.4656
  124OSM   C10F13258   5.287   5.534   7.738 -0.1826  0.2720 -0.8797
  124OSM   H10F13259   5.367   5.469   7.778 -0.5233  0.0384 -0.5704
  124OSM   C11F13260   5.245   5.656   7.821 -0.6770  0.5385  0.2036
  124OSM   H11F13261   5.145   5.693   7.790  0.1743  0.6513 -2.6736
  124OSM   H11G13262   5.315   5.740   7.803  0.7178 -0.8826 -1.2874
  124OSM   C12F13263   5.241   5.617   7.971 -0.0719 -0.1317  0.0170
  124OSM   H12F13264   5.302   5.527   7.993  1.8124  0.9741 -0.5044
  124OSM   H12G13265   5.139   5.578   7.996 -0.1337 -0.3059 -0.5066
  124OSM   C13F13266   5.263   5.728   8.071 -0.0705 -0.2093  0.0133
  124OSM   H13F13267   5.186   5.808   8.060 -1.2148 -1.1871  0.7248
  124OSM   H13G13268   5.362   5.780   8.068  1.3100 -2.5562  1.6992
  124OSM   C14F13269   5.259   5.677   8.218  0.4593 -0.1386  0.1817
  124OSM   H14F13270   5.227   5.570   8.214  1.7423 -0.5176 -0.4665
  124OSM   H14G13271   5.183   5.728   8.281  0.2596  0.3700 -0.4597
  124OSM   C15F13272   5.394   5.683   8.279 -1.3473  0.4548  0.2662
  124OSM   H15F13273   5.408   5.787   8.316  2.4036  0.4416 -0.6096
  124OSM   H15G13274   5.467   5.655   8.199 -0.2514  1.0928  1.0231
  124OSM   C16F13275   5.413   5.583   8.397  0.4424 -0.7276  0.1606
  124OSM   H16F13276   5.383   5.485   8.353 -2.8920 -0.8016  2.2793
  124OSM   H16G13277   5.337   5.605   8.475  3.3551  0.9924  2.7188
  124OSM   C17F13278   5.553   5.583   8.455  0.0353  0.0697 -0.0296
  124OSM   H17F13279   5.575   5.682   8.498 -0.3372 -0.2659  0.9756
  124OSM   H17G13280   5.618   5.556   8.370  0.6687  0.2075  0.4043
  124OSM   C18F13281   5.570   5.485   8.565  0.8116 -0.0847 -0.3656
  124OSM   H18F13282   5.672   5.489   8.609 -0.3674 -3.3779  3.2526
  124OSM   H18G13283   5.558   5.383   8.524  1.6991 -1.2848  2.1481
  124OSM   H18H13284   5.495   5.511   8.643 -0.9235  2.4795 -2.6645
  125OSM      N13285   4.629   0.438   5.972  0.5757  0.2811 -0.9921
  125OSM    C1513286   4.708   0.330   5.917 -0.2644  0.3464  0.0900
  125OSM   H15A13287   4.656   0.240   5.946  0.2642 -0.1025 -0.3356
  125OSM   H15B13288   4.808   0.319   5.955 -0.6586 -4.5105  0.3358
  125OSM   H15C13289   4.722   0.347   5.811 -0.7645  2.3621  0.3117
  125OSM    C1413290   4.702   0.565   5.950 -0.6968  0.5209  0.4752
  125OSM   H14A13291   4.752   0.575   5.855  0.3390  3.5986  1.2233
  125OSM   H14B13292   4.783   0.580   6.020 -1.0055 -1.7901  1.4133
  125OSM   H14C13293   4.636   0.650   5.953  0.4009  1.4244  0.0215
  125OSM    C1313294   4.504   0.445   5.886  0.0691  0.0674  0.5911
  125OSM   H13A13295   4.446   0.357   5.908  1.1880 -0.9207 -0.2764
  125OSM   H13B13296   4.525   0.454   5.781  0.1321 -0.1786  0.5833
  125OSM   H13C13297   4.448   0.534   5.912  1.2977  1.0031  0.1672
  125OSM    C1213298   4.599   0.417   6.117  0.3866 -0.1809  0.1435
  125OSM   H12A13299   4.560   0.509   6.159  1.5120  0.0397  0.7733
  125OSM   H12B13300   4.692   0.421   6.172  0.4552 -2.1800  0.2270
  125OSM    C1113301   4.516   0.295   6.171  0.4461 -0.1766  0.0851
  125OSM   H11A13302   4.523   0.287   6.281 -0.4877 -0.7999  0.0989
  125OSM   H11B13303   4.556   0.204   6.120  0.6848 -0.5183  0.8739
  125OSM      P13304   4.276   0.417   6.159 -0.3572  0.0682 -0.0898
  125OSM    O1313305   4.340   0.550   6.152  0.3950 -0.5151 -0.7277
  125OSM    O1413306   4.157   0.394   6.075 -0.0466 -0.4375 -0.7435
  125OSM    O1113307   4.244   0.388   6.308  0.0200  0.6197 -0.4343
  125OSM    O1213308   4.379   0.305   6.129  0.3780 -0.1038 -0.5926
  125OSM    C1S13309   4.120   0.383   6.375 -0.2698 -0.0875  1.2062
  125OSM    H1S13310   4.078   0.281   6.357 -2.7960  0.6565  2.4285
  125OSM    H1T13311   4.049   0.456   6.332 -0.3460 -0.2576  1.0399
  125OSM     NF13312   4.034   0.357   6.610 -0.1653  0.6559  0.0838
  125OSM    HNF13313   3.970   0.418   6.656  2.2395  1.0258  3.2145
  125OSM    C2S13314   4.136   0.418   6.526 -0.1568 -0.4911  0.0786
  125OSM    H2S13315   4.234   0.380   6.562  0.1237  0.1557  0.0106
  125OSM    C3S13316   4.148   0.575   6.547 -0.0768  0.2715  0.1348
  125OSM    H3S13317   4.061   0.623   6.497 -0.8605 -1.1214  0.1328
  125OSM     O313318   4.261   0.634   6.479  0.5548 -0.4779 -0.2182
  125OSM    HO313319   4.285   0.558   6.426 -1.4349 -2.1168  1.0641
  125OSM    C4S13320   4.147   0.616   6.695 -0.4780 -0.0120  0.0006
  125OSM    H4S13321   4.058   0.671   6.730 -0.6603  1.2920 -2.2623
  125OSM    C5S13322   4.259   0.605   6.773  0.6194  0.3849 -0.8372
  125OSM    H5S13323   4.355   0.567   6.735  0.1146  0.1758 -1.9554
  125OSM    C6S13324   4.259   0.647   6.916  0.5389 -0.7049 -0.1306
  125OSM    H6S13325   4.176   0.719   6.936  1.1948 -0.0811  0.3951
  125OSM    H6T13326   4.344   0.714   6.941  0.7491 -0.6618 -0.9382
  125OSM    C7S13327   4.245   0.517   7.012 -0.1477 -0.0962  0.5053
  125OSM    H7S13328   4.342   0.465   7.001 -0.2808 -0.0868 -1.0834
  125OSM    H7T13329   4.154   0.462   6.981 -0.7891  0.8217  0.7133
  125OSM    C8S13330   4.236   0.550   7.163  0.3875  0.5887  0.0064
  125OSM    H8S13331   4.336   0.592   7.185  1.2358 -0.8396 -0.9710
  125OSM    H8T13332   4.226   0.463   7.231 -0.7288  1.3361  0.8471
  125OSM    C9S13333   4.142   0.655   7.201  0.1263 -0.0079 -0.4866
  125OSM    H9S13334   4.067   0.662   7.119  1.9407  0.1913 -2.1797
  125OSM    H9T13335   4.194   0.750   7.228  0.4118 -0.4619  0.6138
  125OSM   C10S13336   4.056   0.618   7.328  0.0210 -0.2233 -0.0710
  125OSM   H10S13337   4.011   0.518   7.307  0.8346 -0.6891  0.3739
  125OSM   H10T13338   3.979   0.697   7.340  1.3826  1.1135  0.0646
  125OSM   C11S13339   4.136   0.590   7.458 -0.0280 -0.1714 -0.4561
  125OSM   H11S13340   4.208   0.507   7.442 -0.1986 -0.2155 -0.9973
  125OSM   H11T13341   4.073   0.560   7.544  2.2754  0.1929  1.4573
  125OSM   C12S13342   4.215   0.718   7.495 -0.3435 -0.6923  0.3906
  125OSM   H12S13343   4.159   0.809   7.464  1.2184  0.1094 -0.1972
  125OSM   H12T13344   4.313   0.712   7.443 -0.3415 -0.6653  0.3914
  125OSM   C13S13345   4.246   0.736   7.646 -0.8408 -0.1329  0.1807
  125OSM   H13S13346   4.143   0.735   7.690 -0.3613 -1.6405  1.3645
  125OSM   H13T13347   4.298   0.833   7.663  0.4604 -0.7666 -0.1277
  125OSM   C14S13348   4.336   0.625   7.709  0.0173  0.0743  0.0072
  125OSM   H14S13349   4.442   0.648   7.685  0.0648 -2.8932 -3.5867
  125OSM   H14T13350   4.304   0.527   7.668 -0.7969 -0.5657  2.0205
  125OSM   C15S13351   4.311   0.613   7.865 -0.3389 -0.5575  0.9515
  125OSM   H15S13352   4.207   0.579   7.885 -0.6257 -0.4860 -0.3806
  125OSM   H15T13353   4.339   0.699   7.928  0.9505 -1.8252  2.1936
  125OSM   C16S13354   4.401   0.508   7.921 -0.3139 -0.6379 -0.8627
  125OSM   H16S13355   4.501   0.542   7.885  1.3157 -1.8867  2.0996
  125OSM   H16T13356   4.386   0.405   7.884  1.1028 -1.0200 -0.4529
  125OSM   C17S13357   4.395   0.479   8.075 -0.2647 -0.0294 -0.9124
  125OSM   H17S13358   4.414   0.372   8.100 -1.4420 -0.3467 -1.3263
  125OSM   H17T13359   4.288   0.493   8.100  0.3634  1.8932  1.0599
  125OSM   C18S13360   4.472   0.577   8.169  0.3806  0.2655  0.2173
  125OSM   H18S13361   4.435   0.578   8.274  2.3612 -1.8068  1.0259
  125OSM   H18T13362   4.462   0.681   8.132  1.1166  0.3547  0.2505
  125OSM   H18U13363   4.579   0.546   8.175  0.5637  0.6217 -0.9489
  125OSM    C1F13364   4.031   0.233   6.648 -0.3481  0.2528 -0.3299
  125OSM     OF13365   4.131   0.162   6.645 -0.3272  0.4402  0.3688
  125OSM    C2F13366   3.901   0.173   6.697 -0.0515 -0.1891  0.0754
  125OSM    H2F13367   3.852   0.110   6.619  1.6025 -1.1115 -0.2735
  125OSM    H2G13368   3.835   0.256   6.729 -1.1672 -0.6623 -0.9397
  125OSM    C3F13369   3.931   0.088   6.823 -0.2761  0.2985 -0.1162
  125OSM    H3F13370   3.985   0.157   6.891 -0.4895 -0.7183  1.1083
  125OSM    H3G13371   3.983  -0.008   6.803 -3.9997 -1.7030 -1.0985
  125OSM    C4F13372   3.806   0.025   6.884 -0.0886 -0.7459  0.4115
  125OSM    H4F13373   3.767  -0.051   6.812 -1.1487  0.2655 -0.1239
  125OSM    H4G13374   3.718   0.092   6.892  0.5248  0.3990 -1.5732
  125OSM    C5F13375   3.831  -0.028   7.024 -0.4340  0.0174  0.8390
  125OSM    H5F13376   3.740  -0.028   7.088 -0.8911 -0.4106  0.1980
  125OSM    H5G13377   3.904   0.044   7.067  0.4673 -0.8591  0.7919
  125OSM    C6F13378   3.892  -0.172   7.024  0.4585 -0.5947 -0.0618
  125OSM    H6F13379   3.953  -0.196   6.934  2.9582 -0.0002  1.4030
  125OSM    H6G13380   3.803  -0.239   7.034 -0.6447  0.7149 -0.7191
  125OSM    C7F13381   3.989  -0.205   7.135 -0.5037 -0.3896 -0.0540
  125OSM    H7F13382   4.066  -0.126   7.123 -1.1219  0.0456 -1.3892
  125OSM    H7G13383   4.045  -0.300   7.120  1.9065  0.6704  1.6138
  125OSM    C8F13384   3.936  -0.191   7.280  0.3542 -0.7307  0.0183
  125OSM    H8F13385   3.885  -0.092   7.284 -0.9103 -1.3741  0.3129
  125OSM    H8G13386   4.022  -0.198   7.350  0.9949  1.3373 -0.4670
  125OSM    C9F13387   3.827  -0.287   7.317 -0.1208 -0.0726 -0.3941
  125OSM    H9F13388   3.771  -0.329   7.233 -1.1643 -3.1723  1.6748
  125OSM   C10F13389   3.818  -0.344   7.437  0.2889  0.4810  0.2314
  125OSM   H10F13390   3.735  -0.415   7.449  0.9473 -0.2456  0.5472
  125OSM   C11F13391   3.893  -0.341   7.568  0.3172 -0.0261 -0.0014
  125OSM   H11F13392   3.825  -0.388   7.642  0.7911  0.1703  0.5630
  125OSM   H11G13393   3.921  -0.240   7.604  1.2370 -0.4390  0.4888
  125OSM   C12F13394   4.022  -0.424   7.542  0.6587  0.3171 -0.0324
  125OSM   H12F13395   4.082  -0.379   7.461  0.3090  1.1860  0.1754
  125OSM   H12G13396   3.992  -0.521   7.497 -1.3576  0.5894  0.6155
  125OSM   C13F13397   4.089  -0.457   7.680 -0.2521 -0.1851  0.5887
  125OSM   H13F13398   4.028  -0.540   7.722 -1.0671 -0.3236 -0.8036
  125OSM   H13G13399   4.084  -0.372   7.751  1.0170  0.4662 -0.0693
  125OSM   C14F13400   4.228  -0.503   7.661  0.8231 -1.0571  0.2126
  125OSM   H14F13401   4.279  -0.423   7.603 -0.2530 -1.9452 -2.1090
  125OSM   H14G13402   4.235  -0.601   7.609  1.2806 -1.2900  0.7047
  125OSM   C15F13403   4.313  -0.528   7.784  0.2548 -0.0018 -0.1533
  125OSM   H15F13404   4.313  -0.435   7.845  1.6825 -0.3371  0.4177
  125OSM   H15G13405   4.416  -0.539   7.744  1.0558 -0.0370  1.8032
  125OSM   C16F13406   4.269  -0.655   7.862  0.0736  0.0576 -0.0890
  125OSM   H16F13407   4.349  -0.700   7.925  0.2687  2.7155  1.7222
  125OSM   H16G13408   4.236  -0.733   7.790 -0.5799 -0.3419  0.6297
  125OSM   C17F13409   4.149  -0.643   7.958 -0.4864 -0.3739  0.6497
  125OSM   H17F13410   4.150  -0.722   8.036 -0.2136  1.5900  2.7383
  125OSM   H17G13411   4.049  -0.648   7.911 -0.3318  0.6559  0.1949
  125OSM   C18F13412   4.146  -0.517   8.034 -0.7823  0.2290  0.1689
  125OSM   H18F13413   4.078  -0.523   8.121 -1.8251  1.8105 -0.4873
  125OSM   H18G13414   4.125  -0.428   7.970  2.4271 -0.5695 -2.2737
  125OSM   H18H13415   4.246  -0.495   8.077 -0.1134  1.2427 -1.7691
  126OSM      N13416   2.625   5.819   6.523  0.6204  0.1794  0.2215
  126OSM    C1513417   2.701   5.819   6.398 -0.3084 -0.2237 -0.3471
  126OSM   H15A13418   2.637   5.823   6.310 -0.2936 -2.2039 -0.4853
  126OSM   H15B13419   2.757   5.729   6.381 -1.3319 -0.6065 -1.8777
  126OSM   H15C13420   2.752   5.914   6.392 -0.3748 -0.2573 -1.9312
  126OSM    C1413421   2.532   5.697   6.527 -0.0412  0.3009  0.0628
  126OSM   H14A13422   2.591   5.606   6.521 -1.0956 -0.4237  0.4781
  126OSM   H14B13423   2.467   5.702   6.441 -1.4784 -3.3023  0.7494
  126OSM   H14C13424   2.474   5.696   6.618  0.6489 -0.8941  0.5174
  126OSM    C1313425   2.720   5.831   6.641 -0.6770  0.2746  0.3845
  126OSM   H13A13426   2.672   5.835   6.738  2.1645 -2.2249  2.0639
  126OSM   H13B13427   2.779   5.917   6.615 -2.0140  1.0134 -0.3661
  126OSM   H13C13428   2.786   5.746   6.647  0.4386  1.1872  1.8016
  126OSM    C1213429   2.533   5.942   6.515  0.4224 -0.5232  0.1058
  126OSM   H12A13430   2.465   5.928   6.433  2.1633  1.4261 -1.7754
  126OSM   H12B13431   2.589   6.033   6.502  1.6310 -0.9315  2.0615
  126OSM    C1113432   2.450   5.969   6.644 -0.1905 -0.4994  0.1408
  126OSM   H11A13433   2.428   6.078   6.640  1.8948 -0.0383  0.2712
  126OSM   H11B13434   2.511   5.963   6.736 -0.1499 -0.7795  0.0970
  126OSM      P13435   2.218   5.887   6.543 -0.1501  0.1183  0.0064
  126OSM    O1313436   2.147   6.014   6.530 -0.1892  0.0091  0.3597
  126OSM    O1413437   2.271   5.836   6.409 -0.4110 -0.1084 -0.6517
  126OSM    O1113438   2.129   5.776   6.599  0.0816 -0.5663 -0.5004
  126OSM    O1213439   2.335   5.885   6.659  0.0717  0.0543 -0.2410
  126OSM    C1S13440   2.172   5.644   6.618  1.1479  0.3490 -0.6403
  126OSM    H1S13441   2.256   5.601   6.559  0.1239 -1.7034 -0.7215
  126OSM    H1T13442   2.083   5.579   6.598  0.4856  0.5954  1.2937
  126OSM     NF13443   2.238   5.468   6.773  0.4445 -0.2836 -0.5133
  126OSM    HNF13444   2.164   5.410   6.807 -1.1076  1.8396 -0.0732
  126OSM    C2S13445   2.209   5.607   6.766  0.6130  0.4769 -0.7420
  126OSM    H2S13446   2.299   5.666   6.791 -0.7184  1.6400  1.6147
  126OSM    C3S13447   2.090   5.646   6.863 -1.2052  0.5956  0.4728
  126OSM    H3S13448   1.998   5.591   6.832  0.3206 -1.1246 -1.2401
  126OSM     O313449   2.048   5.782   6.853  0.1028 -0.9073  0.5058
  126OSM    HO313450   2.091   5.805   6.770 -0.7522 -2.8875 -0.5728
  126OSM    C4S13451   2.113   5.611   7.013  0.2863 -0.1307 -0.2215
  126OSM    H4S13452   2.213   5.613   7.059  0.1823 -3.2025  0.3433
  126OSM    C5S13453   2.016   5.558   7.097 -0.3410 -0.3396  0.1884
  126OSM    H5S13454   1.925   5.513   7.053  1.0900 -3.3153  0.0038
  126OSM    C6S13455   2.036   5.504   7.238  0.4370  0.2683  0.4371
  126OSM    H6S13456   2.088   5.573   7.308  0.3610 -0.2423  1.0106
  126OSM    H6T13457   2.090   5.407   7.225 -1.2253 -0.4410 -1.8233
  126OSM    C7S13458   1.896   5.453   7.292 -0.6640 -0.7147  0.7788
  126OSM    H7S13459   1.858   5.374   7.224 -0.5483  0.4603 -0.6970
  126OSM    H7T13460   1.816   5.530   7.280 -0.8304 -1.0510 -0.3975
  126OSM    C8S13461   1.900   5.402   7.434 -0.0256 -0.7581  0.9407
  126OSM    H8S13462   1.942   5.479   7.502  0.0424 -1.8394  2.1681
  126OSM    H8T13463   1.973   5.318   7.440  2.6538  1.4454  1.2078
  126OSM    C9S13464   1.761   5.346   7.485  0.6152 -0.5140  0.1152
  126OSM    H9S13465   1.708   5.299   7.399 -1.5069  2.5403 -0.4078
  126OSM    H9T13466   1.687   5.424   7.512 -2.9281 -2.4644 -2.9149
  126OSM   C10S13467   1.775   5.244   7.606  0.4043  0.9213  0.2222
  126OSM   H10S13468   1.829   5.155   7.569  1.8451  0.9556  2.0809
  126OSM   H10T13469   1.671   5.219   7.636  0.4714  0.9461  0.4833
  126OSM   C11S13470   1.835   5.296   7.734 -0.4484  0.6349  0.1020
  126OSM   H11S13471   1.940   5.312   7.701 -0.4960  0.6237 -0.0530
  126OSM   H11T13472   1.831   5.215   7.810 -0.1287  0.8872  0.3924
  126OSM   C12S13473   1.760   5.420   7.787  0.2363 -0.3765  0.0113
  126OSM   H12S13474   1.651   5.425   7.769  0.2968 -1.4529 -0.7676
  126OSM   H12T13475   1.797   5.511   7.736 -1.2431  0.6132  0.6509
  126OSM   C13S13476   1.766   5.431   7.940 -0.4650 -0.3225 -0.7381
  126OSM   H13S13477   1.863   5.467   7.982 -0.5936  2.4454 -2.5363
  126OSM   H13T13478   1.754   5.330   7.985  2.7991 -0.0141  1.1930
  126OSM   C14S13479   1.660   5.528   7.996  0.6260  0.0315  0.1694
  126OSM   H14S13480   1.565   5.480   7.965  1.3314 -1.4581  0.2381
  126OSM   H14T13481   1.675   5.634   7.966 -1.4799 -0.3680 -2.6579
  126OSM   C15S13482   1.661   5.520   8.148  0.3438 -0.7606 -0.0077
  126OSM   H15S13483   1.761   5.548   8.188  0.2679  0.8997 -0.8965
  126OSM   H15T13484   1.629   5.418   8.178 -0.4776 -0.4168  0.3364
  126OSM   C16S13485   1.552   5.620   8.200 -0.0192  1.0999  0.8096
  126OSM   H16S13486   1.457   5.580   8.159  2.0359 -0.9099 -2.3417
  126OSM   H16T13487   1.572   5.717   8.150  0.1216 -0.0278 -1.3987
  126OSM   C17S13488   1.546   5.645   8.352 -0.2385 -0.1211 -0.3833
  126OSM   H17S13489   1.454   5.704   8.376 -1.5557 -0.9198 -3.0602
  126OSM   H17T13490   1.638   5.698   8.384 -0.5716 -0.6813  1.6399
  126OSM   C18S13491   1.540   5.519   8.441  0.0064 -0.4600 -0.1454
  126OSM   H18S13492   1.637   5.467   8.426  0.3827 -0.6871  2.5437
  126OSM   H18T13493   1.462   5.443   8.420 -1.9667  0.9126  1.7820
  126OSM   H18U13494   1.548   5.545   8.549  1.0195  1.0592 -0.5464
  126OSM    C1F13495   2.358   5.421   6.738  0.7540  0.1583  0.7570
  126OSM     OF13496   2.454   5.496   6.727  0.0175  0.4243 -0.1381
  126OSM    C2F13497   2.374   5.267   6.712 -0.3568 -0.6401  0.4843
  126OSM    H2F13498   2.426   5.259   6.614 -0.2240  0.4193  0.4500
  126OSM    H2G13499   2.275   5.220   6.697 -0.0154 -1.9232  2.0136
  126OSM    C3F13500   2.473   5.205   6.813  0.5182 -0.0669 -0.0616
  126OSM    H3F13501   2.421   5.194   6.911  0.1358  0.1804 -0.2345
  126OSM    H3G13502   2.551   5.284   6.824 -1.8849  2.5262 -0.2352
  126OSM    C4F13503   2.544   5.076   6.773 -0.3125 -0.2780 -0.4738
  126OSM    H4F13504   2.611   5.089   6.685 -0.3593 -0.4554 -0.5359
  126OSM    H4G13505   2.475   4.993   6.749  0.8773 -0.6920 -2.7233
  126OSM    C5F13506   2.631   5.029   6.888 -0.1405  0.1102  0.9066
  126OSM    H5F13507   2.704   5.109   6.911 -2.8265  2.3094  2.4929
  126OSM    H5G13508   2.688   4.941   6.852  0.6543  1.4750 -1.3828
  126OSM    C6F13509   2.561   4.985   7.021  0.4535  0.8401 -0.2227
  126OSM    H6F13510   2.541   4.875   7.022  0.7563  0.7585  2.0819
  126OSM    H6G13511   2.454   5.014   7.026  0.5527  1.2723 -0.5361
  126OSM    C7F13512   2.615   5.026   7.160 -1.0289  0.7737  0.1819
  126OSM    H7F13513   2.630   5.136   7.157 -0.2674  0.7833  2.4246
  126OSM    H7G13514   2.719   4.996   7.184 -0.9484  1.2873  0.5068
  126OSM    C8F13515   2.524   4.972   7.277  0.4773 -0.0384  0.2330
  126OSM    H8F13516   2.502   4.864   7.263 -0.1818  0.1449 -0.2231
  126OSM    H8G13517   2.427   5.024   7.258  0.6927  0.0816 -0.5945
  126OSM    C9F13518   2.568   5.011   7.414 -0.6061  0.1162 -0.5144
  126OSM    H9F13519   2.532   5.109   7.448  0.2552 -0.7590  3.4732
  126OSM   C10F13520   2.647   4.944   7.497  0.5889 -0.3574  0.2282
  126OSM   H10F13521   2.669   4.971   7.601  1.4648  1.7312 -0.4539
  126OSM   C11F13522   2.694   4.805   7.460 -0.0753 -0.1829 -0.0082
  126OSM   H11F13523   2.799   4.786   7.488  0.4409 -0.3103 -1.8939
  126OSM   H11G13524   2.693   4.795   7.349 -3.6060  1.0797 -0.2250
  126OSM   C12F13525   2.608   4.696   7.534 -0.3087 -0.0968  0.2667
  126OSM   H12F13526   2.649   4.593   7.527  1.9606  0.5908  2.1952
  126OSM   H12G13527   2.513   4.681   7.478  0.0671 -2.5747  0.2087
  126OSM   C13F13528   2.590   4.728   7.688  0.9993 -0.1107 -0.8191
  126OSM   H13F13529   2.562   4.833   7.708 -1.4498 -0.7511 -0.4509
  126OSM   H13G13530   2.685   4.708   7.741  0.4018 -0.9526 -0.0329
  126OSM   C14F13531   2.479   4.642   7.738 -0.1007  0.7713  0.5132
  126OSM   H14F13532   2.508   4.541   7.702  1.8415  2.0377 -1.8459
  126OSM   H14G13533   2.383   4.665   7.687  0.0707 -0.1379 -0.2389
  126OSM   C15F13534   2.447   4.642   7.890 -0.1664  0.0764  0.3018
  126OSM   H15F13535   2.339   4.672   7.890 -1.0525 -2.8217 -0.5477
  126OSM   H15G13536   2.510   4.721   7.937  1.7221 -2.7043  2.8112
  126OSM   C16F13537   2.477   4.510   7.959 -0.6530 -0.4037 -0.7128
  126OSM   H16F13538   2.414   4.428   7.919 -1.3162 -0.1594 -0.1878
  126OSM   H16G13539   2.451   4.519   8.067  0.1579 -3.8249 -0.1103
  126OSM   C17F13540   2.626   4.470   7.944  0.0121  0.1113  0.2794
  126OSM   H17F13541   2.687   4.560   7.966  0.8439 -0.2054 -0.6383
  126OSM   H17G13542   2.639   4.427   7.842  0.5071 -0.7426  0.6937
  126OSM   C18F13543   2.671   4.363   8.045  0.3241  0.7167 -0.1420
  126OSM   H18F13544   2.602   4.278   8.062  1.8340 -0.5239  0.0496
  126OSM   H18G13545   2.692   4.406   8.145 -0.3714 -0.5289  0.5669
  126OSM   H18H13546   2.762   4.305   8.016  0.5279  0.5235  0.8544
  127OSM      N13547   5.752   3.567   5.939  0.3088 -0.8186 -0.1691
  127OSM    C1513548   5.812   3.429   5.950  0.8205 -0.3452 -0.4977
  127OSM   H15A13549   5.920   3.419   5.943  0.7878  0.4594 -2.8634
  127OSM   H15B13550   5.767   3.364   5.877  0.9191 -0.5866 -0.3460
  127OSM   H15C13551   5.775   3.392   6.045  1.6196  1.6765  0.6812
  127OSM    C1413552   5.820   3.655   6.038 -0.7326 -0.3510  0.8320
  127OSM   H14A13553   5.763   3.746   6.048 -2.0511 -1.1136  0.5712
  127OSM   H14B13554   5.920   3.689   6.015 -1.4459  0.2009 -1.7371
  127OSM   H14C13555   5.830   3.609   6.135  0.7341  2.7663  2.2989
  127OSM    C1313556   5.772   3.632   5.800  0.1629  0.0157 -0.0729
  127OSM   H13A13557   5.766   3.566   5.715  1.4652  1.0385 -1.0031
  127OSM   H13B13558   5.870   3.677   5.799  0.3928 -0.4920 -0.6807
  127OSM   H13C13559   5.696   3.710   5.796 -1.7131 -1.6081  1.5768
  127OSM    C1213560   5.606   3.558   5.975  0.5546 -0.3297  0.0916
  127OSM   H12A13561   5.596   3.531   6.079  2.7275  1.4765  0.8422
  127OSM   H12B13562   5.554   3.474   5.931  0.3844 -0.3329  0.2973
  127OSM    C1113563   5.514   3.685   5.954  0.0542 -0.4071  0.3342
  127OSM   H11A13564   5.415   3.666   6.000 -1.2925  3.0919 -0.8332
  127OSM   H11B13565   5.504   3.688   5.844 -0.1082  1.0446  0.3728
  127OSM      P13566   5.495   3.911   6.090 -0.0947  0.1929 -0.0229
  127OSM    O1313567   5.572   4.034   6.104 -0.6665 -0.4794 -0.6834
  127OSM    O1413568   5.361   3.922   6.038  0.5964  0.4359  0.3932
  127OSM    O1113569   5.486   3.841   6.235 -0.1606  0.2703 -0.6821
  127OSM    O1213570   5.570   3.808   6.003 -0.4028 -0.1196 -0.1520
  127OSM    C1S13571   5.617   3.840   6.307  0.5802 -0.1477  0.2332
  127OSM    H1S13572   5.641   3.941   6.347  2.4715 -0.2021 -0.6861
  127OSM    H1T13573   5.705   3.809   6.247  0.4453 -0.4179  0.1728
  127OSM     NF13574   5.707   3.764   6.523  0.3457  0.0834  0.1231
  127OSM    HNF13575   5.776   3.693   6.533  0.2583  0.1792  1.5986
  127OSM    C2S13576   5.605   3.733   6.427  0.7294 -0.5404 -0.4833
  127OSM    H2S13577   5.504   3.740   6.473  0.9330 -1.4625  0.1392
  127OSM    C3S13578   5.596   3.584   6.370  0.5384  0.0185 -0.5058
  127OSM    H3S13579   5.699   3.558   6.338  0.3361 -0.1717 -1.0060
  127OSM     O313580   5.509   3.560   6.256  0.1757 -0.0619 -0.2227
  127OSM    HO313581   5.466   3.646   6.248 -0.1470 -0.0132  1.5857
  127OSM    C4S13582   5.572   3.489   6.485 -0.5088  0.8398 -0.2044
  127OSM    H4S13583   5.669   3.451   6.521 -0.8144  1.3820  1.2770
  127OSM    C5S13584   5.463   3.440   6.533  0.5414  0.0686 -0.1932
  127OSM    H5S13585   5.364   3.449   6.485  0.8422 -2.5459 -1.4928
  127OSM    C6S13586   5.462   3.354   6.652  0.4647  1.0192 -0.7526
  127OSM    H6S13587   5.417   3.254   6.633  2.2106  0.2198 -0.8140
  127OSM    H6T13588   5.400   3.390   6.737  1.8912 -1.7584  1.6025
  127OSM    C7S13589   5.594   3.309   6.726  0.3903 -0.0172 -0.1999
  127OSM    H7S13590   5.665   3.388   6.757 -0.8080  0.8565  0.3875
  127OSM    H7T13591   5.645   3.237   6.658 -0.7314 -1.5508  0.5076
  127OSM    C8S13592   5.569   3.225   6.856  0.7889 -0.0832  0.4780
  127OSM    H8S13593   5.639   3.139   6.851 -0.4150 -1.0406 -0.6987
  127OSM    H8T13594   5.470   3.177   6.872  1.0282 -1.0993 -0.9060
  127OSM    C9S13595   5.612   3.312   6.985  0.3110  0.3715 -0.2392
  127OSM    H9S13596   5.522   3.324   7.049 -0.2433 -2.6028 -0.3108
  127OSM    H9T13597   5.650   3.410   6.950  3.0835 -0.6895 -0.4575
  127OSM   C10S13598   5.712   3.252   7.080 -0.6394 -0.4549 -0.2722
  127OSM   H10S13599   5.815   3.273   7.041  0.1745 -0.6363  1.6664
  127OSM   H10T13600   5.710   3.141   7.082 -0.2169 -0.4635 -0.2227
  127OSM   C11S13601   5.699   3.302   7.221 -0.0490 -0.1683 -0.1302
  127OSM   H11S13602   5.614   3.258   7.277  2.4983 -2.0034  2.6309
  127OSM   H11T13603   5.701   3.413   7.229 -2.0780 -0.1405  0.6292
  127OSM   C12S13604   5.829   3.286   7.306 -0.2837  0.5173  0.6025
  127OSM   H12S13605   5.914   3.346   7.268 -0.5285 -0.0921 -0.9965
  127OSM   H12T13606   5.861   3.180   7.319 -0.1366  0.5982  0.9192
  127OSM   C13S13607   5.813   3.337   7.455 -0.1147  0.0190 -0.1471
  127OSM   H13S13608   5.756   3.259   7.511 -0.1747  0.0592 -0.1528
  127OSM   H13T13609   5.753   3.430   7.458 -0.3422  0.0158 -2.7802
  127OSM   C14S13610   5.945   3.343   7.543 -0.3009 -0.0535  0.9227
  127OSM   H14S13611   5.997   3.434   7.505 -0.6860 -0.1236  0.2080
  127OSM   H14T13612   6.011   3.256   7.523 -2.9299 -2.2143  1.1037
  127OSM   C15S13613   5.918   3.343   7.693 -0.3644  0.2793 -0.3758
  127OSM   H15S13614   6.012   3.383   7.735  1.3155 -3.0512 -0.5647
  127OSM   H15T13615   5.914   3.236   7.724  2.3710 -0.1272 -1.1530
  127OSM   C16S13616   5.791   3.423   7.738 -0.1200 -0.0857 -0.6048
  127OSM   H16S13617   5.704   3.367   7.698  0.7392 -2.7397  0.9719
  127OSM   H16T13618   5.798   3.528   7.701  1.9094 -0.3830 -1.2127
  127OSM   C17S13619   5.764   3.428   7.889 -0.2691  1.2366  0.4053
  127OSM   H17S13620   5.836   3.504   7.926  0.3373  1.8971 -1.9612
  127OSM   H17T13621   5.788   3.326   7.926  0.0036  0.5722 -1.4672
  127OSM   C18S13622   5.626   3.477   7.922  0.5891  0.2831  0.7022
  127OSM   H18S13623   5.550   3.407   7.883  0.7769  1.3636 -1.7876
  127OSM   H18T13624   5.616   3.575   7.871  2.6796  0.3571  0.3529
  127OSM   H18U13625   5.616   3.498   8.031 -1.3883 -2.2216  1.1043
  127OSM    C1F13626   5.719   3.874   6.596 -0.2561 -0.4437  0.0727
  127OSM     OF13627   5.630   3.961   6.590 -0.1653 -0.2691 -0.6876
  127OSM    C2F13628   5.829   3.894   6.690  0.4786 -0.2037  0.5499
  127OSM    H2F13629   5.915   3.915   6.624 -0.2304 -0.2111 -0.4052
  127OSM    H2G13630   5.856   3.800   6.742  2.7419 -0.4216 -0.8733
  127OSM    C3F13631   5.817   3.998   6.800  0.6444  0.4958 -0.5940
  127OSM    H3F13632   5.827   4.095   6.747  1.2593  0.4704 -0.5267
  127OSM    H3G13633   5.901   3.989   6.873 -0.3994 -3.0917  0.3714
  127OSM    C4F13634   5.685   3.982   6.894  0.3421 -0.1764  0.0612
  127OSM    H4F13635   5.668   3.880   6.935 -0.5080  1.0003  2.9020
  127OSM    H4G13636   5.592   4.005   6.836  0.5548 -1.6314 -0.9368
  127OSM    C5F13637   5.699   4.084   7.009  0.1999 -0.2689  0.5504
  127OSM    H5F13638   5.716   4.186   6.968 -0.4037 -0.4645 -0.2234
  127OSM    H5G13639   5.788   4.049   7.066  0.1636  0.2064  0.9034
  127OSM    C6F13640   5.574   4.070   7.101 -0.1464  0.2983  0.1137
  127OSM    H6F13641   5.586   3.985   7.171 -1.3694 -1.1701 -1.4014
  127OSM    H6G13642   5.497   4.029   7.033  0.4523 -1.0867  0.2494
  127OSM    C7F13643   5.524   4.193   7.158 -0.5639  0.4439 -0.2706
  127OSM    H7F13644   5.455   4.163   7.240 -1.3114  1.4448 -0.5167
  127OSM    H7G13645   5.478   4.260   7.082 -1.2117  0.0504 -0.2354
  127OSM    C8F13646   5.634   4.270   7.233 -0.7129  0.5552  0.4841
  127OSM    H8F13647   5.707   4.312   7.161 -0.6730 -0.7183 -0.2357
  127OSM    H8G13648   5.699   4.207   7.299  0.7885  0.5554 -0.9172
  127OSM    C9F13649   5.579   4.380   7.315  0.3828  0.1456  0.8573
  127OSM    H9F13650   5.536   4.463   7.257 -0.9073 -0.6605  0.6293
  127OSM   C10F13651   5.550   4.374   7.445 -0.1680 -0.4589  0.2230
  127OSM   H10F13652   5.516   4.463   7.501 -0.8475 -0.9269  0.5618
  127OSM   C11F13653   5.564   4.250   7.531 -0.8950  0.4499 -0.3231
  127OSM   H11F13654   5.660   4.201   7.505 -0.2251  0.0257  2.5513
  127OSM   H11G13655   5.497   4.173   7.489  2.3594 -3.6943  1.3931
  127OSM   C12F13656   5.541   4.281   7.683  0.0498  0.0896 -0.2517
  127OSM   H12F13657   5.446   4.337   7.697 -0.7517 -1.6752  1.8339
  127OSM   H12G13658   5.621   4.356   7.701 -0.5269  0.8654 -0.8265
  127OSM   C13F13659   5.538   4.164   7.779  0.0973 -0.3321  0.4086
  127OSM   H13F13660   5.635   4.110   7.776  0.7491  0.7330  1.2722
  127OSM   H13G13661   5.460   4.097   7.738 -0.8320  0.6965  0.4407
  127OSM   C14F13662   5.488   4.211   7.910  0.4103 -0.9269 -0.2709
  127OSM   H14F13663   5.475   4.118   7.970  1.2725 -1.1815 -0.4545
  127OSM   H14G13664   5.383   4.243   7.899  0.8798  0.6496 -0.3879
  127OSM   C15F13665   5.560   4.318   7.992 -0.3360 -0.4151 -0.4607
  127OSM   H15F13666   5.541   4.419   7.950 -1.6715  0.3407  1.7418
  127OSM   H15G13667   5.670   4.306   7.982 -0.2446  0.0286 -0.0377
  127OSM   C16F13668   5.515   4.325   8.131  0.6011  0.4665 -0.5789
  127OSM   H16F13669   5.409   4.357   8.128 -0.0123 -1.2760  0.8654
  127OSM   H16G13670   5.571   4.406   8.183 -0.8413  0.6392  0.7836
  127OSM   C17F13671   5.522   4.200   8.219 -0.3327  0.7254 -0.4646
  127OSM   H17F13672   5.624   4.157   8.232 -0.6036  0.1397 -0.2478
  127OSM   H17G13673   5.464   4.119   8.169  1.3307 -1.0222  0.2846
  127OSM   C18F13674   5.467   4.220   8.358  0.3950 -0.4411  0.5610
  127OSM   H18F13675   5.488   4.129   8.418  1.5963  1.1937  2.7249
  127OSM   H18G13676   5.357   4.236   8.347  0.8104  0.9241 -2.5559
  127OSM   H18H13677   5.517   4.304   8.410  0.5610 -0.2795  0.1486
  128OSM      N13678   3.986   1.328   6.082 -0.1110 -0.1138 -0.5265
  128OSM    C1513679   3.960   1.475   6.091  0.1865 -0.2015  0.0457
  128OSM   H15A13680   4.040   1.530   6.043  0.9584 -0.4665  1.0127
  128OSM   H15B13681   3.956   1.515   6.191  0.6807  1.9791 -0.7429
  128OSM   H15C13682   3.861   1.497   6.053 -0.2287 -0.8190  0.7448
  128OSM    C1413683   4.118   1.300   6.155  0.2864  0.0486  0.6112
  128OSM   H14A13684   4.188   1.365   6.105 -3.5597  4.4587  0.2182
  128OSM   H14B13685   4.145   1.197   6.145 -2.5601 -1.0470  2.7164
  128OSM   H14C13686   4.110   1.322   6.261 -0.8872 -1.0870  0.7763
  128OSM    C1313687   3.868   1.251   6.120  0.2155 -0.7973 -0.1634
  128OSM   H13A13688   3.890   1.145   6.120  2.9839 -0.2835 -0.7952
  128OSM   H13B13689   3.785   1.279   6.056  0.7662 -1.5682 -1.2474
  128OSM   H13C13690   3.830   1.286   6.215  2.5568  1.9111 -0.1029
  128OSM    C1213691   4.018   1.304   5.926  0.0583 -0.2258 -0.2496
  128OSM   H12A13692   4.086   1.381   5.891 -1.4351  1.4758  0.4399
  128OSM   H12B13693   3.931   1.330   5.869  1.4378  3.2611 -1.0317
  128OSM    C1113694   4.073   1.171   5.882  0.1770  0.1964 -0.0108
  128OSM   H11A13695   4.173   1.149   5.926  0.2419  0.9482  0.2378
  128OSM   H11B13696   4.078   1.176   5.771 -0.2759 -0.5955 -0.0803
  128OSM      P13697   4.012   0.937   5.975  0.2778  0.1889 -0.2278
  128OSM    O1313698   3.900   0.842   5.965 -0.2715  0.1948 -0.6336
  128OSM    O1413699   4.148   0.889   5.929  0.3597  0.1974  0.2349
  128OSM    O1113700   4.027   0.979   6.129 -0.3031 -0.4873 -0.0408
  128OSM    O1213701   3.971   1.066   5.901  0.2855 -1.0613  0.3584
  128OSM    C1S13702   4.119   0.916   6.218  0.0873  0.5534  0.4563
  128OSM    H1S13703   4.222   0.952   6.195  0.2584  1.0723  1.9438
  128OSM    H1T13704   4.125   0.807   6.201  0.9615  0.7676 -0.7733
  128OSM     NF13705   4.187   0.914   6.470 -0.1370  0.2524  0.5154
  128OSM    HNF13706   4.188   0.820   6.504  3.7280 -0.6067 -1.3970
  128OSM    C2S13707   4.082   0.954   6.365  0.6531 -0.1414 -0.7909
  128OSM    H2S13708   4.081   1.065   6.363 -0.3977 -0.1396 -0.8631
  128OSM    C3S13709   3.941   0.891   6.388  0.3980 -1.2042  0.3468
  128OSM    H3S13710   3.948   0.781   6.374  1.5904 -1.3874  2.0972
  128OSM     O313711   3.840   0.929   6.294 -0.5617  0.0799 -0.0291
  128OSM    HO313712   3.882   0.983   6.227 -0.5061  1.2065  0.8630
  128OSM    C4S13713   3.886   0.934   6.519 -0.3670 -0.2135 -0.4999
  128OSM    H4S13714   3.893   1.043   6.533 -0.7760  0.1208 -2.5614
  128OSM    C5S13715   3.825   0.852   6.608  0.2194 -0.4322  1.0129
  128OSM    H5S13716   3.799   0.749   6.578 -0.7065 -0.7682  2.8565
  128OSM    C6S13717   3.776   0.911   6.735 -0.1768 -0.7848 -0.8567
  128OSM    H6S13718   3.673   0.877   6.762  0.0531  0.5406  2.1531
  128OSM    H6T13719   3.768   1.019   6.711  0.6939 -0.9369 -1.8863
  128OSM    C7S13720   3.882   0.886   6.849  0.5554  0.5155  0.3578
  128OSM    H7S13721   3.981   0.921   6.814  1.1468 -1.0534  0.4001
  128OSM    H7T13722   3.896   0.780   6.878  0.9918 -0.4747 -3.0946
  128OSM    C8S13723   3.835   0.952   6.981 -1.4881 -0.2973  0.1380
  128OSM    H8S13724   3.750   0.897   7.026 -2.3616  1.6156  0.9330
  128OSM    H8T13725   3.798   1.055   6.963 -0.7729 -0.0575  0.0059
  128OSM    C9S13726   3.942   0.950   7.093  0.5150  0.5226  0.3458
  128OSM    H9S13727   4.036   0.987   7.047 -0.2812  1.8840 -0.2589
  128OSM    H9T13728   3.950   0.845   7.126  2.5594 -0.3744 -2.6110
  128OSM   C10S13729   3.914   1.059   7.199 -0.1019  0.2427 -0.0956
  128OSM   H10S13730   3.900   1.158   7.151 -1.0424  0.3666  0.4027
  128OSM   H10T13731   4.003   1.065   7.266 -0.6752 -0.5653  0.7798
  128OSM   C11S13732   3.780   1.029   7.272  0.5767 -0.1302 -0.0084
  128OSM   H11S13733   3.693   1.025   7.203  0.5420 -1.6619  0.0843
  128OSM   H11T13734   3.747   1.114   7.336 -3.0294  1.2733 -3.2698
  128OSM   C12S13735   3.778   0.902   7.353 -1.2329 -0.6155  0.3865
  128OSM   H12S13736   3.814   0.819   7.288 -0.2791  1.0159 -1.2832
  128OSM   H12T13737   3.674   0.887   7.388 -1.7317  1.1218 -0.2761
  128OSM   C13S13738   3.860   0.905   7.485  0.4263 -0.2378  0.1630
  128OSM   H13S13739   3.955   0.954   7.456  0.4928  0.4917  1.5715
  128OSM   H13T13740   3.894   0.807   7.526  3.1352  1.4477  2.3021
  128OSM   C14S13741   3.799   1.002   7.589 -0.1278 -0.4168  0.4080
  128OSM   H14S13742   3.693   0.978   7.610 -0.3016 -1.0885 -1.0725
  128OSM   H14T13743   3.798   1.102   7.540  2.0820 -0.3126  0.4514
  128OSM   C15S13744   3.895   1.024   7.709  0.1016 -0.4862  0.2049
  128OSM   H15S13745   3.998   1.033   7.668  0.3020 -0.1813  0.7686
  128OSM   H15T13746   3.887   0.934   7.772 -0.4804 -0.5944 -0.0200
  128OSM   C16S13747   3.861   1.152   7.800 -0.0943  0.1151  0.4487
  128OSM   H16S13748   3.760   1.143   7.848  0.6530 -0.5386  1.9823
  128OSM   H16T13749   3.855   1.241   7.735  1.2783  0.9694  1.4549
  128OSM   C17S13750   3.959   1.181   7.908 -0.8596 -0.4527  0.0077
  128OSM   H17S13751   3.975   1.103   7.986  1.6576 -0.1023 -0.0738
  128OSM   H17T13752   3.924   1.271   7.964  1.2555  1.7330 -1.9491
  128OSM   C18S13753   4.101   1.216   7.862 -0.1355 -0.5630  0.1872
  128OSM   H18S13754   4.094   1.278   7.770  1.6875  0.2014  0.5318
  128OSM   H18T13755   4.154   1.123   7.833 -2.5841 -2.2079  0.6668
  128OSM   H18U13756   4.156   1.268   7.943 -0.6508 -2.0549  1.5485
  128OSM    C1F13757   4.302   0.978   6.481  0.3811  0.0347 -0.1980
  128OSM     OF13758   4.315   1.083   6.422 -0.3507  0.2503 -0.6657
  128OSM    C2F13759   4.412   0.917   6.561  0.2646 -0.4808  0.2011
  128OSM    H2F13760   4.502   0.904   6.497  0.1580 -1.9924  0.3216
  128OSM    H2G13761   4.379   0.820   6.603 -0.3526 -0.8294 -1.0250
  128OSM    C3F13762   4.462   1.016   6.669  0.5896 -0.0925  0.2440
  128OSM    H3F13763   4.488   1.118   6.635 -0.2961  0.2546  0.5772
  128OSM    H3G13764   4.556   0.971   6.705  0.1494 -0.3884  1.0442
  128OSM    C4F13765   4.368   1.031   6.791 -0.0855  0.2369  0.2138
  128OSM    H4F13766   4.354   0.927   6.828  1.4814 -1.1936 -2.8937
  128OSM    H4G13767   4.264   1.063   6.772  0.0754  0.3161 -0.5591
  128OSM    C5F13768   4.417   1.125   6.903 -0.7811  0.6200  0.6190
  128OSM    H5F13769   4.387   1.227   6.870  1.9281  0.2068 -3.9820
  128OSM    H5G13770   4.522   1.107   6.935 -1.2083 -0.7845  1.2865
  128OSM    C6F13771   4.366   1.093   7.046 -0.4098 -0.5689 -0.1844
  128OSM    H6F13772   4.385   0.987   7.073 -0.4118 -0.1967  1.3503
  128OSM    H6G13773   4.256   1.112   7.052 -0.2018  0.1479  2.5002
  128OSM    C7F13774   4.433   1.195   7.145  0.2541  0.4269  0.6016
  128OSM    H7F13775   4.406   1.295   7.105 -1.7863 -0.5181 -0.5753
  128OSM    H7G13776   4.544   1.196   7.144  0.2813  1.4593  1.9210
  128OSM    C8F13777   4.393   1.188   7.287  0.0049 -0.5680 -0.0964
  128OSM    H8F13778   4.289   1.217   7.312  0.1740  2.3057 -2.3365
  128OSM    H8G13779   4.454   1.264   7.339  1.2839 -1.2920 -0.4780
  128OSM    C9F13780   4.421   1.060   7.360  0.3456  0.1021  0.6257
  128OSM    H9F13781   4.479   0.990   7.297 -0.2001 -1.0203  1.3339
  128OSM   C10F13782   4.397   1.037   7.492 -0.5491 -0.2783 -0.9521
  128OSM   H10F13783   4.431   0.943   7.539  0.1283 -0.9368 -2.6897
  128OSM   C11F13784   4.328   1.130   7.595 -0.0448 -0.2873  0.5216
  128OSM   H11F13785   4.276   1.067   7.670  0.9949 -0.0358  1.4959
  128OSM   H11G13786   4.250   1.189   7.543 -2.3170 -3.9472 -0.5802
  128OSM   C12F13787   4.413   1.232   7.671  0.8250  0.3966 -0.7872
  128OSM   H12F13788   4.347   1.280   7.746  2.4238  2.0578 -0.3529
  128OSM   H12G13789   4.445   1.314   7.604  0.4250  1.7598  0.6302
  128OSM   C13F13790   4.532   1.175   7.750  0.1007 -0.2751 -0.4039
  128OSM   H13F13791   4.595   1.259   7.788 -1.6541  0.7599  0.3354
  128OSM   H13G13792   4.598   1.115   7.684  2.5902 -0.4647  2.0830
  128OSM   C14F13793   4.482   1.081   7.859  0.7593 -0.0300 -0.3152
  128OSM   H14F13794   4.422   0.998   7.815 -0.2843  0.5157  0.0329
  128OSM   H14G13795   4.425   1.142   7.932  1.5685 -0.6013  0.8265
  128OSM   C15F13796   4.597   1.011   7.931 -0.4426 -0.6185 -0.3171
  128OSM   H15F13797   4.660   0.975   7.847  1.2416 -0.7461  0.9475
  128OSM   H15G13798   4.563   0.933   8.003  1.5393 -0.9608  0.3052
  128OSM   C16F13799   4.680   1.105   8.018 -0.0081  0.3636 -0.5494
  128OSM   H16F13800   4.727   1.185   7.957 -1.0204  1.4487  0.0269
  128OSM   H16G13801   4.764   1.042   8.053  0.4817  0.0422 -2.2232
  128OSM   C17F13802   4.608   1.190   8.133  0.3319  0.7779 -0.0920
  128OSM   H17F13803   4.509   1.142   8.152 -1.0547  3.7808  0.9542
  128OSM   H17G13804   4.588   1.292   8.093 -0.3265 -0.1868 -2.3689
  128OSM   C18F13805   4.677   1.185   8.263  0.6697 -0.1689 -0.1588
  128OSM   H18F13806   4.620   1.234   8.345 -0.1315  2.0240 -1.9098
  128OSM   H18G13807   4.765   1.252   8.256 -1.8165  3.4300  0.3869
  128OSM   H18H13808   4.694   1.078   8.287  0.5006 -0.0320  0.5884
  129OSM      N13809   4.429   5.194   5.813  0.7428  0.5561 -0.1221
  129OSM    C1513810   4.309   5.277   5.788  0.1627  0.0844  0.5030
  129OSM   H15A13811   4.278   5.335   5.874  3.9459  0.9713  1.4500
  129OSM   H15B13812   4.226   5.211   5.770 -0.7763  1.5777 -0.9172
  129OSM   H15C13813   4.318   5.333   5.696  1.1787 -1.6360 -0.5081
  129OSM    C1413814   4.429   5.089   5.702  0.4141  0.6517 -0.5624
  129OSM   H14A13815   4.429   5.128   5.601 -2.1490 -0.2698 -1.0017
  129OSM   H14B13816   4.332   5.040   5.703  0.3043  0.8491 -1.2454
  129OSM   H14C13817   4.500   5.009   5.714 -2.1536 -1.5378  1.1304
  129OSM    C1313818   4.547   5.278   5.806 -0.4106 -0.1452 -0.3224
  129OSM   H13A13819   4.642   5.229   5.823  0.0446  1.0655  0.9253
  129OSM   H13B13820   4.538   5.357   5.880  0.8037  0.8276 -1.1467
  129OSM   H13C13821   4.562   5.333   5.714 -1.5733 -0.7827 -0.9109
  129OSM    C1213822   4.419   5.116   5.938  0.3021  0.1211  0.1419
  129OSM   H12A13823   4.501   5.046   5.932 -0.5343 -0.9342  0.5720
  129OSM   H12B13824   4.323   5.067   5.925 -0.4110  1.6122 -0.4233
  129OSM    C1113825   4.417   5.191   6.074 -0.3719 -0.3740  0.2362
  129OSM   H11A13826   4.510   5.247   6.097 -0.3651 -1.4246  3.2632
  129OSM   H11B13827   4.399   5.111   6.150 -1.0452 -0.5537 -0.1051
  129OSM      P13828   4.214   5.308   6.197  0.0998 -0.0030  0.1323
  129OSM    O1313829   4.118   5.410   6.155  0.2417 -0.3684  0.9100
  129OSM    O1413830   4.163   5.174   6.245  0.6660 -0.2147  0.0370
  129OSM    O1113831   4.310   5.368   6.302  0.1028  0.0102  0.0858
  129OSM    O1213832   4.316   5.292   6.078  0.4065  0.3757 -0.4320
  129OSM    C1S13833   4.274   5.470   6.395 -0.6237 -0.5740  0.0055
  129OSM    H1S13834   4.167   5.494   6.415 -0.5477 -0.7346  0.6417
  129OSM    H1T13835   4.327   5.563   6.369  0.7667 -1.3288  0.0659
  129OSM     NF13836   4.292   5.570   6.605 -0.3188 -0.5051  0.8007
  129OSM    HNF13837   4.374   5.622   6.628  1.0351 -1.5694 -1.3201
  129OSM    C2S13838   4.319   5.448   6.543 -0.1235  0.1092 -0.3067
  129OSM    H2S13839   4.250   5.377   6.594 -0.8651  2.8770  2.8486
  129OSM    C3S13840   4.466   5.399   6.556  0.0460 -0.1712  0.5420
  129OSM    H3S13841   4.528   5.481   6.512  1.1090 -1.4432 -0.4149
  129OSM     O313842   4.491   5.279   6.483  0.4335  0.7694 -0.2883
  129OSM    HO313843   4.410   5.273   6.431 -2.3981 -1.7358  3.8694
  129OSM    C4S13844   4.505   5.381   6.701  0.3701 -0.3140  0.4542
  129OSM    H4S13845   4.585   5.447   6.739  1.3431  0.0522 -2.0813
  129OSM    C5S13846   4.450   5.288   6.773  0.2542  0.5601  0.1074
  129OSM    H5S13847   4.374   5.219   6.733  1.0572  0.5025 -1.3994
  129OSM    C6S13848   4.489   5.255   6.919 -0.2479  0.7027  0.4615
  129OSM    H6S13849   4.524   5.341   6.981  2.9142 -1.6026  2.1639
  129OSM    H6T13850   4.579   5.193   6.904 -0.0333  1.4413 -1.6268
  129OSM    C7S13851   4.391   5.165   6.999  0.5297  0.5620 -0.3580
  129OSM    H7S13852   4.365   5.079   6.933  0.2143  0.5085 -0.1644
  129OSM    H7T13853   4.300   5.227   7.010 -0.2109 -0.5039 -0.3082
  129OSM    C8S13854   4.448   5.107   7.135 -0.2035  0.6101  0.0376
  129OSM    H8S13855   4.497   5.194   7.183  1.3837  0.8929 -1.9423
  129OSM    H8T13856   4.541   5.052   7.109  1.0161  2.9967 -0.9884
  129OSM    C9S13857   4.347   5.033   7.217  0.2420  0.3403  0.3565
  129OSM    H9S13858   4.328   4.935   7.168 -0.2717  1.3046 -1.4518
  129OSM    H9T13859   4.248   5.082   7.203  0.4431  0.0916 -2.5543
  129OSM   C10S13860   4.393   5.000   7.355 -0.7197  0.3132  0.1387
  129OSM   H10S13861   4.415   5.095   7.410  0.5145 -1.0902  2.2031
  129OSM   H10T13862   4.489   4.945   7.359 -2.1106 -2.2814 -0.2660
  129OSM   C11S13863   4.286   4.921   7.434 -0.6360 -0.0710  0.0895
  129OSM   H11S13864   4.251   4.826   7.389 -1.6553  1.1264 -1.7779
  129OSM   H11T13865   4.192   4.978   7.450 -1.2003 -1.4112  1.8331
  129OSM   C12S13866   4.320   4.902   7.587 -0.1694  0.7843  0.2035
  129OSM   H12S13867   4.428   4.880   7.600  0.3631  2.2131 -1.4932
  129OSM   H12T13868   4.268   4.811   7.624  0.7971 -0.1454 -0.6612
  129OSM   C13S13869   4.296   5.016   7.678 -0.6011 -0.1452 -0.1632
  129OSM   H13S13870   4.187   5.037   7.688 -0.5825  0.7347 -1.5646
  129OSM   H13T13871   4.343   5.105   7.631 -0.2916 -1.0345 -1.5876
  129OSM   C14S13872   4.358   5.014   7.819  0.3906  0.4703 -0.2746
  129OSM   H14S13873   4.333   5.106   7.877  0.4257 -0.3666  1.0975
  129OSM   H14T13874   4.467   4.996   7.809  0.4625  0.7959 -0.0779
  129OSM   C15S13875   4.299   4.890   7.898  0.5347  0.3309 -0.4121
  129OSM   H15S13876   4.326   4.801   7.837  0.4388 -0.8961  1.2584
  129OSM   H15T13877   4.189   4.897   7.892  0.4428 -0.1793  0.4790
  129OSM   C16S13878   4.351   4.889   8.036  0.5884 -0.2310  0.3007
  129OSM   H16S13879   4.311   4.972   8.097 -0.2983  0.0594 -0.6390
  129OSM   H16T13880   4.461   4.898   8.026  0.8862 -2.6816  0.7794
  129OSM   C17S13881   4.319   4.759   8.102  0.1473 -0.0494 -0.1358
  129OSM   H17S13882   4.341   4.681   8.026 -4.1042 -2.1670  0.4697
  129OSM   H17T13883   4.210   4.749   8.123  0.3902 -0.9189  0.7618
  129OSM   C18S13884   4.403   4.728   8.224  0.2076  0.5847  0.1655
  129OSM   H18S13885   4.511   4.743   8.203  0.0162  1.3224 -0.3193
  129OSM   H18T13886   4.379   4.626   8.262  1.1813 -0.3670 -1.6444
  129OSM   H18U13887   4.370   4.801   8.301 -0.5554  1.0346 -0.5734
  129OSM    C1F13888   4.172   5.609   6.648  0.2316  0.6732  0.6054
  129OSM     OF13889   4.079   5.539   6.627  0.6349  0.4770 -0.4610
  129OSM    C2F13890   4.154   5.735   6.725  0.1700 -0.1875  0.8250
  129OSM    H2F13891   4.052   5.775   6.706 -0.4339 -0.6815  2.7778
  129OSM    H2G13892   4.233   5.802   6.686  1.6308 -1.4266  1.5548
  129OSM    C3F13893   4.166   5.726   6.877  0.6730  0.1148  0.4629
  129OSM    H3F13894   4.118   5.635   6.920  1.0407 -1.5715 -2.4447
  129OSM    H3G13895   4.108   5.815   6.911 -0.9949  0.6756 -3.3362
  129OSM    C4F13896   4.305   5.750   6.927  0.1477  0.2781  0.1031
  129OSM    H4F13897   4.335   5.851   6.893  0.2340 -0.0736 -0.9154
  129OSM    H4G13898   4.375   5.673   6.886  1.2013  0.8489  0.7721
  129OSM    C5F13899   4.304   5.746   7.081  0.2230  0.2173 -0.0960
  129OSM    H5F13900   4.284   5.641   7.112 -1.4776  0.4545 -0.3015
  129OSM    H5G13901   4.219   5.804   7.122 -0.0059 -0.6193  0.6598
  129OSM    C6F13902   4.442   5.785   7.141  0.4170  0.3020  0.8555
  129OSM    H6F13903   4.460   5.894   7.137  2.0645  0.0950  1.6551
  129OSM    H6G13904   4.525   5.741   7.082  0.4198  0.7106  0.5512
  129OSM    C7F13905   4.454   5.740   7.282  0.2028 -0.5810  0.3759
  129OSM    H7F13906   4.495   5.637   7.289  0.2697 -0.4737  1.7734
  129OSM    H7G13907   4.354   5.747   7.329 -0.7443  0.2034 -1.6608
  129OSM    C8F13908   4.565   5.828   7.348  0.1703  0.1083 -2.1212
  129OSM    H8F13909   4.653   5.834   7.280  0.9155  0.4618 -1.1606
  129OSM    H8G13910   4.599   5.772   7.438  0.2977  2.5051 -0.5861
  129OSM    C9F13911   4.519   5.967   7.396  0.4019 -0.3145  0.2592
  129OSM    H9F13912   4.516   6.045   7.319  3.6876  1.6395  1.8908
  129OSM   C10F13913   4.472   5.989   7.518  0.0756 -0.2661 -0.2977
  129OSM   H10F13914   4.442   6.091   7.546 -2.4405 -1.0984  0.2765
  129OSM   C11F13915   4.467   5.882   7.633 -0.4472 -0.6722  0.6178
  129OSM   H11F13916   4.429   5.783   7.601 -0.1144 -0.1503 -1.5152
  129OSM   H11G13917   4.396   5.914   7.713  2.2851  0.9590  2.5656
  129OSM   C12F13918   4.604   5.886   7.708  0.1999  0.7549 -0.4409
  129OSM   H12F13919   4.635   5.989   7.737 -0.0642  0.7141 -0.0118
  129OSM   H12G13920   4.684   5.837   7.647 -0.2053 -0.3318 -0.1231
  129OSM   C13F13921   4.608   5.808   7.843  0.4448 -0.6209  0.0293
  129OSM   H13F13922   4.574   5.703   7.832 -0.5546 -0.2851 -0.2396
  129OSM   H13G13923   4.536   5.866   7.904 -0.5628 -0.3010 -1.4095
  129OSM   C14F13924   4.739   5.805   7.926  0.1613 -0.0664  0.5248
  129OSM   H14F13925   4.758   5.910   7.956 -0.4329  0.1616  0.1286
  129OSM   H14G13926   4.819   5.781   7.852 -0.0420 -2.6767  1.0446
  129OSM   C15F13927   4.734   5.719   8.054  0.0033  0.0061  0.1883
  129OSM   H15F13928   4.728   5.610   8.030  0.4862 -0.5829  2.4318
  129OSM   H15G13929   4.643   5.754   8.107 -0.5599  0.0379 -0.7858
  129OSM   C16F13930   4.856   5.736   8.148  0.6005  0.0655 -0.2166
  129OSM   H16F13931   4.833   5.831   8.201 -0.1594 -1.6101  2.6661
  129OSM   H16G13932   4.952   5.738   8.093  1.0338  1.9334  0.5217
  129OSM   C17F13933   4.884   5.632   8.262 -0.4062  0.3003  0.1579
  129OSM   H17F13934   4.972   5.672   8.318  0.5967 -2.0392  0.3533
  129OSM   H17G13935   4.922   5.538   8.217  3.2213  0.7275  1.9659
  129OSM   C18F13936   4.780   5.602   8.367  0.7963 -0.4918 -0.2016
  129OSM   H18F13937   4.746   5.693   8.422 -0.6994 -1.4192  0.4881
  129OSM   H18G13938   4.823   5.529   8.439  1.3584 -1.0962 -1.1385
  129OSM   H18H13939   4.688   5.557   8.325 -0.5057  0.6360  1.3124
  130OSM      N13940   6.220   0.231   6.057  0.0690  0.4379  0.7596
  130OSM    C1513941   6.090   0.271   6.002  0.3400 -1.0233 -0.0641
  130OSM   H15A13942   6.100   0.291   5.896 -0.0405 -0.9858 -0.0967
  130OSM   H15B13943   6.051   0.359   6.052  0.2707 -1.1530  0.1073
  130OSM   H15C13944   6.014   0.195   6.008 -0.5701 -0.3591 -2.0349
  130OSM    C1413945   6.254   0.094   6.000  0.1815 -1.0064 -0.1024
  130OSM   H14A13946   6.242   0.094   5.893  0.8111  0.9039 -0.2100
  130OSM   H14B13947   6.192   0.020   6.048 -1.5817  0.7233  0.4314
  130OSM   H14C13948   6.360   0.081   6.018  0.5599 -0.1355 -1.5570
  130OSM    C1313949   6.326   0.322   5.999  0.8016 -0.1341  0.0008
  130OSM   H13A13950   6.291   0.423   6.010 -2.4670 -1.2868  1.7699
  130OSM   H13B13951   6.341   0.305   5.894 -0.9265  0.0774 -0.3150
  130OSM   H13C13952   6.414   0.312   6.061  1.0640  1.6395 -0.0536
  130OSM    C1213953   6.217   0.224   6.208  0.3848  0.2385 -0.2232
  130OSM   H12A13954   6.312   0.204   6.256 -0.4667  0.0666  1.4720
  130OSM   H12B13955   6.151   0.141   6.228 -1.6429  1.1416 -2.6761
  130OSM    C1113956   6.172   0.354   6.288  0.0274  0.3193  0.0297
  130OSM   H11A13957   6.245   0.432   6.259  0.9226 -0.2601  0.6639
  130OSM   H11B13958   6.181   0.335   6.397  1.4904 -0.5590 -0.2215
  130OSM      P13959   5.907   0.337   6.300 -0.1409  0.0248  0.2480
  130OSM    O1313960   5.798   0.386   6.217 -0.2604  0.1310  1.1826
  130OSM    O1413961   5.917   0.187   6.296  0.3691  0.8698  0.4145
  130OSM    O1113962   5.885   0.393   6.443  0.4038 -0.0033  0.4463
  130OSM    O1213963   6.036   0.403   6.254 -0.3465  0.2186  0.2907
  130OSM    C1S13964   5.905   0.533   6.478 -0.3308  0.3033 -0.5259
  130OSM    H1S13965   5.835   0.590   6.414 -0.6094  1.0612  0.4189
  130OSM    H1T13966   6.005   0.565   6.444 -0.1349 -0.0106 -0.2554
  130OSM     NF13967   5.888   0.708   6.640 -0.2461  0.0700 -0.6458
  130OSM    HNF13968   5.974   0.752   6.665  1.1354 -1.8976 -1.6439
  130OSM    C2S13969   5.899   0.562   6.626 -0.1873 -0.3072 -0.7156
  130OSM    H2S13970   5.806   0.521   6.670 -1.4508  4.3612  1.6380
  130OSM    C3S13971   6.020   0.492   6.695 -0.1371  0.4005  0.1518
  130OSM    H3S13972   6.114   0.540   6.661  0.7251  0.8873  2.9297
  130OSM     O313973   6.036   0.351   6.675  0.2798  0.1104  0.3154
  130OSM    HO313974   5.995   0.329   6.592 -3.2030  1.5553  1.4695
  130OSM    C4S13975   6.015   0.528   6.842  0.2141 -0.7124 -0.1334
  130OSM    H4S13976   6.062   0.624   6.870 -2.2343  0.8367 -0.9291
  130OSM    C5S13977   5.965   0.448   6.941  0.3017 -0.0395  0.7332
  130OSM    H5S13978   5.931   0.346   6.916 -1.0192  0.5638 -0.0911
  130OSM    C6S13979   5.957   0.486   7.086  0.4764  0.7478  0.4593
  130OSM    H6S13980   6.055   0.470   7.135  0.3567  0.5677  0.6421
  130OSM    H6T13981   5.891   0.426   7.152 -0.7755  2.6119  0.9670
  130OSM    C7S13982   5.905   0.631   7.102 -0.5721  0.2211 -0.1922
  130OSM    H7S13983   5.796   0.632   7.084 -0.7905  0.1108  1.0634
  130OSM    H7T13984   5.951   0.704   7.031 -0.0073 -0.7703 -0.8705
  130OSM    C8S13985   5.933   0.684   7.243  0.2994 -0.4675  0.0673
  130OSM    H8S13986   5.898   0.789   7.254 -2.5412 -1.4419  1.7093
  130OSM    H8T13987   6.042   0.667   7.252  0.2880  0.1992  1.8883
  130OSM    C9S13988   5.856   0.602   7.348 -0.1386 -0.1895  0.1382
  130OSM    H9S13989   5.894   0.498   7.346  0.8784  0.1382  1.4324
  130OSM    H9T13990   5.746   0.594   7.332 -0.4875 -1.1799  2.6050
  130OSM   C10S13991   5.865   0.659   7.490  0.4030  0.6521  0.0033
  130OSM   H10S13992   5.821   0.758   7.511 -0.3078  0.6590 -1.4276
  130OSM   H10T13993   5.972   0.673   7.516 -0.3738  2.9844  2.3484
  130OSM   C11S13994   5.785   0.569   7.592 -0.1442 -0.1625 -0.1560
  130OSM   H11S13995   5.814   0.467   7.559 -0.0300  0.5097 -2.2887
  130OSM   H11T13996   5.677   0.568   7.563 -0.3689 -1.6955  0.6377
  130OSM   C12S13997   5.795   0.595   7.742  0.2357 -0.2222  0.5188
  130OSM   H12S13998   5.728   0.682   7.762 -1.6853 -1.3887 -0.4469
  130OSM   H12T13999   5.899   0.628   7.759 -0.0069  1.1495 -0.5101
  130OSM   C13S14000   5.760   0.477   7.838 -0.0195 -0.6936 -1.0538
  130OSM   H13S14001   5.812   0.389   7.796  0.2988 -0.4452 -1.1832
  130OSM   H13T14002   5.650   0.465   7.838 -0.1912  0.6730 -1.2055
  130OSM   C14S14003   5.800   0.494   7.990 -0.6113 -0.1403  0.5748
  130OSM   H14S14004   5.909   0.505   8.009 -0.4528 -2.6473  1.4966
  130OSM   H14T14005   5.782   0.395   8.038 -0.4128 -1.6170 -2.1686
  130OSM   C15S14006   5.734   0.616   8.053 -0.6816  0.2248 -0.5247
  130OSM   H15S14007   5.626   0.621   8.027 -1.0267 -0.8096  0.6231
  130OSM   H15T14008   5.777   0.709   8.009 -0.3930 -0.1475 -1.0409
  130OSM   C16S14009   5.758   0.626   8.208  0.3382 -0.2874  0.4474
  130OSM   H16S14010   5.759   0.733   8.237  0.4147 -0.1984  0.1228
  130OSM   H16T14011   5.862   0.599   8.236  0.8247  0.1186 -0.8703
  130OSM   C17S14012   5.660   0.545   8.292 -0.4060 -0.1725 -0.3334
  130OSM   H17S14013   5.650   0.439   8.261  1.9845 -0.7222  0.5782
  130OSM   H17T14014   5.558   0.589   8.282  0.0991  0.7995 -1.5730
  130OSM   C18S14015   5.701   0.551   8.444  0.0814 -0.2152  0.3440
  130OSM   H18S14016   5.797   0.499   8.466  0.8408  1.4919  1.2280
  130OSM   H18T14017   5.616   0.501   8.497 -2.1669  1.2562 -1.6426
  130OSM   H18U14018   5.716   0.655   8.479  1.9039 -0.9148  1.8107
  130OSM    C1F14019   5.783   0.778   6.600 -0.2314  0.9011  0.6888
  130OSM     OF14020   5.673   0.728   6.583 -0.1434 -0.2869  0.4240
  130OSM    C2F14021   5.813   0.920   6.561  0.3511  1.0181 -0.5289
  130OSM    H2F14022   5.786   0.934   6.454  2.7990  0.1368 -1.3393
  130OSM    H2G14023   5.924   0.931   6.564  0.3186  1.2000  0.0022
  130OSM    C3F14024   5.736   1.030   6.643 -0.0915  0.9707 -0.1311
  130OSM    H3F14025   5.631   1.015   6.610 -0.0150 -0.4028  0.1920
  130OSM    H3G14026   5.771   1.133   6.620  0.1705  1.0885  0.7622
  130OSM    C4F14027   5.746   1.006   6.791 -0.1655  0.2643 -0.4253
  130OSM    H4F14028   5.852   0.991   6.820 -0.4636  1.2451  1.3306
  130OSM    H4G14029   5.689   0.916   6.822 -1.3980  0.9915 -0.5008
  130OSM    C5F14030   5.697   1.138   6.874 -0.6976  0.1323 -0.2400
  130OSM    H5F14031   5.597   1.164   6.833 -0.9841 -1.3687 -0.5734
  130OSM    H5G14032   5.766   1.224   6.868 -1.2210  1.1963  4.5942
  130OSM    C6F14033   5.694   1.100   7.014 -0.3130 -0.7380 -0.6441
  130OSM    H6F14034   5.796   1.094   7.057 -0.7339 -0.1745  0.4755
  130OSM    H6G14035   5.641   1.003   7.023 -0.1200 -0.6988  1.6921
  130OSM    C7F14036   5.630   1.207   7.110  0.1582  0.5990  0.2765
  130OSM    H7F14037   5.637   1.155   7.208 -0.0236 -0.2269 -0.1397
  130OSM    H7G14038   5.525   1.224   7.078  1.0345  4.9388 -0.9210
  130OSM    C8F14039   5.702   1.343   7.119  0.2260  0.4066  0.0216
  130OSM    H8F14040   5.685   1.384   7.017 -1.4591 -0.2094  0.0257
  130OSM    H8G14041   5.810   1.322   7.132  0.2517 -0.2589 -1.1297
  130OSM    C9F14042   5.643   1.443   7.216 -0.1141 -0.2795 -0.5786
  130OSM    H9F14043   5.575   1.514   7.167  0.5304 -0.1460 -1.2974
  130OSM   C10F14044   5.665   1.443   7.350  0.0717  0.8612 -0.0710
  130OSM   H10F14045   5.626   1.522   7.416 -0.9200  2.5989 -2.5600
  130OSM   C11F14046   5.744   1.346   7.436  0.9237  0.0676 -0.8000
  130OSM   H11F14047   5.838   1.394   7.471  0.8836 -0.3152 -0.1521
  130OSM   H11G14048   5.782   1.253   7.388  3.2887 -0.5998  2.0992
  130OSM   C12F14049   5.661   1.302   7.563 -0.2811 -0.1979  0.4964
  130OSM   H12F14050   5.563   1.251   7.550 -0.2792 -0.1883  0.4469
  130OSM   H12G14051   5.635   1.393   7.621 -1.8458 -1.0885  1.2493
  130OSM   C13F14052   5.756   1.212   7.644  1.0765 -0.1239  0.3292
  130OSM   H13F14053   5.853   1.263   7.663  0.9003 -0.0945  1.1919
  130OSM   H13G14054   5.772   1.134   7.567 -0.8219  0.7269 -0.9949
  130OSM   C14F14055   5.697   1.166   7.772  0.1629 -0.0426  0.5269
  130OSM   H14F14056   5.760   1.088   7.819 -1.7250 -1.7168  0.4323
  130OSM   H14G14057   5.598   1.119   7.754  0.1123  0.4160 -0.4680
  130OSM   C15F14058   5.678   1.285   7.871 -0.0657  0.2481 -0.0897
  130OSM   H15F14059   5.585   1.345   7.866 -0.3240 -0.1322  0.0828
  130OSM   H15G14060   5.760   1.360   7.867  1.0536 -0.9215  0.0241
  130OSM   C16F14061   5.691   1.245   8.019  0.1888 -0.6188  0.3714
  130OSM   H16F14062   5.798   1.221   8.035  0.6616  0.5922 -0.7777
  130OSM   H16G14063   5.622   1.160   8.040 -0.7509 -0.6782 -2.5349
  130OSM   C17F14064   5.651   1.361   8.118  0.2891  0.4898  0.5493
  130OSM   H17F14065   5.575   1.320   8.188 -1.6532 -3.3198 -3.2836
  130OSM   H17G14066   5.596   1.441   8.064  0.6994 -0.9265 -2.1879
  130OSM   C18F14067   5.770   1.415   8.193  0.2416  0.1292 -0.2408
  130OSM   H18F14068   5.863   1.433   8.136  1.8514 -2.5193  1.3254
  130OSM   H18G14069   5.801   1.335   8.263 -0.2964  0.1915  0.0814
  130OSM   H18H14070   5.743   1.511   8.241  0.0662  0.0676 -0.2139
  131OSM      N14071   3.973   1.990   5.508  0.0307 -0.3196 -0.1795
  131OSM    C1514072   4.120   1.949   5.514  0.1845  0.0774  0.7980
  131OSM   H15A14073   4.126   1.841   5.520 -0.1277  0.0442  0.5904
  131OSM   H15B14074   4.177   1.998   5.591  0.0117  0.5677  0.6131
  131OSM   H15C14075   4.169   1.977   5.422  0.9783  0.4791  1.3371
  131OSM    C1414076   3.959   2.139   5.509  0.6254 -0.2761 -0.0936
  131OSM   H14A14077   4.014   2.181   5.592 -0.6089 -0.3924  0.8210
  131OSM   H14B14078   3.856   2.166   5.530  0.2574 -2.0163  0.5493
  131OSM   H14C14079   4.003   2.178   5.419  0.7693  1.2208  0.5940
  131OSM    C1314080   3.915   1.935   5.380  0.0686 -0.4075 -0.8268
  131OSM   H13A14081   3.813   1.966   5.366  0.4120  1.2931  0.1637
  131OSM   H13B14082   3.923   1.830   5.359  0.6392 -0.3335 -0.9999
  131OSM   H13C14083   3.965   1.983   5.297  0.4109 -2.9449 -2.1598
  131OSM    C1214084   3.902   1.935   5.635  0.6638 -0.5348 -0.2565
  131OSM   H12A14085   3.941   1.988   5.721 -0.4348  0.2383 -0.2234
  131OSM   H12B14086   3.918   1.828   5.645 -3.1258 -1.1678  0.3468
  131OSM    C1114087   3.745   1.950   5.642 -0.4156 -0.3333  0.1419
  131OSM   H11A14088   3.725   1.910   5.743  3.5900 -1.3978  0.6642
  131OSM   H11B14089   3.709   1.889   5.555  0.3655  0.2746 -0.6280
  131OSM      P14090   3.696   2.191   5.745 -0.1253 -0.0635  0.2798
  131OSM    O1314091   3.770   2.316   5.709  0.5824 -0.3568  0.8177
  131OSM    O1414092   3.556   2.206   5.787 -0.1746 -0.0795  0.3267
  131OSM    O1114093   3.771   2.108   5.859 -0.6551  0.2727  0.8664
  131OSM    O1214094   3.704   2.082   5.627 -0.3776 -0.8221 -0.0852
  131OSM    C1S14095   3.766   2.163   5.992 -0.5711  0.5999  0.3054
  131OSM    H1S14096   3.660   2.190   6.012  0.2409  1.9157  3.3767
  131OSM    H1T14097   3.835   2.250   5.999 -0.0981  0.2685 -0.1756
  131OSM     NF14098   3.777   2.111   6.237 -0.7901  0.3837 -0.4132
  131OSM    HNF14099   3.859   2.130   6.290 -0.1436 -0.9235 -0.9158
  131OSM    C2S14100   3.805   2.063   6.099 -0.4153  0.3366 -0.6719
  131OSM    H2S14101   3.740   1.973   6.091  1.3902 -1.0952 -0.0722
  131OSM    C3S14102   3.951   2.001   6.081 -0.5824  0.3093  0.3161
  131OSM    H3S14103   4.023   2.085   6.087  0.8141 -0.8008 -0.3727
  131OSM     O314104   3.973   1.939   5.954  0.8181 -0.4264  0.3403
  131OSM    HO314105   3.895   1.969   5.905  1.6328 -2.0374 -2.1238
  131OSM    C4S14106   3.988   1.889   6.176 -0.1206 -0.1479 -0.2112
  131OSM    H4S14107   3.948   1.789   6.157 -1.3766 -0.0278  1.5739
  131OSM    C5S14108   4.072   1.903   6.278 -0.0900  1.0931 -0.0963
  131OSM    H5S14109   4.109   2.001   6.309 -0.3203  0.6447  1.7177
  131OSM    C6S14110   4.105   1.789   6.375 -0.7096 -0.4089 -0.3172
  131OSM    H6S14111   4.149   1.703   6.322 -1.2666  0.0129 -1.4982
  131OSM    H6T14112   4.004   1.775   6.420 -0.9885  0.3406 -0.6902
  131OSM    C7S14113   4.204   1.838   6.486 -0.1470  0.1565 -0.0795
  131OSM    H7S14114   4.157   1.913   6.554 -0.4910 -1.9597  2.1615
  131OSM    H7T14115   4.299   1.867   6.435 -0.1909  0.4314 -0.0061
  131OSM    C8S14116   4.238   1.718   6.582  1.0801  0.0114  0.0518
  131OSM    H8S14117   4.269   1.630   6.522  1.2362 -0.2681  0.5339
  131OSM    H8T14118   4.138   1.690   6.619 -0.3434  3.7235 -0.5371
  131OSM    C9S14119   4.320   1.751   6.702  0.1840  0.1026  0.6844
  131OSM    H9S14120   4.421   1.790   6.676  1.3828 -1.7169  2.2815
  131OSM    H9T14121   4.344   1.656   6.755 -1.9398 -0.9519 -0.1181
  131OSM   C10S14122   4.265   1.855   6.794  0.4704  0.8416 -0.0842
  131OSM   H10S14123   4.155   1.847   6.805  0.4492  0.1782 -0.7198
  131OSM   H10T14124   4.286   1.956   6.753  1.3674 -0.1994 -2.3334
  131OSM   C11S14125   4.329   1.844   6.931 -0.2388  0.0166 -0.0702
  131OSM   H11S14126   4.439   1.847   6.919 -0.1951 -1.6942 -0.3033
  131OSM   H11T14127   4.307   1.748   6.983  2.3342  0.1450  1.4405
  131OSM   C12S14128   4.278   1.949   7.034 -0.2023 -0.0088 -0.4582
  131OSM   H12S14129   4.168   1.931   7.035 -0.4520  1.2144  1.9251
  131OSM   H12T14130   4.300   2.052   6.997 -0.0452 -0.1661 -0.7998
  131OSM   C13S14131   4.333   1.932   7.177 -0.1643  0.4559 -0.6234
  131OSM   H13S14132   4.443   1.945   7.174  0.2798 -1.8015  1.9639
  131OSM   H13T14133   4.330   1.825   7.207 -0.2322  1.0438  1.6484
  131OSM   C14S14134   4.253   2.011   7.287 -0.0896 -0.1705  0.7350
  131OSM   H14S14135   4.147   1.979   7.276  0.1272 -0.1019 -2.7101
  131OSM   H14T14136   4.255   2.118   7.257 -1.1231 -0.4883 -0.5683
  131OSM   C15S14137   4.313   1.993   7.427  0.4811 -0.0547  0.4030
  131OSM   H15S14138   4.421   2.011   7.408  0.5817 -0.7369  0.3073
  131OSM   H15T14139   4.296   1.889   7.464 -1.0614  0.4447  1.1895
  131OSM   C16S14140   4.259   2.095   7.526 -0.2669 -0.2977  0.0796
  131OSM   H16S14141   4.152   2.067   7.539 -0.7157  1.1970 -0.1735
  131OSM   H16T14142   4.261   2.196   7.479  0.9371  0.8137  2.3661
  131OSM   C17S14143   4.340   2.098   7.658 -0.3275 -0.3120  0.9855
  131OSM   H17S14144   4.298   2.174   7.727 -0.9759  1.8511 -1.6202
  131OSM   H17T14145   4.444   2.128   7.634 -0.6543  0.5948  0.6508
  131OSM   C18S14146   4.334   1.965   7.727  0.2585  0.1089  0.0498
  131OSM   H18S14147   4.232   1.922   7.735  0.1457  0.1298 -1.0406
  131OSM   H18T14148   4.366   1.965   7.833  0.2850  0.4006  0.0450
  131OSM   H18U14149   4.395   1.890   7.672 -0.5989 -1.4680  1.1791
  131OSM    C1F14150   3.658   2.126   6.288  0.1008 -0.6402  0.1946
  131OSM     OF14151   3.550   2.096   6.233 -0.3605  0.3373 -0.0430
  131OSM    C2F14152   3.659   2.200   6.419  0.2244 -0.7445  0.5517
  131OSM    H2F14153   3.710   2.298   6.410 -1.8987  0.3683 -0.0759
  131OSM    H2G14154   3.717   2.138   6.491  0.1937 -0.4308  0.8493
  131OSM    C3F14155   3.525   2.240   6.484  0.0010 -0.4750 -0.4950
  131OSM    H3F14156   3.457   2.157   6.511  0.3244 -1.6177 -2.8802
  131OSM    H3G14157   3.473   2.296   6.403  1.1155  1.2696 -0.0648
  131OSM    C4F14158   3.549   2.324   6.609 -0.4057  0.1147  0.5535
  131OSM    H4F14159   3.581   2.420   6.563 -1.6996 -0.1502 -1.0107
  131OSM    H4G14160   3.626   2.276   6.673  1.2557  0.4210 -1.1172
  131OSM    C5F14161   3.415   2.338   6.689 -0.3700  0.1261  0.2515
  131OSM    H5F14162   3.382   2.234   6.711  2.5908 -0.8298  0.6083
  131OSM    H5G14163   3.347   2.381   6.612 -1.0093 -0.6876  0.3448
  131OSM    C6F14164   3.414   2.429   6.808 -0.4573  0.5108 -1.0666
  131OSM    H6F14165   3.308   2.434   6.841 -0.8919  0.2279 -2.3587
  131OSM    H6G14166   3.460   2.524   6.775 -0.8492  0.5037 -1.6451
  131OSM    C7F14167   3.510   2.378   6.913  0.0112  0.6545 -0.6036
  131OSM    H7F14168   3.611   2.358   6.870 -0.9109  1.3056 -3.3182
  131OSM    H7G14169   3.475   2.286   6.964  2.4383  0.9132  1.7742
  131OSM    C8F14170   3.536   2.471   7.035  0.0436 -0.1225  0.8338
  131OSM    H8F14171   3.596   2.562   7.011  0.1046  0.1869  2.0604
  131OSM    H8G14172   3.612   2.413   7.092 -0.2017 -0.9733  0.3057
  131OSM    C9F14173   3.417   2.509   7.119 -0.4243 -0.3862  0.0144
  131OSM    H9F14174   3.333   2.553   7.063  0.3901 -0.9069 -1.6811
  131OSM   C10F14175   3.390   2.479   7.249 -0.2789 -0.1595 -0.2490
  131OSM   H10F14176   3.301   2.519   7.299 -0.2435 -1.1208  0.6191
  131OSM   C11F14177   3.485   2.423   7.351  0.9147  0.4793  0.3581
  131OSM   H11F14178   3.586   2.468   7.353  1.6595 -1.1398  1.8367
  131OSM   H11G14179   3.494   2.313   7.337 -1.2142  0.0950  1.6120
  131OSM   C12F14180   3.429   2.434   7.497  0.1472  0.3570 -0.1964
  131OSM   H12F14181   3.498   2.370   7.556 -0.7422 -0.0017  0.4779
  131OSM   H12G14182   3.328   2.389   7.511 -0.7795  2.4472  0.2990
  131OSM   C13F14183   3.424   2.572   7.557  0.1478 -0.0650 -0.2089
  131OSM   H13F14184   3.336   2.618   7.506 -2.1358 -2.0412  1.6766
  131OSM   H13G14185   3.515   2.631   7.532 -0.4813  1.4507  0.9180
  131OSM   C14F14186   3.413   2.581   7.712  0.4189 -0.6955  0.3819
  131OSM   H14F14187   3.516   2.557   7.748  0.5554 -0.9234 -0.1554
  131OSM   H14G14188   3.342   2.504   7.748  2.0258 -1.8220  1.2753
  131OSM   C15F14189   3.378   2.715   7.778 -0.0366  0.1710 -1.4109
  131OSM   H15F14190   3.439   2.786   7.719  1.4216 -0.6367 -0.9280
  131OSM   H15G14191   3.404   2.710   7.886 -2.5286 -0.1143 -0.7637
  131OSM   C16F14192   3.235   2.762   7.760 -0.4640 -0.8432  0.7173
  131OSM   H16F14193   3.166   2.690   7.810  0.9361 -2.2799  0.6558
  131OSM   H16G14194   3.210   2.746   7.652 -0.2770 -1.1112  0.7107
  131OSM   C17F14195   3.220   2.915   7.804  0.0169  0.4055  0.6883
  131OSM   H17F14196   3.311   2.956   7.754  2.0698 -3.8566  0.4377
  131OSM   H17G14197   3.240   2.913   7.913 -0.7778  0.6887  0.8442
  131OSM   C18F14198   3.094   2.985   7.765  0.2397 -0.0220 -0.2457
  131OSM   H18F14199   3.096   3.091   7.799  0.7504 -0.0191 -0.2671
  131OSM   H18G14200   3.016   2.937   7.828  1.0277  0.9409  1.5178
  131OSM   H18H14201   3.071   2.969   7.657 -2.1837  0.5859  0.1263
  132OSM      N14202   6.214   5.172   6.334  0.4079 -0.1466 -0.3781
  132OSM    C1514203   6.355   5.141   6.288 -0.4678  0.1705  0.4633
  132OSM   H15A14204   6.427   5.220   6.304  0.1589 -0.0778 -0.9798
  132OSM   H15B14205   6.350   5.115   6.184 -0.1697  1.2594  0.1628
  132OSM   H15C14206   6.394   5.051   6.334  2.1714  0.8337 -0.2903
  132OSM    C1414207   6.238   5.220   6.477  0.1153  0.1715 -0.0213
  132OSM   H14A14208   6.281   5.145   6.541 -1.7139 -0.9699 -0.0453
  132OSM   H14B14209   6.148   5.252   6.529  0.6601 -0.6933  1.5283
  132OSM   H14C14210   6.307   5.302   6.482  3.4175 -2.3332 -1.2154
  132OSM    C1314211   6.160   5.285   6.265  0.8301 -0.3380  0.4612
  132OSM   H13A14212   6.056   5.296   6.291  0.8299 -2.1966  1.3918
  132OSM   H13B14213   6.160   5.286   6.157 -0.2617  1.1209  0.4416
  132OSM   H13C14214   6.205   5.382   6.281 -1.7391  1.5160 -2.3464
  132OSM    C1214215   6.123   5.044   6.332 -0.6318 -0.1462  0.1927
  132OSM   H12A14216   6.030   5.069   6.380 -1.9962 -0.3732 -2.1588
  132OSM   H12B14217   6.156   4.964   6.396 -2.3700  0.3713  1.8146
  132OSM    C1114218   6.085   4.972   6.202  0.0334 -0.4193 -0.2545
  132OSM   H11A14219   6.052   5.051   6.130 -0.0800 -0.4868 -0.2759
  132OSM   H11B14220   6.004   4.898   6.217 -2.3804  2.1009  0.1466
  132OSM      P14221   6.254   4.774   6.206 -0.2463 -0.1272  0.2596
  132OSM    O1314222   6.187   4.670   6.128  0.1234 -0.3199 -0.1182
  132OSM    O1414223   6.397   4.763   6.217  0.1286  0.3062  0.7029
  132OSM    O1114224   6.192   4.779   6.352  0.3801 -0.5209 -0.3047
  132OSM    O1214225   6.209   4.912   6.155 -0.3036  0.0708  0.2145
  132OSM    C1S14226   6.240   4.688   6.453  0.2806  0.5078 -0.1453
  132OSM    H1S14227   6.351   4.685   6.460  0.2966  1.0443 -0.1526
  132OSM    H1T14228   6.215   4.587   6.415  0.4209  0.4764 -0.1549
  132OSM     NF14229   6.229   4.616   6.695 -0.0087  0.2768 -0.2225
  132OSM    HNF14230   6.173   4.546   6.739  2.0071 -2.1346 -1.2231
  132OSM    C2S14231   6.167   4.706   6.597 -0.6499  0.2035  0.5892
  132OSM    H2S14232   6.188   4.810   6.629  2.8301  0.4941 -2.0352
  132OSM    C3S14233   6.019   4.678   6.576  0.6998 -0.6600  0.4302
  132OSM    H3S14234   6.011   4.577   6.531  0.6345 -1.1829  1.5791
  132OSM     O314235   5.954   4.770   6.492 -0.2906 -0.6643 -0.2094
  132OSM    HO314236   6.027   4.820   6.454  1.4345  0.5206  4.0082
  132OSM    C4S14237   5.944   4.679   6.708  0.2770 -0.1052  0.1865
  132OSM    H4S14238   5.980   4.763   6.769  0.2944  1.7261 -2.1991
  132OSM    C5S14239   5.850   4.584   6.749  0.3589 -0.4016 -0.1745
  132OSM    H5S14240   5.825   4.494   6.691  0.4814 -0.3801 -0.2611
  132OSM    C6S14241   5.769   4.590   6.876  0.7204  0.5808 -0.1533
  132OSM    H6S14242   5.807   4.512   6.945 -0.6508 -1.0224 -1.1388
  132OSM    H6T14243   5.664   4.562   6.851  1.0008 -3.2032  2.1033
  132OSM    C7S14244   5.759   4.724   6.954  0.7060  0.4852  0.6118
  132OSM    H7S14245   5.705   4.791   6.884  1.1531 -1.1178 -1.3667
  132OSM    H7T14246   5.857   4.773   6.974  0.7307  0.3724  0.7698
  132OSM    C8S14247   5.680   4.707   7.083 -0.3737  0.0086 -0.2843
  132OSM    H8S14248   5.721   4.617   7.134 -0.5070  2.0519  3.8585
  132OSM    H8T14249   5.573   4.680   7.069  0.0469 -1.4805 -0.7540
  132OSM    C9S14250   5.710   4.823   7.181 -0.4518  0.4139  0.2950
  132OSM    H9S14251   5.658   4.908   7.131  0.7452  1.6762  1.0986
  132OSM    H9T14252   5.816   4.857   7.179 -1.0933  2.7077 -3.0336
  132OSM   C10S14253   5.639   4.818   7.319  0.0645  0.0909  0.0934
  132OSM   H10S14254   5.541   4.767   7.313 -0.5504  1.2947 -0.6972
  132OSM   H10T14255   5.601   4.920   7.342 -0.1881 -0.4414  2.2806
  132OSM   C11S14256   5.726   4.755   7.430 -0.5399 -0.2131 -0.2863
  132OSM   H11S14257   5.825   4.806   7.435 -0.4010 -0.4380 -0.7082
  132OSM   H11T14258   5.736   4.647   7.408 -0.9480 -0.7494  1.8728
  132OSM   C12S14259   5.654   4.770   7.563 -0.0763 -0.3074  0.3583
  132OSM   H12S14260   5.556   4.718   7.558  1.2173 -3.0367  1.0604
  132OSM   H12T14261   5.647   4.877   7.589 -0.2825 -0.0958 -0.5559
  132OSM   C13S14262   5.727   4.699   7.689 -0.2001  0.2265  0.2247
  132OSM   H13S14263   5.833   4.734   7.684  0.5960 -2.1328 -0.7742
  132OSM   H13T14264   5.737   4.591   7.664  0.2805 -0.3204  2.5151
  132OSM   C14S14265   5.660   4.732   7.816  0.5251  0.0945 -0.2645
  132OSM   H14S14266   5.552   4.707   7.810  0.3998  0.4951  0.3030
  132OSM   H14T14267   5.669   4.841   7.835 -1.9155  0.3646 -0.4159
  132OSM   C15S14268   5.717   4.646   7.927 -0.7822 -0.7994  0.1275
  132OSM   H15S14269   5.736   4.540   7.900 -2.3149 -0.5156 -2.4258
  132OSM   H15T14270   5.645   4.643   8.012  2.2163 -1.5433  2.8300
  132OSM   C16S14271   5.843   4.715   7.979  0.4083  0.1888  0.1924
  132OSM   H16S14272   5.810   4.800   8.042 -3.1593 -1.1758  0.4400
  132OSM   H16T14273   5.909   4.764   7.905  0.7293  0.7905  0.8604
  132OSM   C17S14274   5.918   4.615   8.076 -0.1450 -0.6817  0.5711
  132OSM   H17S14275   5.947   4.531   8.009 -1.5347  0.1058 -1.1184
  132OSM   H17T14276   5.850   4.576   8.154 -2.1242  0.5703 -0.4547
  132OSM   C18S14277   6.056   4.670   8.130 -0.5631 -0.0643  0.3894
  132OSM   H18S14278   6.091   4.623   8.224 -0.1375  1.5560  1.0868
  132OSM   H18T14279   6.057   4.777   8.162  1.5172  0.0611  0.0124
  132OSM   H18U14280   6.135   4.649   8.055  0.8780  0.6671  1.6482
  132OSM    C1F14281   6.363   4.620   6.724 -0.1928 -0.4643 -0.4246
  132OSM     OF14282   6.437   4.708   6.682 -0.7048 -0.1839 -0.0164
  132OSM    C2F14283   6.415   4.524   6.819 -0.3167 -0.8687 -0.1586
  132OSM    H2F14284   6.412   4.427   6.764 -0.0774  0.0525 -1.8480
  132OSM    H2G14285   6.352   4.514   6.910 -0.2166 -1.5842 -0.1582
  132OSM    C3F14286   6.557   4.551   6.862 -0.2766  0.4340  0.3633
  132OSM    H3F14287   6.565   4.637   6.931 -1.7307  0.6918  0.2308
  132OSM    H3G14288   6.618   4.561   6.770  0.0013  0.1814  0.5163
  132OSM    C4F14289   6.629   4.426   6.931  0.3702  1.2137 -0.2071
  132OSM    H4F14290   6.634   4.334   6.868 -1.0610  2.1594 -1.7831
  132OSM    H4G14291   6.575   4.403   7.025  0.8226  0.9384 -0.0093
  132OSM    C5F14292   6.777   4.449   6.976  1.6449 -0.2537  0.6504
  132OSM    H5F14293   6.781   4.542   7.036  0.3934  0.4747 -0.3527
  132OSM    H5G14294   6.845   4.458   6.889  1.9630 -1.1475  0.7899
  132OSM    C6F14295   6.844   4.353   7.078  0.0321  0.2620 -0.3139
  132OSM    H6F14296   6.954   4.371   7.079 -0.0566  0.8270  0.2655
  132OSM    H6G14297   6.825   4.248   7.050 -1.9655  0.8538 -1.3556
  132OSM    C7F14298   6.794   4.362   7.227  0.0176 -0.7336 -0.0300
  132OSM    H7F14299   6.683   4.357   7.221 -0.1687  1.3780  0.6577
  132OSM    H7G14300   6.817   4.465   7.261  0.0567 -0.5010 -0.7588
  132OSM    C8F14301   6.842   4.251   7.322 -0.8157 -0.3891 -0.1981
  132OSM    H8F14302   6.788   4.160   7.288 -2.5499  1.0698 -1.5313
  132OSM    H8G14303   6.813   4.258   7.429 -0.9584 -0.6222 -0.2201
  132OSM    C9F14304   6.986   4.225   7.315 -0.4612 -0.4064 -0.4363
  132OSM    H9F14305   7.021   4.160   7.234 -1.2151 -0.2731 -0.8814
  132OSM   C10F14306   7.077   4.266   7.406  0.5707  0.4964  0.3843
  132OSM   H10F14307   7.179   4.225   7.394 -0.2617 -1.4988 -0.1595
  132OSM   C11F14308   7.040   4.347   7.524 -0.5294  0.1657 -0.5209
  132OSM   H11F14309   6.949   4.405   7.499 -0.2109 -0.0269 -2.2156
  132OSM   H11G14310   7.131   4.409   7.538  0.3681 -0.9441 -1.2730
  132OSM   C12F14311   7.008   4.263   7.653  0.3890  0.7440 -0.4392
  132OSM   H12F14312   6.916   4.201   7.645  1.7347 -1.5362  0.5807
  132OSM   H12G14313   6.974   4.346   7.718 -1.1474  0.2468 -0.5651
  132OSM   C13F14314   7.121   4.182   7.721  0.1461  0.2425 -0.0228
  132OSM   H13F14315   7.200   4.260   7.733  0.5135 -0.4385  2.4743
  132OSM   H13G14316   7.165   4.099   7.661  1.1149  0.1311  0.8240
  132OSM   C14F14317   7.077   4.128   7.861 -0.3206 -0.3208 -0.2931
  132OSM   H14F14318   6.999   4.053   7.840  0.0759 -0.6665 -0.5352
  132OSM   H14G14319   7.033   4.211   7.922 -1.3107 -1.1037  0.0855
  132OSM   C15F14320   7.192   4.078   7.949  0.1115 -0.2073 -0.1497
  132OSM   H15F14321   7.276   4.151   7.948 -0.9387  1.0286 -0.5774
  132OSM   H15G14322   7.226   3.990   7.890  1.7225  2.3523 -3.3723
  132OSM   C16F14323   7.160   4.047   8.096  0.3210 -0.3135  0.0421
  132OSM   H16F14324   7.059   4.001   8.091  1.0315 -1.8216 -2.4364
  132OSM   H16G14325   7.151   4.141   8.154  1.1784  0.5857 -1.2477
  132OSM   C17F14326   7.266   3.952   8.154  0.2727  0.4905 -0.5431
  132OSM   H17F14327   7.246   3.948   8.263 -0.7527  0.0969 -0.7300
  132OSM   H17G14328   7.362   4.005   8.140 -0.7148  2.8298  0.9696
  132OSM   C18F14329   7.272   3.808   8.100  0.1120  0.0979  0.2757
  132OSM   H18F14330   7.327   3.812   8.003 -0.6609  0.1083 -0.1636
  132OSM   H18G14331   7.172   3.763   8.088 -0.4533  1.7029 -1.7355
  132OSM   H18H14332   7.337   3.747   8.167  0.5540  1.2759  0.9661
  133OSM      N14333   0.316   4.403   6.405 -0.7063 -0.0242 -0.0619
  133OSM    C1514334   0.320   4.536   6.338  0.7408  0.7611 -0.8278
  133OSM   H15A14335   0.220   4.569   6.314 -0.6003 -1.5243  1.1273
  133OSM   H15B14336   0.381   4.531   6.249 -0.9793  1.9138 -2.1333
  133OSM   H15C14337   0.366   4.613   6.399  0.0158 -0.3607  1.2462
  133OSM    C1414338   0.451   4.362   6.454  0.6319  0.5942  1.1523
  133OSM   H14A14339   0.487   4.441   6.519 -0.2736  3.0833 -1.2062
  133OSM   H14B14340   0.523   4.353   6.375  0.3717  0.0675  0.9736
  133OSM   H14C14341   0.451   4.266   6.502  2.0856 -0.6958 -1.2382
  133OSM    C1314342   0.213   4.409   6.512  0.6467 -0.3667 -0.2478
  133OSM   H13A14343   0.240   4.475   6.593 -2.1082  1.0521 -0.3866
  133OSM   H13B14344   0.185   4.315   6.555  0.1707 -0.5505 -0.9576
  133OSM   H13C14345   0.123   4.460   6.480  0.4393  0.3158  1.3419
  133OSM    C1214346   0.269   4.303   6.302  0.7030 -0.3080  0.4476
  133OSM   H12A14347   0.353   4.309   6.235  1.8621  1.3818  1.9848
  133OSM   H12B14348   0.175   4.336   6.260  0.8513 -1.5507 -0.9608
  133OSM    C1114349   0.248   4.153   6.348 -0.5725 -0.4331 -0.9530
  133OSM   H11A14350   0.191   4.140   6.442  3.0544 -0.4632  1.4235
  133OSM   H11B14351   0.351   4.118   6.369 -1.4940 -3.8741 -1.5780
  133OSM      P14352   0.060   4.043   6.193  0.0954  0.2126 -0.5291
  133OSM    O1314353   0.002   4.176   6.194  0.3792 -0.4348  0.6102
  133OSM    O1414354   0.061   3.968   6.069 -0.1072  0.0446  0.7635
  133OSM    O1114355  -0.012   3.952   6.299  0.4097  0.0308  0.3610
  133OSM    O1214356   0.210   4.070   6.244  0.8280  0.3711  0.2676
  133OSM    C1S14357   0.069   3.886   6.399 -0.2242  0.3814  0.8186
  133OSM    H1S14358   0.134   3.956   6.457  1.0525 -0.2777  0.2103
  133OSM    H1T14359   0.139   3.815   6.350 -1.7267 -1.3504  1.0960
  133OSM     NF14360   0.067   3.728   6.601 -0.3772 -0.6128 -0.2551
  133OSM    HNF14361   0.095   3.632   6.594 -1.0874 -0.8614  0.1847
  133OSM    C2S14362  -0.010   3.784   6.486  0.1967 -0.0730 -0.3648
  133OSM    H2S14363  -0.102   3.832   6.525 -0.0089 -0.6342 -0.1389
  133OSM    C3S14364  -0.064   3.672   6.395 -0.2831  0.1098 -0.1060
  133OSM    H3S14365   0.019   3.637   6.331  0.6342  2.0413 -0.0620
  133OSM     O314366  -0.164   3.714   6.302 -0.3469 -0.2468 -0.0896
  133OSM    HO314367  -0.132   3.802   6.280  1.9459 -1.2146 -0.9113
  133OSM    C4S14368  -0.122   3.554   6.481  0.9369  0.5130 -0.2557
  133OSM    H4S14369  -0.051   3.481   6.523 -0.2660 -2.0488 -2.4205
  133OSM    C5S14370  -0.252   3.537   6.524  0.0574  0.2553  0.3674
  133OSM    H5S14371  -0.329   3.607   6.488 -0.4001 -0.3491  0.1411
  133OSM    C6S14372  -0.304   3.430   6.619 -0.1600 -0.0573 -0.3111
  133OSM    H6S14373  -0.302   3.329   6.573  2.3399 -1.1912  1.9701
  133OSM    H6T14374  -0.407   3.461   6.647 -0.2381  2.6139 -3.0882
  133OSM    C7S14375  -0.217   3.418   6.748  0.7702  0.4690 -0.2697
  133OSM    H7S14376  -0.111   3.415   6.716  0.6929  0.4718 -0.5245
  133OSM    H7T14377  -0.243   3.324   6.802  3.3322 -1.3500 -1.9832
  133OSM    C8S14378  -0.247   3.523   6.854 -0.0409 -0.1785  0.0838
  133OSM    H8S14379  -0.354   3.526   6.883  0.2572 -0.0200  1.2189
  133OSM    H8T14380  -0.215   3.620   6.811 -0.8223 -0.0230 -0.1614
  133OSM    C9S14381  -0.163   3.509   6.982 -0.1344 -0.0793 -0.5702
  133OSM    H9S14382  -0.058   3.540   6.962 -0.4758  1.0790 -0.6715
  133OSM    H9T14383  -0.169   3.403   7.012 -0.0501  0.2875  0.8003
  133OSM   C10S14384  -0.231   3.593   7.093  0.3785 -0.0167 -1.3086
  133OSM   H10S14385  -0.339   3.567   7.099  0.6848 -1.1642  3.3741
  133OSM   H10T14386  -0.222   3.699   7.062 -1.3571  0.0359 -1.7431
  133OSM   C11S14387  -0.154   3.557   7.227 -0.2948 -0.2251 -0.4512
  133OSM   H11S14388  -0.046   3.583   7.225 -0.1742 -0.5358  1.1236
  133OSM   H11T14389  -0.162   3.448   7.241  0.1487 -0.2463 -0.3400
  133OSM   C12S14390  -0.220   3.619   7.351 -0.0272 -0.9354  0.1766
  133OSM   H12S14391  -0.329   3.612   7.332  0.3300 -1.5634 -1.9584
  133OSM   H12T14392  -0.193   3.726   7.359  1.4427 -1.1148 -1.5610
  133OSM   C13S14393  -0.168   3.553   7.481  0.2882  0.8716  0.1617
  133OSM   H13S14394  -0.065   3.592   7.492  0.3595  0.7077  0.0820
  133OSM   H13T14395  -0.157   3.443   7.466 -2.0366  0.6512 -0.3191
  133OSM   C14S14396  -0.255   3.593   7.600 -0.1836 -0.3559 -0.1966
  133OSM   H14S14397  -0.272   3.701   7.582  0.8653 -0.2875 -0.8608
  133OSM   H14T14398  -0.205   3.595   7.699  0.7655 -0.1933 -0.6679
  133OSM   C15S14399  -0.389   3.523   7.602  0.1124 -0.5286 -0.1166
  133OSM   H15S14400  -0.363   3.417   7.622 -0.2973 -1.1869 -2.7570
  133OSM   H15T14401  -0.437   3.526   7.502  0.9131 -0.9438 -0.5198
  133OSM   C16S14402  -0.489   3.585   7.706 -0.5322 -0.2674 -0.2437
  133OSM   H16S14403  -0.591   3.543   7.700  0.5453 -3.1486 -0.0987
  133OSM   H16T14404  -0.523   3.690   7.693  1.0201  0.2216 -0.6616
  133OSM   C17S14405  -0.437   3.558   7.852 -0.1578 -0.5069  0.3244
  133OSM   H17S14406  -0.332   3.591   7.870 -0.8872  1.0322  2.0414
  133OSM   H17T14407  -0.434   3.448   7.865  1.2741 -0.2796  2.4642
  133OSM   C18S14408  -0.522   3.623   7.962  0.0345 -0.4218  0.1718
  133OSM   H18S14409  -0.628   3.589   7.963 -0.0682 -0.3088 -1.9582
  133OSM   H18T14410  -0.527   3.732   7.942 -0.5177 -0.4084  0.3841
  133OSM   H18U14411  -0.479   3.596   8.061  1.4417  0.7579 -0.0766
  133OSM    C1F14412   0.096   3.797   6.710  0.1811 -0.0985  0.8655
  133OSM     OF14413   0.053   3.911   6.713 -0.0559  1.0390  0.6356
  133OSM    C2F14414   0.172   3.731   6.818  0.0905  0.3051 -0.2052
  133OSM    H2F14415   0.282   3.735   6.805  0.4060  1.0135  2.0477
  133OSM    H2G14416   0.152   3.622   6.827 -0.9715  0.6238  1.9591
  133OSM    C3F14417   0.147   3.819   6.943  0.3298 -0.5819 -0.6901
  133OSM    H3F14418   0.041   3.811   6.975  0.6946  0.3711  0.8548
  133OSM    H3G14419   0.164   3.926   6.921 -1.0029 -0.4099 -0.9514
  133OSM    C4F14420   0.211   3.770   7.076  0.7052  0.7013 -0.2713
  133OSM    H4F14421   0.322   3.760   7.069  0.5935 -0.5355 -0.4360
  133OSM    H4G14422   0.171   3.667   7.086  1.1249  0.5896  0.3119
  133OSM    C5F14423   0.176   3.846   7.200  0.2779 -0.6999  0.2095
  133OSM    H5F14424   0.072   3.884   7.192  0.3464 -0.3072  1.0580
  133OSM    H5G14425   0.237   3.939   7.201 -0.3459 -0.2761 -0.2837
  133OSM    C6F14426   0.190   3.777   7.334 -0.4570 -0.1021  0.2973
  133OSM    H6F14427   0.297   3.751   7.352 -1.2149 -2.9326  1.3018
  133OSM    H6G14428   0.141   3.678   7.326 -1.0847 -0.1591  3.5172
  133OSM    C7F14429   0.141   3.862   7.449  0.0332 -0.1105 -0.6193
  133OSM    H7F14430   0.033   3.882   7.434  0.1405  2.3800  1.3297
  133OSM    H7G14431   0.193   3.960   7.446 -0.5723  0.2109 -0.6530
  133OSM    C8F14432   0.163   3.804   7.591 -0.4039 -0.5454 -0.1013
  133OSM    H8F14433   0.112   3.706   7.601 -0.8275 -0.2196  1.0018
  133OSM    H8G14434   0.104   3.872   7.655  2.9135  3.3911 -0.7781
  133OSM    C9F14435   0.303   3.800   7.657  0.2667 -0.0701 -0.2447
  133OSM    H9F14436   0.334   3.897   7.700 -1.0201  1.1620 -1.9960
  133OSM   C10F14437   0.391   3.696   7.674  0.5747 -0.3995  0.4207
  133OSM   H10F14438   0.493   3.718   7.708  1.1401 -1.0902 -0.7352
  133OSM   C11F14439   0.356   3.556   7.622 -0.5300 -0.0513 -0.1509
  133OSM   H11F14440   0.449   3.514   7.577  0.5445  3.5148 -1.5822
  133OSM   H11G14441   0.290   3.554   7.533  0.1134 -0.9150 -0.6279
  133OSM   C12F14442   0.307   3.465   7.731  0.2968  0.1977 -0.3465
  133OSM   H12F14443   0.367   3.476   7.824 -0.5575  2.3954 -0.0068
  133OSM   H12G14444   0.323   3.362   7.692 -1.3936  0.6501 -2.3407
  133OSM   C13F14445   0.157   3.466   7.771  0.0298 -0.6303  0.2885
  133OSM   H13F14446   0.098   3.452   7.678 -0.6069  0.4019  0.5076
  133OSM   H13G14447   0.119   3.565   7.806  0.7207 -0.7351  1.3995
  133OSM   C14F14448   0.126   3.361   7.876 -0.4561 -0.7813 -0.1461
  133OSM   H14F14449   0.176   3.382   7.973  1.3166  1.1155 -1.3837
  133OSM   H14G14450   0.162   3.258   7.852  0.0100 -1.3777  2.7869
  133OSM   C15F14451  -0.023   3.354   7.906 -1.2424  0.4031 -0.2666
  133OSM   H15F14452  -0.066   3.346   7.804  1.4755 -2.9438 -1.3848
  133OSM   H15G14453  -0.050   3.451   7.952 -0.3479  1.0936 -1.1476
  133OSM   C16F14454  -0.066   3.232   7.994  0.0852 -0.0990  0.9986
  133OSM   H16F14455  -0.033   3.268   8.094  1.4027  1.7889 -0.0479
  133OSM   H16G14456  -0.028   3.132   7.964 -1.2519  0.2660 -2.2306
  133OSM   C17F14457  -0.213   3.205   7.991 -0.2594  0.2293  0.1129
  133OSM   H17F14458  -0.239   3.103   8.026  1.5123  0.3261  1.8514
  133OSM   H17G14459  -0.235   3.219   7.883 -1.4505 -0.5228  0.2420
  133OSM   C18F14460  -0.298   3.303   8.073 -0.2684 -0.4792 -0.8904
  133OSM   H18F14461  -0.265   3.409   8.062 -2.0055  0.5025  2.1943
  133OSM   H18G14462  -0.287   3.281   8.181 -1.4176 -1.7903 -1.0126
  133OSM   H18H14463  -0.403   3.297   8.036 -1.0902  0.4924  1.1367
  134OSM      N14464   0.069   0.229   6.382 -0.3554 -0.1637 -0.1848
  134OSM    C1514465   0.207   0.242   6.423 -0.8989 -0.0912 -0.5678
  134OSM   H15A14466   0.269   0.238   6.335 -0.4567 -0.2900 -0.2544
  134OSM   H15B14467   0.258   0.169   6.485  2.3513  1.3763 -1.2528
  134OSM   H15C14468   0.227   0.336   6.473 -0.4376  0.1900 -1.2660
  134OSM    C1414469   0.049   0.088   6.328  0.1493 -0.1203 -0.3946
  134OSM   H14A14470   0.077   0.013   6.401  0.6979 -1.2598 -1.7263
  134OSM   H14B14471   0.108   0.068   6.240 -1.4682 -0.8152 -1.3707
  134OSM   H14C14472  -0.055   0.062   6.318  0.6677 -1.6094 -2.3555
  134OSM    C1314473  -0.025   0.238   6.499 -0.0360 -0.3885  0.0197
  134OSM   H13A14474   0.009   0.332   6.541  0.3907 -0.4823 -0.1162
  134OSM   H13B14475   0.003   0.169   6.576 -0.1330  0.1632  0.5559
  134OSM   H13C14476  -0.130   0.244   6.475  0.3802 -1.2323 -2.3521
  134OSM    C1214477   0.049   0.337   6.273  0.9098 -0.5306  0.4669
  134OSM   H12A14478   0.124   0.329   6.197  0.9305  0.2436  0.3951
  134OSM   H12B14479   0.063   0.433   6.321  1.0227 -1.3909  2.2588
  134OSM    C1114480  -0.094   0.332   6.205 -0.0836  0.5828  0.1889
  134OSM   H11A14481  -0.116   0.232   6.162  1.5805  0.3554 -0.2048
  134OSM   H11B14482  -0.094   0.401   6.118 -0.8958 -1.1535 -1.2506
  134OSM      P14483  -0.225   0.512   6.339  0.4669  0.0704 -0.5067
  134OSM    O1314484  -0.100   0.575   6.374  0.2345  0.2846  0.0244
  134OSM    O1414485  -0.312   0.578   6.237 -0.0763 -0.1852 -0.3095
  134OSM    O1114486  -0.314   0.500   6.473 -0.0629 -0.1673  0.3567
  134OSM    O1214487  -0.206   0.363   6.288 -0.0531  0.3279 -0.2756
  134OSM    C1S14488  -0.350   0.612   6.557  0.3815 -0.0268  0.4131
  134OSM    H1S14489  -0.429   0.671   6.505 -0.0554 -0.9887 -0.0459
  134OSM    H1T14490  -0.272   0.690   6.572 -0.5435  1.0393 -0.1623
  134OSM     NF14491  -0.407   0.692   6.778 -0.8930 -0.5771  0.0440
  134OSM    HNF14492  -0.337   0.716   6.845 -2.5934  0.9704  1.3820
  134OSM    C2S14493  -0.397   0.574   6.702  0.4876  0.2254  0.2056
  134OSM    H2S14494  -0.499   0.532   6.696 -0.3169  2.2607 -2.0492
  134OSM    C3S14495  -0.303   0.461   6.762  0.1625 -0.6199  0.4479
  134OSM    H3S14496  -0.198   0.495   6.754  0.2734 -0.3063  2.6624
  134OSM     O314497  -0.298   0.334   6.694  0.0718 -0.5460 -0.3876
  134OSM    HO314498  -0.350   0.353   6.616  0.5868  1.1834 -0.3624
  134OSM    C4S14499  -0.334   0.438   6.906  1.1145 -0.1460  0.3790
  134OSM    H4S14500  -0.279   0.497   6.980  0.3273 -0.1921  1.0179
  134OSM    C5S14501  -0.440   0.375   6.954 -0.1491  0.0801  0.0851
  134OSM    H5S14502  -0.516   0.329   6.890 -0.9281  0.6129  0.6095
  134OSM    C6S14503  -0.480   0.365   7.097 -0.2337 -0.7738  0.8098
  134OSM    H6S14504  -0.428   0.282   7.149  2.8627 -1.1430 -2.4911
  134OSM    H6T14505  -0.588   0.341   7.112  0.2638 -1.5726  3.8033
  134OSM    C7S14506  -0.455   0.483   7.186 -0.0635 -0.0173 -0.1581
  134OSM    H7S14507  -0.489   0.574   7.133  1.6567  0.7065 -0.0741
  134OSM    H7T14508  -0.349   0.492   7.217  0.5687  0.3140 -2.2916
  134OSM    C8S14509  -0.520   0.490   7.325  0.2260  1.0417 -0.4042
  134OSM    H8S14510  -0.623   0.529   7.308  0.7882  2.0746 -1.6089
  134OSM    H8T14511  -0.476   0.568   7.390 -2.4819 -0.1895  3.2442
  134OSM    C9S14512  -0.512   0.364   7.419 -0.0710  0.2596 -0.3319
  134OSM    H9S14513  -0.403   0.356   7.439 -0.0618  1.3205  0.0761
  134OSM    H9T14514  -0.552   0.270   7.376  2.5077 -1.2365  0.3403
  134OSM   C10S14515  -0.588   0.404   7.548  0.8214  0.1664  0.4404
  134OSM   H10S14516  -0.692   0.423   7.513  0.9111 -1.0005 -0.5237
  134OSM   H10T14517  -0.543   0.495   7.593  0.8614  0.1992  0.3335
  134OSM   C11S14518  -0.589   0.283   7.649  0.2213  0.1261  0.2225
  134OSM   H11S14519  -0.488   0.273   7.694  0.5129 -0.1072 -0.4699
  134OSM   H11T14520  -0.602   0.198   7.579 -1.1330  0.2253  0.3185
  134OSM   C12S14521  -0.688   0.293   7.767 -0.3664 -0.1598  0.4740
  134OSM   H12S14522  -0.795   0.296   7.738 -0.1694 -2.8647 -0.7735
  134OSM   H12T14523  -0.661   0.377   7.835 -0.1623 -0.1814  0.4215
  134OSM   C13S14524  -0.681   0.172   7.854  0.4837  0.8542 -0.5439
  134OSM   H13S14525  -0.588   0.178   7.914 -1.1386  2.1841  2.0391
  134OSM   H13T14526  -0.672   0.088   7.782  0.5205  1.0518 -0.7704
  134OSM   C14S14527  -0.803   0.136   7.943 -0.3362 -1.2854  1.1086
  134OSM   H14S14528  -0.800   0.026   7.958  1.2998 -1.3615  0.3490
  134OSM   H14T14529  -0.899   0.160   7.892  0.1749  1.0846  1.1282
  134OSM   C15S14530  -0.791   0.202   8.085  0.2416 -0.3479  0.0098
  134OSM   H15S14531  -0.769   0.309   8.065 -0.7053  0.1996  1.7161
  134OSM   H15T14532  -0.708   0.168   8.150  2.4596  0.9449 -1.9852
  134OSM   C16S14533  -0.918   0.200   8.177 -0.3498  0.9713 -0.3518
  134OSM   H16S14534  -1.006   0.216   8.111 -0.1086 -1.0791 -1.2840
  134OSM   H16T14535  -0.926   0.276   8.257  1.0036  0.2386  0.5280
  134OSM   C17S14536  -0.932   0.072   8.242  0.3459 -0.2525  0.1536
  134OSM   H17S14537  -0.874   0.079   8.336 -0.0388  2.4194  0.2433
  134OSM   H17T14538  -0.884  -0.015   8.192  1.0780  0.0333  0.3466
  134OSM   C18S14539  -1.077   0.025   8.260 -0.2082 -0.5669 -0.4052
  134OSM   H18S14540  -1.133  -0.003   8.168  2.0160 -0.8748 -1.7504
  134OSM   H18T14541  -1.137   0.098   8.318 -0.2584 -0.8260 -0.1278
  134OSM   H18U14542  -1.066  -0.070   8.317 -0.6720 -0.9150 -0.8786
  134OSM    C1F14543  -0.508   0.784   6.765  0.2288  0.0858 -0.5549
  134OSM     OF14544  -0.609   0.753   6.701  0.4165 -0.0067 -0.0342
  134OSM    C2F14545  -0.488   0.915   6.828  0.3579  0.3706 -0.5212
  134OSM    H2F14546  -0.514   0.996   6.756  0.1752 -0.1211 -1.0093
  134OSM    H2G14547  -0.383   0.929   6.860  0.7817 -0.2740 -1.5818
  134OSM    C3F14548  -0.577   0.930   6.962  0.2950 -0.3494  0.3608
  134OSM    H3F14549  -0.561   0.834   7.016 -0.3192 -1.3119 -1.0904
  134OSM    H3G14550  -0.680   0.925   6.920  0.6928  1.1635 -0.8960
  134OSM    C4F14551  -0.553   1.053   7.049  0.2254 -1.0273  0.1423
  134OSM    H4F14552  -0.586   1.136   6.983 -0.3689  0.1853  1.9191
  134OSM    H4G14553  -0.445   1.076   7.061  0.5664 -1.9545 -0.8843
  134OSM    C5F14554  -0.632   1.056   7.180  1.0546 -0.3118 -0.5280
  134OSM    H5F14555  -0.741   1.041   7.167  1.4083 -2.1746 -1.6822
  134OSM    H5G14556  -0.617   1.163   7.206 -1.1370  0.1200 -0.8823
  134OSM    C6F14557  -0.573   0.968   7.288  0.3416  0.5809  0.7017
  134OSM    H6F14558  -0.562   0.869   7.238  0.9745  1.1225 -0.2801
  134OSM    H6G14559  -0.644   0.962   7.373  1.0714  2.9948  1.5424
  134OSM    C7F14560  -0.431   0.992   7.329  0.6256 -0.6979 -0.3093
  134OSM    H7F14561  -0.407   1.100   7.335  2.3065 -0.9336 -2.0355
  134OSM    H7G14562  -0.360   0.957   7.251  3.4341  3.7898 -0.1597
  134OSM    C8F14563  -0.396   0.917   7.456  0.3461  0.0706  0.5846
  134OSM    H8F14564  -0.286   0.915   7.468  0.2575 -0.9217  1.4044
  134OSM    H8G14565  -0.431   0.811   7.456  2.2111 -0.5756  0.3463
  134OSM    C9F14566  -0.452   1.004   7.570 -0.3968 -0.4088 -0.6802
  134OSM    H9F14567  -0.416   1.107   7.578 -1.0900 -0.2966  1.6240
  134OSM   C10F14568  -0.543   0.962   7.666 -0.0088  0.6633  0.5516
  134OSM   H10F14569  -0.577   1.041   7.734  2.1654  1.7940  0.4171
  134OSM   C11F14570  -0.603   0.817   7.675  0.1327  0.2199  0.0406
  134OSM   H11F14571  -0.528   0.745   7.636  0.4143  0.1248  0.7415
  134OSM   H11G14572  -0.700   0.800   7.624 -0.4921  1.8892  0.6037
  134OSM   C12F14573  -0.620   0.778   7.823  0.3121 -0.0461 -0.8985
  134OSM   H12F14574  -0.524   0.787   7.879 -0.6650  1.3369  0.6399
  134OSM   H12G14575  -0.656   0.673   7.830 -1.8911  0.2602 -4.7777
  134OSM   C13F14576  -0.730   0.858   7.895 -0.6745 -0.1046 -0.5724
  134OSM   H13F14577  -0.824   0.830   7.843 -0.9484 -1.4972  0.6128
  134OSM   H13G14578  -0.720   0.968   7.886 -0.0490 -0.0005  1.1355
  134OSM   C14F14579  -0.750   0.818   8.037 -0.3767 -0.1380  0.0527
  134OSM   H14F14580  -0.748   0.708   8.048  0.5147 -0.1576 -0.1897
  134OSM   H14G14581  -0.852   0.848   8.070 -0.8265 -3.0538  1.6268
  134OSM   C15F14582  -0.636   0.866   8.129 -0.0446  0.5162 -0.5464
  134OSM   H15F14583  -0.615   0.975   8.116  0.9220  0.5851  1.2911
  134OSM   H15G14584  -0.545   0.823   8.081  0.3825  0.0970  0.6127
  134OSM   C16F14585  -0.653   0.833   8.281 -0.5083 -0.4158 -0.1604
  134OSM   H16F14586  -0.554   0.855   8.327 -0.4143 -2.4598  0.7110
  134OSM   H16G14587  -0.678   0.726   8.298  0.4974 -1.4238 -4.0065
  134OSM   C17F14588  -0.744   0.926   8.370  0.9296  0.0403 -0.1577
  134OSM   H17F14589  -0.843   0.949   8.325  0.8464  0.0386  0.0209
  134OSM   H17G14590  -0.696   1.026   8.368  1.8175 -0.3789 -1.9966
  134OSM   C18F14591  -0.751   0.876   8.515  0.5156  0.6783 -0.0819
  134OSM   H18F14592  -0.801   0.953   8.577  0.4098  0.9859 -0.5463
  134OSM   H18G14593  -0.646   0.874   8.553  0.1430 -1.3628  0.9748
  134OSM   H18H14594  -0.811   0.783   8.528  2.3705 -0.3790  1.6040
  135OSM      N14595   0.339   1.630   5.951 -0.2241  0.2719 -0.8863
  135OSM    C1514596   0.227   1.518   5.952  0.3093  0.2324  1.2314
  135OSM   H15A14597   0.254   1.428   6.006 -1.2131  1.1204  3.6228
  135OSM   H15B14598   0.210   1.489   5.850  1.8540 -1.3379  1.3620
  135OSM   H15C14599   0.132   1.546   5.993 -2.0382 -3.6292 -0.9489
  135OSM    C1414600   0.436   1.581   5.856 -0.1764  0.0922  0.0550
  135OSM   H14A14601   0.395   1.561   5.759  1.3181 -0.0278 -0.5717
  135OSM   H14B14602   0.482   1.492   5.896 -0.1801  0.6720  1.4051
  135OSM   H14C14603   0.515   1.653   5.840  0.9541 -0.7911  1.4216
  135OSM    C1314604   0.275   1.756   5.895  1.0931  0.3664 -0.0820
  135OSM   H13A14605   0.338   1.810   5.826 -1.3284  1.9195 -1.2133
  135OSM   H13B14606   0.253   1.814   5.984  0.3176 -0.5327  0.3319
  135OSM   H13C14607   0.179   1.727   5.855  1.8566 -0.1036 -1.6522
  135OSM    C1214608   0.393   1.647   6.091 -0.2368 -0.0001 -0.0697
  135OSM   H12A14609   0.476   1.716   6.084  0.4276 -0.7973 -0.3827
  135OSM   H12B14610   0.439   1.551   6.111  0.2560  0.0216 -1.0296
  135OSM    C1114611   0.289   1.683   6.205 -0.1463  0.1960  0.7174
  135OSM   H11A14612   0.345   1.659   6.298  0.8222  0.5223  0.2245
  135OSM   H11B14613   0.201   1.615   6.202  1.9183 -2.6201  0.1570
  135OSM      P14614   0.350   1.935   6.224  0.0822  0.4711 -0.1033
  135OSM    O1314615   0.490   1.886   6.203  0.0671 -0.3458  0.1732
  135OSM    O1414616   0.304   2.039   6.139  0.1565  0.0677  0.7030
  135OSM    O1114617   0.341   1.966   6.375  0.0982  0.4171 -0.2903
  135OSM    O1214618   0.244   1.817   6.205 -0.1970  0.3051 -0.0066
  135OSM    C1S14619   0.234   1.926   6.463  0.1142  0.2242 -0.0456
  135OSM    H1S14620   0.189   1.830   6.430 -0.0165 -0.0849  1.0206
  135OSM    H1T14621   0.141   1.986   6.453 -1.1699 -1.7144 -0.2891
  135OSM     NF14622   0.176   1.879   6.699 -0.5167 -0.2616 -0.2056
  135OSM    HNF14623   0.111   1.947   6.734 -1.1453 -1.2330  0.5689
  135OSM    C2S14624   0.285   1.916   6.612  0.2486 -0.6774 -0.1291
  135OSM    H2S14625   0.359   1.833   6.608  0.8386 -0.1326 -0.7263
  135OSM    C3S14626   0.356   2.049   6.653  0.8019  0.3165  0.6994
  135OSM    H3S14627   0.278   2.124   6.628 -0.9310 -2.1185 -1.8455
  135OSM     O314628   0.468   2.067   6.574 -0.4925  0.4986  0.2952
  135OSM    HO314629   0.450   2.006   6.501 -3.0715  1.8962 -0.3529
  135OSM    C4S14630   0.399   2.052   6.794 -0.6593  0.5370 -0.2787
  135OSM    H4S14631   0.413   1.950   6.834  0.9053  0.2183 -1.5369
  135OSM    C5S14632   0.402   2.159   6.875  0.1647 -0.0167  0.3168
  135OSM    H5S14633   0.371   2.255   6.831 -1.2053 -0.5819 -0.0019
  135OSM    C6S14634   0.449   2.167   7.021  0.4429  0.6060 -0.2447
  135OSM    H6S14635   0.392   2.244   7.076 -0.0615 -1.7337  2.7780
  135OSM    H6T14636   0.551   2.209   7.032 -0.3523  2.0406  2.6278
  135OSM    C7S14637   0.440   2.032   7.102  0.0875 -0.0530 -0.5425
  135OSM    H7S14638   0.501   1.952   7.054  0.8827  1.4297 -2.1250
  135OSM    H7T14639   0.331   2.012   7.108  0.0597  0.1315 -0.4374
  135OSM    C8S14640   0.487   2.036   7.249  0.4056 -0.5698  0.1381
  135OSM    H8S14641   0.419   2.108   7.298  1.8200  0.1898  1.0561
  135OSM    H8T14642   0.588   2.083   7.252 -0.9698  2.5928  1.2899
  135OSM    C9S14643   0.488   1.903   7.320 -0.5519 -0.1238 -0.2555
  135OSM    H9S14644   0.565   1.834   7.278 -0.2454 -0.3010  0.5616
  135OSM    H9T14645   0.393   1.850   7.296 -0.2336 -0.7788 -0.1126
  135OSM   C10S14646   0.508   1.923   7.470 -0.0364 -0.4699  0.4878
  135OSM   H10S14647   0.430   1.989   7.514 -2.4389 -1.3096 -2.1926
  135OSM   H10T14648   0.609   1.964   7.490 -0.2084 -0.6763  1.8846
  135OSM   C11S14649   0.508   1.782   7.546 -0.7371 -0.0386 -0.1935
  135OSM   H11S14650   0.562   1.708   7.484 -1.5490 -1.7462  1.0648
  135OSM   H11T14651   0.404   1.741   7.548 -0.3234 -1.0889  0.7407
  135OSM   C12S14652   0.571   1.781   7.680 -0.3475 -0.8331  0.1625
  135OSM   H12S14653   0.682   1.787   7.675 -0.4593  1.0401 -2.2965
  135OSM   H12T14654   0.548   1.682   7.725  2.9036 -0.7236  2.3519
  135OSM   C13S14655   0.514   1.888   7.783  0.3707 -0.2962  0.7742
  135OSM   H13S14656   0.404   1.880   7.793  0.1804  0.1327 -0.7494
  135OSM   H13T14657   0.543   1.986   7.742  0.0719 -0.1215  0.9731
  135OSM   C14S14658   0.578   1.867   7.914  0.4584  0.0078 -0.8301
  135OSM   H14S14659   0.552   1.951   7.982 -0.1952 -0.2632 -0.7290
  135OSM   H14T14660   0.689   1.860   7.916  0.5241  0.6368  1.6906
  135OSM   C15S14661   0.516   1.750   7.984 -0.2122  0.5261 -0.2820
  135OSM   H15S14662   0.536   1.659   7.923  0.1076  1.1815 -1.1667
  135OSM   H15T14663   0.405   1.751   7.987 -0.2236  2.9679  1.2088
  135OSM   C16S14664   0.546   1.724   8.133 -0.5804  0.2369 -0.1106
  135OSM   H16S14665   0.491   1.799   8.194 -1.3127 -0.7773  0.5014
  135OSM   H16T14666   0.654   1.738   8.154 -0.4290  1.9990 -1.7493
  135OSM   C17S14667   0.506   1.592   8.198  0.5827 -0.6474  0.3149
  135OSM   H17S14668   0.573   1.511   8.161  1.9087  0.3928  0.3784
  135OSM   H17T14669   0.403   1.579   8.158 -0.0340  1.4908  1.1243
  135OSM   C18S14670   0.494   1.590   8.351 -0.5624 -0.3371  0.3303
  135OSM   H18S14671   0.592   1.577   8.401 -0.0978  0.3064 -0.3938
  135OSM   H18T14672   0.428   1.509   8.389  0.1423 -1.1244 -0.1040
  135OSM   H18U14673   0.440   1.681   8.385 -0.3157  0.1814 -0.6435
  135OSM    C1F14674   0.132   1.750   6.702  0.4035 -0.0819 -0.4153
  135OSM     OF14675   0.207   1.664   6.669  0.1038  0.4382  0.4517
  135OSM    C2F14676  -0.009   1.727   6.745  0.1166 -1.1075 -0.6752
  135OSM    H2F14677  -0.072   1.685   6.664 -1.1873  0.2617 -0.4155
  135OSM    H2G14678  -0.060   1.821   6.776 -0.3217 -2.1305  1.9696
  135OSM    C3F14679  -0.026   1.642   6.876 -0.4988  0.3222  0.2616
  135OSM    H3F14680   0.022   1.542   6.866 -0.5400  0.4021 -0.9220
  135OSM    H3G14681  -0.132   1.637   6.907 -0.6691  2.9225  0.3333
  135OSM    C4F14682   0.048   1.712   6.990  0.0558  0.2275 -0.8617
  135OSM    H4F14683   0.017   1.818   6.981  4.0841  1.7276  0.7533
  135OSM    H4G14684   0.158   1.711   6.976  0.3974 -0.1661  1.4523
  135OSM    C5F14685   0.010   1.651   7.124 -0.3912 -0.4294 -0.1398
  135OSM    H5F14686   0.054   1.550   7.133  0.4532 -0.1961 -1.3650
  135OSM    H5G14687  -0.098   1.633   7.137 -0.3814  0.5949  1.8116
  135OSM    C6F14688   0.058   1.726   7.249  0.0045  0.3592  0.6852
  135OSM    H6F14689   0.015   1.828   7.242  1.4283  1.0798  1.8327
  135OSM    H6G14690   0.169   1.727   7.256  0.1394 -2.6991  0.5607
  135OSM    C7F14691   0.007   1.676   7.385 -0.0832 -0.4467 -0.0787
  135OSM    H7F14692  -0.101   1.654   7.372 -0.4864  1.4313 -0.1984
  135OSM    H7G14693   0.014   1.754   7.464 -0.4914 -1.4685  1.0046
  135OSM    C8F14694   0.087   1.551   7.429  0.0064 -0.5265  0.1617
  135OSM    H8F14695   0.193   1.584   7.433  0.0375 -0.7484  1.7250
  135OSM    H8G14696   0.076   1.481   7.344 -1.5827  0.8241 -0.8114
  135OSM    C9F14697   0.037   1.511   7.563 -0.8419  0.3478 -0.1957
  135OSM    H9F14698  -0.006   1.597   7.616 -0.9783 -0.7682  1.5525
  135OSM   C10F14699   0.018   1.386   7.611 -0.3437  0.0146 -0.3085
  135OSM   H10F14700  -0.026   1.384   7.712 -2.1733  1.5801 -1.0150
  135OSM   C11F14701   0.059   1.256   7.548  0.7968 -0.1429  0.4148
  135OSM   H11F14702   0.164   1.230   7.574  0.8551 -1.2231 -0.8062
  135OSM   H11G14703   0.052   1.267   7.437 -1.0727  0.4111  0.5464
  135OSM   C12F14704  -0.033   1.138   7.580 -0.9460  0.4672  0.3110
  135OSM   H12F14705  -0.002   1.053   7.516  0.2054  1.1698 -0.1001
  135OSM   H12G14706  -0.137   1.170   7.556 -1.0242 -1.6426 -2.6991
  135OSM   C13F14707  -0.031   1.099   7.726 -0.5530  0.3305 -0.7280
  135OSM   H13F14708  -0.065   1.185   7.787  1.1064 -0.3496  1.2821
  135OSM   H13G14709   0.076   1.087   7.753 -0.5101  1.8411 -0.1424
  135OSM   C14F14710  -0.116   0.970   7.757 -0.3019 -0.8908  0.4223
  135OSM   H14F14711  -0.074   0.884   7.701  0.3576 -0.1740 -0.1981
  135OSM   H14G14712  -0.216   0.991   7.713  0.0963  1.4050  0.4742
  135OSM   C15F14713  -0.140   0.937   7.910  0.1083  0.8092 -0.5768
  135OSM   H15F14714  -0.041   0.900   7.946 -1.2850  0.1768  3.0968
  135OSM   H15G14715  -0.209   0.852   7.924  0.8383  0.5606  2.2118
  135OSM   C16F14716  -0.196   1.053   7.997  0.8075 -0.2866  0.0162
  135OSM   H16F14717  -0.264   1.111   7.932  0.5420  0.1361  0.6553
  135OSM   H16G14718  -0.117   1.126   8.027  0.2004  1.2450 -1.9100
  135OSM   C17F14719  -0.266   0.998   8.119 -0.2115 -0.0465  0.2606
  135OSM   H17F14720  -0.178   0.963   8.177  0.5101 -0.7262 -1.1867
  135OSM   H17G14721  -0.336   0.916   8.093 -1.4965  1.3847 -0.9711
  135OSM   C18F14722  -0.331   1.100   8.200  0.1507 -1.0603 -0.5958
  135OSM   H18F14723  -0.272   1.190   8.226 -1.6673  0.1452 -0.4176
  135OSM   H18G14724  -0.353   1.063   8.302  0.4293  1.9475  0.6387
  135OSM   H18H14725  -0.433   1.129   8.168 -0.2354 -0.0041  1.4395
  136OSM      N14726   6.002   1.131   5.521  0.2025 -0.3531  0.0690
  136OSM    C1514727   6.045   1.271   5.545 -0.2982  0.2162  0.2652
  136OSM   H15A14728   5.970   1.342   5.577 -0.2724  0.0109  0.7958
  136OSM   H15B14729   6.088   1.307   5.453  0.0829 -2.2087 -0.5868
  136OSM   H15C14730   6.115   1.266   5.626 -1.7551  1.1608  1.6394
  136OSM    C1414731   5.892   1.129   5.426  0.6564 -0.3726 -0.1242
  136OSM   H14A14732   5.850   1.031   5.409  1.4081 -1.4159  3.2734
  136OSM   H14B14733   5.923   1.182   5.337 -0.6253  0.4512 -0.0932
  136OSM   H14C14734   5.807   1.186   5.459  0.3387 -0.0968 -1.3816
  136OSM    C1314735   6.112   1.058   5.457  0.0079  0.1417 -0.1012
  136OSM   H13A14736   6.180   1.033   5.537  0.8581  0.9695 -0.5529
  136OSM   H13B14737   6.183   1.103   5.389  2.5228 -1.8141  1.0727
  136OSM   H13C14738   6.070   0.965   5.422 -2.9489  0.5859  1.8916
  136OSM    C1214739   5.957   1.063   5.648  0.0057  0.2779 -0.1095
  136OSM   H12A14740   5.910   0.970   5.621  1.4300 -0.3756 -0.4312
  136OSM   H12B14741   5.887   1.128   5.698  2.4666  1.6827  1.7671
  136OSM    C1114742   6.071   1.040   5.749  0.2140 -0.2562  0.0880
  136OSM   H11A14743   6.150   0.972   5.712  0.1802 -0.2298 -0.0343
  136OSM   H11B14744   6.022   0.989   5.835  0.2035  2.3258  1.7205
  136OSM      P14745   6.241   1.180   5.870  0.1453 -0.0080  0.3487
  136OSM    O1314746   6.353   1.096   5.810  0.5583 -1.1822  0.4338
  136OSM    O1414747   6.272   1.325   5.884  0.4846 -0.3006 -0.1795
  136OSM    O1114748   6.198   1.124   6.015 -0.0087  0.3169  1.1018
  136OSM    O1214749   6.116   1.168   5.786  0.2380 -0.8091  0.0702
  136OSM    C1S14750   6.078   1.181   6.060 -0.2154 -0.4130 -0.1472
  136OSM    H1S14751   5.991   1.127   6.017 -0.6338  1.5462 -1.9504
  136OSM    H1T14752   6.071   1.288   6.032  1.5623 -1.0785 -3.5612
  136OSM     NF14753   5.937   1.214   6.265 -0.0285 -0.0721 -0.0142
  136OSM    HNF14754   5.916   1.296   6.317 -1.8523 -0.8163  0.5170
  136OSM    C2S14755   6.071   1.184   6.214 -0.3245  0.7006 -0.1898
  136OSM    H2S14756   6.098   1.083   6.253 -0.4317  1.5788  2.3696
  136OSM    C3S14757   6.176   1.279   6.270  0.0674 -0.9216 -0.3645
  136OSM    H3S14758   6.141   1.375   6.227 -1.2074 -0.6169  1.2703
  136OSM     O314759   6.313   1.259   6.228  0.1802 -0.4005  0.3669
  136OSM    HO314760   6.310   1.184   6.169  1.4187  1.7884 -2.7224
  136OSM    C4S14761   6.186   1.291   6.418 -0.7417  0.6390  0.4220
  136OSM    H4S14762   6.210   1.195   6.466 -0.6003 -0.1100 -1.0765
  136OSM    C5S14763   6.144   1.395   6.494 -0.2007 -0.0514  0.2079
  136OSM    H5S14764   6.098   1.485   6.450 -0.0486  0.3158  0.7853
  136OSM    C6S14765   6.165   1.394   6.645  0.4167 -0.4632  0.1998
  136OSM    H6S14766   6.216   1.487   6.678  0.6891 -0.5779  0.1080
  136OSM    H6T14767   6.227   1.306   6.673  0.3204 -1.9788 -3.6551
  136OSM    C7S14768   6.029   1.384   6.722  0.0119 -0.1724 -0.0037
  136OSM    H7S14769   5.989   1.282   6.702 -0.6578 -0.0849  0.8300
  136OSM    H7T14770   5.951   1.454   6.685  1.6871  1.3474 -0.7805
  136OSM    C8S14771   6.050   1.394   6.865 -0.3570  0.2047 -0.2999
  136OSM    H8S14772   6.155   1.363   6.885 -1.0433 -1.3676  1.0162
  136OSM    H8T14773   5.988   1.324   6.926 -0.0826 -0.4831 -0.7965
  136OSM    C9S14774   6.024   1.533   6.922 -0.0882 -1.0809 -0.1844
  136OSM    H9S14775   5.919   1.567   6.906  0.6005  0.8617 -0.9471
  136OSM    H9T14776   6.089   1.602   6.863 -0.6611  1.5864  2.0701
  136OSM   C10S14777   6.049   1.550   7.076  0.2156 -0.8213  0.0634
  136OSM   H10S14778   5.960   1.522   7.135 -0.1002 -2.0890 -0.9724
  136OSM   H10T14779   6.074   1.656   7.099  1.5581 -1.6582  2.9069
  136OSM   C11S14780   6.170   1.471   7.142 -0.0238  0.1765  0.2811
  136OSM   H11S14781   6.258   1.517   7.092  1.8079 -1.2009  2.0516
  136OSM   H11T14782   6.152   1.363   7.122 -1.2315  0.6210 -1.2339
  136OSM   C12S14783   6.175   1.501   7.295  0.0002  0.7034  0.0405
  136OSM   H12S14784   6.087   1.468   7.354 -0.0088  0.6403 -0.0078
  136OSM   H12T14785   6.161   1.610   7.309 -3.6845  0.2360  0.9396
  136OSM   C13S14786   6.304   1.454   7.360  0.4419  0.4539  0.3390
  136OSM   H13S14787   6.390   1.510   7.318  0.7131 -0.9478 -1.0850
  136OSM   H13T14788   6.315   1.346   7.336  1.0481  0.2927  1.2879
  136OSM   C14S14789   6.306   1.469   7.508 -0.1137 -0.8101  0.3439
  136OSM   H14S14790   6.317   1.578   7.527  0.7170 -0.7310 -0.5049
  136OSM   H14T14791   6.396   1.414   7.543  0.8226  0.6051  0.2050
  136OSM   C15S14792   6.184   1.398   7.575  0.2885  0.7118 -0.4953
  136OSM   H15S14793   6.183   1.299   7.523 -0.4036 -0.5523  1.7859
  136OSM   H15T14794   6.086   1.450   7.565 -1.0618 -1.7172 -0.6878
  136OSM   C16S14795   6.206   1.368   7.727  0.0141  0.2916  0.5486
  136OSM   H16S14796   6.215   1.469   7.770 -0.7446  0.2535  0.8031
  136OSM   H16T14797   6.296   1.304   7.744  0.0151  0.3339  0.7002
  136OSM   C17S14798   6.093   1.293   7.801  0.5052 -0.2020  0.9149
  136OSM   H17S14799   6.070   1.196   7.751 -0.7167  0.5908 -0.1574
  136OSM   H17T14800   5.998   1.351   7.796  1.2928  1.0098 -0.7741
  136OSM   C18S14801   6.146   1.261   7.941 -0.3104 -0.5557  0.1751
  136OSM   H18S14802   6.219   1.177   7.939 -0.0456 -0.3180 -0.2480
  136OSM   H18T14803   6.063   1.227   8.006  1.5971 -2.6630  1.6820
  136OSM   H18U14804   6.197   1.346   7.990 -0.4597 -0.6876  0.5613
  136OSM    C1F14805   5.826   1.133   6.249  0.1635  0.3912 -0.4757
  136OSM     OF14806   5.839   1.015   6.224 -0.3969  0.2451 -0.6704
  136OSM    C2F14807   5.685   1.192   6.279 -0.1062 -0.4164 -0.1876
  136OSM    H2F14808   5.661   1.271   6.205 -2.9563 -0.4354  0.6190
  136OSM    H2G14809   5.694   1.233   6.381  0.4358  1.5732 -0.9811
  136OSM    C3F14810   5.566   1.097   6.271  0.3945  0.0179  0.0164
  136OSM    H3F14811   5.582   1.012   6.341 -0.7361 -0.6711 -0.5376
  136OSM    H3G14812   5.566   1.059   6.166 -0.1162 -0.2385  0.1064
  136OSM    C4F14813   5.434   1.152   6.310 -0.3927 -0.3532  0.2470
  136OSM    H4F14814   5.426   1.145   6.421 -0.1335 -0.5995  0.2520
  136OSM    H4G14815   5.350   1.084   6.286 -2.0422  0.8968  2.1093
  136OSM    C5F14816   5.401   1.284   6.239 -0.1171 -0.5209 -0.4029
  136OSM    H5F14817   5.431   1.281   6.132  2.4315 -0.5457  0.2675
  136OSM    H5G14818   5.462   1.360   6.291 -0.6973 -1.8481  2.4172
  136OSM    C6F14819   5.261   1.338   6.275 -0.1191  0.0478  1.0195
  136OSM    H6F14820   5.188   1.257   6.253  0.6553 -0.4124  0.0601
  136OSM    H6G14821   5.233   1.428   6.217  0.4526 -0.4559 -0.0830
  136OSM    C7F14822   5.252   1.380   6.420 -0.1101 -0.0835 -0.0584
  136OSM    H7F14823   5.259   1.490   6.433 -0.6671 -0.0647  0.1087
  136OSM    H7G14824   5.348   1.346   6.467 -0.9814 -0.9914  1.1378
  136OSM    C8F14825   5.144   1.323   6.517 -0.1265 -0.1397  0.1461
  136OSM    H8F14826   5.046   1.363   6.482 -0.1353 -0.4798 -0.2268
  136OSM    H8G14827   5.163   1.371   6.616  0.6469 -0.5381  0.1978
  136OSM    C9F14828   5.123   1.174   6.525 -0.7338 -0.0125  0.0801
  136OSM    H9F14829   5.161   1.111   6.443 -1.9808  2.0670 -2.2367
  136OSM   C10F14830   5.066   1.108   6.633  0.0395 -0.0425  0.1838
  136OSM   H10F14831   5.057   0.999   6.624 -0.1552 -0.0238  0.1427
  136OSM   C11F14832   5.017   1.167   6.765  0.8859 -0.6983  0.0788
  136OSM   H11F14833   5.042   1.275   6.770 -0.2063 -0.4274 -0.1411
  136OSM   H11G14834   5.083   1.127   6.845  0.0952 -0.0145  1.1067
  136OSM   C12F14835   4.872   1.150   6.799 -0.1582 -0.1959 -0.7941
  136OSM   H12F14836   4.847   1.042   6.809  3.3556 -0.9873  1.3030
  136OSM   H12G14837   4.815   1.195   6.715  0.1321 -0.9117 -1.3929
  136OSM   C13F14838   4.829   1.229   6.926 -0.2915  0.1464  0.0608
  136OSM   H13F14839   4.719   1.241   6.916 -0.0109  3.5731 -0.1392
  136OSM   H13G14840   4.890   1.322   6.923  0.4955 -0.3207  0.9974
  136OSM   C14F14841   4.868   1.158   7.056  1.0963  0.5382 -0.5932
  136OSM   H14F14842   4.973   1.124   7.050  0.8122 -0.5606  0.4400
  136OSM   H14G14843   4.810   1.064   7.066  1.8228  0.0957 -0.5336
  136OSM   C15F14844   4.836   1.249   7.178 -0.9249 -0.4507  0.7345
  136OSM   H15F14845   4.730   1.283   7.172 -1.8087 -3.1950 -2.5952
  136OSM   H15G14846   4.901   1.339   7.175 -0.6149 -0.6780  0.4721
  136OSM   C16F14847   4.858   1.179   7.313  0.2636  0.3880  0.4448
  136OSM   H16F14848   4.961   1.135   7.316  0.0040 -0.2682 -0.1246
  136OSM   H16G14849   4.800   1.085   7.325 -1.6054  1.2486 -1.3672
  136OSM   C17F14850   4.823   1.258   7.435 -0.3018 -0.5231 -1.1090
  136OSM   H17F14851   4.714   1.264   7.450 -0.1963 -0.3511 -0.3853
  136OSM   H17G14852   4.872   1.358   7.425  0.2910 -0.8058 -1.1191
  136OSM   C18F14853   4.877   1.189   7.559  0.0173 -0.7726  0.6282
  136OSM   H18F14854   4.864   1.241   7.656 -0.4632  1.4800 -0.5802
  136OSM   H18G14855   4.986   1.170   7.545  0.3148  0.5671  1.0450
  136OSM   H18H14856   4.839   1.086   7.578 -1.1521 -0.1621  1.6851
  137OSM      N14857   6.389   5.866   5.863  0.2436 -0.0817 -0.0887
  137OSM    C1514858   6.537   5.861   5.852 -0.0608  0.3135  0.3381
  137OSM   H15A14859   6.586   5.956   5.836  0.8745 -0.1728  0.2653
  137OSM   H15B14860   6.563   5.809   5.761 -0.0694 -0.6551  0.8838
  137OSM   H15C14861   6.590   5.813   5.932  0.2672  0.5491  0.2653
  137OSM    C1414862   6.334   5.954   5.754  0.1048 -0.0903 -0.3855
  137OSM   H14A14863   6.226   5.952   5.757  0.0404 -0.2916 -1.8916
  137OSM   H14B14864   6.351   5.912   5.656  1.8789  0.4883 -0.3622
  137OSM   H14C14865   6.373   6.055   5.756 -2.8694  1.1943 -1.0063
  137OSM    C1314866   6.325   5.726   5.839  0.4188  0.2867  0.1308
  137OSM   H13A14867   6.363   5.673   5.754 -0.8257 -1.0610  0.3823
  137OSM   H13B14868   6.217   5.736   5.841  0.2332 -1.2423 -0.9204
  137OSM   H13C14869   6.347   5.664   5.924  0.0577  0.8981  0.6825
  137OSM    C1214870   6.352   5.930   5.999 -0.6246  0.2494 -0.7330
  137OSM   H12A14871   6.247   5.953   6.004 -0.6704 -0.1421  1.3514
  137OSM   H12B14872   6.410   6.021   6.004 -1.0738  0.5353 -0.6541
  137OSM    C1114873   6.374   5.859   6.136 -0.0217  0.4127 -0.6552
  137OSM   H11A14874   6.317   5.765   6.123 -0.1088  0.5565 -1.3863
  137OSM   H11B14875   6.320   5.905   6.221 -1.4215 -3.2646  0.6368
  137OSM      P14876   6.600   5.910   6.262  0.1570  0.3634  0.0324
  137OSM    O1314877   6.735   5.853   6.255  0.0835  0.5282 -0.6142
  137OSM    O1414878   6.584   6.052   6.227 -0.4924  0.4276 -0.3538
  137OSM    O1114879   6.530   5.893   6.404  0.2753  0.4048  0.0798
  137OSM    O1214880   6.510   5.827   6.165 -0.3010 -0.5475  0.0914
  137OSM    C1S14881   6.590   5.831   6.520 -0.1965 -0.0060 -0.3803
  137OSM    H1S14882   6.684   5.883   6.549 -0.3109  1.1978 -2.0506
  137OSM    H1T14883   6.612   5.723   6.506  1.6244  0.2633  0.1026
  137OSM     NF14884   6.565   5.805   6.775  0.3789  0.0208 -0.7951
  137OSM    HNF14885   6.565   5.713   6.812  0.9469  0.0621 -0.6759
  137OSM    C2S14886   6.496   5.836   6.651  0.0968  0.0337 -0.0675
  137OSM    H2S14887   6.468   5.944   6.657  1.4248  0.2960  3.0048
  137OSM    C3S14888   6.367   5.747   6.626  0.0350  0.5005 -0.1554
  137OSM    H3S14889   6.398   5.650   6.582 -1.2730  0.4234 -0.9839
  137OSM     O314890   6.284   5.810   6.530 -0.8612  0.1216 -0.2096
  137OSM    HO314891   6.349   5.873   6.498  0.9213 -0.7665  1.4947
  137OSM    C4S14892   6.289   5.728   6.755  0.0303 -0.0027 -0.4234
  137OSM    H4S14893   6.317   5.640   6.815 -0.3265  1.2407  1.6798
  137OSM    C5S14894   6.190   5.808   6.803 -0.4685  0.7563  0.2902
  137OSM    H5S14895   6.154   5.896   6.746 -1.8468  0.1393  0.1646
  137OSM    C6S14896   6.117   5.794   6.930 -0.5834 -0.7189  0.7267
  137OSM    H6S14897   6.124   5.687   6.960  1.6540 -0.9136 -0.2478
  137OSM    H6T14898   6.009   5.814   6.914 -0.4232  0.3362  0.8858
  137OSM    C7S14899   6.171   5.889   7.038  0.4512 -0.1912 -0.2401
  137OSM    H7S14900   6.095   5.882   7.118  1.6212  2.3915  1.2196
  137OSM    H7T14901   6.168   5.993   6.999  1.3552 -0.4524 -1.0691
  137OSM    C8S14902   6.311   5.853   7.078  0.2927 -0.4780  0.3248
  137OSM    H8S14903   6.357   5.924   7.150  0.2050 -1.0472  0.9550
  137OSM    H8T14904   6.372   5.868   6.986 -2.7286 -1.1263 -1.9337
  137OSM    C9S14905   6.324   5.713   7.140  0.2526 -0.2167 -0.7871
  137OSM    H9S14906   6.425   5.671   7.157  0.1160 -0.7221 -1.1998
  137OSM    H9T14907   6.278   5.638   7.072  0.0694 -0.9182  0.0846
  137OSM   C10S14908   6.243   5.698   7.267  0.0458 -0.2719 -0.4059
  137OSM   H10S14909   6.241   5.599   7.316 -1.0323 -0.2067 -0.2937
  137OSM   H10T14910   6.137   5.715   7.238  0.0702  1.1279  0.2504
  137OSM   C11S14911   6.272   5.809   7.367 -0.6022  1.2977  1.1625
  137OSM   H11S14912   6.235   5.904   7.323  2.5963  0.8956 -3.0755
  137OSM   H11T14913   6.383   5.808   7.381 -0.2569 -1.1726 -0.9905
  137OSM   C12S14914   6.198   5.769   7.497 -0.1956 -0.2492  0.3746
  137OSM   H12S14915   6.254   5.677   7.527 -1.1533 -1.3250 -1.0049
  137OSM   H12T14916   6.089   5.745   7.492 -0.5755  1.3986  0.2160
  137OSM   C13S14917   6.212   5.874   7.596 -0.0681 -0.1017  0.0790
  137OSM   H13S14918   6.191   5.982   7.579 -0.5952  0.1067  1.8281
  137OSM   H13T14919   6.318   5.870   7.630  0.6191  2.6660 -1.3869
  137OSM   C14S14920   6.133   5.855   7.728 -0.3270 -0.2836  0.6233
  137OSM   H14S14921   6.150   5.753   7.770 -0.7451 -0.5591  0.1196
  137OSM   H14T14922   6.025   5.851   7.705 -1.1069 -0.5042  3.8633
  137OSM   C15S14923   6.163   5.958   7.835 -0.4103 -0.3175  0.3365
  137OSM   H15S14924   6.155   6.058   7.787 -0.2199 -0.1885  0.5692
  137OSM   H15T14925   6.269   5.948   7.867  0.6487  2.4913 -1.9019
  137OSM   C16S14926   6.082   5.960   7.965  0.0584  1.0038 -0.3801
  137OSM   H16S14927   6.115   5.881   8.036  0.7795  2.5093  1.0454
  137OSM   H16T14928   5.975   5.953   7.937  0.5200  1.7712 -2.5500
  137OSM   C17S14929   6.086   6.098   8.039 -0.2124  0.7294  0.0320
  137OSM   H17S14930   5.999   6.124   8.103 -0.3656  2.4975 -0.8365
  137OSM   H17T14931   6.062   6.172   7.960 -0.9913 -1.2872 -1.7102
  137OSM   C18S14932   6.218   6.136   8.104 -0.0561 -0.4824  0.1152
  137OSM   H18S14933   6.299   6.111   8.031  0.3067 -0.9572  0.6672
  137OSM   H18T14934   6.220   6.066   8.191 -0.5758 -0.7843 -0.1073
  137OSM   H18U14935   6.216   6.243   8.133  0.2815 -0.4762  0.1215
  137OSM    C1F14936   6.657   5.884   6.824 -0.3044  1.0706 -0.1597
  137OSM     OF14937   6.677   5.993   6.779  0.0718 -0.2470  0.3443
  137OSM    C2F14938   6.739   5.821   6.938 -0.4564  0.1037  0.4734
  137OSM    H2F14939   6.765   5.719   6.902 -1.2487  0.1515 -0.2855
  137OSM    H2G14940   6.672   5.810   7.026  0.8823 -0.1030  1.4928
  137OSM    C3F14941   6.871   5.899   6.978 -0.0879  0.3365  0.4809
  137OSM    H3F14942   6.829   6.001   6.989  1.0688  0.9338 -0.3732
  137OSM    H3G14943   6.933   5.905   6.886  0.3801 -1.3966  0.6519
  137OSM    C4F14944   6.947   5.850   7.093  0.4089 -0.6760  0.1223
  137OSM    H4F14945   7.028   5.918   7.128  0.8349 -1.4307  0.6260
  137OSM    H4G14946   6.984   5.747   7.074 -1.0585 -1.2430  0.2105
  137OSM    C5F14947   6.859   5.829   7.221 -0.8532 -0.5588  0.2480
  137OSM    H5F14948   6.780   5.757   7.188  1.1702 -2.0347 -1.6562
  137OSM    H5G14949   6.825   5.926   7.263  0.6856  1.0052 -1.8926
  137OSM    C6F14950   6.944   5.767   7.336 -1.2069 -0.3037 -0.6403
  137OSM    H6F14951   7.010   5.852   7.367 -3.2382  0.9199  0.5353
  137OSM    H6G14952   7.010   5.687   7.296  1.2098  1.1546  0.2234
  137OSM    C7F14953   6.866   5.713   7.453 -0.6416  0.9338  0.3520
  137OSM    H7F14954   6.785   5.650   7.411  2.1149 -2.7378  0.0129
  137OSM    H7G14955   6.817   5.794   7.511  2.5313  1.0019  3.2879
  137OSM    C8F14956   6.955   5.636   7.558 -0.0625 -0.8092 -0.1585
  137OSM    H8F14957   7.016   5.721   7.596  1.7363  0.4869 -5.1723
  137OSM    H8G14958   7.035   5.574   7.512  1.2990  1.7370 -1.4192
  137OSM    C9F14959   6.881   5.556   7.662 -0.2761  0.3493 -0.1702
  137OSM    H9F14960   6.833   5.462   7.630 -0.5920  0.1114  0.9205
  137OSM   C10F14961   6.870   5.596   7.793  0.0671  0.6152  0.4110
  137OSM   H10F14962   6.810   5.538   7.865 -1.9471  4.0545  1.7379
  137OSM   C11F14963   6.921   5.725   7.844  0.0097 -0.3332  0.0010
  137OSM   H11F14964   6.911   5.805   7.768  0.2687  0.2619  0.5827
  137OSM   H11G14965   7.029   5.713   7.867 -0.1136 -4.4941 -0.8253
  137OSM   C12F14966   6.840   5.770   7.967  0.3056  0.3692  0.0719
  137OSM   H12F14967   6.730   5.778   7.954 -0.0046 -2.4504  0.2062
  137OSM   H12G14968   6.897   5.860   7.997 -0.1302  0.1820  1.5166
  137OSM   C13F14969   6.859   5.675   8.083  0.4028 -0.4442  0.0882
  137OSM   H13F14970   6.967   5.687   8.110  0.4800  1.6245 -0.9101
  137OSM   H13G14971   6.838   5.567   8.068 -0.3205 -0.4856  1.3061
  137OSM   C14F14972   6.779   5.722   8.207 -0.4887 -0.7471 -0.1369
  137OSM   H14F14973   6.672   5.706   8.183 -0.9098 -0.3411  1.4220
  137OSM   H14G14974   6.800   5.829   8.228 -1.5291 -0.0752 -2.2459
  137OSM   C15F14975   6.812   5.650   8.342  0.4294 -0.7844  0.5581
  137OSM   H15F14976   6.921   5.635   8.356  0.2657 -2.2121  0.4040
  137OSM   H15G14977   6.764   5.550   8.337 -2.5824  0.5759 -3.5850
  137OSM   C16F14978   6.760   5.728   8.461  0.0376  0.0480  0.1625
  137OSM   H16F14979   6.651   5.746   8.449 -0.1061 -0.4588  0.6552
  137OSM   H16G14980   6.814   5.825   8.470 -0.3858  0.2291  0.7858
  137OSM   C17F14981   6.765   5.660   8.599  0.1312  0.6635  0.2428
  137OSM   H17F14982   6.693   5.718   8.661 -0.2354  2.0225 -1.3785
  137OSM   H17G14983   6.869   5.657   8.637 -0.4790 -0.5248  1.9706
  137OSM   C18F14984   6.686   5.526   8.608 -0.1833  0.3067 -0.1677
  137OSM   H18F14985   6.586   5.526   8.560  0.3729 -1.1700 -1.4245
  137OSM   H18G14986   6.667   5.491   8.712 -1.3362 -2.7016 -1.2693
  137OSM   H18H14987   6.735   5.438   8.561 -2.7627 -0.6849 -1.2268
  138OSM      N14988   1.324   1.957   5.843  0.4346 -0.0313  0.0527
  138OSM    C1514989   1.219   1.865   5.785  0.6449 -0.0251  0.4532
  138OSM   H15A14990   1.187   1.908   5.691 -0.8318  0.0459  0.9570
  138OSM   H15B14991   1.123   1.862   5.834 -0.3984 -1.4690 -1.5497
  138OSM   H15C14992   1.262   1.766   5.784 -0.5550 -0.5627  0.7174
  138OSM    C1414993   1.442   1.967   5.763 -0.6078  0.5731 -0.5450
  138OSM   H14A14994   1.511   2.031   5.816  0.1568 -1.0194  0.4516
  138OSM   H14B14995   1.425   2.021   5.671 -1.2735 -1.2461 -1.5471
  138OSM   H14C14996   1.500   1.876   5.755 -1.3072 -0.2974  2.9608
  138OSM    C1314997   1.269   2.094   5.861 -0.5097 -0.4503  0.7672
  138OSM   H13A14998   1.338   2.160   5.911  1.6965 -0.4202 -2.0114
  138OSM   H13B14999   1.172   2.097   5.907  0.1506 -1.4270  2.2909
  138OSM   H13C15000   1.265   2.152   5.769 -0.7041  0.6454  1.4513
  138OSM    C1215001   1.358   1.899   5.979  0.4454  0.4710  0.4080
  138OSM   H12A15002   1.397   1.798   5.971  0.7809  0.3381  2.9436
  138OSM   H12B15003   1.269   1.894   6.040 -1.2187  1.2475 -1.8242
  138OSM    C1115004   1.446   1.982   6.066 -0.1691 -0.3065 -0.8767
  138OSM   H11A15005   1.445   1.925   6.162 -0.3844  1.5206  0.2617
  138OSM   H11B15006   1.404   2.080   6.097 -2.1325 -1.5571  0.7201
  138OSM      P15007   1.692   2.085   6.070 -0.0862  0.0089  0.2082
  138OSM    O1315008   1.800   2.101   5.974  0.8948 -0.4811 -0.1166
  138OSM    O1415009   1.633   2.212   6.127  0.1756  0.2309  0.0656
  138OSM    O1115010   1.757   2.016   6.198 -0.5662 -0.0126 -0.7384
  138OSM    O1215011   1.576   1.986   6.022 -0.1944  0.3278  0.1288
  138OSM    C1S15012   1.761   1.877   6.234 -0.1002  0.1826 -0.0825
  138OSM    H1S15013   1.814   1.818   6.156 -1.7275  1.6613 -2.4599
  138OSM    H1T15014   1.655   1.845   6.230  0.1751 -0.7830  0.2751
  138OSM     NF15015   1.828   1.710   6.390 -0.4924  0.2764 -0.3207
  138OSM    HNF15016   1.749   1.662   6.429 -1.0232  0.3090 -1.3324
  138OSM    C2S15017   1.812   1.852   6.372 -0.1378  0.5546 -0.5242
  138OSM    H2S15018   1.910   1.904   6.370 -0.7735  1.9302  1.4099
  138OSM    C3S15019   1.730   1.922   6.478  0.8077  0.5883  0.2564
  138OSM    H3S15020   1.624   1.891   6.467  0.1955  0.9852  3.7980
  138OSM     O315021   1.733   2.065   6.482 -0.0880 -0.5926 -0.1344
  138OSM    HO315022   1.799   2.093   6.418 -0.3725 -2.7444 -1.4623
  138OSM    C4S15023   1.764   1.869   6.617  1.1646 -0.2554  0.2823
  138OSM    H4S15024   1.684   1.801   6.649  1.3011 -0.0981  0.9585
  138OSM    C5S15025   1.867   1.902   6.700  0.3495  0.6735 -0.0398
  138OSM    H5S15026   1.948   1.965   6.660  0.1554  0.9781  0.0371
  138OSM    C6S15027   1.904   1.848   6.834 -0.3927  0.2379 -0.3775
  138OSM    H6S15028   1.855   1.920   6.903 -0.4915 -0.0431 -0.1480
  138OSM    H6T15029   2.013   1.857   6.853 -0.5152  0.9019  0.0422
  138OSM    C7S15030   1.856   1.705   6.860  0.4535  0.0578  0.8530
  138OSM    H7S15031   1.894   1.646   6.775  1.6599 -0.5966  1.8093
  138OSM    H7T15032   1.747   1.686   6.868  0.4974 -0.7281 -0.2904
  138OSM    C8S15033   1.906   1.657   6.998 -0.0064  0.2156  0.1368
  138OSM    H8S15034   2.017   1.651   6.988 -0.1637 -1.4100 -0.9660
  138OSM    H8T15035   1.864   1.555   7.009  0.7431 -0.3026 -1.4653
  138OSM    C9S15036   1.870   1.748   7.119 -0.0237  0.3566 -0.6487
  138OSM    H9S15037   1.764   1.779   7.126 -0.8780 -1.4949 -3.7002
  138OSM    H9T15038   1.922   1.844   7.096  0.6815  0.7860  2.3434
  138OSM   C10S15039   1.913   1.699   7.257 -0.3906 -0.0658  0.2684
  138OSM   H10S15040   2.024   1.693   7.263 -0.2414  0.2403 -1.5705
  138OSM   H10T15041   1.879   1.597   7.283  1.8430 -0.2721  2.9431
  138OSM   C11S15042   1.895   1.802   7.375 -0.0795  0.0576  0.5195
  138OSM   H11S15043   1.788   1.811   7.400  0.1898  0.5759  1.5426
  138OSM   H11T15044   1.921   1.900   7.330  0.6923  0.6858  2.2561
  138OSM   C12S15045   1.984   1.772   7.503 -0.5621 -0.6353 -0.5256
  138OSM   H12S15046   2.090   1.790   7.473 -0.9296 -0.7755 -1.9630
  138OSM   H12T15047   1.983   1.664   7.528  0.5971 -0.9885 -1.8811
  138OSM   C13S15048   1.936   1.864   7.623  0.7245 -0.7162  0.3962
  138OSM   H13S15049   1.826   1.852   7.615  0.9130 -1.7772 -0.8870
  138OSM   H13T15050   1.973   1.961   7.585  2.6730 -1.1239  1.1268
  138OSM   C14S15051   1.996   1.846   7.757  0.8140 -0.5080 -0.7619
  138OSM   H14S15052   1.990   1.942   7.812 -1.8040 -1.9079  1.6897
  138OSM   H14T15053   2.104   1.825   7.745  0.9324  0.2817 -1.1252
  138OSM   C15S15054   1.933   1.734   7.836 -0.3213  0.1354  0.3257
  138OSM   H15S15055   1.959   1.643   7.779 -2.3415  0.9702 -2.1174
  138OSM   H15T15056   1.823   1.743   7.852 -0.0568  0.6822  2.0843
  138OSM   C16S15057   1.984   1.710   7.980 -0.2074  0.1657 -0.5037
  138OSM   H16S15058   1.973   1.812   8.024 -0.2041  0.2841 -0.7766
  138OSM   H16T15059   2.090   1.681   7.994 -0.1543  0.1361 -0.9616
  138OSM   C17S15060   1.897   1.606   8.061 -0.5823  0.1377  0.3058
  138OSM   H17S15061   1.789   1.628   8.053 -1.6941 -4.2078  1.1870
  138OSM   H17T15062   1.926   1.613   8.168 -1.2203  0.3148  0.4700
  138OSM   C18S15063   1.895   1.456   8.010  0.2851 -0.2500  0.2204
  138OSM   H18S15064   1.998   1.418   8.026  1.3254  2.9119  1.8677
  138OSM   H18T15065   1.873   1.445   7.901  0.7775 -0.8092  0.1771
  138OSM   H18U15066   1.811   1.399   8.056 -2.1345  0.6238 -2.7457
  138OSM    C1F15067   1.928   1.645   6.325 -0.1236 -0.0705  0.7420
  138OSM     OF15068   2.020   1.710   6.269  0.4227  0.0437  0.2796
  138OSM    C2F15069   1.913   1.492   6.317 -0.6460 -0.5322 -0.3252
  138OSM    H2F15070   1.876   1.478   6.213 -1.9242  0.7188 -0.0796
  138OSM    H2G15071   1.834   1.473   6.393 -0.9077  1.8847  0.0777
  138OSM    C3F15072   2.045   1.410   6.331 -0.0830  0.6918  0.3217
  138OSM    H3F15073   2.106   1.436   6.242 -1.1929 -0.6449 -0.8686
  138OSM    H3G15074   2.011   1.305   6.321  0.9025  0.4883 -1.1517
  138OSM    C4F15075   2.130   1.429   6.454 -0.0088 -0.0729  0.7021
  138OSM    H4F15076   2.184   1.525   6.444  0.3379 -0.2327  1.0101
  138OSM    H4G15077   2.204   1.345   6.456 -1.5756 -1.5494 -0.1678
  138OSM    C5F15078   2.043   1.420   6.581 -0.3358  0.1896 -0.3691
  138OSM    H5F15079   1.986   1.325   6.585 -0.2760  0.1892  0.9895
  138OSM    H5G15080   1.979   1.510   6.589  1.9810  1.9105 -0.1555
  138OSM    C6F15081   2.141   1.419   6.707 -0.3181 -0.1363  0.4782
  138OSM    H6F15082   2.206   1.509   6.707 -2.1998  1.3009 -0.8894
  138OSM    H6G15083   2.215   1.338   6.689  0.1724 -0.1000  2.0856
  138OSM    C7F15084   2.079   1.389   6.843  0.3587  0.3178 -0.0750
  138OSM    H7F15085   2.019   1.299   6.817 -1.1939  1.9564 -2.6488
  138OSM    H7G15086   2.011   1.474   6.865  2.1107  1.5537  0.8264
  138OSM    C8F15087   2.180   1.361   6.953  0.2370 -0.5736 -0.5354
  138OSM    H8F15088   2.233   1.456   6.974  1.1891 -1.2037 -0.0082
  138OSM    H8G15089   2.265   1.292   6.932  0.0544 -0.5859 -1.2551
  138OSM    C9F15090   2.112   1.327   7.080 -0.5567 -0.4511 -0.5065
  138OSM    H9F15091   2.047   1.407   7.118 -0.3754 -0.1670 -0.7967
  138OSM   C10F15092   2.130   1.224   7.171  0.2593  0.2032  0.1773
  138OSM   H10F15093   2.063   1.215   7.258  0.2190  0.1189  0.1376
  138OSM   C11F15094   2.237   1.118   7.155 -0.4432 -0.0509 -0.5099
  138OSM   H11F15095   2.278   1.124   7.052  0.0716  2.4313 -0.2234
  138OSM   H11G15096   2.188   1.018   7.159  1.2413 -0.9036 -0.3684
  138OSM   C12F15097   2.334   1.138   7.268 -0.6289 -0.1821 -0.4194
  138OSM   H12F15098   2.274   1.122   7.360  0.4979 -0.2963  0.3078
  138OSM   H12G15099   2.367   1.244   7.269  0.1184 -0.4096 -0.7133
  138OSM   C13F15100   2.463   1.045   7.272 -0.2117 -0.5529  0.0859
  138OSM   H13F15101   2.530   1.077   7.190 -1.7636  0.8449 -0.6878
  138OSM   H13G15102   2.433   0.938   7.258 -0.8668 -0.5386  1.2396
  138OSM   C14F15103   2.532   1.046   7.409 -0.4995  0.3639 -0.5077
  138OSM   H14F15104   2.585   1.141   7.426  0.5702 -0.2541 -0.2891
  138OSM   H14G15105   2.614   0.972   7.402  0.4546  1.2252  1.2186
  138OSM   C15F15106   2.446   1.001   7.531 -0.2374 -0.0105 -0.2171
  138OSM   H15F15107   2.387   0.909   7.511  0.2240 -0.1518 -0.9706
  138OSM   H15G15108   2.371   1.079   7.558 -0.2182 -0.2740  0.6395
  138OSM   C16F15109   2.531   0.969   7.653 -0.2159  0.7102  0.2731
  138OSM   H16F15110   2.585   1.065   7.671  0.8788  0.6346 -2.2122
  138OSM   H16G15111   2.604   0.889   7.630  0.5599  0.6864  2.5368
  138OSM   C17F15112   2.466   0.910   7.782 -0.3624 -0.0823 -0.0167
  138OSM   H17F15113   2.416   0.815   7.755 -0.8069  0.3374 -0.7024
  138OSM   H17G15114   2.396   0.980   7.833 -0.8178  0.2757 -1.1033
  138OSM   C18F15115   2.576   0.887   7.890  0.8998  0.4002  0.1648
  138OSM   H18F15116   2.659   0.829   7.845  0.6698 -0.7340  1.1555
  138OSM   H18G15117   2.534   0.822   7.970  1.0122  0.6130  0.3973
  138OSM   H18H15118   2.627   0.980   7.925 -2.6368  1.6418  2.6367
  139OSM      N15119   1.690   3.723   5.929  0.4849 -0.1680 -0.8450
  139OSM    C1515120   1.578   3.662   5.850 -0.3704 -0.8366 -0.4106
  139OSM   H15A15121   1.500   3.737   5.846  1.2790  1.0219  0.7083
  139OSM   H15B15122   1.542   3.567   5.889  0.3355 -0.0991  2.2351
  139OSM   H15C15123   1.610   3.658   5.747  1.7434  2.4027 -0.0247
  139OSM    C1415124   1.814   3.658   5.889 -1.0345  0.7071 -0.6071
  139OSM   H14A15125   1.898   3.699   5.943  0.2811 -1.7921 -0.6058
  139OSM   H14B15126   1.824   3.664   5.782 -0.0206 -1.9125 -0.7368
  139OSM   H14C15127   1.812   3.554   5.917 -0.8487  1.3057  1.8277
  139OSM    C1315128   1.692   3.866   5.894 -0.4532  0.2762 -1.1067
  139OSM   H13A15129   1.771   3.917   5.949 -1.4954 -0.2939  1.0311
  139OSM   H13B15130   1.599   3.911   5.924 -0.6084 -0.4606 -0.4615
  139OSM   H13C15131   1.689   3.883   5.788  0.4447  0.1450 -1.1670
  139OSM    C1215132   1.666   3.711   6.084 -0.0778  0.0785 -0.2183
  139OSM   H12A15133   1.721   3.622   6.113 -0.4328  0.2062  0.8472
  139OSM   H12B15134   1.559   3.699   6.091 -0.3964  2.4289 -0.2571
  139OSM    C1115135   1.734   3.820   6.169 -0.1388  0.4457  0.9251
  139OSM   H11A15136   1.712   3.799   6.276 -1.7925  0.4421  0.6019
  139OSM   H11B15137   1.699   3.920   6.136  3.1499  1.0740 -1.1844
  139OSM      P15138   1.963   3.710   6.216 -0.0273 -0.2366  0.2911
  139OSM    O1315139   1.919   3.572   6.174 -0.1073  0.0476 -0.0682
  139OSM    O1415140   2.107   3.740   6.198 -0.1519  0.5311  0.0210
  139OSM    O1115141   1.929   3.740   6.366  0.2538  0.3795 -0.6071
  139OSM    O1215142   1.877   3.821   6.136 -0.2252  0.5368 -0.1626
  139OSM    C1S15143   1.975   3.860   6.429  0.1479  0.5058 -0.0018
  139OSM    H1S15144   1.958   3.948   6.363 -0.8759 -1.0581 -1.9491
  139OSM    H1T15145   2.082   3.859   6.456  0.1887  0.8002 -0.1562
  139OSM     NF15146   1.916   4.034   6.601  0.7513  0.8672  0.4674
  139OSM    HNF15147   1.991   4.047   6.665  0.7589 -2.2826  1.2718
  139OSM    C2S15148   1.896   3.890   6.565 -0.5360  0.4254 -0.1572
  139OSM    H2S15149   1.788   3.867   6.552  0.0251 -1.3165 -2.5595
  139OSM    C3S15150   1.942   3.793   6.671 -0.4069  0.2833  0.3536
  139OSM    H3S15151   2.052   3.804   6.686 -0.4545 -0.5120  1.4336
  139OSM     O315152   1.921   3.661   6.627  0.4231  1.0475 -0.0727
  139OSM    HO315153   1.907   3.663   6.532 -0.1833  0.8711  0.0033
  139OSM    C4S15154   1.865   3.823   6.802  0.0106 -0.1020 -0.6277
  139OSM    H4S15155   1.779   3.891   6.793 -0.5307 -0.9721 -2.4142
  139OSM    C5S15156   1.901   3.782   6.925 -0.2138 -0.1361 -0.2504
  139OSM    H5S15157   1.990   3.718   6.937 -0.7101 -0.9481 -0.8062
  139OSM    C6S15158   1.820   3.826   7.050 -0.1942 -0.0865 -0.1050
  139OSM    H6S15159   1.802   3.735   7.111  1.1890 -0.8126 -0.7323
  139OSM    H6T15160   1.721   3.867   7.022 -0.1777  0.8924  1.1666
  139OSM    C7S15161   1.878   3.941   7.128 -0.2677 -0.0897  0.1001
  139OSM    H7S15162   1.886   4.019   7.050  0.6907 -0.4525 -0.1850
  139OSM    H7T15163   1.980   3.915   7.166 -0.7557 -0.9716  0.8433
  139OSM    C8S15164   1.788   3.991   7.240 -0.0510 -0.2281 -0.3921
  139OSM    H8S15165   1.687   4.000   7.194 -0.1834  0.6833  0.0579
  139OSM    H8T15166   1.802   4.096   7.271 -1.5783 -0.9468  3.2927
  139OSM    C9S15167   1.774   3.906   7.371 -0.4283  1.1002 -0.8765
  139OSM    H9S15168   1.858   3.926   7.440  0.5379 -0.4206 -1.5600
  139OSM    H9T15169   1.789   3.805   7.327 -0.5154  0.2781  0.8869
  139OSM   C10S15170   1.631   3.904   7.432 -0.2909  0.2816  0.2458
  139OSM   H10S15171   1.628   3.811   7.493 -1.1340  1.1271  1.5556
  139OSM   H10T15172   1.557   3.910   7.350 -2.9332  0.8863  2.5541
  139OSM   C11S15173   1.594   4.025   7.525  0.7370  0.0480  0.0710
  139OSM   H11S15174   1.488   4.009   7.556  1.0916  0.3035  1.4609
  139OSM   H11T15175   1.600   4.113   7.458 -2.7237 -0.9208 -1.7910
  139OSM   C12S15176   1.681   4.042   7.650 -0.5501  0.3249 -0.2412
  139OSM   H12S15177   1.775   4.082   7.606 -1.7795  2.4477 -1.1135
  139OSM   H12T15178   1.695   3.944   7.699 -1.3362  0.4139  0.1749
  139OSM   C13S15179   1.642   4.148   7.762 -0.7008  0.9094  0.5681
  139OSM   H13S15180   1.597   4.234   7.709 -1.2106  0.1292 -0.3074
  139OSM   H13T15181   1.729   4.177   7.825 -0.4943 -0.3541  0.9072
  139OSM   C14S15182   1.534   4.088   7.854  0.0233  0.1307  0.3611
  139OSM   H14S15183   1.569   4.000   7.911  1.7599  0.7489  0.3112
  139OSM   H14T15184   1.456   4.037   7.794  1.2830 -1.5791  0.1111
  139OSM   C15S15185   1.479   4.195   7.952  0.8199  0.0145  0.2542
  139OSM   H15S15186   1.422   4.271   7.894  1.5994  0.5072  0.1246
  139OSM   H15T15187   1.565   4.250   7.996  0.6848  0.0492  0.4781
  139OSM   C16S15188   1.395   4.139   8.070  0.3150  0.2747 -0.0567
  139OSM   H16S15189   1.447   4.057   8.124 -1.4003 -0.6753  0.2392
  139OSM   H16T15190   1.299   4.104   8.027  0.5383  2.0488 -2.1822
  139OSM   C17S15191   1.362   4.250   8.162 -0.5312  0.1061  0.3254
  139OSM   H17S15192   1.314   4.330   8.101 -1.6268  0.2318  1.3129
  139OSM   H17T15193   1.456   4.285   8.211 -0.7576 -0.8832  1.5327
  139OSM   C18S15194   1.268   4.216   8.271 -0.2435  0.1269 -0.0569
  139OSM   H18S15195   1.255   4.301   8.341 -2.0806  1.3933 -1.8620
  139OSM   H18T15196   1.303   4.129   8.331 -2.0004 -0.3337  0.3337
  139OSM   H18U15197   1.166   4.188   8.240 -0.8901  0.8981  1.2803
  139OSM    C1F15198   1.847   4.124   6.538  0.6548 -0.0042  0.0167
  139OSM     OF15199   1.763   4.095   6.458 -0.0722 -0.1033 -0.1047
  139OSM    C2F15200   1.875   4.264   6.564 -0.2972 -0.3378  0.0014
  139OSM    H2F15201   1.885   4.317   6.467 -0.3201 -2.7948 -1.4290
  139OSM    H2G15202   1.966   4.281   6.626  0.5700  1.1676 -1.6013
  139OSM    C3F15203   1.757   4.340   6.635  0.1313  0.3730  0.0072
  139OSM    H3F15204   1.657   4.305   6.602  0.6514 -2.0668  0.7692
  139OSM    H3G15205   1.771   4.450   6.632  0.6045  0.3807  1.5330
  139OSM    C4F15206   1.752   4.326   6.788  0.4570  0.3757 -0.4020
  139OSM    H4F15207   1.856   4.321   6.827  0.9982 -0.2019 -1.8220
  139OSM    H4G15208   1.706   4.227   6.806 -0.7461  0.8474 -0.8236
  139OSM    C5F15209   1.678   4.436   6.864  0.1178  0.4246  0.0400
  139OSM    H5F15210   1.578   4.455   6.819 -0.6759 -1.0959  1.0928
  139OSM    H5G15211   1.741   4.527   6.860 -1.3638  1.4794  0.0552
  139OSM    C6F15212   1.676   4.391   7.012  0.3050  0.2590  0.1530
  139OSM    H6F15213   1.684   4.481   7.077 -0.5550  2.7973 -2.9857
  139OSM    H6G15214   1.766   4.332   7.036  0.8077  1.2237  0.7104
  139OSM    C7F15215   1.554   4.298   7.042  0.4361 -0.0100  0.2090
  139OSM    H7F15216   1.563   4.200   6.991  0.2509  0.9691 -1.8131
  139OSM    H7G15217   1.471   4.345   6.985 -0.0932 -1.8934 -0.6628
  139OSM    C8F15218   1.510   4.286   7.194  0.0647 -0.7172 -0.0053
  139OSM    H8F15219   1.600   4.270   7.257  0.6961  1.0392 -0.3970
  139OSM    H8G15220   1.443   4.201   7.218 -0.4093 -0.9356 -1.9839
  139OSM    C9F15221   1.449   4.415   7.257 -0.5641  0.1731  0.0052
  139OSM    H9F15222   1.500   4.507   7.227  0.3705  0.0166  1.0784
  139OSM   C10F15223   1.344   4.426   7.344  0.2464  0.2286  0.7520
  139OSM   H10F15224   1.313   4.524   7.383 -1.0626 -0.7428  2.2728
  139OSM   C11F15225   1.264   4.312   7.397 -0.0896  0.2370 -0.2329
  139OSM   H11F15226   1.307   4.215   7.365  1.3533  0.6300  0.3934
  139OSM   H11G15227   1.165   4.326   7.348  1.0787 -0.2145 -2.8701
  139OSM   C12F15228   1.250   4.302   7.550 -0.3655 -0.2891 -0.0030
  139OSM   H12F15229   1.342   4.288   7.610 -1.9845  0.4431  2.8233
  139OSM   H12G15230   1.203   4.204   7.577 -1.9310  0.9822  2.2371
  139OSM   C13F15231   1.146   4.393   7.620  0.6335  0.2802 -0.2382
  139OSM   H13F15232   1.050   4.423   7.571  0.3241 -1.2640 -0.6306
  139OSM   H13G15233   1.204   4.487   7.628  1.7548  0.0160 -3.5519
  139OSM   C14F15234   1.110   4.342   7.757  0.3110  0.6708 -0.2630
  139OSM   H14F15235   1.210   4.314   7.794  1.0186  2.0567 -1.0332
  139OSM   H14G15236   1.051   4.248   7.746  0.2250  0.6715  0.1990
  139OSM   C15F15237   1.016   4.443   7.839 -0.1939  0.1169 -0.3218
  139OSM   H15F15238   0.914   4.401   7.852  0.7197 -1.7188  1.7225
  139OSM   H15G15239   1.011   4.547   7.801 -0.6063  1.4682  3.0096
  139OSM   C16F15240   1.074   4.450   7.986 -0.1534  0.5624 -0.4938
  139OSM   H16F15241   1.177   4.490   7.972  0.5449 -1.1855 -0.5970
  139OSM   H16G15242   1.065   4.350   8.035  1.3709  0.3129 -0.6599
  139OSM   C17F15243   0.993   4.536   8.084 -0.1876 -0.1475 -0.4115
  139OSM   H17F15244   0.890   4.493   8.087  0.1398 -1.0036 -1.0088
  139OSM   H17G15245   0.994   4.645   8.064 -0.1313  0.0438  0.6012
  139OSM   C18F15246   1.043   4.524   8.229  0.1339  0.0360  0.5799
  139OSM   H18F15247   1.153   4.539   8.219  0.3387 -1.7805 -0.4333
  139OSM   H18G15248   1.041   4.420   8.268  3.1778 -0.7349 -0.9248
  139OSM   H18H15249   0.995   4.599   8.295  0.1435  0.8617 -0.3318
  140OSM      N15250   2.003   4.880   6.238  0.0298 -0.3046 -0.1547
  140OSM    C1515251   2.103   4.771   6.226 -0.3773  0.0385  0.1413
  140OSM   H15A15252   2.054   4.677   6.248 -2.4880  0.9390 -0.4476
  140OSM   H15B15253   2.184   4.778   6.296 -0.2994 -1.6043  0.2498
  140OSM   H15C15254   2.145   4.747   6.129  1.5175 -2.9207  1.5548
  140OSM    C1415255   1.886   4.853   6.145  0.0814  0.6251 -0.0874
  140OSM   H14A15256   1.835   4.759   6.160 -0.1677  0.9031  0.9352
  140OSM   H14B15257   1.915   4.853   6.041  0.6270 -1.6496  0.0040
  140OSM   H14C15258   1.817   4.936   6.148  0.5130  1.2172 -3.4340
  140OSM    C1315259   1.956   4.883   6.385 -0.4629  0.3075 -0.0194
  140OSM   H13A15260   1.896   4.971   6.403 -1.1333 -0.0327 -0.5216
  140OSM   H13B15261   2.043   4.888   6.449 -0.7088 -1.9119  0.5771
  140OSM   H13C15262   1.906   4.789   6.404  0.2244  0.0136  0.3673
  140OSM    C1215263   2.058   5.014   6.203  0.0762 -0.3875  0.1385
  140OSM   H12A15264   2.105   4.995   6.107  2.0516 -2.1715  1.3521
  140OSM   H12B15265   2.144   5.036   6.266  1.6400  0.4103 -2.1250
  140OSM    C1115266   1.965   5.134   6.207 -0.5049  0.4339 -0.3409
  140OSM   H11A15267   1.880   5.120   6.277  0.3659 -0.3321  0.6031
  140OSM   H11B15268   1.922   5.143   6.105  1.7381  0.0676 -1.3970
  140OSM      P15269   2.085   5.306   6.374 -0.4936  0.2990 -0.3034
  140OSM    O1315270   2.195   5.215   6.421  0.3272  0.4014  0.3557
  140OSM    O1415271   2.111   5.453   6.362  0.1526  0.2996  0.1646
  140OSM    O1115272   1.961   5.295   6.470 -0.7022  0.4110  0.7871
  140OSM    O1215273   2.046   5.251   6.231 -0.1299 -0.9770  0.3691
  140OSM    C1S15274   1.973   5.218   6.590  0.4740  0.4221 -0.5517
  140OSM    H1S15275   2.065   5.239   6.649  0.6759  0.1378 -0.7585
  140OSM    H1T15276   1.975   5.111   6.560  0.2305  0.9505 -2.5790
  140OSM     NF15277   1.890   5.163   6.813 -0.4972  0.4417 -0.2252
  140OSM    HNF15278   1.833   5.085   6.836 -1.3446  1.0615 -0.2124
  140OSM    C2S15279   1.855   5.235   6.694 -0.2023  0.0037  1.1460
  140OSM    H2S15280   1.849   5.343   6.716  1.2485  0.4185 -0.2369
  140OSM    C3S15281   1.721   5.195   6.622 -0.3049  0.3641 -0.5976
  140OSM    H3S15282   1.726   5.086   6.600  0.8540  0.6580 -1.9899
  140OSM     O315283   1.699   5.253   6.490 -0.0319 -0.1367 -0.0904
  140OSM    HO315284   1.786   5.292   6.477 -1.0328  2.9154  1.3194
  140OSM    C4S15285   1.609   5.219   6.721 -0.2279  0.2060  0.0631
  140OSM    H4S15286   1.605   5.133   6.790 -1.1409 -0.0956 -0.3403
  140OSM    C5S15287   1.511   5.314   6.730 -0.2757  0.3809 -0.2215
  140OSM    H5S15288   1.516   5.387   6.647  0.9833 -0.6493 -1.1011
  140OSM    C6S15289   1.394   5.305   6.832  0.0541  0.2166  0.6557
  140OSM    H6S15290   1.379   5.202   6.869 -2.1934  0.5644  0.8512
  140OSM    H6T15291   1.297   5.331   6.785  0.1789  0.8481  0.7404
  140OSM    C7S15292   1.424   5.398   6.950 -0.1763 -0.4749  0.5436
  140OSM    H7S15293   1.438   5.499   6.906 -0.6499 -1.3699 -1.7899
  140OSM    H7T15294   1.519   5.361   6.994  0.9291 -1.8617 -2.7156
  140OSM    C8S15295   1.322   5.397   7.059 -0.0642  0.3372  0.1238
  140OSM    H8S15296   1.289   5.292   7.076  0.9179 -0.2516 -1.3857
  140OSM    H8T15297   1.233   5.455   7.027 -0.8160 -0.9313 -0.1219
  140OSM    C9S15298   1.373   5.454   7.190  0.1101  0.8686 -0.0866
  140OSM    H9S15299   1.398   5.562   7.180 -2.1444  1.5278  0.8855
  140OSM    H9T15300   1.459   5.390   7.219 -1.7502 -1.4901  0.4950
  140OSM   C10S15301   1.275   5.445   7.303  0.3515 -0.1574 -0.0827
  140OSM   H10S15302   1.239   5.344   7.329 -0.7825  0.3492  0.3608
  140OSM   H10T15303   1.183   5.503   7.279  0.9965  0.4865 -1.1203
  140OSM   C11S15304   1.343   5.500   7.434  0.8690 -0.1530  0.6660
  140OSM   H11S15305   1.355   5.606   7.405  0.7330 -0.9989 -3.0571
  140OSM   H11T15306   1.441   5.453   7.457  0.6500 -0.8095  0.3010
  140OSM   C12S15307   1.264   5.484   7.560  0.0983 -0.3690 -0.1085
  140OSM   H12S15308   1.244   5.378   7.584  1.4749 -0.5849  0.1522
  140OSM   H12T15309   1.173   5.547   7.559 -0.0801 -0.5772  1.2134
  140OSM   C13S15310   1.332   5.540   7.689 -0.2715  0.1590  0.6879
  140OSM   H13S15311   1.362   5.647   7.679  1.0438  0.0539  2.7633
  140OSM   H13T15312   1.429   5.496   7.721  0.7716  3.2466  2.1949
  140OSM   C14S15313   1.251   5.549   7.811  0.3119  0.6016  0.3013
  140OSM   H14S15314   1.230   5.449   7.855  2.3139 -0.6625 -1.4404
  140OSM   H14T15315   1.149   5.574   7.774 -0.2260 -0.7594  0.7984
  140OSM   C15S15316   1.281   5.658   7.917  0.1521  0.0989  0.7594
  140OSM   H15S15317   1.389   5.654   7.944  0.3794 -1.9701 -0.2517
  140OSM   H15T15318   1.221   5.631   8.007 -0.9291  1.9968  0.6641
  140OSM   C16S15319   1.243   5.799   7.871  0.3134 -0.3704  0.1651
  140OSM   H16S15320   1.148   5.799   7.814  0.0792  2.1745  0.4548
  140OSM   H16T15321   1.323   5.833   7.801 -0.6742 -0.3772 -0.9868
  140OSM   C17S15322   1.234   5.904   7.981 -0.0558 -0.5114  0.2067
  140OSM   H17S15323   1.133   5.885   8.025 -0.0310 -1.9295 -0.3038
  140OSM   H17T15324   1.238   6.003   7.931  1.1347 -2.2292 -3.4057
  140OSM   C18S15325   1.346   5.903   8.086 -0.5671 -0.0764 -0.0484
  140OSM   H18S15326   1.327   5.971   8.172 -1.6060 -0.8261  0.3313
  140OSM   H18T15327   1.443   5.934   8.040 -0.5980 -0.4048 -0.3342
  140OSM   H18U15328   1.363   5.805   8.135  1.0967 -0.9335 -2.1846
  140OSM    C1F15329   1.999   5.176   6.894 -0.0250 -0.3161  0.1158
  140OSM     OF15330   2.062   5.281   6.894  0.1867 -0.7773  0.2873
  140OSM    C2F15331   2.036   5.056   6.988  0.7338 -0.4728 -0.4757
  140OSM    H2F15332   2.130   5.012   6.949 -0.8540 -2.5802 -2.1820
  140OSM    H2G15333   1.960   4.976   6.978 -0.1657  0.2780  0.1432
  140OSM    C3F15334   2.054   5.092   7.132 -0.5039 -0.0804  0.1975
  140OSM    H3F15335   1.955   5.115   7.177  0.2149 -1.7788  2.9631
  140OSM    H3G15336   2.122   5.180   7.128  0.9224 -1.1892 -2.8029
  140OSM    C4F15337   2.105   4.973   7.227  0.1732 -0.4106  0.0108
  140OSM    H4F15338   2.195   4.927   7.180  0.1474 -0.5303  0.0777
  140OSM    H4G15339   2.025   4.896   7.229  0.0439 -0.2891  2.1553
  140OSM    C5F15340   2.138   5.005   7.374 -0.0690  0.1353 -0.1252
  140OSM    H5F15341   2.049   5.053   7.421  1.5334  1.8207  1.3750
  140OSM    H5G15342   2.200   5.097   7.371  0.2356 -0.1038 -2.1673
  140OSM    C6F15343   2.207   4.892   7.452  0.6031 -0.3905  0.6770
  140OSM    H6F15344   2.298   4.857   7.399  0.7539 -0.8255  1.2183
  140OSM    H6G15345   2.138   4.807   7.466 -0.0234 -0.3688 -1.8300
  140OSM    C7F15346   2.252   4.944   7.593  0.1420 -0.8896 -0.1339
  140OSM    H7F15347   2.334   5.016   7.573  0.6024 -1.5459 -0.6603
  140OSM    H7G15348   2.299   4.856   7.643 -2.3403 -1.0034  2.2170
  140OSM    C8F15349   2.139   5.003   7.680  0.0328  0.4652 -0.4364
  140OSM    H8F15350   2.095   5.090   7.626 -1.3251  0.3046  0.3702
  140OSM    H8G15351   2.179   5.052   7.771 -2.9346  2.1241  0.1192
  140OSM    C9F15352   2.044   4.892   7.718  0.6026  0.3643 -0.1705
  140OSM    H9F15353   1.981   4.854   7.636  1.9813 -0.9856 -0.6369
  140OSM   C10F15354   2.031   4.832   7.834 -0.3949 -0.1046 -0.5421
  140OSM   H10F15355   1.968   4.742   7.841 -0.8092  0.2628  0.7426
  140OSM   C11F15356   2.106   4.872   7.961  0.4154  0.6220 -0.9709
  140OSM   H11F15357   2.175   4.959   7.958 -0.8334  1.7425  1.2012
  140OSM   H11G15358   2.180   4.794   7.991 -1.0926 -0.2586  0.6372
  140OSM   C12F15359   2.018   4.882   8.093  0.6174  0.2379 -0.0421
  140OSM   H12F15360   2.086   4.886   8.181 -1.4037  0.3187  1.5816
  140OSM   H12G15361   1.955   4.790   8.095 -0.5042  0.9901  0.8977
  140OSM   C13F15362   1.945   5.016   8.088  0.1281 -0.5876 -0.1284
  140OSM   H13F15363   1.888   5.016   7.992 -0.4811 -1.0028  0.2225
  140OSM   H13G15364   2.012   5.105   8.090  1.2027 -1.3894 -0.0102
  140OSM   C14F15365   1.820   5.024   8.188  0.3220 -0.0199 -0.2617
  140OSM   H14F15366   1.863   5.039   8.289  0.6758 -0.1456 -0.3945
  140OSM   H14G15367   1.757   4.932   8.185 -1.3673  1.0711  0.1032
  140OSM   C15F15368   1.722   5.140   8.169  0.0843 -0.7407 -0.3946
  140OSM   H15F15369   1.692   5.140   8.062 -0.5134  0.8673 -0.2476
  140OSM   H15G15370   1.784   5.232   8.176 -0.4934 -0.1725 -2.2528
  140OSM   C16F15371   1.604   5.136   8.259  0.4964  0.1572 -0.0245
  140OSM   H16F15372   1.527   5.062   8.230  1.2737  0.1336 -2.2441
  140OSM   H16G15373   1.552   5.234   8.256  0.3503  0.1921  2.3438
  140OSM   C17F15374   1.627   5.117   8.416 -0.3680 -0.2641 -0.1763
  140OSM   H17F15375   1.687   5.198   8.462 -0.4013 -0.6814  0.6226
  140OSM   H17G15376   1.675   5.017   8.424  0.5122  0.0986 -0.6903
  140OSM   C18F15377   1.484   5.126   8.471 -0.4493 -0.6273 -0.3073
  140OSM   H18F15378   1.417   5.050   8.425 -1.7677  0.8573 -0.8989
  140OSM   H18G15379   1.433   5.223   8.456 -1.3899 -0.5650  2.6977
  140OSM   H18H15380   1.483   5.123   8.582  0.2504  0.8658 -0.2384
  141OSM      N15381   5.466   0.852   5.831  0.8558 -0.5811  0.8251
  141OSM    C1515382   5.561   0.896   5.723  0.0917  0.3101  0.1604
  141OSM   H15A15383   5.621   0.981   5.751  1.0915 -0.4975  0.5198
  141OSM   H15B15384   5.511   0.939   5.638  0.3592  0.6676  0.1790
  141OSM   H15C15385   5.619   0.810   5.695 -2.1841 -1.9863  1.9769
  141OSM    C1415386   5.411   0.720   5.777  0.6343  0.2114  0.4347
  141OSM   H14A15387   5.496   0.660   5.748  1.2555 -0.0186  2.5935
  141OSM   H14B15388   5.359   0.740   5.684  1.7367  0.1682 -0.2142
  141OSM   H14C15389   5.356   0.666   5.852  1.4456 -0.9773  0.1932
  141OSM    C1315390   5.543   0.818   5.959  0.2884  0.3542  0.0791
  141OSM   H13A15391   5.561   0.907   6.017  2.2876 -1.1684  1.9284
  141OSM   H13B15392   5.627   0.753   5.943 -1.0421 -1.0482 -1.6020
  141OSM   H13C15393   5.474   0.767   6.024  0.0390 -2.2664 -2.0705
  141OSM    C1215394   5.353   0.949   5.865 -0.2189 -0.3155  0.6845
  141OSM   H12A15395   5.298   0.947   5.772  0.0971 -1.9830  0.4993
  141OSM   H12B15396   5.388   1.050   5.876  0.2321 -0.3139 -0.6016
  141OSM    C1115397   5.256   0.919   5.983  0.6134  0.3008  0.1935
  141OSM   H11A15398   5.189   1.008   5.984  1.0558  0.9253 -4.4534
  141OSM   H11B15399   5.318   0.929   6.075  0.8333  0.7044  0.0067
  141OSM      P15400   5.151   0.698   6.067 -0.0813  0.0532 -0.0422
  141OSM    O1315401   5.065   0.770   6.164  0.3802 -0.4491 -0.1460
  141OSM    O1415402   5.091   0.577   6.005  0.4036  0.3265  0.1879
  141OSM    O1115403   5.296   0.670   6.132  0.3636 -0.5581 -0.5683
  141OSM    O1215404   5.187   0.799   5.956  1.5052 -0.1547 -0.0732
  141OSM    C1S15405   5.321   0.722   6.259  0.1469 -0.3973  0.3394
  141OSM    H1S15406   5.234   0.774   6.305 -1.0562 -2.1935  0.2051
  141OSM    H1T15407   5.405   0.792   6.244  1.9642 -2.6063 -0.3668
  141OSM     NF15408   5.399   0.685   6.489  0.6480  0.2708 -0.4312
  141OSM    HNF15409   5.493   0.710   6.510  0.0943  1.3620  0.9729
  141OSM    C2S15410   5.374   0.620   6.359  0.1409 -0.0363 -0.0668
  141OSM    H2S15411   5.296   0.542   6.371  0.4371 -0.1852  1.0091
  141OSM    C3S15412   5.493   0.535   6.306  0.1174  0.1380  0.2484
  141OSM    H3S15413   5.579   0.600   6.281  0.9161 -0.9144  0.1619
  141OSM     O315414   5.458   0.464   6.189 -0.4410  0.1446 -0.0585
  141OSM    HO315415   5.374   0.506   6.168 -1.2419 -1.1650  0.4150
  141OSM    C4S15416   5.538   0.437   6.417 -0.3170 -0.2941 -0.1336
  141OSM    H4S15417   5.641   0.461   6.446 -0.1150 -0.5247 -0.6459
  141OSM    C5S15418   5.471   0.329   6.477  0.6639  0.1072  0.1081
  141OSM    H5S15419   5.366   0.305   6.455  0.0634  2.4416  0.1212
  141OSM    C6S15420   5.518   0.234   6.582  0.2718  0.1489 -0.1209
  141OSM    H6S15421   5.489   0.134   6.542 -0.4093  1.4062 -3.0930
  141OSM    H6T15422   5.469   0.232   6.681  0.9720 -2.3093  0.2451
  141OSM    C7S15423   5.673   0.247   6.625  0.4673 -0.4202 -0.4604
  141OSM    H7S15424   5.687   0.353   6.653 -3.6213  0.3659 -0.6454
  141OSM    H7T15425   5.726   0.216   6.533  0.6396  0.9260 -0.8293
  141OSM    C8S15426   5.723   0.160   6.746  0.0123  1.3924 -0.9595
  141OSM    H8S15427   5.834   0.167   6.746  0.0388  1.6684  1.1421
  141OSM    H8T15428   5.687   0.056   6.737 -1.0934  1.7290 -0.5295
  141OSM    C9S15429   5.681   0.217   6.891 -0.0629  0.4776 -0.3496
  141OSM    H9S15430   5.571   0.198   6.889 -0.0664  0.2292  0.9692
  141OSM    H9T15431   5.690   0.327   6.897 -1.4473  0.5298  3.7804
  141OSM   C10S15432   5.742   0.145   7.013  0.2249 -0.3279  0.7055
  141OSM   H10S15433   5.852   0.157   6.999 -0.0595 -0.1051 -1.7200
  141OSM   H10T15434   5.719   0.036   7.018 -0.4091 -0.2206  0.2225
  141OSM   C11S15435   5.701   0.197   7.149 -0.5970 -0.4362  0.0731
  141OSM   H11S15436   5.604   0.151   7.178 -1.7846  1.1272 -1.2327
  141OSM   H11T15437   5.677   0.305   7.161  1.1125 -0.2969  3.8059
  141OSM   C12S15438   5.804   0.163   7.257  0.4965  0.2590 -0.4243
  141OSM   H12S15439   5.894   0.219   7.225 -1.0957  2.8768 -0.5979
  141OSM   H12T15440   5.814   0.052   7.259 -0.7258  0.1265  1.8825
  141OSM   C13S15441   5.758   0.210   7.395 -0.4820 -0.2087 -0.1467
  141OSM   H13S15442   5.717   0.313   7.404  0.7375  0.2300  0.6325
  141OSM   H13T15443   5.854   0.211   7.450  1.0621  3.2137 -2.5099
  141OSM   C14S15444   5.672   0.113   7.477  0.2601  0.0748  1.3068
  141OSM   H14S15445   5.727   0.017   7.474 -0.2338 -0.1995 -1.5856
  141OSM   H14T15446   5.573   0.099   7.430 -1.8710  0.1352  5.3403
  141OSM   C15S15447   5.651   0.163   7.624 -0.0244 -0.2321 -0.5480
  141OSM   H15S15448   5.608   0.266   7.618 -0.5542 -0.5105 -2.1428
  141OSM   H15T15449   5.754   0.162   7.666 -0.4131 -1.7107  0.4521
  141OSM   C16S15450   5.562   0.083   7.716 -0.1018  1.0596 -0.1910
  141OSM   H16S15451   5.591  -0.024   7.711  2.4687  1.5437  1.7313
  141OSM   H16T15452   5.457   0.090   7.684  0.5096  0.8577 -2.3743
  141OSM   C17S15453   5.575   0.131   7.860 -0.5440 -0.0174 -0.0939
  141OSM   H17S15454   5.545   0.237   7.846 -1.2670 -0.1321  0.4870
  141OSM   H17T15455   5.680   0.130   7.894 -0.2812  0.4578 -0.8667
  141OSM   C18S15456   5.482   0.070   7.961 -0.1872 -0.3047  0.1299
  141OSM   H18S15457   5.487   0.135   8.051  1.7881  0.0809 -0.2120
  141OSM   H18T15458   5.507  -0.036   7.979 -1.8213 -0.7089  0.1913
  141OSM   H18U15459   5.378   0.081   7.923 -0.4547  2.7629  1.4482
  141OSM    C1F15460   5.298   0.741   6.558  0.0745 -0.1924 -0.4365
  141OSM     OF15461   5.183   0.719   6.523  0.0498 -0.3276 -0.2687
  141OSM    C2F15462   5.332   0.837   6.666 -0.5642 -0.5238 -0.1061
  141OSM    H2F15463   5.331   0.945   6.642  0.3284  0.0213  2.0831
  141OSM    H2G15464   5.436   0.812   6.698 -0.5858 -0.4738  0.0023
  141OSM    C3F15465   5.246   0.815   6.787 -0.1415  0.0675 -0.7454
  141OSM    H3F15466   5.259   0.711   6.826  0.5814  0.4197 -0.0223
  141OSM    H3G15467   5.143   0.834   6.751  0.6595  2.1019 -2.0732
  141OSM    C4F15468   5.275   0.907   6.907 -0.5522  0.7104  0.9379
  141OSM    H4F15469   5.253   1.007   6.864 -1.0972  0.9732  1.7856
  141OSM    H4G15470   5.381   0.900   6.940  0.8416 -0.1552 -3.1455
  141OSM    C5F15471   5.175   0.875   7.018 -0.2699 -0.0713  0.0487
  141OSM    H5F15472   5.173   0.767   7.044 -0.0936 -0.0214  0.2744
  141OSM    H5G15473   5.075   0.913   6.987 -0.2150  0.1239  0.1058
  141OSM    C6F15474   5.197   0.963   7.151  0.1244 -0.0784  0.0713
  141OSM    H6F15475   5.124   0.942   7.232  1.0324 -1.2340  0.6244
  141OSM    H6G15476   5.183   1.070   7.122 -0.6184 -0.2064 -0.0564
  141OSM    C7F15477   5.335   0.948   7.228  0.3873  0.3624 -1.3686
  141OSM    H7F15478   5.420   0.947   7.157  2.0405 -0.1773  0.5445
  141OSM    H7G15479   5.320   0.853   7.284  1.4357  0.9862  0.0030
  141OSM    C8F15480   5.349   1.055   7.335 -0.5618  0.0949  0.0893
  141OSM    H8F15481   5.249   1.065   7.380 -0.7901 -0.9701 -0.1492
  141OSM    H8G15482   5.379   1.152   7.289 -0.1815  0.0250  0.1822
  141OSM    C9F15483   5.446   1.017   7.441  0.0857 -0.3979 -0.2750
  141OSM    H9F15484   5.552   1.006   7.412  0.3397 -2.1784  1.1016
  141OSM   C10F15485   5.419   0.965   7.560  0.1562  0.4935  0.2474
  141OSM   H10F15486   5.493   0.934   7.636  1.7482  1.8950 -0.6507
  141OSM   C11F15487   5.277   0.940   7.608 -0.0103 -0.5060 -0.2012
  141OSM   H11F15488   5.271   0.836   7.647 -2.3056 -0.0740  0.7630
  141OSM   H11G15489   5.210   0.935   7.520  0.1576  1.4947 -0.4811
  141OSM   C12F15490   5.231   1.040   7.716 -0.3220 -0.6102  0.1163
  141OSM   H12F15491   5.123   1.044   7.741 -0.0164 -1.9277  1.7766
  141OSM   H12G15492   5.251   1.140   7.671  1.2618 -0.6952  0.5710
  141OSM   C13F15493   5.312   1.052   7.849 -0.4363 -0.3596  0.2762
  141OSM   H13F15494   5.311   1.152   7.897  2.1698  0.2248 -0.7126
  141OSM   H13G15495   5.412   1.009   7.827 -1.3043 -1.7477 -1.2021
  141OSM   C14F15496   5.263   0.952   7.958  0.7076  0.1425 -0.0190
  141OSM   H14F15497   5.258   0.855   7.904 -0.1430  0.4186 -0.4464
  141OSM   H14G15498   5.161   0.984   7.988  1.0746  1.7040 -0.3502
  141OSM   C15F15499   5.366   0.950   8.069 -0.3678 -0.6096  0.5272
  141OSM   H15F15500   5.377   1.044   8.127 -2.6642  0.3155 -0.4305
  141OSM   H15G15501   5.461   0.923   8.019 -1.7406  0.0721 -2.6827
  141OSM   C16F15502   5.331   0.852   8.178 -0.3828 -0.4609  0.2677
  141OSM   H16F15503   5.377   0.755   8.153  1.3145  0.3762 -0.0286
  141OSM   H16G15504   5.223   0.833   8.196 -0.3786  0.0643  0.8971
  141OSM   C17F15505   5.396   0.877   8.313 -0.2810  0.9862 -0.3787
  141OSM   H17F15506   5.364   0.970   8.365  0.9296  0.6479  1.0490
  141OSM   H17G15507   5.504   0.892   8.289  0.1620 -0.7311  0.3896
  141OSM   C18F15508   5.370   0.768   8.420  0.3695  0.1426  0.0697
  141OSM   H18F15509   5.435   0.678   8.412 -0.1184 -0.1555 -0.5407
  141OSM   H18G15510   5.265   0.734   8.411  0.1847  1.1447 -2.4449
  141OSM   H18H15511   5.379   0.807   8.524 -0.1993  2.2709 -0.6333
  142OSM      N15512   6.546   3.245   6.056 -0.8809  0.5037 -0.3667
  142OSM    C1515513   6.494   3.387   6.069 -0.1508  1.1028  0.0067
  142OSM   H15A15514   6.487   3.428   5.969 -0.8826 -1.7208 -1.2040
  142OSM   H15B15515   6.555   3.451   6.131  1.5202  0.4867 -0.9223
  142OSM   H15C15516   6.391   3.389   6.102 -0.1807 -1.2760  0.2824
  142OSM    C1415517   6.446   3.149   6.003  0.5461  0.6367 -0.1522
  142OSM   H14A15518   6.354   3.150   6.059  1.1215  1.6086  0.8106
  142OSM   H14B15519   6.492   3.052   6.012 -1.3170 -0.1576  1.9480
  142OSM   H14C15520   6.412   3.164   5.902 -2.2188  0.2065  0.6339
  142OSM    C1315521   6.672   3.233   5.979 -0.6544 -0.4312 -0.2438
  142OSM   H13A15522   6.756   3.292   6.013 -0.8983 -0.2493  0.0440
  142OSM   H13B15523   6.661   3.261   5.875  0.9270  3.0679  0.3897
  142OSM   H13C15524   6.705   3.130   5.991  0.2842 -0.1499 -0.3325
  142OSM    C1215525   6.591   3.203   6.198 -0.1458  0.8551 -0.6333
  142OSM   H12A15526   6.615   3.098   6.197  0.6260  0.9510  1.9815
  142OSM   H12B15527   6.502   3.203   6.259 -1.1419 -1.9837 -1.9063
  142OSM    C1115528   6.710   3.264   6.278 -0.1067 -0.3171  0.2202
  142OSM   H11A15529   6.696   3.224   6.380  0.3396  0.0394  0.4256
  142OSM   H11B15530   6.704   3.375   6.277  1.4310 -0.2147 -0.5857
  142OSM      P15531   6.886   3.075   6.224  0.0338  0.0444 -0.3874
  142OSM    O1315532   6.807   3.003   6.123 -0.2828  0.1747  0.1651
  142OSM    O1415533   7.034   3.076   6.206 -0.6970  0.5261 -0.0575
  142OSM    O1115534   6.841   3.024   6.362  0.3242  0.4303 -0.2061
  142OSM    O1215535   6.835   3.222   6.222 -0.0635 -0.5899 -0.0663
  142OSM    C1S15536   6.860   2.888   6.403  0.1824 -0.5009  0.6313
  142OSM    H1S15537   6.958   2.852   6.364  1.7053  3.3384  0.4291
  142OSM    H1T15538   6.777   2.824   6.365  0.4413 -0.4493 -0.0287
  142OSM     NF15539   6.973   2.778   6.588 -0.8306  0.4028  0.0374
  142OSM    HNF15540   6.929   2.688   6.590 -1.8578  0.8970  1.2367
  142OSM    C2S15541   6.884   2.885   6.558  0.0872 -0.4494  0.6893
  142OSM    H2S15542   6.931   2.981   6.586  1.5123 -0.1240 -2.4160
  142OSM    C3S15543   6.757   2.878   6.633 -0.2459 -0.7909  0.3342
  142OSM    H3S15544   6.695   2.794   6.596  0.1735 -0.1072 -2.1537
  142OSM     O315545   6.684   2.992   6.602 -0.4349  0.0503 -0.2853
  142OSM    HO315546   6.744   3.039   6.543  0.2318  0.5531  0.7634
  142OSM    C4S15547   6.763   2.858   6.784 -1.0252 -0.5084 -0.7214
  142OSM    H4S15548   6.723   2.760   6.813  1.3480 -1.8309 -1.6181
  142OSM    C5S15549   6.799   2.952   6.881  0.1078  0.3116 -0.1282
  142OSM    H5S15550   6.841   3.048   6.846 -1.2750  0.7727 -0.6212
  142OSM    C6S15551   6.790   2.949   7.033  0.4519  0.4655 -0.0171
  142OSM    H6S15552   6.729   3.036   7.065 -2.6678 -1.1645 -1.1035
  142OSM    H6T15553   6.893   2.969   7.069  0.5035 -0.1648  0.1955
  142OSM    C7S15554   6.755   2.809   7.084 -0.1912  0.0477  0.0418
  142OSM    H7S15555   6.825   2.732   7.046  0.4709  0.6027  0.1172
  142OSM    H7T15556   6.651   2.784   7.054  0.5476  0.7366 -3.5062
  142OSM    C8S15557   6.754   2.809   7.244  0.4154 -0.4172 -0.3886
  142OSM    H8S15558   6.682   2.884   7.283  0.9621 -0.4849  0.7895
  142OSM    H8T15559   6.857   2.847   7.259  1.1754 -1.7245 -1.9604
  142OSM    C9S15560   6.726   2.673   7.302 -0.2145  0.2926 -0.5411
  142OSM    H9S15561   6.802   2.603   7.262 -1.0875 -0.0245 -1.7110
  142OSM    H9T15562   6.633   2.627   7.263  1.1827 -0.7361 -2.8683
  142OSM   C10S15563   6.727   2.667   7.455 -0.2174  0.3363 -0.6140
  142OSM   H10S15564   6.649   2.726   7.508  1.4860  0.3981  2.0016
  142OSM   H10T15565   6.823   2.704   7.498 -1.1590  0.4567  1.5471
  142OSM   C11S15566   6.715   2.526   7.516 -0.0541 -0.0113  0.0638
  142OSM   H11S15567   6.809   2.467   7.507 -0.4596 -0.4668 -1.5579
  142OSM   H11T15568   6.635   2.468   7.464 -0.8098  0.7136  0.4032
  142OSM   C12S15569   6.685   2.541   7.664  0.1077  0.4302 -0.5114
  142OSM   H12S15570   6.603   2.614   7.677  1.3200  1.4832  1.9667
  142OSM   H12T15571   6.777   2.595   7.696 -0.9185  0.5951  2.4482
  142OSM   C13S15572   6.647   2.406   7.738  0.3524 -0.2874 -0.2180
  142OSM   H13S15573   6.736   2.340   7.745  0.8025  0.1621 -1.3968
  142OSM   H13T15574   6.568   2.351   7.683 -0.7181 -0.1339  1.1297
  142OSM   C14S15575   6.599   2.414   7.885 -0.4902 -0.6644  0.3412
  142OSM   H14S15576   6.510   2.480   7.896  0.4868  0.5954  1.0397
  142OSM   H14T15577   6.681   2.457   7.946 -1.2850  1.6641 -0.1085
  142OSM   C15S15578   6.570   2.282   7.951 -0.1284 -0.2291 -1.4021
  142OSM   H15S15579   6.664   2.222   7.945 -0.2708 -0.3416 -2.7547
  142OSM   H15T15580   6.495   2.216   7.903 -1.6338  1.2149 -1.1097
  142OSM   C16S15581   6.528   2.293   8.100 -0.0163 -0.2380 -0.7026
  142OSM   H16S15582   6.452   2.374   8.104  1.3674  1.1580 -1.4373
  142OSM   H16T15583   6.617   2.320   8.160 -0.3222 -1.6061  0.4227
  142OSM   C17S15584   6.452   2.171   8.158  0.0590 -0.4971  0.1801
  142OSM   H17S15585   6.345   2.174   8.129 -0.1571  1.8564  0.9953
  142OSM   H17T15586   6.463   2.197   8.266  0.9919  2.9248 -0.5930
  142OSM   C18S15587   6.522   2.040   8.122 -0.3146 -0.2963  0.4789
  142OSM   H18S15588   6.629   2.041   8.152  0.2381  2.4810 -1.1934
  142OSM   H18T15589   6.513   2.027   8.012 -1.0624 -2.9113  0.7871
  142OSM   H18U15590   6.465   1.956   8.167 -0.8268 -1.5673 -2.3714
  142OSM    C1F15591   7.103   2.785   6.578 -0.1164 -0.8044  0.1537
  142OSM     OF15592   7.151   2.897   6.547  0.3811  0.3175  0.3743
  142OSM    C2F15593   7.183   2.666   6.601 -0.0844 -0.6196 -0.7539
  142OSM    H2F15594   7.177   2.612   6.505 -0.7741 -0.2028 -0.9512
  142OSM    H2G15595   7.148   2.606   6.687 -0.6472 -1.3172 -1.4591
  142OSM    C3F15596   7.330   2.709   6.625 -0.8078 -0.1889  0.0559
  142OSM    H3F15597   7.329   2.791   6.700 -0.5493  0.3134 -0.4891
  142OSM    H3G15598   7.377   2.739   6.529 -2.9037 -1.8131 -1.5914
  142OSM    C4F15599   7.415   2.592   6.673 -0.2658  0.1561  0.0822
  142OSM    H4F15600   7.401   2.511   6.599 -3.4645 -1.4705  2.2327
  142OSM    H4G15601   7.374   2.550   6.767  0.1970 -0.8345 -0.1525
  142OSM    C5F15602   7.558   2.635   6.693 -0.0067  0.4724 -0.0175
  142OSM    H5F15603   7.565   2.739   6.730 -2.6701  0.5866  0.3742
  142OSM    H5G15604   7.614   2.616   6.598  2.3360  1.6010  1.0539
  142OSM    C6F15605   7.620   2.552   6.806 -0.4055  0.0126 -0.2692
  142OSM    H6F15606   7.622   2.448   6.766  2.0532  0.7374 -2.3237
  142OSM    H6G15607   7.555   2.557   6.896 -0.9204 -0.1920 -0.6200
  142OSM    C7F15608   7.760   2.592   6.852 -0.2501 -0.4360 -1.0578
  142OSM    H7F15609   7.822   2.614   6.763 -1.4763  1.8342 -1.4169
  142OSM    H7G15610   7.798   2.507   6.913  0.2725  1.0634  0.8220
  142OSM    C8F15611   7.760   2.721   6.935  0.1939  0.0794  0.5933
  142OSM    H8F15612   7.675   2.719   7.007  0.0834 -0.1645  0.4560
  142OSM    H8G15613   7.724   2.801   6.866  0.1997 -1.0325 -0.7252
  142OSM    C9F15614   7.891   2.760   6.995 -0.7107  0.8073 -0.3352
  142OSM    H9F15615   7.932   2.853   6.953 -0.1529 -0.5666 -3.1110
  142OSM   C10F15616   7.959   2.688   7.089 -0.3762 -0.7027 -0.2603
  142OSM   H10F15617   8.061   2.722   7.113 -0.9033  0.0092  1.0544
  142OSM   C11F15618   7.910   2.556   7.152  0.7682  0.0064  0.1607
  142OSM   H11F15619   7.968   2.472   7.108  0.5287 -0.7860  1.2892
  142OSM   H11G15620   7.802   2.549   7.127  1.2709  1.2099 -2.7002
  142OSM   C12F15621   7.930   2.543   7.303 -0.1847 -0.4276 -0.4021
  142OSM   H12F15622   8.038   2.542   7.329 -0.0748  2.3201 -0.4678
  142OSM   H12G15623   7.881   2.449   7.336 -1.4768  0.7465  1.1700
  142OSM   C13F15624   7.867   2.656   7.382 -0.1172  0.1038 -0.3871
  142OSM   H13F15625   7.771   2.685   7.334  0.0565  1.4152  0.0238
  142OSM   H13G15626   7.936   2.742   7.374  2.1665 -1.4878  1.1066
  142OSM   C14F15627   7.858   2.630   7.530 -0.0538 -0.5479  0.1611
  142OSM   H14F15628   7.944   2.571   7.567  0.1592  1.0243  2.4137
  142OSM   H14G15629   7.763   2.579   7.558  0.4977 -0.9634  1.3312
  142OSM   C15F15630   7.864   2.770   7.600 -0.2322  0.5477 -0.6700
  142OSM   H15F15631   7.778   2.836   7.576 -2.0435 -1.4473 -0.0599
  142OSM   H15G15632   7.957   2.818   7.564 -0.4123  0.7131 -0.9168
  142OSM   C16F15633   7.888   2.753   7.748 -0.4473  0.5865  0.4718
  142OSM   H16F15634   7.920   2.845   7.802  0.8826  0.4223  0.0076
  142OSM   H16G15635   7.971   2.680   7.763 -2.4942 -1.9005  0.4050
  142OSM   C17F15636   7.763   2.707   7.827  0.5966 -0.5996 -0.1675
  142OSM   H17F15637   7.798   2.693   7.931  0.0441  0.5610  0.1950
  142OSM   H17G15638   7.731   2.613   7.777  2.9953 -0.9828 -1.1134
  142OSM   C18F15639   7.644   2.808   7.834 -0.3071 -0.3498  0.4491
  142OSM   H18F15640   7.585   2.807   7.739  0.5925 -0.8034 -0.1149
  142OSM   H18G15641   7.700   2.902   7.848 -0.0885 -0.7669  2.6194
  142OSM   H18H15642   7.578   2.785   7.920 -0.4846 -3.0836 -0.3193
  143OSM      N15643   3.353   4.456   6.063 -0.0592  0.0945  0.1380
  143OSM    C1515644   3.244   4.560   6.044 -0.6835 -0.0930  0.5969
  143OSM   H15A15645   3.203   4.576   6.142 -1.6700  0.5614  0.0920
  143OSM   H15B15646   3.160   4.522   5.987  0.0185  2.3498 -2.3285
  143OSM   H15C15647   3.270   4.659   6.010 -1.8846  0.2045  0.5140
  143OSM    C1415648   3.400   4.417   5.924 -0.1690  0.1422  0.7371
  143OSM   H14A15649   3.486   4.351   5.930  0.2369  0.5046 -0.7020
  143OSM   H14B15650   3.439   4.501   5.869  0.2902  0.6752  1.8438
  143OSM   H14C15651   3.329   4.366   5.861  0.2821 -0.2289  0.5182
  143OSM    C1315652   3.461   4.521   6.139  0.1472  0.3876  0.3459
  143OSM   H13A15653   3.495   4.613   6.093 -0.5007 -0.0078 -1.0058
  143OSM   H13B15654   3.541   4.450   6.149 -0.8593 -0.8774 -0.1967
  143OSM   H13C15655   3.433   4.557   6.236  0.0074 -1.5096  1.0510
  143OSM    C1215656   3.294   4.343   6.147  0.2390 -0.1177  0.0100
  143OSM   H12A15657   3.204   4.301   6.105 -0.2556 -0.9892  1.8206
  143OSM   H12B15658   3.264   4.383   6.243 -0.4548  0.2584 -0.3541
  143OSM    C1115659   3.375   4.221   6.182  0.1484 -0.0982  0.1432
  143OSM   H11A15660   3.354   4.155   6.095 -1.6421 -0.1781  0.5996
  143OSM   H11B15661   3.314   4.171   6.260 -0.5604  1.5237  0.6832
  143OSM      P15662   3.626   4.177   6.134 -0.0336  0.0902  0.0398
  143OSM    O1315663   3.577   4.138   6.003  0.2403  0.5446 -0.0353
  143OSM    O1415664   3.741   4.272   6.137 -0.1124  0.0593 -0.2043
  143OSM    O1115665   3.653   4.044   6.213  0.2311 -0.1093  0.1192
  143OSM    O1215666   3.509   4.237   6.225  0.6132 -0.1171  0.2527
  143OSM    C1S15667   3.681   4.042   6.346 -0.5343  0.2044  0.2483
  143OSM    H1S15668   3.724   4.138   6.381 -1.4725  1.9947 -3.0919
  143OSM    H1T15669   3.765   3.970   6.361 -0.1238  0.2441 -1.6253
  143OSM     NF15670   3.593   3.978   6.573 -0.3195  0.0779  0.4944
  143OSM    HNF15671   3.618   3.888   6.608 -2.2307 -0.8245 -0.3544
  143OSM    C2S15672   3.561   3.991   6.429  0.3951 -0.7542 -0.0065
  143OSM    H2S15673   3.479   4.066   6.420 -0.9088 -2.1494 -0.0613
  143OSM    C3S15674   3.497   3.861   6.365 -0.0863 -0.4418 -0.0731
  143OSM    H3S15675   3.572   3.780   6.365  2.8761  2.0386  2.8892
  143OSM     O315676   3.438   3.878   6.237 -0.2372 -0.7714  0.5294
  143OSM    HO315677   3.446   3.972   6.220  0.6223 -1.1432 -1.3227
  143OSM    C4S15678   3.387   3.804   6.448  0.1748 -0.4247 -0.2585
  143OSM    H4S15679   3.295   3.864   6.456  2.1005  2.5282  1.7469
  143OSM    C5S15680   3.395   3.705   6.528  0.2905  0.3531  0.1894
  143OSM    H5S15681   3.487   3.645   6.530  0.1984  0.2163  1.3256
  143OSM    C6S15682   3.275   3.666   6.613  0.2071  0.3846 -0.4085
  143OSM    H6S15683   3.266   3.556   6.615 -0.4423  0.4170 -1.2417
  143OSM    H6T15684   3.177   3.699   6.573 -0.0842  1.4652  1.1190
  143OSM    C7S15685   3.278   3.720   6.760 -0.4161 -0.5349  0.6286
  143OSM    H7S15686   3.183   3.701   6.814 -0.8104 -1.3664 -0.3389
  143OSM    H7T15687   3.289   3.830   6.757 -2.7028 -0.2412  1.5195
  143OSM    C8S15688   3.396   3.669   6.839  0.0789 -0.6800  0.6335
  143OSM    H8S15689   3.497   3.674   6.793  0.5382 -0.6476  1.6165
  143OSM    H8T15690   3.391   3.558   6.842 -0.1477 -0.6540  1.5047
  143OSM    C9S15691   3.403   3.731   6.985 -0.3500  0.6501  0.7050
  143OSM    H9S15692   3.302   3.728   7.031 -0.7216 -0.6436 -0.1424
  143OSM    H9T15693   3.441   3.836   6.983 -3.3409  1.8100 -0.4361
  143OSM   C10S15694   3.490   3.649   7.079  0.2893  0.1101  0.1045
  143OSM   H10S15695   3.593   3.645   7.039  0.7201 -2.2498  1.3027
  143OSM   H10T15696   3.448   3.546   7.078  1.1137 -0.2592  1.4444
  143OSM   C11S15697   3.480   3.713   7.218 -0.8846  0.4314  0.1312
  143OSM   H11S15698   3.378   3.730   7.258  0.5649  2.2729  3.4606
  143OSM   H11T15699   3.521   3.817   7.218 -0.1994  0.1720 -0.5552
  143OSM   C12S15700   3.567   3.635   7.320  0.1192 -0.4235  0.5083
  143OSM   H12S15701   3.672   3.648   7.286  0.1271  1.6973  1.2374
  143OSM   H12T15702   3.531   3.529   7.315  0.6702 -0.5521 -1.8432
  143OSM   C13S15703   3.558   3.708   7.458  0.2204 -0.1196 -0.7389
  143OSM   H13S15704   3.449   3.711   7.480 -0.0686 -1.4353 -1.8703
  143OSM   H13T15705   3.600   3.811   7.452  1.0470 -0.3906  0.0956
  143OSM   C14S15706   3.637   3.629   7.562  0.4127  0.2463  0.5931
  143OSM   H14S15707   3.745   3.634   7.535 -0.1004  0.2689 -1.6233
  143OSM   H14T15708   3.593   3.527   7.557 -2.0700  1.2847 -0.5741
  143OSM   C15S15709   3.626   3.684   7.705  0.3807 -0.0933 -0.0841
  143OSM   H15S15710   3.522   3.670   7.740  0.4503 -0.7206 -0.1105
  143OSM   H15T15711   3.645   3.793   7.697  1.1725 -0.0253  1.9146
  143OSM   C16S15712   3.726   3.620   7.799 -0.2416  0.2984 -0.3201
  143OSM   H16S15713   3.832   3.639   7.770 -0.3628 -0.0113 -0.9978
  143OSM   H16T15714   3.702   3.512   7.794 -0.4997  0.3610 -0.4355
  143OSM   C17S15715   3.709   3.666   7.944  0.2458  0.2926 -0.3253
  143OSM   H17S15716   3.604   3.660   7.981  0.6863  0.5531  1.0240
  143OSM   H17T15717   3.741   3.772   7.955  0.7732  0.3585 -2.2477
  143OSM   C18S15718   3.783   3.572   8.040 -0.7127  0.3024 -0.3652
  143OSM   H18S15719   3.749   3.572   8.145 -1.5867  1.0644 -0.6404
  143OSM   H18T15720   3.893   3.587   8.033 -0.4212 -1.8092 -1.3935
  143OSM   H18U15721   3.759   3.467   8.010  1.2214  0.0730 -1.2572
  143OSM    C1F15722   3.609   4.082   6.650 -0.4417 -0.0112 -0.0526
  143OSM     OF15723   3.593   4.200   6.611 -0.5798  0.1103 -0.2816
  143OSM    C2F15724   3.604   4.049   6.796  0.1440  0.3271 -0.0006
  143OSM    H2F15725   3.609   3.939   6.815 -2.0268  0.5525  2.5093
  143OSM    H2G15726   3.501   4.069   6.830 -0.4400 -2.1294 -0.1024
  143OSM    C3F15727   3.708   4.134   6.871  0.8799 -0.2177  0.0637
  143OSM    H3F15728   3.672   4.239   6.864 -0.4131 -0.6841 -0.6186
  143OSM    H3G15729   3.803   4.125   6.815  1.5450 -1.4498  1.3306
  143OSM    C4F15730   3.715   4.092   7.023  0.3320  0.1748 -0.1385
  143OSM    H4F15731   3.621   4.082   7.080  2.4516  0.4742  3.7185
  143OSM    H4G15732   3.776   4.168   7.076  2.6976 -1.6977  0.0096
  143OSM    C5F15733   3.792   3.962   7.042 -0.4168 -0.3175  0.6457
  143OSM    H5F15734   3.891   3.969   6.992 -0.0415  0.0342  1.4183
  143OSM    H5G15735   3.731   3.878   7.003  1.9728 -1.2170 -1.4176
  143OSM    C6F15736   3.814   3.923   7.191 -0.1058  0.4214  0.2247
  143OSM    H6F15737   3.884   3.837   7.190  0.3899  0.8209 -0.0752
  143OSM    H6G15738   3.721   3.885   7.239 -1.1776 -1.7936 -3.2653
  143OSM    C7F15739   3.901   4.024   7.272  0.0586  0.6760  0.1983
  143OSM    H7F15740   3.851   4.121   7.288 -2.6469 -0.6304  0.1882
  143OSM    H7G15741   3.991   4.032   7.207  0.8680 -1.6114  0.9142
  143OSM    C8F15742   3.963   3.965   7.402  0.3051 -0.9063 -0.1131
  143OSM    H8F15743   4.028   4.049   7.436 -0.2925 -0.4249 -0.1446
  143OSM    H8G15744   4.051   3.902   7.377  0.2068 -1.0524 -0.0921
  143OSM    C9F15745   3.879   3.921   7.514  0.1304  0.3907  0.6507
  143OSM    H9F15746   3.774   3.950   7.501  0.8768  2.3305 -1.9900
  143OSM   C10F15747   3.932   3.878   7.633  0.6398 -0.4774  0.4191
  143OSM   H10F15748   3.861   3.851   7.713  0.4119  3.2092  1.6843
  143OSM   C11F15749   4.077   3.867   7.674  0.1153  0.0331 -0.0531
  143OSM   H11F15750   4.126   3.967   7.682 -0.2481  0.1519  0.7963
  143OSM   H11G15751   4.125   3.803   7.597  1.4747 -2.1833  2.4626
  143OSM   C12F15752   4.095   3.796   7.818 -0.6739  0.4604 -0.0812
  143OSM   H12F15753   4.080   3.687   7.798  1.9198 -0.1579  0.8729
  143OSM   H12G15754   4.024   3.836   7.893 -0.6565  0.3324  0.0040
  143OSM   C13F15755   4.235   3.814   7.867 -0.4733 -0.3619  0.2829
  143OSM   H13F15756   4.274   3.918   7.862 -0.5733 -0.3242  0.2805
  143OSM   H13G15757   4.292   3.762   7.787 -0.7046  2.3308 -1.8070
  143OSM   C14F15758   4.253   3.769   8.006  0.3126  0.1086 -0.2778
  143OSM   H14F15759   4.229   3.661   8.006  0.1957  0.0802  1.7998
  143OSM   H14G15760   4.181   3.820   8.073  1.4462  1.2170  0.1469
  143OSM   C15F15761   4.396   3.778   8.056 -0.1223 -0.9234  0.3452
  143OSM   H15F15762   4.394   3.785   8.167  0.5129 -0.1415  0.3229
  143OSM   H15G15763   4.431   3.877   8.020 -1.8622 -0.3942  0.0163
  143OSM   C16F15764   4.490   3.668   8.005 -0.2851  0.0329 -0.0250
  143OSM   H16F15765   4.474   3.651   7.896  2.7980 -0.1090 -0.5556
  143OSM   H16G15766   4.458   3.577   8.060 -0.8010 -0.2159 -0.7133
  143OSM   C17F15767   4.639   3.709   8.018  0.5014  0.1412 -0.0308
  143OSM   H17F15768   4.689   3.609   8.018 -1.0378 -0.6693  1.1331
  143OSM   H17G15769   4.653   3.754   8.118 -1.2292  1.0658 -0.1715
  143OSM   C18F15770   4.690   3.806   7.907  0.1787  0.2259  0.4960
  143OSM   H18F15771   4.611   3.884   7.898  0.1856  0.1448 -0.4219
  143OSM   H18G15772   4.708   3.755   7.809 -1.8103 -0.5840  0.4862
  143OSM   H18H15773   4.787   3.840   7.947  1.1514 -2.6649  0.8439
  144OSM      N15774   2.191   3.280   5.862  0.6572  0.5193  1.1290
  144OSM    C1515775   2.089   3.166   5.870 -0.5043  0.7166  0.2688
  144OSM   H15A15776   2.091   3.107   5.779 -0.7319  1.2598 -0.0884
  144OSM   H15B15777   1.984   3.190   5.879 -0.4774  0.7465  0.4989
  144OSM   H15C15778   2.118   3.098   5.949 -0.2022  0.1860 -0.2948
  144OSM    C1415779   2.317   3.229   5.794  0.9457 -0.2416  0.5058
  144OSM   H14A15780   2.292   3.194   5.695  1.1152  3.4827 -1.0143
  144OSM   H14B15781   2.361   3.160   5.864  0.9436 -0.1863  0.5610
  144OSM   H14C15782   2.391   3.307   5.784  0.9269 -0.4112 -1.2495
  144OSM    C1315783   2.128   3.385   5.775 -0.2118  0.6685  0.0992
  144OSM   H13A15784   2.189   3.474   5.771  0.4179  0.2812  1.0246
  144OSM   H13B15785   2.028   3.396   5.816 -0.3491 -0.1110 -0.0054
  144OSM   H13C15786   2.115   3.348   5.674  2.0820  2.8861 -1.1150
  144OSM    C1215787   2.207   3.352   5.995 -0.0594  0.1478 -0.7316
  144OSM   H12A15788   2.119   3.411   6.014 -1.6612 -2.3680  0.0685
  144OSM   H12B15789   2.294   3.415   5.982 -0.0088  0.1054 -0.5975
  144OSM    C1115790   2.228   3.262   6.117 -0.1037  0.7444  0.4024
  144OSM   H11A15791   2.130   3.213   6.137  0.0612  0.0225 -0.5534
  144OSM   H11B15792   2.240   3.318   6.213 -0.1541  2.7585 -0.7035
  144OSM      P15793   2.486   3.212   6.138  0.1557  0.3627 -0.3272
  144OSM    O1315794   2.570   3.099   6.095 -0.1113 -0.0946  0.3525
  144OSM    O1415795   2.515   3.346   6.084 -1.2089 -0.5200 -0.3871
  144OSM    O1115796   2.484   3.228   6.295 -0.1613  0.1122  0.5693
  144OSM    O1215797   2.331   3.171   6.111 -0.1263  0.1561 -0.4478
  144OSM    C1S15798   2.402   3.152   6.385  0.2284  0.0499 -0.3346
  144OSM    H1S15799   2.424   3.044   6.367  0.6819 -0.1134  1.1047
  144OSM    H1T15800   2.294   3.166   6.364  0.2143  0.7589  0.1905
  144OSM     NF15801   2.364   3.096   6.626 -0.7364  0.4590  0.4117
  144OSM    HNF15802   2.281   3.136   6.662 -1.6414 -1.4490  0.5674
  144OSM    C2S15803   2.434   3.182   6.533  0.2802  0.1693  0.1016
  144OSM    H2S15804   2.542   3.153   6.529  0.4330  0.7682 -0.1303
  144OSM    C3S15805   2.407   3.336   6.572  0.2523 -0.3395 -0.6855
  144OSM    H3S15806   2.300   3.364   6.566  1.0919  4.1897  1.4651
  144OSM     O315807   2.466   3.418   6.477 -0.3766  0.4611 -0.7257
  144OSM    HO315808   2.509   3.360   6.413 -0.4824  1.0678 -1.3567
  144OSM    C4S15809   2.431   3.353   6.711 -0.0677 -0.4775 -0.0194
  144OSM    H4S15810   2.343   3.382   6.770  0.5475  0.2762  0.5513
  144OSM    C5S15811   2.542   3.325   6.778 -0.2199  1.4161  0.3676
  144OSM    H5S15812   2.624   3.277   6.722 -1.3410 -1.0852  0.7250
  144OSM    C6S15813   2.563   3.335   6.926 -0.0788  0.3301 -0.2647
  144OSM    H6S15814   2.616   3.428   6.954  0.5789 -0.8862  2.9442
  144OSM    H6T15815   2.625   3.248   6.956 -1.5502 -0.9977 -0.9093
  144OSM    C7S15816   2.438   3.336   7.016 -0.2785  0.4747  0.8580
  144OSM    H7S15817   2.388   3.237   7.010 -1.9346  1.3205 -0.1279
  144OSM    H7T15818   2.365   3.415   6.991 -1.2067 -1.1197 -1.9531
  144OSM    C8S15819   2.482   3.376   7.153 -0.1442  0.5537  0.3411
  144OSM    H8S15820   2.500   3.486   7.155  1.4381  0.3196  0.0563
  144OSM    H8T15821   2.575   3.340   7.201 -0.8937  0.6479  1.9326
  144OSM    C9S15822   2.377   3.352   7.274 -0.1402  0.2536 -0.1093
  144OSM    H9S15823   2.364   3.242   7.281  2.1245  0.0387  2.0857
  144OSM    H9T15824   2.278   3.397   7.251  0.3920  1.4729 -0.1124
  144OSM   C10S15825   2.436   3.399   7.410 -0.5515 -0.3229  0.2569
  144OSM   H10S15826   2.457   3.508   7.414  2.3824 -0.8157  0.9448
  144OSM   H10T15827   2.530   3.344   7.431  0.6215  1.3560 -0.4295
  144OSM   C11S15828   2.342   3.381   7.525  0.4837 -0.1986 -0.3719
  144OSM   H11S15829   2.323   3.275   7.553  2.3703 -0.3232  0.5890
  144OSM   H11T15830   2.247   3.429   7.493  1.1192  0.4151 -1.3857
  144OSM   C12S15831   2.371   3.459   7.651 -0.3077 -0.2950 -0.5537
  144OSM   H12S15832   2.398   3.562   7.620 -0.1594  0.0098  0.5581
  144OSM   H12T15833   2.460   3.417   7.703  0.9691  0.3336 -2.1143
  144OSM   C13S15834   2.258   3.481   7.752  0.1147 -0.0550 -0.1336
  144OSM   H13S15835   2.222   3.377   7.763  1.0347 -0.1452  2.8721
  144OSM   H13T15836   2.172   3.533   7.705 -0.4947  0.3178  1.3284
  144OSM   C14S15837   2.296   3.566   7.876  0.6700 -0.0959  0.7915
  144OSM   H14S15838   2.312   3.671   7.845 -0.7001  0.0917  0.6342
  144OSM   H14T15839   2.377   3.506   7.923 -0.2327 -3.5705 -1.6631
  144OSM   C15S15840   2.188   3.561   7.986 -0.4806 -0.3602 -0.4363
  144OSM   H15S15841   2.114   3.481   7.965 -0.9847  0.2292 -0.8974
  144OSM   H15T15842   2.134   3.657   7.972  0.5302  0.0471 -1.6738
  144OSM   C16S15843   2.251   3.548   8.122  0.4210  0.7251 -0.5164
  144OSM   H16S15844   2.351   3.597   8.121  1.4714 -1.1390  2.4879
  144OSM   H16T15845   2.252   3.445   8.161 -3.7315  0.1209 -1.4292
  144OSM   C17S15846   2.151   3.612   8.224 -0.6487 -0.1848  0.0955
  144OSM   H17S15847   2.064   3.545   8.236 -0.0199 -1.1626 -0.6599
  144OSM   H17T15848   2.105   3.707   8.188  0.0778  0.4081  0.6795
  144OSM   C18S15849   2.217   3.648   8.358  0.1469  0.6222  0.1542
  144OSM   H18S15850   2.260   3.562   8.412 -1.0570  0.3138  0.6629
  144OSM   H18T15851   2.136   3.693   8.420 -1.6190  0.2393 -1.7387
  144OSM   H18U15852   2.289   3.733   8.350 -1.3738  1.9515 -0.0612
  144OSM    C1F15853   2.384   2.965   6.634  0.0303  0.6372  0.6130
  144OSM     OF15854   2.491   2.909   6.588  0.3898 -0.3064  0.3520
  144OSM    C2F15855   2.275   2.880   6.686 -0.5730  0.3852 -0.8201
  144OSM    H2F15856   2.240   2.809   6.609 -1.6264  1.9513 -1.8515
  144OSM    H2G15857   2.184   2.944   6.693  0.3382  1.5819  1.0079
  144OSM    C3F15858   2.321   2.817   6.814 -0.6705  0.2085 -0.0116
  144OSM    H3F15859   2.413   2.755   6.826  0.5368  1.8810 -0.3279
  144OSM    H3G15860   2.236   2.748   6.833 -1.4428  1.2863  0.5334
  144OSM    C4F15861   2.303   2.922   6.925  0.2168 -0.0230 -0.1228
  144OSM    H4F15862   2.202   2.966   6.920  0.6841  1.0512 -0.3566
  144OSM    H4G15863   2.373   3.006   6.906 -2.3137  2.0856 -0.6206
  144OSM    C5F15864   2.331   2.848   7.063  0.1967  0.1575  0.4107
  144OSM    H5F15865   2.427   2.792   7.055  0.2836  0.5030 -1.6057
  144OSM    H5G15866   2.243   2.782   7.074 -0.4998  0.9699 -0.1583
  144OSM    C6F15867   2.355   2.946   7.176  0.7272  0.5283 -0.2777
  144OSM    H6F15868   2.265   3.007   7.202 -1.0974 -2.6907  1.5975
  144OSM    H6G15869   2.441   3.014   7.156  1.3231  0.3639  1.5453
  144OSM    C7F15870   2.386   2.866   7.307 -0.2631 -0.2122  0.3621
  144OSM    H7F15871   2.490   2.830   7.287 -1.0592 -1.8405 -1.1002
  144OSM    H7G15872   2.324   2.774   7.313 -0.4277 -0.0519  1.3046
  144OSM    C8F15873   2.375   2.945   7.433  0.2800 -0.0757  0.4247
  144OSM    H8F15874   2.429   3.039   7.407  0.8563 -1.0099 -2.0141
  144OSM    H8G15875   2.438   2.896   7.511  2.0886  1.2024 -0.1474
  144OSM    C9F15876   2.236   2.969   7.485  0.3527  0.1588 -0.3972
  144OSM    H9F15877   2.165   3.006   7.409  1.1557  0.8395 -0.8343
  144OSM   C10F15878   2.200   2.952   7.614 -0.1313  0.1753  0.6300
  144OSM   H10F15879   2.092   2.962   7.628 -0.5981 -0.8872 -1.7244
  144OSM   C11F15880   2.281   2.917   7.735 -0.3411  0.0174 -0.2541
  144OSM   H11F15881   2.229   2.954   7.826  0.0559  2.0997 -0.8356
  144OSM   H11G15882   2.372   2.979   7.734 -0.5783  0.3700 -0.1540
  144OSM   C12F15883   2.326   2.769   7.738 -0.1443 -0.9799 -0.0233
  144OSM   H12F15884   2.403   2.754   7.659 -1.6581 -0.3842 -1.6830
  144OSM   H12G15885   2.242   2.699   7.720 -0.2422 -0.2231 -3.0351
  144OSM   C13F15886   2.399   2.753   7.875  0.9673  0.0704 -0.2578
  144OSM   H13F15887   2.462   2.839   7.908 -0.4097  0.4926  1.4161
  144OSM   H13G15888   2.470   2.668   7.869  0.2487 -0.4259 -2.5761
  144OSM   C14F15889   2.301   2.718   7.992 -0.3701  0.2368  0.2996
  144OSM   H14F15890   2.300   2.607   7.992  0.0011  0.2326  0.1183
  144OSM   H14G15891   2.197   2.752   7.970  0.1457  0.7143 -1.5174
  144OSM   C15F15892   2.341   2.752   8.134  0.4137  0.7756 -0.3583
  144OSM   H15F15893   2.331   2.860   8.157  2.2036  0.5824  1.6834
  144OSM   H15G15894   2.449   2.728   8.149 -0.2893 -1.6120  1.5253
  144OSM   C16F15895   2.251   2.675   8.237 -0.1032  0.3035 -0.2935
  144OSM   H16F15896   2.249   2.565   8.220 -3.0198 -0.0998  1.8297
  144OSM   H16G15897   2.143   2.699   8.235  0.2249  1.9620  0.5880
  144OSM   C17F15898   2.302   2.681   8.386  0.3814 -0.3336  0.9539
  144OSM   H17F15899   2.246   2.605   8.446  0.1145 -1.0887 -0.2165
  144OSM   H17G15900   2.271   2.778   8.431 -0.7858 -0.9173  1.4675
  144OSM   C18F15901   2.455   2.667   8.413  0.7150  0.6958  0.0440
  144OSM   H18F15902   2.484   2.638   8.516  0.4969  2.1612  0.5424
  144OSM   H18G15903   2.497   2.768   8.395  0.7982  0.9085  1.3493
  144OSM   H18H15904   2.494   2.584   8.351  0.0445 -0.9618  1.7353
  145SAPE     N15905   0.018   0.847  10.837 -0.4409  0.2648 -0.6369
  145SAPE   HN115906  -0.008   0.876  10.933 -2.0531  1.7310 -1.4515
  145SAPE   HN215907   0.121   0.839  10.836 -0.3063  0.3525  2.4606
  145SAPE   HN315908  -0.005   0.930  10.778 -0.6894 -1.0121 -2.4268
  145SAPE   C1215909  -0.051   0.724  10.777 -0.5968 -0.9038 -0.3519
  145SAPE  H12A15910  -0.152   0.753  10.739 -0.2606 -0.0289 -0.6179
  145SAPE  H12B15911  -0.065   0.655  10.863  1.0632 -0.9784 -0.1098
  145SAPE   C1115912   0.026   0.660  10.669  0.0098  0.1970 -0.4117
  145SAPE  H11A15913  -0.013   0.557  10.652  0.0865  0.0413  0.3414
  145SAPE  H11B15914   0.130   0.640  10.702  0.7081  0.8122 -2.1043
  145SAPE     P15915  -0.081   0.731  10.447 -0.1120 -0.0879 -0.3630
  145SAPE   O1315916  -0.197   0.677  10.514  0.4301  0.2835  0.1485
  145SAPE   O1415917  -0.105   0.852  10.361 -0.6223 -0.7484 -0.0561
  145SAPE   O1215918   0.027   0.745  10.557 -0.3705  0.2390  0.6506
  145SAPE   O1115919  -0.020   0.611  10.361 -0.0739  0.4484  0.4767
  145SAPE    C115920   0.110   0.621  10.299 -0.4455 -0.2388  0.2414
  145SAPE    HA15921   0.165   0.713  10.328  1.4528 -0.0829 -3.2635
  145SAPE    HB15922   0.172   0.538  10.338  2.9995  1.8139 -0.4918
  145SAPE    C215923   0.105   0.614  10.143 -0.3571  0.2375  0.2360
  145SAPE    HS15924   0.207   0.595  10.102 -0.1259 -0.1894  0.9821
  145SAPE   O2115925   0.041   0.733  10.096 -0.6120  0.3535 -0.0586
  145SAPE   C2115926   0.119   0.842  10.086 -0.2452  0.2855  0.1934
  145SAPE   O2215927   0.239   0.841  10.105 -0.7116 -0.0643 -0.7322
  145SAPE   C2215928   0.044   0.980  10.050 -0.5328 -0.1150  0.5159
  145SAPE   H2R15929  -0.047   0.986  10.113 -0.7989  1.6926  0.0105
  145SAPE   H2S15930   0.110   1.060  10.089  0.5730 -0.5616 -0.3793
  145SAPE    C315931   0.015   0.495  10.111  0.4778 -0.2380 -0.3467
  145SAPE    HX15932  -0.090   0.521  10.136  0.4837 -1.3366  0.9804
  145SAPE    HY15933   0.039   0.413  10.182 -1.0407 -1.2021 -0.9009
  145SAPE   O3115934   0.030   0.457   9.975  0.8729  0.1502  0.2950
  145SAPE   C3115935  -0.079   0.446   9.896 -0.3499  0.4851  0.0064
  145SAPE   O3215936  -0.195   0.441   9.934 -0.1121  0.0255 -0.0204
  145SAPE   C3215937  -0.044   0.441   9.742 -0.4114  0.3317 -0.3513
  145SAPE   H2X15938   0.056   0.394   9.732 -0.1820  1.0817 -1.7647
  145SAPE   H2Y15939  -0.025   0.546   9.711  1.3693  0.7071  1.7684
  145SAPE   C2315940   0.010   0.999   9.898 -0.0972 -0.1524 -0.5696
  145SAPE   H3R15941  -0.050   1.091   9.881  0.2195  0.0300 -0.7242
  145SAPE   H3S15942  -0.032   0.904   9.859  1.5789 -0.9766 -0.4780
  145SAPE   C2415943   0.138   1.031   9.808  0.6411  0.0704  0.0671
  145SAPE   H4R15944   0.104   1.027   9.702  2.1864 -2.1977 -0.3999
  145SAPE   H4S15945   0.207   0.945   9.818  0.0519 -0.3205  0.8427
  145SAPE   C2515946   0.211   1.165   9.837 -0.8362  0.3974  0.2007
  145SAPE   H5R15947   0.237   1.183   9.942  0.0418 -0.4933  0.1510
  145SAPE   C2615948   0.257   1.255   9.742  0.0205  0.1851 -0.2499
  145SAPE   H6R15949   0.319   1.340   9.775  3.1629 -1.5094 -1.4070
  145SAPE   C2715950   0.232   1.248   9.591  0.0017 -0.1111 -0.0260
  145SAPE   H7R15951   0.128   1.281   9.566  0.4089 -0.0221 -1.7327
  145SAPE   H7S15952   0.237   1.140   9.566 -1.3191 -0.3796  0.7506
  145SAPE   C2815953   0.327   1.336   9.507 -0.3630  0.4414 -0.1464
  145SAPE   H8R15954   0.398   1.403   9.557  0.6977 -0.1830 -0.7852
  145SAPE   C2915955   0.341   1.322   9.376 -0.1390 -0.2483  1.1567
  145SAPE   H9R15956   0.400   1.393   9.318 -0.2788  0.6327  2.0549
  145SAPE  C21015957   0.267   1.222   9.290  0.6865 -0.3817  0.5581
  145SAPE  H10R15958   0.255   1.123   9.340  0.0925 -1.0474 -0.8245
  145SAPE  H10S15959   0.322   1.191   9.199 -2.7106  0.8527 -2.1425
  145SAPE  C21115960   0.130   1.280   9.250 -0.1811  0.5817 -0.1996
  145SAPE  H11R15961   0.049   1.276   9.325 -0.2499  0.2361 -0.2929
  145SAPE  C21215962   0.096   1.318   9.126  0.2946  0.1440  0.2678
  145SAPE  H12R15963  -0.007   1.355   9.122  0.0683 -0.3762  1.1225
  145SAPE  C21315964   0.189   1.337   9.002  0.5137  0.1103 -0.2212
  145SAPE  H13R15965   0.133   1.343   8.907 -0.3720 -2.1909  0.0833
  145SAPE  H13S15966   0.259   1.250   9.002  0.7629  0.3090 -0.7674
  145SAPE  C21415967   0.277   1.463   9.024  0.2420 -0.3021 -0.1761
  145SAPE  H14R15968   0.334   1.461   9.118  0.6322  0.5252 -0.3871
  145SAPE  C21515969   0.294   1.553   8.925  0.4991  0.1390  0.3921
  145SAPE  H15R15970   0.346   1.647   8.951  0.8942  0.0041  0.1059
  145SAPE  C21615971   0.219   1.549   8.795  0.8801 -0.3615  0.7838
  145SAPE  H16R15972   0.209   1.451   8.743 -1.1722 -0.4344  1.2422
  145SAPE  H16S15973   0.278   1.607   8.721  0.0616 -0.0364  0.3768
  145SAPE  C21715974   0.077   1.606   8.809  0.5200  0.2380  0.1502
  145SAPE  H17R15975   0.097   1.710   8.842 -2.2011  0.4810  1.2453
  145SAPE  H17S15976   0.015   1.552   8.883 -0.3975 -0.9920 -1.4619
  145SAPE  C21815977   0.003   1.605   8.672 -0.8057 -0.1466 -0.2882
  145SAPE  H18R15978   0.004   1.508   8.618  1.8631 -0.6031  0.4297
  145SAPE  H18S15979   0.054   1.679   8.606 -2.1506  0.8410 -0.2724
  145SAPE  C21915980  -0.142   1.647   8.685  0.1363  0.8964 -0.2813
  145SAPE  H19R15981  -0.153   1.756   8.699 -3.0207  0.5592  0.6712
  145SAPE  H19S15982  -0.182   1.606   8.780 -2.0718 -0.2048 -1.5902
  145SAPE  C22015983  -0.238   1.602   8.575  0.7354 -0.3729  0.1494
  145SAPE  H20R15984  -0.230   1.495   8.546 -1.5284  0.0546 -2.5541
  145SAPE  H20S15985  -0.210   1.651   8.479 -0.7809  0.2714 -0.0009
  145SAPE  H20T15986  -0.342   1.618   8.609  0.8501 -2.1496  1.4862
  145SAPE   C3315987  -0.147   0.369   9.650  0.4801  0.0928  0.1171
  145SAPE   H3X15988  -0.244   0.423   9.661  0.4774  0.0999  0.0569
  145SAPE   H3Y15989  -0.158   0.263   9.682  1.3479  0.5585  2.1057
  145SAPE   C3415990  -0.114   0.371   9.501 -0.2827 -0.0780 -0.0594
  145SAPE   H4X15991  -0.190   0.310   9.447 -0.5882 -0.4224  0.7494
  145SAPE   H4Y15992  -0.017   0.324   9.474 -0.1901  0.5697 -0.9019
  145SAPE   C3515993  -0.112   0.512   9.440  0.3679 -0.4288  0.0821
  145SAPE   H5X15994  -0.037   0.575   9.494  1.1897 -0.9682 -0.4129
  145SAPE   H5Y15995  -0.210   0.562   9.449 -0.1456 -1.6486  1.9921
  145SAPE   C3615996  -0.066   0.531   9.293  0.4893  0.2913  0.7591
  145SAPE   H6X15997  -0.143   0.480   9.231  1.7846 -0.1167 -0.5585
  145SAPE   H6Y15998   0.017   0.460   9.277 -0.6152 -1.2624  1.6053
  145SAPE   C3715999  -0.055   0.679   9.251  0.2735  0.3381 -0.5581
  145SAPE   H7X16000  -0.002   0.728   9.335  0.8666 -0.1929 -0.6120
  145SAPE   H7Y16001  -0.154   0.728   9.251 -0.7071 -1.5318  0.0601
  145SAPE   C3816002   0.021   0.697   9.122 -0.4391 -0.3679 -0.0708
  145SAPE   H8X16003  -0.043   0.641   9.051 -0.0801 -0.7016 -0.1327
  145SAPE   H8Y16004   0.122   0.652   9.135  0.3844  1.5471  0.4589
  145SAPE   C3916005   0.036   0.845   9.069  0.0080 -0.1739  0.4248
  145SAPE   H9X16006   0.119   0.895   9.124 -0.8895  1.0626  0.6976
  145SAPE   H9Y16007  -0.058   0.901   9.088 -0.0824 -0.3793  0.5816
  145SAPE  C31016008   0.067   0.859   8.921 -0.1284 -0.4587 -0.1225
  145SAPE  H10X16009  -0.025   0.814   8.877 -1.0832 -2.2413  3.3516
  145SAPE  H10Y16010   0.162   0.809   8.893 -1.1791 -1.0751 -3.0302
  145SAPE  C31116011   0.088   1.008   8.868 -0.2582 -0.1871 -0.3938
  145SAPE  H11X16012   0.151   1.060   8.944 -1.4780  0.6901  0.0389
  145SAPE  H11Y16013  -0.006   1.066   8.863 -0.6470 -0.8791 -1.5567
  145SAPE  C31216014   0.145   1.012   8.727  0.0481 -0.5566  0.6661
  145SAPE  H12X16015   0.090   0.934   8.671 -0.9802  1.8802 -1.9489
  145SAPE  H12Y16016   0.252   0.984   8.738  0.1183  0.1372  2.0443
  145SAPE  C31316017   0.118   1.152   8.653  1.0339 -0.2524  0.2628
  145SAPE  H13X16018   0.136   1.246   8.710  0.7609 -1.2042  2.0218
  145SAPE  H13Y16019   0.008   1.140   8.643  1.1351 -2.1047  0.8549
  145SAPE  C31416020   0.178   1.159   8.514 -0.0877 -0.3964 -0.6088
  145SAPE  H14X16021   0.167   1.058   8.470  4.1695 -1.8548  1.1782
  145SAPE  H14Y16022   0.288   1.162   8.530 -0.2316 -0.3783  0.4298
  145SAPE  C31516023   0.129   1.264   8.405 -0.5517  0.5590  0.5695
  145SAPE  H15X16024   0.121   1.367   8.446 -1.9675  1.1689 -1.1082
  145SAPE  H15Y16025   0.031   1.232   8.364 -0.0606 -3.2317  1.9602
  145SAPE  C31616026   0.232   1.264   8.288  0.0298  1.2144 -0.1613
  145SAPE  H16X16027   0.261   1.160   8.260 -2.0610  0.6907 -0.5737
  145SAPE  H16Y16028   0.328   1.314   8.309  1.1962 -0.5594 -1.0160
  145SAPE  C31716029   0.179   1.344   8.160 -0.3196  0.3164  0.0355
  145SAPE  H17X16030   0.155   1.448   8.191 -1.2516 -0.0249  0.4776
  145SAPE  H17Y16031   0.093   1.283   8.125 -1.2972  0.2193  2.4611
  145SAPE  C31816032   0.287   1.354   8.053  0.3842  0.4113  0.2873
  145SAPE  H18X16033   0.289   1.264   7.987  1.2788  0.1293  0.6757
  145SAPE  H18Y16034   0.389   1.348   8.097  0.4527  1.2664  0.2584
  145SAPE  H18Z16035   0.275   1.443   7.988 -3.3962 -0.8029 -0.9413
  146SAPE     N16036   5.481   1.024  11.185  0.2475 -0.0211 -0.1826
  146SAPE   HN116037   5.456   1.113  11.231  0.0533  0.3162 -0.9348
  146SAPE   HN216038   5.404   1.000  11.120 -0.5315  0.8128  0.4194
  146SAPE   HN316039   5.493   0.939  11.245 -0.3563 -0.0993 -0.1711
  146SAPE   C1216040   5.616   1.042  11.114  0.1550  0.9498 -0.1369
  146SAPE  H12A16041   5.648   0.946  11.067 -0.1000  0.3057  0.9700
  146SAPE  H12B16042   5.684   1.072  11.197 -1.6276 -0.5663  1.9991
  146SAPE   C1116043   5.600   1.143  11.000 -0.0276  0.0431 -0.3280
  146SAPE  H11A16044   5.695   1.182  10.959  0.4769 -0.1666  0.6376
  146SAPE  H11B16045   5.563   1.236  11.048  0.1915 -0.4068  0.7352
  146SAPE     P16046   5.541   1.024  10.776 -0.5914 -0.0871  0.1572
  146SAPE   O1316047   5.609   0.905  10.816 -0.2231 -0.1700  0.3049
  146SAPE   O1416048   5.420   1.018  10.691  0.3998 -0.2925  0.2685
  146SAPE   O1216049   5.506   1.100  10.901  0.0097  0.7768  0.4136
  146SAPE   O1116050   5.652   1.125  10.736  0.0414  1.2260 -0.0246
  146SAPE    C116051   5.614   1.245  10.668  0.0703  0.0245 -0.0579
  146SAPE    HA16052   5.526   1.298  10.711  1.0230  0.6048  1.2127
  146SAPE    HB16053   5.697   1.319  10.674 -0.5112  0.7900 -0.9840
  146SAPE    C216054   5.597   1.222  10.515 -0.1226  0.1364 -0.2467
  146SAPE    HS16055   5.496   1.176  10.508 -0.7208  1.2258  0.7373
  146SAPE   O2116056   5.703   1.136  10.470 -0.1053 -0.2769 -0.3314
  146SAPE   C2116057   5.660   1.045  10.390  0.4328 -0.3673  0.7446
  146SAPE   O2216058   5.544   1.019  10.360  0.5710 -0.0115 -0.5510
  146SAPE   C2216059   5.765   0.951  10.353  0.2877 -0.2834  0.1165
  146SAPE   H2R16060   5.849   0.949  10.426 -0.5068 -0.1745  1.0480
  146SAPE   H2S16061   5.718   0.850  10.347  0.5473 -0.4164  0.3182
  146SAPE    C316062   5.605   1.357  10.433  1.0609  0.0150  0.1395
  146SAPE    HX16063   5.708   1.398  10.433  0.7292  1.1012 -2.8363
  146SAPE    HY16064   5.550   1.426  10.501 -1.0200 -1.2704 -0.1655
  146SAPE   O3116065   5.551   1.343  10.301  0.2308  0.2535  0.0958
  146SAPE   C3116066   5.422   1.382  10.287 -0.4592  0.3155 -0.2241
  146SAPE   O3216067   5.344   1.401  10.382 -0.1375 -0.6131  0.1041
  146SAPE   C3216068   5.384   1.377  10.133  0.3553 -0.2833  0.0951
  146SAPE   H2X16069   5.435   1.294  10.080 -0.3384  0.9292 -2.6570
  146SAPE   H2Y16070   5.426   1.473  10.095 -1.9796  1.3973  1.4790
  146SAPE   C2316071   5.808   0.959  10.207 -0.5014 -0.6161 -0.0332
  146SAPE   H3R16072   5.716   0.935  10.151  0.6953 -0.5728 -2.1167
  146SAPE   H3S16073   5.884   0.880  10.190  2.3866  2.0185 -0.2651
  146SAPE   C2416074   5.867   1.091  10.175 -0.7207 -0.1317 -0.8174
  146SAPE   H4R16075   5.789   1.170  10.181 -1.8890 -1.2770 -0.5895
  146SAPE   H4S16076   5.898   1.088  10.068 -1.6168 -1.9120 -1.0734
  146SAPE   C2516077   5.980   1.122  10.264 -0.9918 -0.3961  0.5010
  146SAPE   H5R16078   5.970   1.149  10.370  0.4172  0.3333  0.4624
  146SAPE   C2616079   6.104   1.124  10.225  0.2641 -0.0489  0.5398
  146SAPE   H6R16080   6.187   1.146  10.294  2.3226  2.9455 -2.5333
  146SAPE   C2716081   6.164   1.096  10.090 -0.3877  0.2828 -0.5456
  146SAPE   H7R16082   6.145   0.991  10.058 -0.4715 -0.4456  1.7137
  146SAPE   H7S16083   6.272   1.082  10.112 -0.6912  0.2288  1.0310
  146SAPE   C2816084   6.130   1.217   9.999 -0.0171  0.6007 -0.0707
  146SAPE   H8R16085   6.119   1.312  10.054  1.4878 -0.0608  1.4503
  146SAPE   C2916086   6.099   1.209   9.874 -0.4233  0.8855 -0.1464
  146SAPE   H9R16087   6.092   1.298   9.810  0.1233  0.0619 -1.3805
  146SAPE  C21016088   6.098   1.083   9.788 -0.0149  0.0578 -1.0205
  146SAPE  H10R16089   5.989   1.066   9.778 -0.3757  2.6079 -2.3122
  146SAPE  H10S16090   6.152   0.996   9.831  0.1938 -0.4253 -2.2451
  146SAPE  C21116091   6.161   1.103   9.650 -0.1327  0.2885 -0.6939
  146SAPE  H11R16092   6.264   1.140   9.652  1.4707 -3.6739  0.6369
  146SAPE  C21216093   6.110   1.080   9.532  0.2774  0.3332  0.0953
  146SAPE  H12R16094   6.178   1.085   9.446 -0.6787 -1.1301 -0.7700
  146SAPE  C21316095   5.977   1.032   9.509 -0.2444  0.1802  0.3981
  146SAPE  H13R16096   5.936   1.093   9.426 -3.0403 -1.9173  0.0953
  146SAPE  H13S16097   5.904   1.046   9.593 -2.9001  0.7944 -1.8548
  146SAPE  C21416098   5.997   0.886   9.462 -0.3814 -0.7351 -0.7140
  146SAPE  H14R16099   6.024   0.810   9.537  0.4494 -0.4712 -0.7379
  146SAPE  C21516100   5.962   0.836   9.340 -0.8559  0.8596 -0.3572
  146SAPE  H15R16101   6.011   0.744   9.303  0.5793  1.2801  0.3971
  146SAPE  C21616102   5.906   0.910   9.224  0.0687  0.5780  0.2823
  146SAPE  H16R16103   5.877   1.013   9.252  3.6452  1.4795  1.1182
  146SAPE  H16S16104   5.816   0.858   9.183  0.0553  0.8225  0.0006
  146SAPE  C21716105   6.006   0.902   9.099  0.4697  0.0108 -0.0569
  146SAPE  H17R16106   6.017   0.792   9.083  1.3022 -0.0398  0.7737
  146SAPE  H17S16107   6.107   0.945   9.110  0.1197  0.9910 -0.5817
  146SAPE  C21816108   5.945   0.957   8.965  0.1527 -0.3349  0.1136
  146SAPE  H18R16109   5.849   0.906   8.941 -0.2475 -0.1791  1.3097
  146SAPE  H18S16110   6.012   0.935   8.880  0.2188 -0.3160  0.1604
  146SAPE  C21916111   5.919   1.111   8.953 -0.2318 -0.3358 -0.0840
  146SAPE  H19R16112   5.835   1.135   9.022 -2.4628  1.7744 -3.2281
  146SAPE  H19S16113   5.884   1.145   8.853 -0.8493 -1.5312 -0.2928
  146SAPE  C22016114   6.043   1.195   8.994 -0.3782  0.0046 -0.0927
  146SAPE  H20R16115   6.137   1.161   8.947  0.0526  0.1390  0.6453
  146SAPE  H20S16116   6.050   1.197   9.105 -0.9493 -0.1281 -0.0491
  146SAPE  H20T16117   6.027   1.304   8.979  1.0585  0.2424  0.0364
  146SAPE   C3316118   5.235   1.362  10.117  0.6781 -0.2003 -0.3678
  146SAPE   H3X16119   5.183   1.432  10.185 -1.7080  0.7883 -2.9690
  146SAPE   H3Y16120   5.201   1.256  10.127  1.0060 -0.4290 -1.5083
  146SAPE   C3416121   5.197   1.405   9.973  0.0850  0.1878  0.3974
  146SAPE   H4X16122   5.249   1.500   9.948  2.7750 -1.1474  0.4495
  146SAPE   H4Y16123   5.088   1.422   9.982 -0.4563 -2.4403 -0.1624
  146SAPE   C3516124   5.220   1.306   9.863  0.4964 -0.6323  0.0924
  146SAPE   H5X16125   5.164   1.213   9.883 -0.4603 -0.4963 -1.7631
  146SAPE   H5Y16126   5.330   1.287   9.857  0.4558 -1.7379  2.0937
  146SAPE   C3616127   5.178   1.375   9.731 -0.1496  0.5866 -0.3721
  146SAPE   H6X16128   5.233   1.471   9.724  0.1303  0.3764 -1.1875
  146SAPE   H6Y16129   5.071   1.404   9.721  0.4570  3.1624  0.0101
  146SAPE   C3716130   5.212   1.296   9.598  1.1120 -0.0544  0.4696
  146SAPE   H7X16131   5.145   1.207   9.594  0.4760  0.4546 -2.8994
  146SAPE   H7Y16132   5.315   1.255   9.602  0.2042 -2.5663  0.4012
  146SAPE   C3816133   5.192   1.367   9.468 -0.2244  0.4946  0.7297
  146SAPE   H8X16134   5.222   1.306   9.380 -2.5414  0.8021 -0.3740
  146SAPE   H8Y16135   5.261   1.454   9.466  0.6071 -0.0289  3.3709
  146SAPE   C3916136   5.044   1.411   9.446 -0.2757  0.4410  0.9288
  146SAPE   H9X16137   5.009   1.483   9.523 -0.2915  0.9033  0.4925
  146SAPE   H9Y16138   4.993   1.312   9.450  0.5862 -0.0644 -0.1586
  146SAPE  C31016139   5.021   1.474   9.309  0.4764  0.4607 -0.2827
  146SAPE  H10X16140   5.072   1.408   9.235  3.5189 -0.5044  2.4254
  146SAPE  H10Y16141   5.075   1.571   9.313  2.2033 -0.3615 -1.8979
  146SAPE  C31116142   4.868   1.500   9.278 -1.0939  0.0533  0.0228
  146SAPE  H11X16143   4.825   1.579   9.344 -2.6262  0.1073 -0.9853
  146SAPE  H11Y16144   4.816   1.402   9.290 -0.5263 -0.1593  0.7668
  146SAPE  C31216145   4.851   1.546   9.126 -0.2381 -0.2676 -0.1634
  146SAPE  H12X16146   4.908   1.640   9.111 -0.8702  0.3134  0.9422
  146SAPE  H12Y16147   4.745   1.574   9.113  0.2584  1.7078 -0.3191
  146SAPE  C31316148   4.897   1.449   9.022 -0.3323 -0.1937  0.6682
  146SAPE  H13X16149   4.847   1.351   9.040 -0.4342 -0.1694  0.5192
  146SAPE  H13Y16150   5.007   1.433   9.019  0.0764  1.7532  2.5036
  146SAPE  C31416151   4.856   1.498   8.879  0.5233 -0.3993 -0.9745
  146SAPE  H14X16152   4.909   1.593   8.854  1.1994 -0.7736 -0.9876
  146SAPE  H14Y16153   4.749   1.519   8.899  0.1852 -3.0780  0.3190
  146SAPE  C31516154   4.886   1.390   8.764 -0.7335 -0.0070  0.1081
  146SAPE  H15X16155   4.833   1.305   8.811  1.2864  0.8073  4.3304
  146SAPE  H15Y16156   4.994   1.364   8.758 -0.6528  0.0252  1.3164
  146SAPE  C31616157   4.831   1.432   8.629  1.0969  0.6822  0.7994
  146SAPE  H16X16158   4.726   1.461   8.653  0.9891 -1.0164  2.6779
  146SAPE  H16Y16159   4.828   1.344   8.561 -0.3010  0.1845  1.4430
  146SAPE  C31716160   4.918   1.542   8.559  0.5607 -0.1537 -0.0660
  146SAPE  H17X16161   5.017   1.496   8.541 -0.3919 -2.3052 -0.1574
  146SAPE  H17Y16162   4.918   1.628   8.629 -1.9830  0.4831 -0.7213
  146SAPE  C31816163   4.852   1.582   8.431 -0.6494  0.5464 -0.4678
  146SAPE  H18X16164   4.893   1.677   8.391  1.3179 -1.2403 -3.0151
  146SAPE  H18Y16165   4.741   1.591   8.441 -0.6184  1.4725 -0.9111
  146SAPE  H18Z16166   4.876   1.499   8.361 -1.3170 -0.1887  0.1416
  147SAPE     N16167   0.726   3.913  11.063 -0.7859  0.5749  0.1304
  147SAPE   HN116168   0.746   3.822  11.017  1.5300  0.2410  1.5973
  147SAPE   HN216169   0.727   3.907  11.167  0.5653  1.2721  0.1900
  147SAPE   HN316170   0.637   3.957  11.032  0.8018  2.1568 -2.6167
  147SAPE   C1216171   0.827   4.012  11.008 -0.2248  0.0867  0.2800
  147SAPE  H12A16172   0.914   4.017  11.078 -0.6670  2.3227  0.7297
  147SAPE  H12B16173   0.781   4.112  11.017  0.8754  0.6502 -0.1679
  147SAPE   C1116174   0.864   3.967  10.871 -0.0367 -0.9409 -0.0199
  147SAPE  H11A16175   0.945   4.029  10.829 -0.8635 -1.1112 -2.0334
  147SAPE  H11B16176   0.774   3.981  10.806 -0.6155 -0.1060  0.9422
  147SAPE     P16177   0.992   3.759  10.763  0.5180  0.1475  0.2142
  147SAPE   O1316178   1.132   3.798  10.767  0.2097 -0.2855 -0.5577
  147SAPE   O1416179   0.973   3.613  10.770  0.2155  0.1085 -0.4797
  147SAPE   O1216180   0.912   3.836  10.882 -0.3230 -0.0679  0.3153
  147SAPE   O1116181   0.924   3.812  10.630 -0.3351  0.1287  0.3047
  147SAPE    C116182   0.793   3.779  10.588 -0.4149  0.3460 -0.4888
  147SAPE    HA16183   0.729   3.764  10.677 -1.5528  0.6690 -1.2272
  147SAPE    HB16184   0.751   3.865  10.532 -0.2157  0.2099 -0.8517
  147SAPE    C216185   0.779   3.662  10.483  0.8854 -0.0573 -0.0350
  147SAPE    HS16186   0.825   3.576  10.536  0.4606  0.8770  1.9589
  147SAPE   O2116187   0.844   3.712  10.362  0.2511  0.1894  0.5883
  147SAPE   C2116188   0.959   3.648  10.340 -0.9306 -0.5839 -0.5964
  147SAPE   O2216189   1.000   3.545  10.397  0.0997 -0.8051  0.9005
  147SAPE   C2216190   1.038   3.740  10.243 -0.0737  0.4717 -0.3346
  147SAPE   H2R16191   1.003   3.711  10.141 -0.4874  0.1440 -0.1007
  147SAPE   H2S16192   1.019   3.849  10.249  2.3937  1.1033 -2.2397
  147SAPE    C316193   0.628   3.639  10.446 -0.0424  0.6177 -0.5187
  147SAPE    HX16194   0.574   3.735  10.435 -0.4668  0.4328 -0.1067
  147SAPE    HY16195   0.581   3.589  10.534  0.1853  0.3048 -0.5735
  147SAPE   O3116196   0.608   3.563  10.327 -0.2504 -0.3777  0.4769
  147SAPE   C3116197   0.624   3.429  10.335 -0.1992 -0.7712 -0.3823
  147SAPE   O3216198   0.646   3.365  10.434 -0.4115  0.4247  0.2014
  147SAPE   C3216199   0.599   3.378  10.189  0.2225 -0.0741 -0.4010
  147SAPE   H2X16200   0.496   3.338  10.194  0.3652 -0.4171 -0.1705
  147SAPE   H2Y16201   0.659   3.286  10.173 -1.6657 -1.3063 -0.6249
  147SAPE   C2316202   1.189   3.738  10.249  0.1283  0.0060  1.0130
  147SAPE   H3R16203   1.233   3.808  10.175 -2.0290 -0.7696 -1.1204
  147SAPE   H3S16204   1.234   3.641  10.217 -0.6637  0.0077 -0.1706
  147SAPE   C2416205   1.237   3.801  10.381  0.0223  0.1264 -0.1377
  147SAPE   H4R16206   1.203   3.748  10.472  0.9646 -1.0375 -0.4401
  147SAPE   H4S16207   1.184   3.899  10.388 -2.2583 -0.8967 -1.7939
  147SAPE   C2516208   1.386   3.791  10.397 -1.0113  0.4877  0.2071
  147SAPE   H5R16209   1.428   3.721  10.470 -0.4668  0.6417  0.0465
  147SAPE   C2616210   1.479   3.877  10.348 -0.1684 -0.2920 -0.9731
  147SAPE   H6R16211   1.585   3.864  10.375 -0.2337 -0.2884 -0.7040
  147SAPE   C2716212   1.454   3.995  10.261 -0.2349 -0.5565 -0.1325
  147SAPE   H7R16213   1.499   4.083  10.312  3.1525 -1.3353 -1.4977
  147SAPE   H7S16214   1.345   4.009  10.244 -0.2156 -2.0899 -1.8165
  147SAPE   C2816215   1.543   3.995  10.138 -0.4955  0.6195 -0.0610
  147SAPE   H8R16216   1.647   3.973  10.167 -0.8579  1.7031  2.2916
  147SAPE   C2916217   1.522   4.034  10.011  0.2975  0.1929  0.8500
  147SAPE   H9R16218   1.606   4.034   9.940 -0.6077 -0.2481 -0.2486
  147SAPE  C21016219   1.397   4.094   9.950  0.8124 -1.0880  0.1764
  147SAPE  H10R16220   1.420   4.138   9.851  0.8307 -0.1065  0.6052
  147SAPE  H10S16221   1.364   4.172  10.022  0.4059 -0.7851 -0.3306
  147SAPE  C21116222   1.285   3.985   9.934  0.0940  0.6250 -0.1569
  147SAPE  H11R16223   1.241   3.950  10.028 -0.5797 -3.9026 -1.9276
  147SAPE  C21216224   1.213   3.955   9.824  0.1258 -0.6852 -0.1241
  147SAPE  H12R16225   1.156   3.861   9.827 -2.4484  0.8026  0.7495
  147SAPE  C21316226   1.239   4.019   9.689 -0.1248 -0.3530  0.1938
  147SAPE  H13R16227   1.333   3.976   9.649 -0.9095 -3.1065  1.0701
  147SAPE  H13S16228   1.252   4.128   9.706 -1.4252 -0.5829  3.4663
  147SAPE  C21416229   1.123   3.992   9.603 -0.0558  0.6604 -0.1303
  147SAPE  H14R16230   1.023   3.991   9.649 -0.9039  0.3816 -1.9036
  147SAPE  C21516231   1.134   3.984   9.471  0.2510  0.1208  0.2083
  147SAPE  H15R16232   1.035   3.955   9.435 -0.7342 -0.2865  3.0037
  147SAPE  C21616233   1.258   3.998   9.381 -0.1652  1.1986 -0.3621
  147SAPE  H16R16234   1.310   3.901   9.371  0.7341  1.2835  2.5459
  147SAPE  H16S16235   1.335   4.069   9.419  0.9365 -0.3166  0.3751
  147SAPE  C21716236   1.234   4.061   9.248  0.6454 -0.2899  0.5434
  147SAPE  H17R16237   1.336   4.084   9.211  0.7058 -0.4245  0.6242
  147SAPE  H17S16238   1.155   4.139   9.253  0.3706 -0.4620 -0.7612
  147SAPE  C21816239   1.184   3.950   9.144 -0.6790  0.1642  1.1271
  147SAPE  H18R16240   1.088   3.904   9.174 -0.9089 -1.0134 -1.2367
  147SAPE  H18S16241   1.263   3.872   9.134  0.7251  1.6056  0.5005
  147SAPE  C21916242   1.164   4.016   9.002  0.0518 -0.1796  0.3666
  147SAPE  H19R16243   1.264   4.055   8.977  0.7119 -0.6763  2.0560
  147SAPE  H19S16244   1.095   4.102   9.017 -0.9835 -1.2143  1.9208
  147SAPE  C22016245   1.089   3.939   8.892  0.0236  0.2475  0.4400
  147SAPE  H20R16246   1.059   3.999   8.804  1.4839 -0.6537 -0.7265
  147SAPE  H20S16247   0.994   3.905   8.938 -0.3038  1.5519  0.7713
  147SAPE  H20T16248   1.143   3.846   8.864 -1.6895 -0.9703  1.0649
  147SAPE   C3316249   0.620   3.476  10.078  0.2012 -0.6681 -0.4496
  147SAPE   H3X16250   0.726   3.511  10.076 -0.3087  1.0546  0.8014
  147SAPE   H3Y16251   0.552   3.563  10.091  1.5125  0.2675  0.3939
  147SAPE   C3416252   0.576   3.411   9.947  0.1957 -0.5892  0.1716
  147SAPE   H4X16253   0.474   3.369   9.952  0.3526 -0.9268  0.6142
  147SAPE   H4Y16254   0.645   3.329   9.916 -0.7235 -0.7557 -1.5157
  147SAPE   C3516255   0.565   3.503   9.828  0.5703 -0.3123  0.5934
  147SAPE   H5X16256   0.654   3.567   9.808  0.1402 -0.2967 -1.4286
  147SAPE   H5Y16257   0.479   3.570   9.847  1.1664  0.6789 -0.1432
  147SAPE   C3616258   0.556   3.412   9.701  0.2743  0.3048  0.1364
  147SAPE   H6X16259   0.459   3.359   9.705  0.0346  0.5560 -1.5409
  147SAPE   H6Y16260   0.629   3.329   9.686  1.4943  1.4968 -0.8104
  147SAPE   C3716261   0.548   3.494   9.580 -0.5550 -0.5674  0.2981
  147SAPE   H7X16262   0.638   3.559   9.568  0.6398 -2.0585  0.7938
  147SAPE   H7Y16263   0.458   3.559   9.574  0.6092  1.0709 -0.3716
  147SAPE   C3816264   0.556   3.402   9.457  0.1597  0.4512 -0.3230
  147SAPE   H8X16265   0.470   3.332   9.469 -0.6991  1.6082  0.5222
  147SAPE   H8Y16266   0.647   3.341   9.474 -0.1992 -0.1069 -0.3362
  147SAPE   C3916267   0.564   3.474   9.327 -0.3502 -0.3928 -0.1278
  147SAPE   H9X16268   0.658   3.532   9.320  0.3655 -1.6653 -1.7670
  147SAPE   H9Y16269   0.482   3.549   9.324  2.5976  3.1582  0.6212
  147SAPE  C31016270   0.566   3.377   9.204  0.0560 -0.5325  0.2615
  147SAPE  H10X16271   0.493   3.298   9.228 -0.9875  0.0188 -0.9780
  147SAPE  H10Y16272   0.671   3.340   9.203  1.2047  2.4456 -0.8738
  147SAPE  C31116273   0.521   3.441   9.072  0.3256 -0.0015 -0.1533
  147SAPE  H11X16274   0.440   3.518   9.079  1.4117  1.3135 -1.4273
  147SAPE  H11Y16275   0.484   3.361   9.006  1.0124 -1.0700  0.7257
  147SAPE  C31216276   0.636   3.516   9.002  0.9313 -0.0565  0.2029
  147SAPE  H12X16277   0.727   3.452   9.002  0.7215 -0.3658  1.1812
  147SAPE  H12Y16278   0.662   3.613   9.049  1.1951 -0.0535  0.0501
  147SAPE  C31316279   0.594   3.549   8.858 -0.3032 -0.7304 -0.4871
  147SAPE  H13X16280   0.646   3.643   8.829  0.9985 -1.1420  0.4417
  147SAPE  H13Y16281   0.483   3.558   8.853 -0.2332  0.5724 -0.0161
  147SAPE  C31416282   0.624   3.435   8.766 -0.0450  0.3619  0.0953
  147SAPE  H14X16283   0.584   3.342   8.813 -1.5599  0.6903 -0.4945
  147SAPE  H14Y16284   0.734   3.422   8.756  0.0002 -0.7005  1.5424
  147SAPE  C31516285   0.557   3.442   8.630  0.1039 -0.3217 -0.5129
  147SAPE  H15X16286   0.447   3.432   8.640  0.4221 -2.0589  2.3382
  147SAPE  H15Y16287   0.591   3.348   8.581  0.6248 -0.9300  0.9540
  147SAPE  C31616288   0.586   3.573   8.562  0.1866  0.0020 -0.2723
  147SAPE  H16X16289   0.693   3.601   8.552  0.3722  1.8124  4.4278
  147SAPE  H16Y16290   0.544   3.660   8.617  0.8040 -0.7228  1.4061
  147SAPE  C31716291   0.543   3.575   8.416 -0.1324 -0.3141 -0.3425
  147SAPE  H17X16292   0.578   3.486   8.360  0.4259 -0.9366  0.9597
  147SAPE  H17Y16293   0.590   3.667   8.374 -0.9570  0.8841  1.2732
  147SAPE  C31816294   0.391   3.584   8.398  0.1048  0.1283  1.0535
  147SAPE  H18X16295   0.352   3.684   8.426  1.2774  0.7515  0.4987
  147SAPE  H18Y16296   0.330   3.519   8.466 -1.5337  0.0044 -0.4546
  147SAPE  H18Z16297   0.357   3.570   8.293  0.4016 -0.0391  0.9790
  148SAPE     N16298   2.892   4.456  10.506  0.1412 -0.3501 -0.3219
  148SAPE   HN116299   2.842   4.451  10.597 -1.1686 -0.4703 -1.0170
  148SAPE   HN216300   2.954   4.373  10.499  0.0714 -0.4044 -0.2966
  148SAPE   HN316301   2.947   4.544  10.509 -0.5021  0.0947 -1.1917
  148SAPE   C1216302   2.787   4.479  10.406 -0.3207  0.7740  0.1857
  148SAPE  H12A16303   2.726   4.386  10.399 -1.8962  1.7722  0.1280
  148SAPE  H12B16304   2.840   4.489  10.309 -0.0952  0.3419  0.2632
  148SAPE   C1116305   2.698   4.599  10.441  0.5688  0.6291  0.1290
  148SAPE  H11A16306   2.616   4.594  10.365  1.7198 -0.0784 -1.1267
  148SAPE  H11B16307   2.750   4.696  10.427 -3.2628  3.4248  3.0885
  148SAPE     P16308   2.502   4.526  10.607  0.0884 -0.2035  0.0893
  148SAPE   O1316309   2.491   4.397  10.535  0.4334 -0.2073  0.7162
  148SAPE   O1416310   2.476   4.521  10.751  0.2120  0.0315 -0.3648
  148SAPE   O1216311   2.643   4.591  10.573 -0.0187  0.9541 -0.0059
  148SAPE   O1116312   2.401   4.634  10.551 -0.1684 -0.3309  0.6484
  148SAPE    C116313   2.423   4.773  10.532 -0.6021 -0.3139 -0.0655
  148SAPE    HA16314   2.396   4.820  10.629  1.4598  0.7336  0.0612
  148SAPE    HB16315   2.528   4.800  10.506 -0.9711 -0.9607 -2.5512
  148SAPE    C216316   2.334   4.831  10.427 -1.1275 -0.0596  0.0016
  148SAPE    HS16317   2.228   4.812  10.455 -0.3922 -1.4697  2.0509
  148SAPE   O2116318   2.376   4.783  10.293 -0.6883  0.3849  0.0886
  148SAPE   C2116319   2.306   4.677  10.254  0.2304 -0.0056  0.5486
  148SAPE   O2216320   2.216   4.625  10.315  0.2136  0.1401 -0.4471
  148SAPE   C2216321   2.360   4.632  10.121 -0.1065  0.1928  0.1585
  148SAPE   H2R16322   2.470   4.645  10.126  0.0597  0.8002 -2.9731
  148SAPE   H2S16323   2.343   4.522  10.113 -1.5938  0.4264 -0.0786
  148SAPE    C316324   2.322   4.992  10.428 -0.3249 -0.2886  0.0977
  148SAPE    HX16325   2.418   5.046  10.411 -1.1239  1.0340 -0.2935
  148SAPE    HY16326   2.290   5.017  10.532 -1.5664  1.4130 -0.6635
  148SAPE   O3116327   2.219   5.028  10.334  0.1735  0.0313  0.2304
  148SAPE   C3116328   2.253   5.074  10.222  0.3173 -0.3553  0.3878
  148SAPE   O3216329   2.370   5.070  10.177 -0.4856  0.5632  0.1713
  148SAPE   C3216330   2.132   5.134  10.150  0.3833  0.6926  0.3036
  148SAPE   H2X16331   2.128   5.238  10.189 -0.2166  1.6818 -2.2134
  148SAPE   H2Y16332   2.044   5.069  10.168  0.7941  0.0579  0.0373
  148SAPE   C2316333   2.307   4.718  10.008 -0.3075 -0.4418 -0.4369
  148SAPE   H3R16334   2.382   4.716   9.925  0.9232  2.0828  0.5107
  148SAPE   H3S16335   2.311   4.824  10.042  1.2217 -0.1945 -1.2645
  148SAPE   C2416336   2.166   4.692   9.965  0.4986 -0.7114 -0.1646
  148SAPE   H4R16337   2.112   4.787   9.943  0.4576 -1.1410 -2.0143
  148SAPE   H4S16338   2.098   4.650  10.043  0.0377  1.0655  0.4404
  148SAPE   C2516339   2.157   4.607   9.842 -0.7929 -0.5504 -0.2304
  148SAPE   H5R16340   2.142   4.498   9.854 -0.2645 -0.5341  0.6573
  148SAPE   C2616341   2.173   4.660   9.718 -0.2796  0.3409  0.0183
  148SAPE   H6R16342   2.162   4.585   9.639  0.1668 -0.0812  0.3514
  148SAPE   C2716343   2.200   4.806   9.687 -0.0234  0.4508 -0.5103
  148SAPE   H7R16344   2.215   4.866   9.779 -1.7575  1.1110 -0.6301
  148SAPE   H7S16345   2.111   4.864   9.656  0.5059  1.1445 -0.7477
  148SAPE   C2816346   2.316   4.817   9.588 -0.4116  0.4527 -0.3501
  148SAPE   H8R16347   2.411   4.811   9.643 -0.3725  0.6810 -0.3918
  148SAPE   C2916348   2.313   4.838   9.457 -0.2485 -0.0565 -0.6052
  148SAPE   H9R16349   2.402   4.873   9.402  1.1008 -1.7451  0.4128
  148SAPE  C21016350   2.191   4.848   9.374  0.4930  0.2652 -0.2433
  148SAPE  H10R16351   2.099   4.864   9.433 -0.7300  0.2719 -2.0795
  148SAPE  H10S16352   2.180   4.749   9.324  0.8630  0.1334 -0.0685
  148SAPE  C21116353   2.213   4.953   9.265  1.1053  0.1797 -0.5558
  148SAPE  H11R16354   2.219   5.056   9.302  2.1778  1.3303 -3.6544
  148SAPE  C21216355   2.224   4.932   9.136 -0.4564 -0.6334  0.1961
  148SAPE  H12R16356   2.230   5.019   9.069  0.5486 -0.9505 -0.1401
  148SAPE  C21316357   2.227   4.800   9.064 -0.2241  0.3702  0.3429
  148SAPE  H13R16358   2.140   4.774   9.000  2.5620 -4.0628 -2.2324
  148SAPE  H13S16359   2.234   4.716   9.136 -0.0919 -1.4865 -1.7146
  148SAPE  C21416360   2.347   4.788   8.968  0.6220  0.0602 -0.8031
  148SAPE  H14R16361   2.439   4.821   9.019 -0.6495  0.9388  1.0068
  148SAPE  C21516362   2.345   4.760   8.834 -0.0293  0.3454 -0.9015
  148SAPE  H15R16363   2.440   4.760   8.779 -0.0801  0.5662 -0.9907
  148SAPE  C21616364   2.224   4.727   8.754  0.5596 -0.5481  0.1809
  148SAPE  H16R16365   2.134   4.773   8.799  0.2295  0.7971 -1.7279
  148SAPE  H16S16366   2.189   4.621   8.753  0.5704 -0.6408 -2.9990
  148SAPE  C21716367   2.217   4.769   8.603  0.3471 -0.9575 -0.1324
  148SAPE  H17R16368   2.219   4.880   8.603 -0.2442 -0.9368  0.8986
  148SAPE  H17S16369   2.118   4.734   8.568  0.7021 -2.8371  0.6393
  148SAPE  C21816370   2.324   4.718   8.509 -0.3579  0.0095 -0.2584
  148SAPE  H18R16371   2.415   4.701   8.569  0.6673  1.5077 -1.3145
  148SAPE  H18S16372   2.344   4.802   8.438 -1.6153  1.9579  1.5759
  148SAPE  C21916373   2.280   4.586   8.437  0.7045 -0.7047 -0.8983
  148SAPE  H19R16374   2.198   4.600   8.364 -1.1056 -1.0934  0.9562
  148SAPE  H19S16375   2.238   4.517   8.513 -0.6878  0.5989 -0.4207
  148SAPE  C22016376   2.401   4.511   8.368  0.9389 -0.3484  0.5807
  148SAPE  H20R16377   2.484   4.488   8.438  0.3632  0.5355  1.5827
  148SAPE  H20S16378   2.442   4.596   8.309 -0.3687 -0.2295 -0.1994
  148SAPE  H20T16379   2.373   4.431   8.296  3.0616 -2.2417  1.7454
  148SAPE   C3316380   2.150   5.140   9.997  0.4078 -0.1918  0.7013
  148SAPE   H3X16381   2.049   5.119   9.955  0.9609 -2.6324  0.4972
  148SAPE   H3Y16382   2.215   5.055   9.970 -0.3695 -0.9585  1.1923
  148SAPE   C3416383   2.205   5.272   9.945 -0.9695  0.1494  0.2407
  148SAPE   H4X16384   2.316   5.271   9.955 -1.0043 -2.0528  0.8194
  148SAPE   H4Y16385   2.167   5.352  10.013 -1.8750  0.4556 -0.6070
  148SAPE   C3516386   2.178   5.293   9.799 -0.0653 -0.2402 -0.8513
  148SAPE   H5X16387   2.071   5.264   9.791  0.3568 -1.6631 -1.7722
  148SAPE   H5Y16388   2.238   5.222   9.738  1.4033 -2.1354  2.5501
  148SAPE   C3616389   2.202   5.437   9.751  0.5717 -0.6544  0.8155
  148SAPE   H6X16390   2.309   5.465   9.763  0.5319 -0.6294  1.1245
  148SAPE   H6Y16391   2.141   5.497   9.823 -1.2350 -1.0889 -0.2926
  148SAPE   C3716392   2.150   5.462   9.608 -0.1404 -0.1389  0.4510
  148SAPE   H7X16393   2.168   5.569   9.583  2.1529 -0.4996  0.3204
  148SAPE   H7Y16394   2.042   5.435   9.604 -0.0744 -0.3286 -0.3276
  148SAPE   C3816395   2.204   5.373   9.496  0.3046 -0.0105  0.2996
  148SAPE   H8X16396   2.163   5.270   9.506  2.3006 -0.7885  0.8618
  148SAPE   H8Y16397   2.313   5.359   9.514  0.4013 -1.0602 -0.9329
  148SAPE   C3916398   2.175   5.433   9.362  0.8282  0.4272  0.1049
  148SAPE   H9X16399   2.234   5.525   9.344  2.3364 -0.6123 -0.5169
  148SAPE   H9Y16400   2.067   5.456   9.353  0.7661  0.3782  0.7033
  148SAPE  C31016401   2.207   5.341   9.248 -0.2397 -0.9407 -0.3365
  148SAPE  H10X16402   2.162   5.240   9.258  2.3178 -2.4272 -2.6721
  148SAPE  H10Y16403   2.316   5.330   9.232 -0.1466  0.0641 -0.5046
  148SAPE  C31116404   2.168   5.401   9.108 -0.5295  0.7561  0.0682
  148SAPE  H11X16405   2.235   5.488   9.094  1.4240 -0.8684 -1.0703
  148SAPE  H11Y16406   2.063   5.435   9.123 -0.7526 -0.3175  1.0889
  148SAPE  C31216407   2.184   5.311   8.980 -0.8622  0.0420  0.2267
  148SAPE  H12X16408   2.150   5.378   8.898 -2.7067 -1.8835 -0.6855
  148SAPE  H12Y16409   2.115   5.225   8.996 -0.0101 -0.2337  2.7314
  148SAPE  C31316410   2.317   5.247   8.952  0.4945  0.3304 -0.0209
  148SAPE  H13X16411   2.360   5.198   9.043 -0.3354  1.6585  1.1350
  148SAPE  H13Y16412   2.398   5.320   8.929  0.1322  0.7499  0.0220
  148SAPE  C31416413   2.306   5.131   8.846  0.0374 -0.5907 -0.6722
  148SAPE  H14X16414   2.204   5.088   8.847 -0.2540  0.1111 -0.4969
  148SAPE  H14Y16415   2.385   5.058   8.878  0.9742  0.5105 -0.3978
  148SAPE  C31516416   2.343   5.170   8.705 -0.7402 -0.4070  0.4744
  148SAPE  H15X16417   2.290   5.260   8.667  2.0132  0.6133 -1.2603
  148SAPE  H15Y16418   2.336   5.081   8.639 -1.4826 -0.7807  1.0494
  148SAPE  C31616419   2.492   5.224   8.692 -0.1343  0.2735 -0.4065
  148SAPE  H16X16420   2.547   5.146   8.748  0.4082  0.8802 -0.0776
  148SAPE  H16Y16421   2.505   5.323   8.742 -1.7292  0.0393  0.5252
  148SAPE  C31716422   2.548   5.231   8.545 -0.3318  0.3856 -0.8010
  148SAPE  H17X16423   2.544   5.124   8.514 -0.9414  0.1187  0.1540
  148SAPE  H17Y16424   2.656   5.257   8.552 -0.1266 -0.8340  3.1094
  148SAPE  C31816425   2.473   5.319   8.448 -0.2583 -0.4034  0.2940
  148SAPE  H18X16426   2.464   5.419   8.496 -0.8522 -0.7253  0.8780
  148SAPE  H18Y16427   2.373   5.274   8.430  0.0094 -1.3124  1.0240
  148SAPE  H18Z16428   2.523   5.325   8.349 -0.8241  0.7313  0.0596
  149SAPE     N16429   4.405   5.770  10.740 -0.3184 -0.4003 -0.2639
  149SAPE   HN116430   4.421   5.848  10.673  0.5369  1.0798  1.5643
  149SAPE   HN216431   4.450   5.688  10.695  0.7397 -1.6248  2.7804
  149SAPE   HN316432   4.305   5.750  10.760 -0.8368  2.6563  0.7208
  149SAPE   C1216433   4.488   5.797  10.864  0.6417  0.1898  0.7067
  149SAPE  H12A16434   4.470   5.714  10.935  0.4328 -0.1550  0.2570
  149SAPE  H12B16435   4.441   5.884  10.914  1.0560 -0.0674  1.5576
  149SAPE   C1116436   4.629   5.832  10.819  0.6160  0.6287 -0.6519
  149SAPE  H11A16437   4.677   5.743  10.772 -1.3923 -2.2710  2.3322
  149SAPE  H11B16438   4.684   5.858  10.912 -0.4952  0.0127  0.2041
  149SAPE     P16439   4.629   6.095  10.741  0.0225  0.0838  0.1194
  149SAPE   O1316440   4.506   6.148  10.683  0.8121  0.3146 -0.3614
  149SAPE   O1416441   4.655   6.133  10.882  0.2833  0.8255 -0.1510
  149SAPE   O1216442   4.637   5.937  10.722 -0.1625  1.5366  0.4410
  149SAPE   O1116443   4.755   6.153  10.667 -0.5276  0.5710 -0.0119
  149SAPE    C116444   4.882   6.094  10.665 -0.2465  0.1846  0.6264
  149SAPE    HA16445   4.952   6.180  10.659 -0.2814  0.0873 -3.0290
  149SAPE    HB16446   4.902   6.039  10.759 -1.2257 -0.1401  0.6562
  149SAPE    C216447   4.917   6.005  10.541  0.1002  0.2849 -0.0320
  149SAPE    HS16448   5.026   5.989  10.555  0.1308  1.9627  2.0897
  149SAPE   O2116449   4.896   6.094  10.430  0.3025 -0.4453  0.0992
  149SAPE   C2116450   4.984   6.080  10.334 -0.4353  0.0648 -0.3960
  149SAPE   O2216451   5.079   6.005  10.331 -1.0356 -0.0553 -0.6960
  149SAPE   C2216452   4.950   6.176  10.224  1.2632  0.2396 -0.0490
  149SAPE   H2R16453   4.859   6.135  10.176  0.6189  0.8522  0.6286
  149SAPE   H2S16454   4.919   6.271  10.272  4.0839  1.3333 -0.1883
  149SAPE    C316455   4.848   5.860  10.521 -0.1026 -0.4917 -0.1429
  149SAPE    HX16456   4.743   5.877  10.490 -0.3982  1.8022  1.7923
  149SAPE    HY16457   4.850   5.814  10.623  0.4482 -1.4545 -0.5837
  149SAPE   O3116458   4.925   5.788  10.424 -0.1783  0.1072 -0.3634
  149SAPE   C3116459   4.892   5.664  10.406 -0.8810 -0.2136 -0.0819
  149SAPE   O3216460   4.794   5.607  10.451  0.0927  0.5937 -0.4638
  149SAPE   C3216461   4.996   5.598  10.318  0.4825 -0.0604 -0.2944
  149SAPE   H2X16462   4.975   5.491  10.335  1.7057 -0.2583  0.0527
  149SAPE   H2Y16463   5.092   5.615  10.372 -1.2551  1.2635  2.5951
  149SAPE   C2316464   5.063   6.211  10.119 -0.3423  0.4743 -0.2854
  149SAPE   H3R16465   5.147   6.259  10.174  0.4181  0.9437 -1.7995
  149SAPE   H3S16466   5.023   6.294  10.058 -1.4351  0.4236  0.3279
  149SAPE   C2416467   5.108   6.088  10.044 -0.5498 -0.3214  0.6097
  149SAPE   H4R16468   5.154   6.012  10.111  0.7911  0.4236  0.5600
  149SAPE   H4S16469   5.194   6.107   9.976 -2.0527 -2.3905 -2.0795
  149SAPE   C2516470   4.998   6.034   9.962 -0.6153 -0.3529 -0.4019
  149SAPE   H5R16471   4.911   5.996  10.018 -0.9302  1.4338  0.3822
  149SAPE   C2616472   4.986   6.038   9.829 -0.4410 -0.1000  1.2659
  149SAPE   H6R16473   4.897   5.986   9.789 -1.4201  2.2764  0.1388
  149SAPE   C2716474   5.078   6.094   9.724 -0.1359 -0.0373  0.2762
  149SAPE   H7R16475   5.177   6.107   9.773 -1.9851  0.2191  4.2884
  149SAPE   H7S16476   5.043   6.196   9.698 -0.2730 -0.0163  0.5479
  149SAPE   C2816477   5.068   6.000   9.602 -0.0304 -0.1075  0.1950
  149SAPE   H8R16478   5.057   5.897   9.641 -0.9916 -0.3212 -0.6035
  149SAPE   C2916479   5.076   6.034   9.472  0.0554 -0.4905 -0.9306
  149SAPE   H9R16480   5.083   5.950   9.401 -2.2311 -1.4309 -0.1304
  149SAPE  C21016481   5.102   6.177   9.426  0.5269  0.3363 -0.2339
  149SAPE  H10R16482   5.185   6.187   9.353 -0.0135 -2.4604 -1.3583
  149SAPE  H10S16483   5.142   6.231   9.515 -0.0480  0.9159 -0.3186
  149SAPE  C21116484   4.968   6.231   9.376  0.5316 -1.2271 -0.0499
  149SAPE  H11R16485   4.920   6.297   9.450  1.8243 -0.2720 -0.0231
  149SAPE  C21216486   4.923   6.223   9.245  0.0055 -0.5696  0.3004
  149SAPE  H12R16487   4.827   6.270   9.218 -0.2369 -1.0135  0.3811
  149SAPE  C21316488   4.993   6.137   9.138  0.4720  0.0518 -0.5142
  149SAPE  H13R16489   4.918   6.074   9.084  1.5121  0.9808 -3.2262
  149SAPE  H13S16490   5.057   6.061   9.186 -0.2152 -0.2663 -0.0786
  149SAPE  C21416491   5.080   6.210   9.040  0.6618  0.1217  0.2570
  149SAPE  H14R16492   5.177   6.241   9.082  0.8799  0.4660 -0.4707
  149SAPE  C21516493   5.054   6.241   8.910 -0.1715 -0.0190  0.5397
  149SAPE  H15R16494   5.126   6.306   8.858  0.2290 -0.9578 -0.1151
  149SAPE  C21616495   4.923   6.217   8.830 -0.2388  0.4864 -0.6555
  149SAPE  H16R16496   4.867   6.312   8.817  0.9335  1.3329  0.1585
  149SAPE  H16S16497   4.853   6.149   8.884 -3.4435  2.9920 -1.3596
  149SAPE  C21716498   4.943   6.175   8.683 -0.4339  0.2605  0.1701
  149SAPE  H17R16499   5.004   6.251   8.631 -1.1275  1.1296  0.6064
  149SAPE  H17S16500   4.843   6.176   8.635 -1.2469 -0.0719  1.7565
  149SAPE  C21816501   4.993   6.028   8.670  0.3273  0.0680 -0.8794
  149SAPE  H18R16502   5.086   6.012   8.727  1.3331  1.7778 -1.9585
  149SAPE  H18S16503   5.020   6.013   8.563 -1.8307 -1.3148 -1.3067
  149SAPE  C21916504   4.881   5.927   8.697  0.6993  0.6014 -0.7808
  149SAPE  H19R16505   4.793   5.972   8.647  0.5040  3.5370  1.8742
  149SAPE  H19S16506   4.862   5.933   8.806 -1.5820 -1.9380 -0.9379
  149SAPE  C22016507   4.919   5.783   8.670  0.1152  0.3730 -0.2692
  149SAPE  H20R16508   4.829   5.720   8.653  0.1560 -0.1293  1.2706
  149SAPE  H20S16509   4.974   5.736   8.754 -3.6985 -0.6744  1.8736
  149SAPE  H20T16510   4.992   5.785   8.586  3.0136 -2.0476  1.9813
  149SAPE   C3316511   4.996   5.660  10.176 -0.4823  0.4971  0.5740
  149SAPE   H3X16512   5.059   5.750  10.164 -0.8525  0.5553 -1.1322
  149SAPE   H3Y16513   4.892   5.693  10.156 -1.1872 -1.7791  0.0855
  149SAPE   C3416514   5.049   5.570  10.063 -0.1014 -0.1707  0.9260
  149SAPE   H4X16515   4.998   5.472  10.057  2.5005 -1.5320 -2.6940
  149SAPE   H4Y16516   5.160   5.566  10.060 -0.0909 -1.0126  1.9891
  149SAPE   C3516517   5.007   5.628   9.923 -0.3338  0.3337 -0.3534
  149SAPE   H5X16518   5.048   5.729   9.905  0.2335  0.2734  0.5590
  149SAPE   H5Y16519   4.896   5.638   9.929 -0.9633 -4.5726  1.0155
  149SAPE   C3616520   5.041   5.540   9.797  0.1167 -0.1154 -0.1476
  149SAPE   H6X16521   4.971   5.455   9.785 -0.8046  0.5692  0.2802
  149SAPE   H6Y16522   5.144   5.506   9.821  0.6512  2.2998  1.2838
  149SAPE   C3716523   5.046   5.607   9.656  0.6320  0.2193 -1.1201
  149SAPE   H7X16524   5.102   5.703   9.660 -0.6976  0.9763  0.7988
  149SAPE   H7Y16525   4.940   5.635   9.639  0.1702 -1.7334 -1.6737
  149SAPE   C3816526   5.085   5.514   9.552  0.4348  0.5049  0.0407
  149SAPE   H8X16527   5.016   5.428   9.539  1.7118 -0.4861 -0.4417
  149SAPE   H8Y16528   5.177   5.462   9.588 -0.9110 -3.3386 -1.5622
  149SAPE   C3916529   5.102   5.584   9.423 -0.7278 -0.3481 -1.0897
  149SAPE   H9X16530   5.135   5.508   9.350 -1.4299 -0.1507 -1.6259
  149SAPE   H9Y16531   5.191   5.646   9.445 -0.6406 -1.4015  1.9195
  149SAPE  C31016532   4.987   5.674   9.366 -0.6268  0.8102  0.2478
  149SAPE  H10X16533   4.990   5.772   9.419 -1.1253  0.7890  0.3096
  149SAPE  H10Y16534   4.893   5.615   9.368 -0.7306  0.7172 -2.4983
  149SAPE  C31116535   5.019   5.698   9.206  0.2998 -0.0834  0.1613
  149SAPE  H11X16536   4.947   5.767   9.157 -0.7890 -3.0444 -2.7520
  149SAPE  H11Y16537   5.010   5.600   9.155  1.1884 -1.3032  2.2187
  149SAPE  C31216538   5.160   5.756   9.187  0.6506  0.0052  0.4096
  149SAPE  H12X16539   5.235   5.682   9.223 -0.1117 -2.8845 -3.2262
  149SAPE  H12Y16540   5.182   5.856   9.230  2.1967  0.7190 -1.8382
  149SAPE  C31316541   5.188   5.768   9.038 -0.0625 -0.3703 -0.1409
  149SAPE  H13X16542   5.163   5.866   8.993 -0.5393 -0.1470  0.5883
  149SAPE  H13Y16543   5.133   5.690   8.980  1.8237 -0.7628 -1.5241
  149SAPE  C31416544   5.335   5.750   8.999 -0.1634  0.0226 -0.3219
  149SAPE  H14X16545   5.402   5.820   9.055 -1.6142  0.2942  1.1394
  149SAPE  H14Y16546   5.334   5.789   8.895  0.9230 -1.2066 -0.8255
  149SAPE  C31516547   5.384   5.601   9.012 -0.1546  0.6865 -0.5446
  149SAPE  H15X16548   5.330   5.522   8.956  0.1564 -0.6574  0.9657
  149SAPE  H15Y16549   5.375   5.574   9.119 -0.6966  0.4982 -0.6351
  149SAPE  C31616550   5.535   5.581   8.971  0.5655 -0.4475 -0.0410
  149SAPE  H16X16551   5.562   5.645   8.884  2.2879  0.4989  1.1296
  149SAPE  H16Y16552   5.561   5.477   8.943  3.5811  0.0755  0.4364
  149SAPE  C31716553   5.643   5.614   9.070 -0.6832  0.2494 -0.7875
  149SAPE  H17X16554   5.655   5.539   9.150  2.6909 -0.2057 -1.5707
  149SAPE  H17Y16555   5.624   5.709   9.124 -0.4273  0.5495 -1.2187
  149SAPE  C31816556   5.782   5.606   9.015 -0.8305  0.0321  0.5633
  149SAPE  H18X16557   5.808   5.502   8.985  2.2315  0.9933 -0.4583
  149SAPE  H18Y16558   5.860   5.637   9.088  1.3960  0.8027 -1.9548
  149SAPE  H18Z16559   5.794   5.672   8.926  0.7799 -3.6678 -2.2957
  150SAPE     N16560   0.690   0.863  10.384 -0.1018  0.3411  0.3294
  150SAPE   HN116561   0.610   0.815  10.339 -1.8550  0.1989  3.3403
  150SAPE   HN216562   0.652   0.933  10.451 -1.3706  0.1304 -0.1592
  150SAPE   HN316563   0.753   0.913  10.317  1.6642  2.2622  3.1808
  150SAPE   C1216564   0.776   0.753  10.437  0.5666 -1.1242  0.2878
  150SAPE  H12A16565   0.810   0.694  10.349  0.2064  0.2328 -0.7973
  150SAPE  H12B16566   0.710   0.692  10.503 -0.5482 -0.1908  0.0625
  150SAPE   C1116567   0.887   0.809  10.525  0.2480  0.3125  0.2147
  150SAPE  H11A16568   0.860   0.823  10.632  2.9514  1.8172  0.8089
  150SAPE  H11B16569   0.903   0.912  10.486  0.5873  0.8101  1.5729
  150SAPE     P16570   1.009   0.577  10.543 -0.7860 -0.3917 -0.5063
  150SAPE   O1316571   1.148   0.555  10.595  0.3045  0.4472  0.2582
  150SAPE   O1416572   0.898   0.544  10.631  0.2245  0.1050 -0.1401
  150SAPE   O1216573   1.005   0.728  10.517  0.3234  0.3013  0.3486
  150SAPE   O1116574   0.994   0.527  10.396 -0.6379 -0.3245  0.2892
  150SAPE    C116575   1.065   0.599  10.291  0.1689 -0.7894  0.1120
  150SAPE    HA16576   1.039   0.707  10.288  0.5842 -0.7039 -1.1403
  150SAPE    HB16577   1.174   0.598  10.311  0.1445  1.3275  0.5652
  150SAPE    C216578   1.051   0.538  10.148  0.2472  0.1305 -0.0988
  150SAPE    HS16579   1.117   0.594  10.077  0.7855  0.2270  0.4730
  150SAPE   O2116580   0.912   0.539  10.124 -0.4670  0.1072  0.4430
  150SAPE   C2116581   0.877   0.541  10.003 -0.3420  0.3867  0.6355
  150SAPE   O2216582   0.951   0.543   9.906 -0.7211  0.5877  0.2797
  150SAPE   C2216583   0.726   0.569   9.998 -0.1360 -0.0528  0.1114
  150SAPE   H2R16584   0.679   0.509  10.079  2.2377 -0.9071  0.9634
  150SAPE   H2S16585   0.729   0.678  10.021 -1.1074 -0.2162  1.1130
  150SAPE    C316586   1.110   0.394  10.158 -0.0993 -0.0476 -0.1890
  150SAPE    HX16587   1.054   0.334  10.233  1.3547  0.7862  1.6618
  150SAPE    HY16588   1.212   0.395  10.201 -1.0135 -0.4734  2.1160
  150SAPE   O3116589   1.101   0.342  10.024  0.9748 -0.1445  0.0414
  150SAPE   C3116590   1.201   0.361   9.944 -0.1820  0.3752 -0.1157
  150SAPE   O3216591   1.305   0.412   9.973 -0.5618 -0.7368  0.6503
  150SAPE   C3216592   1.153   0.318   9.804  0.1764 -0.5469  0.3887
  150SAPE   H2X16593   1.077   0.394   9.779  1.0112  0.4739  0.8825
  150SAPE   H2Y16594   1.102   0.219   9.801 -0.7028 -0.1053  0.4887
  150SAPE   C2316595   0.669   0.530   9.862  0.2787  0.4094  0.0928
  150SAPE   H3R16596   0.694   0.424   9.840  0.9324  0.9074 -1.7536
  150SAPE   H3S16597   0.723   0.581   9.779  0.9282 -0.0420  0.2270
  150SAPE   C2416598   0.511   0.561   9.854  0.4837  0.5774 -0.1851
  150SAPE   H4R16599   0.502   0.670   9.873  0.7105  0.6278 -0.3694
  150SAPE   H4S16600   0.472   0.507   9.943  1.8627  0.3226  0.2979
  150SAPE   C2516601   0.440   0.517   9.732 -0.5415  0.0068 -0.5056
  150SAPE   H5R16602   0.478   0.423   9.688 -1.4530 -1.5371  1.8151
  150SAPE   C2616603   0.325   0.562   9.675 -0.3424  0.5519 -0.4396
  150SAPE   H6R16604   0.300   0.509   9.582  2.4196 -2.5630  0.3830
  150SAPE   C2716605   0.243   0.681   9.716 -1.2077  0.4829 -0.0247
  150SAPE   H7R16606   0.301   0.755   9.775 -1.3374  0.2476  0.4071
  150SAPE   H7S16607   0.172   0.647   9.795  1.3814 -0.3273  2.0782
  150SAPE   C2816608   0.181   0.752   9.600  0.3105 -0.2306  0.4163
  150SAPE   H8R16609   0.071   0.759   9.598  0.4060  3.3612  1.0909
  150SAPE   C2916610   0.245   0.828   9.507 -0.6109  0.1544 -0.5864
  150SAPE   H9R16611   0.188   0.875   9.425  1.4357  2.0143 -1.0230
  150SAPE  C21016612   0.392   0.843   9.505 -0.4678  0.2521  0.1545
  150SAPE  H10R16613   0.430   0.746   9.467 -1.3061 -0.2924  0.6595
  150SAPE  H10S16614   0.440   0.855   9.604 -0.3164  1.2853 -0.0279
  150SAPE  C21116615   0.439   0.958   9.417  0.9784 -0.2995 -0.2795
  150SAPE  H11R16616   0.421   1.053   9.468 -2.5894 -0.9716 -0.0399
  150SAPE  C21216617   0.479   0.948   9.287  0.4747  0.3189  0.2431
  150SAPE  H12R16618   0.495   1.034   9.221  0.0480  0.0041 -0.2832
  150SAPE  C21316619   0.501   0.822   9.206 -0.2326  0.1507  0.3410
  150SAPE  H13R16620   0.474   0.728   9.259  0.8979  0.5801  1.7490
  150SAPE  H13S16621   0.608   0.799   9.189 -0.1003  0.4432  0.7640
  150SAPE  C21416622   0.450   0.832   9.067  0.4214  0.6519 -0.2103
  150SAPE  H14R16623   0.444   0.930   9.018  0.5536  1.7973  1.9437
  150SAPE  C21516624   0.414   0.734   8.981  0.6809  0.1553 -0.5569
  150SAPE  H15R16625   0.373   0.765   8.884 -2.3721 -0.4321  0.4380
  150SAPE  C21616626   0.415   0.580   9.006 -0.4197  0.1526  0.5743
  150SAPE  H16R16627   0.384   0.555   9.110  0.4375  0.7408  0.9759
  150SAPE  H16S16628   0.519   0.543   8.995 -0.3864 -0.2663  2.1670
  150SAPE  C21716629   0.313   0.516   8.905 -0.2916  0.4945 -0.1433
  150SAPE  H17R16630   0.358   0.531   8.804  1.1287 -1.6431  0.1240
  150SAPE  H17S16631   0.212   0.561   8.922  0.1509  1.3381  0.3192
  150SAPE  C21816632   0.302   0.362   8.917 -0.8559 -0.1461  0.2111
  150SAPE  H18R16633   0.410   0.338   8.909 -0.4563  1.4142  0.6213
  150SAPE  H18S16634   0.252   0.321   8.826  0.4629  1.7829 -1.4657
  150SAPE  C21916635   0.255   0.292   9.052  0.9993  0.1888  0.1940
  150SAPE  H19R16636   0.157   0.341   9.073  1.4104  0.3866  1.8519
  150SAPE  H19S16637   0.312   0.336   9.137 -0.7929  1.2145  0.9415
  150SAPE  C22016638   0.251   0.144   9.054  0.2172  0.1190 -0.7526
  150SAPE  H20R16639   0.353   0.101   9.064  0.5933  1.1138 -0.2120
  150SAPE  H20S16640   0.207   0.107   8.959 -2.0845  1.5738 -0.3315
  150SAPE  H20T16641   0.189   0.102   9.137  0.7885  0.9614  0.1243
  150SAPE   C3316642   1.258   0.327   9.688  0.7619 -0.3273 -0.4397
  150SAPE   H3X16643   1.344   0.261   9.713 -0.3150 -1.1483  1.3101
  150SAPE   H3Y16644   1.296   0.431   9.685  4.1294 -1.2298  2.7437
  150SAPE   C3416645   1.206   0.269   9.557  0.2123 -0.3450  0.0013
  150SAPE   H4X16646   1.103   0.309   9.545 -1.0845 -3.1673  0.8240
  150SAPE   H4Y16647   1.204   0.158   9.553 -0.4694 -0.3017 -1.3592
  150SAPE   C3516648   1.279   0.328   9.433  0.4563  0.3252  0.0207
  150SAPE   H5X16649   1.380   0.282   9.420  0.6022  1.1331 -1.9691
  150SAPE   H5Y16650   1.291   0.436   9.455  3.4454 -0.0845  0.8848
  150SAPE   C3616651   1.203   0.306   9.295 -0.2282 -0.6575 -0.4900
  150SAPE   H6X16652   1.097   0.340   9.302 -0.5896 -0.8973 -3.5710
  150SAPE   H6Y16653   1.208   0.205   9.251  1.7036 -0.5973 -0.4707
  150SAPE   C3716654   1.277   0.386   9.187 -0.6414  0.2703 -0.8509
  150SAPE   H7X16655   1.384   0.357   9.196 -0.6145  0.2799 -1.1179
  150SAPE   H7Y16656   1.274   0.494   9.213 -0.9132  0.4995 -1.7991
  150SAPE   C3816657   1.219   0.363   9.049  0.3628  0.1656  0.1547
  150SAPE   H8X16658   1.110   0.381   9.038  0.2784 -0.7899 -0.6889
  150SAPE   H8Y16659   1.254   0.262   9.019 -0.3115  0.4369 -1.6960
  150SAPE   C3916660   1.289   0.459   8.950  0.7689  0.3180 -1.2537
  150SAPE   H9X16661   1.399   0.442   8.948  0.6092 -1.1376  0.4424
  150SAPE   H9Y16662   1.266   0.565   8.976  0.7618  0.6323 -2.4919
  150SAPE  C31016663   1.229   0.434   8.808  0.1062  0.6159 -0.2024
  150SAPE  H10X16664   1.126   0.475   8.816 -0.1809 -0.1042 -0.0709
  150SAPE  H10Y16665   1.230   0.323   8.795  2.0169  0.5759 -0.0694
  150SAPE  C31116666   1.305   0.507   8.703 -1.1103  0.2839  0.1945
  150SAPE  H11X16667   1.411   0.472   8.708 -0.4632  1.9541 -0.8142
  150SAPE  H11Y16668   1.315   0.617   8.715 -2.0681  0.2487  1.5901
  150SAPE  C31216669   1.255   0.474   8.560 -0.0012 -0.1580  0.2406
  150SAPE  H12X16670   1.151   0.514   8.564  0.0260 -0.0038 -0.5040
  150SAPE  H12Y16671   1.243   0.365   8.543  1.1562  0.0538 -2.3706
  150SAPE  C31316672   1.329   0.538   8.447 -0.4232  0.0076 -0.2637
  150SAPE  H13X16673   1.425   0.484   8.431 -1.9058 -2.6221 -0.8454
  150SAPE  H13Y16674   1.352   0.645   8.464 -0.6846  0.2140 -1.1369
  150SAPE  C31416675   1.239   0.527   8.316 -0.3548  0.4144 -0.0152
  150SAPE  H14X16676   1.157   0.602   8.312 -1.3279 -0.4996  1.7999
  150SAPE  H14Y16677   1.195   0.426   8.304 -2.4080  1.1719  0.6992
  150SAPE  C31516678   1.324   0.549   8.192  0.0449  0.1426 -0.0410
  150SAPE  H15X16679   1.402   0.470   8.187 -1.3547 -1.4274  1.4604
  150SAPE  H15Y16680   1.387   0.640   8.201  1.6417 -0.2526 -4.6916
  150SAPE  C31616681   1.243   0.573   8.063 -0.3216  0.7495  0.8021
  150SAPE  H16X16682   1.179   0.657   8.098 -2.1562 -0.4839  0.5329
  150SAPE  H16Y16683   1.178   0.487   8.038 -0.7599  1.9041 -2.4960
  150SAPE  C31716684   1.330   0.594   7.943 -0.7810  0.8063 -0.5049
  150SAPE  H17X16685   1.369   0.495   7.911  0.5340  0.7031  1.2879
  150SAPE  H17Y16686   1.426   0.648   7.961 -0.2666  1.0006 -3.2774
  150SAPE  C31816687   1.259   0.656   7.828 -0.4114  0.1631 -0.5370
  150SAPE  H18X16688   1.157   0.612   7.832  0.4147 -1.8948 -0.9833
  150SAPE  H18Y16689   1.296   0.614   7.732 -0.4791  1.6517 -1.2571
  150SAPE  H18Z16690   1.262   0.767   7.829 -1.6230  0.3105  3.1833
  151SAPE     N16691   5.842   3.411  10.645 -0.6228 -0.6992 -0.3001
  151SAPE   HN116692   5.933   3.362  10.657 -0.2010 -0.3026 -1.7761
  151SAPE   HN216693   5.765   3.341  10.649 -1.2820  0.0318  0.2008
  151SAPE   HN316694   5.836   3.452  10.550 -3.4066 -2.6257 -1.1095
  151SAPE   C1216695   5.821   3.527  10.738 -0.4210  0.5317  0.0101
  151SAPE  H12A16696   5.834   3.476  10.836  1.6492  1.6150  0.3503
  151SAPE  H12B16697   5.715   3.557  10.726 -0.0882  2.6522  1.7397
  151SAPE   C1116698   5.922   3.638  10.704 -0.1224  0.6374  0.6436
  151SAPE  H11A16699   6.026   3.615  10.735 -0.1666  0.1164  0.4082
  151SAPE  H11B16700   5.896   3.736  10.750  0.6262  2.3468 -2.3169
  151SAPE     P16701   5.861   3.781  10.489  0.6031  0.4586  0.2110
  151SAPE   O1316702   5.718   3.768  10.500 -0.2649  0.1253  0.1349
  151SAPE   O1416703   5.918   3.908  10.543  0.1624  0.0692 -0.0810
  151SAPE   O1216704   5.925   3.652  10.564  0.1994  0.5176 -0.6279
  151SAPE   O1116705   5.892   3.762  10.332  0.7424  0.4043  0.5501
  151SAPE    C116706   6.030   3.725  10.300  0.1795 -0.1149 -0.1874
  151SAPE    HA16707   6.093   3.804  10.345  0.4278 -0.4858  0.1089
  151SAPE    HB16708   6.058   3.627  10.343  0.6206 -0.7019 -1.7342
  151SAPE    C216709   6.044   3.718  10.141 -0.5259  0.3102 -0.1163
  151SAPE    HS16710   6.151   3.696  10.124 -0.8347 -0.5497 -1.0038
  151SAPE   O2116711   6.003   3.853  10.095 -0.2754  0.2576  0.1322
  151SAPE   C2116712   6.101   3.932  10.087 -0.1332 -0.6375 -0.5848
  151SAPE   O2216713   6.212   3.920  10.131 -0.8058  0.0696 -0.0301
  151SAPE   C2216714   6.056   4.062  10.034 -0.6444 -0.9130  0.0395
  151SAPE   H2R16715   5.949   4.075  10.060 -0.4803  0.3922  0.1579
  151SAPE   H2S16716   6.096   4.145  10.097 -1.7678 -0.6905  0.4823
  151SAPE    C316717   5.948   3.617  10.074  0.0550  0.4604 -0.7962
  151SAPE    HX16718   5.855   3.676  10.066  1.4322  2.4782 -3.6731
  151SAPE    HY16719   5.944   3.527  10.138  1.1869  2.4667  2.3200
  151SAPE   O3116720   5.997   3.588   9.945 -0.8002  0.1003  0.0288
  151SAPE   C3116721   5.931   3.489   9.879 -0.6854 -0.5170  0.4986
  151SAPE   O3216722   5.840   3.425   9.929  0.4043  0.0927  0.0581
  151SAPE   C3216723   5.968   3.477   9.727 -0.5604 -0.3758  0.3239
  151SAPE   H2X16724   5.867   3.493   9.683 -0.4822 -2.4133 -0.6986
  151SAPE   H2Y16725   6.004   3.374   9.706 -0.2903 -0.1576 -0.3009
  151SAPE   C2316726   6.113   4.080   9.889 -0.5281 -0.3290  0.6728
  151SAPE   H3R16727   6.222   4.071   9.908 -0.4806 -0.5628  0.3127
  151SAPE   H3S16728   6.108   4.185   9.853  0.6223 -0.1303  1.0515
  151SAPE   C2416729   6.081   3.966   9.790 -0.2851 -0.6553  0.1094
  151SAPE   H4R16730   6.141   3.877   9.819  1.3591 -0.0074 -1.1321
  151SAPE   H4S16731   6.119   3.986   9.687 -0.0052 -0.5902  0.2246
  151SAPE   C2516732   5.935   3.937   9.771  0.2345 -0.5429  0.6612
  151SAPE   H5R16733   5.904   3.899   9.869 -2.0491  1.4316  0.7876
  151SAPE   C2616734   5.858   3.955   9.664  0.4725 -0.1129 -0.2857
  151SAPE   H6R16735   5.749   3.953   9.679  0.2823  2.4731 -0.9469
  151SAPE   C2716736   5.903   3.994   9.532  0.0291 -1.1341 -0.0161
  151SAPE   H7R16737   5.987   4.067   9.534 -0.2684 -0.7662 -0.6173
  151SAPE   H7S16738   5.830   4.066   9.487  2.9064  1.5657 -0.7369
  151SAPE   C2816739   5.936   3.880   9.440 -0.8218  0.2081 -0.7990
  151SAPE   H8R16740   5.863   3.797   9.441  1.4406 -1.8868 -0.7251
  151SAPE   C2916741   6.032   3.877   9.341 -0.2841  0.0262 -1.4357
  151SAPE   H9R16742   6.048   3.783   9.286 -1.0178 -0.2740 -1.1564
  151SAPE  C21016743   6.132   3.982   9.293  0.1758 -0.0994 -0.0801
  151SAPE  H10R16744   6.183   4.027   9.381 -1.0498  1.2824 -0.0340
  151SAPE  H10S16745   6.072   4.066   9.252  0.6818 -0.3181 -1.3141
  151SAPE  C21116746   6.252   3.934   9.209  0.3006 -0.2168 -0.3373
  151SAPE  H11R16747   6.348   3.921   9.260  1.7323 -0.9508 -3.0560
  151SAPE  C21216748   6.251   3.902   9.076 -0.0140  0.6650 -0.2257
  151SAPE  H12R16749   6.340   3.875   9.017 -0.6738  1.1366 -1.4647
  151SAPE  C21316750   6.137   3.904   8.980  0.4290  0.1838 -0.1561
  151SAPE  H13R16751   6.046   3.869   9.032 -0.2044 -0.6126 -1.7470
  151SAPE  H13S16752   6.152   3.836   8.894  1.1766  2.0174 -1.5575
  151SAPE  C21416753   6.115   4.045   8.919  0.2206 -0.6226  0.4187
  151SAPE  H14R16754   6.102   4.129   8.989 -0.6731 -0.1640 -0.2776
  151SAPE  C21516755   6.108   4.075   8.792  0.0412  0.2851  0.2157
  151SAPE  H15R16756   6.109   4.181   8.764 -2.1021  0.6113  1.2305
  151SAPE  C21616757   6.114   3.978   8.670  0.4787 -0.3107  0.3642
  151SAPE  H16R16758   6.013   3.973   8.623  1.2707 -1.3411 -1.3571
  151SAPE  H16S16759   6.145   3.873   8.692  1.3042 -0.2873 -0.6131
  151SAPE  C21716760   6.222   4.031   8.572  0.4427  0.2119 -0.3918
  151SAPE  H17R16761   6.315   4.027   8.632  1.1323  1.5566 -1.2847
  151SAPE  H17S16762   6.212   4.141   8.554  0.8617  0.4662  0.8511
  151SAPE  C21816763   6.239   3.950   8.444  0.8052  0.1808 -0.0035
  151SAPE  H18R16764   6.136   3.925   8.410  0.7224 -1.0322  1.0683
  151SAPE  H18S16765   6.288   3.853   8.469 -0.3397 -0.6070 -0.6926
  151SAPE  C21916766   6.319   4.024   8.328  0.8067 -0.3040 -0.3156
  151SAPE  H19R16767   6.421   4.051   8.365  1.2284  0.5765 -1.9963
  151SAPE  H19S16768   6.271   4.122   8.305 -1.0195 -0.8299  1.0780
  151SAPE  C22016769   6.318   3.939   8.202  0.5455  0.1722  0.1586
  151SAPE  H20R16770   6.379   3.986   8.122 -0.0898 -0.2161 -0.5816
  151SAPE  H20S16771   6.217   3.924   8.157  0.6727  0.0531 -0.0925
  151SAPE  H20T16772   6.354   3.835   8.218 -0.5065 -0.1037  0.8266
  151SAPE   C3316773   6.070   3.589   9.679  0.8107  0.8027 -0.0960
  151SAPE   H3X16774   6.151   3.611   9.752 -0.1101  2.3674  0.4865
  151SAPE   H3Y16775   6.010   3.679   9.656  0.2197 -0.0928 -2.3316
  151SAPE   C3416776   6.135   3.548   9.550 -0.0108 -0.0082  0.1051
  151SAPE   H4X16777   6.065   3.557   9.464 -0.0134  1.3758  0.2273
  151SAPE   H4Y16778   6.160   3.440   9.557  1.3196  0.1978 -1.0726
  151SAPE   C3516779   6.263   3.627   9.529 -0.2539 -0.0871 -0.0604
  151SAPE   H5X16780   6.336   3.618   9.613  0.9593  0.2347 -1.0618
  151SAPE   H5Y16781   6.242   3.736   9.531 -0.1569 -0.0647  1.7423
  151SAPE   C3616782   6.333   3.590   9.395 -0.6090 -0.6309  0.7430
  151SAPE   H6X16783   6.271   3.614   9.306 -0.0962 -0.1686  0.5020
  151SAPE   H6Y16784   6.349   3.480   9.398 -1.2492 -0.7300  0.5570
  151SAPE   C3716785   6.471   3.654   9.375  0.4156 -0.2926  0.0587
  151SAPE   H7X16786   6.549   3.596   9.428 -1.2165 -0.9556  1.8184
  151SAPE   H7Y16787   6.464   3.755   9.421 -1.7711 -0.0775 -0.6196
  151SAPE   C3816788   6.504   3.659   9.225  0.0259 -0.8531 -0.2220
  151SAPE   H8X16789   6.586   3.732   9.202  0.0808 -1.0939 -0.8264
  151SAPE   H8Y16790   6.414   3.693   9.170 -0.5943 -2.2984 -0.1401
  151SAPE   C3916791   6.537   3.521   9.162  0.4757  0.8737 -0.4091
  151SAPE   H9X16792   6.463   3.448   9.200  1.5678 -1.0243 -1.7394
  151SAPE   H9Y16793   6.636   3.490   9.202  0.9124  1.5483 -0.9356
  151SAPE  C31016794   6.543   3.521   9.005  0.3447 -0.1282 -1.2637
  151SAPE  H10X16795   6.621   3.452   8.966 -0.7439 -2.8283  0.9940
  151SAPE  H10Y16796   6.587   3.619   8.977  0.7725 -0.4352 -1.6786
  151SAPE  C31116797   6.404   3.522   8.940  0.3221  0.1829  0.2156
  151SAPE  H11X16798   6.323   3.570   8.999 -2.1140 -2.6574 -0.6137
  151SAPE  H11Y16799   6.375   3.416   8.925  0.3036 -0.4137  3.6054
  151SAPE  C31216800   6.404   3.593   8.798  0.1329  0.1867  0.3411
  151SAPE  H12X16801   6.479   3.535   8.739 -1.0430 -1.2814  0.2209
  151SAPE  H12Y16802   6.432   3.699   8.815 -0.1085  0.3561 -0.2683
  151SAPE  C31316803   6.267   3.579   8.727  0.3050 -1.0368 -0.0786
  151SAPE  H13X16804   6.188   3.645   8.769  2.2230  0.0883  2.0085
  151SAPE  H13Y16805   6.229   3.476   8.747  2.2978 -1.3663  2.5714
  151SAPE  C31416806   6.266   3.581   8.572  0.2174 -0.6679  0.1484
  151SAPE  H14X16807   6.369   3.606   8.538  0.2694 -2.7516 -1.4084
  151SAPE  H14Y16808   6.202   3.665   8.539 -0.0992 -0.9283  0.0936
  151SAPE  C31516809   6.228   3.445   8.502  0.4104 -0.5653 -0.3820
  151SAPE  H15X16810   6.141   3.405   8.558  1.5606  0.0534  1.9804
  151SAPE  H15Y16811   6.305   3.374   8.542  1.4373  0.8818  0.2881
  151SAPE  C31616812   6.211   3.461   8.356 -0.2259  0.3419 -0.2856
  151SAPE  H16X16813   6.296   3.490   8.291  0.4285 -0.9107 -0.0107
  151SAPE  H16Y16814   6.149   3.553   8.347  1.1648  1.2148 -1.3632
  151SAPE  C31716815   6.127   3.353   8.295  0.7628  0.3339  0.4863
  151SAPE  H17X16816   6.084   3.391   8.200 -2.5378 -1.2920  1.2098
  151SAPE  H17Y16817   6.031   3.335   8.347 -0.3574  1.5808 -1.0834
  151SAPE  C31816818   6.203   3.225   8.277  0.3540 -0.6742 -0.1541
  151SAPE  H18X16819   6.132   3.140   8.285 -3.5969  2.3341 -0.0351
  151SAPE  H18Y16820   6.282   3.225   8.356 -0.0322  1.6720  0.3146
  151SAPE  H18Z16821   6.264   3.234   8.185  2.4735  2.7508  1.3848
  152SAPE     N16822   4.457   3.927  10.305 -1.1383 -0.0945 -0.1534
  152SAPE   HN116823   4.459   3.849  10.237  0.2626 -1.0016  0.8534
  152SAPE   HN216824   4.398   4.002  10.266 -1.1395 -0.7000 -1.3709
  152SAPE   HN316825   4.555   3.961  10.318 -1.6289  1.0101  0.9244
  152SAPE   C1216826   4.413   3.869  10.434  0.8253 -0.5301 -0.3715
  152SAPE  H12A16827   4.329   3.925  10.480  1.8806 -0.5778  1.7731
  152SAPE  H12B16828   4.504   3.873  10.498  0.0217 -0.9988  0.8370
  152SAPE   C1116829   4.372   3.719  10.409 -0.5288 -1.2384 -0.6800
  152SAPE  H11A16830   4.364   3.661  10.504  1.4021  0.7218  0.8044
  152SAPE  H11B16831   4.455   3.665  10.358 -0.7915 -1.7153 -0.6104
  152SAPE     P16832   4.119   3.697  10.358  0.0985  0.0518  0.2920
  152SAPE   O1316833   4.111   3.556  10.407 -0.0768  0.1777 -0.1796
  152SAPE   O1416834   4.078   3.805  10.453  0.1758  0.0339  0.1140
  152SAPE   O1216835   4.265   3.724  10.324 -0.5566 -0.1586  0.6584
  152SAPE   O1116836   4.038   3.712  10.219  0.1582  0.1672  0.3687
  152SAPE    C116837   4.005   3.846  10.173 -0.2622  0.3377  0.6439
  152SAPE    HA16838   3.896   3.857  10.189 -0.6232 -1.0630 -0.6212
  152SAPE    HB16839   4.055   3.932  10.224 -3.1329  1.3948  1.9287
  152SAPE    C216840   4.022   3.870  10.015 -0.4537  0.6763  0.6441
  152SAPE    HS16841   3.968   3.963   9.987  0.2233  0.9850  0.3597
  152SAPE   O2116842   3.991   3.748   9.939  0.4676 -0.3393  0.1425
  152SAPE   C2116843   3.855   3.735   9.926 -0.3644 -0.0939  0.7462
  152SAPE   O2216844   3.775   3.808   9.973  0.0454  0.1350 -0.3301
  152SAPE   C2216845   3.827   3.612   9.846  0.1640 -0.1570 -0.5626
  152SAPE   H2R16846   3.903   3.534   9.869  0.2620  0.4273  1.1766
  152SAPE   H2S16847   3.723   3.575   9.860 -0.0193 -0.1238 -1.7329
  152SAPE    C316848   4.172   3.898   9.991  0.5843 -0.6813 -0.3615
  152SAPE    HX16849   4.225   3.806  10.025  0.7294 -0.7577 -0.7824
  152SAPE    HY16850   4.214   3.978  10.055 -1.2117 -0.7024  0.9173
  152SAPE   O3116851   4.214   3.908   9.854  0.0472  0.0116 -0.9855
  152SAPE   C3116852   4.203   4.032   9.807 -0.3815  0.4591  0.4257
  152SAPE   O3216853   4.155   4.123   9.870 -0.4108  0.2233 -0.1961
  152SAPE   C3216854   4.251   4.041   9.657  0.2626 -0.3634 -0.4316
  152SAPE   H2X16855   4.159   4.044   9.595  0.4311 -1.2266 -0.7321
  152SAPE   H2Y16856   4.296   3.943   9.634 -1.4419 -1.2535 -0.1341
  152SAPE   C2316857   3.838   3.645   9.699  0.2025 -0.2902  0.1239
  152SAPE   H3R16858   3.833   3.548   9.645  1.3198 -1.6969  2.3772
  152SAPE   H3S16859   3.929   3.703   9.672  1.5539 -2.4110 -0.2102
  152SAPE   C2416860   3.724   3.734   9.641 -0.0006 -0.4009  0.1967
  152SAPE   H4R16861   3.734   3.762   9.534 -2.7139 -2.2978 -0.6480
  152SAPE   H4S16862   3.714   3.817   9.715 -0.3739 -1.1174  0.9755
  152SAPE   C2516863   3.597   3.655   9.655  1.4794  0.1471  0.2999
  152SAPE   H5R16864   3.558   3.670   9.757  1.1702 -1.0548  0.3669
  152SAPE   C2616865   3.527   3.565   9.577 -0.4770 -0.2569 -0.0745
  152SAPE   H6R16866   3.442   3.501   9.607 -0.0021 -1.0848 -0.4594
  152SAPE   C2716867   3.574   3.523   9.442 -0.1676 -0.3716  0.3278
  152SAPE   H7R16868   3.624   3.424   9.449 -3.5002 -2.2842 -0.5664
  152SAPE   H7S16869   3.633   3.608   9.401 -2.8017  1.8219  0.8138
  152SAPE   C2816870   3.449   3.492   9.361  0.0276  0.8533  0.3220
  152SAPE   H8R16871   3.393   3.405   9.398  1.9505 -0.0358  1.2845
  152SAPE   C2916872   3.405   3.575   9.263  0.2999 -0.4930  0.0084
  152SAPE   H9R16873   3.321   3.549   9.196  0.8325  2.1394 -1.8517
  152SAPE  C21016874   3.464   3.706   9.207  0.5173 -0.0458  0.0717
  152SAPE  H10R16875   3.437   3.784   9.281  0.9797  0.6363 -0.4642
  152SAPE  H10S16876   3.411   3.743   9.116  2.1876  0.6656 -0.6465
  152SAPE  C21116877   3.613   3.720   9.179  0.1255  0.1013 -0.4024
  152SAPE  H11R16878   3.662   3.774   9.261 -2.7737 -2.5442  3.5217
  152SAPE  C21216879   3.685   3.666   9.070  0.2639 -0.2575 -0.3964
  152SAPE  H12R16880   3.795   3.676   9.062  0.2439  2.4620  1.3012
  152SAPE  C21316881   3.616   3.596   8.953  0.0514  0.0852 -0.5839
  152SAPE  H13R16882   3.565   3.667   8.885 -0.5393  1.7469  1.4939
  152SAPE  H13S16883   3.521   3.546   8.983 -1.6243  2.5595 -1.5179
  152SAPE  C21416884   3.706   3.489   8.895 -0.1307  0.2248 -0.7362
  152SAPE  H14R16885   3.796   3.480   8.958 -2.0590  0.6898  2.2873
  152SAPE  C21516886   3.679   3.409   8.786 -0.3038  0.0204  0.3861
  152SAPE  H15R16887   3.755   3.336   8.756 -0.6059  0.0570 -0.4887
  152SAPE  C21616888   3.553   3.410   8.699 -0.0052  0.0859 -0.5735
  152SAPE  H16R16889   3.467   3.452   8.755  0.8355  2.1484 -0.7073
  152SAPE  H16S16890   3.522   3.308   8.670  0.5478 -0.0797 -0.5935
  152SAPE  C21716891   3.577   3.478   8.559 -0.1864  0.1385  0.2554
  152SAPE  H17R16892   3.661   3.435   8.499 -0.0015 -0.7249  1.1110
  152SAPE  H17S16893   3.618   3.576   8.593 -2.0583  0.9271  0.3563
  152SAPE  C21816894   3.452   3.514   8.474  0.0700  0.0517  0.2509
  152SAPE  H18R16895   3.380   3.559   8.545 -0.0921 -0.1213  0.1974
  152SAPE  H18S16896   3.398   3.425   8.435 -0.9177  0.9816 -0.5656
  152SAPE  C21916897   3.485   3.594   8.350  0.4260  0.1644 -0.5656
  152SAPE  H19R16898   3.387   3.619   8.303  0.2466  1.3059  0.3802
  152SAPE  H19S16899   3.526   3.517   8.281 -4.0093 -2.4163 -0.7411
  152SAPE  C22016900   3.565   3.717   8.366 -0.1015 -0.1946 -0.4175
  152SAPE  H20R16901   3.548   3.790   8.284 -0.2602 -0.7592 -0.8963
  152SAPE  H20S16902   3.676   3.713   8.378 -0.1977 -3.2179  0.1457
  152SAPE  H20T16903   3.525   3.773   8.453  0.0003  0.0371 -0.5185
  152SAPE   C3316904   4.350   4.161   9.646  0.1975 -0.0724 -0.3387
  152SAPE   H3X16905   4.443   4.140   9.704 -0.8476 -0.2758  1.3545
  152SAPE   H3Y16906   4.304   4.252   9.690  4.4056  2.5197 -0.7564
  152SAPE   C3416907   4.392   4.183   9.503 -0.0689  0.2233 -0.1055
  152SAPE   H4X16908   4.443   4.280   9.481  1.7326 -0.5455  0.4730
  152SAPE   H4Y16909   4.298   4.200   9.447 -1.6653  1.9201  2.8209
  152SAPE   C3516910   4.474   4.067   9.442  0.9116  0.4602 -0.8283
  152SAPE   H5X16911   4.407   3.991   9.396 -0.9790  3.0083 -2.5550
  152SAPE   H5Y16912   4.533   4.015   9.521  3.2733  1.9533 -1.4911
  152SAPE   C3616913   4.585   4.109   9.347 -0.3029  1.0921 -0.7764
  152SAPE   H6X16914   4.631   4.012   9.319 -3.0478 -0.7157  0.5095
  152SAPE   H6Y16915   4.633   4.185   9.412 -2.1922  1.0499  0.7301
  152SAPE   C3716916   4.537   4.177   9.218  0.5316  0.4221  0.3977
  152SAPE   H7X16917   4.616   4.239   9.170 -2.0211  1.8760 -2.3197
  152SAPE   H7Y16918   4.462   4.256   9.243  0.3361  0.6114 -0.7402
  152SAPE   C3816919   4.469   4.087   9.118  1.1309  0.5935 -0.1466
  152SAPE   H8X16920   4.376   4.047   9.164  1.0152  1.3094  0.2608
  152SAPE   H8Y16921   4.533   4.001   9.089 -0.1562 -0.8031  0.9669
  152SAPE   C3916922   4.430   4.176   8.997 -0.1483  0.0465 -0.3665
  152SAPE   H9X16923   4.521   4.202   8.940  0.4500  2.6242  1.5524
  152SAPE   H9Y16924   4.381   4.268   9.035 -1.4846 -1.6807  2.4502
  152SAPE  C31016925   4.336   4.103   8.896  0.4304  0.6344  0.4595
  152SAPE  H10X16926   4.322   4.172   8.810  2.7485  0.1799 -0.3793
  152SAPE  H10Y16927   4.234   4.076   8.931 -0.0461 -2.0980 -2.5688
  152SAPE  C31116928   4.408   3.973   8.841 -0.6569  0.2135 -0.2275
  152SAPE  H11X16929   4.439   3.910   8.927  1.4934 -0.2532 -1.2626
  152SAPE  H11Y16930   4.503   4.000   8.790 -0.5489  1.5351  0.6214
  152SAPE  C31216931   4.325   3.898   8.738  0.3677 -0.6681  0.1210
  152SAPE  H12X16932   4.222   3.883   8.778  0.3523 -0.8814 -0.0022
  152SAPE  H12Y16933   4.365   3.800   8.706  0.9019  0.1426 -1.8466
  152SAPE  C31316934   4.311   3.984   8.612  0.3008 -0.2989 -0.0805
  152SAPE  H13X16935   4.415   3.987   8.573 -0.2124 -0.5230 -1.5251
  152SAPE  H13Y16936   4.291   4.091   8.635 -1.6788 -0.9372  1.4211
  152SAPE  C31416937   4.205   3.934   8.510 -0.5464 -0.5226 -0.0109
  152SAPE  H14X16938   4.100   3.954   8.539 -1.4929 -2.0466 -2.1236
  152SAPE  H14Y16939   4.221   3.824   8.519  1.2630 -0.1628  1.9977
  152SAPE  C31516940   4.231   3.981   8.364  0.3823 -0.2091  0.4670
  152SAPE  H15X16941   4.153   3.927   8.305 -0.4222  1.0694  0.3340
  152SAPE  H15Y16942   4.331   3.950   8.327  0.3795  0.8815 -0.4957
  152SAPE  C31616943   4.212   4.133   8.352 -0.5130  1.0285  1.0534
  152SAPE  H16X16944   4.299   4.183   8.399  0.0509  0.9073  0.1594
  152SAPE  H16Y16945   4.119   4.157   8.408 -1.6435  1.5978 -0.9442
  152SAPE  C31716946   4.178   4.183   8.211 -0.0535  0.3025  0.4201
  152SAPE  H17X16947   4.086   4.132   8.178 -0.0385  0.3183  0.3553
  152SAPE  H17Y16948   4.259   4.158   8.139  0.8844 -0.1724  1.5878
  152SAPE  C31816949   4.155   4.332   8.212  0.0366  0.8497 -0.5537
  152SAPE  H18X16950   4.109   4.360   8.114  1.0884  0.3830 -1.1962
  152SAPE  H18Y16951   4.246   4.391   8.235  0.2305  0.1215  0.6413
  152SAPE  H18Z16952   4.086   4.362   8.294 -0.7237  0.4238 -1.0205
  153SAPE     N16953   5.805   4.170  10.820 -0.3440 -0.8173  0.8577
  153SAPE   HN116954   5.747   4.206  10.742  3.7258  2.0386 -1.1801
  153SAPE   HN216955   5.839   4.076  10.791 -2.4609 -1.7058  1.0369
  153SAPE   HN316956   5.759   4.162  10.913 -1.6141 -0.1032  0.3169
  153SAPE   C1216957   5.928   4.255  10.842 -0.4345  0.5237  0.1411
  153SAPE  H12A16958   6.002   4.199  10.904  0.3009 -0.0693 -1.2358
  153SAPE  H12B16959   5.890   4.333  10.911 -2.0193 -0.2146  0.1347
  153SAPE   C1116960   5.963   4.320  10.709  0.4147 -0.2631 -0.8392
  153SAPE  H11A16961   5.970   4.238  10.634 -0.4102  0.2154 -1.4641
  153SAPE  H11B16962   6.064   4.366  10.718 -0.7544  2.5580 -1.1048
  153SAPE     P16963   5.834   4.457  10.524  0.3906  0.2073 -0.4522
  153SAPE   O1316964   5.771   4.343  10.457 -0.6038 -0.3429  0.0081
  153SAPE   O1416965   5.761   4.586  10.516 -0.3879  0.7505 -0.3638
  153SAPE   O1216966   5.860   4.416  10.673  0.3926  0.1520  0.5381
  153SAPE   O1116967   5.978   4.470  10.457  0.0800  0.1904  0.2721
  153SAPE    C116968   6.062   4.575  10.499 -0.5099  0.1722  0.1538
  153SAPE    HA16969   6.029   4.607  10.600 -3.3062 -1.9414  0.0500
  153SAPE    HB16970   6.164   4.533  10.511  0.0986  1.7331  0.6023
  153SAPE    C216971   6.063   4.694  10.404  0.5579 -0.0023  0.4811
  153SAPE    HS16972   5.963   4.741  10.404  0.7041  0.3179  0.5767
  153SAPE   O2116973   6.110   4.652  10.268 -0.2672 -0.0982 -0.1323
  153SAPE   C2116974   6.019   4.629  10.183 -0.6127 -0.2124  0.2492
  153SAPE   O2216975   5.900   4.665  10.182  0.0893 -0.1996 -0.9128
  153SAPE   C2216976   6.089   4.545  10.071  0.7171  0.7097  0.3611
  153SAPE   H2R16977   6.142   4.606   9.995  2.2820 -2.6285 -1.4010
  153SAPE   H2S16978   6.161   4.474  10.117 -0.0915 -1.4924 -1.5677
  153SAPE    C316979   6.148   4.807  10.461 -0.3686 -0.3886 -0.0937
  153SAPE    HX16980   6.249   4.767  10.484  0.1146  0.6542 -0.3443
  153SAPE    HY16981   6.111   4.845  10.559 -0.1972  0.9770 -0.5461
  153SAPE   O3116982   6.165   4.909  10.360 -0.2585  0.0373 -0.2943
  153SAPE   C3116983   6.129   5.035  10.398  0.0895 -0.1302  0.9160
  153SAPE   O3216984   6.076   5.062  10.505 -0.2348  0.1207  0.0946
  153SAPE   C3216985   6.162   5.141  10.294 -0.8965  0.2705  0.5695
  153SAPE   H2X16986   6.226   5.213  10.349 -1.3073  0.7062  0.4812
  153SAPE   H2Y16987   6.068   5.190  10.260 -0.5777 -0.3241 -1.2883
  153SAPE   C2316988   5.984   4.460   9.986 -0.5340  0.4002 -0.1480
  153SAPE   H3R16989   5.911   4.428  10.064 -3.3174  0.3692 -2.6035
  153SAPE   H3S16990   6.033   4.366   9.952 -1.1922 -0.8275  2.0627
  153SAPE   C2416991   5.895   4.530   9.885 -0.6431  0.2979  0.7072
  153SAPE   H4R16992   5.968   4.553   9.804  0.4796 -1.2007  1.2637
  153SAPE   H4S16993   5.867   4.626   9.934 -1.2915 -0.0671  1.0510
  153SAPE   C2516994   5.772   4.454   9.838 -0.2905 -0.0994  0.4385
  153SAPE   H5R16995   5.687   4.454   9.907 -2.2977  1.8180 -1.8089
  153SAPE   C2616996   5.764   4.395   9.712  1.0307 -0.1272 -0.0208
  153SAPE   H6R16997   5.666   4.349   9.689  0.0922  0.8739  1.7221
  153SAPE   C2716998   5.863   4.381   9.606 -0.7829 -0.9625 -0.3487
  153SAPE   H7R16999   5.863   4.287   9.547 -0.5209 -0.4883 -1.1316
  153SAPE   H7S17000   5.959   4.366   9.660 -1.4469 -1.0408  0.8294
  153SAPE   C2817001   5.881   4.501   9.520 -0.2269  0.1597  0.4830
  153SAPE   H8R17002   5.919   4.589   9.576  2.1523  1.0972 -2.3325
  153SAPE   C2917003   5.858   4.507   9.386  0.2869 -0.7115  0.3582
  153SAPE   H9R17004   5.878   4.608   9.346 -1.5174 -0.1102  0.8572
  153SAPE  C21017005   5.814   4.398   9.293 -0.6027  0.0467  0.2817
  153SAPE  H10R17006   5.758   4.321   9.350 -1.1927 -0.2856 -0.7054
  153SAPE  H10S17007   5.905   4.346   9.256 -1.4141 -0.3555 -1.2295
  153SAPE  C21117008   5.730   4.434   9.174  0.0665 -0.1215 -0.4365
  153SAPE  H11R17009   5.650   4.506   9.198 -1.2466 -1.8246  0.6260
  153SAPE  C21217010   5.733   4.385   9.049  0.4242  0.6700 -0.8370
  153SAPE  H12R17011   5.656   4.428   8.983 -1.4258 -0.6091  0.3842
  153SAPE  C21317012   5.826   4.274   8.994  0.0887  0.2926  0.0391
  153SAPE  H13R17013   5.832   4.187   9.063  1.6389 -0.4576 -0.9556
  153SAPE  H13S17014   5.930   4.308   8.972  0.7355 -0.9400  1.0366
  153SAPE  C21417015   5.764   4.217   8.868 -0.3495  0.4295  0.0044
  153SAPE  H14R17016   5.709   4.123   8.884 -1.7270  0.9279 -1.5561
  153SAPE  C21517017   5.767   4.270   8.743 -0.4909  0.2507 -0.2700
  153SAPE  H15R17018   5.732   4.209   8.659 -0.8959  0.4598 -0.2544
  153SAPE  C21617019   5.842   4.396   8.701 -0.7018 -0.1952  0.0064
  153SAPE  H16R17020   5.900   4.426   8.791 -0.2941 -1.2413  0.1093
  153SAPE  H16S17021   5.773   4.473   8.660 -0.5383  0.1365  0.3449
  153SAPE  C21717022   5.949   4.385   8.590  0.0087 -0.1778  0.4442
  153SAPE  H17R17023   6.031   4.321   8.629  0.6045 -0.2545 -0.8718
  153SAPE  H17S17024   6.003   4.479   8.565  1.9762 -1.5729 -0.8660
  153SAPE  C21817025   5.895   4.320   8.460  0.0164  1.0344  0.0763
  153SAPE  H18R17026   5.807   4.370   8.415  1.4596  1.9345 -1.9147
  153SAPE  H18S17027   5.862   4.218   8.489 -0.8636  1.2329 -0.2033
  153SAPE  C21917028   6.013   4.318   8.358  0.0622 -1.1548 -0.1663
  153SAPE  H19R17029   6.099   4.264   8.404 -0.2909 -1.4299  0.1816
  153SAPE  H19S17030   6.033   4.427   8.349 -1.3242 -0.7447  1.1771
  153SAPE  C22017031   5.989   4.241   8.234 -0.3065  0.0420 -0.3190
  153SAPE  H20R17032   5.979   4.135   8.265 -0.1333  0.2937  0.6258
  153SAPE  H20S17033   6.069   4.250   8.157 -0.4375  0.3818 -0.4177
  153SAPE  H20T17034   5.896   4.285   8.192 -0.3054 -0.3793 -0.7835
  153SAPE   C3317035   6.242   5.079  10.179  1.0710 -0.2892  0.4905
  153SAPE   H3X17036   6.330   5.021  10.215  3.0479  1.9725 -0.3669
  153SAPE   H3Y17037   6.296   5.155  10.119 -0.2322 -0.7591 -1.3459
  153SAPE   C3417038   6.147   5.015  10.079  0.4066  0.6412 -0.8931
  153SAPE   H4X17039   6.083   5.102  10.055 -0.1230  0.5040 -0.0073
  153SAPE   H4Y17040   6.085   4.944  10.138  2.7678  0.1044  1.1089
  153SAPE   C3517041   6.208   4.938   9.957  0.0597  0.2170 -1.3589
  153SAPE   H5X17042   6.271   4.850   9.983 -2.5444 -0.7362  2.7127
  153SAPE   H5Y17043   6.270   5.018   9.912  1.0535 -1.0256 -2.2711
  153SAPE   C3617044   6.101   4.878   9.867  0.5011  0.3779 -0.1268
  153SAPE   H6X17045   6.021   4.952   9.848 -1.9185 -1.4039  2.4585
  153SAPE   H6Y17046   6.051   4.796   9.922  1.7899 -0.4644 -0.1649
  153SAPE   C3717047   6.169   4.815   9.741 -0.0556 -0.6150  0.2918
  153SAPE   H7X17048   6.218   4.718   9.763 -0.2877 -0.3680  2.1144
  153SAPE   H7Y17049   6.270   4.858   9.724  0.3549 -2.0697 -1.1711
  153SAPE   C3817050   6.085   4.827   9.615  0.1653  0.5173 -0.2103
  153SAPE   H8X17051   6.075   4.936   9.601  0.1854  0.4396 -0.8684
  153SAPE   H8Y17052   5.987   4.777   9.631  0.1820  0.6416  0.2922
  153SAPE   C3917053   6.158   4.768   9.489  0.2621 -0.1041  0.0022
  153SAPE   H9X17054   6.139   4.659   9.485  2.3996 -0.4725 -1.0718
  153SAPE   H9Y17055   6.265   4.787   9.508  0.3842 -1.7868  1.2226
  153SAPE  C31017056   6.126   4.837   9.354  0.2285 -0.0418 -0.1300
  153SAPE  H10X17057   6.120   4.947   9.366  0.1608 -0.1700  1.1533
  153SAPE  H10Y17058   6.029   4.798   9.315  1.3042 -0.4382 -2.5778
  153SAPE  C31117059   6.231   4.807   9.246 -0.1107  0.1026 -0.1425
  153SAPE  H11X17060   6.221   4.700   9.219  0.0672  0.2948 -1.0028
  153SAPE  H11Y17061   6.329   4.825   9.293 -0.2546  1.1664 -0.2197
  153SAPE  C31217062   6.222   4.895   9.122 -0.1910  0.2186  1.0545
  153SAPE  H12X17063   6.314   4.877   9.062 -0.3423 -0.1800  0.9386
  153SAPE  H12Y17064   6.211   5.001   9.150 -3.5932  0.1842  0.2584
  153SAPE  C31317065   6.091   4.887   9.037 -0.2419 -0.1177 -0.1693
  153SAPE  H13X17066   5.998   4.921   9.087  0.0681  1.6610 -0.7069
  153SAPE  H13Y17067   6.078   4.778   9.019 -0.2245  0.1013 -1.6887
  153SAPE  C31417068   6.110   4.941   8.901  0.4021 -0.5866 -0.8004
  153SAPE  H14X17069   6.214   4.921   8.867  0.1805 -1.4382 -1.0198
  153SAPE  H14Y17070   6.108   5.052   8.902  1.3931 -0.5617 -1.1599
  153SAPE  C31517071   6.005   4.886   8.809  0.4517  0.6442 -0.2330
  153SAPE  H15X17072   5.912   4.887   8.869  0.3996 -1.5487 -0.1984
  153SAPE  H15Y17073   6.020   4.782   8.773  1.7144  1.1410 -1.2067
  153SAPE  C31617074   5.974   4.972   8.684  0.0767 -0.6585 -0.2055
  153SAPE  H16X17075   5.985   5.080   8.709  1.4356 -1.1337  1.4602
  153SAPE  H16Y17076   5.873   4.953   8.642  0.1292  1.4574 -1.4104
  153SAPE  C31717077   6.077   4.947   8.569  0.2157  0.8564  0.0478
  153SAPE  H17X17078   6.064   4.837   8.559 -0.6091  0.9020  0.5196
  153SAPE  H17Y17079   6.176   4.974   8.611 -0.6482  1.9336  1.4775
  153SAPE  C31817080   6.064   5.016   8.430  0.5105  0.3222 -0.4412
  153SAPE  H18X17081   6.069   5.121   8.465  2.9453 -0.6834  2.6057
  153SAPE  H18Y17082   5.967   5.003   8.377 -0.3278  0.7790  0.9285
  153SAPE  H18Z17083   6.155   4.994   8.370 -0.2781 -0.4075 -1.4164
  154SAPE     N17084   6.466   4.972  11.080 -0.3492 -0.5678 -0.2138
  154SAPE   HN117085   6.416   4.882  11.094  1.2341 -1.2735  1.1336
  154SAPE   HN217086   6.565   4.946  11.068 -0.6395 -0.9778 -1.8778
  154SAPE   HN317087   6.445   5.024  11.168 -1.5051 -0.8222 -0.3138
  154SAPE   C1217088   6.417   5.038  10.960  0.0022 -0.1209  0.3206
  154SAPE  H12A17089   6.488   5.120  10.938  0.9016  0.1833  3.6889
  154SAPE  H12B17090   6.313   5.074  10.974 -0.2761 -0.0141 -1.7562
  154SAPE   C1117091   6.408   4.923  10.853 -0.3883  0.7407  0.6584
  154SAPE  H11A17092   6.352   4.964  10.766  0.6348 -2.4470 -1.6893
  154SAPE  H11B17093   6.340   4.847  10.895 -0.8408  0.3833 -0.6737
  154SAPE     P17094   6.635   4.932  10.720 -0.0265  0.1107 -0.8655
  154SAPE   O1317095   6.688   5.056  10.782  0.4258 -0.4039  0.0680
  154SAPE   O1417096   6.732   4.830  10.691 -0.1840  0.6102  1.2347
  154SAPE   O1217097   6.531   4.866  10.818  0.0705 -0.2690  0.9045
  154SAPE   O1117098   6.542   4.981  10.602  0.0286 -0.1339 -0.6606
  154SAPE    C117099   6.500   4.883  10.508 -0.3064 -0.3617 -0.1623
  154SAPE    HA17100   6.480   4.785  10.556  0.3073 -0.1728  0.5037
  154SAPE    HB17101   6.403   4.913  10.463 -0.9830  0.5209  1.7982
  154SAPE    C217102   6.595   4.868  10.389 -0.0368  0.1387 -0.0400
  154SAPE    HS17103   6.683   4.810  10.426  1.7360  2.4679 -0.3758
  154SAPE   O2117104   6.644   4.995  10.348 -0.9626 -0.1658 -0.4785
  154SAPE   C2117105   6.766   4.998  10.293 -0.0726  0.1950 -0.2378
  154SAPE   O2217106   6.851   4.902  10.295  0.2929 -0.0148 -0.2446
  154SAPE   C2217107   6.803   5.135  10.238  0.0328  0.4334 -0.4869
  154SAPE   H2R17108   6.719   5.205  10.260  0.8917  1.7601 -1.3048
  154SAPE   H2S17109   6.888   5.177  10.295  0.6864  2.8260 -2.9912
  154SAPE    C317110   6.540   4.774  10.279  0.2206 -0.6858 -0.1601
  154SAPE    HX17111   6.472   4.838  10.218 -0.6266 -0.2516  1.1933
  154SAPE    HY17112   6.468   4.696  10.312  1.0271 -1.9890 -1.3758
  154SAPE   O3117113   6.657   4.725  10.205  0.3406  0.1735 -0.4873
  154SAPE   C3117114   6.623   4.657  10.092 -0.1665  0.9665 -0.0900
  154SAPE   O3217115   6.512   4.604  10.074  0.2972  0.0957 -0.2574
  154SAPE   C3217116   6.736   4.637   9.992 -0.4400 -1.0443  0.5799
  154SAPE   H2X17117   6.821   4.573  10.024 -0.7614 -2.4866 -1.3061
  154SAPE   H2Y17118   6.777   4.739   9.973 -0.1001 -1.3426 -0.3065
  154SAPE   C2317119   6.818   5.144  10.080 -0.4129  0.1132  0.1801
  154SAPE   H3R17120   6.869   5.057  10.034  1.6384  1.3128  0.0508
  154SAPE   H3S17121   6.876   5.233  10.047 -1.4524  0.1002 -1.8904
  154SAPE   C2417122   6.683   5.174  10.016 -0.1486 -0.4107 -0.2430
  154SAPE   H4R17123   6.703   5.211   9.913  0.0980  1.7380  0.5199
  154SAPE   H4S17124   6.640   5.259  10.073  0.2693  0.2362 -0.8685
  154SAPE   C2517125   6.580   5.065  10.023  0.1318 -0.6705 -0.1074
  154SAPE   H5R17126   6.519   5.061  10.114  0.8335 -1.8926  0.3410
  154SAPE   C2617127   6.553   4.974   9.932  0.2483  0.9688 -0.4719
  154SAPE   H6R17128   6.478   4.895   9.948  0.9992  0.1534 -0.9355
  154SAPE   C2717129   6.616   4.961   9.799 -0.0754  0.1371  0.4715
  154SAPE   H7R17130   6.718   4.922   9.817  0.8107  2.3927  0.6026
  154SAPE   H7S17131   6.633   5.062   9.756  0.1525 -0.3720 -0.6987
  154SAPE   C2817132   6.555   4.877   9.685  0.1595  0.2570  0.5229
  154SAPE   H8R17133   6.480   4.803   9.718  0.8663  0.1765  1.9789
  154SAPE   C2917134   6.564   4.902   9.550 -0.2749 -0.2209 -0.5934
  154SAPE   H9R17135   6.512   4.830   9.484 -2.2521  1.0663 -0.5285
  154SAPE  C21017136   6.640   5.010   9.483 -0.5691 -0.2042 -0.1645
  154SAPE  H10R17137   6.738   4.967   9.453  0.2978  1.5606  0.0339
  154SAPE  H10S17138   6.668   5.092   9.552  0.2241  1.3308 -2.1990
  154SAPE  C21117139   6.556   5.063   9.364 -0.0420  0.2290 -0.1849
  154SAPE  H11R17140   6.593   5.021   9.269  1.8069  1.6152 -0.1463
  154SAPE  C21217141   6.444   5.127   9.356  0.1290  0.0419  0.2575
  154SAPE  H12R17142   6.408   5.167   9.260 -1.0206  4.4302  2.2597
  154SAPE  C21317143   6.358   5.178   9.465  0.0631  0.7505 -0.5122
  154SAPE  H13R17144   6.360   5.102   9.546  0.5609  0.1594 -1.0690
  154SAPE  H13S17145   6.256   5.168   9.423  0.8287 -1.5642 -2.0266
  154SAPE  C21417146   6.375   5.330   9.499 -0.5538  0.4184  0.1930
  154SAPE  H14R17147   6.385   5.399   9.414 -0.4232  0.6243  0.3743
  154SAPE  C21517148   6.392   5.367   9.625 -0.1783 -0.6393 -0.4123
  154SAPE  H15R17149   6.395   5.476   9.638  0.5317 -0.5977 -0.8359
  154SAPE  C21617150   6.399   5.283   9.749  0.1448  0.2878 -0.1533
  154SAPE  H16R17151   6.506   5.269   9.778 -0.1930  1.7531  2.0925
  154SAPE  H16S17152   6.336   5.192   9.745 -1.8336  1.5129  1.2459
  154SAPE  C21717153   6.334   5.352   9.872 -0.1098 -0.5668  0.1087
  154SAPE  H17R17154   6.369   5.456   9.887  0.5376 -0.9247  1.1855
  154SAPE  H17S17155   6.362   5.298   9.965  4.0984  0.5989 -0.2524
  154SAPE  C21817156   6.180   5.335   9.863  0.6813 -0.5378 -0.5566
  154SAPE  H18R17157   6.156   5.227   9.853  0.8169 -0.4445 -1.9636
  154SAPE  H18S17158   6.143   5.387   9.773 -0.0883 -0.7232 -0.3550
  154SAPE  C21917159   6.110   5.392   9.987 -0.0332  0.3539  0.4387
  154SAPE  H19R17160   6.154   5.490  10.013  2.2164 -0.5967  0.4707
  154SAPE  H19S17161   6.125   5.331  10.079 -2.9660  0.5435  1.1387
  154SAPE  C22017162   5.959   5.423   9.966 -0.7210  0.8973  0.5444
  154SAPE  H20R17163   5.917   5.455  10.064 -0.3794 -0.7609  1.2731
  154SAPE  H20S17164   5.906   5.337   9.919 -0.4681  1.0100  0.0434
  154SAPE  H20T17165   5.954   5.508   9.894  0.4012  0.1269 -0.4784
  154SAPE   C3317166   6.676   4.578   9.861 -0.0638  0.0393  0.4070
  154SAPE   H3X17167   6.590   4.640   9.829  0.7179  0.6224 -0.6499
  154SAPE   H3Y17168   6.630   4.484   9.897 -0.3864 -0.2464 -0.6900
  154SAPE   C3417169   6.775   4.555   9.750  0.6348 -0.9523  0.0541
  154SAPE   H4X17170   6.866   4.502   9.786  0.7296 -1.8612 -1.4144
  154SAPE   H4Y17171   6.808   4.653   9.709 -2.0270  0.4071  0.9473
  154SAPE   C3517172   6.705   4.465   9.640 -0.3582 -0.4205 -0.4894
  154SAPE   H5X17173   6.598   4.489   9.629 -0.0520 -0.2950 -4.9541
  154SAPE   H5Y17174   6.710   4.357   9.666  0.3063  0.1618  2.1331
  154SAPE   C3617175   6.773   4.472   9.507  0.1713 -0.3106  0.4608
  154SAPE   H6X17176   6.753   4.385   9.441 -0.1693 -0.5897  0.9268
  154SAPE   H6Y17177   6.882   4.462   9.526 -0.0744  0.7897  2.9020
  154SAPE   C3717178   6.754   4.604   9.430 -0.0446  0.2002  0.8704
  154SAPE   H7X17179   6.833   4.670   9.472  1.8088 -2.6062  2.0545
  154SAPE   H7Y17180   6.652   4.633   9.464  0.2076 -1.1909  2.9691
  154SAPE   C3817181   6.760   4.608   9.279  0.1723  0.0134  0.5865
  154SAPE   H8X17182   6.694   4.529   9.237 -0.6935  1.5988 -1.2149
  154SAPE   H8Y17183   6.866   4.589   9.252 -0.0649 -1.1765  0.4415
  154SAPE   C3917184   6.717   4.744   9.211 -0.0818 -0.4976  0.0753
  154SAPE   H9X17185   6.761   4.830   9.266 -1.3949  0.2599 -0.0370
  154SAPE   H9Y17186   6.608   4.742   9.228 -0.0799 -0.0541  0.1427
  154SAPE  C31017187   6.736   4.759   9.054 -0.1535  0.0886 -0.5255
  154SAPE  H10X17188   6.844   4.778   9.033  0.8498 -3.1815  1.0022
  154SAPE  H10Y17189   6.685   4.853   9.024  1.8307  1.9068  1.4309
  154SAPE  C31117190   6.678   4.638   8.974 -0.6175 -0.1207  0.1971
  154SAPE  H11X17191   6.569   4.620   8.974 -0.8035  0.8406 -1.2593
  154SAPE  H11Y17192   6.731   4.546   9.007  0.7149  1.2272  1.9969
  154SAPE  C31217193   6.731   4.650   8.828  0.1738  0.0597  0.7708
  154SAPE  H12X17194   6.842   4.645   8.821  0.0259 -1.3958 -0.8965
  154SAPE  H12Y17195   6.687   4.745   8.792  0.6558 -0.1498 -0.4049
  154SAPE  C31317196   6.677   4.533   8.740  0.1940 -0.3876  0.1420
  154SAPE  H13X17197   6.567   4.545   8.752  0.0988  1.0704 -1.7562
  154SAPE  H13Y17198   6.717   4.441   8.787 -1.2954  0.0841  2.4972
  154SAPE  C31417199   6.719   4.549   8.594  0.0928  0.4841  0.3720
  154SAPE  H14X17200   6.827   4.573   8.596  0.7090 -2.0490  0.8117
  154SAPE  H14Y17201   6.656   4.629   8.547  2.0874  1.5523 -0.6121
  154SAPE  C31517202   6.697   4.423   8.505  0.2614  0.0497 -0.3610
  154SAPE  H15X17203   6.593   4.401   8.474 -0.3129  1.9640  0.0658
  154SAPE  H15Y17204   6.738   4.338   8.565  5.1787  1.1709 -1.6715
  154SAPE  C31617205   6.779   4.436   8.376 -0.0368 -0.5246 -0.2083
  154SAPE  H16X17206   6.878   4.483   8.389  0.2048 -1.0641 -0.0773
  154SAPE  H16Y17207   6.735   4.518   8.315  2.2325  2.0146  1.3570
  154SAPE  C31717208   6.788   4.313   8.291  0.6357 -0.1497  0.5443
  154SAPE  H17X17209   6.687   4.268   8.286 -0.6017  2.4713  0.4101
  154SAPE  H17Y17210   6.848   4.241   8.351  0.7336  0.6384  1.4104
  154SAPE  C31817211   6.852   4.345   8.155 -0.8337  0.1540  0.6019
  154SAPE  H18X17212   6.781   4.403   8.093  0.8562  2.3897  0.6264
  154SAPE  H18Y17213   6.880   4.252   8.100 -0.9466  0.9199 -0.7743
  154SAPE  H18Z17214   6.942   4.407   8.173  0.2903 -1.3528  0.3653
  155SAPE     N17215   0.199   4.812  10.711 -0.1836  0.4059 -0.0871
  155SAPE   HN117216   0.218   4.873  10.794 -1.9007  0.9763 -0.0908
  155SAPE   HN217217   0.240   4.867  10.633 -2.6515  0.4665 -1.4310
  155SAPE   HN317218   0.096   4.804  10.707 -0.1234 -0.0745 -0.8150
  155SAPE   C1217219   0.256   4.681  10.751 -0.8821  0.8279 -0.1318
  155SAPE  H12A17220   0.247   4.610  10.665 -3.5120  0.3256  0.4661
  155SAPE  H12B17221   0.199   4.635  10.834  1.5351 -2.3216 -0.0514
  155SAPE   C1117222   0.400   4.702  10.797 -0.5521 -0.4111 -0.4041
  155SAPE  H11A17223   0.414   4.766  10.886 -1.8945  1.4799 -1.4708
  155SAPE  H11B17224   0.452   4.766  10.723 -2.7159 -0.3776 -1.9914
  155SAPE     P17225   0.629   4.566  10.805  0.0189 -0.5039  0.3385
  155SAPE   O1317226   0.672   4.659  10.907 -0.2612 -0.4510  0.6175
  155SAPE   O1417227   0.677   4.425  10.819  0.1055 -0.2803 -0.1488
  155SAPE   O1217228   0.466   4.570  10.816  0.0818  0.4055  0.5108
  155SAPE   O1117229   0.663   4.629  10.667 -0.1605  0.5861  0.1722
  155SAPE    C117230   0.587   4.599  10.547 -0.1622  0.4966 -0.9262
  155SAPE    HA17231   0.543   4.497  10.538  2.8818 -0.8430 -2.2155
  155SAPE    HB17232   0.498   4.666  10.543 -1.2514 -0.9078 -1.1390
  155SAPE    C217233   0.681   4.610  10.417  0.6491  0.1496  0.2226
  155SAPE    HS17234   0.639   4.579  10.319 -1.1979 -0.3665  1.1368
  155SAPE   O2117235   0.804   4.536  10.443 -0.3230  0.0871 -0.3410
  155SAPE   C2117236   0.801   4.402  10.452  0.0838 -0.2045 -0.3974
  155SAPE   O2217237   0.697   4.339  10.445  0.5866  0.0413  0.7659
  155SAPE   C2217238   0.942   4.354  10.446  0.2401  0.0122 -0.5573
  155SAPE   H2R17239   1.004   4.434  10.492 -0.3159  0.3565 -0.3958
  155SAPE   H2S17240   0.951   4.261  10.506 -0.8992  1.4985  2.0755
  155SAPE    C317241   0.721   4.759  10.410  0.6535 -0.1810 -0.2567
  155SAPE    HX17242   0.767   4.790  10.507 -0.3416 -0.3584  0.2907
  155SAPE    HY17243   0.629   4.821  10.416  2.1169  2.3859 -2.4655
  155SAPE   O3117244   0.795   4.801  10.299  0.4307 -0.5492  0.7058
  155SAPE   C3117245   0.927   4.788  10.298 -0.3352  0.0515  0.2563
  155SAPE   O3217246   0.997   4.751  10.388  0.0134 -0.2081  0.6431
  155SAPE   C3217247   0.994   4.834  10.169 -0.1267  0.0741 -0.0620
  155SAPE   H2X17248   1.102   4.808  10.180 -0.6426 -1.5595  1.7097
  155SAPE   H2Y17249   0.969   4.941  10.153 -1.2160 -0.5539 -3.1240
  155SAPE   C2317250   1.004   4.341  10.306 -0.4736 -0.0874 -0.1232
  155SAPE   H3R17251   1.109   4.311  10.322 -0.6174 -0.9891 -0.7876
  155SAPE   H3S17252   1.002   4.437  10.249 -1.3731  0.5402  0.9018
  155SAPE   C2417253   0.939   4.228  10.233  0.1553 -0.0765 -0.7282
  155SAPE   H4R17254   0.838   4.269  10.209  0.6279  0.1766 -2.4241
  155SAPE   H4S17255   0.920   4.138  10.295 -1.3127 -0.7326 -2.0457
  155SAPE   C2517256   1.011   4.185  10.113 -0.8148 -0.2518 -0.3107
  155SAPE   H5R17257   1.102   4.124  10.126  0.2022  1.7147  2.9716
  155SAPE   C2617258   0.987   4.221   9.983  0.0385  0.3744 -0.3250
  155SAPE   H6R17259   1.047   4.187   9.897  1.5408  1.6688  0.1659
  155SAPE   C2717260   0.880   4.317   9.944  1.0667 -0.6413  0.0461
  155SAPE   H7R17261   0.940   4.402   9.905 -1.2719  0.5456 -1.1290
  155SAPE   H7S17262   0.834   4.375  10.027 -0.0159  2.3040 -2.4249
  155SAPE   C2817263   0.772   4.273   9.842 -0.7072 -0.0289 -0.4659
  155SAPE   H8R17264   0.702   4.197   9.880 -0.4172  1.0154  2.3999
  155SAPE   C2917265   0.772   4.303   9.706 -0.4911 -1.1006 -0.2079
  155SAPE   H9R17266   0.695   4.259   9.641 -1.6153 -2.0059  1.6380
  155SAPE  C21017267   0.869   4.395   9.631 -0.8429  0.0877  0.1414
  155SAPE  H10R17268   0.943   4.437   9.703 -0.5918  0.8713 -0.5531
  155SAPE  H10S17269   0.818   4.488   9.598  0.3167  0.0966 -1.7809
  155SAPE  C21117270   0.948   4.325   9.522 -0.2695  0.3470  0.0390
  155SAPE  H11R17271   1.021   4.253   9.562  0.3693  1.3632  0.7418
  155SAPE  C21217272   0.908   4.327   9.389  0.2097 -0.6119 -0.2116
  155SAPE  H12R17273   0.965   4.271   9.313 -0.1348 -0.0092 -0.9164
  155SAPE  C21317274   0.793   4.404   9.332 -0.2803  0.1308  0.6664
  155SAPE  H13R17275   0.821   4.501   9.285 -0.1686 -0.5922 -0.8071
  155SAPE  H13S17276   0.724   4.433   9.414 -1.9013 -0.6900 -0.3645
  155SAPE  C21417277   0.720   4.311   9.232 -0.0462 -0.1922 -0.2425
  155SAPE  H14R17278   0.672   4.221   9.273  2.7746 -3.6315 -3.6866
  155SAPE  C21517279   0.714   4.322   9.095 -0.0538  0.3120  0.1301
  155SAPE  H15R17280   0.652   4.251   9.040  0.3629  0.4782 -0.5701
  155SAPE  C21617281   0.785   4.423   9.011 -0.4935 -0.4614  0.4229
  155SAPE  H16R17282   0.792   4.520   9.064  1.2067 -1.0023  1.2983
  155SAPE  H16S17283   0.729   4.447   8.918  0.2001 -2.1207 -0.4645
  155SAPE  C21717284   0.934   4.395   8.965  0.3576 -0.5300  0.0371
  155SAPE  H17R17285   0.992   4.375   9.057  0.7360 -0.6978 -0.2351
  155SAPE  H17S17286   0.988   4.486   8.932  0.6348 -0.7721 -0.1816
  155SAPE  C21817287   0.936   4.282   8.862 -1.2490 -0.3679  0.1588
  155SAPE  H18R17288   0.896   4.189   8.907  1.5817 -1.4537  0.6198
  155SAPE  H18S17289   1.044   4.264   8.843 -1.3514 -0.4574 -0.3540
  155SAPE  C21917290   0.872   4.313   8.722  0.4757  0.4079  1.1157
  155SAPE  H19R17291   0.792   4.389   8.737 -0.0430  0.3914 -1.2287
  155SAPE  H19S17292   0.824   4.223   8.678  0.8273  1.1465 -0.9235
  155SAPE  C22017293   0.964   4.389   8.624 -0.4443  0.2491 -0.7649
  155SAPE  H20R17294   1.060   4.335   8.609 -0.8495 -0.5067 -0.6508
  155SAPE  H20S17295   0.999   4.490   8.656 -1.3752  0.0486  1.0228
  155SAPE  H20T17296   0.919   4.402   8.523  0.9235 -0.6043 -1.5113
  155SAPE   C3317297   0.932   4.751  10.054  0.0807 -0.5879  0.4356
  155SAPE   H3X17298   0.822   4.749  10.071  0.5496 -0.1315  4.4424
  155SAPE   H3Y17299   0.964   4.646  10.070 -1.8854 -0.8904  3.0217
  155SAPE   C3417300   0.967   4.808   9.914  0.4030  0.5535 -0.5562
  155SAPE   H4X17301   1.077   4.821   9.913  0.8924 -2.7096 -1.6735
  155SAPE   H4Y17302   0.924   4.910   9.903  1.5396  0.9449 -1.6783
  155SAPE   C3517303   0.925   4.720   9.793 -0.1469 -0.1288  0.0666
  155SAPE   H5X17304   0.814   4.722   9.791 -0.1820 -0.0608  1.1772
  155SAPE   H5Y17305   0.975   4.622   9.808  0.5433  0.2277  0.1433
  155SAPE   C3617306   0.981   4.775   9.659  0.0527 -0.2003  0.2586
  155SAPE   H6X17307   1.091   4.782   9.677 -0.1244  0.6842  1.1028
  155SAPE   H6Y17308   0.940   4.876   9.638  1.4641  0.0131 -1.7605
  155SAPE   C3717309   0.958   4.709   9.525 -0.2493 -0.3943 -0.3403
  155SAPE   H7X17310   0.848   4.691   9.526 -0.6939  2.0215 -0.6162
  155SAPE   H7Y17311   1.016   4.614   9.533 -0.9171 -0.7566  0.4703
  155SAPE   C3817312   1.007   4.785   9.408  0.3584  0.1610  1.0444
  155SAPE   H8X17313   1.118   4.787   9.397  0.2326  0.1889 -0.4259
  155SAPE   H8Y17314   0.989   4.895   9.413 -1.6907 -0.0893  0.1394
  155SAPE   C3917315   0.955   4.727   9.274  0.0254  0.6853  0.1719
  155SAPE   H9X17316   0.848   4.732   9.248  0.7407  0.1895 -3.3114
  155SAPE   H9Y17317   0.993   4.623   9.266  0.3658  0.9328 -2.2528
  155SAPE  C31017318   1.019   4.801   9.160  0.3124 -0.2763  0.2181
  155SAPE  H10X17319   1.130   4.792   9.163  0.2396 -0.9958  1.2031
  155SAPE  H10Y17320   1.002   4.908   9.180 -1.0778 -0.2359 -0.9559
  155SAPE  C31117321   0.981   4.754   9.016 -0.5797  0.1986 -0.6213
  155SAPE  H11X17322   0.871   4.746   9.002 -0.5414 -0.0475 -0.7983
  155SAPE  H11Y17323   1.030   4.656   8.998  1.9099  1.8138 -3.8276
  155SAPE  C31217324   1.037   4.849   8.910 -0.4483 -0.2744 -0.3192
  155SAPE  H12X17325   1.145   4.861   8.934 -0.0747 -0.4226 -1.8252
  155SAPE  H12Y17326   0.996   4.952   8.917  2.0335  0.6878  1.3734
  155SAPE  C31317327   1.017   4.795   8.772  0.9261  0.3065  0.3148
  155SAPE  H13X17328   0.911   4.765   8.758  0.7617  0.0453  2.0106
  155SAPE  H13Y17329   1.084   4.707   8.764  1.6428  0.7590  1.1503
  155SAPE  C31417330   1.063   4.888   8.660  0.2057 -0.5544 -0.0608
  155SAPE  H14X17331   1.170   4.915   8.677 -0.0277  1.8225 -1.9072
  155SAPE  H14Y17332   1.005   4.982   8.666 -0.3287 -0.9609  1.9131
  155SAPE  C31517333   1.048   4.825   8.524  0.5513  0.2701  0.2985
  155SAPE  H15X17334   0.943   4.796   8.502 -0.0998  1.7210  1.3945
  155SAPE  H15Y17335   1.101   4.727   8.530  0.6676  0.3899  1.4215
  155SAPE  C31617336   1.117   4.906   8.408  0.0230  0.2713  0.0849
  155SAPE  H16X17337   1.130   4.835   8.323  0.3657  0.1311  0.2547
  155SAPE  H16Y17338   1.220   4.928   8.442  1.0030 -1.7095 -1.3829
  155SAPE  C31717339   1.050   5.030   8.362 -0.0283  0.0581 -0.0680
  155SAPE  H17X17340   1.015   5.085   8.452  0.2691  1.4379 -0.7684
  155SAPE  H17Y17341   0.952   5.008   8.313 -0.5558 -0.1773  1.0550
  155SAPE  C31817342   1.136   5.116   8.273 -0.4499  0.6093  0.4065
  155SAPE  H18X17343   1.172   5.044   8.196 -1.1060 -0.3679  0.9997
  155SAPE  H18Y17344   1.223   5.160   8.326 -1.0751  1.5008  0.7075
  155SAPE  H18Z17345   1.089   5.198   8.215 -0.8083 -0.2891 -0.6198
  156SAPE     N17346   4.430   1.804  10.556  0.1572  0.4614 -0.3520
  156SAPE   HN117347   4.427   1.815  10.659  0.8387  2.4574 -0.5053
  156SAPE   HN217348   4.429   1.712  10.507  1.6584  0.3816 -0.2721
  156SAPE   HN317349   4.515   1.850  10.518  1.1744 -1.3439 -0.3967
  156SAPE   C1217350   4.311   1.882  10.512  0.7039 -0.2750 -0.3637
  156SAPE  H12A17351   4.296   1.977  10.567  0.1651  1.3941 -3.2179
  156SAPE  H12B17352   4.219   1.823  10.533  0.7259 -0.7082 -1.4042
  156SAPE   C1117353   4.312   1.895  10.360 -0.6862  0.3144  0.6623
  156SAPE  H11A17354   4.215   1.936  10.325 -1.2338 -1.5344 -0.0991
  156SAPE  H11B17355   4.324   1.798  10.307  1.2078 -0.0886  1.7592
  156SAPE     P17356   4.532   1.950  10.231 -0.2626 -0.0158  0.0182
  156SAPE   O1317357   4.597   2.076  10.182  0.0243 -0.4983 -0.2866
  156SAPE   O1417358   4.611   1.847  10.296  0.2240 -0.5612  0.3596
  156SAPE   O1217359   4.415   1.987  10.327  0.0855  0.3051  0.1656
  156SAPE   O1117360   4.451   1.885  10.105 -0.2698 -0.0532 -0.0025
  156SAPE    C117361   4.369   1.978  10.027 -0.3194 -0.1391  0.2078
  156SAPE    HA17362   4.270   1.929  10.017  1.1444 -3.0964 -0.7840
  156SAPE    HB17363   4.356   2.075  10.079 -2.2217 -0.3630  0.2117
  156SAPE    C217364   4.419   2.001   9.884 -0.6767 -0.3087 -0.1670
  156SAPE    HS17365   4.512   2.062   9.886 -0.8343 -0.0668 -0.3451
  156SAPE   O2117366   4.320   2.068   9.805 -0.6593  0.3254  0.3302
  156SAPE   C2117367   4.304   2.197   9.825 -0.2750 -0.2902 -0.8088
  156SAPE   O2217368   4.361   2.264   9.911 -0.0009  0.1305  0.5001
  156SAPE   C2217369   4.221   2.259   9.711 -0.2500 -0.1905 -0.2513
  156SAPE   H2R17370   4.148   2.333   9.752 -0.7986 -0.3656 -0.9015
  156SAPE   H2S17371   4.290   2.334   9.666 -0.8950  1.1434  0.8910
  156SAPE    C317372   4.459   1.871   9.804 -0.2304  0.3601  0.3693
  156SAPE    HX17373   4.378   1.796   9.813 -1.8643  1.9152 -0.6124
  156SAPE    HY17374   4.543   1.815   9.850 -1.6346 -1.1029  1.2453
  156SAPE   O3117375   4.495   1.898   9.670 -0.3213  0.0015  0.1989
  156SAPE   C3117376   4.478   1.808   9.577  0.2757 -0.1313  0.4983
  156SAPE   O3217377   4.434   1.695   9.592 -0.3313 -0.0090  0.3661
  156SAPE   C3217378   4.518   1.875   9.441 -0.2664  0.6931  0.2101
  156SAPE   H2X17379   4.565   1.974   9.457  1.2800  0.0641 -0.2606
  156SAPE   H2Y17380   4.426   1.893   9.380 -0.9878  0.8962  1.3333
  156SAPE   C2317381   4.140   2.158   9.625 -0.4798 -0.3752  0.5917
  156SAPE   H3R17382   4.060   2.215   9.573 -0.4114 -1.3416 -0.6010
  156SAPE   H3S17383   4.080   2.085   9.683 -2.7016  0.6578 -0.2771
  156SAPE   C2417384   4.226   2.107   9.511  0.0582  0.3439 -0.2979
  156SAPE   H4R17385   4.298   2.035   9.557 -0.9823 -0.2003  0.5163
  156SAPE   H4S17386   4.292   2.184   9.466 -0.0208 -0.1017 -1.1826
  156SAPE   C2517387   4.156   2.035   9.396 -0.6317  0.0506 -0.2807
  156SAPE   H5R17388   4.089   1.956   9.431 -1.4740  1.5310  1.5971
  156SAPE   C2617389   4.161   2.068   9.263  0.1899  0.2835 -0.3628
  156SAPE   H6R17390   4.093   2.014   9.195  0.6269  0.8639 -1.2775
  156SAPE   C2717391   4.261   2.166   9.196 -0.2867 -0.0032 -0.0551
  156SAPE   H7R17392   4.336   2.103   9.143 -0.9215 -0.9818  0.1703
  156SAPE   H7S17393   4.321   2.235   9.259 -0.3386 -1.1835  1.3486
  156SAPE   C2817394   4.173   2.237   9.101  0.3124  0.2245 -0.1391
  156SAPE   H8R17395   4.123   2.327   9.139  0.4653 -0.1700  1.0455
  156SAPE   C2917396   4.162   2.205   8.969 -0.3145 -1.0451 -0.0498
  156SAPE   H9R17397   4.099   2.276   8.913 -1.0532 -0.1201  1.8658
  156SAPE  C21017398   4.239   2.113   8.880 -0.6563 -0.1243 -0.0782
  156SAPE  H10R17399   4.161   2.037   8.857 -0.6624  0.0228 -0.5517
  156SAPE  H10S17400   4.311   2.062   8.947 -0.7543 -1.1629 -0.7507
  156SAPE  C21117401   4.307   2.171   8.751  0.1089  0.4146  0.2527
  156SAPE  H11R17402   4.413   2.199   8.764  0.7265 -0.5873 -2.1626
  156SAPE  C21217403   4.240   2.188   8.630  0.0536 -0.2024 -0.0858
  156SAPE  H12R17404   4.288   2.229   8.540 -0.1915  1.6211  0.5746
  156SAPE  C21317405   4.096   2.147   8.610 -0.6546  0.6223 -0.3883
  156SAPE  H13R17406   4.055   2.200   8.522 -1.2811 -0.6684 -0.9086
  156SAPE  H13S17407   4.033   2.168   8.699  1.0041 -0.1926  1.0276
  156SAPE  C21417408   4.078   2.003   8.579  0.2772  0.0688  0.2823
  156SAPE  H14R17409   4.170   1.942   8.572  0.7074  0.8163 -0.6835
  156SAPE  C21517410   3.960   1.941   8.567 -0.1061 -0.2744 -0.3427
  156SAPE  H15R17411   3.963   1.836   8.536  0.2972  0.3673 -2.7314
  156SAPE  C21617412   3.821   1.996   8.599 -0.4731  0.6309 -1.2913
  156SAPE  H16R17413   3.837   2.083   8.667  0.5341 -0.6746  0.2193
  156SAPE  H16S17414   3.773   1.918   8.662  2.1941  0.2458  0.4255
  156SAPE  C21717415   3.729   2.047   8.486  0.0165  0.9419  0.0948
  156SAPE  H17R17416   3.710   1.965   8.414  3.3388  0.2682 -0.1363
  156SAPE  H17S17417   3.784   2.121   8.425  0.8999 -0.3063 -0.6718
  156SAPE  C21817418   3.594   2.097   8.537 -0.7502 -0.1897 -0.0457
  156SAPE  H18R17419   3.593   2.196   8.589 -3.6194 -0.5897  0.8780
  156SAPE  H18S17420   3.548   2.027   8.610 -2.4657  0.8985 -0.0151
  156SAPE  C21917421   3.493   2.097   8.423 -0.1520 -0.1191  0.5738
  156SAPE  H19R17422   3.486   1.994   8.384  1.3035  0.4032 -1.2547
  156SAPE  H19S17423   3.533   2.156   8.338 -0.6781 -0.5665  0.0082
  156SAPE  C22017424   3.349   2.149   8.449 -0.9408  0.8476  0.3319
  156SAPE  H20R17425   3.288   2.145   8.356 -0.4415  1.2143 -0.0124
  156SAPE  H20S17426   3.359   2.256   8.474 -1.7071  1.3887 -1.4793
  156SAPE  H20T17427   3.293   2.092   8.526 -0.3633  0.5170  0.5114
  156SAPE   C3317428   4.623   1.785   9.369  0.1275 -0.7317 -0.2579
  156SAPE   H3X17429   4.591   1.680   9.357 -1.6638 -0.2219 -0.2265
  156SAPE   H3Y17430   4.714   1.786   9.433  0.9675 -0.9949 -1.4163
  156SAPE   C3417431   4.668   1.844   9.232 -0.3644 -0.6069 -0.3515
  156SAPE   H4X17432   4.766   1.798   9.204 -0.7838 -1.8089  0.1105
  156SAPE   H4Y17433   4.681   1.954   9.238  2.3308 -0.4891 -4.3070
  156SAPE   C3517434   4.563   1.831   9.120  0.5708  0.0704 -0.5530
  156SAPE   H5X17435   4.458   1.842   9.153 -0.2566 -1.5407 -2.4331
  156SAPE   H5Y17436   4.576   1.727   9.083  1.2801  0.0810 -0.3587
  156SAPE   C3617437   4.581   1.936   9.012  0.3112  0.2169 -0.3101
  156SAPE   H6X17438   4.690   1.948   8.993  1.0344 -1.0595  2.3755
  156SAPE   H6Y17439   4.540   2.030   9.054 -0.5290 -0.5457  0.6327
  156SAPE   C3717440   4.523   1.901   8.876  0.0020  0.8021 -0.3633
  156SAPE   H7X17441   4.544   1.988   8.810 -0.1220  1.3168  0.2636
  156SAPE   H7Y17442   4.416   1.878   8.894 -0.5641  2.4445 -1.4025
  156SAPE   C3817443   4.589   1.782   8.821 -0.7476  0.3105  0.0772
  156SAPE   H8X17444   4.582   1.704   8.900 -1.9582  0.8619  0.5419
  156SAPE   H8Y17445   4.696   1.803   8.799 -0.8369 -0.9218 -1.7674
  156SAPE   C3917446   4.521   1.728   8.694 -0.3391 -0.1554  0.5192
  156SAPE   H9X17447   4.588   1.665   8.632 -0.9191 -0.2027 -0.0623
  156SAPE   H9Y17448   4.473   1.810   8.637 -0.7632  0.9942  2.4172
  156SAPE  C31017449   4.407   1.628   8.725 -0.3439  0.4928  0.5953
  156SAPE  H10X17450   4.332   1.663   8.800 -1.8919 -0.7479 -0.3043
  156SAPE  H10Y17451   4.448   1.533   8.766 -0.5312  1.0313  2.0987
  156SAPE  C31117452   4.323   1.603   8.599  0.2500 -0.6854 -0.7918
  156SAPE  H11X17453   4.381   1.617   8.506  2.7142  0.6695  0.8362
  156SAPE  H11Y17454   4.250   1.686   8.590  0.1008 -0.7857 -0.5117
  156SAPE  C31217455   4.245   1.472   8.614  0.0698 -0.1227 -0.3952
  156SAPE  H12X17456   4.162   1.477   8.540  0.2789 -0.6155 -0.6719
  156SAPE  H12Y17457   4.194   1.474   8.712 -1.9184 -4.4755 -1.0855
  156SAPE  C31317458   4.329   1.342   8.602  0.4631 -0.5147 -0.4246
  156SAPE  H13X17459   4.424   1.358   8.657 -1.3274  4.2866  1.9082
  156SAPE  H13Y17460   4.370   1.339   8.499  1.6511  0.1632 -0.0011
  156SAPE  C31417461   4.248   1.206   8.632 -0.1364  0.1927  0.0395
  156SAPE  H14X17462   4.140   1.228   8.629 -0.3176 -0.5997  0.4813
  156SAPE  H14Y17463   4.277   1.181   8.736  1.0895 -0.4396 -0.4295
  156SAPE  C31517464   4.281   1.086   8.547  0.8262  0.0554  0.2503
  156SAPE  H15X17465   4.215   1.002   8.577  2.2136 -0.4177  2.1690
  156SAPE  H15Y17466   4.384   1.058   8.577  1.3230 -0.4981 -1.8291
  156SAPE  C31617467   4.269   1.114   8.391  0.0710  0.0174 -0.0978
  156SAPE  H16X17468   4.339   1.196   8.365 -1.0549  0.8300 -0.6825
  156SAPE  H16Y17469   4.161   1.143   8.388 -0.8861 -3.0417  1.1234
  156SAPE  C31717470   4.295   0.987   8.300 -0.0429  0.3366  0.1381
  156SAPE  H17X17471   4.243   0.906   8.356 -0.7706 -1.2590 -2.6284
  156SAPE  H17Y17472   4.405   0.972   8.306  0.5377  4.0083  0.7304
  156SAPE  C31817473   4.244   0.990   8.159  0.4163 -0.0590  0.1374
  156SAPE  H18X17474   4.229   0.886   8.124 -0.9339  0.5763 -1.3192
  156SAPE  H18Y17475   4.309   1.056   8.097 -0.8144  0.8028 -0.2594
  156SAPE  H18Z17476   4.150   1.048   8.153  0.1128 -0.4694  0.7690
  157SAPE     N17477   3.541   4.859  10.841 -0.3786 -0.6270 -0.4297
  157SAPE   HN117478   3.532   4.813  10.934  0.9114  0.2257  0.1571
  157SAPE   HN217479   3.640   4.860  10.809 -0.2828 -0.3831 -0.1240
  157SAPE   HN317480   3.495   4.952  10.851 -0.6269 -0.9605  2.1445
  157SAPE   C1217481   3.468   4.777  10.736 -0.4251  0.2611  0.2820
  157SAPE  H12A17482   3.501   4.672  10.745 -2.3037 -0.3140  1.0414
  157SAPE  H12B17483   3.505   4.813  10.637  1.5001 -0.7463  0.5876
  157SAPE   C1117484   3.317   4.773  10.748 -0.5329 -0.9808  0.4397
  157SAPE  H11A17485   3.280   4.721  10.657 -0.0593  0.4090 -0.5920
  157SAPE  H11B17486   3.276   4.877  10.742  0.6068 -0.3583  2.6556
  157SAPE     P17487   3.155   4.599  10.864 -0.2894  0.1491  0.0066
  157SAPE   O1317488   3.143   4.532  10.998 -0.3122 -0.5646 -0.3991
  157SAPE   O1417489   3.037   4.649  10.798  0.1842 -0.1961  0.1288
  157SAPE   O1217490   3.271   4.710  10.875  0.0509 -0.4496  0.2711
  157SAPE   O1117491   3.220   4.490  10.763  0.7095  0.0838 -0.4550
  157SAPE    C117492   3.157   4.371  10.753 -0.6146  0.5878  0.1099
  157SAPE    HA17493   3.138   4.322  10.851 -1.9579  3.3313  1.3413
  157SAPE    HB17494   3.060   4.390  10.702  0.7509  3.3350 -1.7085
  157SAPE    C217495   3.232   4.280  10.652  0.4344 -0.7455  0.8323
  157SAPE    HS17496   3.335   4.266  10.693  0.6046 -0.2539  0.5715
  157SAPE   O2117497   3.221   4.352  10.529 -0.1535  0.9986 -0.3563
  157SAPE   C2117498   3.325   4.421  10.507 -0.0040 -0.6289  0.0126
  157SAPE   O2217499   3.426   4.428  10.578 -0.0311 -0.5311 -0.6447
  157SAPE   C2217500   3.303   4.502  10.377  0.4494 -0.2994  0.1119
  157SAPE   H2R17501   3.309   4.437  10.287  4.0859  0.8136 -0.6086
  157SAPE   H2S17502   3.203   4.549  10.388 -0.6768 -2.3754 -0.5435
  157SAPE    C317503   3.169   4.136  10.642 -0.4349  0.0856 -0.1827
  157SAPE    HX17504   3.071   4.140  10.693  0.0387  1.5942  0.6629
  157SAPE    HY17505   3.235   4.069  10.700 -1.8846  0.3995  1.9287
  157SAPE   O3117506   3.168   4.087  10.509  0.1008  0.0151  0.5414
  157SAPE   C3117507   3.057   4.098  10.434 -0.1218 -0.4270 -0.7965
  157SAPE   O3217508   2.951   4.157  10.464 -0.6316  0.3766 -0.0517
  157SAPE   C3217509   3.085   4.038  10.293 -0.3592 -0.3574 -0.2316
  157SAPE   H2X17510   3.001   3.968  10.275 -0.4381  0.1660 -2.0739
  157SAPE   H2Y17511   3.184   3.987  10.290  0.3898  0.9909  0.4069
  157SAPE   C2317512   3.405   4.614  10.365 -0.5288 -0.3012  1.0127
  157SAPE   H3R17513   3.505   4.575  10.337 -0.1511  0.2652  1.5348
  157SAPE   H3S17514   3.415   4.690  10.446 -2.6789  1.4864 -0.2855
  157SAPE   C2417515   3.364   4.700  10.242 -0.0264 -0.1730 -0.6273
  157SAPE   H4R17516   3.256   4.725  10.239 -0.5498 -2.0851  0.6754
  157SAPE   H4S17517   3.400   4.621  10.173  3.2340  0.1159  0.5247
  157SAPE   C2517518   3.445   4.822  10.215 -0.1819 -0.4980 -0.8495
  157SAPE   H5R17519   3.459   4.880  10.308  1.3243  0.7438 -1.7834
  157SAPE   C2617520   3.507   4.863  10.106 -0.8582 -0.3169 -0.2591
  157SAPE   H6R17521   3.558   4.960  10.107  1.5235 -1.4892  1.8902
  157SAPE   C2717522   3.502   4.796   9.972 -0.6123  0.3839 -0.6458
  157SAPE   H7R17523   3.435   4.708   9.982  1.4118 -1.0684  0.8011
  157SAPE   H7S17524   3.592   4.732   9.978 -0.8984  0.1058  1.8617
  157SAPE   C2817525   3.499   4.879   9.841 -1.1915  0.4427  0.1286
  157SAPE   H8R17526   3.505   4.985   9.870  0.2924  0.5074 -0.3580
  157SAPE   C2917527   3.487   4.845   9.711 -0.3154  0.2934  0.2640
  157SAPE   H9R17528   3.506   4.920   9.633  0.2970 -1.9752 -1.9317
  157SAPE  C21017529   3.477   4.704   9.655 -0.3666  0.1269  0.4704
  157SAPE  H10R17530   3.386   4.698   9.591 -0.0145 -0.5456  0.0264
  157SAPE  H10S17531   3.469   4.630   9.738  1.9388 -1.5550 -0.6660
  157SAPE  C21117532   3.608   4.676   9.587 -0.7381 -0.4052  0.5886
  157SAPE  H11R17533   3.680   4.653   9.666 -1.6975 -0.1033  1.5702
  157SAPE  C21217534   3.655   4.700   9.459  0.6438 -0.1539 -0.0817
  157SAPE  H12R17535   3.751   4.657   9.426  0.8420  0.1182  0.1432
  157SAPE  C21317536   3.556   4.743   9.344 -0.1636 -0.1260  0.2488
  157SAPE  H13R17537   3.585   4.849   9.323 -1.4254 -0.0477 -1.2247
  157SAPE  H13S17538   3.451   4.741   9.380 -0.0169  0.7764  0.7643
  157SAPE  C21417539   3.574   4.658   9.221 -0.3989 -0.2633  0.7697
  157SAPE  H14R17540   3.506   4.572   9.215  0.6123 -1.1006  1.1174
  157SAPE  C21517541   3.635   4.690   9.103 -0.3140  0.5307  0.0749
  157SAPE  H15R17542   3.644   4.619   9.020  1.0261  0.1441  0.5269
  157SAPE  C21617543   3.707   4.818   9.093  0.0424 -0.4340  0.8325
  157SAPE  H16R17544   3.734   4.863   9.190 -0.7372  0.5004  0.6403
  157SAPE  H16S17545   3.631   4.890   9.056  0.4671  0.8105  2.3090
  157SAPE  C21717546   3.829   4.800   9.005  0.6568  1.2794 -0.2217
  157SAPE  H17R17547   3.898   4.718   9.035  1.6305  1.7856 -1.0342
  157SAPE  H17S17548   3.889   4.893   9.014 -0.0128  1.9310 -2.1280
  157SAPE  C21817549   3.783   4.775   8.858  0.6341 -0.3962  0.5375
  157SAPE  H18R17550   3.685   4.723   8.850 -0.0774  0.9995 -0.2396
  157SAPE  H18S17551   3.865   4.716   8.812  2.0390  0.1021  2.2951
  157SAPE  C21917552   3.751   4.901   8.776  0.3202  0.0108 -0.1733
  157SAPE  H19R17553   3.679   4.974   8.817  1.0839  1.2083 -0.9073
  157SAPE  H19S17554   3.707   4.869   8.679  0.0949 -0.5236  0.1005
  157SAPE  C22017555   3.875   4.992   8.739 -0.5842 -0.6966  0.0268
  157SAPE  H20R17556   3.923   4.927   8.663  2.0207  0.2993  0.7122
  157SAPE  H20S17557   3.949   4.992   8.822 -0.7534 -2.7409  0.2163
  157SAPE  H20T17558   3.847   5.090   8.694  1.0593  0.0328  0.5038
  157SAPE   C3317559   3.059   4.141  10.186  0.1862  0.3169 -0.0089
  157SAPE   H3X17560   3.156   4.190  10.162  0.4844 -0.7335 -1.0659
  157SAPE   H3Y17561   2.982   4.211  10.226 -0.8498 -0.9848  0.3329
  157SAPE   C3417562   3.001   4.072  10.061  0.4573 -0.1440  0.4899
  157SAPE   H4X17563   2.902   4.023  10.075  0.0611  0.4201 -0.2640
  157SAPE   H4Y17564   3.069   3.993  10.023  0.2731  0.5529 -1.3825
  157SAPE   C3517565   2.978   4.164   9.936  0.5047 -0.5944 -0.0869
  157SAPE   H5X17566   3.077   4.209   9.911  0.0594  0.3591 -0.1949
  157SAPE   H5Y17567   2.902   4.236   9.973  0.9401 -0.1002 -0.1350
  157SAPE   C3617568   2.930   4.092   9.809  0.3914  0.6326 -0.3596
  157SAPE   H6X17569   2.842   4.033   9.841  0.7005  1.1940  1.6689
  157SAPE   H6Y17570   3.007   4.026   9.764 -0.8370  0.2507 -1.9877
  157SAPE   C3717571   2.892   4.175   9.685  0.4485  0.0624  0.5585
  157SAPE   H7X17572   2.976   4.236   9.645 -0.3341  1.0663  0.4032
  157SAPE   H7Y17573   2.803   4.240   9.703 -0.1301 -0.7902  0.8127
  157SAPE   C3817574   2.855   4.084   9.570 -0.0353  0.2252  0.0658
  157SAPE   H8X17575   2.788   4.013   9.622 -0.4245 -0.1729 -0.9544
  157SAPE   H8Y17576   2.950   4.033   9.544  0.3012  1.7078 -1.9173
  157SAPE   C3917577   2.790   4.150   9.452 -0.2508 -0.6254  0.4202
  157SAPE   H9X17578   2.834   4.243   9.410 -0.9439 -0.1448  0.7477
  157SAPE   H9Y17579   2.692   4.181   9.495 -0.0513  1.6197 -0.5994
  157SAPE  C31017580   2.733   4.055   9.347  0.4947  0.1110  0.4118
  157SAPE  H10X17581   2.627   4.062   9.317  0.7315 -1.3635 -0.9147
  157SAPE  H10Y17582   2.745   3.951   9.386  1.5269 -0.7630 -1.9933
  157SAPE  C31117583   2.811   4.062   9.210 -0.5827  0.3266  0.3382
  157SAPE  H11X17584   2.802   4.165   9.168  0.6416  0.0111 -0.7753
  157SAPE  H11Y17585   2.759   4.002   9.132 -0.6867  0.9220 -0.0585
  157SAPE  C31217586   2.951   4.016   9.224  0.0813  0.6016  0.3189
  157SAPE  H12X17587   2.951   3.915   9.270  0.5620 -0.0875 -1.1361
  157SAPE  H12Y17588   3.012   4.087   9.285  0.1996  1.4291 -0.7411
  157SAPE  C31317589   3.026   4.003   9.086  0.0615  0.5297  0.8359
  157SAPE  H13X17590   2.965   3.927   9.032  1.3943 -0.1048  0.1630
  157SAPE  H13Y17591   3.125   3.956   9.104 -0.4970 -0.5491  1.1441
  157SAPE  C31417592   3.042   4.115   8.993  0.5304  0.0628 -0.2643
  157SAPE  H14X17593   3.104   4.194   9.040  0.6816 -0.0556 -0.2610
  157SAPE  H14Y17594   2.941   4.158   8.976  0.9419  0.1410 -2.8109
  157SAPE  C31517595   3.103   4.074   8.861 -0.2293  0.7412 -0.1011
  157SAPE  H15X17596   3.211   4.053   8.877  0.0025  0.9620 -1.2875
  157SAPE  H15Y17597   3.114   4.160   8.791 -1.2828 -0.0982 -1.3431
  157SAPE  C31617598   3.027   3.962   8.790 -0.2292 -0.6971  0.5242
  157SAPE  H16X17599   3.046   3.872   8.852  0.3983 -1.5834 -0.9302
  157SAPE  H16Y17600   3.084   3.935   8.699 -1.6247 -1.6972 -0.0986
  157SAPE  C31717601   2.879   3.995   8.754  0.1483 -0.6121 -0.1187
  157SAPE  H17X17602   2.879   4.097   8.710 -0.0687 -0.7212 -0.3742
  157SAPE  H17Y17603   2.816   4.001   8.846 -0.7500 -0.3423 -0.7375
  157SAPE  C31817604   2.821   3.887   8.671  0.4720  0.3018  0.0410
  157SAPE  H18X17605   2.843   3.792   8.725  3.0563  0.3842 -0.7293
  157SAPE  H18Y17606   2.877   3.878   8.575  2.1649 -1.3451  1.1205
  157SAPE  H18Z17607   2.716   3.909   8.642  0.7784 -0.0483 -1.4331
  158SAPE     N17608   6.695   2.526  10.717 -0.0816  0.1106  0.0731
  158SAPE   HN117609   6.717   2.618  10.675  0.1015  1.5775  3.1524
  158SAPE   HN217610   6.603   2.543  10.763 -0.9990 -1.2087 -1.1618
  158SAPE   HN317611   6.774   2.507  10.781  2.4050 -0.6953 -2.9791
  158SAPE   C1217612   6.677   2.428  10.604 -0.5183  0.9345  0.1538
  158SAPE  H12A17613   6.665   2.328  10.651 -0.1036  0.2129 -1.2287
  158SAPE  H12B17614   6.763   2.447  10.536 -1.5463 -0.3998 -1.5918
  158SAPE   C1117615   6.539   2.449  10.530 -0.0898  0.3198  0.5307
  158SAPE  H11A17616   6.452   2.421  10.594 -1.9498  2.0567 -1.0685
  158SAPE  H11B17617   6.547   2.389  10.436 -1.0937  0.7637  0.1488
  158SAPE     P17618   6.394   2.640  10.427  0.3357 -0.1736 -0.1541
  158SAPE   O1317619   6.277   2.647  10.520  0.5999  0.6622  0.2387
  158SAPE   O1417620   6.433   2.770  10.359 -0.3146 -0.5385  0.4855
  158SAPE   O1217621   6.533   2.590  10.501 -0.1025  1.2191 -0.0537
  158SAPE   O1117622   6.373   2.523  10.327  0.1625 -0.4552  0.1240
  158SAPE    C117623   6.413   2.526  10.192 -0.4460  0.3321  0.5401
  158SAPE    HA17624   6.367   2.439  10.141 -0.2360 -0.5416  1.7908
  158SAPE    HB17625   6.393   2.628  10.152  0.6927 -0.6828 -3.0463
  158SAPE    C217626   6.569   2.505  10.175 -0.2915 -0.0803 -0.3981
  158SAPE    HS17627   6.588   2.418  10.243 -0.8468  0.2793  0.2269
  158SAPE   O2117628   6.641   2.626  10.217 -0.9344  0.5081  0.5972
  158SAPE   C2117629   6.760   2.595  10.276  0.0386 -0.6126 -0.5088
  158SAPE   O2217630   6.802   2.487  10.311 -0.3931 -0.2533  0.4406
  158SAPE   C2217631   6.840   2.720  10.295  0.0219 -0.2523  0.2848
  158SAPE   H2R17632   6.780   2.781  10.367  3.1446 -0.5334  3.4024
  158SAPE   H2S17633   6.945   2.703  10.329  0.8214  1.5759 -1.0640
  158SAPE    C317634   6.602   2.471  10.029 -0.4124 -0.0474 -0.3541
  158SAPE    HX17635   6.531   2.392   9.994 -0.5802 -0.5842  1.1462
  158SAPE    HY17636   6.702   2.423  10.030 -0.9441 -1.2951  2.4535
  158SAPE   O3117637   6.598   2.590   9.954  0.3943  0.1579 -0.3409
  158SAPE   C3117638   6.588   2.576   9.814 -0.4849  0.4350 -0.1823
  158SAPE   O3217639   6.592   2.464   9.762 -0.4172 -0.6638 -0.1336
  158SAPE   C3217640   6.579   2.723   9.755 -0.0734 -0.1750  0.1787
  158SAPE   H2X17641   6.593   2.787   9.845 -2.7940 -2.1336  2.1573
  158SAPE   H2Y17642   6.476   2.739   9.716 -0.0527  1.5002  0.7093
  158SAPE   C2317643   6.866   2.817  10.166 -0.8340  0.1463  0.5452
  158SAPE   H3R17644   6.923   2.901  10.212 -0.1675  0.1160 -0.1973
  158SAPE   H3S17645   6.772   2.860  10.125  0.0302  2.4889  0.8526
  158SAPE   C2417646   6.964   2.742  10.066 -0.1215 -0.6232 -0.6068
  158SAPE   H4R17647   6.969   2.784   9.963  1.2346  1.6818  0.3076
  158SAPE   H4S17648   6.934   2.635  10.063 -0.6506 -0.5083  0.3517
  158SAPE   C2517649   7.109   2.738  10.123  0.3424  0.8584 -0.1436
  158SAPE   H5R17650   7.110   2.712  10.229 -1.3613 -0.4302 -0.4137
  158SAPE   C2617651   7.226   2.760  10.067  0.0032 -0.7695 -0.4204
  158SAPE   H6R17652   7.314   2.774  10.132  1.6289  0.4855 -2.7342
  158SAPE   C2717653   7.248   2.787   9.923 -0.7663  0.5703  0.4486
  158SAPE   H7R17654   7.207   2.716   9.847  2.6570 -2.6094  1.2718
  158SAPE   H7S17655   7.356   2.765   9.910 -1.3654 -2.8524  0.1002
  158SAPE   C2817656   7.216   2.932   9.883 -0.1700 -1.0053  0.5333
  158SAPE   H8R17657   7.172   2.995   9.961  0.5223 -0.3540  0.4114
  158SAPE   C2917658   7.218   3.003   9.767  0.4498  0.9386 -0.5225
  158SAPE   H9R17659   7.201   3.111   9.772  0.4169  0.8714  1.2719
  158SAPE  C21017660   7.251   2.929   9.643  0.3234 -0.0597 -0.1258
  158SAPE  H10R17661   7.154   2.898   9.598  1.5373 -2.2665 -1.3994
  158SAPE  H10S17662   7.309   2.835   9.653 -0.0841 -0.2126  0.8706
  158SAPE  C21117663   7.305   3.024   9.539 -0.8941 -0.2796  0.2238
  158SAPE  H11R17664   7.366   3.103   9.583  0.2516 -0.9209 -0.1762
  158SAPE  C21217665   7.292   3.016   9.404 -0.1649 -0.5111  0.1531
  158SAPE  H12R17666   7.305   3.110   9.347 -5.1408 -0.5133 -1.4620
  158SAPE  C21317667   7.206   2.919   9.336  0.3726 -0.3519  0.5070
  158SAPE  H13R17668   7.117   2.976   9.301  2.0925  1.3092 -1.4634
  158SAPE  H13S17669   7.169   2.844   9.408  1.1734 -0.5066  0.7650
  158SAPE  C21417670   7.279   2.850   9.223 -0.7932  0.0763  0.3384
  158SAPE  H14R17671   7.354   2.775   9.249  1.1069  1.0105 -2.0324
  158SAPE  C21517672   7.250   2.867   9.089 -0.1035 -0.0564 -0.6745
  158SAPE  H15R17673   7.315   2.809   9.023 -0.6254 -0.6838 -0.6408
  158SAPE  C21617674   7.137   2.953   9.031  0.0434 -0.0678 -0.4618
  158SAPE  H16R17675   7.073   2.990   9.114  0.3078 -0.6639  0.0159
  158SAPE  H16S17676   7.078   2.899   8.953 -0.4244 -1.3055  0.7161
  158SAPE  C21717677   7.189   3.082   8.962 -0.0813 -0.2868  0.6960
  158SAPE  H17R17678   7.270   3.129   9.022 -1.3138  2.9736  0.0489
  158SAPE  H17S17679   7.113   3.164   8.963 -1.1653 -1.2475 -0.2472
  158SAPE  C21817680   7.241   3.057   8.816 -0.3566 -0.3772 -0.5265
  158SAPE  H18R17681   7.290   2.957   8.811  0.2537 -0.1891  1.1513
  158SAPE  H18S17682   7.326   3.127   8.799 -1.6094  1.1960 -0.4863
  158SAPE  C21917683   7.142   3.087   8.703 -0.0657 -0.4436 -0.0802
  158SAPE  H19R17684   7.177   3.050   8.605  1.7086  0.6245  0.1090
  158SAPE  H19S17685   7.125   3.197   8.702 -1.2978 -0.6187 -1.1014
  158SAPE  C22017686   7.005   3.025   8.727  0.0311  0.4577 -0.2281
  158SAPE  H20R17687   7.006   2.916   8.749  0.7735  0.7937  1.6020
  158SAPE  H20S17688   6.937   3.050   8.643  0.5238 -0.3593 -0.8820
  158SAPE  H20T17689   6.969   3.072   8.821  0.1655  0.3558 -0.1256
  158SAPE   C3317690   6.658   2.741   9.627  0.5568  0.5106  0.2792
  158SAPE   H3X17691   6.585   2.799   9.566 -0.2118 -1.4297 -0.7384
  158SAPE   H3Y17692   6.667   2.645   9.572 -1.9255 -0.0548  0.7319
  158SAPE   C3417693   6.779   2.831   9.641 -0.5196  0.4787 -0.4890
  158SAPE   H4X17694   6.857   2.789   9.708 -0.6473 -1.6197 -1.5804
  158SAPE   H4Y17695   6.742   2.922   9.693 -0.7691 -0.4335  0.9946
  158SAPE   C3517696   6.856   2.868   9.509 -0.7944 -0.1783  0.0806
  158SAPE   H5X17697   6.896   2.781   9.453  1.6276  2.1753 -2.1080
  158SAPE   H5Y17698   6.949   2.923   9.534 -1.4742  1.6332 -1.1866
  158SAPE   C3617699   6.778   2.956   9.415 -0.0650  0.5886  0.6823
  158SAPE   H6X17700   6.850   3.033   9.380  0.6479  1.3715  3.6333
  158SAPE   H6Y17701   6.698   3.015   9.465 -0.4525  0.8941 -0.2800
  158SAPE   C3717702   6.720   2.880   9.295 -0.1442  1.1110 -0.1384
  158SAPE   H7X17703   6.641   2.808   9.326  0.7590  0.4876  0.7634
  158SAPE   H7Y17704   6.798   2.817   9.246  0.9755  4.4681 -3.1481
  158SAPE   C3817705   6.654   2.960   9.189  0.1290  0.3757 -0.0073
  158SAPE   H8X17706   6.565   3.012   9.230 -0.6449  0.2052 -1.4395
  158SAPE   H8Y17707   6.613   2.903   9.103  0.7747  1.9227 -1.3973
  158SAPE   C3917708   6.734   3.080   9.143 -0.6834 -0.2086 -0.5384
  158SAPE   H9X17709   6.833   3.040   9.112 -0.4135 -0.9732  1.1729
  158SAPE   H9Y17710   6.745   3.149   9.229 -2.6819 -1.4374  0.7776
  158SAPE  C31017711   6.672   3.164   9.031  0.0442 -0.2601  0.0255
  158SAPE  H10X17712   6.752   3.227   8.988  1.6016 -1.9489  0.3293
  158SAPE  H10Y17713   6.590   3.228   9.071  0.7970  0.8308 -0.1167
  158SAPE  C31117714   6.615   3.093   8.911 -0.6850 -0.2925  0.2362
  158SAPE  H11X17715   6.527   3.032   8.941 -0.8729  1.0752  2.6237
  158SAPE  H11Y17716   6.702   3.030   8.880 -0.2085  0.7227 -0.5408
  158SAPE  C31217717   6.595   3.180   8.787  0.2836 -0.6034  0.4989
  158SAPE  H12X17718   6.678   3.253   8.779  0.9912 -1.0755  2.8127
  158SAPE  H12Y17719   6.515   3.254   8.806  0.8954  0.2210 -0.0847
  158SAPE  C31317720   6.556   3.108   8.656 -1.2148  0.1234  0.4274
  158SAPE  H13X17721   6.464   3.049   8.671  1.3426 -4.4407 -0.0130
  158SAPE  H13Y17722   6.635   3.031   8.639  1.1172  1.9541  2.1692
  158SAPE  C31417723   6.532   3.182   8.532  0.0199 -0.0941  1.7958
  158SAPE  H14X17724   6.476   3.276   8.553 -1.7737 -1.0641  1.5886
  158SAPE  H14Y17725   6.490   3.118   8.451  1.3919 -0.5626  1.4203
  158SAPE  C31517726   6.663   3.222   8.462  0.5475  0.7214  0.8284
  158SAPE  H15X17727   6.659   3.211   8.352  1.4359 -2.3059  1.0035
  158SAPE  H15Y17728   6.741   3.150   8.495  1.3147  0.0896 -2.1338
  158SAPE  C31617729   6.705   3.364   8.487 -0.8892  0.6369 -0.5477
  158SAPE  H16X17730   6.740   3.380   8.591  0.2033  1.2102 -0.9929
  158SAPE  H16Y17731   6.622   3.437   8.475  0.0098  1.7253 -0.3255
  158SAPE  C31717732   6.819   3.401   8.386 -0.6289  0.8464 -0.7011
  158SAPE  H17X17733   6.845   3.509   8.392 -2.5198  1.2741  1.2762
  158SAPE  H17Y17734   6.766   3.396   8.289 -0.8856  0.6177 -0.5485
  158SAPE  C31817735   6.945   3.316   8.396  0.2528 -0.0183  0.0554
  158SAPE  H18X17736   6.910   3.211   8.382 -1.2353  0.3269  0.8901
  158SAPE  H18Y17737   6.986   3.329   8.498 -1.6712 -2.3715  1.2494
  158SAPE  H18Z17738   7.017   3.346   8.318  2.2291 -0.2689  1.7131
  159SAPE     N17739   1.570   0.504   6.308 -0.0898  0.2147 -0.9449
  159SAPE   HN117740   1.478   0.465   6.336  1.0368 -0.0921  2.7747
  159SAPE   HN217741   1.610   0.534   6.399  1.6064 -2.3931 -0.7123
  159SAPE   HN317742   1.550   0.584   6.245 -0.5717  0.7334 -0.1506
  159SAPE   C1217743   1.648   0.400   6.236  0.0477  0.3492 -0.9197
  159SAPE  H12A17744   1.734   0.444   6.180 -0.7165  1.3837 -1.2967
  159SAPE  H12B17745   1.574   0.364   6.162 -1.7189  1.5670  0.1861
  159SAPE   C1117746   1.702   0.279   6.323  0.5158 -0.0438 -0.4420
  159SAPE  H11A17747   1.745   0.203   6.254  1.9701 -2.1861  2.6143
  159SAPE  H11B17748   1.619   0.225   6.373  1.2491  0.1861  1.0832
  159SAPE     P17749   1.886   0.194   6.478  0.1052  0.2171 -0.2783
  159SAPE   O1317750   1.915   0.094   6.372 -0.4812  0.3352  0.3188
  159SAPE   O1417751   1.995   0.258   6.546  0.3982 -0.4179 -0.3086
  159SAPE   O1217752   1.806   0.311   6.416  0.3651  0.8807 -0.0904
  159SAPE   O1117753   1.771   0.133   6.570 -0.0344 -0.1675  0.1245
  159SAPE    C117754   1.745   0.189   6.697  0.6779  0.0841 -0.1119
  159SAPE    HA17755   1.675   0.125   6.754  0.9166  0.3076  0.4433
  159SAPE    HB17756   1.838   0.202   6.756  0.0051  0.3604  0.9281
  159SAPE    C217757   1.671   0.325   6.694  0.3635  0.2463  0.2025
  159SAPE    HS17758   1.722   0.395   6.624 -0.1787  0.0001 -0.4506
  159SAPE   O2117759   1.685   0.377   6.826  0.1997  0.2417 -0.7480
  159SAPE   C2117760   1.692   0.513   6.840 -0.1606 -0.0102  0.3206
  159SAPE   O2217761   1.685   0.592   6.749  0.3986  0.0819  0.7350
  159SAPE   C2217762   1.712   0.555   6.989  0.1761 -0.0164 -0.4232
  159SAPE   H2R17763   1.713   0.464   7.052  0.1368 -0.7041 -1.3914
  159SAPE   H2S17764   1.815   0.596   6.993 -0.1801  0.8512  0.0402
  159SAPE    C317765   1.525   0.322   6.649 -0.0774 -0.4835  0.1421
  159SAPE    HX17766   1.516   0.264   6.555 -3.2702 -0.0758  0.0956
  159SAPE    HY17767   1.487   0.424   6.630 -0.0571 -0.5572 -0.3088
  159SAPE   O3117768   1.445   0.234   6.735 -0.4015  0.1626  0.5846
  159SAPE   C3117769   1.387   0.309   6.826 -0.1274  0.4345 -0.8341
  159SAPE   O3217770   1.402   0.428   6.841 -0.4471 -0.2868 -0.2291
  159SAPE   C3217771   1.300   0.221   6.916  0.8555  0.1466  0.4415
  159SAPE   H2X17772   1.365   0.152   6.972  4.7365  1.1738 -2.3180
  159SAPE   H2Y17773   1.225   0.166   6.854 -1.3697  2.2930  1.0449
  159SAPE   C2317774   1.601   0.653   7.044  0.3502  0.0560  0.3638
  159SAPE   H3R17775   1.510   0.594   7.069 -1.1487  1.5259 -1.3607
  159SAPE   H3S17776   1.573   0.725   6.964  1.5242 -1.9503 -1.9470
  159SAPE   C2417777   1.648   0.734   7.167 -0.0326  0.2674 -0.0392
  159SAPE   H4R17778   1.667   0.649   7.235  0.8035  0.4767 -0.0022
  159SAPE   H4S17779   1.561   0.788   7.211 -2.2423 -1.5334 -1.8798
  159SAPE   C2517780   1.762   0.827   7.136  0.1823  0.3901  0.1568
  159SAPE   H5R17781   1.739   0.919   7.081  0.3575 -0.0309 -0.6276
  159SAPE   C2617782   1.885   0.809   7.186 -0.1783 -0.1277  0.3847
  159SAPE   H6R17783   1.960   0.875   7.140 -1.9568  0.8322 -1.3164
  159SAPE   C2717784   1.937   0.703   7.279 -0.2610 -0.4059  0.5059
  159SAPE   H7R17785   1.963   0.616   7.215 -2.0344 -1.0873  0.6518
  159SAPE   H7S17786   1.846   0.679   7.338 -1.5091  1.5940 -0.5218
  159SAPE   C2817787   2.059   0.763   7.349  0.9336  0.3074 -0.7333
  159SAPE   H8R17788   2.100   0.855   7.305  1.7348  0.9914  1.2755
  159SAPE   C2917789   2.116   0.717   7.464  0.3706 -0.2023 -0.1831
  159SAPE   H9R17790   2.206   0.769   7.500 -0.7698  0.6531  1.5661
  159SAPE  C21017791   2.065   0.594   7.541 -0.6567 -0.3320  0.1135
  159SAPE  H10R17792   2.125   0.504   7.513 -1.2184 -0.4746 -0.6711
  159SAPE  H10S17793   1.957   0.572   7.525 -0.1954 -1.0117 -2.5729
  159SAPE  C21117794   2.062   0.613   7.690  0.1085  0.0213 -0.0022
  159SAPE  H11R17795   1.967   0.658   7.722 -0.1080 -0.5147  0.1184
  159SAPE  C21217796   2.164   0.595   7.780 -0.1627 -0.2054 -0.3607
  159SAPE  H12R17797   2.134   0.620   7.883  0.4111  0.1803 -0.2848
  159SAPE  C21317798   2.305   0.555   7.757 -0.4913  0.2748 -0.4314
  159SAPE  H13R17799   2.363   0.608   7.835 -0.0549  0.5823 -0.9555
  159SAPE  H13S17800   2.329   0.589   7.653 -3.9375  2.0648 -0.7791
  159SAPE  C21417801   2.334   0.412   7.772  0.4828  0.0555  1.0229
  159SAPE  H14R17802   2.247   0.349   7.746 -0.8523  1.8215  1.0454
  159SAPE  C21517803   2.448   0.355   7.820 -0.3169 -0.1427  0.5350
  159SAPE  H15R17804   2.450   0.247   7.844 -0.1639 -0.2630  0.0082
  159SAPE  C21617805   2.573   0.424   7.860 -0.3038  0.1104  0.1815
  159SAPE  H16R17806   2.570   0.532   7.836 -1.5378 -0.1175 -0.8047
  159SAPE  H16S17807   2.654   0.374   7.802  0.6849  1.6556  0.1687
  159SAPE  C21717808   2.609   0.413   8.013 -0.3704  0.1899  1.2550
  159SAPE  H17R17809   2.704   0.470   8.017  0.0868 -0.3748 -0.6954
  159SAPE  H17S17810   2.636   0.314   8.054 -1.6900 -0.4789  0.5399
  159SAPE  C21817811   2.499   0.474   8.095 -0.5496  0.1487 -0.5134
  159SAPE  H18R17812   2.417   0.398   8.091  0.3148 -1.0353  1.9399
  159SAPE  H18S17813   2.471   0.574   8.056 -0.8904 -0.4078 -1.7248
  159SAPE  C21917814   2.539   0.501   8.244  0.0032 -0.2879 -0.0831
  159SAPE  H19R17815   2.587   0.412   8.291 -0.3427 -0.6493 -0.4163
  159SAPE  H19S17816   2.441   0.518   8.293 -0.0156  0.8448 -0.4744
  159SAPE  C22017817   2.623   0.629   8.261 -0.1913 -0.1005  0.1903
  159SAPE  H20R17818   2.729   0.608   8.232  0.9937  1.6975  2.8336
  159SAPE  H20S17819   2.620   0.673   8.363 -2.8732 -0.5530  0.3755
  159SAPE  H20T17820   2.577   0.710   8.200 -2.6681  0.2441  2.3769
  159SAPE   C3317821   1.214   0.300   7.017  0.1712  0.5276  0.7031
  159SAPE   H3X17822   1.137   0.228   7.053 -0.7258  1.6312  1.0704
  159SAPE   H3Y17823   1.158   0.387   6.976 -0.9861 -0.1597  0.7725
  159SAPE   C3417824   1.296   0.361   7.128  0.5556  0.2628  0.3617
  159SAPE   H4X17825   1.249   0.458   7.154  1.0626  0.5887  0.0749
  159SAPE   H4Y17826   1.401   0.381   7.100  0.2878  1.7072  0.3174
  159SAPE   C3517827   1.315   0.279   7.257 -0.5676  0.4359 -0.2869
  159SAPE   H5X17828   1.375   0.186   7.247 -2.2007 -0.8666  1.3412
  159SAPE   H5Y17829   1.218   0.256   7.305  0.7390 -2.0971  1.3837
  159SAPE   C3617830   1.395   0.363   7.369 -0.5478  0.1854  0.4954
  159SAPE   H6X17831   1.399   0.301   7.462  0.0891  0.2789  0.5371
  159SAPE   H6Y17832   1.351   0.460   7.400 -0.4646  0.7438 -1.0468
  159SAPE   C3717833   1.542   0.374   7.330  0.4602  0.3073  0.3690
  159SAPE   H7X17834   1.557   0.429   7.234  1.7160 -0.6416 -0.0031
  159SAPE   H7Y17835   1.580   0.270   7.320 -2.4126 -0.8936  1.1029
  159SAPE   C3817836   1.634   0.443   7.431  0.6373 -0.5398 -0.5955
  159SAPE   H8X17837   1.599   0.549   7.436 -1.2507 -1.1645  0.5386
  159SAPE   H8Y17838   1.736   0.435   7.389  0.7662 -1.5746 -0.1099
  159SAPE   C3917839   1.641   0.396   7.579  0.4916  0.1853  0.6619
  159SAPE   H9X17840   1.697   0.301   7.571 -1.6886 -1.0900 -0.5071
  159SAPE   H9Y17841   1.540   0.367   7.616  0.3090  0.2908  0.2459
  159SAPE  C31017842   1.708   0.484   7.686  0.1939  0.8558  0.1735
  159SAPE  H10X17843   1.662   0.585   7.687 -2.0921 -0.1064  0.5118
  159SAPE  H10Y17844   1.816   0.483   7.662  0.9628 -1.6724  3.0008
  159SAPE  C31117845   1.688   0.430   7.829 -0.1678  0.4004  0.3373
  159SAPE  H11X17846   1.718   0.324   7.840  1.3856  0.6020 -1.4412
  159SAPE  H11Y17847   1.578   0.420   7.839 -0.1593  0.6791  0.7405
  159SAPE  C31217848   1.752   0.523   7.933 -0.5309  0.2522 -0.1516
  159SAPE  H12X17849   1.700   0.621   7.946  1.5807  1.1933  2.1842
  159SAPE  H12Y17850   1.856   0.544   7.902 -1.0791  0.8200 -1.7091
  159SAPE  C31317851   1.738   0.474   8.071  0.4682 -0.3974  0.4271
  159SAPE  H13X17852   1.785   0.375   8.082  0.2079 -0.5885 -0.1339
  159SAPE  H13Y17853   1.635   0.466   8.110  0.0081 -2.0377 -1.0124
  159SAPE  C31417854   1.823   0.562   8.164  0.6736  0.2445  0.0124
  159SAPE  H14X17855   1.819   0.505   8.259 -0.5397  1.9454  1.0446
  159SAPE  H14Y17856   1.773   0.657   8.192  0.2524 -0.9054  3.7325
  159SAPE  C31517857   1.971   0.598   8.125 -0.3680  0.6395 -0.5236
  159SAPE  H15X17858   1.955   0.659   8.033  0.1418  0.6551 -0.6067
  159SAPE  H15Y17859   2.021   0.504   8.095 -1.8443 -1.1318  2.1776
  159SAPE  C31617860   2.050   0.680   8.227  0.2221  0.0634  0.1059
  159SAPE  H16X17861   1.989   0.772   8.238  0.6528  0.5106 -1.0924
  159SAPE  H16Y17862   2.150   0.689   8.180  0.3949  0.3513  0.5173
  159SAPE  C31717863   2.066   0.604   8.351 -0.4372  0.3212 -0.5606
  159SAPE  H17X17864   2.126   0.511   8.347 -2.7505 -1.3530  1.2317
  159SAPE  H17Y17865   1.970   0.563   8.389  0.4356 -1.5496 -0.2990
  159SAPE  C31817866   2.145   0.685   8.461  0.0008  0.3808 -0.0640
  159SAPE  H18X17867   2.234   0.737   8.421  0.1675  2.1617  2.4614
  159SAPE  H18Y17868   2.175   0.611   8.538 -1.1598 -0.0830 -0.0331
  159SAPE  H18Z17869   2.076   0.752   8.516  0.4826 -0.0391  1.0736
  160SAPE     N17870   0.702   6.433   6.513  0.8526 -0.6121  0.5492
  160SAPE   HN117871   0.802   6.459   6.526  0.8406  0.3140 -0.9940
  160SAPE   HN217872   0.642   6.472   6.590  2.6655  0.5144  1.4760
  160SAPE   HN317873   0.708   6.330   6.510  1.6593 -0.5612  0.2652
  160SAPE   C1217874   0.646   6.506   6.389  0.9681 -0.2936  0.3537
  160SAPE  H12A17875   0.539   6.478   6.380  1.2157 -1.3530  0.6628
  160SAPE  H12B17876   0.711   6.466   6.308 -1.2406 -1.7765 -0.7846
  160SAPE   C1117877   0.652   6.660   6.412  0.2644  1.2271 -0.3829
  160SAPE  H11A17878   0.598   6.690   6.504  2.3443 -0.5686  1.5606
  160SAPE  H11B17879   0.604   6.706   6.323  1.0420  0.6438 -1.1228
  160SAPE     P17880   0.819   6.866   6.449 -0.4624 -0.3329  0.5619
  160SAPE   O1317881   0.961   6.893   6.464  0.0830  0.1031  0.8232
  160SAPE   O1417882   0.749   6.942   6.343 -0.1828  0.1636 -0.1391
  160SAPE   O1217883   0.791   6.706   6.415 -0.0056 -0.5687 -0.0225
  160SAPE   O1117884   0.752   6.882   6.593 -0.0343 -0.1474 -0.0518
  160SAPE    C117885   0.795   6.794   6.695 -0.8318  0.7611 -0.7842
  160SAPE    HA17886   0.754   6.691   6.683 -1.9295  1.3286 -2.0365
  160SAPE    HB17887   0.906   6.783   6.701 -0.8403  0.1197 -1.6095
  160SAPE    C217888   0.752   6.848   6.830  0.2622 -0.5749  0.8924
  160SAPE    HS17889   0.771   6.770   6.907  2.4780 -1.9769 -0.9778
  160SAPE   O2117890   0.618   6.896   6.820  0.3872 -0.6114 -0.3661
  160SAPE   C2117891   0.534   6.795   6.849 -0.1066 -0.3597  0.8982
  160SAPE   O2217892   0.559   6.677   6.847  0.1318  0.0320  0.8907
  160SAPE   C2217893   0.400   6.863   6.896 -0.3928  0.6787 -0.9782
  160SAPE   H2R17894   0.393   6.946   6.823  0.9293  0.4113 -1.4208
  160SAPE   H2S17895   0.312   6.795   6.893 -0.2473  0.3777  0.6630
  160SAPE    C317896   0.842   6.972   6.861  0.3232 -0.2399 -0.1683
  160SAPE    HX17897   0.819   7.046   6.780 -1.1462  2.2572  2.3621
  160SAPE    HY17898   0.948   6.946   6.836  0.3985 -0.4006  0.3106
  160SAPE   O3117899   0.825   7.020   7.000  0.4294  0.4084 -0.3380
  160SAPE   C3117900   0.820   7.144   7.030 -0.1769  0.6099 -0.1007
  160SAPE   O3217901   0.816   7.232   6.948 -0.3170 -0.0028 -0.3030
  160SAPE   C3217902   0.850   7.177   7.178  0.3348 -0.0354 -0.7795
  160SAPE   H2X17903   0.960   7.195   7.185  0.3408 -0.3682  0.0423
  160SAPE   H2Y17904   0.810   7.098   7.244 -0.2729  1.1890  0.3727
  160SAPE   C2317905   0.420   6.936   7.039 -0.2142  0.6048  1.4054
  160SAPE   H3R17906   0.328   6.997   7.052  0.0141  1.3704 -0.3081
  160SAPE   H3S17907   0.510   6.999   7.024  2.1547 -2.9323 -0.6706
  160SAPE   C2417908   0.428   6.847   7.164  0.4740  0.5569 -0.2797
  160SAPE   H4R17909   0.348   6.770   7.172  1.3338 -0.3027  0.3201
  160SAPE   H4S17910   0.414   6.912   7.252 -2.3229 -1.1093  0.6180
  160SAPE   C2517911   0.562   6.781   7.199  0.6569  0.4525  0.3214
  160SAPE   H5R17912   0.590   6.693   7.140  1.3577  0.7275  0.2343
  160SAPE   C2617913   0.643   6.819   7.304  0.0786 -0.0232 -0.1550
  160SAPE   H6R17914   0.734   6.761   7.324  1.1567  1.9080  0.9008
  160SAPE   C2717915   0.611   6.914   7.414  0.2903 -0.4428  0.2659
  160SAPE   H7R17916   0.500   6.918   7.427  0.1563  1.4560 -0.9665
  160SAPE   H7S17917   0.630   7.018   7.378  0.3211 -1.4839 -2.9883
  160SAPE   C2817918   0.682   6.900   7.545  0.0375 -0.0812  0.2647
  160SAPE   H8R17919   0.771   6.964   7.555 -1.5397  2.6868 -1.9074
  160SAPE   C2917920   0.648   6.810   7.643  0.3075 -0.0003  0.2991
  160SAPE   H9R17921   0.696   6.825   7.741 -1.0928  2.0727  0.7211
  160SAPE  C21017922   0.523   6.723   7.639 -0.2217 -0.8806  0.0212
  160SAPE  H10R17923   0.567   6.621   7.639  1.5624 -0.1398  0.6241
  160SAPE  H10S17924   0.459   6.725   7.548 -0.7131 -2.6732  0.2726
  160SAPE  C21117925   0.424   6.751   7.749  0.3826  0.2815 -0.2651
  160SAPE  H11R17926   0.361   6.839   7.733 -1.3582 -1.0970 -1.4244
  160SAPE  C21217927   0.415   6.679   7.864 -0.5933  0.0871 -0.4900
  160SAPE  H12R17928   0.347   6.699   7.947  1.1651  0.6490  0.8659
  160SAPE  C21317929   0.502   6.560   7.885 -0.3063  0.1724  0.2012
  160SAPE  H13R17930   0.520   6.495   7.797  0.4176 -0.5139  0.8336
  160SAPE  H13S17931   0.445   6.488   7.947 -1.4657 -0.2987 -1.3487
  160SAPE  C21417932   0.646   6.575   7.945 -0.4263  0.9928 -0.0873
  160SAPE  H14R17933   0.712   6.641   7.887 -0.1181  1.3837  0.6942
  160SAPE  C21517934   0.689   6.531   8.066  0.3905 -0.5171 -0.0174
  160SAPE  H15R17935   0.792   6.552   8.098  1.0494  1.1775 -2.8485
  160SAPE  C21617936   0.611   6.453   8.165 -0.0050  0.1340 -0.4190
  160SAPE  H16R17937   0.640   6.346   8.155 -2.0082 -0.5155  0.2492
  160SAPE  H16S17938   0.504   6.475   8.145  0.2882 -1.1481 -4.2618
  160SAPE  C21717939   0.630   6.495   8.315 -0.3023 -0.1584 -0.3909
  160SAPE  H17R17940   0.551   6.438   8.368 -0.7001 -0.9994 -1.8399
  160SAPE  H17S17941   0.606   6.604   8.314  1.9317  0.3953 -1.8686
  160SAPE  C21817942   0.768   6.460   8.370  0.7492 -0.1829 -0.0561
  160SAPE  H18R17943   0.844   6.537   8.345  0.4491 -0.2270 -1.1441
  160SAPE  H18S17944   0.793   6.362   8.325  0.6296 -0.2576  0.0415
  160SAPE  C21917945   0.766   6.431   8.522 -0.1101  0.8293 -0.0771
  160SAPE  H19R17946   0.681   6.364   8.548  0.8545 -1.0177 -1.4473
  160SAPE  H19S17947   0.747   6.527   8.574 -0.0444  1.4854 -1.2259
  160SAPE  C22017948   0.894   6.367   8.559 -0.4379  0.4075  0.4163
  160SAPE  H20R17949   0.912   6.279   8.493  2.4567  2.0585 -1.1847
  160SAPE  H20S17950   0.887   6.346   8.668 -0.2952  2.0244  0.7536
  160SAPE  H20T17951   0.983   6.427   8.531  1.0055 -2.1937 -0.9440
  160SAPE   C3317952   0.783   7.309   7.222 -0.2112  0.0037 -0.5077
  160SAPE   H3X17953   0.681   7.303   7.178 -0.2993 -0.6133 -0.2306
  160SAPE   H3Y17954   0.833   7.399   7.179 -0.0064 -0.1280 -0.5466
  160SAPE   C3417955   0.773   7.316   7.372 -0.3327 -0.4422  0.0630
  160SAPE   H4X17956   0.702   7.232   7.389 -1.4043  0.4669  0.1983
  160SAPE   H4Y17957   0.722   7.411   7.401  1.0266 -0.1211  1.5392
  160SAPE   C3517958   0.908   7.303   7.448  0.2081 -0.0732  0.2029
  160SAPE   H5X17959   0.965   7.397   7.429 -1.3697  1.3465  2.0503
  160SAPE   H5Y17960   0.963   7.215   7.408  1.7892  1.9721 -2.4928
  160SAPE   C3617961   0.882   7.275   7.593 -0.0027  0.0237 -0.5349
  160SAPE   H6X17962   0.812   7.189   7.594  2.6064 -2.2474 -1.1762
  160SAPE   H6Y17963   0.827   7.368   7.621 -2.6338 -1.7657  0.6140
  160SAPE   C3717964   1.011   7.230   7.675  0.1135 -0.2086  0.5752
  160SAPE   H7X17965   1.096   7.300   7.660  2.1818 -2.8282 -0.8602
  160SAPE   H7Y17966   1.045   7.131   7.637  2.7961  1.3960 -1.6400
  160SAPE   C3817967   0.979   7.219   7.821  0.6923 -0.8949  0.1381
  160SAPE   H8X17968   0.935   7.317   7.849  0.8126 -0.9786  0.6246
  160SAPE   H8Y17969   1.070   7.201   7.882  1.0121  1.2919  0.3965
  160SAPE   C3917970   0.864   7.122   7.861 -1.6845  0.0071  0.1148
  160SAPE   H9X17971   0.899   7.026   7.818 -0.0752  0.9779 -0.8174
  160SAPE   H9Y17972   0.778   7.157   7.800  0.7609 -0.1236 -3.7075
  160SAPE  C31017973   0.842   7.103   8.015 -0.0447  0.4410  0.3528
  160SAPE  H10X17974   0.913   7.026   8.053  0.3640  0.6490  0.0093
  160SAPE  H10Y17975   0.740   7.063   8.034  0.2764 -0.2082  0.7531
  160SAPE  C31117976   0.858   7.241   8.091  0.0612 -0.2764 -0.2033
  160SAPE  H11X17977   0.800   7.310   8.026  1.8756  0.7230 -0.8267
  160SAPE  H11Y17978   0.956   7.293   8.093  0.3044 -0.7535  1.4396
  160SAPE  C31217979   0.804   7.240   8.238  0.0498  0.0984  0.6860
  160SAPE  H12X17980   0.842   7.151   8.291 -1.2256 -0.4859  0.6439
  160SAPE  H12Y17981   0.693   7.229   8.237  0.1198 -0.6826  1.4017
  160SAPE  C31317982   0.839   7.359   8.332 -0.5552  0.0313  0.7380
  160SAPE  H13X17983   0.816   7.451   8.275  0.9415 -0.0775 -0.0956
  160SAPE  H13Y17984   0.950   7.359   8.331 -0.5167 -0.7898 -1.5894
  160SAPE  C31417985   0.768   7.374   8.466  0.3546 -0.7411 -0.3625
  160SAPE  H14X17986   0.659   7.387   8.449 -0.1613 -3.1740  0.6526
  160SAPE  H14Y17987   0.814   7.470   8.496  1.5990 -1.4604  0.0940
  160SAPE  C31517988   0.793   7.259   8.563  0.1472  0.4480 -0.4239
  160SAPE  H15X17989   0.803   7.295   8.668 -1.2523  1.1533 -0.5053
  160SAPE  H15Y17990   0.883   7.200   8.537 -0.7430 -1.9375  1.4914
  160SAPE  C31617991   0.698   7.139   8.564  0.4550 -0.1063 -0.2853
  160SAPE  H16X17992   0.743   7.060   8.629 -0.7747 -1.2929 -0.8198
  160SAPE  H16Y17993   0.677   7.097   8.464  0.8647 -1.6822  0.2512
  160SAPE  C31717994   0.557   7.185   8.609  0.5595  0.2346 -0.9562
  160SAPE  H17X17995   0.512   7.262   8.543 -1.8547 -1.7630 -1.7842
  160SAPE  H17Y17996   0.563   7.241   8.705  0.7770 -0.3772 -0.6098
  160SAPE  C31817997   0.449   7.071   8.615 -0.1394 -0.4842 -0.4166
  160SAPE  H18X17998   0.349   7.108   8.646  1.0229  0.2279  2.9116
  160SAPE  H18Y17999   0.489   6.999   8.690  1.8755 -1.2465 -2.1425
  160SAPE  H18Z18000   0.446   7.022   8.516 -1.2095  1.9243 -1.6583
  161SAPE     N18001   3.953   4.446   6.157 -0.0324 -0.5680 -0.2504
  161SAPE   HN118002   4.026   4.433   6.085 -0.3211  0.5366 -0.7623
  161SAPE   HN218003   3.882   4.369   6.158 -0.9420  0.0224  4.0671
  161SAPE   HN318004   3.910   4.536   6.128  1.8986  0.3995 -0.2903
  161SAPE   C1218005   4.018   4.459   6.287  0.2087 -0.4552 -0.3356
  161SAPE  H12A18006   4.071   4.367   6.318  3.4406  0.8076 -1.7247
  161SAPE  H12B18007   3.941   4.491   6.361 -1.2930  0.1650 -2.0837
  161SAPE   C1118008   4.143   4.558   6.293  0.3642 -0.3459  0.4292
  161SAPE  H11A18009   4.232   4.499   6.260 -0.2443 -0.8241 -0.3925
  161SAPE  H11B18010   4.154   4.597   6.397  0.1530  1.1356 -0.0731
  161SAPE     P18011   4.237   4.747   6.146  0.4501 -0.4207 -0.1134
  161SAPE   O1318012   4.299   4.669   6.040 -0.1918 -0.2331 -0.1912
  161SAPE   O1418013   4.200   4.887   6.119  0.2418 -0.2500  0.8450
  161SAPE   O1218014   4.118   4.672   6.217  0.0364 -0.2230  1.3939
  161SAPE   O1118015   4.346   4.758   6.265  0.0366  0.4438 -0.4880
  161SAPE    C118016   4.338   4.858   6.367  0.2977 -0.2903  0.5575
  161SAPE    HA18017   4.366   4.960   6.334  0.0649 -0.8885 -1.5777
  161SAPE    HB18018   4.233   4.870   6.404  0.4459  0.8277  0.6406
  161SAPE    C218019   4.417   4.816   6.500  0.2956  0.4736  0.0268
  161SAPE    HS18020   4.524   4.820   6.473  0.9387 -0.2604  2.2446
  161SAPE   O2118021   4.368   4.688   6.546  0.1559  0.3263 -0.0628
  161SAPE   C2118022   4.466   4.609   6.608  1.1766 -0.9386  0.0069
  161SAPE   O2218023   4.580   4.646   6.625 -0.0576 -0.3776  0.8139
  161SAPE   C2218024   4.407   4.466   6.620 -0.3594 -0.4526 -0.5559
  161SAPE   H2R18025   4.303   4.475   6.659  0.4715  0.3485  1.6809
  161SAPE   H2S18026   4.394   4.439   6.514 -0.9219 -1.3361 -0.2734
  161SAPE    C318027   4.401   4.926   6.608  0.0038  0.7268 -0.5330
  161SAPE    HX18028   4.443   5.025   6.578  0.0954  0.1783 -2.3015
  161SAPE    HY18029   4.453   4.896   6.701  0.2052  1.1642 -0.5010
  161SAPE   O3118030   4.261   4.946   6.636  0.0211  0.2530 -0.1863
  161SAPE   C3118031   4.218   4.881   6.744 -0.3403 -0.4767 -0.3608
  161SAPE   O3218032   4.279   4.806   6.817  0.4332 -0.5126 -0.2701
  161SAPE   C3218033   4.085   4.943   6.781 -0.2162 -0.7203  0.1573
  161SAPE   H2X18034   4.006   4.907   6.712 -0.4846  0.4050 -0.1456
  161SAPE   H2Y18035   4.087   5.054   6.774  0.1949 -0.7010  0.5179
  161SAPE   C2318036   4.492   4.376   6.709 -0.2688 -0.6329  0.0344
  161SAPE   H3R18037   4.530   4.445   6.787  3.1662 -0.6800 -1.3951
  161SAPE   H3S18038   4.580   4.339   6.652 -0.8211 -1.2988 -0.4064
  161SAPE   C2418039   4.422   4.270   6.791 -0.1391 -0.7341 -0.1448
  161SAPE   H4R18040   4.377   4.196   6.721  0.3190 -0.4949 -0.6978
  161SAPE   H4S18041   4.335   4.313   6.846  0.0180 -1.9030  1.0885
  161SAPE   C2518042   4.515   4.174   6.863 -0.5580  0.0349  0.3754
  161SAPE   H5R18043   4.596   4.127   6.806 -0.1479 -1.1957  1.9126
  161SAPE   C2618044   4.507   4.149   6.998 -0.7288  0.2277 -0.6905
  161SAPE   H6R18045   4.566   4.060   7.025 -2.0498 -0.1238  1.2567
  161SAPE   C2718046   4.414   4.215   7.096  0.3532 -0.7445  0.4989
  161SAPE   H7R18047   4.355   4.293   7.044  1.1665  0.1066  0.8198
  161SAPE   H7S18048   4.470   4.271   7.175  0.5222 -2.5302  1.7031
  161SAPE   C2818049   4.328   4.106   7.148  0.1103  0.2448 -0.1068
  161SAPE   H8R18050   4.260   4.060   7.075  0.8442 -3.1992  1.2238
  161SAPE   C2918051   4.321   4.065   7.275 -0.2787  0.6592 -0.3500
  161SAPE   H9R18052   4.257   3.978   7.295  2.2495 -0.7227  2.3787
  161SAPE  C21018053   4.411   4.117   7.383 -0.3274  0.1772 -0.0952
  161SAPE  H10R18054   4.398   4.226   7.399  0.1435  0.2815 -0.4311
  161SAPE  H10S18055   4.517   4.101   7.352 -0.6891 -1.1967 -0.7351
  161SAPE  C21118056   4.382   4.050   7.514 -0.3271  0.2466  0.0944
  161SAPE  H11R18057   4.315   4.113   7.574 -1.3855 -1.3564  0.6903
  161SAPE  C21218058   4.421   3.933   7.562  0.4720  0.0839 -0.4447
  161SAPE  H12R18059   4.381   3.902   7.659 -0.5983  1.1740 -0.5130
  161SAPE  C21318060   4.499   3.828   7.498 -0.4989  0.5516  0.3655
  161SAPE  H13R18061   4.600   3.833   7.543  0.5802  0.1633 -1.8547
  161SAPE  H13S18062   4.521   3.864   7.395  2.0790 -2.5940 -0.3404
  161SAPE  C21418063   4.460   3.681   7.480 -0.0971  1.0256 -0.8620
  161SAPE  H14R18064   4.515   3.619   7.552 -1.2254 -0.0599 -0.9021
  161SAPE  C21518065   4.360   3.628   7.408  0.0409 -0.2988 -0.0170
  161SAPE  H15R18066   4.346   3.519   7.420  0.2859 -0.5164 -1.4953
  161SAPE  C21618067   4.263   3.703   7.320 -1.3114 -0.7112  1.1818
  161SAPE  H16R18068   4.326   3.793   7.301 -0.4600 -0.7791  3.3737
  161SAPE  H16S18069   4.173   3.732   7.378  0.2193  2.8185  2.0629
  161SAPE  C21718070   4.224   3.641   7.181 -0.1372  0.1333 -0.3559
  161SAPE  H17R18071   4.132   3.581   7.190 -0.9075  1.3525  0.2422
  161SAPE  H17S18072   4.306   3.582   7.135 -0.8111 -1.1860  0.0987
  161SAPE  C21818073   4.196   3.761   7.083  0.8512 -0.1709 -0.5170
  161SAPE  H18R18074   4.288   3.822   7.074  0.6851  0.4207  1.3420
  161SAPE  H18S18075   4.117   3.825   7.128  0.8687  0.5969 -1.5647
  161SAPE  C21918076   4.146   3.696   6.953  0.5699 -0.8103  0.5525
  161SAPE  H19R18077   4.055   3.638   6.980 -0.1684 -0.4562 -1.0274
  161SAPE  H19S18078   4.218   3.620   6.917  1.1512  0.6335 -1.5083
  161SAPE  C22018079   4.104   3.794   6.842  0.2262 -0.4525 -0.9201
  161SAPE  H20R18080   4.105   3.729   6.752 -0.3224 -2.4777  0.4743
  161SAPE  H20S18081   4.175   3.880   6.844 -1.1711  0.7407  0.4987
  161SAPE  H20T18082   4.003   3.834   6.868  0.7761 -0.5107  1.5973
  161SAPE   C3318083   4.026   4.889   6.915 -0.2244 -0.4336 -0.0551
  161SAPE   H3X18084   4.107   4.886   6.991  1.9099 -0.0121 -2.1654
  161SAPE   H3Y18085   3.988   4.786   6.899 -1.2005  0.1588 -1.8030
  161SAPE   C3418086   3.903   4.974   6.954 -0.1516 -0.7745  0.1550
  161SAPE   H4X18087   3.837   4.986   6.866 -1.6198  0.6748  1.3903
  161SAPE   H4Y18088   3.946   5.071   6.989 -0.9771 -0.3649  0.0498
  161SAPE   C3518089   3.828   4.922   7.075 -0.0234 -1.2057 -0.4617
  161SAPE   H5X18090   3.798   4.817   7.054  0.8404 -1.1277 -2.2312
  161SAPE   H5Y18091   3.732   4.975   7.095 -0.4560 -2.5573  1.3963
  161SAPE   C3618092   3.895   4.931   7.211 -0.6832 -0.3250  0.3999
  161SAPE   H6X18093   3.943   5.031   7.218 -0.4853 -0.4897  1.4588
  161SAPE   H6Y18094   3.976   4.855   7.214  2.4865  2.7583 -0.1329
  161SAPE   C3718095   3.792   4.914   7.317  0.2531  0.2248 -0.4853
  161SAPE   H7X18096   3.733   4.820   7.311 -0.2438  0.3620  1.5718
  161SAPE   H7Y18097   3.713   4.992   7.304 -1.2373 -1.5286 -2.8633
  161SAPE   C3818098   3.838   4.941   7.462  0.0777  0.1279 -0.2125
  161SAPE   H8X18099   3.929   4.881   7.479 -1.9189 -2.7574  1.1786
  161SAPE   H8Y18100   3.770   4.907   7.543  1.8099 -1.3497  0.6904
  161SAPE   C3918101   3.860   5.091   7.477 -0.4240  0.2590 -0.0577
  161SAPE   H9X18102   3.795   5.160   7.419  0.2200  2.1219  1.3307
  161SAPE   H9Y18103   3.961   5.110   7.434 -0.7718  1.7391 -0.2960
  161SAPE  C31018104   3.855   5.139   7.620  0.0430 -0.1657 -0.7281
  161SAPE  H10X18105   3.940   5.116   7.688 -0.9801  1.7923  1.3619
  161SAPE  H10Y18106   3.765   5.089   7.661  1.2125 -2.8865 -1.2388
  161SAPE  C31118107   3.818   5.291   7.627 -0.8497  0.2468 -0.3538
  161SAPE  H11X18108   3.721   5.309   7.575 -1.1550 -1.9706 -0.6254
  161SAPE  H11Y18109   3.904   5.346   7.584  0.6552 -2.0089 -0.3666
  161SAPE  C31218110   3.770   5.320   7.766 -0.9540 -0.0978 -0.3010
  161SAPE  H12X18111   3.686   5.256   7.800 -0.4128  0.5022  2.3934
  161SAPE  H12Y18112   3.716   5.417   7.765 -0.7325  0.0800  1.4293
  161SAPE  C31318113   3.872   5.332   7.877  0.6231  0.3242 -0.9084
  161SAPE  H13X18114   3.941   5.416   7.850 -0.6653  1.3513 -1.0994
  161SAPE  H13Y18115   3.928   5.237   7.886 -2.5627 -1.7061 -1.1549
  161SAPE  C31418116   3.815   5.353   8.021  0.0334  0.2494  0.2506
  161SAPE  H14X18117   3.759   5.258   8.036 -0.1788  0.4936  1.0762
  161SAPE  H14Y18118   3.736   5.431   8.020  0.0247  0.3152 -2.5862
  161SAPE  C31518119   3.919   5.369   8.129  0.0305 -0.5119 -0.3080
  161SAPE  H15X18120   3.893   5.425   8.221 -0.3252  0.2603 -0.8692
  161SAPE  H15Y18121   3.996   5.438   8.090 -0.9582  0.6365 -0.2745
  161SAPE  C31618122   3.977   5.236   8.190 -0.1258 -0.3496 -0.3610
  161SAPE  H16X18123   4.046   5.254   8.275 -0.3295  0.9563 -0.4533
  161SAPE  H16Y18124   4.027   5.179   8.109  0.3914  0.5393 -0.6863
  161SAPE  C31718125   3.869   5.144   8.246 -0.6250 -0.3290  0.1597
  161SAPE  H17X18126   3.807   5.100   8.165 -0.3603  0.3598 -0.4342
  161SAPE  H17Y18127   3.807   5.205   8.316 -0.7592  0.0630 -0.2952
  161SAPE  C31818128   3.920   5.024   8.323 -0.0754 -0.0851 -0.6013
  161SAPE  H18X18129   4.007   4.969   8.281  0.2679  0.6555 -0.8851
  161SAPE  H18Y18130   3.842   4.950   8.350 -1.1552  1.7978  1.8301
  161SAPE  H18Z18131   3.964   5.056   8.420  0.2099  2.5729 -1.5269
  162SAPE     N18132   2.241   2.415   6.044 -1.0653  0.3589  0.2868
  162SAPE   HN118133   2.145   2.376   6.055 -1.1115  0.8527  1.9128
  162SAPE   HN218134   2.237   2.519   6.041  1.3120  0.5023  0.6937
  162SAPE   HN318135   2.275   2.385   5.950 -1.4431 -1.3072  0.6588
  162SAPE   C1218136   2.339   2.365   6.143  0.9302 -0.3405 -0.1702
  162SAPE  H12A18137   2.304   2.406   6.240 -1.5853  2.1625 -1.9786
  162SAPE  H12B18138   2.439   2.413   6.139  1.4247 -0.9960  2.4826
  162SAPE   C1118139   2.367   2.217   6.148  0.3008  0.2107 -0.4896
  162SAPE  H11A18140   2.271   2.167   6.172  0.7390  0.4407  2.0581
  162SAPE  H11B18141   2.431   2.181   6.232 -0.3213  0.5159  0.1183
  162SAPE     P18142   2.564   2.197   5.974  0.5854 -0.0761 -0.4252
  162SAPE   O1318143   2.592   2.128   5.846 -0.3449 -0.2837  0.1775
  162SAPE   O1418144   2.601   2.339   5.975 -0.3202  0.6294 -0.1114
  162SAPE   O1218145   2.414   2.176   6.020  0.2303 -0.3220  0.3682
  162SAPE   O1118146   2.646   2.137   6.096  0.1940  0.3389 -0.5090
  162SAPE    C118147   2.696   2.005   6.079 -0.2088  0.4668  0.4304
  162SAPE    HA18148   2.611   1.939   6.052 -1.0343 -0.2006  4.1811
  162SAPE    HB18149   2.775   2.003   6.000 -2.1139  0.6121 -1.5541
  162SAPE    C218150   2.758   1.938   6.207  0.2702  0.1611  1.2662
  162SAPE    HS18151   2.795   1.838   6.175  0.6253  0.9898 -1.0582
  162SAPE   O2118152   2.656   1.929   6.313  0.2444 -0.3558 -0.3763
  162SAPE   C2118153   2.562   1.837   6.309 -0.9379  0.2103 -0.0740
  162SAPE   O2218154   2.536   1.770   6.211  0.5094 -0.0810 -0.1106
  162SAPE   C2218155   2.485   1.831   6.439  0.3887  0.0251 -0.6929
  162SAPE   H2R18156   2.473   1.939   6.465  0.9693 -0.3815  1.5321
  162SAPE   H2S18157   2.381   1.799   6.417 -1.2948  3.5350  1.1998
  162SAPE    C318158   2.888   2.015   6.258  0.6225 -0.2201  0.1752
  162SAPE    HX18159   2.864   2.123   6.261  1.0261 -0.1208 -0.1134
  162SAPE    HY18160   2.969   2.001   6.183 -0.9453 -0.7483 -1.4759
  162SAPE   O3118161   2.934   1.966   6.387 -0.2581 -0.1484  0.1973
  162SAPE   C3118162   2.905   2.036   6.492 -0.1687  0.1233  0.0441
  162SAPE   O3218163   2.857   2.147   6.494 -0.0257 -0.6843 -0.4631
  162SAPE   C3218164   2.915   1.950   6.618 -0.0301 -0.5711  0.5053
  162SAPE   H2X18165   3.022   1.941   6.645  0.3945  0.0165 -0.8716
  162SAPE   H2Y18166   2.874   1.852   6.583 -2.8425  1.9016 -4.2548
  162SAPE   C2318167   2.539   1.744   6.552 -0.3344  0.0885 -0.0944
  162SAPE   H3R18168   2.623   1.788   6.610  0.6366  1.1679 -2.2029
  162SAPE   H3S18169   2.584   1.658   6.498 -1.8960  0.6588 -2.4598
  162SAPE   C2418170   2.424   1.692   6.645 -0.0076  0.0331 -0.1102
  162SAPE   H4R18171   2.485   1.634   6.717 -0.3160 -0.5577 -0.3230
  162SAPE   H4S18172   2.365   1.615   6.592  0.4411  0.1913 -0.8572
  162SAPE   C2518173   2.338   1.795   6.706  0.9566  0.2722 -0.1203
  162SAPE   H5R18174   2.254   1.835   6.647 -0.1357  1.3058  2.0175
  162SAPE   C2618175   2.340   1.837   6.836 -0.0003 -0.1692 -0.2945
  162SAPE   H6R18176   2.261   1.902   6.876  0.6952 -0.0287  0.8999
  162SAPE   C2718177   2.433   1.794   6.947 -0.2575  0.4881 -0.2440
  162SAPE   H7R18178   2.527   1.848   6.919  0.4464 -1.0322 -0.9173
  162SAPE   H7S18179   2.461   1.691   6.917  0.8212  0.5143  0.6197
  162SAPE   C2818180   2.397   1.817   7.092  0.0319  0.8776  0.3492
  162SAPE   H8R18181   2.362   1.920   7.113  0.8972  1.0672  0.9242
  162SAPE   C2918182   2.422   1.726   7.191  0.1355 -0.3608 -0.4593
  162SAPE   H9R18183   2.396   1.743   7.296  0.0808  0.3101 -0.5811
  162SAPE  C21018184   2.484   1.594   7.172 -0.2588  0.0350  0.5161
  162SAPE  H10R18185   2.460   1.551   7.073  1.7497  1.4392 -0.6491
  162SAPE  H10S18186   2.444   1.521   7.246  0.4353  0.6223  1.4946
  162SAPE  C21118187   2.635   1.606   7.173 -0.7144 -0.7212 -0.3551
  162SAPE  H11R18188   2.684   1.659   7.090  1.5071 -0.0460  1.2890
  162SAPE  C21218189   2.711   1.546   7.273  0.0371  0.0161  1.0305
  162SAPE  H12R18190   2.821   1.551   7.273  0.0675 -0.5091  0.8633
  162SAPE  C21318191   2.660   1.466   7.391  1.0543 -0.0890 -0.1438
  162SAPE  H13R18192   2.705   1.364   7.397  0.2873 -0.3666  1.2986
  162SAPE  H13S18193   2.556   1.429   7.381  1.1273 -0.5131  0.5985
  162SAPE  C21418194   2.667   1.552   7.510 -0.0356  0.0995  0.0085
  162SAPE  H14R18195   2.697   1.658   7.506  0.7199 -0.1189 -3.5966
  162SAPE  C21518196   2.637   1.517   7.638 -0.1601  0.3938  0.3217
  162SAPE  H15R18197   2.659   1.582   7.724  0.4087  2.1212 -1.0917
  162SAPE  C21618198   2.609   1.379   7.683  0.7091  0.3769 -0.1063
  162SAPE  H16R18199   2.693   1.342   7.746  0.3660 -0.2830 -0.0300
  162SAPE  H16S18200   2.589   1.311   7.597  1.2359 -0.0644  0.1094
  162SAPE  C21718201   2.481   1.357   7.759  0.2980 -0.3487  0.3041
  162SAPE  H17R18202   2.471   1.429   7.842  2.3925  0.1164  0.2072
  162SAPE  H17S18203   2.482   1.253   7.798 -2.0552 -1.1003 -1.4504
  162SAPE  C21818204   2.366   1.372   7.652 -0.0202 -0.1201 -0.1852
  162SAPE  H18R18205   2.363   1.293   7.574 -1.5291 -1.3921  1.1035
  162SAPE  H18S18206   2.374   1.469   7.598  1.3364 -0.0052  0.2005
  162SAPE  C21918207   2.227   1.362   7.721  0.4080  0.5936 -0.0688
  162SAPE  H19R18208   2.232   1.418   7.817  0.5348  1.8050 -0.7737
  162SAPE  H19S18209   2.221   1.254   7.747  1.1825  0.3239 -0.9562
  162SAPE  C22018210   2.112   1.400   7.627  0.1802 -0.6417  0.5434
  162SAPE  H20R18211   2.111   1.504   7.589  2.9062 -0.5566  0.4559
  162SAPE  H20S18212   2.010   1.384   7.666 -1.2153  0.3636 -2.4081
  162SAPE  H20T18213   2.122   1.334   7.538  2.9682 -0.2121  0.4437
  162SAPE   C3318214   2.835   2.011   6.738 -1.2491 -0.2368 -0.1265
  162SAPE   H3X18215   2.731   2.028   6.704 -1.6775  0.0911  1.2759
  162SAPE   H3Y18216   2.891   2.105   6.756 -0.6694 -0.7678  0.9891
  162SAPE   C3418217   2.849   1.920   6.862  0.3925  0.1409  0.4371
  162SAPE   H4X18218   2.956   1.892   6.874  0.8459  1.5443 -0.1271
  162SAPE   H4Y18219   2.800   1.821   6.852  0.4408 -0.0731  2.0993
  162SAPE   C3518220   2.822   1.993   6.990  0.4747 -0.3362 -0.1196
  162SAPE   H5X18221   2.712   2.004   7.002  0.4279 -0.4910 -0.3819
  162SAPE   H5Y18222   2.856   2.098   6.982 -1.7834  0.4070 -0.7471
  162SAPE   C3618223   2.887   1.922   7.112  0.3000  0.1865 -0.2418
  162SAPE   H6X18224   2.997   1.934   7.125  0.3029 -2.2010  3.9827
  162SAPE   H6Y18225   2.879   1.811   7.104 -0.1742  0.1557  0.5901
  162SAPE   C3718226   2.816   1.943   7.240  0.1903 -0.1387  0.1005
  162SAPE   H7X18227   2.726   1.879   7.254  1.1357 -1.7257 -0.8091
  162SAPE   H7Y18228   2.775   2.046   7.246  0.5195  0.3480 -3.7894
  162SAPE   C3818229   2.899   1.923   7.363 -0.1494  0.1700  0.1239
  162SAPE   H8X18230   2.995   1.979   7.363  0.4111 -0.7300  1.4450
  162SAPE   H8Y18231   2.922   1.815   7.378  1.2117  0.2243 -1.3683
  162SAPE   C3918232   2.818   1.969   7.485 -0.1412 -0.4268 -0.2637
  162SAPE   H9X18233   2.732   1.901   7.499 -0.6631  0.3814  0.5474
  162SAPE   H9Y18234   2.782   2.073   7.474  0.7129  0.0009  0.7530
  162SAPE  C31018235   2.903   1.972   7.613  0.2858 -0.0084 -0.0795
  162SAPE  H10X18236   2.974   2.056   7.624  2.3492 -1.7328  0.4136
  162SAPE  H10Y18237   2.975   1.888   7.607  1.2866  0.7775  0.7246
  162SAPE  C31118238   2.821   1.936   7.746  0.7162 -0.6154  0.0818
  162SAPE  H11X18239   2.891   1.932   7.832  0.8269  1.4297  0.1509
  162SAPE  H11Y18240   2.771   1.841   7.717 -0.3961  0.2673 -1.0039
  162SAPE  C31218241   2.694   2.030   7.771  0.3507 -0.0831  0.0336
  162SAPE  H12X18242   2.644   2.051   7.675  0.1686 -0.2019  0.1021
  162SAPE  H12Y18243   2.741   2.125   7.803 -1.1747  0.7219 -0.0170
  162SAPE  C31318244   2.602   1.971   7.875 -0.0913 -0.1411  0.7371
  162SAPE  H13X18245   2.521   2.042   7.898  0.9034  1.4835 -0.5864
  162SAPE  H13Y18246   2.654   1.943   7.970 -0.2882 -0.2003  0.8279
  162SAPE  C31418247   2.524   1.838   7.828  0.0612  0.0087 -0.1330
  162SAPE  H14X18248   2.598   1.757   7.809  1.6688  1.4556 -0.2929
  162SAPE  H14Y18249   2.484   1.851   7.725  2.6811 -1.8406 -1.4884
  162SAPE  C31518250   2.406   1.777   7.911 -1.3256  0.6816 -0.0781
  162SAPE  H15X18251   2.380   1.675   7.876  1.3701  0.3397 -1.3192
  162SAPE  H15Y18252   2.321   1.847   7.904 -1.3139  0.6990 -0.0494
  162SAPE  C31618253   2.438   1.774   8.064 -0.0625 -0.5334  0.3040
  162SAPE  H16X18254   2.346   1.758   8.125 -1.0413 -1.0558 -1.2624
  162SAPE  H16Y18255   2.475   1.870   8.106 -1.2082 -1.1694  3.0171
  162SAPE  C31718256   2.524   1.659   8.100 -0.2261  0.8805  0.1313
  162SAPE  H17X18257   2.617   1.652   8.040  1.6006  0.0944  2.8532
  162SAPE  H17Y18258   2.472   1.566   8.070 -0.7910  1.3398 -0.3360
  162SAPE  C31818259   2.556   1.640   8.246  0.5435 -0.4047  0.5353
  162SAPE  H18X18260   2.458   1.632   8.298  1.1015  3.2572  2.5054
  162SAPE  H18Y18261   2.597   1.739   8.279  0.1057  0.5933 -1.7411
  162SAPE  H18Z18262   2.626   1.556   8.266  0.2725 -0.5581  0.8365
  163SAPE     N18263   1.421   6.327   6.234 -0.7144  0.5625  0.1654
  163SAPE   HN118264   1.389   6.246   6.177  0.7686 -0.1877  0.3653
  163SAPE   HN218265   1.344   6.397   6.227 -0.0428  1.1959 -1.3219
  163SAPE   HN318266   1.505   6.364   6.185 -1.0508  0.6433 -0.3696
  163SAPE   C1218267   1.434   6.314   6.385 -0.2494  0.5675  0.1129
  163SAPE  H12A18268   1.464   6.413   6.427  0.2494 -0.5193  2.5066
  163SAPE  H12B18269   1.522   6.247   6.398  0.3538  1.0980 -1.0589
  163SAPE   C1118270   1.313   6.266   6.471  0.0680  0.5258 -0.2783
  163SAPE  H11A18271   1.345   6.273   6.578  0.0530 -2.2598  0.0020
  163SAPE  H11B18272   1.293   6.161   6.441  0.3742  0.7496 -1.2797
  163SAPE     P18273   1.048   6.296   6.485 -0.2917  0.0423  0.0127
  163SAPE   O1318274   0.960   6.410   6.497  0.3646  0.2657  0.1690
  163SAPE   O1418275   1.004   6.186   6.395 -0.4701 -0.4868 -0.7023
  163SAPE   O1218276   1.190   6.347   6.443  0.4488 -0.5549 -0.3473
  163SAPE   O1118277   1.061   6.225   6.620 -0.0447 -0.4899 -0.5745
  163SAPE    C118278   1.009   6.284   6.741  0.4898 -0.6964  0.0780
  163SAPE    HA18279   0.979   6.390   6.728 -1.5214 -1.2878 -0.4175
  163SAPE    HB18280   0.922   6.225   6.778  0.9161 -1.0943  0.4586
  163SAPE    C218281   1.113   6.279   6.857 -0.0743 -0.4191  0.5176
  163SAPE    HS18282   1.061   6.316   6.948  0.1626 -0.5507  0.7089
  163SAPE   O2118283   1.237   6.344   6.816  0.3266 -0.0349 -0.4109
  163SAPE   C2118284   1.235   6.467   6.810  0.4467 -0.3154 -0.3981
  163SAPE   O2218285   1.147   6.543   6.845 -0.0667  0.5076 -0.1034
  163SAPE   C2218286   1.360   6.520   6.737 -0.8681 -0.6377 -0.4691
  163SAPE   H2R18287   1.368   6.471   6.637  1.6949 -0.5518 -0.3567
  163SAPE   H2S18288   1.343   6.627   6.712 -2.4166 -0.5963  0.6321
  163SAPE    C318289   1.142   6.132   6.884  0.0385 -0.6347 -0.2090
  163SAPE    HX18290   1.189   6.088   6.793  1.5333  1.1154 -0.3315
  163SAPE    HY18291   1.041   6.087   6.900  0.6122 -1.6131  0.7990
  163SAPE   O3118292   1.204   6.112   7.002  0.1688  0.2157  0.2923
  163SAPE   C3118293   1.337   6.122   6.999  0.1674  0.3168 -0.0756
  163SAPE   O3218294   1.407   6.122   6.897  0.3502  0.4572  0.3756
  163SAPE   C3218295   1.379   6.138   7.137  0.0063  0.8054  0.0722
  163SAPE   H2X18296   1.385   6.040   7.188 -1.1394  1.8039  2.2865
  163SAPE   H2Y18297   1.312   6.205   7.196  1.6238  0.2857  2.6354
  163SAPE   C2318298   1.490   6.493   6.811  0.8341  0.4640 -0.2878
  163SAPE   H3R18299   1.578   6.503   6.744  1.7462  2.6273  1.1269
  163SAPE   H3S18300   1.506   6.388   6.843  3.3050  0.7471 -0.3487
  163SAPE   C2418301   1.510   6.585   6.928  0.9533 -0.2365 -0.1996
  163SAPE   H4R18302   1.426   6.579   7.001  0.1891 -0.2596 -1.0589
  163SAPE   H4S18303   1.508   6.691   6.893 -0.4810 -0.5710 -1.1974
  163SAPE   C2518304   1.634   6.555   7.008 -0.1097  0.3336  0.2408
  163SAPE   H5R18305   1.682   6.456   7.001  1.8912  1.3150 -0.8275
  163SAPE   C2618306   1.683   6.635   7.107  0.2391 -0.4688 -0.3040
  163SAPE   H6R18307   1.772   6.597   7.159 -2.1843 -1.6904  3.3297
  163SAPE   C2718308   1.637   6.773   7.160  0.1273  0.6990 -0.1149
  163SAPE   H7R18309   1.627   6.762   7.270 -0.4142 -1.7737 -0.3536
  163SAPE   H7S18310   1.547   6.807   7.103  0.5077 -0.1114 -1.2284
  163SAPE   C2818311   1.758   6.857   7.135  0.8542  0.0365  0.0095
  163SAPE   H8R18312   1.760   6.898   7.033  1.3463 -0.5564 -0.2226
  163SAPE   C2918313   1.852   6.892   7.219  0.3958  0.5183  0.3233
  163SAPE   H9R18314   1.933   6.941   7.163  0.6224 -3.5221 -3.4212
  163SAPE  C21018315   1.871   6.855   7.363  0.4023 -0.4339 -0.3126
  163SAPE  H10R18316   1.873   6.745   7.379  0.2680  0.0199  4.2458
  163SAPE  H10S18317   1.781   6.887   7.420 -1.0795 -2.1558 -1.5896
  163SAPE  C21118318   1.997   6.912   7.426  0.4698 -0.1578 -0.3136
  163SAPE  H11R18319   2.069   6.939   7.347  0.9616 -1.8069 -0.4809
  163SAPE  C21218320   2.020   6.931   7.559  0.0442  0.4413  0.6685
  163SAPE  H12R18321   2.115   6.978   7.586  1.2546 -0.5603 -1.6024
  163SAPE  C21318322   1.916   6.901   7.663 -0.2877  0.0694  0.3929
  163SAPE  H13R18323   1.827   6.846   7.625  0.1899 -1.2738  1.1365
  163SAPE  H13S18324   1.873   6.996   7.701  0.4204  0.9934 -1.0459
  163SAPE  C21418325   1.985   6.826   7.777  0.0466 -0.1019  0.2385
  163SAPE  H14R18326   1.968   6.717   7.773  0.2503 -0.1440  0.4829
  163SAPE  C21518327   2.039   6.878   7.887 -0.3741  0.2342 -0.7106
  163SAPE  H15R18328   2.091   6.808   7.955  3.1673  3.8710  0.6833
  163SAPE  C21618329   2.053   7.019   7.914 -0.0595 -1.0277  0.5142
  163SAPE  H16R18330   1.954   7.061   7.945  0.1265 -0.8216  0.8370
  163SAPE  H16S18331   2.077   7.084   7.828 -1.8234 -0.5555  0.3237
  163SAPE  C21718332   2.160   7.049   8.019 -0.7643 -0.4083 -0.6775
  163SAPE  H17R18333   2.190   7.155   8.033  0.5674 -0.9806  1.2692
  163SAPE  H17S18334   2.253   6.995   7.992 -1.1827 -1.9640  0.8271
  163SAPE  C21818335   2.122   6.994   8.161 -0.9613  0.1953  0.0743
  163SAPE  H18R18336   2.136   6.885   8.173 -0.8594  0.1899 -0.1003
  163SAPE  H18S18337   2.012   7.010   8.169 -1.1246 -0.6207 -0.5007
  163SAPE  C21918338   2.205   7.073   8.268  0.3249 -0.2826  1.1525
  163SAPE  H19R18339   2.143   7.097   8.357  0.7256 -0.7941  1.5756
  163SAPE  H19S18340   2.233   7.177   8.239  0.0876 -0.2547  1.0254
  163SAPE  C22018341   2.318   6.992   8.319  0.0264 -0.4916  0.1279
  163SAPE  H20R18342   2.282   6.893   8.355  0.4739 -0.0236  1.9884
  163SAPE  H20S18343   2.374   7.044   8.400  1.2918 -1.3979 -0.1423
  163SAPE  H20T18344   2.394   6.980   8.240 -2.0669 -0.5538 -1.9713
  163SAPE   C3318345   1.525   6.190   7.147 -0.0416 -0.2115 -0.2873
  163SAPE   H3X18346   1.532   6.285   7.090 -3.3530  0.0150 -0.4840
  163SAPE   H3Y18347   1.596   6.123   7.094  2.2343  0.4172  1.7736
  163SAPE   C3418348   1.568   6.203   7.288 -0.5527 -0.4064  0.4372
  163SAPE   H4X18349   1.577   6.104   7.338 -0.1822 -1.2493 -1.2087
  163SAPE   H4Y18350   1.491   6.265   7.339  0.9139  1.3020  0.6783
  163SAPE   C3518351   1.706   6.281   7.291 -0.0113 -0.5475 -0.0267
  163SAPE   H5X18352   1.699   6.367   7.222 -1.0382 -1.4408 -1.0787
  163SAPE   H5Y18353   1.772   6.204   7.243  2.9238  1.0656  1.1708
  163SAPE   C3618354   1.755   6.310   7.435  0.3669  0.5322  0.1935
  163SAPE   H6X18355   1.761   6.215   7.491  1.9399  0.2355 -0.4227
  163SAPE   H6Y18356   1.680   6.378   7.482  0.6494 -0.1822  1.7340
  163SAPE   C3718357   1.899   6.365   7.436  0.7864 -0.1793 -0.4063
  163SAPE   H7X18358   1.896   6.460   7.379 -0.6844  0.3210  0.4632
  163SAPE   H7Y18359   1.979   6.305   7.387  1.2039  1.4475 -1.7957
  163SAPE   C3818360   1.953   6.410   7.577 -0.0333  0.8076 -0.9016
  163SAPE   H8X18361   1.893   6.495   7.618 -0.6773  0.2110 -0.5920
  163SAPE   H8Y18362   2.051   6.452   7.546  2.0545 -4.0844 -1.8447
  163SAPE   C3918363   1.971   6.297   7.671  0.5786 -0.0118 -0.0354
  163SAPE   H9X18364   2.016   6.209   7.620  1.6470 -1.0938  2.5803
  163SAPE   H9Y18365   1.869   6.269   7.705  0.5371  1.8988  1.6234
  163SAPE  C31018366   2.063   6.323   7.789  0.4276  0.8617 -0.8097
  163SAPE  H10X18367   2.150   6.384   7.758  2.4761 -1.7017 -0.4263
  163SAPE  H10Y18368   2.086   6.223   7.830 -3.2598  0.7429  1.4453
  163SAPE  C31118369   1.981   6.404   7.897 -0.3163  0.5190 -0.0196
  163SAPE  H11X18370   1.878   6.367   7.909 -0.0995  0.5582  2.3753
  163SAPE  H11Y18371   1.973   6.507   7.856 -1.3685  0.9957  1.3115
  163SAPE  C31218372   2.052   6.418   8.028 -0.3044  0.0985 -0.2615
  163SAPE  H12X18373   2.159   6.432   8.001  0.8163 -1.7167  2.6514
  163SAPE  H12Y18374   2.058   6.324   8.089  2.7813 -0.1007 -0.6821
  163SAPE  C31318375   1.992   6.518   8.127  0.5711 -0.4430  0.5630
  163SAPE  H13X18376   1.882   6.502   8.122  0.7038 -1.3644  0.4875
  163SAPE  H13Y18377   2.012   6.620   8.089 -1.3940  0.5895  2.1054
  163SAPE  C31418378   2.035   6.516   8.277  0.2005 -0.3475 -0.2382
  163SAPE  H14X18379   2.144   6.496   8.283  0.3277 -0.5207 -2.3545
  163SAPE  H14Y18380   1.985   6.424   8.315  0.1277 -0.1768  0.0824
  163SAPE  C31518381   1.994   6.646   8.354  0.6290  0.1279 -0.7545
  163SAPE  H15X18382   2.057   6.733   8.325 -0.2057  0.4506 -1.6624
  163SAPE  H15Y18383   2.015   6.624   8.461 -0.6915 -1.9216 -0.8560
  163SAPE  C31618384   1.850   6.702   8.336 -0.7308  0.1091 -0.5915
  163SAPE  H16X18385   1.833   6.731   8.230 -1.2834  1.2169 -0.2110
  163SAPE  H16Y18386   1.836   6.795   8.395 -2.4329 -0.5785  0.1197
  163SAPE  C31718387   1.725   6.611   8.368  0.3702 -0.2963  0.0827
  163SAPE  H17X18388   1.710   6.544   8.281 -1.4086  1.0500 -0.7256
  163SAPE  H17Y18389   1.627   6.664   8.369  1.1117  1.1398 -0.8911
  163SAPE  C31818390   1.738   6.529   8.495  0.3684 -0.1813 -0.2825
  163SAPE  H18X18391   1.711   6.590   8.584  3.9012 -0.4100  1.0719
  163SAPE  H18Y18392   1.840   6.485   8.501  0.9073  1.1814  1.6211
  163SAPE  H18Z18393   1.673   6.439   8.504 -1.6742  1.1419 -1.0451
  164SAPE     N18394   5.623   2.497   5.412 -0.4193 -0.0095 -0.1193
  164SAPE   HN118395   5.705   2.560   5.419  1.1738 -1.6257 -2.5667
  164SAPE   HN218396   5.646   2.423   5.342  1.2290 -0.1768  0.5674
  164SAPE   HN318397   5.537   2.550   5.386 -1.2571 -1.3602 -0.2167
  164SAPE   C1218398   5.610   2.432   5.550 -0.5880  0.2131 -0.2820
  164SAPE  H12A18399   5.551   2.340   5.532 -0.5489  0.5007 -2.0141
  164SAPE  H12B18400   5.571   2.507   5.623  0.4782 -0.1974  0.7387
  164SAPE   C1118401   5.755   2.376   5.602  0.1303 -0.1326 -0.2317
  164SAPE  H11A18402   5.794   2.297   5.535  1.1342 -0.1952  0.4085
  164SAPE  H11B18403   5.732   2.323   5.698  0.8022  0.6644  0.3852
  164SAPE     P18404   5.872   2.540   5.777  0.1222  0.3222 -0.0844
  164SAPE   O1318405   6.003   2.606   5.794  0.0550 -0.7888  0.3331
  164SAPE   O1418406   5.751   2.623   5.810  0.8499  0.3065  0.0947
  164SAPE   O1218407   5.853   2.478   5.628  0.1410  0.0284  0.1928
  164SAPE   O1118408   5.882   2.417   5.866 -0.8164  0.8570 -0.3940
  164SAPE    C118409   5.777   2.374   5.949 -0.7362 -0.2839 -0.6928
  164SAPE    HA18410   5.676   2.400   5.910 -0.8647  2.8668  1.3565
  164SAPE    HB18411   5.777   2.263   5.948  0.2074 -0.2836 -1.4277
  164SAPE    C218412   5.790   2.397   6.105  0.1608 -0.1908 -1.0831
  164SAPE    HS18413   5.773   2.506   6.117 -1.7051 -0.4270 -1.3144
  164SAPE   O2118414   5.919   2.365   6.153 -0.0139 -0.8414  0.3553
  164SAPE   C2118415   5.961   2.428   6.260  0.3579 -0.3998 -0.1186
  164SAPE   O2218416   5.910   2.518   6.320  0.5502  0.6692  0.1498
  164SAPE   C2218417   6.090   2.373   6.313 -0.2599  0.4435  0.0509
  164SAPE   H2R18418   6.179   2.409   6.257 -0.3160 -0.9554 -1.0033
  164SAPE   H2S18419   6.097   2.413   6.416 -1.8459 -1.1390  0.8230
  164SAPE    C318420   5.674   2.322   6.179 -0.2556  0.1842 -0.0987
  164SAPE    HX18421   5.689   2.212   6.174  2.0870  0.4914 -1.1226
  164SAPE    HY18422   5.573   2.333   6.135  0.0789  1.8244 -0.5271
  164SAPE   O3118423   5.690   2.353   6.316 -0.1937  0.3334 -0.1320
  164SAPE   C3118424   5.583   2.334   6.396  0.6539  0.4604 -0.2032
  164SAPE   O3218425   5.469   2.317   6.356 -0.1979 -0.0217  0.4195
  164SAPE   C3218426   5.630   2.342   6.538  0.4984 -0.1901  0.9950
  164SAPE   H2X18427   5.715   2.413   6.543 -0.0071  0.4898  0.2406
  164SAPE   H2Y18428   5.672   2.245   6.572  0.7642 -0.5333 -0.2499
  164SAPE   C2318429   6.078   2.209   6.322 -0.1608  0.1511  0.6571
  164SAPE   H3R18430   6.179   2.170   6.350  0.5636  0.9902 -0.7006
  164SAPE   H3S18431   6.069   2.169   6.219  3.7358  1.1496 -0.2351
  164SAPE   C2418432   5.976   2.166   6.432  0.4709  0.3368  0.7834
  164SAPE   H4R18433   5.977   2.055   6.438  2.9120  0.2748  0.0756
  164SAPE   H4S18434   5.874   2.190   6.394 -0.7162 -0.9486  2.9462
  164SAPE   C2518435   5.990   2.208   6.570  0.2457  0.3894  0.1360
  164SAPE   H5R18436   6.054   2.296   6.585  0.8376  0.1325 -0.7967
  164SAPE   C2618437   5.943   2.143   6.676 -0.0932  0.2390 -0.2536
  164SAPE   H6R18438   5.980   2.190   6.769  1.2185 -0.2964 -0.4733
  164SAPE   C2718439   5.862   2.014   6.690  0.3912  0.7916  1.2232
  164SAPE   H7R18440   5.857   1.969   6.588  1.1685 -0.8174  1.8470
  164SAPE   H7S18441   5.760   2.039   6.726 -0.1579  0.9382 -0.3613
  164SAPE   C2818442   5.933   1.909   6.771 -0.3724  0.4774 -0.0395
  164SAPE   H8R18443   6.007   1.855   6.710 -1.4828 -0.3480 -0.6860
  164SAPE   C2918444   5.935   1.881   6.902  0.5839 -0.4390 -0.2877
  164SAPE   H9R18445   5.984   1.787   6.931  1.9425 -0.2061 -1.6932
  164SAPE  C21018446   5.861   1.953   7.010  0.4484  0.5557 -0.1839
  164SAPE  H10R18447   5.794   2.035   6.978  0.1541  1.3955  2.3535
  164SAPE  H10S18448   5.941   1.997   7.074 -0.8791  0.4896  1.5869
  164SAPE  C21118449   5.770   1.868   7.091  0.2335 -0.1275  0.0420
  164SAPE  H11R18450   5.713   1.795   7.031 -1.3325 -0.0194  1.3152
  164SAPE  C21218451   5.758   1.865   7.228 -1.0106  0.1324  0.8938
  164SAPE  H12R18452   5.702   1.783   7.276  0.0229 -0.1729  1.6019
  164SAPE  C21318453   5.831   1.949   7.329 -0.9025  0.5091 -0.0282
  164SAPE  H13R18454   5.755   1.975   7.407 -0.9776  2.0187 -0.5827
  164SAPE  H13S18455   5.867   2.044   7.285 -1.2275  1.4195  1.5662
  164SAPE  C21418456   5.946   1.867   7.383  0.1363  0.3970 -0.0344
  164SAPE  H14R18457   5.987   1.793   7.312  1.2295  2.2573 -1.4394
  164SAPE  C21518458   5.992   1.863   7.506  0.4849  0.2371 -0.1822
  164SAPE  H15R18459   6.056   1.779   7.536 -1.2486 -0.7245  0.9887
  164SAPE  C21618460   5.919   1.938   7.615 -0.9109  0.4999  0.5524
  164SAPE  H16R18461   5.860   2.020   7.569 -0.9730  0.1375 -0.0297
  164SAPE  H16S18462   5.985   1.981   7.694 -1.6021 -0.7933  1.8776
  164SAPE  C21718463   5.822   1.847   7.690 -0.1043  0.1600 -0.5326
  164SAPE  H17R18464   5.762   1.797   7.611  0.3528  1.4102 -1.7144
  164SAPE  H17S18465   5.760   1.913   7.754  1.3639  2.1568 -1.0560
  164SAPE  C21818466   5.892   1.732   7.769 -0.0334 -0.4552 -0.4352
  164SAPE  H18R18467   5.969   1.778   7.835 -0.3777  0.3455 -0.5744
  164SAPE  H18S18468   5.947   1.657   7.709  1.2301 -1.3108  1.6995
  164SAPE  C21918469   5.782   1.663   7.855 -0.4656 -0.2306  0.0360
  164SAPE  H19R18470   5.833   1.581   7.910 -0.4395 -0.6410 -0.5923
  164SAPE  H19S18471   5.717   1.612   7.781  1.8552 -2.8547 -0.3936
  164SAPE  C22018472   5.698   1.758   7.952 -0.0768 -0.2700  0.2020
  164SAPE  H20R18473   5.639   1.700   8.026 -1.4387  1.6846  0.7223
  164SAPE  H20S18474   5.621   1.806   7.889 -1.1060 -1.0489  0.8330
  164SAPE  H20T18475   5.751   1.830   8.019 -1.0406 -1.1699  2.0157
  164SAPE   C3318476   5.517   2.395   6.626 -0.2669  0.0673 -0.4312
  164SAPE   H3X18477   5.430   2.326   6.623  0.0404 -0.3506  0.0810
  164SAPE   H3Y18478   5.487   2.499   6.600  0.1305  0.2385 -0.2218
  164SAPE   C3418479   5.572   2.401   6.772 -0.1327  0.4011  0.3885
  164SAPE   H4X18480   5.604   2.502   6.807 -1.3671  1.4737 -1.3938
  164SAPE   H4Y18481   5.650   2.324   6.786 -0.0049  0.8508  2.5042
  164SAPE   C3518482   5.459   2.371   6.868 -0.5241  0.4873  1.3293
  164SAPE   H5X18483   5.409   2.280   6.830  0.0972  1.2718 -1.6015
  164SAPE   H5Y18484   5.384   2.453   6.860 -1.7374 -0.7969 -2.2051
  164SAPE   C3618485   5.510   2.357   7.012 -0.0126 -0.5778  0.8281
  164SAPE   H6X18486   5.566   2.447   7.041 -2.8513  1.7957 -0.4563
  164SAPE   H6Y18487   5.577   2.269   7.001 -0.5540 -1.1194  1.7976
  164SAPE   C3718488   5.395   2.325   7.113 -0.8246 -0.7709 -0.3424
  164SAPE   H7X18489   5.431   2.277   7.206 -1.3745 -1.0676 -0.2790
  164SAPE   H7Y18490   5.325   2.251   7.067  0.0891 -1.7225 -0.2484
  164SAPE   C3818491   5.315   2.456   7.146 -0.4457 -0.2087 -0.3573
  164SAPE   H8X18492   5.209   2.425   7.142 -0.4450 -0.3714  0.7918
  164SAPE   H8Y18493   5.339   2.533   7.069  1.4723 -1.2547 -0.8680
  164SAPE   C3918494   5.336   2.514   7.284  0.6779  0.2123 -0.2270
  164SAPE   H9X18495   5.258   2.592   7.293 -0.4013 -0.5730 -2.1927
  164SAPE   H9Y18496   5.438   2.557   7.294  0.4528  0.5322  0.8282
  164SAPE  C31018497   5.304   2.426   7.414 -0.8477 -0.4521 -0.1655
  164SAPE  H10X18498   5.381   2.346   7.417  1.7523  1.8924  0.0330
  164SAPE  H10Y18499   5.202   2.382   7.416 -0.7041 -0.9385 -2.1262
  164SAPE  C31118500   5.281   2.510   7.545 -0.9546 -0.5926  0.0606
  164SAPE  H11X18501   5.199   2.578   7.514 -0.2151 -1.2492 -3.8842
  164SAPE  H11Y18502   5.368   2.576   7.568 -1.8541  0.1514  1.4625
  164SAPE  C31218503   5.230   2.432   7.669 -0.2377 -0.5294  0.3489
  164SAPE  H12X18504   5.314   2.368   7.702  0.9805  0.1882 -1.2507
  164SAPE  H12Y18505   5.134   2.378   7.652 -1.3441  0.8702  1.8105
  164SAPE  C31318506   5.196   2.527   7.783  0.3061  0.3154  0.0982
  164SAPE  H13X18507   5.104   2.587   7.769  1.1531  1.7929  0.5795
  164SAPE  H13Y18508   5.269   2.610   7.794  1.9244 -0.9269 -0.7483
  164SAPE  C31418509   5.174   2.454   7.916 -0.6574  0.3100 -0.0888
  164SAPE  H14X18510   5.279   2.429   7.946 -1.3532 -0.1847  2.1446
  164SAPE  H14Y18511   5.123   2.357   7.897 -2.5445  0.7279  2.4037
  164SAPE  C31518512   5.100   2.542   8.020 -0.2930 -0.6410 -0.2245
  164SAPE  H15X18513   5.019   2.600   7.971  0.7951 -0.3298 -1.7106
  164SAPE  H15Y18514   5.171   2.619   8.058 -0.4363  1.5893 -3.9649
  164SAPE  C31618515   5.036   2.465   8.142  0.1738  0.3251  0.6492
  164SAPE  H16X18516   4.956   2.399   8.104  0.2563 -0.1323  1.2554
  164SAPE  H16Y18517   4.979   2.527   8.215 -1.7608 -0.9327  0.2798
  164SAPE  C31718518   5.136   2.371   8.210  0.3620  0.3787 -0.3892
  164SAPE  H17X18519   5.234   2.422   8.218  0.6905 -0.3397  0.2728
  164SAPE  H17Y18520   5.147   2.281   8.145 -0.2174 -0.9396  1.2788
  164SAPE  C31818521   5.087   2.331   8.346 -0.2344  0.1377  0.1500
  164SAPE  H18X18522   5.167   2.319   8.421  0.6224  0.9958 -0.5960
  164SAPE  H18Y18523   5.026   2.239   8.342 -2.2518  1.4494 -1.8213
  164SAPE  H18Z18524   5.021   2.400   8.404 -0.8633  1.9348 -2.5093
  165SAPE     N18525   5.554   6.655   5.879  0.1008 -0.3787 -0.2003
  165SAPE   HN118526   5.614   6.651   5.794 -0.1130  0.4676 -0.3995
  165SAPE   HN218527   5.511   6.749   5.888 -0.4104 -0.5186 -1.0748
  165SAPE   HN318528   5.614   6.640   5.963  1.2080 -1.0835 -1.0824
  165SAPE   C1218529   5.444   6.548   5.880 -0.0358  0.0580 -0.3657
  165SAPE  H12A18530   5.504   6.455   5.878  0.9607  0.6893 -0.4973
  165SAPE  H12B18531   5.385   6.563   5.787  1.0201  1.8705 -0.7910
  165SAPE   C1118532   5.356   6.551   6.005  0.3846  0.0574  0.3831
  165SAPE  H11A18533   5.409   6.528   6.100 -1.5717 -0.2615  1.4427
  165SAPE  H11B18534   5.298   6.457   5.999  1.0316 -0.3995  1.0116
  165SAPE     P18535   5.139   6.696   6.085  0.4475  0.2945  0.0435
  165SAPE   O1318536   5.154   6.811   6.174 -0.1195 -0.7324  0.1582
  165SAPE   O1418537   5.031   6.695   5.980 -0.2691 -0.1719 -0.2443
  165SAPE   O1218538   5.280   6.670   6.017  0.5762  0.4491  0.1087
  165SAPE   O1118539   5.134   6.570   6.180 -0.3850  0.8494 -0.6274
  165SAPE    C118540   5.202   6.553   6.306 -0.4435  0.3592  0.0691
  165SAPE    HA18541   5.201   6.442   6.318 -2.2422  0.1181 -1.7035
  165SAPE    HB18542   5.303   6.597   6.296  0.1694 -1.2609 -1.4332
  165SAPE    C218543   5.131   6.615   6.432 -0.0070  0.2890  0.8738
  165SAPE    HS18544   5.138   6.726   6.422 -3.1948  0.4180 -1.7104
  165SAPE   O2118545   5.192   6.567   6.549 -0.2305  0.0252 -0.3114
  165SAPE   C2118546   5.231   6.661   6.635 -0.0650 -0.2419  0.1098
  165SAPE   O2218547   5.209   6.780   6.627  0.5030 -0.6780  0.3190
  165SAPE   C2218548   5.297   6.594   6.757 -0.8475 -0.5966 -0.2701
  165SAPE   H2R18549   5.245   6.504   6.794  0.1010 -1.1977 -0.3778
  165SAPE   H2S18550   5.393   6.559   6.712 -0.5731  0.7164 -0.7698
  165SAPE    C318551   4.977   6.591   6.424  0.3315  0.0197 -0.3911
  165SAPE    HX18552   4.968   6.481   6.434  0.6788  0.0958  0.9244
  165SAPE    HY18553   4.938   6.638   6.331  0.6941 -0.9835 -1.0698
  165SAPE   O3118554   4.909   6.658   6.536 -0.1137 -0.4623 -0.5799
  165SAPE   C3118555   4.890   6.592   6.647  0.4095 -0.7340  0.2593
  165SAPE   O3218556   4.929   6.479   6.672  0.1919  0.4374  0.7253
  165SAPE   C3218557   4.809   6.679   6.746 -0.0364 -0.5919 -0.1094
  165SAPE   H2X18558   4.704   6.646   6.736  0.1527 -0.9037 -1.3046
  165SAPE   H2Y18559   4.828   6.787   6.729 -0.1503 -0.4077  0.8689
  165SAPE   C2318560   5.344   6.692   6.869  0.7206  0.4289  0.8111
  165SAPE   H3R18561   5.251   6.749   6.892  1.6205  1.5567  1.8193
  165SAPE   H3S18562   5.423   6.760   6.831  1.6264 -1.2507 -0.4073
  165SAPE   C2418563   5.376   6.616   7.004 -0.2317 -0.2260 -0.3045
  165SAPE   H4R18564   5.474   6.566   6.991  0.8380  1.7356 -0.1501
  165SAPE   H4S18565   5.290   6.546   7.012  0.1167 -0.6138  0.0725
  165SAPE   C2518566   5.394   6.716   7.115  0.4982  0.6621 -0.2243
  165SAPE   H5R18567   5.448   6.807   7.085  0.6979  0.1451 -1.5211
  165SAPE   C2618568   5.344   6.708   7.240  0.2801 -0.3032 -0.3905
  165SAPE   H6R18569   5.372   6.787   7.311 -2.9669 -0.4610  1.2394
  165SAPE   C2718570   5.263   6.597   7.306 -0.4934  0.1984  0.2044
  165SAPE   H7R18571   5.248   6.519   7.228  0.5163 -0.1898  0.3823
  165SAPE   H7S18572   5.164   6.635   7.341 -0.7372 -1.6726  1.7424
  165SAPE   C2818573   5.340   6.551   7.431 -0.3686 -0.1125  0.5284
  165SAPE   H8R18574   5.436   6.501   7.415 -0.0759  0.9398 -1.3360
  165SAPE   C2918575   5.304   6.565   7.559  0.3622  0.2397 -0.2889
  165SAPE   H9R18576   5.369   6.515   7.632  1.6945 -0.2650 -1.7428
  165SAPE  C21018577   5.180   6.637   7.615  0.3873  0.8137  0.1601
  165SAPE  H10R18578   5.100   6.560   7.616 -0.6997  1.9194 -0.1158
  165SAPE  H10S18579   5.143   6.725   7.559 -0.4437  2.0823  2.5683
  165SAPE  C21118580   5.197   6.698   7.754 -0.4105  0.4732 -0.5916
  165SAPE  H11R18581   5.223   6.804   7.748  0.3973  0.2903 -0.3504
  165SAPE  C21218582   5.193   6.646   7.881  0.2209 -0.0929  0.0786
  165SAPE  H12R18583   5.197   6.723   7.960 -1.4935 -0.7599  0.8776
  165SAPE  C21318584   5.156   6.510   7.937  0.3067 -0.4254 -0.1346
  165SAPE  H13R18585   5.253   6.473   7.978  1.4368  1.4101 -1.0056
  165SAPE  H13S18586   5.126   6.438   7.859 -1.0745  0.3512 -0.3425
  165SAPE  C21418587   5.054   6.530   8.042  0.1337 -0.3785 -0.1580
  165SAPE  H14R18588   4.956   6.566   8.008 -0.8539 -1.9544  0.8813
  165SAPE  C21518589   5.069   6.522   8.177  0.7492 -0.2065  0.3479
  165SAPE  H15R18590   4.981   6.526   8.244  0.9080 -2.5550  0.7996
  165SAPE  C21618591   5.194   6.493   8.252 -0.1084  0.0027  0.0139
  165SAPE  H16R18592   5.261   6.424   8.196 -1.3790  0.7151 -2.5742
  165SAPE  H16S18593   5.158   6.442   8.344 -5.8318  0.2382 -1.7061
  165SAPE  C21718594   5.268   6.618   8.299 -0.2283  0.6792 -0.4461
  165SAPE  H17R18595   5.214   6.685   8.369 -0.8706 -2.0109  1.7783
  165SAPE  H17S18596   5.302   6.677   8.211 -0.3030  3.1635  1.0873
  165SAPE  C21818597   5.401   6.579   8.380 -0.7183 -0.5637  0.1981
  165SAPE  H18R18598   5.450   6.676   8.402 -0.9777 -0.0975 -1.1807
  165SAPE  H18S18599   5.460   6.517   8.309  0.6453  0.4405  0.4189
  165SAPE  C21918600   5.367   6.510   8.511 -0.3223 -0.6066  0.0125
  165SAPE  H19R18601   5.311   6.414   8.500  0.4957 -1.0645 -0.2349
  165SAPE  H19S18602   5.295   6.566   8.574 -2.4574 -3.1700  0.0351
  165SAPE  C22018603   5.501   6.493   8.598  0.2112  0.0200  0.6904
  165SAPE  H20R18604   5.574   6.423   8.552  2.6750  1.4084  2.2523
  165SAPE  H20S18605   5.472   6.463   8.701 -0.2499 -1.1774  0.2319
  165SAPE  H20T18606   5.564   6.584   8.595  0.8992 -0.3798  2.0217
  165SAPE   C3318607   4.837   6.644   6.892  0.8111  0.3362  0.9436
  165SAPE   H3X18608   4.836   6.535   6.909  0.4933  0.0156 -0.8738
  165SAPE   H3Y18609   4.748   6.677   6.950 -0.1409 -1.8464  0.8241
  165SAPE   C3418610   4.960   6.718   6.954 -0.1647 -0.0369  0.1770
  165SAPE   H4X18611   4.948   6.826   6.931 -4.5032 -0.5459 -0.7604
  165SAPE   H4Y18612   5.045   6.667   6.903 -0.4596 -1.9340  1.4782
  165SAPE   C3518613   4.980   6.703   7.104 -0.6061 -0.4365  0.2571
  165SAPE   H5X18614   5.079   6.742   7.133 -0.6111 -0.5156  0.3787
  165SAPE   H5Y18615   4.985   6.596   7.133  2.0746  0.2477  2.7382
  165SAPE   C3618616   4.874   6.772   7.184  0.2534  0.6082  0.4294
  165SAPE   H6X18617   4.776   6.730   7.152 -0.2376 -0.4085  3.0183
  165SAPE   H6Y18618   4.888   6.880   7.160  1.5275  0.4430  0.3733
  165SAPE   C3718619   4.903   6.760   7.334  0.5949  0.3080 -0.0874
  165SAPE   H7X18620   4.990   6.821   7.367 -1.6429  2.7270  1.6942
  165SAPE   H7Y18621   4.924   6.654   7.356 -0.6440  0.4587  1.9896
  165SAPE   C3818622   4.786   6.808   7.431 -0.2913 -0.5931  0.5940
  165SAPE   H8X18623   4.692   6.749   7.438 -1.0707  0.8025  2.6321
  165SAPE   H8Y18624   4.762   6.912   7.399  0.2541 -0.5482  0.3206
  165SAPE   C3918625   4.831   6.821   7.579  0.3704  0.5520 -0.4789
  165SAPE   H9X18626   4.920   6.887   7.575  1.1115 -0.4750 -1.1550
  165SAPE   H9Y18627   4.862   6.723   7.620 -0.8329 -0.3202 -1.5659
  165SAPE  C31018628   4.717   6.880   7.667 -0.7418 -0.4041 -0.3259
  165SAPE  H10X18629   4.657   6.792   7.698 -1.2434  0.2330  0.5393
  165SAPE  H10Y18630   4.652   6.944   7.604 -1.5069  0.3599  1.1828
  165SAPE  C31118631   4.761   6.939   7.801 -0.0204  0.4005 -0.5612
  165SAPE  H11X18632   4.665   6.944   7.857 -0.7070 -1.7996 -1.4329
  165SAPE  H11Y18633   4.800   7.040   7.774 -1.8526  1.7133  1.3579
  165SAPE  C31218634   4.867   6.859   7.881  0.0832  0.9602 -0.8970
  165SAPE  H12X18635   4.958   6.848   7.818  0.3416  0.3646 -0.4366
  165SAPE  H12Y18636   4.841   6.753   7.906  3.9593 -0.0629 -0.5937
  165SAPE  C31318637   4.913   6.921   8.016  0.2678  0.1967  0.6750
  165SAPE  H13X18638   4.959   7.021   8.001  0.9715 -0.3336 -0.9145
  165SAPE  H13Y18639   4.987   6.849   8.057 -0.6465 -0.7382  0.7386
  165SAPE  C31418640   4.806   6.953   8.125 -0.2620  0.1435 -0.2711
  165SAPE  H14X18641   4.753   7.046   8.095 -1.2912 -0.3869 -0.1601
  165SAPE  H14Y18642   4.856   6.990   8.216 -0.7847  1.4743 -0.5092
  165SAPE  C31518643   4.689   6.845   8.151 -0.0926 -1.2320  0.5553
  165SAPE  H15X18644   4.736   6.746   8.169  2.7986 -0.1031 -0.1826
  165SAPE  H15Y18645   4.625   6.828   8.061  2.2521  0.7151 -1.6527
  165SAPE  C31618646   4.587   6.894   8.259 -0.2403 -0.6226 -0.4958
  165SAPE  H16X18647   4.564   6.997   8.227 -1.3457 -1.6112 -3.0764
  165SAPE  H16Y18648   4.646   6.910   8.353  0.6307 -0.1484 -1.1096
  165SAPE  C31718649   4.467   6.797   8.272  0.9943  0.0157 -0.4502
  165SAPE  H17X18650   4.510   6.699   8.300 -1.2222 -0.3172  2.2435
  165SAPE  H17Y18651   4.413   6.795   8.175 -1.6572  0.4436  0.9133
  165SAPE  C31818652   4.365   6.850   8.378  0.6764 -0.1038 -0.6218
  165SAPE  H18X18653   4.305   6.932   8.333  2.0962  0.1336 -2.2066
  165SAPE  H18Y18654   4.404   6.875   8.479  2.4096 -4.7507  0.0996
  165SAPE  H18Z18655   4.282   6.776   8.376  1.7736 -1.3678 -1.8195
  166SAPE     N18656   3.793   3.722   6.060 -0.2696  0.4052 -0.2008
  166SAPE   HN118657   3.736   3.806   6.038  0.5364  1.3274  1.0934
  166SAPE   HN218658   3.738   3.646   6.105  1.5585  0.2712  2.0174
  166SAPE   HN318659   3.866   3.759   6.125 -0.4680 -1.4770  1.1770
  166SAPE   C1218660   3.870   3.688   5.934  0.4060  0.8107  0.3869
  166SAPE  H12A18661   3.914   3.783   5.897  2.6869  0.1284  1.1899
  166SAPE  H12B18662   3.799   3.650   5.858 -0.7314  0.9189  1.3661
  166SAPE   C1118663   3.991   3.593   5.953 -0.2817 -0.8316 -0.4615
  166SAPE  H11A18664   4.076   3.643   6.002 -2.3379  1.8801  0.5774
  166SAPE  H11B18665   4.026   3.558   5.853 -3.5447 -0.2474 -1.9467
  166SAPE     P18666   3.996   3.345   6.019 -0.1983 -0.0676 -0.1265
  166SAPE   O1318667   3.935   3.249   6.116  0.6839 -0.3479  0.4500
  166SAPE   O1418668   3.992   3.302   5.877 -0.0164 -0.4122 -0.0990
  166SAPE   O1218669   3.935   3.487   6.032 -0.3674  0.1088 -0.7421
  166SAPE   O1118670   4.150   3.370   6.068  0.0040 -0.1753 -0.6673
  166SAPE    C118671   4.167   3.443   6.186  0.1837  0.2476 -0.3930
  166SAPE    HA18672   4.180   3.550   6.160  2.5277 -0.1473 -1.1151
  166SAPE    HB18673   4.093   3.421   6.266  1.0876  0.5868  0.5602
  166SAPE    C218674   4.298   3.396   6.254  0.1064 -0.1097 -0.2609
  166SAPE    HS18675   4.373   3.388   6.172 -1.0257 -0.2335 -1.3082
  166SAPE   O2118676   4.257   3.267   6.305  0.3522 -0.7947  0.0628
  166SAPE   C2118677   4.360   3.184   6.317  0.7709 -0.6548 -0.2190
  166SAPE   O2218678   4.473   3.202   6.274 -0.3446 -0.2340 -0.0234
  166SAPE   C2218679   4.313   3.065   6.398 -0.4622 -0.0721 -0.6421
  166SAPE   H2R18680   4.291   3.108   6.498 -1.2625  3.2613 -2.1213
  166SAPE   H2S18681   4.214   3.036   6.357 -1.2258  1.6145 -0.0917
  166SAPE    C318682   4.362   3.483   6.360 -0.6228 -0.0976 -0.4433
  166SAPE    HX18683   4.405   3.577   6.319  1.7549 -1.4916 -1.3542
  166SAPE    HY18684   4.454   3.433   6.398 -0.4877 -0.3562 -1.0916
  166SAPE   O3118685   4.266   3.497   6.467  0.1467  0.7806 -0.4274
  166SAPE   C3118686   4.268   3.422   6.569  0.4292  0.4408  0.6572
  166SAPE   O3218687   4.364   3.352   6.605 -0.1609 -0.3502 -0.0645
  166SAPE   C3218688   4.129   3.421   6.642  0.2966 -0.5939 -0.3105
  166SAPE   H2X18689   4.049   3.412   6.566 -0.9518  2.0712  0.5897
  166SAPE   H2Y18690   4.112   3.525   6.676  0.0890 -0.0279 -2.0663
  166SAPE   C2318691   4.417   2.958   6.409  0.1656 -0.3426  0.2267
  166SAPE   H3R18692   4.399   2.901   6.503 -1.8045 -0.1314  0.0084
  166SAPE   H3S18693   4.518   3.000   6.431 -0.4633  1.3901  0.0299
  166SAPE   C2418694   4.424   2.860   6.294 -0.5158 -0.5655  0.4044
  166SAPE   H4R18695   4.507   2.793   6.326 -2.1015 -2.5861  0.5141
  166SAPE   H4S18696   4.444   2.909   6.196  0.5746  3.0594  2.2657
  166SAPE   C2518697   4.309   2.762   6.296  0.0264  0.3288 -0.6301
  166SAPE   H5R18698   4.219   2.799   6.245 -0.9815  0.9797  1.5265
  166SAPE   C2618699   4.312   2.647   6.365  0.0658 -0.8725  0.3255
  166SAPE   H6R18700   4.218   2.591   6.364 -0.1759 -0.4707 -0.6723
  166SAPE   C2718701   4.413   2.591   6.449 -0.3967  0.7977  0.4384
  166SAPE   H7R18702   4.512   2.616   6.404 -0.6834  2.2022  0.5386
  166SAPE   H7S18703   4.403   2.481   6.457  0.9843  0.7171  1.3103
  166SAPE   C2818704   4.412   2.646   6.589 -0.0199  0.1970 -0.4755
  166SAPE   H8R18705   4.313   2.649   6.637  0.6725  2.6774  1.0172
  166SAPE   C2918706   4.520   2.678   6.671 -0.4445 -0.4634  0.3582
  166SAPE   H9R18707   4.508   2.738   6.762 -0.1387  4.5276 -2.4992
  166SAPE  C21018708   4.666   2.661   6.633  0.5133 -0.6608  0.0334
  166SAPE  H10R18709   4.673   2.617   6.531  0.4201  4.9726 -2.7432
  166SAPE  H10S18710   4.722   2.592   6.700  1.5388 -0.7379 -0.8739
  166SAPE  C21118711   4.731   2.791   6.612 -0.4883 -0.3799 -0.4710
  166SAPE  H11R18712   4.700   2.842   6.519 -1.3287  1.4968  0.7789
  166SAPE  C21218713   4.813   2.848   6.704  1.0963  0.9753 -0.3528
  166SAPE  H12R18714   4.867   2.941   6.679  2.8893  0.4045  1.1547
  166SAPE  C21318715   4.847   2.795   6.843 -0.1616 -0.1018 -0.0945
  166SAPE  H13R18716   4.779   2.716   6.880 -1.5145  0.3234 -1.5999
  166SAPE  H13S18717   4.826   2.879   6.913  1.5383 -0.1022  0.4649
  166SAPE  C21418718   4.990   2.733   6.841  0.5348  0.2116  0.6194
  166SAPE  H14R18719   5.039   2.713   6.744  0.2394 -3.4346  1.0836
  166SAPE  C21518720   5.069   2.725   6.951  0.6564 -0.2465  0.5964
  166SAPE  H15R18721   5.161   2.666   6.937  1.0382  0.1919  1.2511
  166SAPE  C21618722   5.029   2.750   7.098  0.1442  0.0410  0.0269
  166SAPE  H16R18723   4.952   2.830   7.097  1.2155  1.1468  1.3725
  166SAPE  H16S18724   5.114   2.797   7.152  0.4292  0.6650 -0.9143
  166SAPE  C21718725   4.969   2.629   7.180  0.7140 -0.3354 -0.4521
  166SAPE  H17R18726   5.043   2.546   7.184  1.7130  0.3295 -2.8929
  166SAPE  H17S18727   4.876   2.588   7.136  0.1177 -1.3872  1.6461
  166SAPE  C21818728   4.936   2.677   7.326  0.2745  0.0494 -0.7290
  166SAPE  H18R18729   4.862   2.759   7.315  0.7596  0.6413  0.2443
  166SAPE  H18S18730   5.023   2.723   7.377 -0.3742  0.2541  0.2281
  166SAPE  C21918731   4.892   2.563   7.428  0.0194 -0.0108 -0.5164
  166SAPE  H19R18732   4.982   2.498   7.435  0.3809  0.4165 -1.1230
  166SAPE  H19S18733   4.804   2.512   7.383  1.0414 -3.2970  0.8790
  166SAPE  C22018734   4.840   2.599   7.571 -0.5695 -0.2357  0.6258
  166SAPE  H20R18735   4.922   2.592   7.645  0.7777  0.8000 -0.7013
  166SAPE  H20S18736   4.758   2.537   7.613  0.1425 -1.1201  0.7336
  166SAPE  H20T18737   4.802   2.703   7.576  0.0584  0.0354 -0.1034
  166SAPE   C3318738   4.115   3.318   6.760  0.1598 -0.0485  0.3269
  166SAPE   H3X18739   4.151   3.371   6.851 -0.4781  1.9373 -0.5171
  166SAPE   H3Y18740   4.184   3.233   6.739 -1.1892 -1.5808  1.7739
  166SAPE   C3418741   3.967   3.277   6.775  0.1147 -0.9791  0.1088
  166SAPE   H4X18742   3.969   3.179   6.828  1.0152  0.0018  1.9892
  166SAPE   H4Y18743   3.909   3.254   6.683 -0.2311  1.2162 -0.2731
  166SAPE   C3518744   3.877   3.375   6.841 -0.6276 -0.2058 -0.3096
  166SAPE   H5X18745   3.843   3.446   6.763 -1.2034 -1.1835 -0.9766
  166SAPE   H5Y18746   3.931   3.446   6.907  0.6863 -2.5508  1.3081
  166SAPE   C3618747   3.763   3.302   6.916 -0.5026 -0.2123 -0.1391
  166SAPE   H6X18748   3.732   3.215   6.855 -0.9613  0.4901 -0.9277
  166SAPE   H6Y18749   3.674   3.365   6.935 -0.1980 -0.6351  3.4035
  166SAPE   C3718750   3.835   3.254   7.050 -0.1977 -0.2596  1.1491
  166SAPE   H7X18751   3.940   3.219   7.035 -1.3758 -3.0526 -1.8588
  166SAPE   H7Y18752   3.778   3.163   7.081 -0.2613 -1.1850 -1.4228
  166SAPE   C3818753   3.834   3.361   7.161  0.0424 -0.4905 -0.4729
  166SAPE   H8X18754   3.731   3.372   7.202  0.0181 -1.1653 -0.3390
  166SAPE   H8Y18755   3.865   3.457   7.114  4.8426 -2.0748 -1.1367
  166SAPE   C3918756   3.927   3.311   7.274  0.6461 -0.7436 -0.2736
  166SAPE   H9X18757   4.029   3.283   7.238  0.5232 -1.4796 -0.0701
  166SAPE   H9Y18758   3.881   3.212   7.296  0.0505 -0.6144 -0.9033
  166SAPE  C31018759   3.933   3.396   7.402 -0.1931  0.6024  0.1342
  166SAPE  H10X18760   3.833   3.441   7.418  0.1607  1.2409  0.5638
  166SAPE  H10Y18761   4.014   3.470   7.389  0.8959 -0.7002 -0.7988
  166SAPE  C31118762   3.976   3.309   7.522  0.6934 -0.3077 -0.2130
  166SAPE  H11X18763   4.077   3.265   7.511  0.3415 -1.3796  0.6994
  166SAPE  H11Y18764   3.908   3.221   7.524  0.2520 -0.0931  4.1090
  166SAPE  C31218765   3.972   3.381   7.659 -0.4355  0.5429 -0.3441
  166SAPE  H12X18766   3.869   3.418   7.679  0.1762  1.9861  0.2533
  166SAPE  H12Y18767   4.039   3.468   7.645  0.4485  0.0643  0.7753
  166SAPE  C31318768   4.013   3.296   7.784  0.7969  0.8068  0.9006
  166SAPE  H13X18769   4.079   3.216   7.742  0.3179  0.4378  0.8445
  166SAPE  H13Y18770   3.922   3.239   7.810  0.5903  1.0875  0.7921
  166SAPE  C31418771   4.058   3.369   7.902  0.2080 -0.4125 -0.4431
  166SAPE  H14X18772   3.980   3.446   7.916  0.1113 -0.4587 -0.7220
  166SAPE  H14Y18773   4.152   3.425   7.885  1.1237 -1.7684 -0.0630
  166SAPE  C31518774   4.061   3.266   8.019  0.1502 -0.2295 -0.1533
  166SAPE  H15X18775   4.070   3.163   7.981 -0.0699  0.0831 -1.0801
  166SAPE  H15Y18776   3.957   3.265   8.060  0.8072 -3.6349  1.7692
  166SAPE  C31618777   4.170   3.294   8.125 -0.0515 -0.1073  0.4167
  166SAPE  H16X18778   4.264   3.289   8.064  0.1162 -2.2522  0.7921
  166SAPE  H16Y18779   4.166   3.207   8.193 -1.9437  0.5006  1.1424
  166SAPE  C31718780   4.167   3.429   8.195 -0.2434 -0.2200  0.8855
  166SAPE  H17X18781   4.137   3.506   8.121  1.4279 -1.5820 -1.3530
  166SAPE  H17Y18782   4.272   3.456   8.219  0.3821  0.8324 -2.5532
  166SAPE  C31818783   4.077   3.434   8.324 -0.2695 -0.0933 -0.0742
  166SAPE  H18X18784   4.086   3.537   8.364 -1.3693  0.0790 -0.2464
  166SAPE  H18Y18785   4.109   3.364   8.404 -2.0069  1.1558  1.8027
  166SAPE  H18Z18786   3.969   3.431   8.302 -0.3669  0.9504  0.2322
  167SAPE     N18787   4.741   1.885   5.887 -0.8394 -0.1880  0.0237
  167SAPE   HN118788   4.823   1.827   5.912  0.2950  1.5057  0.4135
  167SAPE   HN218789   4.660   1.823   5.866 -0.6312  0.1280 -1.8914
  167SAPE   HN318790   4.775   1.933   5.801  2.1401 -1.7224  0.2158
  167SAPE   C1218791   4.698   1.992   5.976 -0.1360 -0.1366 -0.1821
  167SAPE  H12A18792   4.664   1.947   6.072 -3.1284  2.3820  0.0950
  167SAPE  H12B18793   4.619   2.051   5.925  1.5801  0.2144 -2.6223
  167SAPE   C1118794   4.824   2.074   6.019  0.2316 -0.2261  0.4647
  167SAPE  H11A18795   4.782   2.134   6.102 -0.0013 -0.7960  0.7631
  167SAPE  H11B18796   4.856   2.142   5.937 -1.0606 -1.1151 -0.8269
  167SAPE     P18797   5.041   2.025   6.159  0.0610  0.2873 -0.1240
  167SAPE   O1318798   5.156   1.942   6.133  0.0044  0.1590  0.2521
  167SAPE   O1418799   5.058   2.174   6.159  0.3376  0.3139  0.1858
  167SAPE   O1218800   4.926   1.986   6.059 -0.8031  0.2971 -0.0085
  167SAPE   O1118801   4.985   1.979   6.298  0.0031 -0.1365  0.1198
  167SAPE    C118802   4.999   2.071   6.414  0.3877  0.3417 -0.4411
  167SAPE    HA18803   4.932   2.157   6.391 -1.7037 -1.0812 -0.0402
  167SAPE    HB18804   4.955   2.020   6.503 -1.3637 -1.8584 -2.4097
  167SAPE    C218805   5.145   2.091   6.461  0.1070  0.5406  0.0842
  167SAPE    HS18806   5.209   2.094   6.371 -0.5724  1.0880 -0.3886
  167SAPE   O2118807   5.182   1.974   6.546 -0.2975 -0.3192  0.3369
  167SAPE   C2118808   5.306   1.943   6.543 -0.1545  0.0340 -0.7365
  167SAPE   O2218809   5.397   2.002   6.487  0.2739 -0.3271 -0.0829
  167SAPE   C2218810   5.321   1.818   6.639 -0.0320 -1.4619 -0.4990
  167SAPE   H2R18811   5.227   1.796   6.695 -0.5032  4.9301  2.1443
  167SAPE   H2S18812   5.352   1.731   6.578  1.3077 -0.6656 -0.9928
  167SAPE    C318813   5.169   2.221   6.543  0.0656 -0.1811 -1.0655
  167SAPE    HX18814   5.158   2.303   6.468  0.7049 -0.4072 -1.4152
  167SAPE    HY18815   5.271   2.222   6.586  0.4405  0.4192 -1.9357
  167SAPE   O3118816   5.068   2.229   6.647 -0.2767 -0.2079 -0.0868
  167SAPE   C3118817   5.062   2.348   6.703  0.1482 -0.3651 -0.9414
  167SAPE   O3218818   5.123   2.446   6.664  0.5907 -0.6824 -0.8035
  167SAPE   C3218819   4.950   2.359   6.814  0.1055  0.5197 -0.4873
  167SAPE   H2X18820   4.867   2.289   6.788 -0.7759  0.8160  1.3452
  167SAPE   H2Y18821   4.896   2.455   6.800 -2.0550 -0.8125 -1.8791
  167SAPE   C2318822   5.432   1.843   6.744  0.3614 -0.6531  0.4341
  167SAPE   H3R18823   5.531   1.829   6.696  0.2581 -3.2025  0.8293
  167SAPE   H3S18824   5.422   1.769   6.826 -0.0622  0.7815  1.7324
  167SAPE   C2418825   5.422   1.984   6.810 -0.4542 -0.9609  1.2059
  167SAPE   H4R18826   5.437   2.071   6.743 -0.9352  1.7534  4.3086
  167SAPE   H4S18827   5.506   1.995   6.883 -2.1763  0.1884  3.1405
  167SAPE   C2518828   5.291   2.015   6.877 -0.0501 -0.0194  0.1357
  167SAPE   H5R18829   5.219   2.055   6.804  0.7094  0.2732 -0.4692
  167SAPE   C2618830   5.254   2.001   7.005  0.0119 -0.3565  0.5503
  167SAPE   H6R18831   5.149   2.022   7.032  0.3618  1.5344  0.5545
  167SAPE   C2718832   5.345   1.939   7.115  0.5333 -1.5949  0.3760
  167SAPE   H7R18833   5.353   2.015   7.195 -1.2692 -0.2503 -0.6271
  167SAPE   H7S18834   5.449   1.937   7.076 -0.7577 -1.3747 -3.5735
  167SAPE   C2818835   5.298   1.814   7.182 -0.2212  0.2719  0.1612
  167SAPE   H8R18836   5.324   1.734   7.111  2.5338 -0.3432  1.7064
  167SAPE   C2918837   5.241   1.786   7.300  0.1729  0.3749  0.7211
  167SAPE   H9R18838   5.222   1.679   7.312  3.8951 -0.6344 -0.7515
  167SAPE  C21018839   5.213   1.889   7.402 -0.1193 -0.6856  0.2163
  167SAPE  H10R18840   5.115   1.870   7.449 -1.1416 -2.4857 -2.3994
  167SAPE  H10S18841   5.207   1.986   7.349 -2.0143 -0.3803  0.9332
  167SAPE  C21118842   5.331   1.893   7.500  0.5196  0.0661  0.1764
  167SAPE  H11R18843   5.429   1.877   7.454  0.8295 -0.8184  1.1070
  167SAPE  C21218844   5.324   1.927   7.632 -0.1976 -0.2101  0.3622
  167SAPE  H12R18845   5.421   1.931   7.685  0.9502  1.9101 -1.7238
  167SAPE  C21318846   5.195   1.954   7.710 -0.8776  1.0557 -0.1695
  167SAPE  H13R18847   5.157   1.868   7.769 -0.3134  1.2966  0.5522
  167SAPE  H13S18848   5.112   1.987   7.643  0.7924  0.9813 -2.3793
  167SAPE  C21418849   5.217   2.068   7.800  0.3223 -1.4396  0.1506
  167SAPE  H14R18850   5.191   2.163   7.752  1.2313 -1.0394  0.4216
  167SAPE  C21518851   5.268   2.065   7.923 -0.4129 -0.3732  0.1729
  167SAPE  H15R18852   5.266   2.161   7.978  0.8658 -0.5973  0.6606
  167SAPE  C21618853   5.324   1.944   8.003  0.5127 -0.4685 -0.2512
  167SAPE  H16R18854   5.398   1.977   8.079 -1.2468 -1.4202  2.0066
  167SAPE  H16S18855   5.384   1.872   7.942  0.3290  0.3728 -1.4689
  167SAPE  C21718856   5.209   1.872   8.081  0.1253  0.2616  0.2418
  167SAPE  H17R18857   5.138   1.821   8.013  2.2279 -0.4144 -1.5383
  167SAPE  H17S18858   5.153   1.946   8.143  0.9508  0.5434  0.6621
  167SAPE  C21818859   5.251   1.751   8.178 -0.4304  0.0821  0.7715
  167SAPE  H18R18860   5.292   1.672   8.112 -0.8240 -2.2571  3.1501
  167SAPE  H18S18861   5.159   1.707   8.222  1.2959 -3.2005  1.4267
  167SAPE  C21918862   5.361   1.791   8.276 -0.4947  0.2084 -0.0012
  167SAPE  H19R18863   5.345   1.888   8.328 -0.2535  0.3277 -0.1479
  167SAPE  H19S18864   5.454   1.804   8.217  1.4245 -1.6070  2.4427
  167SAPE  C22018865   5.376   1.671   8.377 -0.0720 -0.1181 -0.2616
  167SAPE  H20R18866   5.274   1.645   8.412 -0.8753  0.6953 -1.8567
  167SAPE  H20S18867   5.430   1.709   8.466 -1.4521  0.9253  0.1771
  167SAPE  H20T18868   5.415   1.586   8.317  0.3351 -0.8794  1.0428
  167SAPE   C3318869   4.999   2.341   6.958 -0.0916  0.0528 -0.0618
  167SAPE   H3X18870   4.969   2.437   7.005  0.3453  0.2018 -0.0814
  167SAPE   H3Y18871   5.110   2.337   6.961 -0.1135  0.0849  1.0730
  167SAPE   C3418872   4.932   2.224   7.022 -0.1794 -0.2501  0.2894
  167SAPE   H4X18873   4.977   2.132   6.978  0.6100  0.4802 -0.4779
  167SAPE   H4Y18874   4.825   2.231   6.993  0.1609 -0.9240 -1.2352
  167SAPE   C3518875   4.963   2.236   7.168 -0.0247 -0.4662  0.4626
  167SAPE   H5X18876   4.915   2.328   7.208 -1.8845 -1.0038 -0.4579
  167SAPE   H5Y18877   5.073   2.226   7.184  0.0308 -0.0442  0.3570
  167SAPE   C3618878   4.906   2.117   7.251 -0.2350  0.0302 -0.0627
  167SAPE   H6X18879   4.947   2.022   7.211  0.7147  0.7316 -0.7911
  167SAPE   H6Y18880   4.797   2.115   7.231 -0.4519 -1.3066  1.1069
  167SAPE   C3718881   4.928   2.120   7.405  0.5076  0.3382  1.1003
  167SAPE   H7X18882   5.022   2.175   7.428  3.1115 -1.7702 -3.2230
  167SAPE   H7Y18883   4.948   2.015   7.435 -0.3152 -0.2057 -0.1654
  167SAPE   C3818884   4.809   2.187   7.472  0.9063  0.8473  0.2950
  167SAPE   H8X18885   4.721   2.120   7.459 -0.4617  2.3531  1.4382
  167SAPE   H8Y18886   4.790   2.278   7.411 -0.2983 -0.8446 -2.0441
  167SAPE   C3918887   4.829   2.228   7.617 -0.3981 -0.6304 -0.0251
  167SAPE   H9X18888   4.741   2.281   7.657  0.3564 -0.5752  1.6591
  167SAPE   H9Y18889   4.924   2.284   7.632 -0.6032 -0.7028  1.6318
  167SAPE  C31018890   4.827   2.108   7.712  0.2238  0.3682  0.6154
  167SAPE  H10X18891   4.912   2.039   7.694  0.0840  0.5598 -0.8758
  167SAPE  H10Y18892   4.736   2.046   7.695  0.5435 -0.1619  0.8213
  167SAPE  C31118893   4.831   2.156   7.859  0.0383 -0.4642 -0.1684
  167SAPE  H11X18894   4.890   2.249   7.864 -1.5985  0.6163 -0.2153
  167SAPE  H11Y18895   4.887   2.079   7.916 -0.1722  1.8721  3.5100
  167SAPE  C31218896   4.693   2.166   7.918  0.2259  0.0757  0.4831
  167SAPE  H12X18897   4.661   2.059   7.924 -1.2361  0.3835 -0.9660
  167SAPE  H12Y18898   4.629   2.224   7.848  0.2747  1.1573  1.3069
  167SAPE  C31318899   4.689   2.231   8.058 -0.1795 -0.9411  0.4768
  167SAPE  H13X18900   4.585   2.246   8.094 -0.8817 -1.0014 -1.3977
  167SAPE  H13Y18901   4.718   2.338   8.058  0.9337 -1.2173 -0.2954
  167SAPE  C31418902   4.772   2.158   8.165  0.4685 -0.4171  0.3053
  167SAPE  H14X18903   4.775   2.205   8.266  0.9549 -0.8029  0.4788
  167SAPE  H14Y18904   4.879   2.154   8.136  0.5540  0.1786  0.5365
  167SAPE  C31518905   4.730   2.015   8.194  0.1890  0.7590 -0.3680
  167SAPE  H15X18906   4.711   1.970   8.094 -3.9085  3.3016 -0.9665
  167SAPE  H15Y18907   4.633   2.014   8.248  0.5791 -1.1886  0.3669
  167SAPE  C31618908   4.833   1.937   8.282 -0.3080  0.3133 -0.1774
  167SAPE  H16X18909   4.931   1.928   8.229  1.2303  1.3894  2.3142
  167SAPE  H16Y18910   4.799   1.834   8.303  0.4431 -0.4440 -2.3127
  167SAPE  C31718911   4.858   1.985   8.427  0.0338  0.1140 -0.0944
  167SAPE  H17X18912   4.870   2.095   8.422 -1.5471  0.2652 -1.5464
  167SAPE  H17Y18913   4.952   1.935   8.459  0.6820  1.2940 -0.1077
  167SAPE  C31818914   4.740   1.973   8.531 -0.1278  0.3131  0.2858
  167SAPE  H18X18915   4.698   1.872   8.507 -1.2355  1.6937 -4.8734
  167SAPE  H18Y18916   4.665   2.051   8.505 -0.5247 -0.2111 -0.1793
  167SAPE  H18Z18917   4.773   1.978   8.636 -1.1603 -4.5655  1.0958
  168SAPE     N18918   0.455   2.970   6.309  0.0445 -0.3708  0.1915
  168SAPE   HN118919   0.378   2.983   6.240 -0.2915 -1.8960  0.2456
  168SAPE   HN218920   0.521   2.899   6.273  1.4521  1.1818 -0.4098
  168SAPE   HN318921   0.415   2.943   6.402 -1.8918  0.9489 -0.2026
  168SAPE   C1218922   0.545   3.095   6.313 -0.4386  0.7435  0.7309
  168SAPE  H12A18923   0.541   3.143   6.413  0.8577  1.2431  0.5551
  168SAPE  H12B18924   0.498   3.160   6.236 -0.5562  0.9177  0.9472
  168SAPE   C1118925   0.685   3.063   6.267  0.6322  0.4975 -0.2991
  168SAPE  H11A18926   0.745   3.156   6.269 -1.1670  1.7108  0.5428
  168SAPE  H11B18927   0.683   3.023   6.163  1.2738  2.1426 -0.9902
  168SAPE     P18928   0.862   2.874   6.328 -0.3394  0.1556 -0.0596
  168SAPE   O1318929   0.824   2.731   6.351 -0.7560  0.4595  0.0042
  168SAPE   O1418930   0.917   2.910   6.194 -0.2574  0.0410 -0.3914
  168SAPE   O1218931   0.739   2.968   6.360 -0.9171  0.2036  0.2798
  168SAPE   O1118932   0.967   2.918   6.442 -0.1609  0.2278  0.3911
  168SAPE    C118933   0.919   2.945   6.573  0.4601  0.1225  0.3016
  168SAPE    HA18934   0.825   2.893   6.601  0.9859 -0.1752  1.6208
  168SAPE    HB18935   0.988   2.891   6.642 -1.7068 -1.7724  1.1182
  168SAPE    C218936   0.913   3.098   6.575 -0.3116 -0.1585  0.1527
  168SAPE    HS18937   0.907   3.134   6.470  3.2991 -0.9110 -0.4405
  168SAPE   O2118938   1.040   3.138   6.631 -0.6017  0.6336 -0.0568
  168SAPE   C2118939   1.075   3.265   6.598 -0.3005  0.1726 -0.8970
  168SAPE   O2218940   1.006   3.354   6.555  0.6956  0.2164  0.0043
  168SAPE   C2218941   1.223   3.285   6.636 -0.1037  0.8344  0.2950
  168SAPE   H2R18942   1.277   3.201   6.589 -0.6553  1.1806 -1.0045
  168SAPE   H2S18943   1.262   3.384   6.603 -3.9711  2.7801  0.9084
  168SAPE    C318944   0.784   3.150   6.647 -0.0824 -0.2785  0.5309
  168SAPE    HX18945   0.712   3.133   6.564  0.3693  1.1135 -0.1762
  168SAPE    HY18946   0.792   3.257   6.675 -1.9029 -0.0270  0.1845
  168SAPE   O3118947   0.748   3.060   6.758  0.0902 -1.0566  0.1637
  168SAPE   C3118948   0.789   3.104   6.874  0.1122 -0.1960  0.1314
  168SAPE   O3218949   0.876   3.187   6.887 -0.9456  0.3210  0.2061
  168SAPE   C3218950   0.724   3.034   6.988  0.0450 -0.1281  0.0919
  168SAPE   H2X18951   0.693   2.940   6.937 -2.2528 -0.3994  1.8009
  168SAPE   H2Y18952   0.628   3.084   7.014 -0.1843 -0.5354  0.0487
  168SAPE   C2318953   1.242   3.279   6.790 -0.0938 -0.6391 -0.7592
  168SAPE   H3R18954   1.348   3.283   6.821 -0.3292  1.5251 -0.0618
  168SAPE   H3S18955   1.198   3.183   6.826 -1.8080 -0.1202 -1.3552
  168SAPE   C2418956   1.169   3.394   6.863  0.1155  0.3215  0.5406
  168SAPE   H4R18957   1.171   3.394   6.975 -1.2392  2.3479  0.6114
  168SAPE   H4S18958   1.063   3.393   6.833  0.1099 -3.0396  0.3239
  168SAPE   C2518959   1.232   3.525   6.813 -0.1663  0.4316 -0.5372
  168SAPE   H5R18960   1.167   3.578   6.741 -1.9864  2.0653  2.1258
  168SAPE   C2618961   1.354   3.584   6.831  0.3460  0.3802  0.6903
  168SAPE   H6R18962   1.375   3.684   6.793 -1.3242  1.1144  1.5800
  168SAPE   C2718963   1.460   3.536   6.923 -0.7843 -0.3852 -0.0273
  168SAPE   H7R18964   1.549   3.529   6.857 -0.8241  0.3352 -0.1642
  168SAPE   H7S18965   1.438   3.436   6.965  1.4641 -1.8774 -2.1070
  168SAPE   C2818966   1.484   3.635   7.035  0.8104 -0.0987 -0.2900
  168SAPE   H8R18967   1.521   3.735   7.010 -1.6739  1.1556  0.6917
  168SAPE   C2918968   1.460   3.609   7.163  0.0537  0.1341  0.1463
  168SAPE   H9R18969   1.486   3.692   7.230 -0.2207 -0.7068  1.3115
  168SAPE  C21018970   1.412   3.490   7.235 -0.4578 -0.1124 -0.1039
  168SAPE  H10R18971   1.437   3.501   7.343 -0.4459  0.4218 -0.1554
  168SAPE  H10S18972   1.470   3.402   7.201 -2.2546 -1.4955  0.2502
  168SAPE  C21118973   1.260   3.480   7.233  0.5777  0.2194  0.5006
  168SAPE  H11R18974   1.217   3.580   7.216 -0.6281 -0.4607 -0.6294
  168SAPE  C21218975   1.179   3.372   7.247  0.0997 -0.4004 -0.1837
  168SAPE  H12R18976   1.073   3.397   7.230 -0.2058 -1.3695  0.2543
  168SAPE  C21318977   1.231   3.234   7.254  0.2504 -0.4938  0.1522
  168SAPE  H13R18978   1.301   3.205   7.336  0.4551  0.5504  0.3619
  168SAPE  H13S18979   1.282   3.213   7.157  3.5351  1.9331  1.1693
  168SAPE  C21418980   1.119   3.135   7.279  0.6124 -0.2271 -0.2011
  168SAPE  H14R18981   1.081   3.087   7.187 -2.0050  0.0441  0.6447
  168SAPE  C21518982   1.054   3.114   7.394 -0.1666 -0.1730  0.0212
  168SAPE  H15R18983   0.961   3.057   7.393 -0.0581 -0.4003  1.0946
  168SAPE  C21618984   1.081   3.190   7.523  0.3924 -0.1327 -0.2129
  168SAPE  H16R18985   1.002   3.268   7.532  1.4973  1.1559 -1.1262
  168SAPE  H16S18986   1.183   3.231   7.512  0.3905 -0.2535 -0.6884
  168SAPE  C21718987   1.099   3.102   7.647  0.1991 -0.4410 -0.4797
  168SAPE  H17R18988   1.168   3.017   7.629  0.0159 -0.4285 -1.2736
  168SAPE  H17S18989   1.001   3.062   7.679 -1.3604  0.7738 -3.3608
  168SAPE  C21818990   1.161   3.191   7.756 -0.2197 -0.1991 -0.0800
  168SAPE  H18R18991   1.090   3.276   7.760 -3.4142 -2.7039  0.8243
  168SAPE  H18S18992   1.262   3.222   7.722  1.0102 -1.8608  1.8221
  168SAPE  C21918993   1.159   3.118   7.891  0.0687 -0.1073  0.2736
  168SAPE  H19R18994   1.246   3.049   7.889 -0.4753 -0.8092  0.4122
  168SAPE  H19S18995   1.064   3.062   7.909 -0.7278  1.2004  0.3130
  168SAPE  C22018996   1.181   3.209   8.018  0.6794 -0.2630  0.1699
  168SAPE  H20R18997   1.134   3.155   8.103 -1.1578  0.4546 -0.3558
  168SAPE  H20S18998   1.119   3.301   8.022  2.3214  0.8894  0.3574
  168SAPE  H20T18999   1.287   3.233   8.043  1.1393 -1.8154 -0.1952
  168SAPE   C3319000   0.820   3.010   7.108 -0.5264 -0.4172  0.5148
  168SAPE   H3X19001   0.840   3.102   7.166  0.2475 -0.0241 -0.3516
  168SAPE   H3Y19002   0.915   2.976   7.063  0.1918  0.7546  1.1128
  168SAPE   C3419003   0.783   2.900   7.217 -0.9413  0.0819  0.7045
  168SAPE   H4X19004   0.868   2.882   7.285 -0.1795 -1.0781 -0.4994
  168SAPE   H4Y19005   0.770   2.802   7.167 -2.4469 -0.1895  1.5767
  168SAPE   C3519006   0.658   2.916   7.302 -0.0685 -0.2612 -0.6528
  168SAPE   H5X19007   0.644   2.823   7.360 -0.5498  0.3043  0.1621
  168SAPE   H5Y19008   0.574   2.937   7.232 -0.1201 -0.3474 -0.6169
  168SAPE   C3619009   0.662   3.033   7.399  0.0578 -0.8623 -0.0195
  168SAPE   H6X19010   0.683   3.124   7.339  3.3123 -0.1668  1.9545
  168SAPE   H6Y19011   0.748   3.027   7.468 -1.0689  0.0922  1.5305
  168SAPE   C3719012   0.536   3.033   7.481 -0.7868 -0.3474 -0.4066
  168SAPE   H7X19013   0.524   2.932   7.527  1.0117  1.0592  3.5586
  168SAPE   H7Y19014   0.452   3.036   7.408 -0.6700 -0.1968 -0.5358
  168SAPE   C3819015   0.527   3.148   7.583  0.2538 -0.4790  0.3596
  168SAPE   H8X19016   0.427   3.140   7.630 -0.2037  1.5837 -0.1457
  168SAPE   H8Y19017   0.537   3.245   7.529  0.8821 -0.1878  0.9744
  168SAPE   C3919018   0.622   3.126   7.701  0.3960  0.8554  0.3067
  168SAPE   H9X19019   0.725   3.156   7.672 -0.7321  2.0548 -2.9377
  168SAPE   H9Y19020   0.624   3.017   7.718 -0.1508  0.3174 -2.5043
  168SAPE  C31019021   0.588   3.195   7.832  0.3596 -0.1762 -0.0171
  168SAPE  H10X19022   0.479   3.213   7.827  0.6094  1.4830 -0.2136
  168SAPE  H10Y19023   0.648   3.289   7.834  0.0558  0.0060  0.7474
  168SAPE  C31119024   0.614   3.104   7.949  0.0965  0.3009  0.6483
  168SAPE  H11X19025   0.720   3.075   7.967  0.2249  1.1453  1.2619
  168SAPE  H11Y19026   0.547   3.016   7.934  1.0914 -0.5286  0.9275
  168SAPE  C31219027   0.578   3.159   8.082  1.2773 -0.8494 -0.2434
  168SAPE  H12X19028   0.468   3.161   8.087  1.1612  3.6618 -1.3050
  168SAPE  H12Y19029   0.612   3.262   8.104 -0.5248 -0.6623  2.0244
  168SAPE  C31319030   0.630   3.077   8.204  0.1738  0.3261  0.1260
  168SAPE  H13X19031   0.741   3.081   8.200  0.1817  0.5459 -3.8462
  168SAPE  H13Y19032   0.599   2.972   8.188  0.7231  0.2202 -0.2955
  168SAPE  C31419033   0.598   3.115   8.354  0.5606 -0.5877 -0.1513
  168SAPE  H14X19034   0.490   3.142   8.363 -0.4796 -4.1500 -0.2941
  168SAPE  H14Y19035   0.649   3.209   8.384 -0.7246  0.1668 -0.2396
  168SAPE  C31519036   0.608   2.996   8.442 -0.1658  0.3574 -0.7467
  168SAPE  H15X19037   0.525   2.924   8.424 -0.1985  0.4362 -0.9113
  168SAPE  H15Y19038   0.600   3.030   8.548  1.3453 -0.3848 -0.3571
  168SAPE  C31619039   0.742   2.919   8.429 -0.5292  0.4167 -0.3955
  168SAPE  H16X19040   0.821   2.992   8.456 -2.3643  1.4331  2.7619
  168SAPE  H16Y19041   0.753   2.888   8.323  0.2518  1.7193 -0.7204
  168SAPE  C31719042   0.754   2.796   8.524 -0.0456 -0.3602  0.6707
  168SAPE  H17X19043   0.667   2.735   8.491  0.6993  0.1510 -2.6352
  168SAPE  H17Y19044   0.733   2.824   8.629 -1.7499  1.3808 -0.0713
  168SAPE  C31819045   0.897   2.732   8.526 -0.0935 -0.1861 -0.2233
  168SAPE  H18X19046   0.956   2.744   8.433  0.8670  0.5188  0.4571
  168SAPE  H18Y19047   0.899   2.623   8.547  0.9459 -0.1396 -0.0142
  168SAPE  H18Z19048   0.958   2.780   8.605  0.9663  0.9897 -1.7014
  169SAPE     N19049   4.066   6.146   6.000 -0.4264  0.1809  0.4819
  169SAPE   HN119050   3.985   6.200   6.038 -3.3434 -2.0258 -2.0688
  169SAPE   HN219051   4.101   6.199   5.917  1.5541  0.9502  1.7297
  169SAPE   HN319052   4.027   6.056   5.967  0.2160 -0.7118  2.0711
  169SAPE   C1219053   4.179   6.128   6.098  0.3054  0.1387 -0.5194
  169SAPE  H12A19054   4.138   6.062   6.178  0.2769  0.6188 -0.1376
  169SAPE  H12B19055   4.215   6.223   6.141  0.8390 -0.4580  0.3932
  169SAPE   C1119056   4.303   6.065   6.029 -0.5122 -0.4379 -0.1015
  169SAPE  H11A19057   4.388   6.058   6.100 -0.9888  0.9076  0.6324
  169SAPE  H11B19058   4.332   6.138   5.951 -1.3663  0.8704  0.7769
  169SAPE     P19059   4.286   5.809   6.062 -0.0739  0.7823 -0.2495
  169SAPE   O1319060   4.178   5.827   6.160  0.1060 -0.1871  0.0071
  169SAPE   O1419061   4.281   5.688   5.979 -0.0439  0.1459  0.3560
  169SAPE   O1219062   4.277   5.938   5.971 -0.3577 -0.0835 -0.2816
  169SAPE   O1119063   4.419   5.818   6.134 -1.0955 -0.3826  0.5267
  169SAPE    C119064   4.425   5.863   6.277  0.6407 -0.2975  0.3230
  169SAPE    HA19065   4.415   5.974   6.283  0.9362 -0.1715 -1.1663
  169SAPE    HB19066   4.343   5.811   6.331 -0.3341 -0.5940 -1.3710
  169SAPE    C219067   4.555   5.820   6.346 -0.5519  0.4394 -0.4765
  169SAPE    HS19068   4.636   5.877   6.296 -0.4272  1.6304  1.0180
  169SAPE   O2119069   4.572   5.678   6.345 -0.1586  0.1531  0.1023
  169SAPE   C2119070   4.701   5.643   6.323 -0.0009  0.2302 -0.8117
  169SAPE   O2219071   4.793   5.723   6.324  0.2349  0.2760 -0.8285
  169SAPE   C2219072   4.715   5.492   6.306  0.2111  0.4802  0.4839
  169SAPE   H2R19073   4.632   5.433   6.350 -0.0121  2.0856  2.3572
  169SAPE   H2S19074   4.711   5.470   6.197 -1.3800  2.4974  0.0801
  169SAPE    C319075   4.547   5.871   6.497 -0.3995  0.2034  0.6158
  169SAPE    HX19076   4.446   5.838   6.532 -0.3345 -1.5973 -0.7138
  169SAPE    HY19077   4.551   5.981   6.489  1.8959  0.0349 -1.8292
  169SAPE   O3119078   4.657   5.836   6.582  0.1008  0.1471  0.3092
  169SAPE   C3119079   4.627   5.751   6.672  0.2457 -0.2164 -0.6243
  169SAPE   O3219080   4.519   5.698   6.693 -0.6880  0.6920  0.3006
  169SAPE   C3219081   4.750   5.726   6.757 -0.1945 -0.4006  0.0762
  169SAPE   H2X19082   4.814   5.816   6.760  0.9668 -1.2316  2.9320
  169SAPE   H2Y19083   4.802   5.634   6.722  2.2808  0.2205  1.8527
  169SAPE   C2319084   4.840   5.426   6.366  0.2088  0.5305  0.1700
  169SAPE   H3R19085   4.936   5.472   6.333  0.8715 -0.1175  1.1291
  169SAPE   H3S19086   4.840   5.317   6.344 -1.8806  0.5166  0.0198
  169SAPE   C2419087   4.835   5.439   6.519 -0.0899 -0.8267  0.3704
  169SAPE   H4R19088   4.745   5.379   6.545 -0.6527 -1.7924 -3.2385
  169SAPE   H4S19089   4.816   5.546   6.539  0.9186 -1.0293  2.7160
  169SAPE   C2519090   4.957   5.374   6.586  0.0939 -0.1895  0.0503
  169SAPE   H5R19091   5.058   5.407   6.556 -0.3004  0.4490 -0.6160
  169SAPE   C2619092   4.950   5.289   6.691  0.3597  0.2248 -0.3150
  169SAPE   H6R19093   5.050   5.256   6.721 -0.0555 -1.7494 -0.9684
  169SAPE   C2719094   4.823   5.228   6.759 -0.2923 -0.2316  0.3199
  169SAPE   H7R19095   4.773   5.169   6.680  2.3958 -2.6968  0.2905
  169SAPE   H7S19096   4.750   5.310   6.774  0.2999  0.7530 -1.7808
  169SAPE   C2819097   4.854   5.144   6.885 -0.1034 -0.1928  0.6002
  169SAPE   H8R19098   4.914   5.200   6.959  3.6638  1.8630 -3.5516
  169SAPE   C2919099   4.826   5.016   6.919  0.2946  0.0265  0.5632
  169SAPE   H9R19100   4.851   4.981   7.020  2.3344  1.7468  0.7157
  169SAPE  C21019101   4.747   4.918   6.841  0.2778 -0.2611 -0.1233
  169SAPE  H10R19102   4.820   4.837   6.817 -0.4406 -0.5085 -1.5804
  169SAPE  H10S19103   4.720   4.965   6.744  1.6719 -1.1634 -1.0036
  169SAPE  C21119104   4.630   4.846   6.906  0.0418 -0.3804 -0.4271
  169SAPE  H11R19105   4.534   4.896   6.885  0.3981  0.2827 -0.4899
  169SAPE  C21219106   4.629   4.743   6.985  0.6570  0.0160  0.2266
  169SAPE  H12R19107   4.531   4.707   7.020 -0.9757  0.3531 -3.4700
  169SAPE  C21319108   4.750   4.669   7.032  0.3640  0.3882  0.4981
  169SAPE  H13R19109   4.759   4.676   7.143  1.6096  1.0166  0.3659
  169SAPE  H13S19110   4.843   4.714   6.994  0.2674 -1.8260 -2.7392
  169SAPE  C21419111   4.759   4.519   6.994 -0.2675  0.1562 -0.0197
  169SAPE  H14R19112   4.773   4.497   6.887 -0.6470  0.1820 -0.0775
  169SAPE  C21519113   4.750   4.405   7.073  0.1873 -0.2599 -0.2712
  169SAPE  H15R19114   4.749   4.311   7.016  2.0364 -1.4199  1.4620
  169SAPE  C21619115   4.717   4.402   7.217  0.5699 -0.4174  0.6201
  169SAPE  H16R19116   4.608   4.387   7.231  0.2679 -0.0138 -1.1183
  169SAPE  H16S19117   4.754   4.493   7.269  1.9024 -0.8340  0.4383
  169SAPE  C21719118   4.784   4.277   7.281 -0.9511  0.1774 -0.5084
  169SAPE  H17R19119   4.894   4.293   7.288 -0.8088 -0.7967 -0.3876
  169SAPE  H17S19120   4.754   4.180   7.236 -1.0783  0.0147 -0.0799
  169SAPE  C21819121   4.749   4.262   7.427  0.1640  0.2452  0.0636
  169SAPE  H18R19122   4.640   4.266   7.449 -0.1447 -3.9139  0.1230
  169SAPE  H18S19123   4.793   4.348   7.481  0.2062 -0.0070  0.4399
  169SAPE  C21919124   4.806   4.136   7.481 -0.0375  0.0134 -0.1268
  169SAPE  H19R19125   4.917   4.133   7.467 -0.2561  0.8284 -2.4205
  169SAPE  H19S19126   4.779   4.044   7.425 -0.4112 -1.3364  2.1674
  169SAPE  C22019127   4.779   4.109   7.635  0.6455  0.1275 -0.0934
  169SAPE  H20R19128   4.670   4.095   7.643  0.0727  1.3589 -3.8212
  169SAPE  H20S19129   4.822   4.196   7.689  0.5200 -0.9942  1.9135
  169SAPE  H20T19130   4.823   4.010   7.660  1.9501  0.3346 -1.3598
  169SAPE   C3319131   4.712   5.682   6.901 -0.0310 -0.3653  0.1290
  169SAPE   H3X19132   4.614   5.633   6.917 -0.9715  1.4915  0.3923
  169SAPE   H3Y19133   4.710   5.772   6.966 -0.0136 -0.6057  0.4665
  169SAPE   C3419134   4.820   5.599   6.971  0.5504  0.0270 -0.2247
  169SAPE   H4X19135   4.909   5.665   6.957  0.7449 -0.0435  0.6062
  169SAPE   H4Y19136   4.845   5.501   6.926 -0.4815 -0.1315 -0.4641
  169SAPE   C3519137   4.810   5.568   7.122  0.2115  1.2759  0.3518
  169SAPE   H5X19138   4.703   5.581   7.149 -0.3681 -0.5624 -0.8523
  169SAPE   H5Y19139   4.866   5.634   7.192  1.6428  1.0165 -0.5068
  169SAPE   C3619140   4.845   5.419   7.142 -0.0231 -0.3955 -0.4392
  169SAPE   H6X19141   4.953   5.397   7.126 -0.3149 -1.5742 -0.9008
  169SAPE   H6Y19142   4.781   5.366   7.069 -0.1224 -1.1894  0.2068
  169SAPE   C3719143   4.805   5.366   7.282 -0.2387  0.6422 -0.3915
  169SAPE   H7X19144   4.696   5.384   7.283 -0.3902 -0.1701  1.4488
  169SAPE   H7Y19145   4.843   5.432   7.363  0.5573 -0.0005 -0.2288
  169SAPE   C3819146   4.834   5.223   7.298 -0.1050  0.5863 -0.3880
  169SAPE   H8X19147   4.942   5.200   7.302 -0.4080 -0.9128 -0.1645
  169SAPE   H8Y19148   4.803   5.161   7.211 -0.6859 -0.3705  0.4769
  169SAPE   C3919149   4.775   5.164   7.430  0.0014  1.1337  0.0323
  169SAPE   H9X19150   4.666   5.181   7.435 -0.2230  0.0681 -0.6804
  169SAPE   H9Y19151   4.825   5.208   7.519  0.4648 -0.3035  0.5155
  169SAPE  C31019152   4.796   5.009   7.429  0.3632 -0.1124 -0.2335
  169SAPE  H10X19153   4.902   4.978   7.418  0.1755 -0.4244 -1.2013
  169SAPE  H10Y19154   4.733   4.965   7.349  0.5059  0.1277 -0.4779
  169SAPE  C31119155   4.748   4.937   7.557 -0.0228  0.3387 -0.4471
  169SAPE  H11X19156   4.655   4.987   7.595 -0.9903 -0.7995 -1.2419
  169SAPE  H11Y19157   4.827   4.953   7.633  1.2841  0.5129 -1.7977
  169SAPE  C31219158   4.714   4.788   7.523 -0.2417  0.1305 -0.0612
  169SAPE  H12X19159   4.795   4.738   7.466  0.0279 -0.6254  0.9446
  169SAPE  H12Y19160   4.625   4.785   7.458 -2.1537  0.5589  2.3953
  169SAPE  C31319161   4.698   4.711   7.650 -0.4114  0.3913 -0.1413
  169SAPE  H13X19162   4.626   4.772   7.709  0.0707  1.8965 -1.0588
  169SAPE  H13Y19163   4.790   4.698   7.711 -0.5173  0.4052  0.0225
  169SAPE  C31419164   4.637   4.567   7.631 -0.3513  0.0269  0.8370
  169SAPE  H14X19165   4.715   4.489   7.616  0.3160  0.9175 -0.5894
  169SAPE  H14Y19166   4.564   4.577   7.548 -0.8710  0.0225  1.2890
  169SAPE  C31519167   4.544   4.523   7.745  0.4581 -0.0751 -0.4409
  169SAPE  H15X19168   4.452   4.584   7.747  1.2249  1.0929  0.9539
  169SAPE  H15Y19169   4.584   4.557   7.843 -0.3721  0.5241 -0.2981
  169SAPE  C31619170   4.511   4.375   7.743 -0.2236 -0.3833  0.2904
  169SAPE  H16X19171   4.601   4.311   7.731 -0.6909 -1.2444  1.2097
  169SAPE  H16Y19172   4.449   4.349   7.654 -0.7855 -1.3745  0.9454
  169SAPE  C31719173   4.458   4.321   7.874 -0.2358  0.0699 -0.2731
  169SAPE  H17X19174   4.381   4.392   7.911  1.7424  1.4072  1.6198
  169SAPE  H17Y19175   4.542   4.322   7.947 -0.8241 -0.2904  0.4218
  169SAPE  C31819176   4.407   4.180   7.885 -0.1533  0.1134 -0.2586
  169SAPE  H18X19177   4.482   4.106   7.850  0.5621  0.2142  1.0038
  169SAPE  H18Y19178   4.314   4.182   7.825 -1.4640  2.2084  1.6900
  169SAPE  H18Z19179   4.382   4.158   7.991  0.0027 -0.8786 -0.4167
  170SAPE     N19180   6.578   4.592   6.106 -0.0636  0.5362  0.0652
  170SAPE   HN119181   6.630   4.617   6.019  0.0683  0.9424  0.2573
  170SAPE   HN219182   6.497   4.528   6.092  0.0744  0.6274 -1.2369
  170SAPE   HN319183   6.535   4.684   6.132  0.1086  1.1872 -1.8307
  170SAPE   C1219184   6.687   4.542   6.198 -0.4065  0.1616  0.0532
  170SAPE  H12A19185   6.683   4.431   6.195  1.3136  0.1023 -0.8078
  170SAPE  H12B19186   6.651   4.565   6.301 -0.0066  3.2517 -0.4023
  170SAPE   C1119187   6.819   4.613   6.169 -0.3069  0.2875 -0.5200
  170SAPE  H11A19188   6.865   4.594   6.069 -0.8706  0.5768 -0.8372
  170SAPE  H11B19189   6.887   4.577   6.249 -0.5065  0.6607 -0.1845
  170SAPE     P19190   6.927   4.845   6.173 -0.0608  0.0420  0.1095
  170SAPE   O1319191   7.017   4.801   6.064 -0.4983  0.3112 -0.0826
  170SAPE   O1419192   6.884   4.983   6.164  0.0326 -0.3110 -0.1623
  170SAPE   O1219193   6.799   4.754   6.175  0.0686 -0.8577 -0.2133
  170SAPE   O1119194   6.996   4.813   6.309 -0.9268  0.3534 -0.6487
  170SAPE    C119195   6.925   4.834   6.432 -0.2150  0.3159 -0.2412
  170SAPE    HA19196   6.854   4.918   6.421 -3.4145 -1.6244  3.1027
  170SAPE    HB19197   6.878   4.739   6.466 -0.7925  1.7064  3.3062
  170SAPE    C219198   7.036   4.863   6.542  0.3373 -0.5804 -0.5370
  170SAPE    HS19199   7.108   4.778   6.539  1.4480  0.3349 -0.4721
  170SAPE   O2119200   6.972   4.871   6.671  0.3714 -0.0754 -0.6965
  170SAPE   C2119201   6.955   4.763   6.742 -0.2000 -0.1820  0.7723
  170SAPE   O2219202   6.997   4.653   6.717  0.3378 -0.1482 -0.1945
  170SAPE   C2219203   6.879   4.790   6.870 -0.2938  0.1685 -0.0202
  170SAPE   H2R19204   6.773   4.821   6.866 -0.5722 -0.7213  0.1703
  170SAPE   H2S19205   6.878   4.701   6.937 -2.4080  0.9248  1.0467
  170SAPE    C319206   7.114   4.995   6.517  0.0111 -0.2086 -0.2792
  170SAPE    HX19207   7.058   5.091   6.520  0.7634  0.2703 -0.9616
  170SAPE    HY19208   7.141   4.980   6.410  0.1085 -2.0501 -0.0183
  170SAPE   O3119209   7.235   4.996   6.589 -0.1599  0.1172 -0.4492
  170SAPE   C3119210   7.273   5.116   6.643  0.0589  0.1639 -0.0009
  170SAPE   O3219211   7.228   5.227   6.622  0.2973  0.6306 -0.1302
  170SAPE   C3219212   7.390   5.073   6.741  0.2165 -0.1837 -0.8888
  170SAPE   H2X19213   7.473   5.046   6.672 -0.5189 -2.6544 -0.8845
  170SAPE   H2Y19214   7.342   4.986   6.790 -0.8256 -0.8717 -2.9970
  170SAPE   C2319215   6.943   4.903   6.957 -0.1432 -0.6091 -0.1020
  170SAPE   H3R19216   6.966   4.997   6.902 -1.2761 -0.8666 -1.0649
  170SAPE   H3S19217   7.040   4.865   6.996 -0.4201 -0.0573  1.1645
  170SAPE   C2419218   6.858   4.938   7.077 -0.3001  0.1887  0.0426
  170SAPE   H4R19219   6.750   4.943   7.053 -1.2205 -2.1196  2.9613
  170SAPE   H4S19220   6.893   5.036   7.117 -0.6355  0.0947  0.5730
  170SAPE   C2519221   6.871   4.844   7.193  0.5903 -0.2269  0.0293
  170SAPE   H5R19222   6.977   4.823   7.213  0.4983  0.1626  0.9735
  170SAPE   C2619223   6.777   4.779   7.266 -0.2656  0.2071 -0.1909
  170SAPE   H6R19224   6.823   4.716   7.344  0.2909  0.3488 -0.4022
  170SAPE   C2719225   6.625   4.788   7.241 -1.0171  0.1873  0.3763
  170SAPE   H7R19226   6.608   4.837   7.143  0.8862  0.6665  0.2506
  170SAPE   H7S19227   6.586   4.861   7.316  0.8088 -0.2724  1.8409
  170SAPE   C2819228   6.555   4.654   7.252 -0.9772 -0.4202  0.5118
  170SAPE   H8R19229   6.537   4.607   7.154  1.6527  1.9363 -1.2498
  170SAPE   C2919230   6.521   4.590   7.367  0.1211 -0.8044  0.2099
  170SAPE   H9R19231   6.462   4.498   7.353 -0.6644 -0.4356  1.0593
  170SAPE  C21019232   6.537   4.636   7.509 -0.1841 -0.3665 -0.2961
  170SAPE  H10R19233   6.457   4.589   7.570  1.7699 -2.0562  1.1231
  170SAPE  H10S19234   6.519   4.745   7.500  0.9954 -0.0943  0.3806
  170SAPE  C21119235   6.671   4.605   7.573  0.1650 -0.0855 -0.0407
  170SAPE  H11R19236   6.743   4.548   7.512  0.5710  2.2364 -1.8888
  170SAPE  C21219237   6.699   4.636   7.701 -0.4012  0.0299  0.6869
  170SAPE  H12R19238   6.802   4.616   7.732 -0.8990  0.0333  2.4584
  170SAPE  C21319239   6.609   4.720   7.789 -0.1798  0.1865  0.2409
  170SAPE  H13R19240   6.650   4.717   7.892 -1.1098 -1.0368  0.5856
  170SAPE  H13S19241   6.501   4.696   7.776  0.0160 -1.8963  1.9825
  170SAPE  C21419242   6.614   4.867   7.743 -0.1305  0.4013 -0.7324
  170SAPE  H14R19243   6.653   4.888   7.642  0.1524 -0.6461 -0.8482
  170SAPE  C21519244   6.572   4.970   7.819  0.1135  0.2964 -0.2142
  170SAPE  H15R19245   6.583   5.071   7.776 -2.0044  0.8625  0.4514
  170SAPE  C21619246   6.502   4.963   7.957 -0.4224  0.7933  0.1734
  170SAPE  H16R19247   6.443   4.870   7.969  0.7227 -0.3743 -2.4177
  170SAPE  H16S19248   6.430   5.048   7.963  0.8644  1.9497 -0.2690
  170SAPE  C21719249   6.595   4.974   8.075  0.2890  0.1043 -0.2892
  170SAPE  H17R19250   6.637   5.077   8.066 -0.4891  0.4583  0.0227
  170SAPE  H17S19251   6.676   4.898   8.067  0.4596  0.4686 -3.0543
  170SAPE  C21819252   6.533   4.955   8.217 -0.0952  0.6290 -0.2908
  170SAPE  H18R19253   6.616   4.924   8.284 -0.2074 -1.4750 -1.0594
  170SAPE  H18S19254   6.466   4.866   8.214  1.8336 -0.9621  1.0068
  170SAPE  C21919255   6.454   5.081   8.263  0.5043  0.2335  0.5528
  170SAPE  H19R19256   6.399   5.045   8.353  1.9501 -4.3452 -0.1143
  170SAPE  H19S19257   6.382   5.121   8.189 -0.8081 -0.6113  1.3279
  170SAPE  C22019258   6.539   5.191   8.309 -0.3503 -0.4787  0.1867
  170SAPE  H20R19259   6.594   5.244   8.228 -1.2352 -0.0553 -0.1490
  170SAPE  H20S19260   6.611   5.160   8.388  1.4727  2.6317 -0.0799
  170SAPE  H20T19261   6.474   5.270   8.350 -1.5703  0.1820 -2.7400
  170SAPE   C3319262   7.430   5.178   6.842 -0.3388  1.0573 -0.2525
  170SAPE   H3X19263   7.444   5.277   6.792 -0.0331  1.2058  0.1215
  170SAPE   H3Y19264   7.529   5.135   6.867 -0.9629 -0.2331  0.0547
  170SAPE   C3419265   7.345   5.175   6.968 -0.0415 -0.0079 -0.3489
  170SAPE   H4X19266   7.349   5.069   7.002 -1.4597 -0.1503 -0.5760
  170SAPE   H4Y19267   7.238   5.191   6.945 -0.4028 -2.5457 -0.6878
  170SAPE   C3519268   7.386   5.272   7.076  0.0984  0.5969  0.0586
  170SAPE   H5X19269   7.364   5.370   7.029  0.6500 -0.6258 -2.9284
  170SAPE   H5Y19270   7.495   5.263   7.098  0.0933  1.7546  0.6571
  170SAPE   C3619271   7.309   5.262   7.207 -1.1949 -0.0216 -0.3827
  170SAPE   H6X19272   7.334   5.161   7.246 -1.4614  0.1104  0.1375
  170SAPE   H6Y19273   7.201   5.255   7.181 -0.9628 -1.0915 -1.1095
  170SAPE   C3719274   7.345   5.368   7.314  0.1195  0.0988 -0.6053
  170SAPE   H7X19275   7.319   5.466   7.269 -0.6463 -0.1155 -0.6487
  170SAPE   H7Y19276   7.453   5.368   7.336 -0.1176  0.7415  0.6381
  170SAPE   C3819277   7.278   5.346   7.454  0.4993  0.0630 -0.1573
  170SAPE   H8X19278   7.335   5.255   7.483  1.1593  0.6051  0.3116
  170SAPE   H8Y19279   7.174   5.310   7.447  0.4443 -0.8851  3.4279
  170SAPE   C3919280   7.310   5.456   7.559 -0.3018 -0.2269  0.4831
  170SAPE   H9X19281   7.259   5.549   7.526  0.2741 -0.3170 -0.6959
  170SAPE   H9Y19282   7.419   5.472   7.574 -0.4534 -0.1154  1.5584
  170SAPE  C31019283   7.241   5.427   7.694 -0.3399 -0.2619 -0.1525
  170SAPE  H10X19284   7.271   5.329   7.736  0.6065  0.6566  1.4044
  170SAPE  H10Y19285   7.132   5.411   7.681 -0.6098  1.6254 -0.5783
  170SAPE  C31119286   7.271   5.531   7.805 -0.0729 -0.0232  0.7270
  170SAPE  H11X19287   7.234   5.629   7.767 -3.2309 -1.0566  0.9209
  170SAPE  H11Y19288   7.382   5.536   7.805 -0.0223 -0.3193 -1.2431
  170SAPE  C31219289   7.204   5.502   7.937  0.2069 -0.7086 -0.3742
  170SAPE  H12X19290   7.238   5.402   7.970  2.8494 -0.0557 -0.8794
  170SAPE  H12Y19291   7.094   5.490   7.925  0.3984 -2.5834 -0.4563
  170SAPE  C31319292   7.229   5.613   8.045 -0.2777  0.1728 -0.4437
  170SAPE  H13X19293   7.147   5.688   8.045  0.3035  0.8505 -2.2415
  170SAPE  H13Y19294   7.320   5.675   8.041 -1.1206  1.4589 -0.2190
  170SAPE  C31419295   7.213   5.562   8.183 -0.0704  0.2472 -0.2394
  170SAPE  H14X19296   7.267   5.465   8.193 -0.7811 -0.3795 -1.9100
  170SAPE  H14Y19297   7.109   5.531   8.208  0.3235 -0.1358  1.0034
  170SAPE  C31519298   7.265   5.660   8.292 -0.5183 -0.5846  0.3530
  170SAPE  H15X19299   7.193   5.741   8.316 -0.8171 -0.8654  0.4192
  170SAPE  H15Y19300   7.361   5.703   8.257 -0.4840 -2.4342 -2.1241
  170SAPE  C31619301   7.292   5.593   8.432 -0.2088 -0.4603  0.4137
  170SAPE  H16X19302   7.372   5.516   8.432 -0.7917 -1.0977 -0.7202
  170SAPE  H16Y19303   7.202   5.532   8.449  0.4307 -1.2117  1.1676
  170SAPE  C31719304   7.319   5.690   8.549 -0.2983 -0.3074  0.1482
  170SAPE  H17X19305   7.254   5.780   8.549  1.7772  1.3073  2.4651
  170SAPE  H17Y19306   7.417   5.739   8.529 -0.2475  0.1272  1.3597
  170SAPE  C31819307   7.322   5.622   8.688  0.1661  0.7892  0.4090
  170SAPE  H18X19308   7.368   5.686   8.767 -0.2462  2.2084 -0.4555
  170SAPE  H18Y19309   7.381   5.528   8.677 -1.2945 -0.0189 -0.9505
  170SAPE  H18Z19310   7.217   5.592   8.707  0.8456 -1.8075  0.3802
  171SAPE     N19311   3.704   4.863   5.602  0.5988 -0.1963  0.0471
  171SAPE   HN119312   3.668   4.919   5.522 -0.7997 -0.1378  0.7061
  171SAPE   HN219313   3.775   4.912   5.660  0.6798 -0.6672  0.3486
  171SAPE   HN319314   3.737   4.775   5.557 -0.9271 -1.1659  0.7836
  171SAPE   C1219315   3.585   4.827   5.683  0.0435 -0.0138  0.0430
  171SAPE  H12A19316   3.514   4.768   5.620 -0.1292  0.7543 -0.4995
  171SAPE  H12B19317   3.534   4.919   5.718 -0.2887 -0.0538 -0.3144
  171SAPE   C1119318   3.632   4.746   5.809  0.3901  0.0000  0.6758
  171SAPE  H11A19319   3.659   4.647   5.767  0.3902  0.7726 -1.2326
  171SAPE  H11B19320   3.546   4.717   5.873 -1.4163 -1.1907 -2.1186
  171SAPE     P19321   3.762   4.762   6.039  0.0201 -0.0154 -0.1129
  171SAPE   O1319322   3.799   4.621   6.039 -0.8223 -0.3028 -0.5834
  171SAPE   O1419323   3.864   4.858   6.096 -0.7841  0.5751 -0.6391
  171SAPE   O1219324   3.740   4.806   5.882 -0.4066 -0.3747  0.4283
  171SAPE   O1119325   3.617   4.786   6.097 -0.6763  0.5860 -0.0881
  171SAPE    C119326   3.588   4.911   6.168 -0.2637 -0.8014 -0.9558
  171SAPE    HA19327   3.673   4.979   6.194 -0.1631 -1.4281  0.3978
  171SAPE    HB19328   3.527   4.973   6.099  0.8767  1.0207 -0.4159
  171SAPE    C219329   3.480   4.899   6.288  0.0838  0.1420  0.6184
  171SAPE    HS19330   3.471   4.990   6.350 -0.2351  0.7146 -0.2467
  171SAPE   O2119331   3.510   4.786   6.373 -0.5806 -0.7497 -0.8095
  171SAPE   C2119332   3.622   4.818   6.444 -0.0792  0.1268  0.4196
  171SAPE   O2219333   3.673   4.929   6.448  0.7791  0.0641 -0.2720
  171SAPE   C2219334   3.670   4.691   6.510 -1.1327  1.0353  0.3508
  171SAPE   H2R19335   3.621   4.695   6.609 -1.7978  0.5008  0.0575
  171SAPE   H2S19336   3.642   4.604   6.446 -0.5432 -0.1426  1.6315
  171SAPE    C319337   3.344   4.880   6.217 -0.2806  0.5311 -0.6162
  171SAPE    HX19338   3.354   4.792   6.150  0.1654 -0.0665  0.2179
  171SAPE    HY19339   3.320   4.967   6.153  2.4584  1.7782 -0.0835
  171SAPE   O3119340   3.245   4.839   6.309  1.0129  0.6165  0.2384
  171SAPE   C3119341   3.146   4.925   6.343 -0.0406 -0.3720  0.2775
  171SAPE   O3219342   3.142   5.037   6.295 -0.2425  0.0520  0.4387
  171SAPE   C3219343   3.047   4.857   6.443 -0.2713  0.8330  0.3015
  171SAPE   H2X19344   3.104   4.807   6.524 -0.2814 -2.8591 -1.7969
  171SAPE   H2Y19345   2.996   4.778   6.385 -0.4521  0.8812  0.3936
  171SAPE   C2319346   3.821   4.699   6.541 -0.2049  0.3872 -0.2735
  171SAPE   H3R19347   3.838   4.796   6.591 -2.0014 -0.4981  2.2271
  171SAPE   H3S19348   3.870   4.689   6.441  0.6153  2.1332 -0.0810
  171SAPE   C2419349   3.883   4.598   6.638  0.1138  0.2542  0.4431
  171SAPE   H4R19350   3.855   4.630   6.741  1.4046  0.6545  0.6973
  171SAPE   H4S19351   3.994   4.610   6.645  0.1462  0.3519 -0.1794
  171SAPE   C2519352   3.839   4.457   6.604  0.1224  0.3046 -0.4427
  171SAPE   H5R19353   3.736   4.433   6.576  0.4790 -5.0077  1.6967
  171SAPE   C2619354   3.911   4.347   6.623 -0.6482  0.0936  0.3826
  171SAPE   H6R19355   3.855   4.253   6.616 -0.1134 -0.2453  0.5431
  171SAPE   C2719356   4.057   4.336   6.681 -0.0376  0.2684 -0.4834
  171SAPE   H7R19357   4.097   4.437   6.704 -2.1244  0.7220  1.4686
  171SAPE   H7S19358   4.113   4.289   6.597  0.4693 -0.4450  0.2377
  171SAPE   C2819359   4.067   4.249   6.805 -0.6591 -0.0676 -0.4547
  171SAPE   H8R19360   4.131   4.159   6.806  0.8211  0.7947  3.6910
  171SAPE   C2919361   4.018   4.280   6.926  0.4203 -0.3441  0.6066
  171SAPE   H9R19362   4.043   4.214   7.011  1.0740 -1.5280 -0.4792
  171SAPE  C21019363   3.937   4.393   6.976 -0.6850 -0.0271  0.1351
  171SAPE  H10R19364   3.912   4.367   7.081  3.0718 -0.3153  1.1120
  171SAPE  H10S19365   3.838   4.406   6.928  0.5060 -2.1303 -3.2545
  171SAPE  C21119366   4.026   4.513   6.982  0.4216 -0.1831 -0.2862
  171SAPE  H11R19367   4.016   4.572   6.890 -0.2411  0.6270  0.2923
  171SAPE  C21219368   4.082   4.575   7.085  0.3967 -0.3787  0.0879
  171SAPE  H12R19369   4.149   4.658   7.061 -0.7060  0.9015  1.2912
  171SAPE  C21319370   4.081   4.525   7.226 -0.2396  0.0484  0.2855
  171SAPE  H13R19371   4.065   4.416   7.234  0.1697 -0.2087 -1.7638
  171SAPE  H13S19372   3.987   4.554   7.279 -0.8289 -0.6276 -0.3587
  171SAPE  C21419373   4.196   4.565   7.321 -0.7875  0.5836  0.3789
  171SAPE  H14R19374   4.263   4.639   7.275 -0.5090 -0.4433 -0.9635
  171SAPE  C21519375   4.230   4.523   7.442 -0.1801  0.2962 -0.1311
  171SAPE  H15R19376   4.313   4.571   7.495 -0.0513 -0.9827  0.8762
  171SAPE  C21619377   4.158   4.420   7.531  0.0523 -0.9051 -0.1490
  171SAPE  H16R19378   4.224   4.331   7.526 -0.0834 -0.9377 -3.4905
  171SAPE  H16S19379   4.059   4.386   7.493 -0.0728 -1.6336  0.7743
  171SAPE  C21719380   4.124   4.477   7.673 -0.1561  0.1233  0.4234
  171SAPE  H17R19381   4.219   4.507   7.722  0.1273 -0.0729 -0.0032
  171SAPE  H17S19382   4.073   4.398   7.733 -0.0202 -0.5253 -0.2993
  171SAPE  C21819383   4.029   4.603   7.667  0.2306 -0.1435 -0.0032
  171SAPE  H18R19384   3.942   4.588   7.600  0.2647 -0.9946  0.1328
  171SAPE  H18S19385   4.088   4.682   7.617 -0.4362 -0.2880 -1.0346
  171SAPE  C21919386   3.966   4.646   7.796 -0.7146  0.6792 -0.2474
  171SAPE  H19R19387   4.035   4.655   7.883 -1.2973 -1.2764  0.4849
  171SAPE  H19S19388   3.884   4.579   7.831  0.4453 -0.6409  0.0429
  171SAPE  C22019389   3.892   4.778   7.783  0.3672 -0.9927 -0.2964
  171SAPE  H20R19390   3.839   4.811   7.875  0.3151  1.7988 -1.2620
  171SAPE  H20S19391   3.817   4.783   7.702  1.5266 -2.1235 -1.5003
  171SAPE  H20T19392   3.960   4.864   7.769 -0.6719  0.1603  1.3827
  171SAPE   C3319393   2.941   4.965   6.495 -1.1765  0.0183  0.4010
  171SAPE   H3X19394   2.843   4.918   6.516 -1.3700  0.0460 -0.4057
  171SAPE   H3Y19395   2.921   5.038   6.413  1.7260 -0.0455 -0.5117
  171SAPE   C3419396   2.987   5.051   6.614  0.1918 -0.0553 -0.7439
  171SAPE   H4X19397   2.908   5.124   6.640 -1.2655 -2.4052  2.1519
  171SAPE   H4Y19398   3.082   5.106   6.596  1.0162  0.1816  3.2855
  171SAPE   C3519399   3.006   4.976   6.744  0.0185 -0.0835  1.0140
  171SAPE   H5X19400   3.079   4.892   6.737 -2.6129 -2.4609  0.0485
  171SAPE   H5Y19401   2.909   4.926   6.766 -0.4125  1.0543  1.7652
  171SAPE   C3619402   3.029   5.065   6.859 -0.3653 -0.4384  0.3992
  171SAPE   H6X19403   2.936   5.127   6.859  0.4732  0.9994  3.1071
  171SAPE   H6Y19404   3.110   5.139   6.839 -0.0890 -1.3388 -2.0500
  171SAPE   C3719405   3.048   5.003   6.996  0.0095 -0.5183  0.0671
  171SAPE   H7X19406   3.146   4.952   7.005  1.1632  1.7599  1.2825
  171SAPE   H7Y19407   2.963   4.931   7.005 -1.0613  0.8103  1.2638
  171SAPE   C3819408   3.014   5.109   7.103  0.0385  0.3166 -0.2352
  171SAPE   H8X19409   2.912   5.142   7.072 -0.1659 -0.9108 -0.9166
  171SAPE   H8Y19410   3.091   5.187   7.085  0.7105 -0.8781 -3.0997
  171SAPE   C3919411   3.018   5.038   7.244 -0.0805 -0.7704 -0.2955
  171SAPE   H9X19412   3.126   5.012   7.249  0.5510  1.5441 -0.3584
  171SAPE   H9Y19413   2.955   4.947   7.244 -1.0391 -0.1384  1.2185
  171SAPE  C31019414   2.986   5.132   7.366 -0.6506  0.0597 -0.8779
  171SAPE  H10X19415   2.877   5.147   7.352 -0.4248  1.0028 -1.8554
  171SAPE  H10Y19416   3.040   5.229   7.354  0.2962 -0.4282 -0.6670
  171SAPE  C31119417   3.022   5.070   7.511  0.2205  0.2811 -0.6256
  171SAPE  H11X19418   3.132   5.051   7.510  0.2957  0.6889 -0.5379
  171SAPE  H11Y19419   2.963   4.977   7.518  0.9109 -0.1565 -0.5325
  171SAPE  C31219420   2.976   5.156   7.635 -0.6015  0.6119 -0.0095
  171SAPE  H12X19421   2.872   5.187   7.610 -0.2065  1.2243 -0.9516
  171SAPE  H12Y19422   3.036   5.248   7.653 -3.1640  2.5199 -0.6859
  171SAPE  C31319423   2.981   5.064   7.752  0.0321 -0.2647 -0.2107
  171SAPE  H13X19424   3.072   5.098   7.806  0.5008 -0.7609 -0.6801
  171SAPE  H13Y19425   2.990   4.956   7.726  1.8159  0.2066 -1.7413
  171SAPE  C31419426   2.851   5.081   7.840 -1.2897  0.3703  0.6462
  171SAPE  H14X19427   2.766   5.080   7.768 -1.1215 -0.3009  0.4439
  171SAPE  H14Y19428   2.848   5.182   7.886 -2.3781  0.3590  0.6287
  171SAPE  C31519429   2.824   4.965   7.942  0.5069 -0.3451  0.0431
  171SAPE  H15X19430   2.918   4.943   7.997  0.5037 -0.3639  0.0407
  171SAPE  H15Y19431   2.801   4.874   7.883 -0.4036  0.9940 -1.7630
  171SAPE  C31619432   2.707   4.990   8.040 -0.0163 -0.5596 -0.6096
  171SAPE  H16X19433   2.717   5.066   8.120 -1.8521 -1.0651  0.1554
  171SAPE  H16Y19434   2.683   4.898   8.098  3.3831  0.3445  2.5823
  171SAPE  C31719435   2.579   5.026   7.960  0.2998 -0.1245  0.4369
  171SAPE  H17X19436   2.553   4.929   7.912  1.8223 -2.0040  3.1258
  171SAPE  H17Y19437   2.602   5.106   7.886 -1.6909 -1.8324 -2.2403
  171SAPE  C31819438   2.461   5.063   8.047 -0.1631  0.2677 -0.2303
  171SAPE  H18X19439   2.431   4.977   8.111 -0.7992  1.2234  0.7843
  171SAPE  H18Y19440   2.381   5.114   7.989 -0.2247  1.3315  0.7636
  171SAPE  H18Z19441   2.502   5.136   8.119  1.4191 -0.2517 -0.5548
  172SAPE     N19442   0.889   1.103   6.352  0.8697  0.5433  0.1333
  172SAPE   HN119443   0.825   1.102   6.270  0.7905 -0.4133  0.1949
  172SAPE   HN219444   0.987   1.079   6.325  0.0544 -3.1074 -0.0995
  172SAPE   HN319445   0.861   1.033   6.424 -0.1930 -0.1873 -0.9392
  172SAPE   C1219446   0.891   1.231   6.428  0.3416 -1.1964 -0.1016
  172SAPE  H12A19447   0.953   1.214   6.518  0.5361  0.2477  0.0641
  172SAPE  H12B19448   0.787   1.253   6.463  0.3088  0.1783 -0.9701
  172SAPE   C1119449   0.956   1.344   6.335 -0.0927  0.3814 -0.5289
  172SAPE  H11A19450   1.058   1.307   6.312  0.0760  0.5868 -0.1197
  172SAPE  H11B19451   0.983   1.433   6.395  3.2804 -0.7584 -0.1484
  172SAPE     P19452   0.753   1.482   6.246 -0.0621 -0.3199 -0.4112
  172SAPE   O1319453   0.785   1.620   6.191  0.5053  1.0334 -0.1614
  172SAPE   O1419454   0.628   1.422   6.207  0.1119  0.6936 -0.2856
  172SAPE   O1219455   0.872   1.386   6.223 -0.6754 -0.4141  0.1614
  172SAPE   O1119456   0.744   1.491   6.406 -0.1042  0.3217  0.2751
  172SAPE    C119457   0.629   1.535   6.469  0.1078 -0.6129 -0.3288
  172SAPE    HA19458   0.586   1.630   6.430  2.5021  1.3770  1.5743
  172SAPE    HB19459   0.552   1.455   6.471  0.2624 -0.7955  2.8823
  172SAPE    C219460   0.648   1.557   6.621  0.0016 -0.3896 -0.4462
  172SAPE    HS19461   0.683   1.661   6.637  1.7939 -1.2996  2.1907
  172SAPE   O2119462   0.750   1.469   6.683  0.9397 -0.1210 -0.0544
  172SAPE   C2119463   0.871   1.514   6.657  0.4354  0.1672  0.1559
  172SAPE   O2219464   0.899   1.616   6.595  0.1268 -0.3233 -0.6833
  172SAPE   C2219465   0.977   1.421   6.714 -0.3578 -0.8658  0.2391
  172SAPE   H2R19466   0.928   1.328   6.750  0.0628 -1.3396 -0.3963
  172SAPE   H2S19467   1.046   1.398   6.630 -1.7030  0.5515 -1.3245
  172SAPE    C319468   0.512   1.540   6.688 -0.3136  0.0275  0.3937
  172SAPE    HX19469   0.487   1.432   6.677 -0.8481  0.2807 -1.0369
  172SAPE    HY19470   0.443   1.592   6.618 -0.4761 -1.0112 -0.2441
  172SAPE   O3119471   0.507   1.594   6.820  0.8089 -0.2272 -0.1272
  172SAPE   C3119472   0.426   1.529   6.905  0.1610 -0.1269 -0.2485
  172SAPE   O3219473   0.352   1.436   6.874 -0.1731 -0.8204  0.1016
  172SAPE   C3219474   0.458   1.568   7.048 -0.2711 -0.1281 -0.5961
  172SAPE   H2X19475   0.422   1.671   7.066  0.2849  0.0759 -0.6179
  172SAPE   H2Y19476   0.569   1.572   7.056 -0.2289 -2.5503  1.1632
  172SAPE   C2319477   1.061   1.476   6.831 -1.0829 -0.3237  0.3418
  172SAPE   H3R19478   0.990   1.495   6.914 -2.4922  2.0877 -1.3035
  172SAPE   H3S19479   1.104   1.576   6.810 -2.3301  0.3718  1.0100
  172SAPE   C2419480   1.186   1.397   6.878  0.4436  0.2337  0.0305
  172SAPE   H4R19481   1.252   1.452   6.948 -1.3143  0.6439  1.4544
  172SAPE   H4S19482   1.250   1.374   6.790  1.4419  0.2919  0.7228
  172SAPE   C2519483   1.143   1.271   6.944  0.0841 -0.2674 -0.3095
  172SAPE   H5R19484   1.139   1.180   6.883  0.6665 -1.5955  1.5279
  172SAPE   C2619485   1.121   1.248   7.074  0.4389 -0.1842 -0.2195
  172SAPE   H6R19486   1.100   1.145   7.104 -1.9939  0.0916 -0.7715
  172SAPE   C2719487   1.125   1.348   7.189 -1.1376  0.1770  0.2906
  172SAPE   H7R19488   1.026   1.354   7.240 -1.5205 -2.0038 -0.1043
  172SAPE   H7S19489   1.154   1.450   7.153 -0.3297 -0.6763 -1.5890
  172SAPE   C2819490   1.231   1.324   7.299 -0.1979  0.3350  0.3474
  172SAPE   H8R19491   1.337   1.349   7.286  0.2679  0.6640  3.9318
  172SAPE   C2919492   1.208   1.258   7.415  0.5547  0.4206 -0.8288
  172SAPE   H9R19493   1.288   1.261   7.491  0.2743  4.4829 -0.4543
  172SAPE  C21019494   1.078   1.192   7.461  0.6395  0.2980  0.0983
  172SAPE  H10R19495   1.075   1.083   7.438 -0.5262  0.2202  0.5410
  172SAPE  H10S19496   0.987   1.242   7.421 -0.4347 -1.9166 -0.3771
  172SAPE  C21119497   1.062   1.204   7.611 -0.1742 -0.5531 -0.5213
  172SAPE  H11R19498   1.099   1.297   7.657 -2.2286  0.1053 -0.0868
  172SAPE  C21219499   1.014   1.107   7.693 -0.0813 -0.0557 -0.2277
  172SAPE  H12R19500   1.000   1.128   7.800 -0.8180  0.3523 -0.3981
  172SAPE  C21319501   0.950   0.973   7.649 -0.6254 -1.1179 -0.7185
  172SAPE  H13R19502   1.046   0.921   7.625  0.5635  0.1446  1.0509
  172SAPE  H13S19503   0.891   0.989   7.556 -0.6375  0.4489 -0.4604
  172SAPE  C21419504   0.890   0.885   7.745  0.0763  0.9365  0.1141
  172SAPE  H14R19505   0.942   0.876   7.841 -2.4324  0.1926  1.5022
  172SAPE  C21519506   0.773   0.826   7.725 -0.0936 -0.0959 -0.2951
  172SAPE  H15R19507   0.736   0.758   7.803  0.3317  0.5373  0.4751
  172SAPE  C21619508   0.672   0.829   7.618 -0.0949  0.7898 -0.7278
  172SAPE  H16R19509   0.659   0.722   7.590 -0.4649  0.1168  1.7692
  172SAPE  H16S19510   0.714   0.873   7.525 -0.1126  0.8500 -0.7072
  172SAPE  C21719511   0.545   0.903   7.647 -0.5840 -0.4507  0.6424
  172SAPE  H17R19512   0.490   0.897   7.551  3.6879 -0.3201 -2.0872
  172SAPE  H17S19513   0.563   1.009   7.673  1.5832  0.0659 -2.4949
  172SAPE  C21819514   0.456   0.842   7.753 -0.9121  0.1285 -0.2369
  172SAPE  H18R19515   0.485   0.892   7.848  2.6436  1.0607 -1.6374
  172SAPE  H18S19516   0.454   0.732   7.765 -0.4081  0.0883 -0.4928
  172SAPE  C21919517   0.306   0.873   7.720  0.3649  0.3225  0.2795
  172SAPE  H19R19518   0.308   0.979   7.687  1.1310 -0.8523 -3.9993
  172SAPE  H19S19519   0.250   0.859   7.815 -1.7533 -1.6778 -1.1477
  172SAPE  C22019520   0.240   0.785   7.610 -0.3950 -0.1987  0.4923
  172SAPE  H20R19521   0.231   0.677   7.633  0.5107 -0.0108  1.8243
  172SAPE  H20S19522   0.290   0.795   7.511 -2.3383 -1.2941 -0.6618
  172SAPE  H20T19523   0.139   0.828   7.596  0.3812  1.6600  0.2372
  172SAPE   C3319524   0.401   1.467   7.160  0.5614  0.3731  0.6629
  172SAPE   H3X19525   0.438   1.364   7.139 -2.8323 -1.5467  3.0996
  172SAPE   H3Y19526   0.291   1.455   7.162  0.6462 -0.9555 -0.5800
  172SAPE   C3419527   0.439   1.515   7.295 -0.4805 -0.5237  0.0614
  172SAPE   H4X19528   0.370   1.598   7.321  1.9410  0.7517  3.0717
  172SAPE   H4Y19529   0.547   1.538   7.296  0.1054 -2.4940 -3.4444
  172SAPE   C3519530   0.422   1.400   7.404 -0.1111  0.2597 -0.1921
  172SAPE   H5X19531   0.474   1.310   7.365 -1.2199 -0.7286  0.5176
  172SAPE   H5Y19532   0.315   1.373   7.419 -0.5728  0.8228 -2.1654
  172SAPE   C3619533   0.485   1.433   7.540  0.6081 -0.0649 -0.4736
  172SAPE   H6X19534   0.404   1.466   7.609  1.4869 -0.5699  0.8349
  172SAPE   H6Y19535   0.555   1.515   7.513  1.3048 -0.4827  0.0363
  172SAPE   C3719536   0.567   1.322   7.602 -0.1086 -0.4978 -0.3448
  172SAPE   H7X19537   0.657   1.308   7.538 -0.1344  0.7001 -0.6581
  172SAPE   H7Y19538   0.499   1.234   7.591 -2.2507  1.1502 -0.8036
  172SAPE   C3819539   0.600   1.347   7.751  0.9106  0.2581  0.0596
  172SAPE   H8X19540   0.506   1.362   7.809  1.2145 -0.5596  0.8012
  172SAPE   H8Y19541   0.657   1.441   7.762  0.5303  0.4934  0.0281
  172SAPE   C3919542   0.678   1.228   7.815  0.4837 -0.3298  0.0891
  172SAPE   H9X19543   0.784   1.258   7.825  0.3730  0.8820 -1.7531
  172SAPE   H9Y19544   0.698   1.151   7.737 -0.7703  2.0186 -2.7330
  172SAPE  C31019545   0.594   1.153   7.923  0.2147  0.1265  0.3141
  172SAPE  H10X19546   0.505   1.106   7.875  0.6071 -1.0066  0.6517
  172SAPE  H10Y19547   0.552   1.238   7.980 -0.2090 -0.2988  0.6434
  172SAPE  C31119548   0.645   1.060   8.025 -0.5749  0.2005  0.6353
  172SAPE  H11X19549   0.743   1.086   8.070 -1.1414  1.6760  1.0549
  172SAPE  H11Y19550   0.673   0.970   7.966 -0.6274  0.9199 -0.5084
  172SAPE  C31219551   0.556   1.021   8.142 -0.1095 -0.1577  0.0186
  172SAPE  H12X19552   0.448   1.016   8.117 -0.7182 -0.8837  2.5079
  172SAPE  H12Y19553   0.565   1.100   8.220 -1.7725 -2.2904  2.5445
  172SAPE  C31319554   0.603   0.894   8.207 -0.5296  0.3068  0.7375
  172SAPE  H13X19555   0.706   0.903   8.248  1.0769 -2.9574 -2.0428
  172SAPE  H13Y19556   0.605   0.815   8.128  0.6418 -1.4097  2.3840
  172SAPE  C31419557   0.511   0.849   8.323  0.1373  0.1482  0.7046
  172SAPE  H14X19558   0.523   0.925   8.403 -0.5338 -1.2938  2.2418
  172SAPE  H14Y19559   0.550   0.754   8.367  1.0022  0.2538  0.1762
  172SAPE  C31519560   0.367   0.823   8.276  0.3912  0.5450  0.4392
  172SAPE  H15X19561   0.314   0.915   8.244  0.1680 -0.1151 -1.1795
  172SAPE  H15Y19562   0.313   0.795   8.369 -2.3127  0.3140 -1.0915
  172SAPE  C31619563   0.346   0.721   8.170 -0.0534 -0.2102  0.5571
  172SAPE  H16X19564   0.394   0.630   8.214  1.5609  0.3616  0.0589
  172SAPE  H16Y19565   0.395   0.738   8.072 -0.8519  1.8532  0.4797
  172SAPE  C31719566   0.200   0.706   8.137  0.3724  0.0708  0.3984
  172SAPE  H17X19567   0.159   0.806   8.112 -0.0096  0.1172  1.1810
  172SAPE  H17Y19568   0.158   0.683   8.237 -1.6635  0.3653 -0.3402
  172SAPE  C31819569   0.161   0.621   8.010  0.5238  0.3509 -0.3241
  172SAPE  H18X19570   0.201   0.654   7.912 -1.1893  0.4152 -1.0363
  172SAPE  H18Y19571   0.051   0.632   8.007  0.4727 -0.3744 -1.4344
  172SAPE  H18Z19572   0.180   0.514   8.034 -1.2974  0.3182  1.2735
  173SOPE     N19573   3.944   3.791  10.688 -0.1453 -0.1071 -0.3456
  173SOPE   HN119574   3.869   3.831  10.627  2.4943  3.2523 -1.6862
  173SOPE   HN219575   4.029   3.808  10.632  1.5707  1.8661  2.5703
  173SOPE   HN319576   3.932   3.689  10.704  0.1882  0.0317  0.9116
  173SOPE   C1219577   3.953   3.860  10.822 -0.1701 -0.2391 -0.4296
  173SOPE  H12A19578   4.035   3.812  10.878 -0.8469  0.7942  1.5414
  173SOPE  H12B19579   3.861   3.851  10.884  0.3812 -0.4844  0.3647
  173SOPE   C1119580   3.994   4.007  10.807 -0.6636  0.2340 -0.5940
  173SOPE  H11A19581   3.994   4.058  10.906 -1.1947  0.4836 -0.7190
  173SOPE  H11B19582   3.916   4.059  10.748 -2.3116 -0.0059  1.2567
  173SOPE     P19583   4.178   4.150  10.697 -0.0317 -0.0964  0.1656
  173SOPE   O1319584   4.323   4.138  10.645  0.6723 -0.2600  0.4281
  173SOPE   O1419585   4.166   4.239  10.817 -0.4653 -0.5727 -0.0557
  173SOPE   O1219586   4.127   4.012  10.745  0.3589  0.2938  0.5889
  173SOPE   O1119587   4.076   4.186  10.582 -0.5569 -0.3873 -0.2142
  173SOPE    C119588   4.019   4.311  10.551  0.1231  0.0970 -0.0762
  173SOPE    HA19589   4.025   4.379  10.639 -1.2683 -0.4664  0.4821
  173SOPE    HB19590   3.916   4.279  10.525  0.3226  1.6332 -3.2183
  173SOPE    C219591   4.091   4.380  10.421  0.2032  0.0447 -0.4560
  173SOPE    HS19592   4.165   4.457  10.450 -1.3219  1.8794 -1.2594
  173SOPE   O2119593   3.984   4.426  10.337 -0.9169 -0.0023  0.1031
  173SOPE   C2119594   3.938   4.547  10.368 -0.2137  1.2062  0.5721
  173SOPE   O2219595   3.994   4.624  10.445 -0.5964 -0.4350 -0.2838
  173SOPE   C2219596   3.811   4.590  10.286 -0.0197 -0.0162 -0.5126
  173SOPE   H2R19597   3.763   4.656  10.360  0.8488 -1.1060  1.0883
  173SOPE   H2S19598   3.750   4.504  10.251  0.8679 -0.1720 -1.7911
  173SOPE    C319599   4.163   4.267  10.335  0.2774 -0.3935  0.6134
  173SOPE    HX19600   4.109   4.172  10.315 -0.1498 -0.1199  0.4403
  173SOPE    HY19601   4.247   4.237  10.402  0.5936  0.1421  0.4627
  173SOPE   O3119602   4.218   4.324  10.212 -1.0038 -0.7037 -0.0356
  173SOPE   C3119603   4.310   4.246  10.170 -0.5337 -0.1210  0.6544
  173SOPE   O3219604   4.327   4.126  10.203  0.8222 -0.1228 -0.0085
  173SOPE   C3219605   4.374   4.309  10.055  0.0296 -0.0033 -0.7703
  173SOPE   H2X19606   4.437   4.392  10.094 -1.7839  0.8749  0.4004
  173SOPE   H2Y19607   4.296   4.338   9.982 -1.1211 -1.1082 -0.0116
  173SOPE   C2319608   3.860   4.669  10.169  0.9529  0.0603  0.3737
  173SOPE   H3R19609   3.940   4.743  10.193 -0.1638  1.0055  1.3042
  173SOPE   H3S19610   3.773   4.719  10.121 -0.0964  0.6506  2.6938
  173SOPE   C2419611   3.914   4.572  10.066  0.2087 -0.4892 -0.9056
  173SOPE   H4R19612   4.002   4.511  10.097 -0.4278 -1.0226 -0.1262
  173SOPE   H4S19613   3.836   4.495  10.057  0.4302 -0.6857 -1.1693
  173SOPE   C2519614   3.933   4.639   9.932 -0.1933 -0.1461  0.1774
  173SOPE   H5R19615   3.838   4.687   9.898  1.0717  2.3627 -0.0524
  173SOPE   H5S19616   3.993   4.730   9.954 -0.0906 -0.2093  0.1584
  173SOPE   C2619617   4.012   4.556   9.831  0.0382  0.4495 -0.1013
  173SOPE   H6R19618   4.086   4.623   9.783 -0.4939  1.3525  0.3149
  173SOPE   H6S19619   4.067   4.484   9.895 -0.5883  1.5953  1.8130
  173SOPE   C2719620   3.942   4.479   9.722 -0.1508  0.1242  0.0090
  173SOPE   H7R19621   3.864   4.414   9.769 -0.4890 -0.2011 -0.9861
  173SOPE   H7S19622   3.892   4.549   9.653  0.4117 -1.5164 -2.1728
  173SOPE   C2819623   4.042   4.396   9.633  0.1291  0.2016 -0.6377
  173SOPE   H8R19624   4.104   4.337   9.704 -3.3400 -0.7943  1.8270
  173SOPE   H8S19625   3.982   4.315   9.588 -1.4275  1.1389 -0.3314
  173SOPE   C2919626   4.132   4.475   9.536  1.1111  0.3274 -0.1805
  173SOPE   H9119627   4.169   4.569   9.579 -2.4899  0.8678  2.1302
  173SOPE  C21019628   4.140   4.451   9.408  0.1596  0.0941 -0.7241
  173SOPE  H10119629   4.195   4.524   9.346  0.7222  0.0316 -0.3040
  173SOPE  C21119630   4.072   4.339   9.333  0.2806  0.4410 -0.6914
  173SOPE  H11R19631   3.964   4.324   9.356  0.5536  0.5735  0.7557
  173SOPE  H11S19632   4.121   4.241   9.353  0.0523  0.2718 -0.9520
  173SOPE  C21219633   4.090   4.367   9.192  0.0907 -0.4159 -0.3483
  173SOPE  H12R19634   4.066   4.274   9.136 -1.4356  0.4767 -1.2347
  173SOPE  H12S19635   4.195   4.389   9.162 -0.0222  0.2583 -0.2702
  173SOPE  C21319636   3.991   4.465   9.130  0.3669 -0.3230 -0.2186
  173SOPE  H13R19637   4.025   4.570   9.140  1.7719 -0.8486  0.8507
  173SOPE  H13S19638   3.898   4.461   9.191  1.6750  0.2412  1.9379
  173SOPE  C21419639   3.965   4.434   8.984 -0.3603 -0.1469  0.3870
  173SOPE  H14R19640   3.889   4.507   8.949 -2.2346 -0.7886  2.8722
  173SOPE  H14S19641   3.920   4.334   8.966  2.6501 -1.4981 -0.1453
  173SOPE  C21519642   4.098   4.442   8.903  0.4150  0.0783 -1.1108
  173SOPE  H15R19643   4.149   4.344   8.902 -1.8476 -1.1811  0.1443
  173SOPE  H15S19644   4.166   4.518   8.948 -1.0949  0.4397  0.6572
  173SOPE  C21619645   4.093   4.494   8.760  0.6927  0.0864  0.0650
  173SOPE  H16R19646   4.021   4.574   8.733  0.1376 -0.5152 -0.2557
  173SOPE  H16S19647   4.051   4.407   8.706  0.5317  0.2966 -0.1513
  173SOPE  C21719648   4.229   4.521   8.691 -0.7891 -0.1805 -0.1843
  173SOPE  H17R19649   4.262   4.613   8.744 -0.6705  1.0700 -2.3068
  173SOPE  H17S19650   4.216   4.545   8.583 -1.4387 -0.5454 -0.1938
  173SOPE  C21819651   4.347   4.419   8.715  0.6687 -0.0149  0.6162
  173SOPE  H18R19652   4.317   4.315   8.689  0.7987  0.0975  0.0152
  173SOPE  H18S19653   4.378   4.414   8.822 -0.3476  0.7313  0.9608
  173SOPE  H18T19654   4.443   4.443   8.664  1.4796 -0.9426  1.6350
  173SOPE   C3319655   4.466   4.207   9.994  0.2707  0.3175 -0.8084
  173SOPE   H3X19656   4.505   4.231   9.892  1.3685 -2.0311 -0.9979
  173SOPE   H3Y19657   4.424   4.106   9.977 -0.2536  0.3980 -0.0176
  173SOPE   C3419658   4.602   4.199  10.059  0.5241 -0.4161 -0.0552
  173SOPE   H4X19659   4.595   4.184  10.168  0.1055 -0.3610 -0.0734
  173SOPE   H4Y19660   4.658   4.294  10.053 -0.3519  0.0745 -0.7898
  173SOPE   C3519661   4.684   4.086   9.997 -0.6962  0.0859 -0.6589
  173SOPE   H5X19662   4.637   3.987  10.011 -0.1420 -0.1502 -0.4200
  173SOPE   H5Y19663   4.777   4.082  10.058 -0.3852  0.9260 -1.0659
  173SOPE   C3619664   4.744   4.102   9.861  0.7843  0.5673  0.4319
  173SOPE   H6X19665   4.660   4.072   9.794  2.4396 -0.4306 -1.2975
  173SOPE   H6Y19666   4.820   4.022   9.844 -0.4768 -0.3691 -1.1301
  173SOPE   C3719667   4.807   4.234   9.823  0.5356 -0.2220  0.7447
  173SOPE   H7X19668   4.894   4.247   9.891  0.0763 -0.0087  1.3034
  173SOPE   H7Y19669   4.732   4.315   9.839  0.8148  0.9904 -3.0279
  173SOPE   C3819670   4.856   4.243   9.677  0.4085 -0.0840  0.7818
  173SOPE   H8X19671   4.782   4.195   9.610  1.4853  0.8924 -1.2115
  173SOPE   H8Y19672   4.949   4.183   9.685 -0.4488 -1.4462  0.8095
  173SOPE   C3919673   4.883   4.389   9.623 -0.0329  0.5041  0.1689
  173SOPE   H9X19674   4.953   4.440   9.694  2.7079 -0.1026 -1.9260
  173SOPE   H9Y19675   4.788   4.446   9.623  0.4116  1.2581 -0.6049
  173SOPE  C31019676   4.942   4.410   9.480  0.0258  0.2425  0.2888
  173SOPE  H10X19677   5.040   4.359   9.482  0.7090  1.5150  1.7387
  173SOPE  H10Y19678   4.962   4.517   9.460 -1.1842  0.4892  0.2964
  173SOPE  C31119679   4.853   4.364   9.366 -0.1450 -0.8879  0.5143
  173SOPE  H11X19680   4.749   4.405   9.372 -0.1061 -0.7848  0.4764
  173SOPE  H11Y19681   4.854   4.253   9.372  0.0541 -0.9089  0.0738
  173SOPE  C31219682   4.913   4.392   9.225  0.2208 -0.3360 -0.2925
  173SOPE  H12X19683   4.871   4.322   9.149 -2.0239 -1.0810  1.5304
  173SOPE  H12Y19684   5.022   4.370   9.227  1.2743  3.4694 -3.3350
  173SOPE  C31319685   4.897   4.533   9.172  0.5090  0.6742  0.6336
  173SOPE  H13X19686   4.929   4.609   9.247 -0.5376 -0.6440  2.4865
  173SOPE  H13Y19687   4.788   4.545   9.158  0.3312 -1.6351 -0.4131
  173SOPE  C31419688   4.964   4.554   9.030 -0.1567  0.4084 -0.8443
  173SOPE  H14X19689   4.928   4.500   8.940 -0.5721 -0.3368 -0.2453
  173SOPE  H14Y19690   5.068   4.517   9.047 -0.6568 -1.3887 -1.3983
  173SOPE  C31519691   4.991   4.699   8.996  0.3367  0.5631 -0.7786
  173SOPE  H15X19692   5.029   4.760   9.081  1.0010 -0.6614 -0.1616
  173SOPE  H15Y19693   4.895   4.745   8.964 -1.0114 -1.6274 -0.1213
  173SOPE  C31619694   5.091   4.712   8.880 -0.7041  0.2287 -0.2661
  173SOPE  H16X19695   5.048   4.673   8.785  0.2983  1.7534 -1.4015
  173SOPE  H16Y19696   5.189   4.667   8.906 -1.9427 -1.2221  2.2717
  173SOPE  C31719697   5.106   4.863   8.856  0.3387  0.1122 -0.1834
  173SOPE  H17X19698   5.151   4.915   8.943  0.9801 -0.8359  0.0727
  173SOPE  H17Y19699   5.001   4.895   8.845  0.2043 -0.4893 -0.7226
  173SOPE  C31819700   5.200   4.890   8.740 -0.2244 -0.1899 -0.2840
  173SOPE  H18X19701   5.166   4.850   8.642 -1.4895 -2.8383  1.1420
  173SOPE  H18Y19702   5.297   4.841   8.763 -1.9638 -2.2201  3.6751
  173SOPE  H18Z19703   5.217   5.000   8.739  0.2280 -0.2274  1.1052
  174SOPE     N19704   3.771   1.829  10.806 -0.0535 -0.2195 -0.5143
  174SOPE   HN119705   3.767   1.904  10.733  2.3304  1.1045  0.5653
  174SOPE   HN219706   3.729   1.739  10.778  2.7303 -1.3375 -1.3989
  174SOPE   HN319707   3.717   1.867  10.887 -0.3706 -1.0785 -0.3143
  174SOPE   C1219708   3.919   1.813  10.825  0.4907 -0.4630 -0.7710
  174SOPE  H12A19709   3.933   1.732  10.899  0.5539 -1.6065 -1.9918
  174SOPE  H12B19710   3.946   1.910  10.873 -0.4386 -0.5502 -0.0479
  174SOPE   C1119711   3.978   1.783  10.684  0.3000 -0.7353 -0.5083
  174SOPE  H11A19712   4.088   1.790  10.694  0.3136  2.9822 -1.7162
  174SOPE  H11B19713   3.942   1.863  10.615  0.9060  0.4303  0.4738
  174SOPE     P19714   3.989   1.602  10.504  0.2690 -0.2098 -0.3301
  174SOPE   O1319715   3.913   1.477  10.480  0.1556 -0.5415  0.5829
  174SOPE   O1419716   4.135   1.589  10.503 -0.3369 -0.4047  0.7836
  174SOPE   O1219717   3.942   1.655  10.642 -0.3006  0.0494  0.0834
  174SOPE   O1119718   3.945   1.719  10.406 -0.0059  0.1334 -0.3692
  174SOPE    C119719   3.800   1.744  10.382 -0.1610 -0.0879  0.2621
  174SOPE    HA19720   3.754   1.819  10.451 -0.5378 -0.2267  0.1647
  174SOPE    HB19721   3.741   1.651  10.398 -0.9051 -0.4367 -3.5892
  174SOPE    C219722   3.780   1.796  10.234 -0.0625  0.0836 -0.1738
  174SOPE    HS19723   3.673   1.805  10.205 -0.3757 -0.2424  0.8413
  174SOPE   O2119724   3.847   1.708  10.142  0.1830 -0.2576 -0.4891
  174SOPE   C2119725   3.799   1.591  10.128  0.3933  0.6989 -0.5987
  174SOPE   O2219726   3.697   1.540  10.174  0.4988  0.5467 -0.8412
  174SOPE   C2219727   3.889   1.511  10.035  0.8056 -0.7622 -0.0080
  174SOPE   H2R19728   3.873   1.549   9.931 -0.7323 -1.2660  0.0089
  174SOPE   H2S19729   3.858   1.405  10.029  1.2193 -0.8096 -1.9185
  174SOPE    C319730   3.844   1.943  10.212 -0.3300  0.6569 -0.0226
  174SOPE    HX19731   3.947   1.940  10.253 -0.2983  1.3509 -0.0496
  174SOPE    HY19732   3.794   2.023  10.270 -1.6613  0.4690 -0.8584
  174SOPE   O3119733   3.845   1.977  10.073 -0.1881 -0.1330  0.5533
  174SOPE   C3119734   3.751   2.062  10.030  0.4750  0.4449  0.1287
  174SOPE   O3219735   3.648   2.087  10.093  0.2695  0.4160  0.3580
  174SOPE   C3219736   3.800   2.132   9.903  0.6630 -0.2361  0.5093
  174SOPE   H2X19737   3.905   2.102   9.879  0.0855 -0.8020 -1.5078
  174SOPE   H2Y19738   3.794   2.240   9.925  0.1072 -0.4731  1.5634
  174SOPE   C2319739   4.030   1.502  10.095  0.8491  0.1899  0.3836
  174SOPE   H3R19740   4.089   1.418  10.052 -0.0976  0.0861 -0.7686
  174SOPE   H3S19741   4.018   1.470  10.201  0.8952  1.3666  0.7598
  174SOPE   C2419742   4.113   1.626  10.064 -0.2277 -0.5782 -0.2016
  174SOPE   H4R19743   4.081   1.705  10.135  0.3364 -0.9885  0.5349
  174SOPE   H4S19744   4.219   1.600  10.085  0.7321  1.0003 -2.6678
  174SOPE   C2519745   4.112   1.689   9.919  0.8555  0.1193 -0.0290
  174SOPE   H5R19746   4.015   1.741   9.913  0.1680 -0.9781  1.0079
  174SOPE   H5S19747   4.186   1.772   9.913 -1.5442  2.3184 -0.5742
  174SOPE   C2619748   4.135   1.584   9.810  0.0810 -0.3325  0.1800
  174SOPE   H6R19749   4.233   1.533   9.815  1.0824  1.2400 -2.0524
  174SOPE   H6S19750   4.059   1.506   9.831  0.1856  0.0170  2.0293
  174SOPE   C2719751   4.122   1.649   9.671  0.5014 -0.0400  1.1780
  174SOPE   H7R19752   4.176   1.746   9.670  1.5758 -0.6211  1.4794
  174SOPE   H7S19753   4.173   1.593   9.590 -2.1750 -2.7442  1.1943
  174SOPE   C2819754   3.969   1.665   9.626 -0.3442 -0.8486  0.0724
  174SOPE   H8R19755   3.933   1.560   9.637  0.9690 -1.1888  1.5612
  174SOPE   H8S19756   3.907   1.711   9.707  0.9748  1.0638  0.0562
  174SOPE   C2919757   3.934   1.738   9.497  0.3552  0.3644  0.4169
  174SOPE   H9119758   3.943   1.847   9.493  1.6587  0.2239 -2.0701
  174SOPE  C21019759   3.883   1.680   9.389 -0.8961 -0.3798  0.1402
  174SOPE  H10119760   3.873   1.735   9.295  0.7882 -3.1733 -1.8449
  174SOPE  C21119761   3.843   1.536   9.369 -0.1555  0.1610  0.5253
  174SOPE  H11R19762   3.902   1.468   9.435  0.3870  1.1955  1.1277
  174SOPE  H11S19763   3.874   1.491   9.273 -1.2145 -1.7302  0.9974
  174SOPE  C21219764   3.699   1.498   9.393 -0.2329  0.2545  0.4343
  174SOPE  H12R19765   3.673   1.400   9.347  0.7173 -1.0245  2.5217
  174SOPE  H12S19766   3.641   1.575   9.337 -2.1597 -0.8188  0.8907
  174SOPE  C21319767   3.650   1.495   9.533 -0.1012 -0.0485  0.1618
  174SOPE  H13R19768   3.703   1.574   9.590 -2.2292  1.7176 -0.1677
  174SOPE  H13S19769   3.671   1.396   9.580  1.3230 -0.2191 -0.7926
  174SOPE  C21419770   3.497   1.523   9.542  0.6283  0.0358 -0.3767
  174SOPE  H14R19771   3.447   1.444   9.482  2.0178  0.6276 -2.4385
  174SOPE  H14S19772   3.477   1.618   9.489  3.4049  1.5140  1.0376
  174SOPE  C21519773   3.439   1.536   9.687  0.2490 -0.3269  0.5545
  174SOPE  H15R19774   3.448   1.437   9.735 -1.4682  0.1666  1.9860
  174SOPE  H15S19775   3.331   1.561   9.676  0.3051 -0.6582 -0.9833
  174SOPE  C21619776   3.508   1.634   9.788  0.2886  0.2125 -0.4940
  174SOPE  H16R19777   3.619   1.636   9.776  0.3758  0.2498  0.2636
  174SOPE  H16S19778   3.507   1.597   9.892  2.2964  0.8630 -0.1860
  174SOPE  C21719779   3.459   1.783   9.773 -0.5254  0.4696 -0.1016
  174SOPE  H17R19780   3.352   1.778   9.741  0.0436  0.0389 -2.0752
  174SOPE  H17S19781   3.514   1.835   9.691  0.0285 -0.0409 -0.0595
  174SOPE  C21819782   3.459   1.865   9.905  0.2670 -0.1905 -0.8750
  174SOPE  H18R19783   3.379   1.830   9.975  0.8832  0.4755  0.1811
  174SOPE  H18S19784   3.434   1.969   9.876 -0.3210 -0.2019 -0.4313
  174SOPE  H18T19785   3.558   1.866   9.954  0.6088 -1.2808 -1.5012
  174SOPE   C3319786   3.704   2.095   9.786  0.0750  1.0343  0.8079
  174SOPE   H3X19787   3.597   2.111   9.811 -0.4974  0.4207 -1.1393
  174SOPE   H3Y19788   3.705   1.985   9.770 -2.5882  0.7263  2.1025
  174SOPE   C3419789   3.757   2.149   9.653 -0.6538  0.0498 -0.2566
  174SOPE   H4X19790   3.868   2.153   9.647 -0.6740  0.9343 -0.1275
  174SOPE   H4Y19791   3.722   2.254   9.658 -1.0256 -0.1100  0.6457
  174SOPE   C3519792   3.703   2.065   9.537 -0.0123  0.9353 -0.1126
  174SOPE   H5X19793   3.593   2.069   9.529 -0.0143  1.4435  0.0801
  174SOPE   H5Y19794   3.740   1.962   9.557 -0.1210  0.6648 -1.2416
  174SOPE   C3619795   3.765   2.105   9.403 -0.1093 -0.0470  0.0021
  174SOPE   H6X19796   3.759   2.023   9.328  1.7416 -0.1236 -0.1284
  174SOPE   H6Y19797   3.874   2.123   9.419 -0.1878  2.4883 -1.7823
  174SOPE   C3719798   3.705   2.235   9.344 -0.5195 -0.3043 -0.1898
  174SOPE   H7X19799   3.694   2.322   9.412  2.0210 -0.6757  0.8026
  174SOPE   H7Y19800   3.602   2.217   9.305  0.3641  0.0678 -2.8828
  174SOPE   C3819801   3.781   2.285   9.219  0.4753 -0.2353  0.2878
  174SOPE   H8X19802   3.763   2.215   9.135 -2.6605 -0.6299  1.1707
  174SOPE   H8Y19803   3.886   2.284   9.257 -0.2947 -1.4775  2.5370
  174SOPE   C3919804   3.734   2.421   9.163 -0.1072 -0.1634  0.3564
  174SOPE   H9X19805   3.773   2.490   9.241  1.9795 -0.3559 -0.4343
  174SOPE   H9Y19806   3.624   2.426   9.152 -0.2746 -0.5428  1.6486
  174SOPE  C31019807   3.789   2.464   9.031 -0.0856  0.7318 -0.2046
  174SOPE  H10X19808   3.895   2.496   9.020  0.1447 -0.1961 -0.8140
  174SOPE  H10Y19809   3.732   2.559   9.022  1.7966  1.9806  0.5642
  174SOPE  C31119810   3.756   2.355   8.917 -0.1883  0.4594 -0.0885
  174SOPE  H11X19811   3.645   2.342   8.916 -0.2223  0.6360  0.5661
  174SOPE  H11Y19812   3.794   2.256   8.951 -0.3473  1.3398  2.8916
  174SOPE  C31219813   3.816   2.395   8.774 -0.1758 -0.3762 -0.0687
  174SOPE  H12X19814   3.806   2.301   8.717  1.0756 -0.5007 -0.1080
  174SOPE  H12Y19815   3.926   2.408   8.787 -0.3427  0.6158  0.4274
  174SOPE  C31319816   3.746   2.512   8.704 -0.3638  0.1620  0.3997
  174SOPE  H13X19817   3.765   2.607   8.759 -0.8499  0.6263 -0.2174
  174SOPE  H13Y19818   3.639   2.483   8.701 -0.8953  1.9749  0.3158
  174SOPE  C31419819   3.808   2.510   8.558 -0.1989 -0.5748  0.1079
  174SOPE  H14X19820   3.857   2.412   8.536  3.7540  1.4873 -1.2364
  174SOPE  H14Y19821   3.898   2.574   8.564  0.2281 -1.1033 -0.4882
  174SOPE  C31519822   3.700   2.543   8.458 -0.0717  0.2999 -0.2979
  174SOPE  H15X19823   3.653   2.638   8.491  0.2694 -0.7194  3.6265
  174SOPE  H15Y19824   3.625   2.462   8.450  2.6399 -2.2242 -2.4123
  174SOPE  C31619825   3.753   2.564   8.319 -0.4869 -0.0435  0.2044
  174SOPE  H16X19826   3.812   2.479   8.276 -0.0434  0.5099 -0.3016
  174SOPE  H16Y19827   3.821   2.652   8.325 -0.3384 -0.1717  0.4197
  174SOPE  C31719828   3.638   2.589   8.224 -0.4180  0.3194 -1.1019
  174SOPE  H17X19829   3.561   2.653   8.272 -1.9377 -1.3140 -1.2532
  174SOPE  H17Y19830   3.588   2.490   8.222 -0.9657  0.5612  0.0394
  174SOPE  C31819831   3.679   2.641   8.088 -0.5187  0.1651  0.3813
  174SOPE  H18X19832   3.597   2.618   8.017 -1.1633 -1.4006  1.5634
  174SOPE  H18Y19833   3.772   2.598   8.044 -1.6000 -0.2175 -1.6232
  174SOPE  H18Z19834   3.703   2.750   8.087 -0.4762  0.1528 -0.4171
  175SOPE     N19835   4.461   2.466  10.418 -0.3245 -0.3631  0.0253
  175SOPE   HN119836   4.549   2.483  10.365 -0.3392 -2.3735 -0.7258
  175SOPE   HN219837   4.425   2.376  10.382 -2.7014  1.3614 -2.2821
  175SOPE   HN319838   4.384   2.533  10.397 -0.0855  0.2982  1.1791
  175SOPE   C1219839   4.490   2.471  10.569 -0.7737  0.3006  0.5090
  175SOPE  H12A19840   4.581   2.410  10.588 -0.4028  0.8116  0.3917
  175SOPE  H12B19841   4.402   2.419  10.615 -0.4678 -1.2716 -0.6128
  175SOPE   C1119842   4.503   2.618  10.616  0.2343 -0.2699 -0.2177
  175SOPE  H11A19843   4.529   2.618  10.724 -0.7268  2.3873  0.0813
  175SOPE  H11B19844   4.404   2.669  10.619  0.5590  0.4541 -1.4229
  175SOPE     P19845   4.746   2.698  10.558 -0.1239 -0.5421  0.1875
  175SOPE   O1319846   4.803   2.561  10.534 -0.1490 -0.2066 -0.1869
  175SOPE   O1419847   4.775   2.762  10.691 -0.1719  0.1279  0.6107
  175SOPE   O1219848   4.595   2.693  10.543  0.1192  0.5711  0.4214
  175SOPE   O1119849   4.800   2.807  10.455 -0.4093 -0.2924  0.1943
  175SOPE    C119850   4.729   2.924  10.429 -0.2796 -0.2278 -0.3190
  175SOPE    HA19851   4.801   2.980  10.366  0.4337 -2.4548 -1.5805
  175SOPE    HB19852   4.714   2.988  10.519 -0.4268 -1.2184  0.3852
  175SOPE    C219853   4.612   2.917  10.327  0.2437  0.3045 -0.1214
  175SOPE    HS19854   4.533   2.867  10.389  1.3618 -0.5983  0.6140
  175SOPE   O2119855   4.654   2.848  10.208  0.5127 -0.1042  0.0006
  175SOPE   C2119856   4.565   2.773  10.145 -0.2671  0.5445 -0.7509
  175SOPE   O2219857   4.448   2.762  10.176  0.2868  0.8236 -0.0901
  175SOPE   C2219858   4.639   2.704  10.032  0.2838 -0.5047 -0.4740
  175SOPE   H2R19859   4.646   2.597  10.059  1.7465  0.1619  2.1963
  175SOPE   H2S19860   4.745   2.738  10.033  0.5858 -1.3553  1.6180
  175SOPE    C319861   4.566   3.064  10.289 -0.2528 -0.0912 -0.4135
  175SOPE    HX19862   4.656   3.117  10.250  0.1580 -0.3347  0.1744
  175SOPE    HY19863   4.533   3.104  10.387 -0.1351 -0.3478 -0.2670
  175SOPE   O3119864   4.466   3.074  10.194  0.3603 -0.2290 -0.4616
  175SOPE   C3119865   4.347   3.036  10.233  0.7335 -0.0081  0.7862
  175SOPE   O3219866   4.315   3.001  10.343  0.6244  0.1185 -0.3190
  175SOPE   C3219867   4.249   3.047  10.116  0.2377 -0.4052  0.6473
  175SOPE   H2X19868   4.309   2.993  10.040  0.7828 -0.5114  1.1421
  175SOPE   H2Y19869   4.234   3.155  10.094 -1.2329 -0.3924  1.5424
  175SOPE   C2319870   4.559   2.710   9.902  0.1965 -0.3428 -1.0481
  175SOPE   H3R19871   4.450   2.701   9.925  0.8336 -0.5137  2.4745
  175SOPE   H3S19872   4.586   2.622   9.839  0.9077 -0.3883 -0.6839
  175SOPE   C2419873   4.576   2.826   9.816  0.3694  0.3662  0.1143
  175SOPE   H4R19874   4.553   2.922   9.867  1.7728 -0.2684  2.0554
  175SOPE   H4S19875   4.681   2.837   9.781  0.2434 -1.4521 -0.9644
  175SOPE   C2519876   4.478   2.816   9.695  0.2399 -0.1184  0.8205
  175SOPE   H5R19877   4.484   2.708   9.671 -0.0173 -0.2850  1.4712
  175SOPE   H5S19878   4.377   2.849   9.726  0.3438  0.4925  0.5281
  175SOPE   C2619879   4.529   2.904   9.574  0.0990  0.1867 -0.2019
  175SOPE   H6R19880   4.640   2.902   9.568  0.0743  1.5155 -2.3292
  175SOPE   H6S19881   4.491   2.846   9.487  0.5062  0.9622 -0.9158
  175SOPE   C2719882   4.491   3.053   9.563  0.4272 -0.3705 -0.0586
  175SOPE   H7R19883   4.541   3.111   9.644  2.7798 -1.0648 -0.9211
  175SOPE   H7S19884   4.540   3.090   9.470  1.4018  1.5390  1.1534
  175SOPE   C2819885   4.341   3.088   9.551 -0.1508 -0.4225  0.1244
  175SOPE   H8R19886   4.283   3.049   9.637  1.0445 -0.1871  1.0733
  175SOPE   H8S19887   4.334   3.199   9.550  3.5228 -0.0495  0.9800
  175SOPE   C2919888   4.278   3.027   9.434 -0.7392 -0.6071 -0.0499
  175SOPE   H9119889   4.226   2.931   9.452  1.0986 -1.3910  1.4938
  175SOPE  C21019890   4.293   3.066   9.306 -0.7749 -0.7998  0.0547
  175SOPE  H10119891   4.245   3.009   9.225 -1.8128  0.1554 -0.0275
  175SOPE  C21119892   4.381   3.181   9.258  0.0522  0.2370 -0.2117
  175SOPE  H11R19893   4.411   3.238   9.348 -1.3588  0.3635  0.2045
  175SOPE  H11S19894   4.315   3.254   9.204 -0.1681  1.3033  1.4381
  175SOPE  C21219895   4.501   3.136   9.171  0.8057 -0.9586  0.0233
  175SOPE  H12R19896   4.571   3.088   9.242  2.5657 -0.9522 -1.6196
  175SOPE  H12S19897   4.554   3.222   9.123 -0.6801  0.0994  0.2082
  175SOPE  C21319898   4.471   3.039   9.060  0.0985  0.5994 -0.4737
  175SOPE  H13R19899   4.378   3.073   9.010 -2.2721 -2.1799  1.6979
  175SOPE  H13S19900   4.445   2.942   9.108  1.0105 -0.8660 -2.7549
  175SOPE  C21419901   4.591   3.016   8.965  0.0270 -0.2489 -0.1390
  175SOPE  H14R19902   4.622   3.105   8.906  2.0041 -0.3222  0.7248
  175SOPE  H14S19903   4.566   2.926   8.903 -2.7261  0.7564 -0.6540
  175SOPE  C21519904   4.710   2.975   9.047 -0.4169 -0.0845  0.3178
  175SOPE  H15R19905   4.704   2.874   9.092 -0.8719  0.1185  0.7219
  175SOPE  H15S19906   4.732   3.043   9.132  1.4615  0.5772 -0.6387
  175SOPE  C21619907   4.836   2.959   8.965 -0.2747 -0.7984  0.2822
  175SOPE  H16R19908   4.854   3.036   8.887  0.0235 -2.8233 -1.7452
  175SOPE  H16S19909   4.839   2.864   8.908  2.1009 -0.7039  0.1459
  175SOPE  C21719910   4.964   2.959   9.057  0.3156 -0.3352 -0.2833
  175SOPE  H17R19911   4.939   2.916   9.157 -0.3541 -0.3615 -0.4590
  175SOPE  H17S19912   4.991   3.065   9.073  0.0585 -0.3183  0.0800
  175SOPE  C21819913   5.081   2.867   8.997 -0.3494 -0.0203 -0.3056
  175SOPE  H18R19914   5.093   2.883   8.888 -0.2503  1.1306 -0.1362
  175SOPE  H18S19915   5.051   2.760   9.004 -1.7954  0.4544  1.6537
  175SOPE  H18T19916   5.173   2.909   9.043 -1.5185  1.3709  0.8758
  175SOPE   C3319917   4.113   2.974  10.129 -0.1394  1.4556 -0.0342
  175SOPE   H3X19918   4.068   3.014  10.223 -0.7194 -0.0902  0.3687
  175SOPE   H3Y19919   4.136   2.866  10.133  3.2108  1.8961 -2.9206
  175SOPE   C3419920   4.022   3.007  10.012 -0.8260 -0.6063 -0.3919
  175SOPE   H4X19921   3.999   3.115  10.023 -1.8909 -0.9263  0.8295
  175SOPE   H4Y19922   3.920   2.963  10.022 -0.6729 -0.5641  1.9022
  175SOPE   C3519923   4.090   2.995   9.877  0.5771 -0.6720  0.0804
  175SOPE   H5X19924   4.140   2.896   9.883  1.4216 -0.3240 -0.9159
  175SOPE   H5Y19925   4.165   3.076   9.862  1.6787 -1.7537 -0.4349
  175SOPE   C3619926   3.992   3.008   9.762 -0.7199  0.4367  0.1041
  175SOPE   H6X19927   3.913   2.930   9.768 -1.1806  0.9539  0.9639
  175SOPE   H6Y19928   4.058   2.983   9.676 -1.7369 -3.2366  0.2086
  175SOPE   C3719929   3.923   3.139   9.755  0.1585  0.1354 -0.0869
  175SOPE   H7X19930   3.980   3.227   9.794  0.6989 -0.3476  0.2308
  175SOPE   H7Y19931   3.825   3.134   9.806  0.1880  2.1946  0.2756
  175SOPE   C3819932   3.880   3.166   9.611 -0.6990 -0.2869 -0.1800
  175SOPE   H8X19933   3.780   3.213   9.620 -0.2844  0.7843 -0.9962
  175SOPE   H8Y19934   3.866   3.074   9.550  0.8728 -0.7141  0.0529
  175SOPE   C3919935   3.976   3.261   9.536 -0.0326  0.1848 -0.1956
  175SOPE   H9X19936   4.074   3.210   9.539  0.1124  0.3212  4.4905
  175SOPE   H9Y19937   3.989   3.347   9.605  0.0370  0.1580 -0.1760
  175SOPE  C31019938   3.924   3.300   9.396 -0.7623  0.7837 -0.0892
  175SOPE  H10X19939   3.825   3.348   9.409 -0.2553  1.8900 -0.1204
  175SOPE  H10Y19940   3.914   3.208   9.335 -1.4921  0.0701  1.0964
  175SOPE  C31119941   4.017   3.394   9.317  0.3133  0.3358  0.9643
  175SOPE  H11X19942   4.114   3.344   9.294  0.1264  0.5061 -0.2592
  175SOPE  H11Y19943   4.028   3.490   9.373  1.3875  0.2927  0.8576
  175SOPE  C31219944   3.951   3.446   9.179 -0.0168 -0.3318 -0.6809
  175SOPE  H12X19945   3.869   3.513   9.214  2.2496  1.5786  1.4020
  175SOPE  H12Y19946   3.907   3.350   9.147  0.7809 -1.1014  0.4353
  175SOPE  C31319947   4.040   3.505   9.074  0.0197  0.1438 -0.4446
  175SOPE  H13X19948   3.981   3.553   8.993 -1.2729 -0.0394  0.3557
  175SOPE  H13Y19949   4.109   3.437   9.020  1.5348  1.4362 -0.1816
  175SOPE  C31419950   4.122   3.615   9.131 -0.3961 -0.4760  0.7006
  175SOPE  H14X19951   4.192   3.635   9.047 -3.2994  1.5797 -1.4381
  175SOPE  H14Y19952   4.178   3.585   9.223 -0.1863  1.4761  1.2507
  175SOPE  C31519953   4.056   3.751   9.166  0.4915 -0.0731 -0.5165
  175SOPE  H15X19954   3.976   3.734   9.242  0.6696  1.9372  0.1660
  175SOPE  H15Y19955   4.020   3.801   9.074 -0.0340  1.7422  0.6064
  175SOPE  C31619956   4.152   3.844   9.244  0.1590 -0.6326  0.5081
  175SOPE  H16X19957   4.224   3.877   9.166 -1.0725  0.0807 -0.3810
  175SOPE  H16Y19958   4.221   3.788   9.310  1.4614 -0.1561 -0.4172
  175SOPE  C31719959   4.092   3.963   9.314 -0.0480  0.2111 -0.3840
  175SOPE  H17X19960   4.053   4.027   9.232 -2.3912  0.3152  0.7085
  175SOPE  H17Y19961   4.166   4.012   9.381 -0.7975 -1.5710  1.9415
  175SOPE  C31819962   3.976   3.933   9.404  0.0021 -0.1783 -0.0529
  175SOPE  H18X19963   3.885   3.907   9.345 -0.4435  0.1529  0.4823
  175SOPE  H18Y19964   3.951   4.018   9.471 -0.1990  2.3801 -3.1234
  175SOPE  H18Z19965   3.994   3.845   9.469  3.1341  0.6674  0.3990
  176SOPE     N19966   4.690   0.964  10.949  0.6137  0.2207 -0.2229
  176SOPE   HN119967   4.764   1.022  10.905  0.6971 -0.1259 -0.5439
  176SOPE   HN219968   4.616   1.026  10.988  0.6187 -1.7438  3.3940
  176SOPE   HN319969   4.720   0.923  11.040 -3.3448  0.6549  1.4923
  176SOPE   C1219970   4.628   0.864  10.861 -0.4809 -0.0271  0.5061
  176SOPE  H12A19971   4.590   0.913  10.769 -0.0285  1.0019  0.8453
  176SOPE  H12B19972   4.552   0.813  10.925  1.1235  0.9507  3.4133
  176SOPE   C1119973   4.732   0.758  10.814  0.0237 -0.1137 -0.0819
  176SOPE  H11A19974   4.683   0.678  10.754 -0.5461  0.4298 -0.3500
  176SOPE  H11B19975   4.760   0.700  10.905  0.3207 -1.7751 -1.1995
  176SOPE     P19976   4.856   0.838  10.597  0.1109 -0.2635 -0.5640
  176SOPE   O1319977   4.974   0.926  10.571 -0.0809  0.0101 -0.4166
  176SOPE   O1419978   4.727   0.875  10.542  0.6840  0.1381  0.4322
  176SOPE   O1219979   4.842   0.815  10.749 -0.4194  0.0725 -0.0494
  176SOPE   O1119980   4.899   0.695  10.545 -0.1250  0.0529  0.0690
  176SOPE    C119981   4.812   0.600  10.475 -0.3196  0.0432  0.5795
  176SOPE    HA19982   4.707   0.596  10.512 -1.3589  0.1356 -2.1114
  176SOPE    HB19983   4.851   0.499  10.495  0.9630  0.3722 -0.1520
  176SOPE    C219984   4.800   0.618  10.317  0.0661  0.1299 -0.1834
  176SOPE    HS19985   4.730   0.540  10.282  0.2037  0.8062 -2.1191
  176SOPE   O2119986   4.930   0.607  10.253  0.4815 -0.0814 -0.0731
  176SOPE   C2119987   4.965   0.489  10.230  0.3502 -0.2685 -0.2538
  176SOPE   O2219988   4.906   0.386  10.259  0.6872  0.2488 -0.4845
  176SOPE   C2219989   5.094   0.485  10.142  0.6724  0.3454  0.4545
  176SOPE   H2R19990   5.178   0.498  10.214  0.6159  0.8573  0.4282
  176SOPE   H2S19991   5.099   0.569  10.069 -0.0023 -1.4898 -1.8306
  176SOPE    C319992   4.743   0.751  10.270 -0.4452 -0.2502 -0.7226
  176SOPE    HX19993   4.815   0.834  10.283 -2.5599  1.6073 -0.1734
  176SOPE    HY19994   4.656   0.781  10.333  1.5588  2.6038  0.8909
  176SOPE   O3119995   4.710   0.742  10.133 -0.0622 -0.4077  0.5393
  176SOPE   C3119996   4.591   0.694  10.104 -0.3101 -0.2909 -0.1332
  176SOPE   O3219997   4.521   0.638  10.182 -0.6721  0.1890 -0.2676
  176SOPE   C3219998   4.546   0.728   9.961  0.0126  0.0150 -0.3067
  176SOPE   H2X19999   4.637   0.705   9.902 -0.1211 -0.1256 -0.4580
  176SOPE   H2Y20000   4.523   0.837   9.962 -1.2747 -0.2275 -1.2099
  176SOPE   C2320001   5.123   0.348  10.068  0.5288 -0.1840 -1.2254
  176SOPE   H3R20002   5.045   0.340   9.989  0.7049 -0.6557 -1.3563
  176SOPE   H3S20003   5.096   0.266  10.139 -0.2417 -0.1091 -1.4179
  176SOPE   C2420004   5.266   0.332  10.031 -0.7168  0.0484  0.2351
  176SOPE   H4R20005   5.332   0.340  10.120  2.1038 -1.3692 -1.5788
  176SOPE   H4S20006   5.276   0.225  10.005 -1.3180 -0.7904  3.1942
  176SOPE   C2520007   5.304   0.421   9.906  0.3315  0.0377 -0.4878
  176SOPE   H5R20008   5.223   0.401   9.833  1.1441 -2.0826 -0.8579
  176SOPE   H5S20009   5.322   0.525   9.941  1.7470 -1.3193  3.3165
  176SOPE   C2620010   5.433   0.364   9.833 -0.1346  0.1991 -0.3248
  176SOPE   H6R20011   5.511   0.359   9.912  0.3223 -1.7140 -0.8446
  176SOPE   H6S20012   5.429   0.262   9.789 -0.2066  1.1765 -2.7859
  176SOPE   C2720013   5.470   0.463   9.727 -0.5960 -0.2803 -0.0626
  176SOPE   H7R20014   5.391   0.466   9.650 -1.2906  3.7413  0.6177
  176SOPE   H7S20015   5.465   0.566   9.767  1.1229  0.1383 -0.8102
  176SOPE   C2820016   5.614   0.440   9.680 -0.1307  0.5735 -0.0118
  176SOPE   H8R20017   5.685   0.387   9.746 -0.7388 -1.1198 -0.6706
  176SOPE   H8S20018   5.610   0.386   9.583  2.4191 -2.7021  1.5031
  176SOPE   C2920019   5.676   0.574   9.657 -0.0173  0.0546  0.7162
  176SOPE   H9120020   5.712   0.627   9.746  1.4781  2.1626 -1.0347
  176SOPE  C21020021   5.706   0.639   9.536  0.1444 -0.3137 -0.7843
  176SOPE  H10120022   5.736   0.745   9.539 -0.5840 -0.1093  1.4401
  176SOPE  C21120023   5.680   0.592   9.396  0.4979 -0.1490  0.5493
  176SOPE  H11R20024   5.670   0.678   9.326  0.6227  0.2772  1.0540
  176SOPE  H11S20025   5.587   0.533   9.382  0.3742  0.2886 -0.5814
  176SOPE  C21220026   5.790   0.494   9.347 -0.3311 -0.6248  0.6188
  176SOPE  H12R20027   5.774   0.414   9.423  0.0194 -1.3131 -0.0166
  176SOPE  H12S20028   5.888   0.544   9.362 -0.0982  0.0075 -2.4262
  176SOPE  C21320029   5.762   0.458   9.204 -0.1821  0.3889 -0.4257
  176SOPE  H13R20030   5.771   0.551   9.143  1.0459  0.9706  0.5996
  176SOPE  H13S20031   5.660   0.420   9.186  0.1918 -0.0102 -1.7987
  176SOPE  C21420032   5.874   0.360   9.144  0.2729 -0.0108  0.3780
  176SOPE  H14R20033   5.880   0.264   9.201  1.0779  0.2422  0.7273
  176SOPE  H14S20034   5.977   0.400   9.133  0.3337 -0.3389 -0.3026
  176SOPE  C21520035   5.831   0.315   8.998 -0.0027  0.3941  0.1308
  176SOPE  H15R20036   5.729   0.276   9.012  0.3656 -0.1000  1.6202
  176SOPE  H15S20037   5.893   0.226   8.973 -0.1055  0.0302  1.1463
  176SOPE  C21620038   5.833   0.410   8.876 -0.4975 -0.0270  0.1335
  176SOPE  H16R20039   5.726   0.441   8.871 -0.5765 -0.3743 -0.5051
  176SOPE  H16S20040   5.838   0.343   8.787  1.8257  0.2326  0.0120
  176SOPE  C21720041   5.941   0.516   8.860  0.3469 -0.0539 -0.4480
  176SOPE  H17R20042   6.035   0.457   8.868 -0.6355 -2.0965 -2.6704
  176SOPE  H17S20043   5.936   0.587   8.945 -0.2298  0.2364 -0.7190
  176SOPE  C21820044   5.924   0.603   8.740  0.8206 -0.3184 -0.1416
  176SOPE  H18R20045   5.860   0.692   8.758  0.3346 -1.0252  2.0144
  176SOPE  H18S20046   5.896   0.534   8.658 -2.7303  0.2263  0.4226
  176SOPE  H18T20047   6.023   0.649   8.720  0.3713  0.8442  0.2334
  176SOPE   C3320048   4.431   0.648   9.899 -0.0120 -0.1935  0.5302
  176SOPE   H3X20049   4.339   0.660   9.959 -0.3502 -0.5580  0.0887
  176SOPE   H3Y20050   4.464   0.542   9.909  3.3128  0.5605 -0.9951
  176SOPE   C3420051   4.399   0.683   9.749  0.5295  0.1400 -0.4756
  176SOPE   H4X20052   4.478   0.648   9.679  1.9925 -1.5453  1.8679
  176SOPE   H4Y20053   4.414   0.793   9.752 -0.9874  0.4090 -1.6744
  176SOPE   C3520054   4.265   0.640   9.695  0.7604  0.0459 -0.3631
  176SOPE   H5X20055   4.183   0.676   9.760  1.2314  1.8909 -0.7358
  176SOPE   H5Y20056   4.263   0.528   9.696  0.3022  0.0544  0.0176
  176SOPE   C3620057   4.233   0.687   9.551  0.1326  0.3122  0.8137
  176SOPE   H6X20058   4.271   0.790   9.535 -2.4881  1.0873 -1.1723
  176SOPE   H6Y20059   4.122   0.690   9.547  0.0644 -1.1677  1.0694
  176SOPE   C3720060   4.287   0.594   9.443  0.5890  0.1197 -0.7589
  176SOPE   H7X20061   4.214   0.510   9.441  0.4347  0.1483  1.3568
  176SOPE   H7Y20062   4.386   0.553   9.472 -0.1755 -1.1524  0.1412
  176SOPE   C3820063   4.291   0.672   9.315  0.1638  0.4936 -0.0777
  176SOPE   H8X20064   4.202   0.738   9.303  1.5118  2.3852 -0.0364
  176SOPE   H8Y20065   4.298   0.595   9.235 -1.8990 -0.3550  0.4692
  176SOPE   C3920066   4.417   0.753   9.304  0.8419 -0.1169 -0.8517
  176SOPE   H9X20067   4.507   0.690   9.318  0.3022 -0.9596 -1.1444
  176SOPE   H9Y20068   4.412   0.827   9.387  1.7290 -0.7809 -0.1925
  176SOPE  C31020069   4.440   0.831   9.173  0.8568 -0.2925 -0.2356
  176SOPE  H10X20070   4.463   0.767   9.086 -3.0053  0.6948 -2.2091
  176SOPE  H10Y20071   4.523   0.903   9.189 -0.3655  1.0951  0.1522
  176SOPE  C31120072   4.326   0.923   9.136 -0.1351  0.0331 -0.4597
  176SOPE  H11X20073   4.303   0.981   9.228  1.7998  0.2201 -0.0677
  176SOPE  H11Y20074   4.233   0.866   9.112 -0.3456  0.2760 -0.2293
  176SOPE  C31220075   4.350   1.031   9.027  0.3111  0.5820 -0.8115
  176SOPE  H12X20076   4.251   1.074   9.000  0.3328  1.6504  0.7066
  176SOPE  H12Y20077   4.396   0.987   8.936  3.0039  1.6465 -0.0566
  176SOPE  C31320078   4.437   1.138   9.084 -0.4847 -0.6674 -0.4260
  176SOPE  H13X20079   4.540   1.097   9.093 -0.5936 -0.5008  3.0658
  176SOPE  H13Y20080   4.410   1.167   9.188 -1.8464 -0.7139 -0.7452
  176SOPE  C31420081   4.447   1.271   8.998  0.1724  0.6801  0.4170
  176SOPE  H14X20082   4.348   1.315   8.975  0.2440 -0.3260 -2.1112
  176SOPE  H14Y20083   4.486   1.238   8.899 -0.3015 -1.8532  1.0249
  176SOPE  C31520084   4.534   1.376   9.070 -0.3465 -0.2320  0.3150
  176SOPE  H15X20085   4.559   1.456   8.997 -1.8681  0.9317  1.0206
  176SOPE  H15Y20086   4.632   1.328   9.094 -0.0664  0.8525  1.4691
  176SOPE  C31620087   4.475   1.437   9.197  0.1642  0.3808 -0.6712
  176SOPE  H16X20088   4.548   1.495   9.258 -0.3838  1.5950 -1.1236
  176SOPE  H16Y20089   4.449   1.356   9.269 -0.5257  0.0581 -1.2666
  176SOPE  C31720090   4.356   1.513   9.169  0.6700  0.0869 -0.0144
  176SOPE  H17X20091   4.276   1.464   9.109 -1.3035  0.4368  2.1555
  176SOPE  H17Y20092   4.375   1.601   9.104 -0.9313 -1.7598 -3.2160
  176SOPE  C31820093   4.286   1.569   9.296 -0.5725  0.1566  0.4631
  176SOPE  H18X20094   4.290   1.486   9.370  0.3398 -0.8505 -0.6707
  176SOPE  H18Y20095   4.177   1.585   9.284 -0.7687 -1.8037 -0.8167
  176SOPE  H18Z20096   4.348   1.650   9.339 -0.9297  0.9195 -0.4172
  177SOPE     N20097   3.552   6.770  10.736 -0.1163 -0.3290  0.1748
  177SOPE   HN120098   3.580   6.869  10.755  0.6832 -0.9372  2.4585
  177SOPE   HN220099   3.640   6.721  10.763  1.8221  2.3407 -0.8396
  177SOPE   HN320100   3.532   6.758  10.635 -2.2245 -0.8401  0.6090
  177SOPE   C1220101   3.431   6.737  10.818  0.0591 -0.1158  0.0990
  177SOPE  H12A20102   3.359   6.814  10.784  0.0198 -0.8833 -1.6939
  177SOPE  H12B20103   3.446   6.740  10.928 -4.4236  0.5377  0.8509
  177SOPE   C1120104   3.379   6.602  10.751  0.1322  1.3973 -0.2575
  177SOPE  H11A20105   3.364   6.602  10.641  0.6071  1.3456 -0.3213
  177SOPE  H11B20106   3.275   6.590  10.790  0.3909  0.5360  0.1850
  177SOPE     P20107   3.391   6.344  10.778  0.1409  0.6891  0.1165
  177SOPE   O1320108   3.284   6.348  10.882  0.3833 -0.0310  0.2270
  177SOPE   O1420109   3.492   6.232  10.784  0.3154 -0.1651 -0.5146
  177SOPE   O1220110   3.464   6.488  10.779  0.3647  0.3747  0.3422
  177SOPE   O1120111   3.320   6.354  10.633 -0.2267 -0.0027  0.2334
  177SOPE    C120112   3.407   6.348  10.521 -0.1123 -0.1013 -0.6732
  177SOPE    HA20113   3.467   6.255  10.518  0.2026 -0.1469  2.9096
  177SOPE    HB20114   3.478   6.433  10.512  0.8735 -0.0564  4.5006
  177SOPE    C220115   3.311   6.346  10.399  0.2143  0.0883 -0.0793
  177SOPE    HS20116   3.371   6.350  10.306 -1.9937 -0.9449 -1.6300
  177SOPE   O2120117   3.217   6.455  10.395 -0.8715 -0.6818 -0.1282
  177SOPE   C2120118   3.255   6.575  10.366 -0.2069  0.4591  0.2044
  177SOPE   O2220119   3.371   6.610  10.343 -0.3224 -0.5991  0.0096
  177SOPE   C2220120   3.133   6.674  10.350 -0.0411  0.0923  0.1680
  177SOPE   H2R20121   3.146   6.742  10.437 -0.0472 -0.3404  0.5118
  177SOPE   H2S20122   3.034   6.629  10.373 -0.4555  0.8461 -0.1017
  177SOPE    C320123   3.235   6.211  10.393  0.6888  0.1927  0.4635
  177SOPE    HX20124   3.188   6.194  10.493  0.7748  0.7105  0.5981
  177SOPE    HY20125   3.316   6.137  10.377  0.0920 -0.4818  0.5401
  177SOPE   O3120126   3.138   6.206  10.285  0.3119 -0.3983 -0.2044
  177SOPE   C3120127   3.013   6.233  10.310 -0.1962 -0.1424 -0.2127
  177SOPE   O3220128   2.970   6.258  10.423  0.5709 -0.5404 -0.0886
  177SOPE   C3220129   2.922   6.210  10.188  0.0154  0.0974 -0.0291
  177SOPE   H2X20130   2.900   6.101  10.196  0.2542  0.1564  1.8772
  177SOPE   H2Y20131   2.988   6.224  10.100  0.9442 -0.6155  0.5351
  177SOPE   C2320132   3.114   6.746  10.214 -0.2305 -1.1861  0.5573
  177SOPE   H3R20133   3.211   6.799  10.212 -1.1109  0.4579 -1.6682
  177SOPE   H3S20134   3.041   6.828  10.230  3.2047  2.1888  0.3547
  177SOPE   C2420135   3.086   6.670  10.087  0.5382 -0.0955  0.8346
  177SOPE   H4R20136   3.181   6.613  10.077  1.0646  1.0413 -0.8772
  177SOPE   H4S20137   3.001   6.599  10.102 -0.5009  0.6415 -1.2472
  177SOPE   C2520138   3.063   6.762   9.968 -0.0299 -0.9260  0.2039
  177SOPE   H5R20139   2.964   6.812   9.969  0.3930 -0.0086 -1.0104
  177SOPE   H5S20140   3.143   6.840   9.961 -0.0826 -0.9368 -0.6309
  177SOPE   C2620141   3.077   6.666   9.842  0.3242 -0.1417 -0.6247
  177SOPE   H6R20142   3.177   6.618   9.850  0.5381  0.5499  2.1339
  177SOPE   H6S20143   2.996   6.590   9.847 -0.0228  0.2748  0.7104
  177SOPE   C2720144   3.054   6.743   9.716  0.6661  0.2017 -0.0980
  177SOPE   H7R20145   2.960   6.801   9.704  1.1592  0.7310 -1.7456
  177SOPE   H7S20146   3.127   6.822   9.688 -1.6384  1.8389 -1.8705
  177SOPE   C2820147   3.058   6.637   9.595  0.7094 -1.0444  0.1853
  177SOPE   H8R20148   3.140   6.567   9.623  0.3096 -1.9011 -0.7285
  177SOPE   H8S20149   2.969   6.571   9.584  0.9449 -1.0875 -2.0084
  177SOPE   C2920150   3.086   6.700   9.451 -0.5740  0.5719  0.0694
  177SOPE   H9120151   3.008   6.763   9.405 -1.2671 -1.8500 -2.3523
  177SOPE  C21020152   3.190   6.662   9.370 -0.3205 -0.2491  0.2710
  177SOPE  H10120153   3.194   6.702   9.267 -2.2660 -2.3359 -0.7131
  177SOPE  C21120154   3.302   6.571   9.393 -0.4996  0.4520 -0.1018
  177SOPE  H11R20155   3.258   6.488   9.452 -2.2856  0.8837 -0.7653
  177SOPE  H11S20156   3.386   6.621   9.447 -1.1185  0.2262  1.0981
  177SOPE  C21220157   3.360   6.502   9.271 -0.0993 -0.4967  0.6314
  177SOPE  H12R20158   3.297   6.439   9.205  3.1182 -1.1196 -2.1543
  177SOPE  H12S20159   3.433   6.424   9.302 -0.3385  0.0112  2.5716
  177SOPE  C21320160   3.428   6.599   9.170  0.1458  0.0347 -0.7228
  177SOPE  H13R20161   3.500   6.649   9.238 -0.3096 -1.3179  0.8200
  177SOPE  H13S20162   3.347   6.669   9.140 -2.7132 -2.2775  1.1264
  177SOPE  C21420163   3.500   6.522   9.056 -0.1345 -0.5309 -0.4974
  177SOPE  H14R20164   3.564   6.450   9.110 -0.7562 -0.5476  0.2402
  177SOPE  H14S20165   3.579   6.579   9.002 -0.1910 -1.2938 -1.4009
  177SOPE  C21520166   3.403   6.459   8.951 -0.7059  0.0357  0.2078
  177SOPE  H15R20167   3.361   6.368   8.999  1.2010 -0.7539  0.4804
  177SOPE  H15S20168   3.461   6.428   8.861  1.2096  3.6720 -0.0108
  177SOPE  C21620169   3.288   6.541   8.895  0.0115  0.2963 -0.7720
  177SOPE  H16R20170   3.332   6.627   8.839  0.1769  0.1672 -0.8404
  177SOPE  H16S20171   3.219   6.575   8.975 -0.5501  0.7019 -1.4102
  177SOPE  C21720172   3.199   6.460   8.791 -0.7674  0.5740  0.0133
  177SOPE  H17R20173   3.165   6.370   8.846 -1.0214  1.3044  1.1087
  177SOPE  H17S20174   3.264   6.438   8.705  0.9028 -0.7293  1.5433
  177SOPE  C21820175   3.085   6.537   8.731  0.3738 -0.8776  0.3590
  177SOPE  H18R20176   3.017   6.573   8.811  1.2900  0.0188  0.7481
  177SOPE  H18S20177   3.028   6.472   8.660 -0.1752 -0.5758  0.5132
  177SOPE  H18T20178   3.128   6.626   8.680 -0.3946  0.2231  1.5572
  177SOPE   C3320179   2.801   6.300  10.190  0.0374  0.5087 -0.2389
  177SOPE   H3X20180   2.837   6.405  10.185  0.4580  0.4311  0.8396
  177SOPE   H3Y20181   2.745   6.291  10.285  1.6497 -0.2192  0.6790
  177SOPE   C3420182   2.706   6.282  10.077 -0.3202  0.6398 -0.2382
  177SOPE   H4X20183   2.607   6.320  10.111  0.6868  0.7308  2.8771
  177SOPE   H4Y20184   2.690   6.174  10.059 -0.8567  0.5319  0.8345
  177SOPE   C3520185   2.735   6.357   9.949 -0.1335 -0.2511  0.2409
  177SOPE   H5X20186   2.843   6.371   9.927 -0.3134 -0.4151 -0.8015
  177SOPE   H5Y20187   2.689   6.457   9.942 -2.6354 -1.4535 -2.8302
  177SOPE   C3620188   2.674   6.283   9.824  0.6020 -0.6628  0.9074
  177SOPE   H6X20189   2.565   6.264   9.834 -0.0581  2.8212  1.8041
  177SOPE   H6Y20190   2.725   6.185   9.831  2.4242  0.0015 -1.4831
  177SOPE   C3720191   2.699   6.355   9.692  0.3369 -0.0748 -0.0824
  177SOPE   H7X20192   2.772   6.438   9.707  2.5803 -1.6394 -1.7071
  177SOPE   H7Y20193   2.602   6.384   9.646 -0.9860  0.0204  2.5709
  177SOPE   C3820194   2.768   6.268   9.586  0.0186  0.2087  1.1940
  177SOPE   H8X20195   2.689   6.199   9.550 -0.1873  1.0261  0.0510
  177SOPE   H8Y20196   2.845   6.211   9.643 -1.0701 -0.0034  2.5098
  177SOPE   C3920197   2.822   6.343   9.462  1.0049  0.6377 -0.2887
  177SOPE   H9X20198   2.890   6.428   9.484 -0.2266  1.4217  0.6429
  177SOPE   H9Y20199   2.733   6.389   9.414 -1.5753 -1.8246  1.6940
  177SOPE  C31020200   2.888   6.245   9.363 -0.2834  0.1705  0.0505
  177SOPE  H10X20201   2.821   6.163   9.334 -1.0052  1.2378 -1.4200
  177SOPE  H10Y20202   2.980   6.200   9.407 -0.7011 -1.2744 -0.5299
  177SOPE  C31120203   2.913   6.319   9.229 -0.2670  0.0624 -0.2961
  177SOPE  H11X20204   2.987   6.397   9.253  1.3119 -1.1889 -0.9348
  177SOPE  H11Y20205   2.824   6.377   9.195 -0.6617  0.1063  0.7742
  177SOPE  C31220206   2.960   6.233   9.102 -0.2172  0.3120 -0.7522
  177SOPE  H12X20207   3.038   6.163   9.137  0.5006  1.7479  0.6197
  177SOPE  H12Y20208   3.002   6.306   9.030  0.9123  1.5352  1.0734
  177SOPE  C31320209   2.836   6.167   9.039 -0.1997 -0.0556 -0.7227
  177SOPE  H13X20210   2.745   6.231   9.045  0.4822  1.1626 -2.4620
  177SOPE  H13Y20211   2.807   6.068   9.080 -1.0291  0.0267 -1.0849
  177SOPE  C31420212   2.842   6.124   8.888 -0.2196 -0.3928 -0.8111
  177SOPE  H14X20213   2.943   6.078   8.881  0.9083  1.3946  1.8627
  177SOPE  H14Y20214   2.842   6.220   8.832 -1.6107  1.5565  2.2348
  177SOPE  C31520215   2.730   6.034   8.847 -0.2336  1.1575 -0.4385
  177SOPE  H15X20216   2.714   6.048   8.738  0.4634 -1.8115 -1.0057
  177SOPE  H15Y20217   2.637   6.076   8.892  0.1314  1.3317  0.1699
  177SOPE  C31620218   2.746   5.881   8.863  0.4952  0.4261  0.0018
  177SOPE  H16X20219   2.750   5.864   8.973 -0.6586  0.4082  0.0584
  177SOPE  H16Y20220   2.836   5.855   8.804 -0.6695  1.3462 -2.3024
  177SOPE  C31720221   2.633   5.792   8.802 -0.7611  0.7357  0.6867
  177SOPE  H17X20222   2.628   5.813   8.693  1.8750 -1.8959 -0.0553
  177SOPE  H17Y20223   2.540   5.805   8.861 -1.1272  0.4171  0.1787
  177SOPE  C31820224   2.667   5.641   8.811  0.1723 -0.0921 -0.0346
  177SOPE  H18X20225   2.685   5.609   8.916 -1.3999 -3.0874 -0.5775
  177SOPE  H18Y20226   2.753   5.612   8.748  0.8243 -0.5002  1.0278
  177SOPE  H18Z20227   2.580   5.577   8.783 -0.6536  0.4929  1.1243
  178SOPE     N20228   0.449   3.091  11.121  0.2772  0.1133  0.0508
  178SOPE   HN120229   0.465   3.074  11.020 -0.6374 -0.9919  0.0704
  178SOPE   HN220230   0.454   3.192  11.148  0.6150  0.3032 -0.6960
  178SOPE   HN320231   0.524   3.046  11.177 -1.1525 -1.1576  1.0316
  178SOPE   C1220232   0.320   3.026  11.158 -0.2026 -0.9682 -0.6590
  178SOPE  H12A20233   0.304   3.050  11.265 -1.0107  0.0522 -0.9936
  178SOPE  H12B20234   0.327   2.916  11.147 -4.8707 -1.6827  1.1850
  178SOPE   C1120235   0.205   3.083  11.081  0.5155 -0.0823 -0.5757
  178SOPE  H11A20236   0.202   3.194  11.086 -0.5856 -0.1464  0.5486
  178SOPE  H11B20237   0.108   3.047  11.121  0.1814  0.5552 -0.7905
  178SOPE     P20238   0.092   3.057  10.839 -0.2895  0.1958  0.2895
  178SOPE   O1320239  -0.039   3.057  10.908 -0.0236 -0.4435  0.1601
  178SOPE   O1420240   0.116   2.947  10.745  0.2696  0.3602 -0.1582
  178SOPE   O1220241   0.215   3.051  10.942  0.6780 -0.2387 -0.3228
  178SOPE   O1120242   0.116   3.187  10.757  0.3635 -0.0365  0.3956
  178SOPE    C120243   0.234   3.194  10.669  0.1122  0.5089 -0.5126
  178SOPE    HA20244   0.291   3.099  10.672  1.3815  1.2559  2.4069
  178SOPE    HB20245   0.312   3.261  10.710  0.5124  0.3263 -0.9669
  178SOPE    C220246   0.203   3.233  10.526  0.2115  1.3376  0.0578
  178SOPE    HS20247   0.300   3.229  10.472  0.1896  1.9894 -0.0411
  178SOPE   O2120248   0.154   3.370  10.532 -0.0205 -0.2437  0.4624
  178SOPE   C2120249   0.245   3.468  10.533 -0.1400 -0.1237  0.3639
  178SOPE   O2220250   0.369   3.451  10.520  0.6751  0.3728 -0.2859
  178SOPE   C2220251   0.169   3.596  10.520 -0.6493 -0.7679 -0.3320
  178SOPE   H2R20252   0.233   3.681  10.553 -1.5244 -0.8372  1.6978
  178SOPE   H2S20253   0.085   3.600  10.592  0.4175 -0.9725  0.9707
  178SOPE    C320254   0.088   3.147  10.462  0.1921  0.4399  0.1176
  178SOPE    HX20255   0.002   3.155  10.533  0.3375  1.2592  0.2182
  178SOPE    HY20256   0.122   3.042  10.461  1.7351  0.8563  1.9668
  178SOPE   O3120257   0.047   3.197  10.339 -0.0776 -0.5785  0.3564
  178SOPE   C3120258   0.132   3.170  10.237 -1.0882 -0.3685  0.0254
  178SOPE   O3220259   0.239   3.111  10.255  0.0972  0.0448 -0.0531
  178SOPE   C3220260   0.072   3.220  10.104  0.1443  0.4846 -0.5065
  178SOPE   H2X20261   0.060   3.330  10.110 -1.8577  0.2730  0.6671
  178SOPE   H2Y20262  -0.035   3.188  10.099  0.1739  0.5817 -3.2216
  178SOPE   C2320263   0.131   3.630  10.370  0.0596  0.0971  0.2644
  178SOPE   H3R20264   0.076   3.726  10.371 -2.8723 -1.4509  0.0448
  178SOPE   H3S20265   0.067   3.547  10.332  1.3757 -0.1210 -1.6244
  178SOPE   C2420266   0.249   3.633  10.266 -0.0269  0.3140 -0.0360
  178SOPE   H4R20267   0.340   3.690  10.295 -0.2524  1.0485 -0.7401
  178SOPE   H4S20268   0.284   3.532  10.236 -0.5279 -0.0132  0.4665
  178SOPE   C2520269   0.201   3.691  10.130 -0.0388 -0.5022  0.6860
  178SOPE   H5R20270   0.143   3.619  10.069  0.9153 -1.3147  0.7123
  178SOPE   H5S20271   0.140   3.781  10.155  1.3489  0.5743  0.3306
  178SOPE   C2620272   0.322   3.734  10.048 -0.0510 -0.7477  0.2353
  178SOPE   H6R20273   0.381   3.808  10.105  1.0840 -1.4063 -0.0536
  178SOPE   H6S20274   0.388   3.650  10.018  1.3932  0.7656 -1.0343
  178SOPE   C2720275   0.286   3.798   9.912 -0.4929  0.4423  0.0573
  178SOPE   H7R20276   0.255   3.902   9.939  0.9903  0.4777  1.7965
  178SOPE   H7S20277   0.382   3.804   9.857 -0.5408 -0.3518 -0.1183
  178SOPE   C2820278   0.196   3.721   9.815  0.5715 -0.1496 -0.0338
  178SOPE   H8R20279   0.219   3.615   9.837 -1.4693 -0.8269 -0.9987
  178SOPE   H8S20280   0.092   3.745   9.847  0.2808 -3.0968  1.6349
  178SOPE   C2920281   0.228   3.752   9.674 -0.0214  0.3303  0.3123
  178SOPE   H9120282   0.330   3.723   9.645 -0.4118 -1.1033  0.2999
  178SOPE  C21020283   0.157   3.817   9.578  0.0168 -0.5450  0.3845
  178SOPE  H10120284   0.198   3.825   9.476  0.5950  0.1296  0.6625
  178SOPE  C21120285   0.019   3.876   9.613 -0.0192  0.0695  1.0777
  178SOPE  H11R20286   0.023   3.923   9.713 -1.5993  1.9977  0.3035
  178SOPE  H11S20287  -0.055   3.792   9.613  1.3674 -1.2067  0.5301
  178SOPE  C21220288  -0.030   3.978   9.503 -0.3649  0.6255 -0.1941
  178SOPE  H12R20289   0.036   4.067   9.506  0.7692 -0.1730  3.0428
  178SOPE  H12S20290  -0.134   4.010   9.524  0.0918  2.3428 -0.4237
  178SOPE  C21320291  -0.038   3.931   9.361 -0.6677  0.0709  0.1715
  178SOPE  H13R20292  -0.088   3.832   9.351 -0.5083 -0.1310  1.2207
  178SOPE  H13S20293   0.067   3.924   9.325 -0.3938  0.6412  0.8508
  178SOPE  C21420294  -0.105   4.031   9.267  0.1854 -0.0703 -0.1578
  178SOPE  H14R20295  -0.081   4.136   9.296 -0.1530  0.4575 -1.6906
  178SOPE  H14S20296  -0.214   4.025   9.287  0.3972  1.1482  1.6136
  178SOPE  C21520297  -0.073   4.007   9.111 -0.2321  0.2949  0.0960
  178SOPE  H15R20298  -0.086   3.897   9.098 -1.4544  0.4758 -0.3359
  178SOPE  H15S20299   0.035   4.030   9.117 -0.2477  0.0896  4.7864
  178SOPE  C21620300  -0.169   4.076   9.013 -0.9068  0.0134  0.2697
  178SOPE  H16R20301  -0.161   4.184   9.038  1.5707 -0.1023  0.2195
  178SOPE  H16S20302  -0.274   4.048   9.036 -0.9390 -0.4273 -0.3787
  178SOPE  C21720303  -0.131   4.048   8.866 -0.2795  0.2407 -0.0330
  178SOPE  H17R20304  -0.153   3.943   8.837  0.9979 -0.1131  0.2424
  178SOPE  H17S20305  -0.021   4.058   8.855 -0.2542 -0.7456 -0.8363
  178SOPE  C21820306  -0.199   4.145   8.769  0.3244 -0.2096  0.1659
  178SOPE  H18R20307  -0.186   4.119   8.662  2.3607 -0.5949  0.4672
  178SOPE  H18S20308  -0.162   4.249   8.770 -0.0615 -0.0716  0.3958
  178SOPE  H18T20309  -0.307   4.161   8.792  0.4433  0.4634  0.2772
  178SOPE   C3320310   0.142   3.165   9.984  0.6511 -0.5495 -0.3472
  178SOPE   H3X20311   0.174   3.060   9.999  0.9947 -0.2664  0.9928
  178SOPE   H3Y20312   0.237   3.218   9.962  0.6490  0.1304  1.2041
  178SOPE   C3420313   0.054   3.166   9.858 -0.6770  0.5359 -0.2369
  178SOPE   H4X20314  -0.043   3.121   9.888 -0.5814  1.1037  0.9863
  178SOPE   H4Y20315   0.103   3.098   9.786  0.2873  0.4457  0.4938
  178SOPE   C3520316   0.039   3.303   9.790  0.0968  0.0483 -0.5119
  178SOPE   H5X20317   0.142   3.341   9.771  0.5671  0.2995  2.1649
  178SOPE   H5Y20318  -0.006   3.362   9.874 -2.3473 -3.6743  1.0756
  178SOPE   C3620319  -0.060   3.294   9.674 -0.9782  0.3509 -0.1675
  178SOPE   H6X20320  -0.163   3.279   9.713 -0.7171  0.1878  0.4826
  178SOPE   H6Y20321  -0.019   3.212   9.611  3.7146  2.6190 -0.4796
  178SOPE   C3720322  -0.072   3.419   9.585  0.2584 -0.4619 -0.1470
  178SOPE   H7X20323  -0.119   3.505   9.638 -0.4650 -1.5842  1.0806
  178SOPE   H7Y20324  -0.151   3.394   9.512 -1.6966  0.7366  1.4513
  178SOPE   C3820325   0.060   3.464   9.515  0.0769  0.0703 -0.0422
  178SOPE   H8X20326   0.145   3.474   9.585 -1.6049  2.0983  1.8961
  178SOPE   H8Y20327   0.036   3.568   9.482  0.5946 -0.4834 -2.3580
  178SOPE   C3920328   0.073   3.384   9.387  0.4954 -0.1431  0.3611
  178SOPE   H9X20329  -0.023   3.398   9.333  0.7311 -0.3797 -0.1204
  178SOPE   H9Y20330   0.081   3.277   9.416  0.0656 -0.5094 -0.8453
  178SOPE  C31020331   0.201   3.405   9.316  0.8365  0.4247  0.6171
  178SOPE  H10X20332   0.276   3.334   9.355 -0.2567 -1.4097 -0.4854
  178SOPE  H10Y20333   0.232   3.512   9.320  1.6574  0.3797 -2.2017
  178SOPE  C31120334   0.188   3.382   9.155 -0.1152  0.1516 -0.3355
  178SOPE  H11X20335   0.129   3.288   9.153  2.2226 -1.5622  2.4641
  178SOPE  H11Y20336   0.289   3.370   9.111  0.5305 -0.3425  1.1935
  178SOPE  C31220337   0.110   3.492   9.069 -0.0652  0.2272 -0.0198
  178SOPE  H12X20338   0.146   3.591   9.103  1.2484  0.0122 -0.7089
  178SOPE  H12Y20339   0.004   3.484   9.099  0.1414  0.4841  0.8043
  178SOPE  C31320340   0.121   3.476   8.917 -0.5109  0.0409 -0.0107
  178SOPE  H13X20341   0.067   3.388   8.874 -1.1470  0.3357  0.1685
  178SOPE  H13Y20342   0.227   3.455   8.892 -0.9518 -2.6762  0.1098
  178SOPE  C31420343   0.075   3.603   8.840 -0.1394  0.4069 -0.6485
  178SOPE  H14X20344   0.122   3.691   8.890 -1.5513  1.4662 -1.1003
  178SOPE  H14Y20345  -0.036   3.612   8.837 -0.2251 -0.4356 -0.1433
  178SOPE  C31520346   0.114   3.619   8.692  0.0150  0.4429 -0.6677
  178SOPE  H15X20347   0.098   3.518   8.647  2.1034 -1.1267  1.8336
  178SOPE  H15Y20348   0.221   3.647   8.685  0.2818  0.5127  2.5405
  178SOPE  C31620349   0.027   3.719   8.615 -0.1193 -0.4178  0.1587
  178SOPE  H16X20350  -0.080   3.721   8.644  0.4293 -0.3524  2.3639
  178SOPE  H16Y20351   0.023   3.708   8.505 -1.2509  1.4348 -0.0282
  178SOPE  C31720352   0.081   3.857   8.637 -0.6460  0.0533 -0.2232
  178SOPE  H17X20353   0.124   3.857   8.740  1.5748  2.8471 -1.0435
  178SOPE  H17Y20354   0.009   3.940   8.618  1.1365  1.8930  0.6918
  178SOPE  C31820355   0.198   3.883   8.542 -0.1677 -0.1266 -0.6125
  178SOPE  H18X20356   0.288   3.820   8.556  0.0917 -0.2000 -2.3688
  178SOPE  H18Y20357   0.238   3.986   8.555  0.4663 -0.5691  1.2196
  178SOPE  H18Z20358   0.181   3.856   8.435 -3.1061  1.4558 -0.6402
  179SOPE     N20359   0.117   5.719   6.395 -1.2046  0.5508 -0.4311
  179SOPE   HN120360   0.046   5.772   6.339 -1.9658  1.3617  1.2431
  179SOPE   HN220361   0.100   5.701   6.496  2.7485 -1.4985  0.0761
  179SOPE   HN320362   0.208   5.768   6.385 -1.3257  0.3903 -2.8859
  179SOPE   C1220363   0.140   5.585   6.333  1.0119 -0.1769  0.6238
  179SOPE  H12A20364   0.180   5.515   6.409 -1.7562 -0.3880  2.0282
  179SOPE  H12B20365   0.220   5.587   6.256  0.4225 -2.1901 -0.1019
  179SOPE   C1120366   0.004   5.528   6.270 -0.8671  0.8139 -0.0787
  179SOPE  H11A20367   0.038   5.424   6.254  0.0974  1.0891  0.1026
  179SOPE  H11B20368  -0.013   5.570   6.168 -1.7881  0.2029 -0.1919
  179SOPE     P20369  -0.198   5.406   6.359 -0.1863  0.1377 -0.5304
  179SOPE   O1320370  -0.242   5.368   6.217  0.0163 -0.1175 -0.8440
  179SOPE   O1420371  -0.308   5.423   6.457 -0.0638 -0.0454 -0.5855
  179SOPE   O1220372  -0.111   5.541   6.356  0.2201  0.0536 -0.0740
  179SOPE   O1120373  -0.098   5.293   6.402 -0.1364  0.5798 -0.2632
  179SOPE    C120374  -0.022   5.300   6.525  0.3035 -0.2789 -0.4062
  179SOPE    HA20375  -0.007   5.403   6.565 -1.9151 -0.1496  0.2555
  179SOPE    HB20376   0.074   5.251   6.501  1.4054  1.9482 -0.8384
  179SOPE    C220377  -0.066   5.221   6.654 -0.8361 -0.1262  0.0209
  179SOPE    HS20378  -0.160   5.270   6.688 -0.3064  0.7458  0.2457
  179SOPE   O2120379   0.046   5.229   6.748 -0.2502 -0.0136 -0.3681
  179SOPE   C2120380   0.047   5.336   6.829  0.3472 -0.1344  0.4822
  179SOPE   O2220381  -0.025   5.431   6.814  0.4679  0.3505  0.5406
  179SOPE   C2220382   0.158   5.318   6.932  0.4362 -0.2946 -0.3528
  179SOPE   H2R20383   0.251   5.341   6.875  1.5263  1.8626  2.0744
  179SOPE   H2S20384   0.160   5.213   6.967 -0.6833 -1.3950 -3.2757
  179SOPE    C320385  -0.120   5.075   6.624  0.7027  1.0355 -0.5729
  179SOPE    HX20386  -0.030   5.020   6.587 -0.1629 -0.4330 -0.5781
  179SOPE    HY20387  -0.195   5.079   6.543 -1.0031  1.7090  0.9793
  179SOPE   O3120388  -0.174   5.020   6.746  0.4216  0.5947  0.1184
  179SOPE   C3120389  -0.301   5.051   6.780  0.0602 -0.6534 -0.9437
  179SOPE   O3220390  -0.372   5.135   6.725 -0.0126  0.2202 -0.0280
  179SOPE   C3220391  -0.335   4.960   6.894 -0.2184  0.9809  0.7394
  179SOPE   H2X20392  -0.261   4.978   6.975 -0.1298 -0.1908  0.9343
  179SOPE   H2Y20393  -0.306   4.857   6.867 -0.1060  0.9022  1.1538
  179SOPE   C2320394   0.158   5.430   7.034  0.3345 -0.4069 -0.1332
  179SOPE   H3R20395   0.146   5.523   6.975  1.9457 -1.7855 -2.8148
  179SOPE   H3S20396   0.256   5.432   7.086  0.2699  1.4920 -0.0292
  179SOPE   C2420397   0.059   5.398   7.153  0.0364 -0.5834  0.6083
  179SOPE   H4R20398   0.085   5.296   7.185  1.1618 -0.8294 -0.9644
  179SOPE   H4S20399   0.082   5.465   7.238 -0.2529  0.7036 -0.2824
  179SOPE   C2520400  -0.089   5.415   7.116  0.4846  0.2103 -0.0841
  179SOPE   H5R20401  -0.099   5.509   7.058  0.3588  1.1169  1.3586
  179SOPE   H5S20402  -0.124   5.335   7.048  1.0593 -1.4168  1.4404
  179SOPE   C2620403  -0.180   5.445   7.234 -0.4953  0.3349 -0.4835
  179SOPE   H6R20404  -0.159   5.534   7.297 -0.6803 -0.4145  0.6773
  179SOPE   H6S20405  -0.275   5.470   7.182  0.6091  1.7659 -1.9021
  179SOPE   C2720406  -0.191   5.324   7.336 -0.2123  0.0706  0.5784
  179SOPE   H7R20407  -0.173   5.225   7.287 -0.4675  0.5017 -0.4114
  179SOPE   H7S20408  -0.108   5.326   7.410  0.1111 -0.2340  0.2308
  179SOPE   C2820409  -0.322   5.327   7.410  0.2209 -0.7763  0.3217
  179SOPE   H8R20410  -0.333   5.426   7.459 -2.2950 -0.6437 -0.3989
  179SOPE   H8S20411  -0.405   5.323   7.337  0.3173  1.6444  0.0079
  179SOPE   C2920412  -0.336   5.221   7.516 -0.7377 -0.2809 -0.0822
  179SOPE   H9120413  -0.274   5.132   7.496  0.1060  0.1060  0.7969
  179SOPE  C21020414  -0.416   5.222   7.620  0.8903  0.0341  0.1291
  179SOPE  H10120415  -0.424   5.128   7.676 -1.6501  0.1787  0.0982
  179SOPE  C21120416  -0.518   5.321   7.658 -0.1674 -0.7264 -0.7789
  179SOPE  H11R20417  -0.617   5.273   7.644 -1.5596  2.0212 -0.9681
  179SOPE  H11S20418  -0.526   5.406   7.588 -1.0993  0.1962  0.3849
  179SOPE  C21220419  -0.500   5.387   7.800  0.1628  0.0958  0.9111
  179SOPE  H12R20420  -0.462   5.317   7.877  1.0470 -0.4995 -0.0308
  179SOPE  H12S20421  -0.599   5.425   7.833  0.9114  2.2604  0.8154
  179SOPE  C21320422  -0.399   5.494   7.788 -0.2071  0.3157  0.0395
  179SOPE  H13R20423  -0.404   5.555   7.695  2.1519  0.0516 -0.3412
  179SOPE  H13S20424  -0.298   5.447   7.788  0.4346  1.6363 -0.0103
  179SOPE  C21420425  -0.395   5.587   7.914  0.3435  0.1994  0.1727
  179SOPE  H14R20426  -0.489   5.644   7.905 -0.0083 -0.5231 -0.9573
  179SOPE  H14S20427  -0.311   5.659   7.902  0.8754 -0.3790  0.3385
  179SOPE  C21520428  -0.372   5.518   8.052  0.7090  0.1213  0.2317
  179SOPE  H15R20429  -0.265   5.488   8.064  1.4849  2.4749 -0.2498
  179SOPE  H15S20430  -0.437   5.429   8.063  1.3460 -0.5438 -1.1374
  179SOPE  C21620431  -0.416   5.612   8.165 -0.6083  0.3073 -0.8391
  179SOPE  H16R20432  -0.512   5.662   8.141 -2.3296 -1.0745  2.5461
  179SOPE  H16S20433  -0.340   5.693   8.157  1.4037 -1.4767 -0.8312
  179SOPE  C21720434  -0.428   5.559   8.306 -0.5468 -0.0675  0.2497
  179SOPE  H17R20435  -0.426   5.651   8.369  0.4321  0.6169 -0.7321
  179SOPE  H17S20436  -0.343   5.495   8.336 -0.2207 -0.1120 -0.7145
  179SOPE  C21820437  -0.560   5.482   8.327 -0.4576 -0.5492 -0.1037
  179SOPE  H18R20438  -0.650   5.541   8.299 -0.2741 -0.9801 -1.6874
  179SOPE  H18S20439  -0.570   5.449   8.433 -0.7095 -1.8308 -0.5113
  179SOPE  H18T20440  -0.559   5.392   8.263 -0.2053 -1.3279  0.9573
  179SOPE   C3320441  -0.483   4.975   6.928 -0.5823 -0.1469 -0.9450
  179SOPE   H3X20442  -0.545   4.961   6.836 -0.5463  0.2941 -1.0392
  179SOPE   H3Y20443  -0.507   5.076   6.967 -0.8632 -0.1450 -1.1170
  179SOPE   C3420444  -0.535   4.880   7.037  0.2756  0.0158 -0.0003
  179SOPE   H4X20445  -0.453   4.881   7.112 -0.1493 -2.8660  0.6020
  179SOPE   H4Y20446  -0.534   4.775   7.001 -2.9083 -1.5382  3.7739
  179SOPE   C3520447  -0.672   4.915   7.098 -0.6734  0.3458  0.1547
  179SOPE   H5X20448  -0.712   4.834   7.162 -0.2850 -0.8840 -1.1056
  179SOPE   H5Y20449  -0.741   4.935   7.012 -0.7903 -1.9435 -0.3333
  179SOPE   C3620450  -0.683   5.039   7.191  0.6410 -0.2266 -0.3844
  179SOPE   H6X20451  -0.790   5.053   7.216  1.3010  1.3975  1.7797
  179SOPE   H6Y20452  -0.648   5.130   7.139 -0.1045  1.2127  1.5127
  179SOPE   C3720453  -0.584   5.062   7.314  0.0203  0.8751 -0.6438
  179SOPE   H7X20454  -0.619   5.145   7.378 -0.0927  0.9086 -0.7485
  179SOPE   H7Y20455  -0.482   5.076   7.272  0.5290  0.1796  0.3214
  179SOPE   C3820456  -0.562   4.933   7.400 -0.1334 -0.9038 -0.6263
  179SOPE   H8X20457  -0.492   4.973   7.476 -0.0169 -0.6379 -0.8720
  179SOPE   H8Y20458  -0.506   4.865   7.332  1.1349 -0.8787  0.3626
  179SOPE   C3920459  -0.692   4.867   7.464  0.2980  0.4042  0.5573
  179SOPE   H9X20460  -0.744   4.833   7.372  1.5567  1.2898 -0.5183
  179SOPE   H9Y20461  -0.756   4.946   7.508 -0.6184 -0.4236  0.7558
  179SOPE  C31020462  -0.666   4.756   7.571 -0.4272 -0.5307  1.1008
  179SOPE  H10X20463  -0.594   4.679   7.537  1.1126  0.4979  1.9201
  179SOPE  H10Y20464  -0.763   4.705   7.587  0.0555 -1.0704  2.4456
  179SOPE  C31120465  -0.624   4.809   7.707  0.5914 -0.5052 -0.8182
  179SOPE  H11X20466  -0.518   4.843   7.707  0.6005 -0.5328 -1.0477
  179SOPE  H11Y20467  -0.632   4.734   7.789 -1.6063 -0.1740 -0.6541
  179SOPE  C31220468  -0.702   4.935   7.748  0.0649  0.3882 -0.4675
  179SOPE  H12X20469  -0.811   4.915   7.743 -0.0273  0.7487 -0.0009
  179SOPE  H12Y20470  -0.683   5.024   7.684  0.2453  0.7003  0.0179
  179SOPE  C31320471  -0.679   4.974   7.895  0.2251  0.6117 -0.3860
  179SOPE  H13X20472  -0.570   4.989   7.906  0.3912 -0.7451 -0.0335
  179SOPE  H13Y20473  -0.709   4.895   7.967  0.2932  0.8896 -0.0521
  179SOPE  C31420474  -0.759   5.097   7.944 -0.3410 -0.1007  0.4020
  179SOPE  H14X20475  -0.867   5.085   7.920 -0.2654 -1.1986  0.5453
  179SOPE  H14Y20476  -0.722   5.176   7.875  0.7268 -0.5915  0.3929
  179SOPE  C31520477  -0.736   5.122   8.088 -0.1543  0.3988 -0.2545
  179SOPE  H15X20478  -0.625   5.121   8.093 -0.1501  0.1623 -0.3796
  179SOPE  H15Y20479  -0.775   5.030   8.137 -1.8864 -0.1248 -2.4556
  179SOPE  C31620480  -0.789   5.259   8.132  0.2339  0.8377  0.4769
  179SOPE  H16X20481  -0.740   5.341   8.075 -0.7312  1.0012 -0.1285
  179SOPE  H16Y20482  -0.767   5.261   8.241 -0.6739  1.1733  0.6633
  179SOPE  C31720483  -0.945   5.285   8.126 -0.4994  0.0364  0.3833
  179SOPE  H17X20484  -1.004   5.197   8.162  0.8995 -0.8581  0.5598
  179SOPE  H17Y20485  -0.971   5.298   8.019 -1.2206  1.6520  0.7348
  179SOPE  C31820486  -0.993   5.400   8.211 -0.2296  0.3001  0.5066
  179SOPE  H18X20487  -0.981   5.381   8.320 -1.8643 -1.3211  0.4586
  179SOPE  H18Y20488  -1.095   5.439   8.192 -0.7708 -1.2124  0.1078
  179SOPE  H18Z20489  -0.924   5.484   8.193  0.2833 -0.6566 -2.5272
  180SOPE     N20490   5.974   4.472   6.091  0.2134  0.1858  0.2947
  180SOPE   HN120491   6.036   4.388   6.095  1.0383  0.7942  0.7628
  180SOPE   HN220492   5.890   4.458   6.032 -0.9618  2.8670  1.1505
  180SOPE   HN320493   6.021   4.559   6.059  0.0187 -0.5527 -2.1682
  180SOPE   C1220494   5.930   4.492   6.231 -0.0790 -0.5857 -0.6184
  180SOPE  H12A20495   6.007   4.546   6.290 -0.4339  0.4300 -1.0665
  180SOPE  H12B20496   5.926   4.390   6.275  0.1340 -0.6001 -0.6326
  180SOPE   C1120497   5.791   4.563   6.230  0.4572 -0.3864 -0.1369
  180SOPE  H11A20498   5.780   4.623   6.137  0.8651 -1.5290 -0.9478
  180SOPE  H11B20499   5.781   4.618   6.326 -1.3598 -1.7932  0.5359
  180SOPE     P20500   5.533   4.514   6.239  0.3022  0.0934 -0.4391
  180SOPE   O1320501   5.460   4.388   6.202 -0.1404  0.4326 -0.1722
  180SOPE   O1420502   5.519   4.634   6.153 -0.1954 -0.6018 -0.2078
  180SOPE   O1220503   5.687   4.469   6.235  0.3060 -0.4618  0.3910
  180SOPE   O1120504   5.527   4.557   6.387 -0.0674  0.4845  0.2882
  180SOPE    C120505   5.516   4.483   6.503 -0.0403 -0.2239 -0.3393
  180SOPE    HA20506   5.616   4.482   6.550  0.0611 -0.5847 -0.5639
  180SOPE    HB20507   5.491   4.376   6.483 -0.2340  0.0405 -1.6497
  180SOPE    C220508   5.421   4.539   6.615 -0.4904  0.1314 -0.1656
  180SOPE    HS20509   5.320   4.545   6.569 -0.4249  0.4757 -0.2675
  180SOPE   O2120510   5.472   4.670   6.647  0.7620  0.2768 -0.4260
  180SOPE   C2120511   5.389   4.765   6.680  0.4605 -1.0667 -0.4491
  180SOPE   O2220512   5.267   4.756   6.700 -0.1884 -0.4720  0.1147
  180SOPE   C2220513   5.469   4.903   6.698  0.1459 -0.3813  0.7542
  180SOPE   H2R20514   5.527   4.928   6.607  2.1291 -0.2026  1.9942
  180SOPE   H2S20515   5.550   4.890   6.774  0.7653  1.1609  0.3924
  180SOPE    C320516   5.411   4.446   6.735 -0.0412 -0.7365 -0.6524
  180SOPE    HX20517   5.506   4.401   6.772 -1.5485 -3.4814  0.1756
  180SOPE    HY20518   5.356   4.357   6.698 -2.1539  0.9461 -1.7690
  180SOPE   O3120519   5.354   4.508   6.854 -0.3204 -0.1989 -0.0302
  180SOPE   C3120520   5.224   4.521   6.862  0.2411  0.0429  0.3770
  180SOPE   O3220521   5.150   4.476   6.777  0.1496 -0.0809 -0.0207
  180SOPE   C3220522   5.180   4.576   6.990  0.5346 -0.4102  0.1395
  180SOPE   H2X20523   5.073   4.547   6.990  1.2216 -3.2922 -0.3522
  180SOPE   H2Y20524   5.177   4.687   6.988 -0.3920 -0.4390 -0.8976
  180SOPE   C2320525   5.374   5.015   6.742  0.5640 -0.6701 -0.4595
  180SOPE   H3R20526   5.288   5.007   6.672  0.0412 -0.2910  0.1293
  180SOPE   H3S20527   5.431   5.110   6.744  2.0613 -1.5309  1.5324
  180SOPE   C2420528   5.333   5.002   6.888 -0.7579  0.4898  0.6612
  180SOPE   H4R20529   5.296   4.899   6.907 -1.1777  0.5779  0.3348
  180SOPE   H4S20530   5.423   5.024   6.949  0.5408  0.1882 -1.1081
  180SOPE   C2520531   5.231   5.100   6.935 -0.0530  0.8418  0.5251
  180SOPE   H5R20532   5.264   5.206   6.925 -2.8125  1.7072 -0.4985
  180SOPE   H5S20533   5.150   5.100   6.859  0.3203  0.2033  0.1230
  180SOPE   C2620534   5.182   5.080   7.080 -0.0790  0.3086 -0.5082
  180SOPE   H6R20535   5.134   5.178   7.101  2.0161  1.6586 -1.5857
  180SOPE   H6S20536   5.110   4.995   7.085 -0.0560  0.2885 -0.5247
  180SOPE   C2720537   5.299   5.066   7.183  0.0531 -0.2315  0.5570
  180SOPE   H7R20538   5.341   4.965   7.163  0.0095  0.2503 -2.4487
  180SOPE   H7S20539   5.366   5.145   7.143  0.8255 -1.1034  0.0935
  180SOPE   C2820540   5.248   5.081   7.323 -0.2796  0.7571 -0.5961
  180SOPE   H8R20541   5.180   5.169   7.317  0.1715  1.0010 -2.7404
  180SOPE   H8S20542   5.179   4.998   7.349 -1.0314  1.6697  0.3997
  180SOPE   C2920543   5.355   5.099   7.421 -0.8561 -0.3373 -0.2911
  180SOPE   H9120544   5.455   5.118   7.381 -0.9747  0.4427 -0.2268
  180SOPE  C21020545   5.340   5.105   7.558  0.6627  0.3168  0.0924
  180SOPE  H10120546   5.432   5.115   7.618  1.5759 -1.2872 -0.9577
  180SOPE  C21120547   5.213   5.088   7.632  0.3134 -0.0255 -0.3511
  180SOPE  H11R20548   5.130   5.109   7.561  1.6592  1.7083 -1.4870
  180SOPE  H11S20549   5.205   5.164   7.713 -1.1562 -1.7681  1.2213
  180SOPE  C21220550   5.182   4.944   7.685 -0.1343  0.7021 -0.1727
  180SOPE  H12R20551   5.198   4.872   7.603 -0.5130  0.5651 -0.1287
  180SOPE  H12S20552   5.073   4.933   7.707 -0.2342 -3.7680 -1.9412
  180SOPE  C21320553   5.270   4.900   7.796  0.5755 -0.0324 -0.1035
  180SOPE  H13R20554   5.267   4.973   7.879 -1.3474  0.3619 -0.4577
  180SOPE  H13S20555   5.378   4.906   7.772  1.0157  0.8161  1.9000
  180SOPE  C21420556   5.235   4.752   7.846  0.5509 -0.4561  0.0073
  180SOPE  H14R20557   5.276   4.682   7.769  0.3698 -0.4096 -0.1320
  180SOPE  H14S20558   5.126   4.740   7.861  0.0112  2.1731 -1.2227
  180SOPE  C21520559   5.300   4.718   7.981 -0.2976 -0.0645  0.4627
  180SOPE  H15R20560   5.392   4.778   7.971 -0.5476 -0.0239 -2.4542
  180SOPE  H15S20561   5.314   4.608   7.992 -1.9729 -0.1427  2.5836
  180SOPE  C21620562   5.216   4.763   8.102 -0.7080 -0.5955  0.3691
  180SOPE  H16R20563   5.115   4.718   8.096 -0.6021 -0.9567  1.1317
  180SOPE  H16S20564   5.199   4.873   8.101 -2.3526 -0.7934  1.9581
  180SOPE  C21720565   5.281   4.736   8.235  0.4512 -0.1387 -0.0078
  180SOPE  H17R20566   5.391   4.740   8.220  0.7849 -0.4816  2.0311
  180SOPE  H17S20567   5.244   4.638   8.270 -0.8391  0.5408  0.5877
  180SOPE  C21820568   5.246   4.829   8.351  0.1168  0.2030 -0.3824
  180SOPE  H18R20569   5.260   4.933   8.316  1.3839  0.2417  0.1652
  180SOPE  H18S20570   5.304   4.813   8.444 -1.9425  0.5188  1.0196
  180SOPE  H18T20571   5.141   4.813   8.385  0.4612 -0.6297  0.3547
  180SOPE   C3320572   5.252   4.520   7.118 -0.6626  0.4551 -0.3460
  180SOPE   H3X20573   5.360   4.542   7.104 -0.3148 -1.0674 -0.1970
  180SOPE   H3Y20574   5.229   4.411   7.120 -2.6306  0.8377  0.2300
  180SOPE   C3420575   5.190   4.590   7.237  0.2548 -0.9786  0.1428
  180SOPE   H4X20576   5.177   4.698   7.218  2.0811 -0.6328  0.6443
  180SOPE   H4Y20577   5.264   4.584   7.320  0.4395 -0.9154 -0.0170
  180SOPE   C3520578   5.058   4.532   7.288  0.2216  0.0789  0.2491
  180SOPE   H5X20579   5.070   4.422   7.280 -0.0555  0.0657  0.0114
  180SOPE   H5Y20580   4.981   4.562   7.214  1.7079 -2.4206 -2.4949
  180SOPE   C3620581   5.017   4.564   7.432 -0.1866 -0.3946 -0.6392
  180SOPE   H6X20582   4.915   4.522   7.448  0.3836 -1.1672  1.2677
  180SOPE   H6Y20583   5.029   4.674   7.442  0.7652 -0.5918  0.6773
  180SOPE   C3720584   5.107   4.502   7.534 -0.2339  0.2650  1.1054
  180SOPE   H7X20585   5.202   4.559   7.548 -0.0053 -0.2432  1.6816
  180SOPE   H7Y20586   5.138   4.403   7.496 -0.0424  1.3791 -1.8883
  180SOPE   C3820587   5.039   4.500   7.675 -0.5018  0.9429  0.3562
  180SOPE   H8X20588   4.934   4.467   7.667  0.5629 -2.8245 -0.0445
  180SOPE   H8Y20589   5.039   4.604   7.712  1.8555  1.2061 -0.1772
  180SOPE   C3920590   5.120   4.409   7.773  0.3266 -0.0387  0.1306
  180SOPE   H9X20591   5.230   4.422   7.772  0.1461  1.5290 -0.6934
  180SOPE   H9Y20592   5.101   4.305   7.739  0.5344 -0.0949  0.1827
  180SOPE  C31020593   5.053   4.434   7.915  0.2439  0.2874  0.7366
  180SOPE  H10X20594   4.942   4.444   7.905  0.2908  0.0495 -0.1155
  180SOPE  H10Y20595   5.098   4.527   7.955 -0.6974  0.1492  2.2191
  180SOPE  C31120596   5.087   4.318   8.013 -0.4642  0.4297  0.4333
  180SOPE  H11X20597   5.062   4.350   8.116 -0.7506 -1.5167  1.0193
  180SOPE  H11Y20598   5.196   4.298   8.003  0.1760  3.2026  1.1536
  180SOPE  C31220599   5.000   4.189   7.989 -0.6835 -0.1936 -0.5538
  180SOPE  H12X20600   5.030   4.153   7.888  1.4619 -1.3097  0.4220
  180SOPE  H12Y20601   4.890   4.204   7.978 -0.8106 -0.3198  0.4945
  180SOPE  C31320602   5.008   4.072   8.098 -0.1719  0.2927  0.0938
  180SOPE  H13X20603   4.943   3.985   8.074  0.8610  0.0344 -2.0225
  180SOPE  H13Y20604   4.975   4.120   8.192  0.1012  2.0619 -0.6779
  180SOPE  C31420605   5.148   4.021   8.100 -0.3189 -0.0495  0.6582
  180SOPE  H14X20606   5.213   4.104   8.135  0.5578 -0.4593  0.0327
  180SOPE  H14Y20607   5.180   4.009   7.994 -1.5968  1.7107  0.0227
  180SOPE  C31520608   5.163   3.903   8.198 -0.2410 -1.1490 -0.0837
  180SOPE  H15X20609   5.269   3.873   8.188  0.6871  1.9803 -0.8789
  180SOPE  H15Y20610   5.093   3.820   8.174 -0.1132 -0.6706 -2.3645
  180SOPE  C31620611   5.159   3.937   8.348 -0.0922 -0.4029 -0.2701
  180SOPE  H16X20612   5.057   3.973   8.372  0.5469  1.7322 -0.5436
  180SOPE  H16Y20613   5.226   4.023   8.371 -2.4687  0.9148  2.2478
  180SOPE  C31720614   5.213   3.821   8.439 -0.1168 -0.1756 -0.5778
  180SOPE  H17X20615   5.320   3.806   8.414  0.2511  0.1401  0.7393
  180SOPE  H17Y20616   5.161   3.724   8.420  0.7808 -0.8750  0.3812
  180SOPE  C31820617   5.204   3.859   8.586 -0.0773 -0.7229  0.7064
  180SOPE  H18X20618   5.233   3.966   8.596 -0.1805 -0.5423 -0.7884
  180SOPE  H18Y20619   5.273   3.801   8.653  1.6544  1.8148  1.2558
  180SOPE  H18Z20620   5.102   3.851   8.628 -1.7068  0.1866 -2.7640
  181SOPE     N20621   3.257   1.203   5.841  0.0605  0.0897 -0.7914
  181SOPE   HN120622   3.293   1.186   5.937  0.4705 -0.4825 -1.0465
  181SOPE   HN220623   3.222   1.112   5.806 -0.2922 -1.2485  2.6578
  181SOPE   HN320624   3.332   1.234   5.776  2.0682 -0.8137  0.9869
  181SOPE   C1220625   3.144   1.307   5.848 -0.1246 -0.3534 -0.0491
  181SOPE  H12A20626   3.054   1.270   5.795 -0.0797  1.0295 -1.1542
  181SOPE  H12B20627   3.180   1.400   5.799  1.4923  0.0622  1.7821
  181SOPE   C1120628   3.111   1.346   5.989 -0.6847 -0.0761  0.1185
  181SOPE  H11A20629   3.071   1.255   6.039 -2.5159  0.5251 -0.1712
  181SOPE  H11B20630   3.026   1.417   5.997 -0.8162  0.2351 -3.0052
  181SOPE     P20631   3.213   1.493   6.173 -0.3059 -0.4489 -0.2701
  181SOPE   O1320632   3.135   1.614   6.127 -0.1726  0.2247  0.0826
  181SOPE   O1420633   3.353   1.525   6.225  0.1416  0.4526  0.4016
  181SOPE   O1220634   3.230   1.388   6.056 -0.0811  0.3679 -0.1506
  181SOPE   O1120635   3.126   1.415   6.274 -0.2753 -0.7786 -0.0296
  181SOPE    C120636   3.157   1.280   6.317 -0.3232 -0.8276 -0.0461
  181SOPE    HA20637   3.222   1.237   6.238 -0.7932 -0.0045 -0.8905
  181SOPE    HB20638   3.064   1.221   6.308 -1.4654  1.0953 -1.5985
  181SOPE    C220639   3.202   1.253   6.469 -0.4083 -0.3570  0.8804
  181SOPE    HS20640   3.246   1.151   6.456 -1.1963 -0.4719 -1.4066
  181SOPE   O2120641   3.098   1.264   6.561  0.3141  0.0605 -0.7122
  181SOPE   C2120642   3.030   1.150   6.585 -0.1126  0.6468  0.5271
  181SOPE   O2220643   3.038   1.048   6.513 -0.2456 -0.7693  0.3074
  181SOPE   C2220644   2.940   1.171   6.704  0.1688 -0.0145 -0.2548
  181SOPE   H2R20645   3.001   1.220   6.782  1.0788 -3.1461  1.1469
  181SOPE   H2S20646   2.944   1.071   6.751 -0.4580  1.1854  2.5544
  181SOPE    C320647   3.322   1.354   6.521  0.4877  0.0888  0.0342
  181SOPE    HX20648   3.279   1.456   6.533  1.8003  0.3987  2.9699
  181SOPE    HY20649   3.405   1.357   6.448 -0.1938  2.4254 -0.7184
  181SOPE   O3120650   3.361   1.319   6.659 -0.0411  0.2556  0.2918
  181SOPE   C3120651   3.479   1.265   6.677  0.8035  0.1078 -0.5689
  181SOPE   O3220652   3.557   1.238   6.587 -0.3905  0.0695 -0.6408
  181SOPE   C3220653   3.494   1.230   6.825 -0.0776  0.4940 -0.6289
  181SOPE   H2X20654   3.527   1.123   6.831 -1.5364  0.0812  1.0200
  181SOPE   H2Y20655   3.396   1.231   6.877  0.1489 -1.1455 -0.1081
  181SOPE   C2320656   2.810   1.232   6.668 -0.3398  0.1310 -0.3136
  181SOPE   H3R20657   2.763   1.169   6.590  0.4978  0.0590 -0.7691
  181SOPE   H3S20658   2.812   1.331   6.617  1.8219 -0.1625 -0.8706
  181SOPE   C2420659   2.713   1.224   6.795  0.0120 -0.6856 -0.0319
  181SOPE   H4R20660   2.615   1.266   6.761  0.7788 -0.8671 -2.6874
  181SOPE   H4S20661   2.689   1.117   6.814 -1.5683 -0.0805  1.6375
  181SOPE   C2520662   2.758   1.288   6.930 -0.2129  0.7195  0.4995
  181SOPE   H5R20663   2.831   1.369   6.908  0.8583 -0.7669 -1.9582
  181SOPE   H5S20664   2.675   1.322   6.995 -0.3471 -1.2476  1.4228
  181SOPE   C2620665   2.817   1.184   7.031 -0.8209  0.4178 -0.2874
  181SOPE   H6R20666   2.751   1.095   7.026 -1.1167  0.6951 -1.5755
  181SOPE   H6S20667   2.918   1.154   6.996 -0.5150 -1.7170  2.1902
  181SOPE   C2720668   2.818   1.233   7.173  0.3314 -0.4221 -0.1297
  181SOPE   H7R20669   2.841   1.342   7.172 -0.1946 -0.2250  2.5165
  181SOPE   H7S20670   2.723   1.227   7.230  1.1180  0.5551  1.3449
  181SOPE   C2820671   2.927   1.176   7.265 -0.3092  0.7135  0.1446
  181SOPE   H8R20672   3.020   1.174   7.204 -0.5239 -1.0053 -0.1804
  181SOPE   H8S20673   2.961   1.248   7.342 -0.5288 -0.3533  1.2692
  181SOPE   C2920674   2.886   1.037   7.322  0.1616 -0.8163 -0.0716
  181SOPE   H9120675   2.825   0.977   7.253 -1.7624  2.1056 -1.1070
  181SOPE  C21020676   2.905   0.997   7.456 -1.0854  0.1533  0.2896
  181SOPE  H10120677   2.870   0.897   7.483 -2.7623  1.3755  3.0266
  181SOPE  C21120678   2.983   1.070   7.563 -0.9268 -0.0538 -0.6276
  181SOPE  H11R20679   3.016   1.169   7.526 -0.9899  0.0471 -0.4120
  181SOPE  H11S20680   3.070   1.011   7.598 -0.7289  0.2501 -0.6055
  181SOPE  C21220681   2.893   1.083   7.677  0.0985  0.0278 -0.9649
  181SOPE  H12R20682   2.869   0.981   7.713 -1.7092 -1.3280 -5.3621
  181SOPE  H12S20683   2.800   1.135   7.645 -0.5893 -1.5837 -1.6710
  181SOPE  C21320684   2.944   1.174   7.794  0.0452  0.7980  0.2352
  181SOPE  H13R20685   2.930   1.282   7.771  1.4109  1.1409  0.8458
  181SOPE  H13S20686   3.054   1.160   7.809  0.5014  2.1210 -1.5282
  181SOPE  C21420687   2.863   1.152   7.926  0.3529 -0.0331  0.1509
  181SOPE  H14R20688   2.840   1.044   7.932  1.5046 -0.3106 -0.2699
  181SOPE  H14S20689   2.771   1.214   7.921  1.3984  1.7802  1.8306
  181SOPE  C21520690   2.945   1.191   8.046  0.6521  0.3090 -0.4077
  181SOPE  H15R20691   2.973   1.298   8.037 -0.0426  0.5725  0.3754
  181SOPE  H15S20692   3.035   1.128   8.059  2.2411  2.9014  2.2875
  181SOPE  C21620693   2.870   1.180   8.179 -0.4126 -0.2843 -0.7734
  181SOPE  H16R20694   2.809   1.088   8.188  1.2812 -1.2786  1.3719
  181SOPE  H16S20695   2.793   1.259   8.195  1.3115  1.0500  1.6152
  181SOPE  C21720696   2.956   1.179   8.305 -0.6008 -0.1394 -0.1123
  181SOPE  H17R20697   3.015   1.085   8.311 -0.0296  0.1654 -0.8647
  181SOPE  H17S20698   2.875   1.184   8.382 -0.1014 -1.9195  0.5757
  181SOPE  C21820699   3.062   1.286   8.308  0.0151 -0.2196  0.5859
  181SOPE  H18R20700   3.017   1.386   8.294  0.7995  0.2595  1.3947
  181SOPE  H18S20701   3.131   1.270   8.222 -0.8278  2.8141 -0.7734
  181SOPE  H18T20702   3.101   1.293   8.411  0.4162  0.6073  0.3791
  181SOPE   C3320703   3.571   1.327   6.920 -0.4665  0.3494 -0.3751
  181SOPE   H3X20704   3.519   1.425   6.912 -0.1921  0.3284 -4.3893
  181SOPE   H3Y20705   3.679   1.331   6.894  0.4086  2.3433  2.8790
  181SOPE   C3420706   3.557   1.294   7.068 -0.7158 -0.5669 -0.7208
  181SOPE   H4X20707   3.611   1.199   7.088 -2.7533 -1.4379  1.1315
  181SOPE   H4Y20708   3.450   1.274   7.094 -0.5676  1.0559  1.4043
  181SOPE   C3520709   3.599   1.403   7.168  0.2886 -0.3136  0.2705
  181SOPE   H5X20710   3.566   1.498   7.122  1.0662 -0.1590  0.0102
  181SOPE   H5Y20711   3.710   1.396   7.179  0.1028 -1.9579  1.6320
  181SOPE   C3620712   3.542   1.377   7.302  0.3994 -0.6646  0.4561
  181SOPE   H6X20713   3.574   1.280   7.345 -1.1889 -0.3844  2.4057
  181SOPE   H6Y20714   3.432   1.369   7.289  0.2922  1.2634 -0.1166
  181SOPE   C3720715   3.557   1.495   7.406 -0.5012  0.2170 -0.2127
  181SOPE   H7X20716   3.481   1.576   7.395 -0.1965  0.5501  0.1447
  181SOPE   H7Y20717   3.659   1.539   7.399 -0.8412  1.0401 -0.1359
  181SOPE   C3820718   3.563   1.436   7.545 -0.0569 -0.0418  0.1466
  181SOPE   H8X20719   3.661   1.383   7.547  0.0871  0.2271  2.1593
  181SOPE   H8Y20720   3.488   1.356   7.563  0.0691  0.3217  2.7106
  181SOPE   C3920721   3.537   1.538   7.655 -0.0675  0.4275 -0.9764
  181SOPE   H9X20722   3.453   1.604   7.627  2.3442  3.7807 -0.9460
  181SOPE   H9Y20723   3.631   1.597   7.656 -0.1916  0.6628  1.3755
  181SOPE  C31020724   3.505   1.474   7.788 -0.2547  0.4787 -1.5279
  181SOPE  H10X20725   3.574   1.388   7.804 -4.1073 -2.9899 -1.7403
  181SOPE  H10Y20726   3.408   1.420   7.784  0.3386 -0.8260  0.3438
  181SOPE  C31120727   3.520   1.587   7.893  0.0552 -0.1677  0.3274
  181SOPE  H11X20728   3.446   1.666   7.867  0.0990 -0.2469 -0.0470
  181SOPE  H11Y20729   3.620   1.633   7.876 -1.0986  2.2047 -0.4014
  181SOPE  C31220730   3.512   1.541   8.036  0.2604 -0.7765  0.3439
  181SOPE  H12X20731   3.607   1.488   8.058  2.3930  2.8643  0.6498
  181SOPE  H12Y20732   3.425   1.474   8.056  0.5017 -1.1398  0.1877
  181SOPE  C31320733   3.524   1.664   8.132 -0.4085 -0.0834 -0.9689
  181SOPE  H13X20734   3.436   1.730   8.119 -0.4282 -0.0315 -0.5642
  181SOPE  H13Y20735   3.624   1.704   8.103  0.9196 -3.3679 -1.4174
  181SOPE  C31420736   3.542   1.598   8.277 -0.0302  0.2447  0.5970
  181SOPE  H14X20737   3.633   1.534   8.277 -0.9971 -1.2068 -1.2199
  181SOPE  H14Y20738   3.450   1.540   8.298 -0.9857  1.0709 -1.1299
  181SOPE  C31520739   3.562   1.709   8.384  0.3634  0.9008 -0.3492
  181SOPE  H15X20740   3.471   1.772   8.389  0.8162  1.4799  1.7154
  181SOPE  H15Y20741   3.650   1.769   8.353  1.6879 -0.1793  1.1216
  181SOPE  C31620742   3.598   1.657   8.530 -0.6114  0.1946  0.6238
  181SOPE  H16X20743   3.612   1.743   8.600  2.2758  1.3792 -1.2264
  181SOPE  H16Y20744   3.690   1.595   8.524 -1.7275 -1.3019 -2.7723
  181SOPE  C31720745   3.498   1.560   8.597  0.2168  0.4456  0.5745
  181SOPE  H17X20746   3.526   1.459   8.560  2.3205  0.6984  1.3197
  181SOPE  H17Y20747   3.398   1.573   8.551  0.4555 -2.7512 -1.1266
  181SOPE  C31820748   3.478   1.583   8.751 -0.4068  0.5454  0.1903
  181SOPE  H18X20749   3.425   1.680   8.764 -0.6784  0.4906 -0.4903
  181SOPE  H18Y20750   3.567   1.588   8.818 -0.0597 -1.2331 -0.0825
  181SOPE  H18Z20751   3.415   1.496   8.779 -0.1130 -0.1057 -1.1279
  182SOPE     N20752   5.144   3.545   5.576  0.2263  0.0659  0.2415
  182SOPE   HN120753   5.195   3.577   5.491 -0.0349 -0.2310 -0.0268
  182SOPE   HN220754   5.065   3.612   5.585  1.0955  1.0981  0.4245
  182SOPE   HN320755   5.209   3.557   5.657 -1.2973 -1.5268  1.7809
  182SOPE   C1220756   5.098   3.405   5.570  0.0390  0.4768 -0.3087
  182SOPE  H12A20757   5.165   3.351   5.498  1.2493  2.5233 -0.7927
  182SOPE  H12B20758   4.995   3.401   5.527  0.2835  1.3319 -1.0006
  182SOPE   C1120759   5.081   3.352   5.721  0.0162  0.0200 -0.3599
  182SOPE  H11A20760   5.025   3.256   5.715  0.2197 -0.2721  1.6652
  182SOPE  H11B20761   5.016   3.410   5.789 -1.4655 -1.4453 -0.4681
  182SOPE     P20762   5.272   3.412   5.883 -0.1469 -0.8039 -0.0139
  182SOPE   O1320763   5.282   3.545   5.817 -0.2490 -0.1424  0.0606
  182SOPE   O1420764   5.400   3.350   5.931 -0.1044  0.2422  0.6371
  182SOPE   O1220765   5.210   3.315   5.775  0.1606 -0.0267  0.1996
  182SOPE   O1120766   5.166   3.417   5.999 -0.6029 -0.0952 -0.0878
  182SOPE    C120767   5.113   3.292   6.050  0.2545  0.0998 -0.7761
  182SOPE    HA20768   5.192   3.214   6.045  2.6613  2.3273  0.3676
  182SOPE    HB20769   5.028   3.259   5.986 -0.9109 -0.5209  1.0303
  182SOPE    C220770   5.063   3.302   6.198 -0.0265 -0.3980 -0.3420
  182SOPE    HS20771   5.007   3.210   6.226  0.0667  0.1646  1.9271
  182SOPE   O2120772   4.993   3.422   6.223  0.3263  0.0008 -0.0947
  182SOPE   C2120773   4.875   3.430   6.174 -0.5743  0.5192  0.3457
  182SOPE   O2220774   4.811   3.340   6.113  0.1838 -0.4762  0.0175
  182SOPE   C2220775   4.817   3.569   6.209  0.2618  0.0469 -0.1860
  182SOPE   H2R20776   4.754   3.601   6.123  0.2661 -1.0040 -0.6057
  182SOPE   H2S20777   4.900   3.641   6.223  0.2117  0.0329  0.1805
  182SOPE    C320778   5.180   3.310   6.289 -0.3269  0.2039  0.2581
  182SOPE    HX20779   5.218   3.414   6.275 -1.6239  0.7666  0.7432
  182SOPE    HY20780   5.257   3.237   6.259 -0.4784  0.0996  0.1188
  182SOPE   O3120781   5.151   3.299   6.432 -0.6443  0.3691 -0.1117
  182SOPE   C3120782   5.122   3.179   6.482  0.0976 -0.6199  0.1962
  182SOPE   O3220783   5.100   3.075   6.425 -0.1736  0.1956  0.1466
  182SOPE   C3220784   5.092   3.206   6.630  0.5002 -0.3139 -0.1168
  182SOPE   H2X20785   4.984   3.232   6.624  1.2579  3.1251 -0.9627
  182SOPE   H2Y20786   5.140   3.299   6.668 -0.6733  0.4357 -0.4089
  182SOPE   C2320787   4.731   3.562   6.333 -0.4942 -0.8934 -0.1275
  182SOPE   H3R20788   4.647   3.495   6.307  0.2088 -1.9137  0.1477
  182SOPE   H3S20789   4.679   3.657   6.357 -0.6130 -0.6946 -1.1520
  182SOPE   C2420790   4.794   3.511   6.460 -0.0853  0.0981  0.1556
  182SOPE   H4R20791   4.707   3.507   6.529 -0.3127 -3.6836 -0.1402
  182SOPE   H4S20792   4.831   3.407   6.448  2.6642  0.9540  0.3519
  182SOPE   C2520793   4.909   3.593   6.524 -0.2785  0.0317 -0.2526
  182SOPE   H5R20794   5.001   3.592   6.461 -0.1103  2.2347 -0.1156
  182SOPE   H5S20795   4.894   3.702   6.536  0.3449 -0.0031  0.9696
  182SOPE   C2620796   4.938   3.560   6.678  0.2423 -0.0075 -0.5816
  182SOPE   H6R20797   4.842   3.581   6.730  0.9713 -1.5470  1.5177
  182SOPE   H6S20798   4.959   3.452   6.691 -2.1336 -0.4526  0.0175
  182SOPE   C2720799   5.048   3.657   6.734 -0.2939  0.5189  0.2573
  182SOPE   H7R20800   5.017   3.759   6.703 -0.0261 -0.1500 -2.4877
  182SOPE   H7S20801   5.043   3.653   6.845 -1.5739  1.7751  0.2789
  182SOPE   C2820802   5.186   3.633   6.677 -0.4269  0.3026  0.1574
  182SOPE   H8R20803   5.226   3.540   6.724 -1.4994  0.6051  1.7395
  182SOPE   H8S20804   5.192   3.627   6.567  2.8637  1.1889  0.1654
  182SOPE   C2920805   5.279   3.741   6.721  0.7217  0.4332  0.0975
  182SOPE   H9120806   5.251   3.834   6.668 -3.2291 -1.5054 -1.6437
  182SOPE  C21020807   5.363   3.739   6.829 -0.3847  0.5617 -0.3321
  182SOPE  H10120808   5.405   3.835   6.862  0.8999  0.5187 -1.7515
  182SOPE  C21120809   5.381   3.618   6.920 -0.3011 -0.3610 -0.1983
  182SOPE  H11R20810   5.480   3.573   6.902 -0.1959  0.5813 -2.1845
  182SOPE  H11S20811   5.306   3.538   6.902 -0.4219 -0.4593  0.6566
  182SOPE  C21220812   5.372   3.662   7.067 -0.2116  0.5236  0.4450
  182SOPE  H12R20813   5.271   3.705   7.085 -1.0923  0.0718 -2.7257
  182SOPE  H12S20814   5.441   3.743   7.099 -2.0352  1.4750  2.1682
  182SOPE  C21320815   5.405   3.540   7.158  0.2795 -0.1414  0.3178
  182SOPE  H13R20816   5.507   3.496   7.153  1.0773  1.4632  1.6183
  182SOPE  H13S20817   5.330   3.465   7.126 -1.8079  1.3815  1.4006
  182SOPE  C21420818   5.362   3.570   7.302  0.7294 -0.1766  0.2573
  182SOPE  H14R20819   5.258   3.606   7.314  0.9085  1.0370 -1.5380
  182SOPE  H14S20820   5.425   3.654   7.338  2.8354 -1.9047  0.8296
  182SOPE  C21520821   5.388   3.448   7.397  0.7098  0.1659 -0.4330
  182SOPE  H15R20822   5.498   3.432   7.391  0.4306 -1.4175 -2.1255
  182SOPE  H15S20823   5.333   3.361   7.356 -0.3058  0.2788  0.6320
  182SOPE  C21620824   5.346   3.465   7.544  0.6028  0.2567 -0.3037
  182SOPE  H16R20825   5.238   3.491   7.543  0.7821  0.9899 -0.4927
  182SOPE  H16S20826   5.395   3.554   7.589  0.1881  0.8411 -0.9917
  182SOPE  C21720827   5.365   3.339   7.632  0.5556 -0.6714  0.1734
  182SOPE  H17R20828   5.469   3.314   7.660  0.7874  1.6976  1.7279
  182SOPE  H17S20829   5.326   3.261   7.563 -0.8326 -0.3133  0.5032
  182SOPE  C21820830   5.277   3.332   7.756  0.7410 -1.0406 -0.5047
  182SOPE  H18R20831   5.172   3.340   7.720  0.5751 -0.0561  0.1789
  182SOPE  H18S20832   5.291   3.423   7.818 -1.1871 -0.8750 -0.2390
  182SOPE  H18T20833   5.294   3.245   7.822 -0.9194 -2.0035 -1.2770
  182SOPE   C3320834   5.123   3.080   6.713  0.4387 -0.1622  0.2254
  182SOPE   H3X20835   5.233   3.066   6.706  0.6087  1.4084 -0.4190
  182SOPE   H3Y20836   5.081   2.989   6.666 -0.1887 -0.3998  1.2005
  182SOPE   C3420837   5.088   3.091   6.860  0.0809 -0.1993 -0.2820
  182SOPE   H4X20838   5.100   2.991   6.909 -0.8235 -0.4495 -0.5535
  182SOPE   H4Y20839   4.979   3.110   6.864 -0.2613 -0.8238 -3.6986
  182SOPE   C3520840   5.168   3.200   6.932  0.3655  0.2853  0.6030
  182SOPE   H5X20841   5.118   3.295   6.905 -1.5669 -0.7648  0.3160
  182SOPE   H5Y20842   5.271   3.189   6.892 -0.7965  0.4763 -2.7275
  182SOPE   C3620843   5.160   3.180   7.080 -0.3100  0.5529  0.2183
  182SOPE   H6X20844   5.206   3.265   7.134 -0.9236  0.3184  1.1299
  182SOPE   H6Y20845   5.220   3.088   7.099 -1.1344 -0.0929 -0.2514
  182SOPE   C3720846   5.020   3.177   7.130 -0.2811  0.2330 -0.3723
  182SOPE   H7X20847   4.990   3.071   7.114  1.0087 -0.0491 -1.0891
  182SOPE   H7Y20848   4.965   3.253   7.071 -0.5475 -0.2340 -0.7303
  182SOPE   C3820849   4.996   3.209   7.278  0.3577 -0.3556  0.9506
  182SOPE   H8X20850   4.885   3.211   7.288  0.3096 -2.1061  0.9286
  182SOPE   H8Y20851   5.040   3.306   7.310 -3.4264  1.1838  2.1288
  182SOPE   C3920852   5.032   3.101   7.372  0.1979 -0.6404 -0.5301
  182SOPE   H9X20853   5.143   3.093   7.369  0.6724  3.3066  0.3843
  182SOPE   H9Y20854   4.994   3.007   7.328 -3.2337  1.6378 -2.8374
  182SOPE  C31020855   4.975   3.112   7.518  0.1295  0.6162 -0.2049
  182SOPE  H10X20856   4.872   3.154   7.516 -1.0387 -1.8750  1.5391
  182SOPE  H10Y20857   5.031   3.173   7.591  1.3087 -2.4134  1.6220
  182SOPE  C31120858   4.948   2.977   7.578 -0.0631  0.1498 -0.1484
  182SOPE  H11X20859   4.901   2.909   7.504  1.2363 -0.6820 -0.2264
  182SOPE  H11Y20860   4.887   3.004   7.667 -2.0488 -1.0206 -1.0909
  182SOPE  C31220861   5.079   2.912   7.631  0.1556 -0.1137  0.2079
  182SOPE  H12X20862   5.133   2.897   7.535 -3.2232  1.4365 -2.1243
  182SOPE  H12Y20863   5.055   2.810   7.668 -1.1018  0.7034  1.7321
  182SOPE  C31320864   5.171   2.988   7.732  0.6230 -0.3799  0.1511
  182SOPE  H13X20865   5.113   3.049   7.805  1.1015  1.1518 -0.6947
  182SOPE  H13Y20866   5.225   3.063   7.670 -1.2822  1.0350  0.0879
  182SOPE  C31420867   5.257   2.893   7.811  0.6058 -0.6926 -0.1728
  182SOPE  H14X20868   5.320   2.835   7.741  1.0760  0.6256 -0.8760
  182SOPE  H14Y20869   5.185   2.821   7.854  1.1217 -1.2065 -0.1601
  182SOPE  C31520870   5.351   2.960   7.917 -0.4876  0.3315 -0.2737
  182SOPE  H15X20871   5.397   3.051   7.872 -1.7365  0.9922 -0.2651
  182SOPE  H15Y20872   5.432   2.890   7.944 -0.6635  1.5115  4.2494
  182SOPE  C31620873   5.284   3.004   8.052  0.0413  0.1029  0.2056
  182SOPE  H16X20874   5.258   2.904   8.095 -0.2747 -0.8042 -1.9699
  182SOPE  H16Y20875   5.190   3.051   8.016  0.6695 -0.2981 -2.1265
  182SOPE  C31720876   5.372   3.104   8.138 -0.1794 -0.2176 -0.2397
  182SOPE  H17X20877   5.309   3.145   8.221  1.4692 -2.0073  2.0210
  182SOPE  H17Y20878   5.405   3.183   8.067  1.5237 -2.0066 -1.5104
  182SOPE  C31820879   5.489   3.023   8.203 -0.4280  0.8789  0.2763
  182SOPE  H18X20880   5.561   2.993   8.124  0.9599 -1.3298  2.2088
  182SOPE  H18Y20881   5.440   2.940   8.259 -2.7719 -0.0750 -2.8711
  182SOPE  H18Z20882   5.546   3.086   8.274 -1.2685  0.1355  1.6664
  183SOPE     N20883   0.453   2.410   6.288 -0.2624  0.2638 -0.0839
  183SOPE   HN120884   0.390   2.489   6.262 -0.3463  0.6519  1.2295
  183SOPE   HN220885   0.545   2.440   6.325  2.2108 -2.1319 -3.6851
  183SOPE   HN320886   0.480   2.360   6.201 -2.3647 -1.8158  0.3479
  183SOPE   C1220887   0.402   2.298   6.378  1.0501 -0.1560  0.3463
  183SOPE  H12A20888   0.425   2.330   6.482 -0.5181  0.2390  0.5989
  183SOPE  H12B20889   0.440   2.200   6.341 -1.0206 -0.8902  0.0670
  183SOPE   C1120890   0.241   2.293   6.372  0.1542  0.2457  0.2427
  183SOPE  H11A20891   0.198   2.195   6.402  0.9253 -1.5561 -3.8988
  183SOPE  H11B20892   0.214   2.302   6.265  2.1001 -0.8354 -0.3971
  183SOPE     P20893   0.052   2.459   6.451 -0.0486  0.2881  0.0062
  183SOPE   O1320894   0.009   2.528   6.325 -0.4446  0.3317  0.5201
  183SOPE   O1420895   0.034   2.534   6.571 -0.3302  0.3924 -1.1983
  183SOPE   O1220896   0.194   2.404   6.443 -0.8355 -0.0729  0.3030
  183SOPE   O1120897  -0.038   2.323   6.457  0.1036  0.2493 -0.2193
  183SOPE    C120898  -0.044   2.250   6.579 -0.3979  0.5078  0.3726
  183SOPE    HA20899   0.016   2.290   6.664 -1.4070 -1.6697  2.1860
  183SOPE    HB20900  -0.021   2.142   6.573 -0.3378  0.5819 -1.9395
  183SOPE    C220901  -0.197   2.264   6.624 -0.5633  0.4643 -0.2588
  183SOPE    HS20902  -0.262   2.221   6.545 -0.1245  1.2747 -1.0847
  183SOPE   O2120903  -0.231   2.402   6.631 -0.0841 -0.6655 -0.3556
  183SOPE   C2120904  -0.361   2.431   6.634 -0.4640  0.1841 -0.4252
  183SOPE   O2220905  -0.450   2.348   6.623  0.2831 -0.1155 -0.1184
  183SOPE   C2220906  -0.375   2.578   6.643 -0.3531 -0.1091 -0.7904
  183SOPE   H2R20907  -0.384   2.617   6.540 -2.0070  1.1084 -0.2254
  183SOPE   H2S20908  -0.278   2.619   6.677 -0.1664 -0.1459 -1.2694
  183SOPE    C320909  -0.212   2.186   6.751 -0.5823 -0.4583 -0.2196
  183SOPE    HX20910  -0.190   2.077   6.744  1.7573 -0.1088  0.7342
  183SOPE    HY20911  -0.315   2.202   6.788  0.5745  2.0815  2.2446
  183SOPE   O3120912  -0.134   2.245   6.864 -0.2992  0.1933 -0.3144
  183SOPE   C3120913  -0.034   2.167   6.905  0.2052 -0.4469  0.7796
  183SOPE   O3220914   0.007   2.070   6.845  0.6578  0.1537  0.2492
  183SOPE   C3220915   0.023   2.223   7.037 -0.8373  0.7325 -0.6084
  183SOPE   H2X20916  -0.024   2.316   7.075 -1.3373  0.0859  0.4305
  183SOPE   H2Y20917   0.130   2.240   7.011  0.4278 -1.9776  2.1625
  183SOPE   C2320918  -0.497   2.617   6.734 -0.0748  0.0905  0.6625
  183SOPE   H3R20919  -0.580   2.543   6.737  0.7258 -0.7996  1.2730
  183SOPE   H3S20920  -0.549   2.700   6.682 -2.1535 -1.4184  0.2165
  183SOPE   C2420921  -0.461   2.657   6.879 -0.1578 -0.4025  0.0136
  183SOPE   H4R20922  -0.372   2.722   6.895 -0.4687 -0.1763  0.8996
  183SOPE   H4S20923  -0.552   2.717   6.899 -0.2294 -0.8739  1.2155
  183SOPE   C2520924  -0.444   2.540   6.975  0.3445  0.5540 -0.1186
  183SOPE   H5R20925  -0.524   2.468   6.950  1.0743  0.2308 -1.6826
  183SOPE   H5S20926  -0.349   2.492   6.942 -1.1140 -2.5905 -0.0569
  183SOPE   C2620927  -0.431   2.578   7.122 -0.2212  0.1018  0.4465
  183SOPE   H6R20928  -0.349   2.652   7.128  0.3696 -0.5395  0.3487
  183SOPE   H6S20929  -0.525   2.635   7.141 -0.9448 -0.5975 -0.8517
  183SOPE   C2720930  -0.393   2.455   7.207  0.0898  0.1125  0.3522
  183SOPE   H7R20931  -0.473   2.380   7.186  0.0436  0.3677 -0.4272
  183SOPE   H7S20932  -0.299   2.401   7.182  0.2010  0.7936 -0.7730
  183SOPE   C2820933  -0.412   2.486   7.361  0.6610  0.3388  1.1730
  183SOPE   H8R20934  -0.376   2.394   7.411  0.6178 -1.1809 -1.4351
  183SOPE   H8S20935  -0.345   2.569   7.393  0.0998  0.6880  1.4494
  183SOPE   C2920936  -0.552   2.515   7.409  0.3511  0.6093 -0.1786
  183SOPE   H9120937  -0.619   2.574   7.344 -0.8368  0.4196  0.8384
  183SOPE  C21020938  -0.612   2.476   7.527 -0.1959  0.3756  0.0514
  183SOPE  H10120939  -0.715   2.509   7.547 -0.3886  0.3437 -0.8482
  183SOPE  C21120940  -0.548   2.401   7.639 -0.0541  0.0459  0.2482
  183SOPE  H11R20941  -0.475   2.466   7.691  0.0202 -0.6194  0.9944
  183SOPE  H11S20942  -0.473   2.327   7.603 -1.5185  0.2722 -3.7549
  183SOPE  C21220943  -0.649   2.318   7.716  0.1599  0.4003 -0.2905
  183SOPE  H12R20944  -0.727   2.278   7.648  0.1192  0.9592 -0.5790
  183SOPE  H12S20945  -0.713   2.368   7.791 -0.5912 -3.6633  2.0640
  183SOPE  C21320946  -0.593   2.204   7.807 -0.1069  0.1858 -0.0483
  183SOPE  H13R20947  -0.516   2.264   7.860 -1.0613  1.9183 -0.5148
  183SOPE  H13S20948  -0.540   2.124   7.752 -1.3939  0.4388 -1.7711
  183SOPE  C21420949  -0.682   2.145   7.926 -0.6358 -0.6294  0.4537
  183SOPE  H14R20950  -0.786   2.140   7.888  0.3722 -3.9482 -2.4582
  183SOPE  H14S20951  -0.685   2.211   8.015 -0.8722  1.3859 -0.9709
  183SOPE  C21520952  -0.637   2.001   7.947 -0.0844  0.0071  0.5554
  183SOPE  H15R20953  -0.527   2.004   7.959  0.4012  1.5692 -3.0384
  183SOPE  H15S20954  -0.660   1.944   7.855 -2.2213 -0.1812  1.1538
  183SOPE  C21620955  -0.714   1.920   8.057  0.2524 -0.0489 -0.6658
  183SOPE  H16R20956  -0.824   1.918   8.043 -0.0421  0.1658  1.2786
  183SOPE  H16S20957  -0.686   1.961   8.157 -0.0951 -2.3636  0.4407
  183SOPE  C21720958  -0.681   1.772   8.050 -0.3314  0.2124 -0.3453
  183SOPE  H17R20959  -0.577   1.758   8.087 -0.5115  1.4336  0.7107
  183SOPE  H17S20960  -0.683   1.727   7.948 -1.0813  0.1302 -0.2960
  183SOPE  C21820961  -0.763   1.693   8.148  0.6145 -0.1410 -0.5832
  183SOPE  H18R20962  -0.747   1.735   8.249 -0.2751 -2.3278  0.5270
  183SOPE  H18S20963  -0.738   1.585   8.157  1.7461  0.2093  0.9612
  183SOPE  H18T20964  -0.870   1.699   8.119 -0.2805 -2.5655  1.8062
  183SOPE   C3320965   0.031   2.122   7.161  0.4130  0.0655 -0.5422
  183SOPE   H3X20966   0.089   2.032   7.131  0.4425  0.1544 -0.7529
  183SOPE   H3Y20967  -0.072   2.086   7.184 -0.8987  2.3580 -2.4051
  183SOPE   C3420968   0.076   2.197   7.289 -0.4632  0.4801 -0.0781
  183SOPE   H4X20969   0.034   2.299   7.302  0.6341  1.0119 -0.5355
  183SOPE   H4Y20970   0.187   2.198   7.276 -0.2572 -0.3150  1.3886
  183SOPE   C3520971   0.054   2.104   7.412 -0.1706 -0.5637 -0.3136
  183SOPE   H5X20972   0.068   1.995   7.391 -0.4006 -1.1090  2.0182
  183SOPE   H5Y20973  -0.044   2.124   7.459  0.8685 -1.3685  2.3927
  183SOPE   C3620974   0.153   2.135   7.526  0.5534 -0.5730  0.0784
  183SOPE   H6X20975   0.122   2.217   7.594  0.7402  0.9123 -1.5665
  183SOPE   H6Y20976   0.248   2.166   7.477  1.0108 -0.1526  1.1874
  183SOPE   C3720977   0.173   2.012   7.621 -0.6887  0.0708  0.0447
  183SOPE   H7X20978   0.265   2.034   7.679 -1.1542  0.4983  0.6369
  183SOPE   H7Y20979   0.200   1.921   7.563 -0.6758 -0.7754  1.3184
  183SOPE   C3820980   0.043   1.988   7.703 -0.1625  0.5603  0.0355
  183SOPE   H8X20981  -0.049   1.971   7.643 -0.5894  0.1387  0.8109
  183SOPE   H8Y20982   0.027   2.072   7.774 -0.7361 -0.4566  1.1167
  183SOPE   C3920983   0.061   1.855   7.781 -0.0964 -0.2899  0.0765
  183SOPE   H9X20984   0.125   1.784   7.724 -0.3014 -1.1650  0.9090
  183SOPE   H9Y20985  -0.035   1.801   7.794 -0.1628  0.0632  1.1957
  183SOPE  C31020986   0.128   1.865   7.925 -0.0587 -0.2247  0.6718
  183SOPE  H10X20987   0.074   1.949   7.974  0.1947  0.7627 -0.6841
  183SOPE  H10Y20988   0.235   1.890   7.909 -0.5039  0.8439 -0.8781
  183SOPE  C31120989   0.116   1.737   8.014  0.2168  0.2651 -1.1871
  183SOPE  H11X20990   0.170   1.651   7.969  0.3042 -1.5106  2.0049
  183SOPE  H11Y20991   0.011   1.701   8.009 -0.6707  2.0408  1.9423
  183SOPE  C31220992   0.164   1.760   8.155  0.0676 -0.1421  0.0900
  183SOPE  H12X20993   0.250   1.830   8.146 -0.9378  0.9363 -1.6893
  183SOPE  H12Y20994   0.195   1.665   8.203 -2.1205 -0.5898  0.6961
  183SOPE  C31320995   0.056   1.834   8.228  0.1059  0.0601  0.1466
  183SOPE  H13X20996  -0.039   1.776   8.227  1.0056 -1.5121  1.3244
  183SOPE  H13Y20997   0.033   1.926   8.170 -3.5853 -0.3515  0.6679
  183SOPE  C31420998   0.087   1.864   8.379  0.2188 -0.1941  0.0843
  183SOPE  H14X20999   0.138   1.777   8.426  0.0596 -0.3044  0.0541
  183SOPE  H14Y21000  -0.011   1.884   8.427 -1.0773 -0.9164 -2.1258
  183SOPE  C31521001   0.179   1.978   8.406 -0.3587  0.5201 -0.2458
  183SOPE  H15X21002   0.278   1.986   8.357 -1.5505  0.8125 -2.8205
  183SOPE  H15Y21003   0.193   1.978   8.516 -0.2383  3.8777 -0.1509
  183SOPE  C31621004   0.115   2.118   8.380  0.8355  0.7122  0.2357
  183SOPE  H16X21005   0.025   2.145   8.439  2.5368  2.4141  2.2241
  183SOPE  H16Y21006   0.094   2.119   8.271  0.0781 -2.3585  0.2650
  183SOPE  C31721007   0.211   2.238   8.396  0.3522 -0.0600  0.2528
  183SOPE  H17X21008   0.276   2.259   8.309 -0.5028 -1.7420 -0.8632
  183SOPE  H17Y21009   0.270   2.217   8.488 -0.3248  1.5889  1.1088
  183SOPE  C31821010   0.132   2.372   8.413  0.4256  0.1292 -0.4663
  183SOPE  H18X21011   0.097   2.405   8.312 -3.4027  2.8628  1.4758
  183SOPE  H18Y21012   0.205   2.452   8.438  0.2709  1.2623 -3.2359
  183SOPE  H18Z21013   0.044   2.369   8.480 -1.2750  1.7349 -2.4727
  184SOPE     N21014   1.170   3.546   6.258 -0.4764 -0.3293  0.1140
  184SOPE   HN121015   1.192   3.448   6.283 -3.4045 -1.2782 -0.6142
  184SOPE   HN221016   1.185   3.555   6.155 -2.3559 -0.6960 -0.2237
  184SOPE   HN321017   1.233   3.615   6.304 -0.1815 -1.4196  1.3950
  184SOPE   C1221018   1.024   3.559   6.284 -0.8253 -0.4896  0.4300
  184SOPE  H12A21019   1.021   3.598   6.388  3.1360 -2.1081  1.3322
  184SOPE  H12B21020   0.985   3.455   6.275  0.2378 -0.8233 -0.5786
  184SOPE   C1121021   0.962   3.663   6.187 -0.2396 -0.2533  0.0835
  184SOPE  H11A21022   0.857   3.682   6.219 -1.5836  0.4669 -4.1871
  184SOPE  H11B21023   0.964   3.626   6.083 -5.4201 -0.1578 -0.3454
  184SOPE     P21024   0.991   3.914   6.116  0.1150 -0.2847  0.2486
  184SOPE   O1321025   0.848   3.905   6.080  0.3782  0.0642  0.6693
  184SOPE   O1421026   1.091   3.931   6.010 -0.1594  0.1466  0.1521
  184SOPE   O1221027   1.036   3.789   6.206  0.0328  0.4550  0.1420
  184SOPE   O1121028   1.004   4.029   6.224  0.1217 -0.1811  0.4370
  184SOPE    C121029   0.944   3.998   6.351  0.2015 -0.4139  0.1583
  184SOPE    HA21030   0.867   3.918   6.348 -0.1613 -0.1290 -3.8958
  184SOPE    HB21031   0.898   4.097   6.373  2.1410  1.0959 -2.1261
  184SOPE    C221032   1.051   3.969   6.463  0.0080 -0.4440  0.1931
  184SOPE    HS21033   1.098   3.871   6.441 -0.6709 -1.2275  1.9565
  184SOPE   O2121034   0.993   3.981   6.594 -0.1739  0.1925 -0.3356
  184SOPE   C2121035   0.942   3.857   6.642  0.5608 -0.0782  0.9993
  184SOPE   O2221036   0.906   3.766   6.564  0.4370 -0.1277  0.2547
  184SOPE   C2221037   0.952   3.835   6.792 -0.3637 -0.3175 -0.0450
  184SOPE   H2R21038   0.924   3.930   6.842 -1.1092 -0.8498  0.5718
  184SOPE   H2S21039   1.058   3.806   6.806 -0.4024 -0.2941  0.3068
  184SOPE    C321040   1.165   4.076   6.431 -0.3806  0.7711 -0.6683
  184SOPE    HX21041   1.113   4.174   6.432  0.6235  1.3219  1.1141
  184SOPE    HY21042   1.206   4.043   6.333  0.1566 -1.8212  0.3521
  184SOPE   O3121043   1.271   4.064   6.521  0.5257  0.3692 -0.1250
  184SOPE   C3121044   1.300   4.161   6.598  0.6588  0.1008  0.6435
  184SOPE   O3221045   1.245   4.272   6.605  0.7502  0.5281 -0.2017
  184SOPE   C3221046   1.423   4.128   6.681  0.1919  0.3985 -0.2807
  184SOPE   H2X21047   1.444   4.213   6.749 -2.3053 -0.8763  2.2898
  184SOPE   H2Y21048   1.504   4.099   6.611 -0.6898 -0.6520 -0.8866
  184SOPE   C2321049   0.868   3.710   6.835 -0.8017  0.1751 -0.3921
  184SOPE   H3R21050   0.893   3.617   6.780 -0.5845 -0.9899  1.5771
  184SOPE   H3S21051   0.760   3.736   6.838 -0.2353  2.6628  0.8014
  184SOPE   C2421052   0.906   3.670   6.980 -0.4880  0.3670  0.0584
  184SOPE   H4R21053   1.017   3.660   6.983 -0.3739  1.5543  1.4658
  184SOPE   H4S21054   0.871   3.751   7.049  0.6107  0.1412  0.9198
  184SOPE   C2521055   0.855   3.530   7.014 -0.4503 -0.1917 -0.1366
  184SOPE   H5R21056   0.771   3.489   6.954  0.9752 -2.1178 -0.9195
  184SOPE   H5S21057   0.940   3.462   6.989 -0.2579  0.7038 -2.0697
  184SOPE   C2621058   0.822   3.511   7.161  0.1740 -0.1454  0.4031
  184SOPE   H6R21059   0.832   3.403   7.184 -2.3070 -1.0836 -2.2935
  184SOPE   H6S21060   0.896   3.569   7.220  0.4517  0.9415 -0.9553
  184SOPE   C2721061   0.677   3.535   7.198 -0.1809 -0.0951  0.7697
  184SOPE   H7R21062   0.660   3.625   7.135  0.1496 -0.2966  0.3859
  184SOPE   H7S21063   0.603   3.461   7.161 -0.1121  0.1408  0.1457
  184SOPE   C2821064   0.666   3.562   7.345  0.3153 -0.3243 -0.5102
  184SOPE   H8R21065   0.712   3.661   7.362 -0.4633  0.2337 -1.5299
  184SOPE   H8S21066   0.559   3.576   7.373  0.8345  0.8528  0.9946
  184SOPE   C2921067   0.720   3.458   7.441 -0.0367 -0.1310 -0.0509
  184SOPE   H9121068   0.657   3.369   7.431 -0.3739 -0.1289  1.7322
  184SOPE  C21021069   0.814   3.464   7.537 -0.1984  0.1553  0.6734
  184SOPE  H10121070   0.830   3.368   7.587 -0.6834 -0.5078 -0.4157
  184SOPE  C21121071   0.897   3.581   7.587 -0.5152  0.8295 -0.2479
  184SOPE  H11R21072   0.850   3.679   7.565 -2.5553  0.0208  0.3063
  184SOPE  H11S21073   0.996   3.586   7.536 -0.7146  0.1913 -0.7187
  184SOPE  C21221074   0.925   3.569   7.738  0.4090 -0.7161  0.4644
  184SOPE  H12R21075   0.993   3.650   7.770 -0.3441  0.4614 -0.8032
  184SOPE  H12S21076   0.974   3.470   7.753  1.6199 -0.1697  0.2525
  184SOPE  C21321077   0.799   3.598   7.826  0.2435  0.1442 -0.3953
  184SOPE  H13R21078   0.729   3.511   7.818  2.3553 -1.8528  1.3106
  184SOPE  H13S21079   0.749   3.688   7.784  1.0094  0.1711 -1.2695
  184SOPE  C21421080   0.830   3.611   7.975 -0.4355  0.0241 -0.6267
  184SOPE  H14R21081   0.746   3.665   8.024  3.5501  3.5141  3.2250
  184SOPE  H14S21082   0.912   3.678   8.007 -0.7158 -0.9683  2.4228
  184SOPE  C21521083   0.860   3.469   8.039  0.2248 -0.5250  0.3879
  184SOPE  H15R21084   0.955   3.438   7.989  0.1473  1.3984 -1.0520
  184SOPE  H15S21085   0.781   3.395   8.017 -0.2785 -0.1077  0.7805
  184SOPE  C21621086   0.876   3.471   8.186  0.9837  0.5766  0.2646
  184SOPE  H16R21087   0.788   3.522   8.230 -1.1973 -0.6923 -2.3086
  184SOPE  H16S21088   0.965   3.531   8.212  1.0583 -0.0771  1.5987
  184SOPE  C21721089   0.917   3.343   8.258  0.7457 -0.1105 -0.6186
  184SOPE  H17R21090   1.006   3.298   8.209  1.5104 -1.6089  1.9851
  184SOPE  H17S21091   0.839   3.265   8.244 -0.5421  0.9228  0.5692
  184SOPE  C21821092   0.939   3.349   8.412 -0.4399 -0.0527  0.2337
  184SOPE  H18R21093   0.896   3.258   8.459  0.3542 -0.8970 -0.6404
  184SOPE  H18S21094   0.901   3.440   8.465 -0.5356 -0.3346  0.6489
  184SOPE  H18T21095   1.048   3.362   8.427 -0.4684 -0.5549  0.8987
  184SOPE   C3321096   1.402   4.002   6.772  0.4818 -0.2815 -0.0837
  184SOPE   H3X21097   1.493   3.978   6.830 -0.5173  0.8631  2.0743
  184SOPE   H3Y21098   1.360   3.926   6.703 -2.7748  1.3323 -0.0561
  184SOPE   C3421099   1.309   4.039   6.896  0.3627  0.3945  0.0365
  184SOPE   H4X21100   1.203   4.061   6.873 -0.4409 -2.6534  0.3967
  184SOPE   H4Y21101   1.346   4.129   6.949  2.5217 -0.1526 -0.4362
  184SOPE   C3521102   1.295   3.932   7.008 -0.6810  0.1472  0.2737
  184SOPE   H5X21103   1.401   3.919   7.038  0.2046 -0.1980 -2.6672
  184SOPE   H5Y21104   1.256   3.833   6.975 -0.7608 -0.5271  2.2427
  184SOPE   C3621105   1.212   3.999   7.123  0.6707  0.1782  0.1295
  184SOPE   H6X21106   1.111   4.026   7.086  1.1959 -0.0518 -1.5488
  184SOPE   H6Y21107   1.269   4.092   7.145 -0.1595  0.7360 -0.0170
  184SOPE   C3721108   1.190   3.899   7.248  0.2228  0.1333  0.0730
  184SOPE   H7X21109   1.289   3.872   7.289  0.0509 -1.4712 -0.5232
  184SOPE   H7Y21110   1.149   3.804   7.207  0.7395  0.7014 -1.8301
  184SOPE   C3821111   1.093   3.950   7.349  0.6354  0.4308 -0.6052
  184SOPE   H8X21112   0.994   3.949   7.299  0.8806  1.1417 -1.1406
  184SOPE   H8Y21113   1.116   4.054   7.380 -1.4825  1.0013 -0.7562
  184SOPE   C3921114   1.094   3.847   7.464 -0.0184 -0.7313  0.1411
  184SOPE   H9X21115   1.051   3.756   7.418  0.5241 -1.1387  0.4254
  184SOPE   H9Y21116   1.016   3.879   7.535  2.0018  0.2284  2.0607
  184SOPE  C31021117   1.227   3.803   7.532 -0.3433 -0.1568  0.7752
  184SOPE  H10X21118   1.279   3.901   7.544 -2.2175  0.9893 -0.0164
  184SOPE  H10Y21119   1.292   3.744   7.464  0.6506 -1.3062  2.6474
  184SOPE  C31121120   1.216   3.750   7.668  0.4419 -0.1228 -0.3889
  184SOPE  H11X21121   1.183   3.644   7.665  2.6076 -0.8727  0.3913
  184SOPE  H11Y21122   1.143   3.805   7.732 -1.1481  0.3378 -2.4695
  184SOPE  C31221123   1.348   3.736   7.750  0.2083 -0.3176 -0.2759
  184SOPE  H12X21124   1.403   3.831   7.760  1.5091 -0.9881 -0.8766
  184SOPE  H12Y21125   1.400   3.657   7.692 -1.3624 -1.2060 -0.5360
  184SOPE  C31321126   1.338   3.673   7.889  0.5119 -0.0818  0.0991
  184SOPE  H13X21127   1.298   3.570   7.875 -0.2556  0.3688 -1.2603
  184SOPE  H13Y21128   1.258   3.722   7.948 -1.8080 -1.6074 -1.5923
  184SOPE  C31421129   1.473   3.684   7.957  0.6428  0.5127 -0.5251
  184SOPE  H14X21130   1.516   3.786   7.949 -0.0200  0.8039 -0.3749
  184SOPE  H14Y21131   1.544   3.624   7.896  1.3218  1.9409 -1.1973
  184SOPE  C31521132   1.468   3.653   8.109 -0.1800 -0.1282  0.1287
  184SOPE  H15X21133   1.384   3.703   8.162  0.3726 -0.8849  1.8094
  184SOPE  H15Y21134   1.567   3.690   8.141 -1.3080  1.3073  2.2570
  184SOPE  C31621135   1.451   3.500   8.135  0.0136 -0.3552 -0.1112
  184SOPE  H16X21136   1.550   3.450   8.139 -0.0997 -0.5263  0.5827
  184SOPE  H16Y21137   1.394   3.450   8.053 -0.8469  0.0784  0.2115
  184SOPE  C31721138   1.391   3.458   8.269 -0.2488 -0.3020  0.1320
  184SOPE  H17X21139   1.332   3.364   8.264 -2.4734  0.9734  0.8384
  184SOPE  H17Y21140   1.310   3.531   8.290 -2.7110 -2.2389 -1.8754
  184SOPE  C31821141   1.492   3.460   8.383 -0.0237 -0.5161  0.9089
  184SOPE  H18X21142   1.426   3.457   8.472 -3.6163 -5.8195 -1.4433
  184SOPE  H18Y21143   1.555   3.551   8.373 -3.2931  1.9933  1.5079
  184SOPE  H18Z21144   1.545   3.365   8.403 -1.3426 -1.6803 -0.8358
  185SAPI   C1221145   3.294   0.651  10.640 -0.9944  0.2169  0.2242
  185SAPI    H221146   3.258   0.562  10.583 -1.5706  1.0580 -0.7668
  185SAPI    O221147   3.433   0.646  10.668 -0.4115 -0.4442 -0.4295
  185SAPI   HO221148   3.466   0.563  10.634  1.3792  1.5168 -4.1254
  185SAPI   C1321149   3.283   0.773  10.555 -0.0016  0.4366  0.5347
  185SAPI    H321150   3.180   0.800  10.524  0.0720  1.5511  1.1973
  185SAPI    O321151   3.357   0.768  10.428  0.8075 -0.2431  0.3068
  185SAPI   HO321152   3.444   0.728  10.437  1.5164  0.9874 -0.7741
  185SAPI   C1421153   3.320   0.904  10.629 -0.8369  0.0033 -0.3484
  185SAPI    H421154   3.428   0.900  10.653 -0.9975  0.6970  0.5505
  185SAPI    O421155   3.307   1.015  10.543 -0.0924 -0.2397  0.0762
  185SAPI   HO421156   3.331   0.978  10.457  1.5717 -1.0872  0.8553
  185SAPI   C1521157   3.236   0.917  10.761  0.1750 -0.1424 -0.1002
  185SAPI    H521158   3.128   0.931  10.744  0.0128 -1.2941 -0.1222
  185SAPI    O521159   3.274   1.029  10.836 -0.2197  0.1476  0.3849
  185SAPI   HO521160   3.367   1.019  10.857  0.4650  0.5072 -2.1437
  185SAPI   C1621161   3.245   0.789  10.845  0.4820  0.3943  0.8835
  185SAPI    H621162   3.349   0.784  10.884  0.6758 -0.4785  0.2870
  185SAPI    O621163   3.162   0.804  10.955 -0.1243 -0.1635 -0.1298
  185SAPI   HO621164   3.101   0.730  10.954  0.3040 -0.5142 -1.3389
  185SAPI   C1121165   3.210   0.665  10.760  0.7325  0.8473 -0.7420
  185SAPI    H121166   3.111   0.677  10.713  0.4331  1.4921  0.0370
  185SAPI     P21167   3.072   0.473  10.885 -0.0423 -0.2476  0.7293
  185SAPI   O1321168   2.981   0.577  10.934  0.4852  0.2558  0.4488
  185SAPI   O1421169   3.093   0.355  10.970  0.2035 -0.0197  0.1851
  185SAPI   O1221170   3.218   0.546  10.841 -0.1159 -0.1483  1.0295
  185SAPI   O1121171   3.020   0.427  10.744  0.5178 -0.3876  0.3690
  185SAPI    C121172   3.061   0.299  10.694  0.0401 -0.1941  0.7467
  185SAPI    HA21173   3.171   0.306  10.681 -0.2482  0.2921 -1.9060
  185SAPI    HB21174   3.028   0.212  10.755 -2.4262  0.0739 -0.1121
  185SAPI    C221175   3.011   0.264  10.548 -0.4892  0.3256 -0.1578
  185SAPI    HS21176   3.037   0.160  10.520 -0.8933  0.7965 -2.5045
  185SAPI   O2121177   3.073   0.356  10.458 -0.3514 -0.1662 -0.3196
  185SAPI   C2121178   3.176   0.306  10.390  0.0352 -0.7100 -0.3128
  185SAPI   O2221179   3.226   0.197  10.411 -0.2185  0.2168  0.8001
  185SAPI   C2221180   3.203   0.400  10.272  0.2479  0.0622  0.5152
  185SAPI   H2R21181   3.109   0.420  10.217  0.5539 -0.4252 -0.1975
  185SAPI   H2S21182   3.233   0.490  10.330  1.5391 -0.1240  0.1596
  185SAPI    C321183   2.852   0.269  10.535  0.2065 -0.3274  0.2347
  185SAPI    HX21184   2.829   0.377  10.549  2.6494  0.6193 -1.9603
  185SAPI    HY21185   2.803   0.216  10.619 -0.0177  0.4693  0.6175
  185SAPI   O3121186   2.800   0.233  10.403 -0.2133 -0.3448 -0.5460
  185SAPI   C3121187   2.784   0.104  10.389 -1.0489 -0.4022  0.3106
  185SAPI   O3221188   2.811   0.024  10.478 -0.6921 -0.2734 -0.2795
  185SAPI   C3221189   2.726   0.063  10.251  0.3059  0.9726  0.1574
  185SAPI   H2X21190   2.803   0.057  10.171 -0.3369 -1.0820 -0.3788
  185SAPI   H2Y21191   2.644   0.134  10.227  1.1742  1.9043 -0.1094
  185SAPI   C2321192   3.310   0.346  10.179  0.3526  0.3905 -0.0407
  185SAPI   H3R21193   3.285   0.250  10.128  1.0301 -1.0199  2.1495
  185SAPI   H3S21194   3.391   0.311  10.247 -2.0583 -2.4703  1.6184
  185SAPI   C2421195   3.365   0.449  10.086  0.5064 -0.5011  0.6099
  185SAPI   H4R21196   3.452   0.395  10.042  0.0279 -0.4145 -0.4721
  185SAPI   H4S21197   3.395   0.539  10.144  1.2595  0.3770 -1.0562
  185SAPI   C2521198   3.264   0.493   9.974 -0.1937  0.5143  0.4468
  185SAPI   H5R21199   3.168   0.533  10.011 -0.6830 -0.1161 -0.1068
  185SAPI   C2621200   3.266   0.460   9.843 -0.6763 -0.1719  0.4185
  185SAPI   H6R21201   3.181   0.496   9.782 -1.2881 -3.7195 -1.0923
  185SAPI   C2721202   3.369   0.394   9.761  0.5985 -0.2527 -0.5030
  185SAPI   H7R21203   3.461   0.400   9.823 -0.8165 -0.2158  1.7280
  185SAPI   H7S21204   3.399   0.460   9.677  3.0248 -1.7804 -0.9126
  185SAPI   C2821205   3.356   0.246   9.721  0.0042 -0.2831  0.1695
  185SAPI   H8R21206   3.278   0.197   9.781 -0.1110  1.0618  1.1627
  185SAPI   C2921207   3.410   0.185   9.613 -0.5594 -0.1774 -0.4309
  185SAPI   H9R21208   3.388   0.080   9.588 -1.9984  0.2566 -1.0584
  185SAPI  C21021209   3.500   0.255   9.510  0.3054  0.5208 -0.4223
  185SAPI  H10R21210   3.602   0.213   9.498 -0.1086 -0.7529  0.2840
  185SAPI  H10S21211   3.518   0.357   9.551 -0.4892 -0.2680  2.0572
  185SAPI  C21121212   3.418   0.285   9.388 -0.0285  0.2847 -0.8688
  185SAPI  H11R21213   3.315   0.318   9.407 -0.0040  0.8975 -1.7362
  185SAPI  C21221214   3.469   0.281   9.264  1.3559 -0.1442  0.0250
  185SAPI  H12R21215   3.410   0.316   9.178 -1.8195 -0.6470  1.8455
  185SAPI  C21321216   3.608   0.251   9.229 -0.9869 -0.2579  0.3519
  185SAPI  H13R21217   3.668   0.240   9.322 -1.5835  0.9367  0.8912
  185SAPI  H13S21218   3.657   0.321   9.158 -2.0317  0.3876  0.2538
  185SAPI  C21421219   3.605   0.113   9.166 -0.2350 -0.3304  0.1744
  185SAPI  H14R21220   3.609   0.027   9.234  0.1709 -1.5062 -1.2618
  185SAPI  C21521221   3.574   0.094   9.040 -0.2660 -0.1888  0.0577
  185SAPI  H15R21222   3.545  -0.009   9.015  2.1928 -0.5653 -1.5499
  185SAPI  C21621223   3.553   0.196   8.935  0.6417  0.0524 -0.6588
  185SAPI  H16R21224   3.495   0.282   8.975  2.1317  0.2554  1.2442
  185SAPI  H16S21225   3.504   0.151   8.847 -3.5223  2.0088  0.3773
  185SAPI  C21721226   3.676   0.270   8.882  0.2356 -0.4072  0.0720
  185SAPI  H17R21227   3.760   0.206   8.846  1.3959  1.6985 -1.1121
  185SAPI  H17S21228   3.726   0.328   8.963 -2.9200 -1.7080  3.2415
  185SAPI  C21821229   3.639   0.374   8.770  0.2416 -0.2227 -1.0250
  185SAPI  H18R21230   3.738   0.415   8.741  2.6009 -1.7521  3.8156
  185SAPI  H18S21231   3.583   0.458   8.816 -4.0042 -2.1151 -2.2129
  185SAPI  C21921232   3.565   0.330   8.644  0.0958  0.1254  0.2759
  185SAPI  H19R21233   3.469   0.277   8.664  1.3467 -2.2476  0.3011
  185SAPI  H19S21234   3.630   0.256   8.592  0.4562  1.0530 -0.6159
  185SAPI  C22021235   3.560   0.455   8.546 -0.4423 -1.3492 -0.7161
  185SAPI  H20R21236   3.493   0.448   8.458 -1.3124 -1.4373 -0.0610
  185SAPI  H20S21237   3.660   0.479   8.504 -0.8577 -1.2504 -1.6804
  185SAPI  H20T21238   3.528   0.544   8.604  1.1152 -3.0637  3.0711
  185SAPI   C3321239   2.664  -0.078  10.247 -0.8543 -0.5068  0.0084
  185SAPI   H3X21240   2.601  -0.106  10.335  1.9649 -1.3524  1.8833
  185SAPI   H3Y21241   2.745  -0.154  10.248 -1.6269 -1.3480  0.9756
  185SAPI   C3421242   2.598  -0.114  10.114 -0.1796 -1.3878  0.7036
  185SAPI   H4X21243   2.505  -0.054  10.107  1.4583  1.1997 -0.2193
  185SAPI   H4Y21244   2.554  -0.216  10.115 -0.6782 -1.3039 -2.1528
  185SAPI   C3521245   2.676  -0.090   9.986  0.3154 -0.1602 -0.3693
  185SAPI   H5X21246   2.775  -0.141   9.987  0.3771 -0.0837 -1.1573
  185SAPI   H5Y21247   2.703   0.018   9.976 -1.8846  0.4005 -0.8306
  185SAPI   C3621248   2.582  -0.116   9.868  0.3304 -0.1020  0.0059
  185SAPI   H6X21249   2.492  -0.051   9.871 -0.0339 -0.6246  0.9051
  185SAPI   H6Y21250   2.541  -0.218   9.884 -0.4007  0.1333 -0.3402
  185SAPI   C3721251   2.659  -0.099   9.735 -0.2685 -0.0359 -0.3413
  185SAPI   H7X21252   2.753  -0.159   9.722 -0.7058 -0.8957  0.3365
  185SAPI   H7Y21253   2.690   0.007   9.726  0.2453 -0.1388  0.1457
  185SAPI   C3821254   2.572  -0.133   9.611 -0.7807 -0.3526  0.5307
  185SAPI   H8X21255   2.494  -0.055   9.627  0.4548  0.5715  2.4872
  185SAPI   H8Y21256   2.534  -0.237   9.611 -1.4130 -0.1410 -1.2024
  185SAPI   C3921257   2.650  -0.106   9.479 -0.0175 -1.2003 -0.6514
  185SAPI   H9X21258   2.734  -0.178   9.468  1.3220  0.4736 -1.9410
  185SAPI   H9Y21259   2.708  -0.012   9.470 -0.8181 -0.9007 -4.6003
  185SAPI  C31021260   2.565  -0.087   9.349 -0.2031  0.6103  0.2850
  185SAPI  H10X21261   2.483  -0.012   9.351  0.6506  1.5563  0.3114
  185SAPI  H10Y21262   2.527  -0.187   9.319  1.2333  0.7332 -2.2511
  185SAPI  C31121263   2.651  -0.041   9.232  0.9197  0.7485 -0.2200
  185SAPI  H11X21264   2.711   0.046   9.267  0.5070  0.2241  1.9339
  185SAPI  H11Y21265   2.589  -0.018   9.142 -0.1572 -2.0079 -0.2623
  185SAPI  C31221266   2.755  -0.147   9.189 -0.2451  0.1501 -0.7188
  185SAPI  H12X21267   2.700  -0.241   9.167 -0.1215  0.0276 -0.4975
  185SAPI  H12Y21268   2.829  -0.166   9.269 -0.1578  2.0258 -0.2927
  185SAPI  C31321269   2.817  -0.113   9.054 -0.8223  0.8002  0.3391
  185SAPI  H13X21270   2.746  -0.113   8.970  1.7240  0.2309 -1.9690
  185SAPI  H13Y21271   2.896  -0.188   9.032 -1.6284  0.5751 -2.0020
  185SAPI  C31421272   2.905   0.017   9.071  0.3697 -0.6192  0.6788
  185SAPI  H14X21273   2.959   0.021   9.168 -0.9808 -1.0813  1.4748
  185SAPI  H14Y21274   2.826   0.096   9.070  0.2555 -0.7295  0.9263
  185SAPI  C31521275   3.000   0.037   8.952 -0.2083  0.2564 -0.0953
  185SAPI  H15X21276   2.937   0.073   8.868 -2.1743 -0.8986  0.8242
  185SAPI  H15Y21277   3.043  -0.057   8.912 -1.3674 -0.5767  0.5832
  185SAPI  C31621278   3.100   0.155   8.975  0.2324 -0.0050 -0.7608
  185SAPI  H16X21279   3.154   0.146   9.072  0.9025 -2.2950 -1.2947
  185SAPI  H16Y21280   3.047   0.253   8.968  1.5973  0.6449 -2.8148
  185SAPI  C31721281   3.215   0.154   8.871  0.3366  0.2987  0.0668
  185SAPI  H17X21282   3.269   0.058   8.882 -1.1042 -0.4863  0.6045
  185SAPI  H17Y21283   3.276   0.241   8.902 -0.5535  0.4648  1.4596
  185SAPI  C31821284   3.179   0.171   8.716  0.7219 -0.5596 -0.2334
  185SAPI  H18X21285   3.079   0.127   8.693  1.3238 -2.4691  0.6555
  185SAPI  H18Y21286   3.256   0.121   8.654  0.5581 -4.2124  2.1930
  185SAPI  H18Z21287   3.171   0.280   8.695  0.2336 -1.2068 -4.2294
  186SAPI   C1221288   4.173   4.989  10.841 -0.0434 -0.1536  0.4197
  186SAPI    H221289   4.213   4.971  10.739 -3.2176  3.3171 -1.6953
  186SAPI    O221290   4.084   4.882  10.883 -0.4160 -0.0353 -0.6641
  186SAPI   HO221291   4.054   4.833  10.806  0.0868 -1.2446 -0.1023
  186SAPI   C1321292   4.295   5.009  10.934  0.0040 -0.4253 -0.1211
  186SAPI    H321293   4.348   5.100  10.898  2.2368 -0.3974  2.8393
  186SAPI    O321294   4.373   4.892  10.931 -0.2240  0.0070  0.9460
  186SAPI   HO321295   4.332   4.830  10.991  1.3224 -1.8787  0.1551
  186SAPI   C1421296   4.244   5.037  11.071 -0.3274 -0.0236  0.3185
  186SAPI    H421297   4.182   4.952  11.106 -0.9465  0.3220  0.0718
  186SAPI    O421298   4.347   5.048  11.171 -0.2605 -0.1191 -0.3467
  186SAPI   HO421299   4.387   4.961  11.181 -0.5381 -0.1073  1.1737
  186SAPI   C1521300   4.157   5.161  11.069 -0.2713 -0.1704  0.6839
  186SAPI    H521301   4.218   5.241  11.023 -0.6420 -0.3183 -0.0813
  186SAPI    O521302   4.129   5.207  11.195  0.0005 -0.6270 -0.8227
  186SAPI   HO521303   4.210   5.236  11.238 -0.5922 -1.8754  1.2962
  186SAPI   C1621304   4.035   5.140  10.977 -0.3065  0.0488 -0.2644
  186SAPI    H621305   3.981   5.051  11.017  0.0683 -1.3932 -2.7477
  186SAPI    O621306   3.950   5.256  10.981 -0.1504  0.2811  0.1181
  186SAPI   HO621307   3.860   5.235  10.956  0.0838  0.8950 -1.3635
  186SAPI   C1121308   4.089   5.116  10.836 -0.1940  0.2692 -1.5542
  186SAPI    H121309   4.150   5.206  10.810 -1.8268  2.0250  0.3935
  186SAPI     P21310   4.011   5.113  10.580  0.0074 -0.3163 -0.1471
  186SAPI   O1321311   3.950   4.999  10.505  0.2744  0.1875 -0.2675
  186SAPI   O1421312   4.156   5.136  10.552  0.3903  0.3312  0.3446
  186SAPI   O1221313   3.990   5.101  10.743  0.2962  0.0435  0.3786
  186SAPI   O1121314   3.936   5.244  10.559  0.4524 -0.4121 -0.3077
  186SAPI    C121315   3.796   5.247  10.555  0.9456 -0.2635 -0.6758
  186SAPI    HA21316   3.739   5.152  10.559 -1.4858  1.1092 -0.5784
  186SAPI    HB21317   3.771   5.326  10.630  2.0843  0.4144 -0.9709
  186SAPI    C221318   3.751   5.323  10.421  0.6721 -0.0999 -0.7350
  186SAPI    HS21319   3.640   5.321  10.415  0.6162  1.4242 -0.4654
  186SAPI   O2121320   3.817   5.267  10.308 -0.8326 -0.4451  0.0158
  186SAPI   C2121321   3.768   5.155  10.266 -0.3416  0.2625  0.4120
  186SAPI   O2221322   3.665   5.103  10.308  0.4974  0.6304  0.1778
  186SAPI   C2221323   3.860   5.083  10.163  0.2990  0.5842  0.2240
  186SAPI   H2R21324   3.963   5.119  10.182  0.6629 -0.6675  0.7331
  186SAPI   H2S21325   3.846   4.973  10.170  1.0051  0.3008 -2.0135
  186SAPI    C321326   3.797   5.468  10.430  0.9256  0.2088 -0.5035
  186SAPI    HX21327   3.898   5.478  10.475  1.1985 -0.3367 -0.9989
  186SAPI    HY21328   3.724   5.529  10.489 -0.3422 -0.5464 -1.2494
  186SAPI   O3121329   3.806   5.530  10.298  0.0314 -1.0129 -0.5397
  186SAPI   C3121330   3.916   5.531  10.231  0.7803 -0.9696 -0.2570
  186SAPI   O3221331   4.023   5.498  10.274 -0.0236  0.0652  0.3198
  186SAPI   C3221332   3.875   5.576  10.088 -0.1868  0.1943  0.7209
  186SAPI   H2X21333   3.874   5.687  10.083 -1.7138  0.2010  0.8396
  186SAPI   H2Y21334   3.778   5.525  10.072 -1.1497  1.7899  1.2529
  186SAPI   C2321335   3.811   5.127  10.025  0.7012 -0.0407  0.7337
  186SAPI   H3R21336   3.815   5.237  10.013  0.3417 -0.2210 -1.3021
  186SAPI   H3S21337   3.705   5.098  10.010  0.7935 -0.4403  0.8351
  186SAPI   C2421338   3.906   5.073   9.913 -0.3592  0.4190 -0.4067
  186SAPI   H4R21339   3.903   4.963   9.923  1.8589  0.3838  0.3375
  186SAPI   H4S21340   4.007   5.111   9.941 -0.9019  1.9649 -0.4115
  186SAPI   C2521341   3.872   5.128   9.771  0.2804 -0.0046  0.4740
  186SAPI   H5R21342   3.822   5.226   9.763 -0.0162 -0.1540  0.5163
  186SAPI   C2621343   3.898   5.062   9.654 -0.3380  0.4861  0.0959
  186SAPI   H6R21344   3.858   5.110   9.564  1.8191 -1.9009 -2.2865
  186SAPI   C2721345   3.959   4.927   9.636  0.0511 -0.1062 -0.2515
  186SAPI   H7R21346   3.887   4.862   9.581 -0.8364  0.0876  0.6480
  186SAPI   H7S21347   3.971   4.879   9.735  1.3441 -1.6807 -1.1134
  186SAPI   C2821348   4.094   4.934   9.558 -0.1878  0.2498 -0.6056
  186SAPI   H8R21349   4.188   4.901   9.604 -0.2469 -0.1777 -0.7764
  186SAPI   C2921350   4.104   4.948   9.427  0.5461 -0.3168  0.3791
  186SAPI   H9R21351   4.205   4.945   9.384 -0.0015 -0.0300 -0.9970
  186SAPI  C21021352   3.993   4.966   9.325 -0.0559  0.5963  0.0811
  186SAPI  H10R21353   3.892   4.945   9.366  0.0068 -1.7458 -0.7547
  186SAPI  H10S21354   4.004   4.893   9.242  3.0582  2.2730 -1.1527
  186SAPI  C21121355   3.983   5.096   9.255 -0.6591 -0.1468 -0.0891
  186SAPI  H11R21356   3.889   5.148   9.277  0.9701  2.5733  1.0212
  186SAPI  C21221357   4.070   5.144   9.164 -0.3898  0.0767 -0.1518
  186SAPI  H12R21358   4.034   5.225   9.100  0.6120 -0.6039 -1.6476
  186SAPI  C21321359   4.202   5.091   9.114  0.0761 -0.0027 -0.4552
  186SAPI  H13R21360   4.237   4.996   9.161  1.7680  2.2712  3.4188
  186SAPI  H13S21361   4.289   5.159   9.124 -0.4744  0.9818 -2.1052
  186SAPI  C21421362   4.198   5.040   8.970 -0.2137 -0.7210 -0.4503
  186SAPI  H14R21363   4.195   4.931   8.957  0.1804 -0.8515  0.5329
  186SAPI  C21521364   4.232   5.098   8.858  0.4844  0.2280  0.1471
  186SAPI  H15R21365   4.224   5.043   8.763  2.0904  0.1304  0.0306
  186SAPI  C21621366   4.287   5.239   8.848 -0.0580 -0.2885 -0.0925
  186SAPI  H16R21367   4.389   5.236   8.803 -0.2870  1.0642 -0.7581
  186SAPI  H16S21368   4.292   5.291   8.946  1.8092 -1.7157  0.6355
  186SAPI  C21721369   4.211   5.338   8.753  0.0277 -0.0300 -0.1359
  186SAPI  H17R21370   4.221   5.295   8.652  1.2774  0.2051 -0.1236
  186SAPI  H17S21371   4.256   5.439   8.762  0.1496 -0.0836 -0.1430
  186SAPI  C21821372   4.061   5.345   8.784 -0.1588 -0.2896 -0.0643
  186SAPI  H18R21373   4.045   5.397   8.881 -2.5634  0.3659 -0.7605
  186SAPI  H18S21374   4.029   5.241   8.805 -1.1125 -0.4318 -2.0350
  186SAPI  C21921375   3.983   5.399   8.666  0.0551  0.1217 -0.7131
  186SAPI  H19R21376   4.025   5.501   8.651  1.6754 -0.6127 -1.4104
  186SAPI  H19S21377   3.880   5.408   8.707  0.2709 -1.1307  0.1637
  186SAPI  C22021378   3.980   5.317   8.546 -0.5254 -0.9309  0.1078
  186SAPI  H20R21379   4.081   5.298   8.502 -0.0421  1.1779  0.1968
  186SAPI  H20S21380   3.921   5.366   8.466 -0.4223  0.8643  1.0971
  186SAPI  H20T21381   3.925   5.225   8.575 -0.3751 -0.7916  0.8519
  186SAPI   C3321382   3.978   5.525   9.985 -0.0631  0.8686 -0.2927
  186SAPI   H3X21383   3.993   5.415   9.989 -1.3935  0.6977  1.2945
  186SAPI   H3Y21384   4.071   5.569  10.027  0.1650 -1.5153  1.9662
  186SAPI   C3421385   3.953   5.575   9.843 -1.0005 -0.0454 -0.5321
  186SAPI   H4X21386   3.999   5.675   9.834 -1.3626  0.3985  1.7876
  186SAPI   H4Y21387   3.844   5.579   9.824 -1.7011  0.5528  2.9392
  186SAPI   C3521388   4.029   5.483   9.744  0.2310  0.4214 -0.1903
  186SAPI   H5X21389   3.993   5.378   9.743  1.7732 -0.2156  2.4857
  186SAPI   H5Y21390   4.139   5.490   9.760  0.5873 -2.0373 -1.0746
  186SAPI   C3621391   4.022   5.524   9.594 -0.0221  0.3272  0.8243
  186SAPI   H6X21392   4.055   5.628   9.574  0.6352  0.0422  0.3641
  186SAPI   H6Y21393   3.919   5.499   9.560  0.0525 -2.2218  2.2169
  186SAPI   C3721394   4.113   5.432   9.512 -0.4512  0.2200  0.2668
  186SAPI   H7X21395   4.102   5.326   9.541  1.0799 -0.6489 -2.0349
  186SAPI   H7Y21396   4.218   5.459   9.533 -0.1568  1.0937 -2.0066
  186SAPI   C3821397   4.081   5.438   9.357 -0.0316  0.2398 -0.4704
  186SAPI   H8X21398   3.983   5.389   9.337  0.9996 -2.2990  0.3485
  186SAPI   H8Y21399   4.164   5.386   9.306  0.6662  0.9064 -0.0458
  186SAPI   C3921400   4.071   5.584   9.306 -0.1904 -0.9217  0.0287
  186SAPI   H9X21401   4.159   5.642   9.341 -1.0366 -0.1615  0.9817
  186SAPI   H9Y21402   3.981   5.624   9.357 -0.0255 -0.6426  0.1006
  186SAPI  C31021403   4.044   5.588   9.154 -0.3512 -0.1411 -0.1524
  186SAPI  H10X21404   3.960   5.515   9.150  0.5778 -1.3525  1.3819
  186SAPI  H10Y21405   4.127   5.538   9.099 -0.9297 -1.3985  0.0849
  186SAPI  C31121406   3.999   5.723   9.099 -0.2005 -1.2434  0.8263
  186SAPI  H11X21407   4.082   5.797   9.098 -0.7239 -0.4013 -3.7802
  186SAPI  H11Y21408   3.909   5.763   9.150 -0.3826 -0.2023 -0.2680
  186SAPI  C31221409   3.967   5.705   8.950  0.8725  1.2207  0.8243
  186SAPI  H12X21410   3.899   5.619   8.936  1.2967  0.6321  2.2181
  186SAPI  H12Y21411   4.059   5.686   8.892 -1.0153 -0.4276 -1.8571
  186SAPI  C31321412   3.935   5.836   8.884 -0.6202  0.4234  0.3069
  186SAPI  H13X21413   4.008   5.919   8.889 -0.6896  0.6491 -1.6011
  186SAPI  H13Y21414   3.858   5.891   8.942  1.1983  1.5800  1.7201
  186SAPI  C31421415   3.903   5.824   8.726 -0.2915  0.4922 -0.1392
  186SAPI  H14X21416   3.994   5.791   8.672  1.0553  2.4251  0.8450
  186SAPI  H14Y21417   3.884   5.922   8.678 -1.2654  0.1395 -0.5071
  186SAPI  C31521418   3.787   5.729   8.694  0.0648  0.9187  0.3282
  186SAPI  H15X21419   3.811   5.626   8.726 -0.2572  0.7395 -0.0025
  186SAPI  H15Y21420   3.782   5.716   8.584  1.7157 -1.5734  0.4670
  186SAPI  C31621421   3.646   5.752   8.754  0.9049 -0.3553  0.7732
  186SAPI  H16X21422   3.647   5.762   8.865 -0.3888  1.2661  0.6794
  186SAPI  H16Y21423   3.580   5.672   8.714  1.1609 -0.8730  1.3552
  186SAPI  C31721424   3.585   5.886   8.695 -0.2416 -0.0334 -0.2501
  186SAPI  H17X21425   3.570   5.872   8.586  1.4678 -1.2427 -0.3707
  186SAPI  H17Y21426   3.665   5.961   8.708 -1.4164  0.9169  2.2240
  186SAPI  C31821427   3.457   5.937   8.758 -0.0436 -0.0210  0.3431
  186SAPI  H18X21428   3.482   5.943   8.866  0.6752  2.8074  0.0953
  186SAPI  H18Y21429   3.379   5.858   8.757  0.4953 -0.6234  2.3206
  186SAPI  H18Z21430   3.424   6.038   8.726 -1.6855 -0.5755  0.1749
  187SAPI   C1221431   2.245   4.172   6.128  0.0107  0.6605  0.3742
  187SAPI    H221432   2.335   4.155   6.190 -0.0421  1.8622  0.7957
  187SAPI    O221433   2.293   4.242   6.014  0.4115  0.6441 -0.6687
  187SAPI   HO221434   2.318   4.327   6.051  0.7208  0.6687 -0.9320
  187SAPI   C1321435   2.195   4.038   6.078  0.8634  0.4068 -0.4100
  187SAPI    H321436   2.161   3.992   6.174 -0.9343 -1.1102 -1.7023
  187SAPI    O321437   2.302   3.958   6.016  0.4164 -0.2742 -0.3702
  187SAPI   HO321438   2.351   4.014   5.955  1.5554 -3.5955 -2.7966
  187SAPI   C1421439   2.074   4.063   5.987 -0.6339  0.4952 -0.2565
  187SAPI    H421440   2.094   4.116   5.892  2.0320  1.0627  0.5239
  187SAPI    O421441   2.027   3.932   5.945  0.3848 -0.6854 -0.1921
  187SAPI   HO421442   1.973   3.897   6.017 -2.3626  0.0564 -1.7366
  187SAPI   C1521443   1.967   4.147   6.061 -0.6686  0.5412 -0.0596
  187SAPI    H521444   1.938   4.094   6.154 -1.9061  0.2457 -0.5894
  187SAPI    O521445   1.842   4.150   5.976 -0.1043  0.6238  0.5382
  187SAPI   HO521446   1.876   4.180   5.891  0.4814  2.7365  1.4310
  187SAPI   C1621447   2.016   4.279   6.108  0.4488 -0.8653  0.0344
  187SAPI    H621448   2.041   4.337   6.017  1.6546 -1.5597 -0.0907
  187SAPI    O621449   1.913   4.335   6.186  0.1507  0.9014 -0.1195
  187SAPI   HO621450   1.941   4.403   6.247 -1.1956  1.4648 -0.0941
  187SAPI   C1121451   2.138   4.259   6.197  0.3414  0.6494  0.3861
  187SAPI    H121452   2.097   4.205   6.285 -2.0955  1.1686 -0.3688
  187SAPI     P21453   2.172   4.462   6.367  0.0339  0.3234  0.1774
  187SAPI   O1321454   2.024   4.487   6.371 -0.1637 -0.2400  0.4341
  187SAPI   O1421455   2.258   4.581   6.387 -0.6172  0.2480  0.3684
  187SAPI   O1221456   2.203   4.382   6.227 -0.5793  0.9498 -0.3165
  187SAPI   O1121457   2.208   4.350   6.480  0.2464  0.4752 -0.9221
  187SAPI    C121458   2.346   4.340   6.528  0.0724 -0.1054 -0.0156
  187SAPI    HA21459   2.424   4.346   6.449  0.2667  0.5831  0.2220
  187SAPI    HB21460   2.365   4.418   6.605  2.0804 -0.1002 -0.4770
  187SAPI    C221461   2.363   4.201   6.600  0.0005 -0.1424  0.3150
  187SAPI    HS21462   2.260   4.178   6.635  0.4194 -1.1980  0.8996
  187SAPI   O2121463   2.454   4.223   6.710  0.1748  0.0963  0.2692
  187SAPI   C2121464   2.418   4.188   6.826  0.0331 -0.7204  0.6316
  187SAPI   O2221465   2.303   4.158   6.861  0.0644 -0.0964  0.5929
  187SAPI   C2221466   2.531   4.206   6.920 -0.2950  0.4014  0.4828
  187SAPI   H2R21467   2.578   4.305   6.908 -0.1428  0.1453 -1.4260
  187SAPI   H2S21468   2.491   4.199   7.023  0.6978  1.4837  0.9564
  187SAPI    C321469   2.406   4.088   6.500 -0.2902 -0.1338 -0.0031
  187SAPI    HX21470   2.512   4.102   6.468  0.2105  2.1812  2.2923
  187SAPI    HY21471   2.347   4.102   6.407  1.5979 -2.9594 -1.8067
  187SAPI   O3121472   2.373   3.954   6.544  0.0078  0.2280  0.0364
  187SAPI   C3121473   2.469   3.896   6.612  0.2170 -0.3968 -0.2216
  187SAPI   O3221474   2.576   3.944   6.652  0.4522  0.5098 -1.1066
  187SAPI   C3221475   2.438   3.748   6.629 -0.1675 -0.2151  0.8393
  187SAPI   H2X21476   2.535   3.699   6.656  0.6125  1.1060  0.5113
  187SAPI   H2Y21477   2.416   3.707   6.528  3.1007 -0.3204  0.0390
  187SAPI   C2321478   2.636   4.095   6.905 -0.7222 -0.3432 -0.9040
  187SAPI   H3R21479   2.699   4.111   6.815  1.2342 -1.9385  0.0850
  187SAPI   H3S21480   2.590   3.994   6.895  0.4432 -1.0113  0.1117
  187SAPI   C2421481   2.716   4.074   7.038 -0.2359 -0.3075 -0.3916
  187SAPI   H4R21482   2.781   3.985   7.025 -0.5160 -0.6141  0.2938
  187SAPI   H4S21483   2.634   4.044   7.107  0.4755 -0.6929  0.3007
  187SAPI   C2521484   2.788   4.197   7.089  0.1600 -0.4057  0.0476
  187SAPI   H5R21485   2.854   4.242   7.014 -0.3046 -0.3391 -0.3244
  187SAPI   C2621486   2.792   4.255   7.215 -0.1327  0.1938  0.3020
  187SAPI   H6R21487   2.845   4.350   7.228 -1.5057  0.8240  1.5897
  187SAPI   C2721488   2.707   4.213   7.329 -0.2136  0.7585  0.4923
  187SAPI   H7R21489   2.619   4.159   7.288 -0.1301  1.7711 -1.0892
  187SAPI   H7S21490   2.686   4.300   7.395  1.7476 -0.3133  2.7144
  187SAPI   C2821491   2.786   4.120   7.421  0.5717 -0.5592  0.8946
  187SAPI   H8R21492   2.853   4.047   7.373 -0.2479 -0.4959 -0.3716
  187SAPI   C2921493   2.774   4.106   7.554  0.2389  0.3789  0.7479
  187SAPI   H9R21494   2.846   4.037   7.602  2.5201  1.0192 -1.5134
  187SAPI  C21021495   2.679   4.172   7.653 -0.6156  0.2464 -0.1152
  187SAPI  H10R21496   2.709   4.280   7.652 -1.2509  0.4801  2.1314
  187SAPI  H10S21497   2.684   4.126   7.753 -1.4474 -0.6949 -0.4981
  187SAPI  C21121498   2.535   4.174   7.609  0.4857 -0.2425  0.3428
  187SAPI  H11R21499   2.520   4.197   7.503  2.1649  3.9946  0.8381
  187SAPI  C21221500   2.416   4.144   7.678 -0.1501  0.4752 -0.0057
  187SAPI  H12R21501   2.318   4.158   7.629 -1.7957  0.3897  3.0157
  187SAPI  C21321502   2.413   4.130   7.828  0.1158  0.3177  0.1546
  187SAPI  H13R21503   2.323   4.190   7.854  0.0130 -0.0115  0.5547
  187SAPI  H13S21504   2.494   4.178   7.887 -0.2201  2.7843 -1.2106
  187SAPI  C21421505   2.389   3.988   7.875 -0.5202 -0.2337  0.9439
  187SAPI  H14R21506   2.392   3.914   7.794  2.4340  0.8356 -0.0875
  187SAPI  C21521507   2.378   3.946   8.004 -0.1288 -0.6482  0.5007
  187SAPI  H15R21508   2.364   3.838   8.025  0.6551 -0.5545  1.6482
  187SAPI  C21621509   2.392   4.031   8.126  0.1999 -0.0171 -0.1222
  187SAPI  H16R21510   2.301   4.019   8.189 -0.7483 -1.1906 -1.6329
  187SAPI  H16S21511   2.396   4.140   8.107 -1.1666  0.2243  0.8292
  187SAPI  C21721512   2.510   3.990   8.219 -0.7230 -0.8430  0.2013
  187SAPI  H17R21513   2.603   3.984   8.159  0.6018  0.6360  2.0372
  187SAPI  H17S21514   2.482   3.895   8.269 -0.9038 -0.1780  1.3779
  187SAPI  C21821515   2.541   4.093   8.329  0.7443  0.3287 -0.4334
  187SAPI  H18R21516   2.550   4.195   8.287  1.0366  0.3394 -0.3441
  187SAPI  H18S21517   2.635   4.070   8.383 -1.9365 -0.5697  4.5098
  187SAPI  C21921518   2.429   4.094   8.430 -0.8207 -0.3710 -0.4092
  187SAPI  H19R21519   2.419   3.994   8.476 -0.9665 -0.1529  0.0298
  187SAPI  H19S21520   2.331   4.116   8.383 -1.1666 -1.5788 -0.2593
  187SAPI  C22021521   2.462   4.189   8.546  0.7240 -0.0519 -0.1053
  187SAPI  H20R21522   2.547   4.158   8.611  0.1647 -1.3114  0.0372
  187SAPI  H20S21523   2.373   4.197   8.611 -0.6974 -1.6901 -1.7452
  187SAPI  H20T21524   2.476   4.290   8.500 -0.7021  0.3004  0.1936
  187SAPI   C3321525   2.340   3.714   6.739  0.0996 -0.1730 -0.9592
  187SAPI   H3X21526   2.359   3.608   6.768 -0.7778  0.2694  1.4644
  187SAPI   H3Y21527   2.231   3.716   6.720 -0.1971  0.4038  0.6612
  187SAPI   C3421528   2.364   3.797   6.866 -0.8315  0.1681 -0.2093
  187SAPI   H4X21529   2.318   3.896   6.843 -1.2351 -0.1625 -0.8370
  187SAPI   H4Y21530   2.472   3.813   6.890 -0.7460 -0.2968 -0.2844
  187SAPI   C3521531   2.324   3.740   6.999 -0.0446  0.5847  0.7893
  187SAPI   H5X21532   2.369   3.643   7.030 -1.3371 -0.2683  0.0997
  187SAPI   H5Y21533   2.215   3.722   6.986 -0.1349  0.2954  1.8752
  187SAPI   C3621534   2.344   3.828   7.120  0.8842  0.9254 -0.4424
  187SAPI   H6X21535   2.285   3.922   7.110  0.9476  1.0561  0.3062
  187SAPI   H6Y21536   2.451   3.854   7.135  0.7136  2.5240 -1.6800
  187SAPI   C3721537   2.299   3.765   7.251 -0.0308 -0.0458 -0.4555
  187SAPI   H7X21538   2.385   3.705   7.290 -1.0435 -0.4916  1.1959
  187SAPI   H7Y21539   2.220   3.690   7.232  0.0267 -0.2341  0.0309
  187SAPI   C3821540   2.254   3.865   7.356 -0.8373  0.1956  0.5753
  187SAPI   H8X21541   2.178   3.933   7.311 -0.7700  1.4451  2.2609
  187SAPI   H8Y21542   2.333   3.938   7.385  0.5560 -1.0464  0.0273
  187SAPI   C3921543   2.195   3.800   7.485 -0.0150 -0.4286 -0.3339
  187SAPI   H9X21544   2.279   3.741   7.529  1.6973  3.4777  2.1978
  187SAPI   H9Y21545   2.120   3.727   7.448 -1.7636  1.9765 -1.7805
  187SAPI  C31021546   2.128   3.904   7.581  0.5181  0.3584  0.2108
  187SAPI  H10X21547   2.065   3.970   7.517  0.3754 -0.6849 -0.7587
  187SAPI  H10Y21548   2.200   3.972   7.631 -1.3278  0.2714  3.2284
  187SAPI  C31121549   2.056   3.833   7.697 -0.2356  0.1847  0.2475
  187SAPI  H11X21550   2.131   3.764   7.741  1.6133  2.0408  0.1369
  187SAPI  H11Y21551   1.966   3.777   7.661 -1.1346  0.6163  1.7295
  187SAPI  C31221552   2.025   3.940   7.803 -0.3000 -0.3784 -0.9703
  187SAPI  H12X21553   1.961   4.024   7.767 -0.7138  0.7827  2.1435
  187SAPI  H12Y21554   2.117   3.981   7.848 -1.2408 -1.9418  2.7510
  187SAPI  C31321555   1.953   3.881   7.930  0.4891  0.0070 -0.7367
  187SAPI  H13X21556   2.009   3.800   7.981  1.2573  0.7651 -0.3611
  187SAPI  H13Y21557   1.860   3.834   7.893 -0.1295 -1.1054  1.9914
  187SAPI  C31421558   1.910   3.991   8.026  0.4888 -0.3456 -0.0841
  187SAPI  H14X21559   1.851   4.071   7.976  2.1177  0.6424 -0.4920
  187SAPI  H14Y21560   1.997   4.043   8.072  0.9313 -1.2560  0.1192
  187SAPI  C31521561   1.820   3.941   8.133  0.2010  0.9007 -0.0084
  187SAPI  H15X21562   1.883   3.867   8.188  0.5810  1.2015 -0.0379
  187SAPI  H15Y21563   1.735   3.896   8.077 -0.6817  1.9511  0.4543
  187SAPI  C31621564   1.767   4.050   8.241 -0.2906  0.7888  0.5758
  187SAPI  H16X21565   1.716   4.134   8.189 -0.0335  1.1168  0.8502
  187SAPI  H16Y21566   1.849   4.095   8.301  1.2036  2.2844 -2.3735
  187SAPI  C31721567   1.649   4.001   8.332  0.5849 -0.1007  0.0316
  187SAPI  H17X21568   1.694   3.911   8.379  0.0313 -1.4631 -1.8929
  187SAPI  H17Y21569   1.572   3.948   8.272  2.1506 -0.8009 -1.4629
  187SAPI  C31821570   1.591   4.102   8.432  0.4546 -0.4947 -0.0178
  187SAPI  H18X21571   1.660   4.129   8.515  1.4314  0.1835 -1.0237
  187SAPI  H18Y21572   1.495   4.061   8.471  1.2485 -0.2549  2.3235
  187SAPI  H18Z21573   1.575   4.203   8.390 -0.6073 -0.0506  1.3815
  188SAPI   C1221574   0.459   1.086   6.679  0.2153 -0.4346 -0.5392
  188SAPI    H221575   0.362   1.101   6.731 -0.4569  0.7359 -2.0280
  188SAPI    O221576   0.472   1.200   6.595 -0.6207 -0.0532  0.0746
  188SAPI   HO221577   0.438   1.181   6.508 -0.2267 -0.4311  0.0048
  188SAPI   C1321578   0.571   1.090   6.780 -0.0327 -0.0364  0.5171
  188SAPI    H321579   0.560   1.003   6.849  1.8578 -0.0750  0.8165
  188SAPI    O321580   0.549   1.207   6.860 -0.1169  0.0134  0.7630
  188SAPI   HO321581   0.483   1.267   6.824 -0.1023 -0.0759  0.5846
  188SAPI   C1421582   0.710   1.079   6.724 -0.9106  0.2129  0.6340
  188SAPI    H421583   0.732   1.170   6.664 -0.8841 -0.4245 -0.3452
  188SAPI    O421584   0.804   1.073   6.830 -0.3035 -0.4103  0.3364
  188SAPI   HO421585   0.770   1.113   6.910  0.4378  2.2731 -0.5712
  188SAPI   C1521586   0.713   0.958   6.628  0.3900  0.6970 -0.5825
  188SAPI    H521587   0.703   0.881   6.708  1.9463 -0.3493 -1.3388
  188SAPI    O521588   0.838   0.936   6.566 -0.9141  0.0927  0.4466
  188SAPI   HO521589   0.863   0.844   6.579  0.1968  0.6390  2.5662
  188SAPI   C1621590   0.604   0.948   6.525  0.9467 -0.1062 -0.9660
  188SAPI    H621591   0.606   1.034   6.454  0.1169  0.1459 -0.6989
  188SAPI    O621592   0.610   0.828   6.444 -0.1943  0.0966  0.0602
  188SAPI   HO621593   0.518   0.803   6.434  0.2322 -1.6481  0.2325
  188SAPI   C1121594   0.466   0.961   6.593 -0.3990  0.3876  0.0674
  188SAPI    H121595   0.441   0.878   6.662  1.3668 -1.5970 -1.5037
  188SAPI     P21596   0.266   0.836   6.458 -0.2071 -0.0657  0.2375
  188SAPI   O1321597   0.354   0.726   6.425  0.2276 -0.3985 -0.3184
  188SAPI   O1421598   0.177   0.888   6.348 -0.4314 -0.0642  0.4658
  188SAPI   O1221599   0.355   0.968   6.500 -0.1767  0.1923  0.5097
  188SAPI   O1121600   0.172   0.803   6.581 -0.7614 -0.2640 -0.5946
  188SAPI    C121601   0.151   0.876   6.702 -0.4865 -0.2002 -0.5800
  188SAPI    HA21602   0.194   0.819   6.788  1.0264  2.8777  0.8612
  188SAPI    HB21603   0.205   0.973   6.697  2.4368 -1.7249 -0.7919
  188SAPI    C221604   0.000   0.896   6.712 -0.1173 -0.0907 -0.0213
  188SAPI    HS21605  -0.044   0.795   6.701  1.6933 -0.7937 -1.3865
  188SAPI   O2121606  -0.028   0.981   6.599 -0.1240  0.0164 -0.8454
  188SAPI   C2121607  -0.159   1.013   6.589  0.1239  0.3325 -0.5242
  188SAPI   O2221608  -0.248   0.961   6.653  0.6486 -0.2855  0.5971
  188SAPI   C2221609  -0.171   1.124   6.497 -0.0942 -0.3108  0.1262
  188SAPI   H2R21610  -0.073   1.166   6.465 -1.0498  1.8947 -0.1414
  188SAPI   H2S21611  -0.226   1.072   6.416 -0.2335  0.0042  0.0175
  188SAPI    C321612  -0.042   0.950   6.855 -0.2298  0.5183 -0.2658
  188SAPI    HX21613  -0.153   0.955   6.857 -0.2158  1.1623  1.9474
  188SAPI    HY21614   0.006   1.051   6.860  2.4595 -0.5387 -2.3538
  188SAPI   O3121615  -0.000   0.867   6.968 -0.6755 -0.1751 -0.3966
  188SAPI   C3121616  -0.084   0.777   7.010 -0.0537  0.7966  0.9970
  188SAPI   O3221617  -0.194   0.752   6.961 -0.1848  0.2165  0.0580
  188SAPI   C3221618  -0.006   0.735   7.138  0.1880 -0.3127 -0.1717
  188SAPI   H2X21619   0.017   0.831   7.190 -1.2384 -0.6958  1.2312
  188SAPI   H2Y21620   0.092   0.688   7.113  0.3007  0.5635 -1.4886
  188SAPI   C2321621  -0.269   1.232   6.561  0.4385 -0.1162  0.2870
  188SAPI   H3R21622  -0.347   1.178   6.620 -0.6786  0.6224 -0.4600
  188SAPI   H3S21623  -0.305   1.295   6.477 -0.8628 -3.1888 -1.6455
  188SAPI   C2421624  -0.195   1.327   6.649  0.3501 -0.0122 -1.2192
  188SAPI   H4R21625  -0.125   1.390   6.591  1.2670  2.7163  2.5099
  188SAPI   H4S21626  -0.128   1.274   6.720  1.6485  1.3263 -1.3896
  188SAPI   C2521627  -0.282   1.427   6.719 -0.6074  0.6277  0.4917
  188SAPI   H5R21628  -0.302   1.512   6.652  0.2203 -1.1617 -2.2052
  188SAPI   C2621629  -0.323   1.417   6.847 -0.3293  0.0070  0.2062
  188SAPI   H6R21630  -0.395   1.487   6.891  0.9018  0.0399  2.3065
  188SAPI   C2721631  -0.293   1.317   6.950 -0.4585  0.9828 -0.6899
  188SAPI   H7R21632  -0.209   1.256   6.911 -0.4382  0.6589 -0.1553
  188SAPI   H7S21633  -0.381   1.249   6.951  0.0294  0.3106  0.8164
  188SAPI   C2821634  -0.262   1.364   7.091  0.2436 -0.3778  0.4289
  188SAPI   H8R21635  -0.332   1.444   7.120 -0.1285 -0.1124 -1.1228
  188SAPI   C2921636  -0.170   1.320   7.175 -0.0012  0.5075 -0.8406
  188SAPI   H9R21637  -0.173   1.363   7.276 -2.1608  1.0490 -1.0900
  188SAPI  C21021638  -0.075   1.199   7.146  0.0355 -1.0224  0.1170
  188SAPI  H10R21639  -0.127   1.132   7.075 -0.9278  0.0544 -0.2223
  188SAPI  H10S21640  -0.062   1.132   7.234 -1.2549 -1.9461 -0.3647
  188SAPI  C21121641   0.061   1.246   7.088 -0.5180 -0.2627  0.0942
  188SAPI  H11R21642   0.055   1.320   7.008 -1.4035  0.4265  0.7753
  188SAPI  C21221643   0.178   1.188   7.112 -0.3443 -0.0935 -0.4660
  188SAPI  H12R21644   0.270   1.222   7.061 -0.5606 -1.6024 -1.9653
  188SAPI  C21321645   0.207   1.070   7.201 -0.5585 -0.1957 -0.2092
  188SAPI  H13R21646   0.118   1.019   7.243  0.5515  0.0617  2.7222
  188SAPI  H13S21647   0.268   1.103   7.288  0.9636  3.3130 -2.3992
  188SAPI  C21421648   0.281   0.959   7.119  0.4560  0.0756 -0.3461
  188SAPI  H14R21649   0.216   0.920   7.038 -0.8842  2.3406 -0.4827
  188SAPI  C21521650   0.406   0.920   7.143 -0.3862 -0.1651  0.6961
  188SAPI  H15R21651   0.445   0.833   7.089 -3.1220  0.1034 -1.9857
  188SAPI  C21621652   0.501   0.979   7.244  0.2132  0.1142  0.1953
  188SAPI  H16R21653   0.490   0.915   7.334 -2.3944 -0.9351 -0.7903
  188SAPI  H16S21654   0.469   1.084   7.260 -1.0618 -0.0310 -1.2466
  188SAPI  C21721655   0.648   0.979   7.191 -0.0543 -0.1051 -0.3028
  188SAPI  H17R21656   0.649   1.037   7.096  0.3247 -2.6464 -1.9486
  188SAPI  H17S21657   0.676   0.880   7.149 -1.5206 -1.2040  1.1827
  188SAPI  C21821658   0.763   1.040   7.279  0.4161  0.6340 -0.4506
  188SAPI  H18R21659   0.856   1.025   7.221 -0.2862 -0.8107 -1.2531
  188SAPI  H18S21660   0.765   0.999   7.382 -1.5822  3.5643  0.9218
  188SAPI  C21921661   0.730   1.181   7.302 -0.2164  0.2719 -0.0611
  188SAPI  H19R21662   0.793   1.226   7.382  2.3871 -0.8043 -1.3715
  188SAPI  H19S21663   0.622   1.183   7.326 -0.1223  3.6155  0.6176
  188SAPI  C22021664   0.747   1.270   7.186 -0.2848 -0.6987  0.6065
  188SAPI  H20R21665   0.828   1.231   7.122 -0.3612 -0.9776  0.6788
  188SAPI  H20S21666   0.781   1.371   7.217 -0.9570  0.2327 -1.5231
  188SAPI  H20T21667   0.656   1.279   7.123  0.4622  0.5782 -0.3296
  188SAPI   C3321668  -0.089   0.636   7.225  0.4859 -0.3951 -0.9868
  188SAPI   H3X21669  -0.133   0.555   7.164 -1.4246  0.5859 -1.0056
  188SAPI   H3Y21670  -0.168   0.699   7.273  2.5530  0.2508  1.8545
  188SAPI   C3421671   0.009   0.580   7.333  0.4083 -0.2435 -0.3973
  188SAPI   H4X21672   0.058   0.659   7.393 -1.1893 -0.9348  1.9302
  188SAPI   H4Y21673   0.080   0.509   7.285  0.7632 -0.5113  0.5079
  188SAPI   C3521674  -0.070   0.503   7.434 -0.1556 -0.4056  0.5967
  188SAPI   H5X21675  -0.001   0.441   7.494 -1.3824  0.1937  2.7269
  188SAPI   H5Y21676  -0.150   0.440   7.387  1.2493 -2.4821  0.8427
  188SAPI   C3621677  -0.147   0.588   7.542  0.4572  0.5679 -0.4908
  188SAPI   H6X21678  -0.232   0.650   7.509 -0.6895 -1.3850 -1.3849
  188SAPI   H6Y21679  -0.081   0.657   7.599 -1.4198  0.0948  2.5175
  188SAPI   C3721680  -0.197   0.492   7.651 -0.3562  0.7170  0.2522
  188SAPI   H7X21681  -0.127   0.409   7.672 -1.6539 -0.9932 -1.7591
  188SAPI   H7Y21682  -0.288   0.447   7.608  0.0881  2.1327 -2.4147
  188SAPI   C3821683  -0.220   0.558   7.789 -0.7388  0.2514  0.2501
  188SAPI   H8X21684  -0.250   0.663   7.770  0.0836  0.5604  0.6021
  188SAPI   H8Y21685  -0.133   0.550   7.858 -0.0553  1.5303 -0.4247
  188SAPI   C3921686  -0.325   0.482   7.870 -0.0568  0.3150  0.2176
  188SAPI   H9X21687  -0.311   0.378   7.832 -1.3570  0.3936 -0.5228
  188SAPI   H9Y21688  -0.424   0.522   7.838  0.7385  2.4295  0.2565
  188SAPI  C31021689  -0.305   0.496   8.024 -0.5407  0.1150  0.3612
  188SAPI  H10X21690  -0.295   0.604   8.049  2.1860 -0.3517  1.7178
  188SAPI  H10Y21691  -0.217   0.434   8.051 -0.5145 -0.2323 -0.4948
  188SAPI  C31121692  -0.419   0.429   8.103 -0.2084 -0.2901  0.4997
  188SAPI  H11X21693  -0.449   0.336   8.050 -0.2669  1.2371 -2.3538
  188SAPI  H11Y21694  -0.508   0.491   8.077 -0.2128 -0.9016 -1.0194
  188SAPI  C31221695  -0.409   0.431   8.255  0.4912 -0.1289 -0.3406
  188SAPI  H12X21696  -0.428   0.530   8.300  0.4729 -0.0352 -0.5516
  188SAPI  H12Y21697  -0.307   0.397   8.283  0.4745  0.2064  0.1296
  188SAPI  C31321698  -0.510   0.339   8.321  0.2582 -0.1788  0.0785
  188SAPI  H13X21699  -0.481   0.234   8.298 -0.5694 -0.8130  1.8204
  188SAPI  H13Y21700  -0.617   0.341   8.294 -0.7121  0.8524  3.5035
  188SAPI  C31421701  -0.495   0.348   8.471  0.0394  0.5243 -0.0529
  188SAPI  H14X21702  -0.503   0.446   8.524  3.1483  1.9613 -1.9331
  188SAPI  H14Y21703  -0.395   0.303   8.485 -0.2677 -0.4875 -0.9304
  188SAPI  C31521704  -0.600   0.266   8.555 -0.2820  0.4763  0.3982
  188SAPI  H15X21705  -0.609   0.173   8.495  2.1023  0.7324 -0.4599
  188SAPI  H15Y21706  -0.695   0.323   8.545 -0.6500 -0.2974 -0.7561
  188SAPI  C31621707  -0.555   0.238   8.696 -0.2803  0.3908 -0.1237
  188SAPI  H16X21708  -0.522   0.333   8.742 -0.3092  2.1311 -3.3861
  188SAPI  H16Y21709  -0.457   0.184   8.697  1.0006  2.4980  2.8332
  188SAPI  C31721710  -0.649   0.154   8.790  0.9265  0.0956  0.1829
  188SAPI  H17X21711  -0.665   0.055   8.743  3.1873 -1.1928  1.9240
  188SAPI  H17Y21712  -0.753   0.191   8.796  0.8680  0.3087 -1.5037
  188SAPI  C31821713  -0.601   0.114   8.933 -0.3400 -1.1963  0.0974
  188SAPI  H18X21714  -0.588   0.200   9.002 -1.3608  0.4866 -1.6762
  188SAPI  H18Y21715  -0.511   0.051   8.919 -0.6006 -1.1432 -2.3884
  188SAPI  H18Z21716  -0.681   0.053   8.979 -0.6973 -0.1103  0.9620
  189POPC     N21717   2.762   1.033  11.075 -0.7110  0.0327 -0.4881
  189POPC   C1221718   2.773   1.080  10.933 -0.2853 -0.0753 -0.8871
  189POPC  H12A21719   2.832   1.169  10.925  0.9851 -0.8389 -0.2697
  189POPC  H12B21720   2.679   1.116  10.893 -0.4204  0.5849 -0.0037
  189POPC   C1321721   2.814   1.144  11.174  0.1491  0.6395 -0.3406
  189POPC  H13A21722   2.915   1.174  11.151  0.7968 -0.4072  0.9876
  189POPC  H13B21723   2.753   1.233  11.167 -3.6172 -1.4601  2.1516
  189POPC  H13C21724   2.809   1.106  11.275 -0.7317  1.3963 -0.0894
  189POPC   C1421725   2.622   1.005  11.109  0.2554 -0.1223 -0.6423
  189POPC  H14A21726   2.620   0.981  11.214  1.3934 -1.1251 -0.8251
  189POPC  H14B21727   2.561   1.089  11.078 -1.0133 -0.9364 -0.4119
  189POPC  H14C21728   2.593   0.919  11.051  0.7652 -0.0749 -0.9721
  189POPC   C1521729   2.846   0.906  11.106  0.0747 -0.1507 -0.5632
  189POPC  H15A21730   2.848   0.885  11.212 -2.8666  2.5750  0.1638
  189POPC  H15B21731   2.946   0.916  11.066  0.9011 -2.0058  0.8953
  189POPC  H15C21732   2.814   0.828  11.039 -2.8316 -0.7066  1.3230
  189POPC   C1121733   2.829   0.979  10.828  0.5426 -0.4916  0.0750
  189POPC  H11A21734   2.931   0.945  10.857  0.1144  0.2719  2.7570
  189POPC  H11B21735   2.832   1.034  10.731 -1.4698 -0.1735  0.1557
  189POPC     P21736   2.594   0.880  10.773  0.3381 -0.5216  0.1431
  189POPC   O1321737   2.538   1.024  10.778 -0.7681 -0.1194  0.1146
  189POPC   O1421738   2.523   0.771  10.847 -0.1434  0.9403  0.2548
  189POPC   O1221739   2.744   0.868  10.823 -0.1866 -0.0802  0.6768
  189POPC   O1121740   2.597   0.847  10.615 -0.0195 -0.1293  0.0391
  189POPC    C121741   2.661   0.730  10.560  0.7956 -0.1276 -1.5927
  189POPC    HA21742   2.602   0.685  10.478  0.6485 -1.6181 -0.7105
  189POPC    HB21743   2.669   0.654  10.641  2.6672  1.8135  0.1984
  189POPC    C221744   2.805   0.766  10.511 -0.4457  0.3440  1.0844
  189POPC    HS21745   2.852   0.826  10.593  0.5996  1.2873 -0.1587
  189POPC   O2121746   2.786   0.838  10.385 -0.4696  0.3226 -0.4271
  189POPC   C2121747   2.883   0.927  10.365 -0.3103  0.4304 -0.2621
  189POPC   O2221748   2.960   0.971  10.452 -0.2160  0.1999 -0.1381
  189POPC   C2221749   2.867   0.982  10.229  0.2663  0.7755  0.7789
  189POPC   H2R21750   2.765   1.025  10.221 -0.3531 -0.7349  0.2401
  189POPC   H2S21751   2.866   0.904  10.150  0.5188 -1.1901  2.6389
  189POPC    C321752   2.883   0.639  10.488 -0.4923 -0.0814 -0.1647
  189POPC    HX21753   2.882   0.594  10.590 -2.8940  0.2285  0.0228
  189POPC    HY21754   2.984   0.670  10.455 -0.2832 -0.1285  0.4088
  189POPC   O3121755   2.812   0.545  10.398 -0.2964 -0.0569 -0.0174
  189POPC   C3121756   2.862   0.543  10.274  0.2250 -0.1203  0.1071
  189POPC   O3221757   2.961   0.602  10.238  0.0289  0.7344 -0.1851
  189POPC   C3221758   2.773   0.460  10.182  0.1208 -0.1880  0.0068
  189POPC   H2X21759   2.671   0.503  10.174 -1.6756 -4.0234 -0.4441
  189POPC   H2Y21760   2.753   0.362  10.231 -2.0058 -0.7172 -1.7807
  189POPC   C2321761   2.968   1.089  10.178 -0.6487  0.4054  0.4144
  189POPC   H3R21762   2.961   1.175  10.248  2.8407  2.3576 -1.3356
  189POPC   H3S21763   2.931   1.121  10.078  1.2129  0.0329 -0.4512
  189POPC   C2421764   3.113   1.036  10.159  0.5842  0.4604  0.2002
  189POPC   H4R21765   3.150   1.017  10.261  0.6980  1.8307  0.4411
  189POPC   H4S21766   3.182   1.111  10.115  0.9689 -1.7545 -3.3884
  189POPC   C2521767   3.132   0.909  10.065 -0.2741 -0.4291 -0.2215
  189POPC   H5R21768   3.088   0.832  10.132 -2.4912  2.4925  1.9977
  189POPC   H5S21769   3.242   0.894  10.061 -0.2977 -1.0671  1.0291
  189POPC   C2621770   3.055   0.909   9.936  0.5564 -0.5480  0.3417
  189POPC   H6R21771   2.970   0.979   9.950  2.8629  2.4334  0.4114
  189POPC   H6S21772   3.020   0.804   9.932  2.4489 -1.2000 -0.1175
  189POPC   C2721773   3.148   0.933   9.814  0.6864 -0.5644 -0.2271
  189POPC   H7R21774   3.230   0.859   9.822 -0.2505 -1.4651  1.5007
  189POPC   H7S21775   3.190   1.034   9.833  1.4464 -0.6955 -1.1219
  189POPC   C2821776   3.076   0.939   9.673 -0.2785 -0.5786  0.0791
  189POPC   H8R21777   3.154   0.971   9.600 -1.2787  0.7788 -0.4585
  189POPC   H8S21778   2.997   1.018   9.677  1.2526  1.0246  0.0171
  189POPC   C2921779   3.018   0.804   9.644  0.2709  0.2582 -0.4501
  189POPC   H9121780   2.934   0.779   9.711  1.5405  0.4599  1.3145
  189POPC  C21021781   3.083   0.711   9.573 -0.9190 -0.1764  0.5724
  189POPC  H10121782   3.037   0.611   9.569 -0.6625 -0.2610 -0.4885
  189POPC  C21121783   3.221   0.721   9.512  0.1780  0.6857  0.5874
  189POPC  H11R21784   3.303   0.755   9.579 -2.0370  2.4307  2.5666
  189POPC  H11S21785   3.228   0.797   9.431  2.6532  1.2854  1.2868
  189POPC  C21221786   3.264   0.587   9.434 -0.0111 -0.2020 -0.1653
  189POPC  H12R21787   3.272   0.510   9.513 -0.1910  0.8119  0.8620
  189POPC  H12S21788   3.367   0.574   9.393 -0.3661 -2.0446 -0.5876
  189POPC  C21321789   3.169   0.542   9.317  0.5161  0.1312 -0.5849
  189POPC  H13R21790   3.061   0.530   9.340  0.7484 -0.1851  0.3477
  189POPC  H13S21791   3.199   0.442   9.280 -2.7183 -0.7255 -1.2155
  189POPC  C21421792   3.184   0.634   9.193  0.4139 -0.3537 -0.0355
  189POPC  H14R21793   3.291   0.622   9.164  0.9586  0.0971  1.6707
  189POPC  H14S21794   3.161   0.738   9.225 -0.1363 -0.5565  0.2488
  189POPC  C21521795   3.083   0.607   9.080 -0.3106  0.7063 -0.1399
  189POPC  H15R21796   2.979   0.629   9.113 -0.7948 -2.0192  0.3956
  189POPC  H15S21797   3.095   0.498   9.065  1.2258  0.9773 -1.0542
  189POPC  C21621798   3.119   0.660   8.937 -0.2551 -0.5115  0.6630
  189POPC  H16R21799   3.164   0.762   8.936  0.2256 -0.7260 -0.2516
  189POPC  H16S21800   3.027   0.679   8.879  0.6580  0.6027 -0.4936
  189POPC  C21721801   3.192   0.560   8.840 -0.6599 -0.1174  0.2424
  189POPC  H17R21802   3.144   0.460   8.840 -0.9817  0.0297 -0.3215
  189POPC  H17S21803   3.292   0.543   8.885  0.8101  1.2192 -2.2803
  189POPC  C21821804   3.221   0.600   8.694 -0.0111  0.8656 -0.0204
  189POPC  H18R21805   3.123   0.593   8.641 -0.4533  1.6416  0.6688
  189POPC  H18S21806   3.298   0.532   8.652 -0.8463 -0.7467  0.9405
  189POPC  H18T21807   3.258   0.705   8.687 -0.0819  0.8264 -1.1457
  189POPC   C3321808   2.845   0.427  10.048 -0.6633 -1.2686 -0.4143
  189POPC   H3X21809   2.942   0.374  10.059  0.1118  0.3701  1.4474
  189POPC   H3Y21810   2.862   0.523   9.995 -1.6550 -1.5791 -1.3175
  189POPC   C3421811   2.755   0.343   9.959  0.1345  0.5877 -0.2478
  189POPC   H4X21812   2.651   0.380   9.944  0.6596  1.7246 -1.2547
  189POPC   H4Y21813   2.730   0.258  10.026  0.6786  0.8503  0.3060
  189POPC   C3521814   2.820   0.293   9.829 -0.6862  0.5403  0.0679
  189POPC   H5X21815   2.767   0.201   9.797  1.5810 -0.8038 -0.0069
  189POPC   H5Y21816   2.925   0.273   9.860 -0.6023  0.8755  0.0147
  189POPC   C3621817   2.822   0.399   9.718  0.0736  0.3711  0.8928
  189POPC   H6X21818   2.897   0.480   9.730  0.7881  0.5395 -3.2447
  189POPC   H6Y21819   2.721   0.446   9.721  0.2552  1.1040 -1.7449
  189POPC   C3721820   2.827   0.334   9.577  0.3172  0.4503 -0.8813
  189POPC   H7X21821   2.764   0.244   9.594  0.3950  0.7416  1.1785
  189POPC   H7Y21822   2.930   0.296   9.564 -0.2977 -0.8029 -2.4275
  189POPC   C3821823   2.778   0.413   9.459  0.3508 -0.5027  0.5271
  189POPC   H8X21824   2.817   0.517   9.460 -0.2441 -0.2410 -0.7229
  189POPC   H8Y21825   2.669   0.427   9.473  0.9562  2.8492  2.9049
  189POPC   C3921826   2.804   0.344   9.322 -0.2142  0.4296  0.2872
  189POPC   H9X21827   2.737   0.256   9.314  1.5071 -1.1185  2.0191
  189POPC   H9Y21828   2.909   0.312   9.306 -0.4961 -0.6666  0.5650
  189POPC  C31021829   2.757   0.434   9.209 -0.1770  0.2219 -0.1088
  189POPC  H10X21830   2.821   0.524   9.209 -1.3358  1.2179 -3.7764
  189POPC  H10Y21831   2.652   0.466   9.223  0.3793  1.6742  0.8840
  189POPC  C31121832   2.783   0.381   9.066 -0.3666  0.4743 -0.6585
  189POPC  H11X21833   2.730   0.284   9.061  0.1821  0.2170 -2.0173
  189POPC  H11Y21834   2.892   0.362   9.060  0.0954  2.0013  1.4985
  189POPC  C31221835   2.742   0.474   8.953 -0.0137  0.0420 -0.2627
  189POPC  H12X21836   2.749   0.579   8.990 -1.5608  0.6723 -1.6279
  189POPC  H12Y21837   2.632   0.461   8.943 -0.1014  0.3564  0.2345
  189POPC  C31321838   2.800   0.456   8.814  0.2886 -0.6467  0.0168
  189POPC  H13X21839   2.910   0.465   8.814  0.1660  1.3488  1.1739
  189POPC  H13Y21840   2.764   0.536   8.746 -0.1235  0.4814  1.5106
  189POPC  C31421841   2.760   0.319   8.752 -0.3723  0.0463  0.5274
  189POPC  H14X21842   2.654   0.330   8.721 -0.4425  2.3610  1.3637
  189POPC  H14Y21843   2.779   0.231   8.817 -1.0389 -0.8264 -0.4256
  189POPC  C31521844   2.844   0.294   8.623 -0.3058 -0.1058 -0.0079
  189POPC  H15X21845   2.953   0.292   8.645 -0.2543 -0.5774 -0.2916
  189POPC  H15Y21846   2.815   0.362   8.540  2.8619 -0.2349 -1.3728
  189POPC  C31621847   2.804   0.151   8.575  0.1274  0.0702 -0.0704
  189POPC  H16X21848   2.697   0.130   8.597  1.1958 -3.2404  2.8113
  189POPC  H16Y21849   2.851   0.065   8.627 -2.6993 -2.3118 -1.1927
  189POPC  H16Z21850   2.815   0.137   8.465  0.4394 -0.7504  0.0581
  190POPC     N21851   3.987   1.307  10.902  0.6034 -0.5049  0.5708
  190POPC   C1221852   3.888   1.263  11.010 -0.5433  0.2163 -0.2241
  190POPC  H12A21853   3.861   1.351  11.067 -2.1514 -0.0316 -0.5519
  190POPC  H12B21854   3.932   1.191  11.078  0.1163  1.5006  0.7617
  190POPC   C1321855   3.912   1.385  10.803  0.3659  0.2553 -0.3174
  190POPC  H13A21856   3.845   1.453  10.853 -1.6565 -1.7381 -0.1438
  190POPC  H13B21857   3.968   1.452  10.738 -1.4333  3.9841  1.6633
  190POPC  H13C21858   3.849   1.322  10.741 -0.5236 -0.0916  0.9107
  190POPC   C1421859   4.093   1.396  10.967  0.2227 -0.2708 -0.4251
  190POPC  H14A21860   4.166   1.428  10.895  0.0951  0.6243 -0.1647
  190POPC  H14B21861   4.058   1.486  11.016  1.2711  0.8621 -1.6812
  190POPC  H14C21862   4.140   1.339  11.046  0.4693  0.2014 -0.2312
  190POPC   C1521863   4.040   1.190  10.839  0.6558 -0.0275  0.1777
  190POPC  H15A21864   4.096   1.202  10.748  1.3876 -0.5938  0.5368
  190POPC  H15B21865   3.959   1.122  10.816 -0.5801  1.2469  0.5534
  190POPC  H15C21866   4.097   1.126  10.905 -2.0030 -1.8000  0.9568
  190POPC   C1121867   3.759   1.188  10.962 -0.1224  0.3769 -0.4288
  190POPC  H11A21868   3.714   1.244  10.878  1.7164  2.8404  0.1192
  190POPC  H11B21869   3.698   1.187  11.055 -0.1031 -2.3309 -0.3693
  190POPC     P21870   3.675   0.950  10.887 -0.2945 -0.3425 -0.2802
  190POPC   O1321871   3.549   1.022  10.865 -0.1915  0.6130  0.3385
  190POPC   O1421872   3.678   0.840  10.987  0.5330  0.4846 -0.1155
  190POPC   O1221873   3.791   1.056  10.920  0.0702 -0.0317  0.0526
  190POPC   O1121874   3.722   0.894  10.747  0.0602 -0.8243 -0.4188
  190POPC    C121875   3.836   0.949  10.679  0.0101 -0.2409  0.6646
  190POPC    HA21876   3.935   0.911  10.712  0.5824  1.3623  0.8786
  190POPC    HB21877   3.837   1.060  10.681 -0.5733 -0.1896 -0.9307
  190POPC    C221878   3.822   0.895  10.539 -0.6736  0.8053 -0.4892
  190POPC    HS21879   3.919   0.917  10.490 -0.2084 -1.1012 -0.5110
  190POPC   O2121880   3.712   0.946  10.471  0.6750  0.3645  0.2289
  190POPC   C2121881   3.719   1.067  10.431  0.0908  0.3345  0.9380
  190POPC   O2221882   3.814   1.144  10.440  0.7815  0.6579 -0.3215
  190POPC   C2221883   3.578   1.106  10.383 -0.1276 -0.2388 -0.3514
  190POPC   H2R21884   3.531   1.183  10.448  0.8569 -0.6906  0.9176
  190POPC   H2S21885   3.517   1.015  10.365 -2.2231  1.2371 -1.2159
  190POPC    C321886   3.809   0.738  10.549 -1.1053  0.1805  0.7600
  190POPC    HX21887   3.706   0.722  10.588 -1.6996  3.3146  0.7519
  190POPC    HY21888   3.884   0.707  10.625 -2.4780  0.9820  2.5411
  190POPC   O3121889   3.836   0.690  10.417 -0.0106  0.1533 -0.4749
  190POPC   C3121890   3.724   0.670  10.342 -0.6580 -0.1077 -0.8247
  190POPC   O3221891   3.611   0.661  10.384  0.3507 -0.1491 -0.7938
  190POPC   C3221892   3.769   0.628  10.202  0.0806 -0.7078 -0.3072
  190POPC   H2X21893   3.761   0.517  10.196  0.6662 -0.7524 -0.3476
  190POPC   H2Y21894   3.877   0.651  10.192  0.0290 -0.2586  0.1407
  190POPC   C2321895   3.591   1.169  10.241 -0.0819 -0.3767 -0.7617
  190POPC   H3R21896   3.665   1.252  10.238  1.1067 -1.4387 -1.1774
  190POPC   H3S21897   3.496   1.226  10.227 -1.6286 -2.2096  1.5007
  190POPC   C2421898   3.606   1.078  10.115  0.3350  0.8292  0.1378
  190POPC   H4R21899   3.512   1.021  10.101 -0.0533  1.5922 -0.4007
  190POPC   H4S21900   3.689   1.003  10.120 -0.2748  0.0559 -1.0933
  190POPC   C2521901   3.616   1.165   9.988 -0.3789  0.4928  0.5447
  190POPC   H5R21902   3.702   1.236   9.991 -0.0371  0.1208 -0.1577
  190POPC   H5S21903   3.531   1.236   9.987  0.5211  1.6149 -1.1574
  190POPC   C2621904   3.614   1.071   9.863 -0.3500 -0.0383 -0.3849
  190POPC   H6R21905   3.530   0.999   9.864 -1.5159  1.2639 -0.8314
  190POPC   H6S21906   3.709   1.014   9.860 -1.3797 -1.7783 -0.9190
  190POPC   C2721907   3.600   1.152   9.740 -0.4297 -0.2424  0.0422
  190POPC   H7R21908   3.678   1.231   9.743 -0.3559 -0.2378 -1.3055
  190POPC   H7S21909   3.502   1.202   9.729  0.0220  0.6081 -0.2486
  190POPC   C2821910   3.609   1.067   9.617 -0.0013  0.0317  0.0356
  190POPC   H8R21911   3.676   0.981   9.636 -0.6303 -0.6142 -0.5972
  190POPC   H8S21912   3.656   1.129   9.539  1.1659 -1.8819 -0.8530
  190POPC   C2921913   3.477   1.016   9.572  0.1571  0.0176 -0.5461
  190POPC   H9121914   3.449   0.922   9.620 -1.4784  0.0862 -1.2772
  190POPC  C21021915   3.383   1.074   9.499 -0.3545 -0.6582 -0.3018
  190POPC  H10121916   3.286   1.027   9.476 -0.5214 -1.0121  1.0314
  190POPC  C21121917   3.390   1.211   9.439  0.0022 -0.1364  0.0855
  190POPC  H11R21918   3.494   1.248   9.431  0.1633 -0.5450  0.2388
  190POPC  H11S21919   3.328   1.280   9.500 -0.4873  0.6545 -1.2621
  190POPC  C21221920   3.340   1.200   9.295 -0.6698 -0.3065 -0.0404
  190POPC  H12R21921   3.330   1.304   9.257 -1.1848  0.5585  2.2772
  190POPC  H12S21922   3.238   1.160   9.310 -0.7405 -0.0807  0.0784
  190POPC  C21321923   3.426   1.108   9.200 -0.3454 -0.4666 -0.4716
  190POPC  H13R21924   3.445   1.013   9.254  0.2363 -1.2396 -1.9688
  190POPC  H13S21925   3.518   1.169   9.188 -0.3478  0.4878  3.1937
  190POPC  C21421926   3.350   1.088   9.074  0.4350  0.0260  0.6267
  190POPC  H14R21927   3.363   1.189   9.030  0.7369  0.9510  2.7293
  190POPC  H14S21928   3.243   1.063   9.093  0.4420 -0.2178  0.3593
  190POPC  C21521929   3.407   0.973   8.991  0.5864  0.1358  0.1269
  190POPC  H15R21930   3.368   0.876   9.029  0.9054 -0.7939 -1.7786
  190POPC  H15S21931   3.516   0.967   9.010  0.5049  1.4517  1.1433
  190POPC  C21621932   3.372   0.977   8.842  0.9970  0.5950  0.5786
  190POPC  H16R21933   3.265   0.977   8.815  1.2937  0.5101 -0.6651
  190POPC  H16S21934   3.417   0.892   8.787 -2.5794  0.4474 -2.4911
  190POPC  C21721935   3.420   1.105   8.774  0.3078 -0.4812  0.0749
  190POPC  H17R21936   3.527   1.121   8.799  0.3996  0.6490 -0.9632
  190POPC  H17S21937   3.361   1.193   8.807  1.2657  0.6374 -1.1026
  190POPC  C21821938   3.403   1.093   8.626  0.5124  0.7030 -0.0969
  190POPC  H18R21939   3.477   1.020   8.588  1.1776 -0.5362  3.2183
  190POPC  H18S21940   3.416   1.190   8.572  0.8421  1.4174  1.2106
  190POPC  H18T21941   3.299   1.064   8.603  0.6362  1.4019 -1.6442
  190POPC   C3321942   3.689   0.687  10.088  0.5634 -0.5311 -0.2887
  190POPC   H3X21943   3.713   0.795  10.079  0.2310 -0.2420  1.8679
  190POPC   H3Y21944   3.580   0.671  10.100  0.5700  0.6514  1.7253
  190POPC   C3421945   3.728   0.630   9.950  0.2814  0.6926  0.4029
  190POPC   H4X21946   3.723   0.519   9.939  0.4397  0.7259 -0.0381
  190POPC   H4Y21947   3.834   0.650   9.927  0.5061  0.1276  0.9255
  190POPC   C3521948   3.652   0.688   9.831  0.3977  0.0126 -0.2332
  190POPC   H5X21949   3.672   0.797   9.821  1.3415 -0.2903 -2.0711
  190POPC   H5Y21950   3.543   0.675   9.847 -0.1696  1.4340 -2.5895
  190POPC   C3621951   3.701   0.621   9.699  0.2798 -1.2127 -0.2947
  190POPC   H6X21952   3.689   0.511   9.691  2.4643 -1.8395  3.0224
  190POPC   H6Y21953   3.809   0.648   9.698 -0.1608  0.9182  1.5643
  190POPC   C3721954   3.634   0.675   9.569 -0.1890 -0.6569  0.0966
  190POPC   H7X21955   3.646   0.785   9.561  0.0962 -0.8147 -2.1627
  190POPC   H7Y21956   3.525   0.656   9.568 -0.2440 -0.4696 -1.7915
  190POPC   C3821957   3.698   0.621   9.438 -0.1948  0.7127  0.6172
  190POPC   H8X21958   3.690   0.510   9.441 -1.1958  0.7907  1.2525
  190POPC   H8Y21959   3.808   0.629   9.454  0.4202 -0.9006 -2.1041
  190POPC   C3921960   3.653   0.690   9.316  0.0902 -0.2340  0.5931
  190POPC   H9X21961   3.680   0.796   9.337 -0.8174 -0.0036  0.6440
  190POPC   H9Y21962   3.543   0.688   9.298  0.1873  0.4527 -0.1464
  190POPC  C31021963   3.718   0.645   9.188  0.0320  0.0805 -0.1607
  190POPC  H10X21964   3.673   0.546   9.164 -2.0435  1.4749 -2.6408
  190POPC  H10Y21965   3.825   0.628   9.210  0.5700 -0.5853 -2.9116
  190POPC  C31121966   3.684   0.741   9.078 -1.4567  0.1469 -0.0289
  190POPC  H11X21967   3.723   0.841   9.106  0.0059 -0.6498  0.9202
  190POPC  H11Y21968   3.577   0.754   9.051 -1.5720  2.4497  1.3152
  190POPC  C31221969   3.764   0.709   8.948 -0.0656 -0.3750 -0.1201
  190POPC  H12X21970   3.733   0.613   8.903 -2.5172  2.2376 -4.7271
  190POPC  H12Y21971   3.871   0.719   8.977  1.0509  0.8272 -4.0739
  190POPC  C31321972   3.732   0.819   8.853 -0.4735 -0.4890 -0.0268
  190POPC  H13X21973   3.770   0.909   8.907  1.2640  0.4321 -2.5909
  190POPC  H13Y21974   3.622   0.818   8.846 -0.5150  0.0969  0.4237
  190POPC  C31421975   3.802   0.828   8.717 -0.1604  0.2486 -0.8110
  190POPC  H14X21976   3.807   0.926   8.666 -4.1658  1.5079  0.8360
  190POPC  H14Y21977   3.772   0.741   8.655  0.5224 -1.3309  0.9488
  190POPC  C31521978   3.954   0.794   8.727  0.1672  0.6672  0.1046
  190POPC  H15X21979   3.989   0.794   8.621 -1.7040  0.6145 -0.5379
  190POPC  H15Y21980   3.952   0.689   8.765 -0.4764  0.9076  0.7547
  190POPC  C31621981   4.042   0.886   8.809  0.9386 -0.1627  0.5682
  190POPC  H16X21982   4.056   0.986   8.762 -1.1126  0.5509  1.4080
  190POPC  H16Y21983   4.142   0.838   8.823  1.2070  0.6087  1.3959
  190POPC  H16Z21984   3.999   0.897   8.911  2.3874 -0.2932  1.2259
  191POPC     N21985   3.522   0.719   6.111 -0.1778 -0.5201 -0.6185
  191POPC   C1221986   3.616   0.735   6.234  0.0697  0.4221  0.8108
  191POPC  H12A21987   3.655   0.835   6.245  0.0774  0.4816  0.2744
  191POPC  H12B21988   3.697   0.670   6.203 -2.8648 -2.3762 -1.8072
  191POPC   C1321989   3.381   0.747   6.147  0.4302 -0.0104 -0.6657
  191POPC  H13A21990   3.342   0.675   6.218 -0.5260  1.3605  0.2565
  191POPC  H13B21991   3.370   0.838   6.204 -0.2026 -1.4919  1.7069
  191POPC  H13C21992   3.319   0.739   6.059  1.5828  2.0666 -1.7754
  191POPC   C1421993   3.559   0.821   6.008 -0.4334  0.1590  0.1457
  191POPC  H14A21994   3.662   0.806   5.979  0.1062 -0.0977  2.0097
  191POPC  H14B21995   3.491   0.812   5.925 -0.0230  1.0225 -0.2901
  191POPC  H14C21996   3.565   0.921   6.049  0.9213  1.2056 -2.4018
  191POPC   C1521997   3.546   0.582   6.050  0.3855 -0.0669 -0.4280
  191POPC  H15A21998   3.652   0.571   6.034  0.4804  0.7016 -0.4081
  191POPC  H15B21999   3.494   0.577   5.956  0.8592 -0.6968 -0.6595
  191POPC  H15C22000   3.504   0.518   6.126  2.1452  0.2073  0.8447
  191POPC   C1122001   3.569   0.677   6.369  0.0868 -1.1982  0.1680
  191POPC  H11A22002   3.483   0.732   6.412 -0.8217 -1.7961 -0.8390
  191POPC  H11B22003   3.643   0.697   6.450 -1.6584 -2.1563  2.1093
  191POPC     P22004   3.421   0.456   6.405  0.4910  0.0055 -0.4394
  191POPC   O1322005   3.452   0.309   6.383 -0.2791 -0.0499 -0.4501
  191POPC   O1422006   3.295   0.510   6.348  0.7226 -0.4133 -0.5042
  191POPC   O1222007   3.543   0.537   6.360 -0.2988 -0.4651  0.4766
  191POPC   O1122008   3.422   0.495   6.564 -0.0151  0.5826 -0.0358
  191POPC    C122009   3.545   0.480   6.637  0.3972 -0.3696 -0.0079
  191POPC    HA22010   3.632   0.507   6.573  0.2693  1.9111  0.7079
  191POPC    HB22011   3.546   0.374   6.672 -1.0539  0.1221  1.6121
  191POPC    C222012   3.546   0.585   6.748 -0.2447  0.1816  0.0850
  191POPC    HS22013   3.575   0.681   6.702 -0.8730  1.6612  2.5557
  191POPC   O2122014   3.632   0.547   6.863 -1.1058  0.3675 -0.0973
  191POPC   C2122015   3.758   0.517   6.842  0.1399 -0.5294 -0.4443
  191POPC   O2222016   3.828   0.531   6.743 -0.1794 -0.7953 -0.4989
  191POPC   C2222017   3.819   0.462   6.974  0.3905 -0.1469  0.5547
  191POPC   H2R22018   3.928   0.469   6.956  0.2375 -0.8740 -0.8383
  191POPC   H2S22019   3.792   0.355   6.988  0.7539 -0.6629 -2.0135
  191POPC    C322020   3.402   0.619   6.795 -0.1439  0.0556 -0.4316
  191POPC    HX22021   3.347   0.528   6.828  1.1035 -0.6974 -0.3233
  191POPC    HY22022   3.341   0.675   6.722 -1.1054  1.1880  1.1943
  191POPC   O3122023   3.414   0.694   6.920  0.6189  0.4342  0.0997
  191POPC   C3122024   3.403   0.825   6.912 -0.3012  1.5149 -0.6689
  191POPC   O3222025   3.369   0.890   6.816 -0.2882  0.0048 -0.2398
  191POPC   C3222026   3.456   0.892   7.040 -0.3296 -0.5658 -0.6479
  191POPC   H2X22027   3.530   0.969   7.010 -1.1935  0.6070  0.1290
  191POPC   H2Y22028   3.511   0.813   7.096 -2.3782 -2.0253 -0.5924
  191POPC   C2322029   3.784   0.543   7.106 -0.0769  0.7707  0.9679
  191POPC   H3R22030   3.771   0.650   7.079 -1.2143  0.5340  0.4952
  191POPC   H3S22031   3.870   0.538   7.176  1.4876  0.0040 -0.9266
  191POPC   C2422032   3.655   0.493   7.176 -0.4000  1.1676 -0.5008
  191POPC   H4R22033   3.650   0.382   7.181 -1.1506  0.9504 -3.7842
  191POPC   H4S22034   3.579   0.514   7.098  0.0289 -0.0224 -1.2745
  191POPC   C2522035   3.622   0.565   7.301 -0.4156  0.0719 -0.2649
  191POPC   H5R22036   3.513   0.555   7.319  0.3380 -2.6883  4.5645
  191POPC   H5S22037   3.646   0.672   7.285 -1.4506  0.3750  0.1267
  191POPC   C2622038   3.696   0.511   7.429 -0.7881  0.4312 -0.3740
  191POPC   H6R22039   3.803   0.540   7.413 -0.1907  0.3979  2.7919
  191POPC   H6S22040   3.679   0.402   7.428 -1.6625  0.5672 -1.3939
  191POPC   C2722041   3.644   0.572   7.563  0.1989  0.0287 -0.8654
  191POPC   H7R22042   3.534   0.565   7.578  0.4665 -0.9014  0.9474
  191POPC   H7S22043   3.680   0.677   7.575 -0.4714 -0.0623  4.9168
  191POPC   C2822044   3.693   0.505   7.693  0.7153  0.0883 -0.1509
  191POPC   H8R22045   3.650   0.403   7.684 -1.9918  1.3065 -3.1056
  191POPC   H8S22046   3.646   0.551   7.783  3.4781 -2.5203  2.9053
  191POPC   C2922047   3.838   0.478   7.714 -0.2709 -0.0982  0.3468
  191POPC   H9122048   3.889   0.411   7.642 -0.8710  0.0125 -0.1862
  191POPC  C21022049   3.911   0.528   7.809  0.1159  0.3691 -0.1030
  191POPC  H10122050   4.018   0.506   7.809  0.7079  2.8878 -1.1912
  191POPC  C21122051   3.862   0.615   7.922 -0.4291  0.0708 -0.3916
  191POPC  H11R22052   3.757   0.647   7.906 -0.4596 -0.7020 -1.8073
  191POPC  H11S22053   3.916   0.713   7.926  1.0093 -0.7247  1.0658
  191POPC  C21222054   3.879   0.554   8.063  0.3668 -0.2699  0.4604
  191POPC  H12R22055   3.989   0.556   8.083  0.5515  1.6365 -0.4590
  191POPC  H12S22056   3.841   0.450   8.062  1.4200 -0.6830 -1.1855
  191POPC  C21322057   3.800   0.626   8.172 -0.2128 -0.3823  0.0151
  191POPC  H13R22058   3.696   0.590   8.185 -0.2786 -1.2302 -2.3243
  191POPC  H13S22059   3.787   0.733   8.146 -0.4865 -0.1191  1.1815
  191POPC  C21422060   3.883   0.624   8.306  0.0494  0.6024 -0.0337
  191POPC  H14R22061   3.824   0.681   8.381 -1.7923 -1.9847  0.6287
  191POPC  H14S22062   3.983   0.663   8.278  1.5258 -3.4154 -1.1317
  191POPC  C21522063   3.916   0.480   8.360 -0.6594 -0.2069  0.2567
  191POPC  H15R22064   3.975   0.450   8.271  0.2478  3.8403 -0.7278
  191POPC  H15S22065   3.827   0.414   8.373 -0.0920 -0.7958  1.1970
  191POPC  C21622066   4.004   0.483   8.480 -0.3907  0.1776 -0.3889
  191POPC  H16R22067   4.002   0.397   8.550 -0.9096  0.2107 -0.3591
  191POPC  H16S22068   3.970   0.569   8.542 -2.6818  0.1345 -1.4917
  191POPC  C21722069   4.153   0.496   8.433 -0.2504  0.1253 -0.1131
  191POPC  H17R22070   4.163   0.592   8.378  1.2518 -0.1080 -0.2885
  191POPC  H17S22071   4.163   0.423   8.350  0.1413  1.8252 -1.6383
  191POPC  C21822072   4.257   0.485   8.550  0.1663  0.6514  0.1261
  191POPC  H18R22073   4.364   0.496   8.524  0.0773  2.2333  0.3741
  191POPC  H18S22074   4.239   0.392   8.610 -0.3738  0.4852 -0.2887
  191POPC  H18T22075   4.224   0.568   8.616 -0.5283  1.2688 -0.9814
  191POPC   C3322076   3.342   0.953   7.117 -0.2788 -0.3687 -0.5177
  191POPC   H3X22077   3.257   0.882   7.119 -1.1294  0.6174 -0.6218
  191POPC   H3Y22078   3.306   1.049   7.074 -1.0681 -0.0614  0.7556
  191POPC   C3422079   3.377   0.979   7.267 -0.3612 -0.2434 -0.1567
  191POPC   H4X22080   3.483   1.014   7.266  0.0361 -1.3441  0.5593
  191POPC   H4Y22081   3.375   0.888   7.331 -1.8544  0.3849  0.7323
  191POPC   C3522082   3.281   1.075   7.339 -0.7593 -0.4977  0.2682
  191POPC   H5X22083   3.179   1.030   7.332 -2.1039  2.5504 -1.6513
  191POPC   H5Y22084   3.260   1.168   7.282 -2.1147 -0.0050  1.5047
  191POPC   C3622085   3.312   1.121   7.485 -0.3572  0.6828 -0.2328
  191POPC   H6X22086   3.216   1.169   7.515 -0.0104  1.7663 -0.7774
  191POPC   H6Y22087   3.393   1.197   7.470  0.5217 -0.4696 -1.6419
  191POPC   C3722088   3.350   1.019   7.594  0.0288  0.6944  0.3350
  191POPC   H7X22089   3.453   0.982   7.575  0.0923  0.5542  0.9289
  191POPC   H7Y22090   3.277   0.936   7.604  0.3930  0.5428  2.0656
  191POPC   C3822091   3.376   1.082   7.737  0.0673  0.5867  0.4337
  191POPC   H8X22092   3.282   1.116   7.786 -1.3277 -1.7315 -0.4756
  191POPC   H8Y22093   3.444   1.169   7.728 -0.2623  0.9889  1.6546
  191POPC   C3922094   3.456   0.983   7.822 -0.5331 -0.9699  0.4184
  191POPC   H9X22095   3.549   0.940   7.778 -0.3084  1.5715 -1.8146
  191POPC   H9Y22096   3.378   0.904   7.832 -0.1933 -1.1204  2.1711
  191POPC  C31022097   3.498   1.041   7.955  0.0276  0.0308 -0.7890
  191POPC  H10X22098   3.419   1.100   8.006  1.2764  0.2804  0.9531
  191POPC  H10Y22099   3.585   1.108   7.949 -0.5712  1.2635  2.3000
  191POPC  C31122100   3.541   0.914   8.040  0.1814 -0.6394  1.0045
  191POPC  H11X22101   3.620   0.872   7.973 -0.8249  0.9684 -1.3301
  191POPC  H11Y22102   3.467   0.832   8.030 -1.3134  0.7061  0.7671
  191POPC  C31222103   3.584   0.935   8.181 -0.2114  0.2858 -0.0964
  191POPC  H12X22104   3.610   0.829   8.202  0.3594  0.3613 -0.4141
  191POPC  H12Y22105   3.506   0.965   8.254  0.9079  0.0678  1.2355
  191POPC  C31322106   3.717   1.018   8.211  0.4093 -0.2560 -0.6632
  191POPC  H13X22107   3.683   1.124   8.210  2.8255  0.5730 -0.5360
  191POPC  H13Y22108   3.796   1.001   8.135 -0.2093 -1.9387 -0.9579
  191POPC  C31422109   3.757   0.995   8.357  1.1357 -0.1761 -0.1246
  191POPC  H14X22110   3.781   0.889   8.381  1.6736 -0.4608 -1.8255
  191POPC  H14Y22111   3.666   1.018   8.417  2.4066 -0.0614  1.8454
  191POPC  C31522112   3.874   1.076   8.403  0.1480 -0.1395  0.5313
  191POPC  H15X22113   3.952   1.052   8.328 -1.0106 -1.1373 -0.4001
  191POPC  H15Y22114   3.907   1.042   8.504  4.0472 -1.1193 -0.8956
  191POPC  C31622115   3.854   1.223   8.393 -0.3183  0.2051  0.1254
  191POPC  H16X22116   3.855   1.270   8.293 -0.1455  1.1356  0.5520
  191POPC  H16Y22117   3.935   1.273   8.450  0.8317 -0.6435 -0.7163
  191POPC  H16Z22118   3.759   1.252   8.443  0.4580  0.4359  1.5322
  192POPC     N22119   1.633   2.742   5.761  0.0002 -0.2789  0.0866
  192POPC   C1222120   1.745   2.734   5.872  1.3440 -0.6993 -0.9888
  192POPC  H12A22121   1.827   2.797   5.839  0.0436  0.8989 -1.3367
  192POPC  H12B22122   1.782   2.633   5.882  1.9345 -0.2724  2.7266
  192POPC   C1322123   1.676   2.674   5.636 -0.2963 -0.0465  0.1042
  192POPC  H13A22124   1.693   2.568   5.649 -1.9249 -0.3730 -0.2282
  192POPC  H13B22125   1.601   2.674   5.559  0.8365  0.1715 -1.0245
  192POPC  H13C22126   1.756   2.723   5.582 -0.0410 -0.5400  0.0296
  192POPC   C1422127   1.511   2.669   5.810  0.1455 -0.0828 -0.2903
  192POPC  H14A22128   1.481   2.719   5.901  1.3668  0.2803 -0.0736
  192POPC  H14B22129   1.431   2.674   5.736 -0.9877  1.2338  0.9615
  192POPC  H14C22130   1.535   2.565   5.826 -3.5412 -1.0710 -0.1622
  192POPC   C1522131   1.597   2.890   5.734 -0.5859  0.6893  0.3081
  192POPC  H15A22132   1.540   2.899   5.642 -0.3031 -0.9058 -0.0596
  192POPC  H15B22133   1.692   2.940   5.727  0.0227 -0.4888 -0.2812
  192POPC  H15C22134   1.551   2.934   5.821  0.2333  3.2301 -0.4593
  192POPC   C1122135   1.714   2.775   6.021  0.4318 -0.3046  0.2871
  192POPC  H11A22136   1.802   2.750   6.084  1.7987  2.5281 -0.3555
  192POPC  H11B22137   1.636   2.707   6.062  0.3560  0.9705  2.3905
  192POPC     P22138   1.794   3.018   6.017 -0.0146  0.0928 -0.3435
  192POPC   O1322139   1.761   3.147   6.087  0.5866  0.6827  0.0139
  192POPC   O1422140   1.817   3.025   5.869 -0.7101  0.1051 -0.3583
  192POPC   O1222141   1.678   2.912   6.036  0.5753  1.0237  0.0872
  192POPC   O1122142   1.917   2.952   6.088 -0.8044 -0.3322  0.3794
  192POPC    C122143   1.967   3.002   6.211 -0.4122 -0.6879  0.1638
  192POPC    HA22144   1.957   3.109   6.238  2.8577 -0.7726  2.3259
  192POPC    HB22145   2.077   2.986   6.211  0.0426  1.7102  2.1591
  192POPC    C222146   1.910   2.915   6.334 -0.5294  0.1021 -0.4858
  192POPC    HS22147   1.896   2.812   6.295  2.3933 -0.4758 -0.2400
  192POPC   O2122148   1.784   2.979   6.379 -0.1377  0.0406  0.1210
  192POPC   C2122149   1.686   2.898   6.423 -0.9183 -0.3480 -0.2979
  192POPC   O2222150   1.690   2.774   6.438 -0.4876  0.2487 -0.5349
  192POPC   C2222151   1.558   2.983   6.451 -0.1397  0.7084 -0.1146
  192POPC   H2R22152   1.479   2.912   6.483 -0.0518  0.6888  0.0654
  192POPC   H2S22153   1.532   3.042   6.361  1.6913  0.9215 -0.5381
  192POPC    C322154   2.014   2.907   6.452  0.6837 -0.7068  0.7399
  192POPC    HX22155   2.034   3.010   6.487 -0.7618 -0.7767  1.8509
  192POPC    HY22156   2.107   2.865   6.407  1.8604  1.5365  0.9646
  192POPC   O3122157   1.979   2.830   6.562  0.0411 -0.5232 -0.0908
  192POPC   C3122158   1.995   2.699   6.560  0.4926 -0.4773 -0.7233
  192POPC   O3222159   2.032   2.634   6.464 -0.1339  0.3990 -0.0445
  192POPC   C3222160   1.966   2.642   6.699 -0.1272  1.0020 -0.5015
  192POPC   H2X22161   2.031   2.702   6.766  0.9412 -0.5744 -0.0816
  192POPC   H2Y22162   2.011   2.541   6.702 -0.5190  0.8343 -0.2492
  192POPC   C2322163   1.584   3.097   6.558  0.0456 -0.0197  0.1272
  192POPC   H3R22164   1.479   3.126   6.583 -1.1823 -1.9076 -2.3150
  192POPC   H3S22165   1.643   3.180   6.514  0.3778 -0.9828 -1.3299
  192POPC   C2422166   1.668   3.063   6.687  0.1579 -0.4867  0.1662
  192POPC   H4R22167   1.688   3.150   6.753 -0.4002 -0.0563 -0.2223
  192POPC   H4S22168   1.769   3.035   6.653  0.2575  0.3764 -0.2736
  192POPC   C2522169   1.617   2.937   6.763  0.2758 -0.3544 -0.4984
  192POPC   H5R22170   1.686   2.930   6.850  1.2823 -2.7253 -1.4115
  192POPC   H5S22171   1.613   2.846   6.700 -0.1927  0.4000 -1.5935
  192POPC   C2622172   1.474   2.947   6.834 -0.5232  1.8489  0.9999
  192POPC   H6R22173   1.435   2.846   6.857  0.6357  1.1986  0.2070
  192POPC   H6S22174   1.411   2.999   6.758  1.8137  0.5470 -2.0347
  192POPC   C2722175   1.471   3.037   6.962  0.6262  0.0099 -0.3786
  192POPC   H7R22176   1.370   3.038   7.008  1.0345 -0.3098  0.5581
  192POPC   H7S22177   1.478   3.145   6.937 -2.2756  0.2355 -0.5554
  192POPC   C2822178   1.574   3.004   7.072  0.4766  0.1252 -0.3478
  192POPC   H8R22179   1.565   3.069   7.162 -0.5296  0.9427 -1.0131
  192POPC   H8S22180   1.675   3.019   7.027  1.2048 -0.8816  0.8839
  192POPC   C2922181   1.573   2.855   7.105  0.3540 -0.5509  0.9906
  192POPC   H9122182   1.613   2.789   7.027 -2.5259 -1.5586  0.2475
  192POPC  C21022183   1.517   2.792   7.209  0.2343 -0.6948 -0.6790
  192POPC  H10122184   1.528   2.683   7.203  2.7955 -0.5670  0.4665
  192POPC  C21122185   1.452   2.858   7.332 -0.0411  0.2967 -0.2740
  192POPC  H11R22186   1.346   2.825   7.334 -0.1717  0.5950 -1.4036
  192POPC  H11S22187   1.459   2.969   7.342  2.4132  0.2110 -0.5626
  192POPC  C21222188   1.523   2.813   7.462  0.6923  0.0997  0.0522
  192POPC  H12R22189   1.624   2.857   7.449  0.6674  0.8435  1.9868
  192POPC  H12S22190   1.529   2.702   7.471  0.3540 -0.1019 -1.8927
  192POPC  C21322191   1.467   2.852   7.594  0.4903  0.2394 -0.3802
  192POPC  H13R22192   1.356   2.841   7.601 -0.1166  3.5918 -2.6360
  192POPC  H13S22193   1.491   2.958   7.617 -0.1768 -0.0937  2.1406
  192POPC  C21422194   1.527   2.771   7.708 -0.0761 -0.0975 -0.7016
  192POPC  H14R22195   1.637   2.783   7.709 -0.0353 -0.3847 -1.2357
  192POPC  H14S22196   1.519   2.663   7.682  1.9781 -0.0838 -1.5337
  192POPC  C21522197   1.463   2.804   7.848 -0.5747  0.0231 -0.2831
  192POPC  H15R22198   1.359   2.828   7.817 -0.8348 -0.9191 -0.1706
  192POPC  H15S22199   1.520   2.888   7.892 -1.9649  1.3526 -0.9490
  192POPC  C21622200   1.470   2.685   7.948 -0.4723  0.3011  0.2473
  192POPC  H16R22201   1.579   2.664   7.959  0.4186  2.1908 -3.3485
  192POPC  H16S22202   1.434   2.591   7.901  0.9336 -0.8204  1.3044
  192POPC  C21722203   1.398   2.704   8.080 -0.4023 -0.4067 -0.3708
  192POPC  H17R22204   1.444   2.792   8.130 -1.8028 -0.4137  0.9829
  192POPC  H17S22205   1.408   2.619   8.150 -0.8197  0.0154  0.2063
  192POPC  C21822206   1.255   2.744   8.062  0.4977 -0.2017 -0.0307
  192POPC  H18R22207   1.238   2.835   8.000  0.9967 -0.4417 -0.5290
  192POPC  H18S22208   1.206   2.760   8.161 -3.3722 -2.7391 -1.3364
  192POPC  H18T22209   1.203   2.662   8.010  0.9902 -0.5499  0.0174
  192POPC   C3322210   1.820   2.645   6.746  0.4946 -0.7038  0.4256
  192POPC   H3X22211   1.765   2.579   6.675  0.4299  0.2683 -0.4371
  192POPC   H3Y22212   1.788   2.748   6.720  3.0270  0.1308  0.3880
  192POPC   C3422213   1.789   2.599   6.890 -0.1807  0.1371 -0.1735
  192POPC   H4X22214   1.793   2.488   6.890 -1.0662  0.0947 -0.6210
  192POPC   H4Y22215   1.684   2.619   6.921 -0.6786 -0.5898 -1.3342
  192POPC   C3522216   1.882   2.657   6.997  0.6430 -0.2350  0.0710
  192POPC   H5X22217   1.868   2.767   6.995 -0.5276 -0.3736 -0.0821
  192POPC   H5Y22218   1.987   2.635   6.968  0.3483  0.4038 -1.5485
  192POPC   C3622219   1.844   2.611   7.132  0.0837  0.0755  0.2188
  192POPC   H6X22220   1.848   2.500   7.130  1.3214  0.1051 -1.7861
  192POPC   H6Y22221   1.740   2.629   7.167  0.8892 -0.8839  3.4969
  192POPC   C3722222   1.948   2.657   7.233 -0.6950 -0.0695  0.3145
  192POPC   H7X22223   1.939   2.768   7.232  0.8715  0.0757 -0.0153
  192POPC   H7Y22224   2.052   2.631   7.204 -1.1484 -0.1185 -1.3388
  192POPC   C3822225   1.919   2.602   7.378  0.4582 -0.2024  0.8802
  192POPC   H8X22226   1.931   2.491   7.383  1.6182 -0.1866 -0.5837
  192POPC   H8Y22227   1.815   2.624   7.409  0.4927 -0.9569  1.5694
  192POPC   C3922228   1.998   2.676   7.484 -1.0235 -0.6785  0.1175
  192POPC   H9X22229   1.995   2.784   7.457  1.5155 -0.2153  1.4150
  192POPC   H9Y22230   2.102   2.641   7.468 -1.3265 -1.0277 -1.1525
  192POPC  C31022231   1.955   2.651   7.629  0.0072  0.2341  0.0721
  192POPC  H10X22232   1.848   2.679   7.635 -0.2142 -0.7429  0.9416
  192POPC  H10Y22233   2.027   2.712   7.688  1.5136 -0.7919 -0.6464
  192POPC  C31122234   1.966   2.509   7.676  0.1286 -0.2579 -0.2537
  192POPC  H11X22235   2.047   2.457   7.622  0.4748  0.5138 -0.4965
  192POPC  H11Y22236   1.871   2.456   7.650 -0.4150 -0.2368  1.5515
  192POPC  C31222237   1.992   2.498   7.827  0.1760 -0.0746 -0.5396
  192POPC  H12X22238   2.092   2.545   7.845 -0.3397  0.5396  0.8298
  192POPC  H12Y22239   1.989   2.393   7.863  0.8282  1.0601  3.3013
  192POPC  C31322240   1.880   2.570   7.913 -0.0013 -0.8905 -0.4616
  192POPC  H13X22241   1.774   2.536   7.902 -1.3207  2.0836  1.7475
  192POPC  H13Y22242   1.884   2.676   7.882 -2.0045 -0.6985 -0.2503
  192POPC  C31422243   1.909   2.577   8.067 -0.5091 -0.5799 -0.2191
  192POPC  H14X22244   2.015   2.612   8.073 -0.5612 -0.7363  3.6282
  192POPC  H14Y22245   1.916   2.484   8.127 -0.0286 -0.2447  0.2566
  192POPC  C31522246   1.823   2.677   8.143 -0.1385 -0.1021 -0.0519
  192POPC  H15X22247   1.723   2.630   8.154 -0.3622  0.6310  1.2613
  192POPC  H15Y22248   1.815   2.771   8.083  2.5503  1.2690  1.5278
  192POPC  C31622249   1.877   2.705   8.276  0.0522 -0.1083  0.0334
  192POPC  H16X22250   1.804   2.739   8.353  0.3554 -3.4831  2.0281
  192POPC  H16Y22251   1.956   2.782   8.268 -0.3453  0.6408  2.5118
  192POPC  H16Z22252   1.911   2.612   8.327 -1.7124 -0.5293  0.5256
  193SOD    SOD22253   1.938   5.732   5.577  0.1209 -0.5203 -0.7330
  194SOD    SOD22254   6.755   2.033  16.067 -0.0593  0.0667  0.2802
  195SOD    SOD22255   5.088   1.028  10.406 -0.0066  0.2041 -0.2316
  196SOD    SOD22256   2.310   3.732   6.112 -0.1590  0.1932 -0.1809
  197SOD    SOD22257   3.268   1.219  10.670  0.0516  0.3804 -0.1980
  198SOD    SOD22258   4.422   1.018  13.219 -0.0294 -0.3442  0.1170
  199SOD    SOD22259   1.824   6.197   6.731  0.5803 -0.2432 -0.2192
  200SOD    SOD22260   3.084   4.064  16.316  0.3366  0.1417  0.0044
  201SOD    SOD22261   5.113   4.280  14.358  0.0083  0.2242 -0.3366
  202SOD    SOD22262   6.098   1.406   2.202  0.0706 -0.0977  0.2554
  203SOD    SOD22263   1.011   3.624  17.078  0.3097  0.1809 -0.0667
  204SOD    SOD22264   1.564   1.275   3.919 -0.2524  0.2582  0.4986
  205SOD    SOD22265   4.607   6.253  11.561 -0.3282  0.4881  0.3251
  206SOD    SOD22266   5.544   1.038   0.926  0.0142 -0.2032  0.0818
  207SOD    SOD22267   4.332   3.942   4.975 -0.0276 -0.3542  0.3702
  208SOD    SOD22268   2.061   3.850  15.769  0.0042 -0.0248  0.0223
  209SOD    SOD22269   0.217   5.059  15.389 -0.4117 -0.0137  0.2883
  210SOD    SOD22270   2.697   4.360   2.189  0.7870 -0.0510 -0.2482
  211SOD    SOD22271   4.738   5.970   4.151 -0.0038 -0.0976  0.0608
  212SOD    SOD22272   0.574   2.845  16.173  0.4402  0.5149 -0.2646
  213SOD    SOD22273   5.770   3.922   4.289  0.2563  0.3541  0.3083
  214SOD    SOD22274   3.258   1.771  15.087 -0.1521  0.2357  0.2106
  215SOD    SOD22275   0.675   6.061  13.762  0.0674 -0.3517 -0.6226
  216SOD    SOD22276   1.735   2.075  14.247  0.2863 -0.3675  0.4214
  217SOD    SOD22277   1.277   1.024  11.082  0.2467 -0.0796  0.0058
  218SOD    SOD22278   5.501   3.016  17.067  0.1461  0.1460 -0.1460
  219SOD    SOD22279   5.458   4.852   4.386  0.0092 -0.3117  0.3954
  220SOD    SOD22280   2.657   0.526  15.402  0.1092 -0.3789 -0.0323
  221SOD    SOD22281   3.688   3.379  11.046 -0.0361 -0.1627 -0.0682
  222SOD    SOD22282   5.033   0.185   6.262 -0.2567  0.0050 -0.0505
  223SOD    SOD22283   3.549   0.057  15.444 -0.0174 -0.0212  0.2437
  224SOD    SOD22284   0.863   0.532  12.673 -0.1618  0.3203  0.3976
  225SOD    SOD22285   6.230   6.123   0.377  0.1672  0.0438  0.1045
  226SOD    SOD22286   6.282   1.408   0.124 -0.6321 -0.0799 -0.6590
  227SOD    SOD22287   4.266   3.825  12.473 -0.3981 -0.0393 -0.2344
  228SOD    SOD22288   6.173   3.381  16.376 -0.0905  0.9248  0.6292
  229SOD    SOD22289   0.475   4.577   0.920  0.1751  0.5035 -0.6481
  230SOD    SOD22290   0.552   0.260   6.325 -0.1957  0.0629  0.0001
  231SOD    SOD22291   4.004   5.016   6.145 -0.0177  0.5129 -0.4800
  232SOD    SOD22292   2.846   5.650  11.447 -0.1504  0.0924 -0.5252
  233SOD    SOD22293   5.051   1.069   1.591 -0.0078 -0.2076 -0.2035
  234SOD    SOD22294   0.971   0.017  15.736  0.5443  0.2488  0.1629
  235SOD    SOD22295   1.976   6.688  12.207  0.9640 -0.1297 -0.1134
  236SOD    SOD22296   3.169   5.857   5.800 -0.3703 -0.3217  0.0697
  237SOD    SOD22297   6.537   0.806  15.412  0.0350  0.0822  0.1475
  238SOD    SOD22298   2.190   2.297   5.314  0.0330  0.8419  0.0532
  239SOD    SOD22299   2.935   2.605   5.804  0.3138  0.2205  0.2769
  240SOD    SOD22300   6.495   3.546  10.797 -0.0825  0.4764  0.2746
  241SOD    SOD22301   3.663   6.087   2.930 -0.4771  0.0252 -0.5601
  242SOD    SOD22302   4.368   0.816   1.069  0.3376 -0.2840 -0.0672
  243SOD    SOD22303   3.268   5.950  16.395  0.2082  0.6933 -0.3930
  244SOD    SOD22304   1.533   5.627  11.046 -0.7876  0.1016  0.5200
  245SOD    SOD22305   5.562   4.882  11.683 -0.2494  0.4239 -0.5818
  246SOD    SOD22306   1.356   1.430   2.358 -0.5066 -0.2132  0.0074
  247SOD    SOD22307   0.914   6.527   6.004 -0.0741  0.4368  0.2825
  248SOD    SOD22308   4.828   6.025  16.702  0.1991 -0.3601 -0.0014
  249SOD    SOD22309   0.225   1.788   4.846 -0.1884  0.0751 -0.3677
  250SOD    SOD22310   3.015   0.765   4.745  0.2364  0.3111  0.0103
  251SOD    SOD22311   5.852   3.116   2.508 -0.0827  0.2444  0.1140
  252SOD    SOD22312   2.648   3.884   5.306  0.1504  0.0004 -0.0996
  253SOD    SOD22313   4.517   3.514  15.471  0.0677  0.1656 -0.0354
  254SOD    SOD22314   1.500   5.553   1.038  0.4363  0.5625  0.4744
  255SOD    SOD22315   6.744   0.823  11.812 -0.0235 -0.1851  0.0761
  256SOD    SOD22316   2.441   1.130   3.082  0.2129 -0.1668 -0.3508
  257SOD    SOD22317   3.828   5.177  14.091 -0.3416  0.2194 -0.3824
  258SOD    SOD22318   1.515   4.858  15.979 -0.3173 -0.2251 -0.3702
  259SOD    SOD22319   4.585   5.502  14.307 -0.4354 -0.4677  0.0810
  260SOD    SOD22320   2.918   5.833  13.579  0.0815 -0.5261  0.1799
  261SOD    SOD22321   2.995   2.254  13.487 -0.2937  0.0574  0.0424
  262SOD    SOD22322   2.209   3.340   4.092 -0.1224  0.3886 -0.0360
  263SOD    SOD22323   5.154   2.169   5.466  0.0418  0.2576 -0.0125
  264SOD    SOD22324   2.366   0.131   6.319 -0.1390  0.0811  0.1839
  265SOD    SOD22325   2.803   1.713  11.342  0.5441 -0.6527 -0.0026
  266SOD    SOD22326   4.171   1.798   4.431  0.4525 -0.4715 -0.2904
  267SOD    SOD22327   6.791   1.345  12.636  0.1390 -0.0397 -0.7465
  268SOD    SOD22328   5.875   6.426  15.234  0.4099 -0.3210  0.0583
  269SOD    SOD22329   0.513   6.647  15.976 -0.4539  0.0538 -0.3998
  270CLA    CLA22330   1.973   2.879   4.952  0.0661  0.2982 -0.3183
  271CLA    CLA22331   5.441   5.202   2.478 -0.0851  0.1004 -0.1462
  272CLA    CLA22332   3.981   0.938  13.463 -0.1646  0.4009  0.2251
  273CLA    CLA22333   1.639   1.534   5.239 -0.3294  0.0039 -0.4113
  274CLA    CLA22334   0.418   1.270  14.521 -0.2229 -0.1309  0.2380
  275CLA    CLA22335   1.318   0.964  13.738 -0.2908 -0.2202  0.3379
  276CLA    CLA22336   5.004   5.201  14.129 -0.1850  0.2144  0.1095
  277CLA    CLA22337   6.037   4.728  16.153  0.0745 -0.2217  0.1280
  278CLA    CLA22338   3.675   1.126  15.768 -0.0362 -0.2099 -0.1892
  279CLA    CLA22339   6.772   5.351  11.634 -0.4664 -0.0477  0.3614
  280CLA    CLA22340   6.805   3.190  13.842  0.4679  0.3986  0.3819
  281CLA    CLA22341   2.713   1.835  13.649 -0.3408 -0.0613 -0.2818
  282CLA    CLA22342   1.234   2.291  13.142 -0.0527  0.2421  0.0516
  283CLA    CLA22343   0.622   2.352  16.316 -0.0647 -0.2399 -0.6518
  284CLA    CLA22344   4.174   5.752  12.699 -0.1887  0.1686 -0.6272
  285CLA    CLA22345   0.085   4.797   1.715 -0.0575  0.4258  0.1826
  286CLA    CLA22346   0.242   6.407   0.316 -0.2009  0.3630  0.4968
  287CLA    CLA22347   3.308   0.110  15.517  0.1907 -0.3242  0.0044
  288CLA    CLA22348   4.712   1.401   4.183  0.0075 -0.1931  0.0002
  289CLA    CLA22349   5.641   6.289  14.804 -0.0804 -0.5677  0.2340
  290CLA    CLA22350   2.545   3.665   5.227  0.1345  0.2795 -0.3549
  291CLA    CLA22351   5.981   3.843  15.759 -0.1347 -0.3444  0.0991
  292CLA    CLA22352   4.933   2.794  16.267 -0.0108 -0.1989  0.2097
  293CLA    CLA22353   0.308   5.385   2.869 -0.0279  0.3810 -0.1291
  294CLA    CLA22354   1.867   0.856   0.563 -0.2052  0.1837  0.2521
  295CLA    CLA22355   2.665   6.637  15.556  0.0518 -0.3939  0.0829
  296CLA    CLA22356   2.854   0.452  12.007  0.0292 -0.0893 -0.3956
  297CLA    CLA22357   0.241   2.428   4.471 -0.2628 -0.0818 -0.5224
  298CLA    CLA22358   1.807   5.810  14.673 -0.0569  0.1890 -0.2379
  299CLA    CLA22359   4.411   2.520   0.510 -0.0424 -0.8020  0.4012
  300CLA    CLA22360   5.479   5.746  12.754 -0.2904  0.2270  0.0538
  301CLA    CLA22361   4.763   0.829  11.233  0.2131  0.6227  0.1471
  302CLA    CLA22362   5.051   1.321   1.240  0.2425  0.0912 -0.3171
  303CLA    CLA22363   4.380   1.201   1.464  0.1250  0.3728 -0.4259
  304CLA    CLA22364   4.080   5.311  13.002 -0.3096  0.0770 -0.5231
  305CLA    CLA22365   3.599   5.037  13.118 -0.1531 -0.0802  0.3563
  306CLA    CLA22366   1.884   4.760   1.857  0.3139  0.1729 -0.2779
  307CLA    CLA22367   6.131   6.192  14.776  0.0049 -0.2388  0.0127
  308CLA    CLA22368   6.379   3.605   0.380 -0.5595 -0.1863 -0.0112
  309CLA    CLA22369   1.292   3.467   5.301  0.3795  0.1442 -0.0812
  310CLA    CLA22370   3.650   6.008  16.626 -0.7103 -0.2459  0.2812
  311CLA    CLA22371   5.098   5.186   0.094  0.4264  0.0433  0.5066
  312CLA    CLA22372   0.077   3.246  11.885  0.1346 -0.4306 -0.4564
  313CLA    CLA22373   3.833   5.873   3.951 -0.1337 -0.1140 -0.0470
  314CLA    CLA22374   0.486   4.277  15.739  0.2062  0.3962 -0.0270
  315CLA    CLA22375   6.562   1.046   0.108  0.1291 -0.1650 -0.0471
  316CLA    CLA22376   4.684   6.417   0.450 -0.2675 -0.0053 -0.1708
  317CLA    CLA22377   5.121   5.527   4.734 -0.0534 -0.1208 -0.1077
  318CLA    CLA22378   2.025   1.206   3.172  0.0099 -0.0659  0.4443
  319CLA    CLA22379   0.196   5.617  15.041 -0.4288 -0.3869  0.0135
  320CLA    CLA22380   6.266   2.014  16.224  0.0499 -0.2184 -0.3265
  321CLA    CLA22381   5.164   1.786   5.229 -0.3212 -0.8061 -0.2719
  322CLA    CLA22382   5.669   4.811   5.050  0.2599 -0.4455 -0.1578
  323TIP3   OH222383   4.654   1.747   2.584 -0.1292 -0.2438 -0.4211
  323TIP3    H122384   4.599   1.705   2.651 -0.6485 -1.5708 -1.5962
  323TIP3    H222385   4.593   1.802   2.535  0.9505  4.2236  2.6264
  324TIP3   OH222386   4.008   1.679  13.534  0.4807 -0.1086  0.1231
  324TIP3    H122387   3.921   1.672  13.496  0.3430 -0.0723  0.4270
  324TIP3    H222388   4.039   1.766  13.510  0.0655  0.2278  0.7749
  325TIP3   OH222389   5.555   4.576   4.011  0.0313 -0.0154  0.4228
  325TIP3    H122390   5.482   4.534   3.965 -0.9397  0.4087  1.5546
  325TIP3    H222391   5.627   4.513   4.002 -1.0882 -1.4450  1.1458
  326TIP3   OH222392   1.181   5.848  14.250  0.3993 -0.4092  0.1046
  326TIP3    H122393   1.177   5.898  14.169 -0.8055  0.5180  0.7053
  326TIP3    H222394   1.205   5.912  14.317 -0.8192 -0.6852  0.8335
  327TIP3   OH222395   5.777   3.441  13.349 -0.2930  0.1131  0.0683
  327TIP3    H122396   5.724   3.375  13.304 -2.0880 -0.2246  2.4601
  327TIP3    H222397   5.713   3.503  13.384  1.1443  1.4089  0.5128
  328TIP3   OH222398   2.942   2.726  15.687 -0.3051 -0.3133 -0.4766
  328TIP3    H122399   3.022   2.683  15.658 -0.2422 -0.0775 -0.6537
  328TIP3    H222400   2.936   2.804  15.633  1.3040  1.6610  1.9500
  329TIP3   OH222401   6.514   1.003   5.998 -0.4765  0.2413  0.2266
  329TIP3    H122402   6.468   0.923   6.021 -0.3850 -0.2293 -1.1221
  329TIP3    H222403   6.473   1.032   5.917  1.6715 -0.3256 -1.1705
  330TIP3   OH222404   2.670   4.682  11.660 -0.0300  0.2273 -0.2688
  330TIP3    H122405   2.750   4.693  11.711  0.0175 -1.1407  0.0082
  330TIP3    H222406   2.699   4.668  11.570 -0.0798  1.9306 -0.5697
  331TIP3   OH222407   1.705   6.345   6.587 -0.1160 -0.0064  0.3199
  331TIP3    H122408   1.733   6.436   6.581 -1.8953  0.6706  1.4748
  331TIP3    H222409   1.691   6.317   6.497 -1.3759  1.4924  0.0197
  332TIP3   OH222410   3.129   0.853  15.031 -0.1950 -0.0659 -1.2152
  332TIP3    H122411   3.035   0.840  15.048 -0.1856  0.9921 -0.2147
  332TIP3    H222412   3.154   0.778  14.977 -1.0568 -1.7679  0.5950
  333TIP3   OH222413   6.117   3.206  12.591 -0.1364  0.2929 -0.3409
  333TIP3    H122414   6.024   3.201  12.569  0.2014  0.1592 -1.8626
  333TIP3    H222415   6.154   3.264  12.525  1.0321 -0.4348 -0.3528
  334TIP3   OH222416   1.409   1.412   2.985 -0.0314 -0.1450  0.1334
  334TIP3    H122417   1.440   1.500   3.009  1.1050 -1.1326  2.5457
  334TIP3    H222418   1.478   1.377   2.929 -0.0285  0.1278 -0.0371
  335TIP3   OH222419   1.433   4.923   0.458  0.0416  0.1145 -0.4696
  335TIP3    H122420   1.456   4.848   0.404  0.1144 -0.0587 -0.2009
  335TIP3    H222421   1.478   4.997   0.417  0.7877 -0.1595 -0.1566
  336TIP3   OH222422   1.780   0.048  12.628  0.5482  0.1025 -0.3485
  336TIP3    H122423   1.780   0.015  12.718  1.3350  1.4813  0.1902
  336TIP3    H222424   1.697   0.096  12.621  0.7739  0.5238 -0.1487
  337TIP3   OH222425   4.000   3.342   1.431  0.4504  0.7812  0.0124
  337TIP3    H122426   3.987   3.379   1.518  0.4881 -0.1060  0.4121
  337TIP3    H222427   3.911   3.326   1.398  0.4391  0.4836  0.1791
  338TIP3   OH222428   4.589   4.047  11.063 -0.9883  0.1620 -0.1976
  338TIP3    H122429   4.555   3.960  11.085  1.3225 -0.9728 -0.8417
  338TIP3    H222430   4.579   4.053  10.968  1.1804 -0.5261 -0.5182
  339TIP3   OH222431   1.396   6.547   2.156  0.5572 -0.2546 -0.5417
  339TIP3    H122432   1.395   6.546   2.252  2.0094 -2.9735 -0.4615
  339TIP3    H222433   1.307   6.520   2.131  0.0655  0.8057 -0.0198
  340TIP3   OH222434   4.781   1.492   3.135  0.0488  0.1544  0.0380
  340TIP3    H122435   4.776   1.436   3.058 -0.1927 -0.4967  0.5147
  340TIP3    H222436   4.712   1.458   3.193  1.9473 -1.1383  1.6866
  341TIP3   OH222437   5.095   4.076  15.287 -0.9333  0.2042  0.0989
  341TIP3    H122438   5.055   4.069  15.374 -1.9843  0.7808 -0.3245
  341TIP3    H222439   5.023   4.061  15.226 -0.1570 -0.4364 -0.6837
  342TIP3   OH222440   4.769   5.005   3.719 -0.6056 -0.3393 -0.0741
  342TIP3    H122441   4.859   5.036   3.730 -1.2641  1.2985  0.9657
  342TIP3    H222442   4.769   4.963   3.633  0.9913  0.1753 -0.3664
  343TIP3   OH222443   3.346   1.520   2.846 -0.2302  0.1906  0.1070
  343TIP3    H122444   3.429   1.559   2.874  0.0549  1.2950 -2.0537
  343TIP3    H222445   3.369   1.467   2.770 -1.3037 -0.6381  0.3375
  344TIP3   OH222446   3.563   5.492   0.292  0.0390  0.2618 -0.4581
  344TIP3    H122447   3.647   5.458   0.259 -0.3519 -1.7259  0.4981
  344TIP3    H222448   3.587   5.570   0.342  1.4419 -0.7311  0.4915
  345TIP3   OH222449   4.622   1.439   3.866  0.0121 -0.0192  0.6098
  345TIP3    H122450   4.713   1.439   3.837  0.2715  0.2429  1.3928
  345TIP3    H222451   4.627   1.419   3.960 -0.8143 -1.0573  0.4438
  346TIP3   OH222452   3.808   1.751  14.026  0.4546 -0.8520 -0.5487
  346TIP3    H122453   3.770   1.664  14.030 -3.4748  0.6555 -0.2609
  346TIP3    H222454   3.779   1.787  13.943 -0.5767  1.1235  0.5814
  347TIP3   OH222455   4.070   3.070  15.422 -0.0285  0.0828 -0.0806
  347TIP3    H122456   4.119   2.988  15.424  0.3909  0.2657 -1.5242
  347TIP3    H222457   3.983   3.047  15.455  0.0979 -0.9353 -0.4289
  348TIP3   OH222458   6.357   1.460   4.572  0.3009  0.1281  0.0444
  348TIP3    H122459   6.263   1.460   4.586  0.6313  2.7854  3.8234
  348TIP3    H222460   6.388   1.381   4.615 -0.0725  0.0379  0.1510
  349TIP3   OH222461   0.985   3.434   5.121 -1.0837  0.3629  1.0066
  349TIP3    H122462   0.920   3.475   5.178  0.1197  0.9387  2.0224
  349TIP3    H222463   1.069   3.451   5.164 -0.2303 -0.1906 -0.3609
  350TIP3   OH222464   2.980   2.056  15.447  0.7213  0.3409 -0.3021
  350TIP3    H122465   2.966   2.034  15.354 -0.7574  1.9375 -0.5026
  350TIP3    H222466   3.022   1.979  15.483  0.4829 -0.6984 -2.1056
  351TIP3   OH222467   0.533   2.544  17.073 -0.0351 -0.2069  0.2756
  351TIP3    H122468   0.472   2.541  16.999 -1.4976  0.7142  1.4075
  351TIP3    H222469   0.529   2.457  17.112  0.4439 -0.5744 -0.4706
  352TIP3   OH222470   0.113   3.632   0.897  0.2673 -0.2258  0.3877
  352TIP3    H122471   0.114   3.691   0.973  0.6893  0.9944 -0.5281
  352TIP3    H222472   0.137   3.688   0.823  0.1408 -1.4470 -0.6115
  353TIP3   OH222473   3.434   6.252   0.308  0.2976  0.3326 -0.0342
  353TIP3    H122474   3.494   6.326   0.294 -0.1982  1.1506  1.8598
  353TIP3    H222475   3.353   6.279   0.266  0.7648 -0.1081 -1.2551
  354TIP3   OH222476   2.667   1.855  16.121  0.4126 -0.5187  0.5539
  354TIP3    H122477   2.603   1.907  16.072 -0.4115 -0.0199  2.0743
  354TIP3    H222478   2.752   1.892  16.097  0.0755 -0.5648 -0.7830
  355TIP3   OH222479   5.101   3.328  16.312  0.0544 -0.9059 -0.9254
  355TIP3    H122480   5.098   3.237  16.283  1.3653 -0.9582 -0.9442
  355TIP3    H222481   5.125   3.378  16.234 -0.9952 -0.4868 -0.9968
  356TIP3   OH222482   4.040   2.233  12.059 -0.7394 -0.3014  0.2391
  356TIP3    H122483   4.120   2.285  12.062 -0.4845 -0.7201  1.1839
  356TIP3    H222484   3.986   2.276  11.994  0.5099 -0.4013 -0.9086
  357TIP3   OH222485   4.048   6.752  11.257 -0.2299  0.3794 -0.2526
  357TIP3    H122486   4.115   6.700  11.300 -0.2857  0.6353  0.1460
  357TIP3    H222487   4.036   6.710  11.171  0.2204  0.1554 -0.2072
  358TIP3   OH222488   1.062   1.798  10.771  0.0224  0.0280  0.1911
  358TIP3    H122489   1.122   1.857  10.726 -1.1976  0.9385 -0.3166
  358TIP3    H222490   0.993   1.781  10.707 -0.4212 -0.7501  0.8554
  359TIP3   OH222491   1.812   4.809  11.706 -0.0098 -0.2553 -0.7006
  359TIP3    H122492   1.835   4.741  11.769 -1.4586  0.2876  0.4760
  359TIP3    H222493   1.857   4.888  11.738  0.2390 -0.2455 -1.0616
  360TIP3   OH222494   2.813   4.536   1.840  0.6101 -0.1717 -0.3142
  360TIP3    H122495   2.834   4.595   1.768  1.8662  2.0289  1.7028
  360TIP3    H222496   2.885   4.472   1.841 -0.0471 -0.9800 -1.6784
  361TIP3   OH222497   4.312   6.659  13.468  0.3053 -0.2464 -0.4250
  361TIP3    H122498   4.368   6.622  13.536  0.7131  0.9040 -0.1162
  361TIP3    H222499   4.358   6.641  13.386  1.1847  0.7322 -0.1720
  362TIP3   OH222500   0.806   0.741  12.568  0.1476  0.3653  0.0354
  362TIP3    H122501   0.842   0.822  12.532  2.8794 -1.3651 -1.4457
  362TIP3    H222502   0.742   0.712  12.503 -0.0977  0.8120  0.0767
  363TIP3   OH222503   2.506   4.418   4.034 -0.3396 -0.4897  0.1560
  363TIP3    H122504   2.520   4.384   4.122 -5.1026 -2.3604  0.4393
  363TIP3    H222505   2.514   4.342   3.977  1.7437  0.5406 -1.0644
  364TIP3   OH222506   3.372   6.283   2.647  0.2448 -0.9032 -0.0923
  364TIP3    H122507   3.346   6.192   2.656 -1.1180 -0.4419  0.9690
  364TIP3    H222508   3.464   6.279   2.621  0.3552 -2.5628  0.4279
  365TIP3   OH222509   4.835   3.062  11.134  0.0293 -0.5705  0.6267
  365TIP3    H122510   4.777   3.066  11.058 -1.1076 -0.0105  1.4734
  365TIP3    H222511   4.869   3.151  11.143 -0.3142 -0.4788  1.0996
  366TIP3   OH222512   3.213   1.277   0.132 -0.5953 -0.2064  0.0827
  366TIP3    H122513   3.243   1.186   0.127 -0.0542 -0.0188 -0.2184
  366TIP3    H222514   3.263   1.315   0.204  0.2798  0.2396 -0.7330
  367TIP3   OH222515   2.464   0.885   1.526 -0.1592  0.1625 -0.1931
  367TIP3    H122516   2.525   0.956   1.547 -0.6546  0.2341  1.1300
  367TIP3    H222517   2.378   0.920   1.547 -0.6443 -0.0628 -1.7059
  368TIP3   OH222518   4.119   1.958   2.978  0.5807 -0.3688  0.3672
  368TIP3    H122519   4.048   2.020   2.964  0.8789 -0.1326 -0.1354
  368TIP3    H222520   4.147   1.973   3.068 -0.5381 -1.0327  0.8476
  369TIP3   OH222521   4.609   4.985  12.484 -0.1696 -0.1629  0.1050
  369TIP3    H122522   4.641   5.016  12.399  1.1360 -2.3479 -0.3003
  369TIP3    H222523   4.657   4.903  12.498 -0.6296 -0.0426  2.7953
  370TIP3   OH222524   0.206   1.343   2.780  0.2623  0.6237  0.0714
  370TIP3    H122525   0.240   1.387   2.858 -0.2877  0.5751  0.3455
  370TIP3    H222526   0.259   1.264   2.773 -0.2408  0.1885  0.9118
  371TIP3   OH222527   5.417   2.423  15.977  0.5054  0.1885 -0.1504
  371TIP3    H122528   5.339   2.388  15.933  0.8329 -0.5326 -0.1617
  371TIP3    H222529   5.472   2.347  15.993  1.0376  0.6442  0.2156
  372TIP3   OH222530   0.609   3.385  17.008  0.2183 -0.3371  0.3710
  372TIP3    H122531   0.627   3.378  17.102  1.0608 -1.0134  0.1640
  372TIP3    H222532   0.521   3.350  16.998  1.4290 -3.7259  0.4365
  373TIP3   OH222533   3.706   3.125   6.092  0.6068  0.0718  0.1563
  373TIP3    H122534   3.792   3.166   6.098  0.6798  0.0473 -0.5994
  373TIP3    H222535   3.684   3.128   5.999 -0.3023  0.2592  0.3614
  374TIP3   OH222536   2.679   4.742  16.214  0.2519  0.4778  0.1265
  374TIP3    H122537   2.687   4.825  16.261  0.9822  0.6578 -0.3077
  374TIP3    H222538   2.763   4.730  16.171 -0.8114  1.0566 -2.3354
  375TIP3   OH222539   5.508   4.356   2.555  0.0409 -0.1446  0.4027
  375TIP3    H122540   5.525   4.329   2.645  0.1969 -1.6881 -0.0662
  375TIP3    H222541   5.530   4.449   2.553 -3.0983  0.8033  2.7765
  376TIP3   OH222542   3.457   0.433  13.863  0.0815 -0.2982 -0.2988
  376TIP3    H122543   3.417   0.450  13.778  1.3908  0.1122 -0.8552
  376TIP3    H222544   3.540   0.389  13.843 -0.0145 -1.0421  0.8170
  377TIP3   OH222545   0.932   4.700   2.678 -0.1808 -0.0861  0.1422
  377TIP3    H122546   1.018   4.661   2.692  0.4852  1.4551  0.5016
  377TIP3    H222547   0.924   4.706   2.583 -0.2592 -0.9790  0.0809
  378TIP3   OH222548   0.839   5.034   2.442 -0.3680  0.0719 -1.0723
  378TIP3    H122549   0.905   5.087   2.487 -2.4897 -0.0298  2.5406
  378TIP3    H222550   0.757   5.081   2.456 -1.7706 -2.1955 -1.1216
  379TIP3   OH222551   3.367   0.313  14.378  0.0381 -0.0393  0.1255
  379TIP3    H122552   3.426   0.328  14.305 -2.0121 -0.3343 -1.6910
  379TIP3    H222553   3.388   0.382  14.441  1.7815  0.2837 -0.7636
  380TIP3   OH222554   2.199   3.645   1.045 -0.1622  0.0317 -0.2122
  380TIP3    H122555   2.178   3.602   0.963  0.9639 -0.8640 -0.0658
  380TIP3    H222556   2.293   3.664   1.039 -0.2324  0.6988  0.5391
  381TIP3   OH222557   4.049   1.738  15.960  0.2920  0.5019  0.1667
  381TIP3    H122558   4.101   1.661  15.982 -1.4285 -0.5789  0.6247
  381TIP3    H222559   4.087   1.769  15.877  0.5496 -1.2939 -0.4328
  382TIP3   OH222560   1.437   1.632   1.251 -0.4683  0.5727  0.1231
  382TIP3    H122561   1.360   1.683   1.226  0.5881  1.9305 -0.4709
  382TIP3    H222562   1.478   1.682   1.321 -0.0018 -0.0422  0.2997
  383TIP3   OH222563   4.573   4.034  16.177  0.2465 -0.5095 -0.2200
  383TIP3    H122564   4.650   4.068  16.222 -0.1051 -0.4155  0.3095
  383TIP3    H222565   4.584   4.064  16.086  0.4801  0.1046  0.0043
  384TIP3   OH222566   5.746   1.477  11.059  0.2028 -0.1587 -0.3162
  384TIP3    H122567   5.694   1.490  10.979 -1.3743  1.6154  0.9071
  384TIP3    H222568   5.817   1.541  11.051 -0.4654  0.6536  0.0684
  385TIP3   OH222569   4.883   4.046   0.265 -0.0389 -0.4909  0.0382
  385TIP3    H122570   4.898   4.005   0.180 -1.8123  2.4061 -1.8479
  385TIP3    H222571   4.890   3.974   0.328 -0.6680 -3.1766 -2.7224
  386TIP3   OH222572   6.787   2.885  16.834 -0.4720 -0.2155  0.5796
  386TIP3    H122573   6.796   2.802  16.788  0.6341  0.6295 -0.8293
  386TIP3    H222574   6.868   2.893  16.884 -0.0958  0.4723 -0.1184
  387TIP3   OH222575   3.479   4.859   3.268  0.3640 -0.4101  0.1794
  387TIP3    H122576   3.516   4.924   3.208  1.5975 -0.3126  0.9973
  387TIP3    H222577   3.540   4.785   3.263 -0.1625 -0.8655  0.4422
  388TIP3   OH222578   0.829   2.364   6.074 -0.1987 -0.5942  0.3313
  388TIP3    H122579   0.846   2.283   6.122  1.0183 -0.9170 -0.6129
  388TIP3    H222580   0.881   2.430   6.120 -0.7947 -0.4289  0.7905
  389TIP3   OH222581   4.115   1.006   3.376  0.3886 -0.0051 -0.2280
  389TIP3    H122582   4.167   0.928   3.392  0.5023  0.2365  0.6676
  389TIP3    H222583   4.062   1.016   3.455  0.9188  1.2327  0.0027
  390TIP3   OH222584   5.623   2.400  16.844 -0.0697  0.0243  0.2620
  390TIP3    H122585   5.602   2.331  16.782  0.7528 -2.3471  2.4266
  390TIP3    H222586   5.702   2.369  16.889 -0.0459  2.0612  1.7823
  391TIP3   OH222587   4.241   0.616   1.080  0.2390 -0.1315 -0.1300
  391TIP3    H122588   4.275   0.527   1.070 -0.2668 -0.3074 -0.3573
  391TIP3    H222589   4.168   0.606   1.142 -0.6328 -0.1013 -1.1162
  392TIP3   OH222590   4.344   2.409  16.823 -0.3421  0.2018 -0.0547
  392TIP3    H122591   4.420   2.468  16.821 -0.7452  0.7532 -2.9321
  392TIP3    H222592   4.278   2.457  16.873  0.6096  0.4638  0.9923
  393TIP3   OH222593   6.142   3.748   6.598  0.0866  0.3136  0.5385
  393TIP3    H122594   6.190   3.829   6.618  1.4398 -0.4577  0.4947
  393TIP3    H222595   6.111   3.717   6.683 -1.7614  1.6363  0.4116
  394TIP3   OH222596   3.204   5.236  12.076  0.1021 -0.8734 -0.1681
  394TIP3    H122597   3.149   5.183  12.135 -1.3239 -0.4410 -1.0455
  394TIP3    H222598   3.257   5.290  12.135 -0.1242 -1.5936  0.7221
  395TIP3   OH222599   0.114   2.252   0.335  0.4751  0.3910  0.3070
  395TIP3    H122600   0.086   2.258   0.244  2.0288  0.1332 -0.2295
  395TIP3    H222601   0.117   2.158   0.354  1.8148  0.3487  0.0271
  396TIP3   OH222602   2.553   3.449  11.407  0.3074 -0.4880 -0.4923
  396TIP3    H122603   2.543   3.519  11.344  1.4709 -0.9895 -1.2648
  396TIP3    H222604   2.524   3.370  11.361  0.0146 -0.6862  0.0134
  397TIP3   OH222605   1.528   2.363   5.515 -0.0704 -0.4099  0.2097
  397TIP3    H122606   1.503   2.366   5.423 -0.0487  1.7081  0.2133
  397TIP3    H222607   1.622   2.346   5.514 -0.0116 -0.0715 -0.1888
  398TIP3   OH222608   6.465   3.398  15.747  0.4427  0.1559  0.4638
  398TIP3    H122609   6.485   3.490  15.766 -1.1856  0.2352  2.1756
  398TIP3    H222610   6.415   3.400  15.666  0.6215  0.7565  0.3647
  399TIP3   OH222611   2.094   2.271   2.331 -0.2509  0.4836  0.2915
  399TIP3    H122612   2.051   2.356   2.333 -1.0943  0.0607  1.6127
  399TIP3    H222613   2.094   2.242   2.423  1.6286 -0.1589  0.1412
  400TIP3   OH222614   5.057   2.974  14.749 -0.6045 -0.0629  0.9384
  400TIP3    H122615   5.036   2.895  14.701 -0.4985 -0.0150  0.8152
  400TIP3    H222616   5.119   2.946  14.817 -0.2704 -0.0143  0.6538
  401TIP3   OH222617   1.722   3.102   3.105  1.2149 -0.0523  0.8077
  401TIP3    H122618   1.740   3.059   3.022 -0.0009  0.1838  0.3941
  401TIP3    H222619   1.681   3.034   3.159 -2.1130  0.8257 -0.3655
  402TIP3   OH222620   5.722   5.524  13.904  0.0674 -0.4261  0.0069
  402TIP3    H122621   5.707   5.525  13.999 -0.5208  2.6925 -0.0012
  402TIP3    H222622   5.760   5.610  13.886  0.9492 -1.2747 -2.5054
  403TIP3   OH222623   4.165   4.802  16.925 -0.8817  0.2645  0.7079
  403TIP3    H122624   4.134   4.749  16.998  0.3819  0.6694  1.5647
  403TIP3    H222625   4.243   4.846  16.958 -1.4072  2.0190 -0.2352
  404TIP3   OH222626   5.635   2.916  11.062  0.4596  0.0016  0.0392
  404TIP3    H122627   5.718   2.887  11.100  0.9189 -0.3281 -1.1492
  404TIP3    H222628   5.592   2.835  11.034  0.4384  0.2557 -0.6958
  405TIP3   OH222629   1.442   5.652  11.760  0.0808  0.0623  0.5897
  405TIP3    H122630   1.496   5.689  11.830  0.1789 -1.1447  1.1719
  405TIP3    H222631   1.505   5.621  11.695 -0.0057  0.9961  0.0340
  406TIP3   OH222632   3.100   3.673   2.469  0.5348 -0.3067  0.1145
  406TIP3    H122633   3.118   3.614   2.542  1.3614  0.6166  0.6769
  406TIP3    H222634   3.186   3.694   2.433  0.1772 -0.2541 -0.7491
  407TIP3   OH222635   1.616   5.407  11.878  0.1883 -0.3709  0.1266
  407TIP3    H122636   1.545   5.469  11.893 -0.0575 -0.9238  1.4289
  407TIP3    H222637   1.580   5.344  11.816  0.2721  0.4873 -0.8181
  408TIP3   OH222638   1.013   2.454  11.497 -0.2822  0.3975 -0.3170
  408TIP3    H122639   1.067   2.378  11.474 -0.6645  0.4013 -1.2782
  408TIP3    H222640   1.046   2.525  11.442 -0.2552  0.8041  0.2163
  409TIP3   OH222641   2.672   3.399   4.249  0.4327 -0.9048 -0.1353
  409TIP3    H122642   2.729   3.446   4.187 -2.0950  0.7201 -1.3615
  409TIP3    H222643   2.616   3.344   4.193 -2.7479  1.5109  0.4089
  410TIP3   OH222644   1.032   3.146  13.322  0.0368 -0.2299 -0.5526
  410TIP3    H122645   1.008   3.131  13.231 -0.8997  3.7198 -1.1318
  410TIP3    H222646   0.951   3.128  13.371  0.4761 -2.1309 -0.4728
  411TIP3   OH222647   6.181   2.624   2.350  0.1217  0.3185 -0.3245
  411TIP3    H122648   6.174   2.668   2.266 -3.1420  0.0458 -0.3031
  411TIP3    H222649   6.208   2.693   2.411  2.2839  0.5692 -1.4454
  412TIP3   OH222650   1.279   6.511   0.823 -0.0176 -0.5275  0.4650
  412TIP3    H122651   1.243   6.468   0.746 -1.1749  0.5628  0.3620
  412TIP3    H222652   1.327   6.586   0.789  0.5745 -0.7838  0.7308
  413TIP3   OH222653   2.204   5.417  11.475 -0.7781  0.2556  0.7723
  413TIP3    H122654   2.153   5.481  11.524 -1.3348  1.5806 -1.3944
  413TIP3    H222655   2.285   5.407  11.525 -1.5565  1.0445  2.2517
  414TIP3   OH222656   5.457   6.343   2.191  0.4215  0.0891 -0.0374
  414TIP3    H122657   5.381   6.379   2.144 -0.5747 -0.2568  1.2699
  414TIP3    H222658   5.431   6.344   2.283  1.2298 -1.8968  0.2545
  415TIP3   OH222659   4.410   3.045   0.426  0.1304 -0.2277  0.3178
  415TIP3    H122660   4.473   3.041   0.497 -0.3077  1.4089  0.8564
  415TIP3    H222661   4.333   3.088   0.464 -1.2609 -1.9820 -0.3710
  416TIP3   OH222662   6.401   0.264   4.661 -0.0732  0.1430  0.3125
  416TIP3    H122663   6.444   0.183   4.632  0.5469  1.0270 -1.3722
  416TIP3    H222664   6.310   0.255   4.630 -0.2185 -0.2476  0.8428
  417TIP3   OH222665   5.533   3.767   9.917  0.0300  0.3981  0.2086
  417TIP3    H122666   5.546   3.748  10.010  0.8059 -0.1669 -0.0021
  417TIP3    H222667   5.565   3.856   9.906  0.9588  0.0928  0.2923
  418TIP3   OH222668   4.642   1.650   4.804 -0.1076 -0.8427  0.1307
  418TIP3    H122669   4.587   1.708   4.752  0.3012 -1.2218 -0.7503
  418TIP3    H222670   4.721   1.702   4.822 -0.8343 -0.2103  1.6096
  419TIP3   OH222671   4.670   2.238  14.681 -0.1368 -0.0053  0.6976
  419TIP3    H122672   4.715   2.213  14.601 -0.1353 -1.0974  1.0190
  419TIP3    H222673   4.620   2.160  14.705 -0.3272  0.3904  1.6201
  420TIP3   OH222674   0.065   1.048  11.038  0.1518  0.1462  0.2890
  420TIP3    H122675   0.066   1.098  11.120 -1.9604  0.9861 -0.1350
  420TIP3    H222676   0.008   1.099  10.980  0.8647 -0.9062 -1.4050
  421TIP3   OH222677   4.624   1.256   3.078  0.0733 -0.3971  0.3072
  421TIP3    H122678   4.685   1.236   3.008 -2.5325 -0.0610 -2.2543
  421TIP3    H222679   4.617   1.175   3.128  3.2390 -0.1578  1.3567
  422TIP3   OH222680   4.860   0.336  11.647  0.2534  0.4569  0.3894
  422TIP3    H122681   4.916   0.314  11.722 -1.3777 -0.0725  1.5069
  422TIP3    H222682   4.820   0.420  11.671  1.0680  1.1924 -0.7210
  423TIP3   OH222683   2.078   6.797   3.093 -0.3229 -0.5658 -0.1739
  423TIP3    H122684   2.173   6.807   3.101 -0.4669  0.9123 -0.0254
  423TIP3    H222685   2.064   6.703   3.097  1.2093 -0.8669 -1.1141
  424TIP3   OH222686   3.330   0.458  13.587  0.1468  0.0691  0.6124
  424TIP3    H122687   3.370   0.377  13.556  1.2465  1.0277 -0.6240
  424TIP3    H222688   3.352   0.523  13.519 -0.9560  1.3286  1.4072
  425TIP3   OH222689   0.172   3.810  13.086 -0.1931 -0.1112 -0.4074
  425TIP3    H122690   0.168   3.903  13.109 -1.0202 -0.5436  1.4038
  425TIP3    H222691   0.182   3.766  13.170 -3.5332 -1.8727 -0.7834
  426TIP3   OH222692   5.951   1.161  14.013  0.1943  0.2054 -0.2898
  426TIP3    H122693   6.016   1.184  13.947 -0.5414 -0.3835 -1.2440
  426TIP3    H222694   6.002   1.136  14.090  1.0605  2.5270 -0.0250
  427TIP3   OH222695   3.418   0.299  16.011 -0.4946  0.0247  0.0047
  427TIP3    H122696   3.327   0.308  16.037 -0.5419 -0.3975 -0.0012
  427TIP3    H222697   3.415   0.245  15.932 -0.1957 -0.5410  0.3742
  428TIP3   OH222698   0.512   1.741  15.097 -0.6651 -0.4590  0.2561
  428TIP3    H122699   0.558   1.679  15.041  0.3630  0.5541 -0.0646
  428TIP3    H222700   0.490   1.814  15.039 -0.0208  0.3866  1.0484
  429TIP3   OH222701   4.876   2.363   6.202  0.6210 -0.4839 -0.1821
  429TIP3    H122702   4.921   2.446   6.220 -0.5278  0.4421 -1.3868
  429TIP3    H222703   4.947   2.301   6.186  1.5368  0.9293 -1.9943
  430TIP3   OH222704   0.244   1.888   3.632 -1.2378 -0.6455  0.3193
  430TIP3    H122705   0.314   1.935   3.678 -1.9457 -0.0995  0.8485
  430TIP3    H222706   0.164   1.913   3.678 -1.9402 -0.2951 -1.0464
  431TIP3   OH222707   2.220   3.025  16.036 -0.1726 -0.2325  0.1048
  431TIP3    H122708   2.141   3.051  16.084  0.1662 -0.8054  1.0131
  431TIP3    H222709   2.205   2.932  16.015  0.5212 -0.5268  0.8571
  432TIP3   OH222710   4.302   5.164  12.166 -0.3926 -0.4836  0.6905
  432TIP3    H122711   4.276   5.252  12.138  0.0493 -0.1962  1.1730
  432TIP3    H222712   4.352   5.178  12.246 -1.8419 -1.3076  1.7808
  433TIP3   OH222713   5.368   1.334  16.544  0.1592 -0.2771  0.2599
  433TIP3    H122714   5.368   1.332  16.639 -1.1428 -0.5965  0.2640
  433TIP3    H222715   5.365   1.427  16.521 -1.0875 -0.2241  0.5576
  434TIP3   OH222716   1.123   3.110   0.804  0.5182  0.5509  0.6288
  434TIP3    H122717   1.123   3.015   0.804 -0.1395  0.5405  1.4464
  434TIP3    H222718   1.086   3.134   0.719  0.5925  0.0814  0.4616
  435TIP3   OH222719   0.618   1.513  11.278  0.3562 -0.0751 -0.3005
  435TIP3    H122720   0.586   1.566  11.205 -1.3502 -1.4299 -0.5798
  435TIP3    H222721   0.543   1.503  11.336  0.3374 -2.8429 -0.6683
  436TIP3   OH222722   0.085   6.478   3.611  0.4569  0.4228 -0.2140
  436TIP3    H122723  -0.010   6.470   3.603  0.4613 -0.8577  0.6962
  436TIP3    H222724   0.119   6.422   3.541  0.5103 -0.7837  0.7406
  437TIP3   OH222725   1.437   0.859  12.592  0.5082  0.2120  0.5290
  437TIP3    H122726   1.469   0.928  12.534 -1.1201  1.5100  1.0970
  437TIP3    H222727   1.463   0.886  12.679 -1.1414  0.7749  0.8892
  438TIP3   OH222728   4.100   3.323  10.287 -0.3353  0.1404 -0.2346
  438TIP3    H122729   4.110   3.412  10.322  0.2228  0.3793 -0.9637
  438TIP3    H222730   4.132   3.266  10.358  0.6675  0.6055 -0.2863
  439TIP3   OH222731   1.829   0.045  15.276 -0.3727  0.0178 -0.2746
  439TIP3    H122732   1.826   0.042  15.372 -1.6298  0.1322 -0.2912
  439TIP3    H222733   1.884  -0.030  15.252  0.3803  0.2909  0.5445
  440TIP3   OH222734   4.818   6.692   3.882  0.0865 -0.1603 -0.0516
  440TIP3    H122735   4.869   6.706   3.803 -1.1739 -2.0389 -1.2730
  440TIP3    H222736   4.878   6.648   3.942  0.8776  0.7562 -0.1354
  441TIP3   OH222737   5.518   3.584  10.476  0.0497 -0.3196 -0.4420
  441TIP3    H122738   5.527   3.518  10.545 -0.0270  0.1663  0.0362
  441TIP3    H222739   5.591   3.644  10.489 -0.4964  0.3056 -0.1904
  442TIP3   OH222740   2.261   3.416  16.337 -0.5912  0.3611 -0.2259
  442TIP3    H122741   2.216   3.333  16.324  0.5551 -0.6579  1.8732
  442TIP3    H222742   2.351   3.399  16.308 -0.6230  1.2358 -0.8669
  443TIP3   OH222743   4.077   6.590   1.753  0.4696 -0.2678 -0.4044
  443TIP3    H122744   4.156   6.573   1.701  0.4434  1.6303 -1.1468
  443TIP3    H222745   4.090   6.540   1.834  1.2536 -1.9885 -1.5413
  444TIP3   OH222746   2.757   1.779   2.525 -0.7395  0.1353 -0.2751
  444TIP3    H122747   2.825   1.827   2.478 -0.2565 -0.7927 -0.5499
  444TIP3    H222748   2.750   1.824   2.609 -1.2361  1.4905 -1.0144
  445TIP3   OH222749   3.208   4.643   2.016  0.3367  0.0937 -0.3232
  445TIP3    H122750   3.295   4.647   2.056  0.8789 -2.3894 -1.0645
  445TIP3    H222751   3.225   4.641   1.922 -0.4740 -0.9269 -0.4639
  446TIP3   OH222752   4.575   2.730   5.521  0.2441 -0.2392  0.5783
  446TIP3    H122753   4.525   2.652   5.545  1.6054 -0.6597  2.2115
  446TIP3    H222754   4.658   2.696   5.488  0.9128  0.5070  1.4438
  447TIP3   OH222755   0.581   6.706  14.858 -0.3077  0.0407  0.1000
  447TIP3    H122756   0.584   6.611  14.867 -1.4817 -0.2635 -2.0465
  447TIP3    H222757   0.533   6.721  14.777  1.4012  2.4345 -0.5668
  448TIP3   OH222758   6.419   3.870  12.697 -0.0713 -0.8007 -0.3540
  448TIP3    H122759   6.506   3.908  12.714 -0.5637  0.6320 -0.8274
  448TIP3    H222760   6.437   3.780  12.672  1.2034 -0.8359  0.5636
  449TIP3   OH222761   2.788   1.925  15.776 -0.0752  0.0251  0.2352
  449TIP3    H122762   2.789   1.850  15.836  2.2179  0.1606  0.4572
  449TIP3    H222763   2.696   1.948  15.768 -0.5817 -0.9133  2.5714
  450TIP3   OH222764   4.780   4.527   2.652 -0.1533  0.2333 -0.5160
  450TIP3    H122765   4.742   4.506   2.567 -1.2807 -3.2705  0.6775
  450TIP3    H222766   4.713   4.577   2.698  0.8645  3.0969 -1.9041
  451TIP3   OH222767   0.474   3.711   5.442 -0.2012  0.0016 -0.1780
  451TIP3    H122768   0.518   3.726   5.526 -0.5142  0.8686 -0.1597
  451TIP3    H222769   0.539   3.738   5.376 -0.3146  0.2625 -0.1833
  452TIP3   OH222770   5.943   1.532  14.485  0.1127  0.1312  0.4400
  452TIP3    H122771   5.877   1.600  14.474 -0.8814 -0.8353  0.1731
  452TIP3    H222772   5.963   1.532  14.578  0.8024  1.3875  0.3005
  453TIP3   OH222773   4.867   6.429  15.164 -0.4366 -0.4077 -0.0856
  453TIP3    H122774   4.959   6.452  15.152 -0.2820 -0.5184  0.8268
  453TIP3    H222775   4.860   6.340  15.130 -0.3808 -0.1215 -0.8596
  454TIP3   OH222776   3.695   4.421   0.725  0.3377  0.4886  0.0015
  454TIP3    H122777   3.611   4.409   0.769 -1.1404  1.2912 -2.4136
  454TIP3    H222778   3.716   4.513   0.738  1.4503  0.0769  1.4706
  455TIP3   OH222779   6.538   2.235   1.314 -0.5181  0.4894  0.7891
  455TIP3    H122780   6.567   2.156   1.361 -0.5395 -0.0962 -0.1464
  455TIP3    H222781   6.613   2.293   1.316 -0.6724  0.6704  1.9427
  456TIP3   OH222782   0.162   6.455   4.478  0.6791 -0.0124  0.5091
  456TIP3    H122783   0.148   6.361   4.476 -0.1898  0.1178  0.1642
  456TIP3    H222784   0.245   6.468   4.432  0.6094 -0.5744  0.2174
  457TIP3   OH222785   6.536   3.290   1.048 -0.0216  0.3257  0.0349
  457TIP3    H122786   6.613   3.264   0.996  0.2290  0.4117  0.3621
  457TIP3    H222787   6.553   3.382   1.071  0.5007 -0.0879  1.3831
  458TIP3   OH222788   0.315   5.667   5.021  0.0411  0.3429  0.4506
  458TIP3    H122789   0.300   5.734   4.954 -0.0869 -0.0332  0.0920
  458TIP3    H222790   0.379   5.706   5.080  0.5744  0.4841 -0.2000
  459TIP3   OH222791   3.199   1.212   3.822  0.0206 -0.1377  0.2062
  459TIP3    H122792   3.286   1.241   3.794 -0.3987  0.6064 -0.3501
  459TIP3    H222793   3.182   1.134   3.768 -0.4870  0.8798 -1.1610
  460TIP3   OH222794   5.073   6.403  14.978 -0.3163 -0.8638  0.7188
  460TIP3    H122795   5.020   6.381  14.901 -0.5801  0.4463  0.5073
  460TIP3    H222796   5.159   6.365  14.959  0.0289  0.5985 -0.8725
  461TIP3   OH222797   4.996   0.694   0.557 -0.1804 -0.3685 -0.0511
  461TIP3    H122798   5.070   0.700   0.497 -0.8046  0.9037 -0.7417
  461TIP3    H222799   5.004   0.771   0.613  0.0213 -1.1873  1.0918
  462TIP3   OH222800   4.597   4.111   0.734 -0.1478  0.4394 -0.3476
  462TIP3    H122801   4.589   4.097   0.828 -0.5190  0.7550 -0.3285
  462TIP3    H222802   4.571   4.202   0.721 -0.2805  0.3435 -0.7737
  463TIP3   OH222803   3.270   4.212  16.272 -0.1621  0.2805  0.2197
  463TIP3    H122804   3.289   4.220  16.179  2.0579 -0.3231  0.5654
  463TIP3    H222805   3.285   4.300  16.307  2.2827 -0.1680  0.4767
  464TIP3   OH222806   0.955   1.248  10.969  0.3002 -0.1934 -0.1320
  464TIP3    H122807   0.974   1.292  10.887  0.3141 -0.5308 -0.3127
  464TIP3    H222808   0.953   1.318  11.034 -0.1030  0.1268 -0.4778
  465TIP3   OH222809   1.202   5.869  13.167  0.0957 -0.3071 -0.0564
  465TIP3    H122810   1.232   5.791  13.120 -1.1489 -1.1916  0.5397
  465TIP3    H222811   1.110   5.878  13.141 -0.0423  0.4059  0.6387
  466TIP3   OH222812   1.066   4.321  16.593  0.4079  0.3472 -0.4076
  466TIP3    H122813   1.055   4.416  16.586  3.4722  0.7911 -0.4161
  466TIP3    H222814   1.150   4.303  16.551 -0.8046 -2.6539 -1.8816
  467TIP3   OH222815   0.484   1.215  15.369 -0.3067 -0.3984  0.2380
  467TIP3    H122816   0.577   1.235  15.359 -0.4823  2.2813  2.4881
  467TIP3    H222817   0.439   1.292  15.333 -1.5110 -0.6038  1.2076
  468TIP3   OH222818   1.007   2.300   5.075 -0.3925 -0.0819  0.3595
  468TIP3    H122819   0.972   2.352   5.148 -1.2255 -0.4083  0.2087
  468TIP3    H222820   0.950   2.321   5.001 -0.5498 -0.9694  0.2175
  469TIP3   OH222821   2.476   3.264   0.218 -0.3655 -0.3869  0.0671
  469TIP3    H122822   2.422   3.188   0.201 -1.6475  0.1126  1.6175
  469TIP3    H222823   2.414   3.335   0.235  0.7759  1.0362 -1.3633
  470TIP3   OH222824   2.040   0.668   2.655 -0.0582 -0.0518  0.1862
  470TIP3    H122825   2.098   0.592   2.661 -0.3820 -0.5206 -1.7243
  470TIP3    H222826   2.042   0.692   2.562 -1.9571  0.6935  0.2922
  471TIP3   OH222827   4.117   4.201  12.163  0.2617  0.8350 -0.3426
  471TIP3    H122828   4.119   4.108  12.141  1.4497  0.2916  1.7577
  471TIP3    H222829   4.028   4.217  12.194  1.0463 -0.8126  3.4466
  472TIP3   OH222830   1.901   1.560  16.661  0.9204 -0.5277 -0.2003
  472TIP3    H122831   1.873   1.601  16.580  1.5367  1.4242  0.5315
  472TIP3    H222832   1.933   1.473  16.634 -0.8736 -0.7663 -1.7030
  473TIP3   OH222833   4.329   4.914  12.433  0.2724  0.0670 -0.3751
  473TIP3    H122834   4.402   4.976  12.431 -0.0209  0.5389  1.4745
  473TIP3    H222835   4.372   4.828  12.438  0.7098  0.3084  0.1732
  474TIP3   OH222836   1.062   4.844   6.447 -0.4502  0.0123 -0.0661
  474TIP3    H122837   0.972   4.843   6.414 -0.7790 -1.8972  0.7537
  474TIP3    H222838   1.090   4.935   6.436 -3.1394  1.1586  1.3573
  475TIP3   OH222839   5.791   0.893   1.488  0.1332 -0.1203 -0.5069
  475TIP3    H122840   5.698   0.903   1.469 -0.3923 -0.1835  1.7207
  475TIP3    H222841   5.795   0.889   1.584  2.3142 -1.2409 -0.5921
  476TIP3   OH222842   3.790   5.129   4.055  0.1139  0.2916 -0.3745
  476TIP3    H122843   3.831   5.197   4.002  2.2444 -0.7223 -0.1318
  476TIP3    H222844   3.855   5.107   4.121 -0.3876 -2.1125 -0.5719
  477TIP3   OH222845   4.506   0.864  12.804  0.4491 -0.2730 -0.7061
  477TIP3    H122846   4.414   0.888  12.793  0.3013  0.0272  0.9104
  477TIP3    H222847   4.507   0.769  12.789  0.0517 -0.1397 -1.6384
  478TIP3   OH222848   6.539   4.774   0.831  0.5429  0.6564  0.1208
  478TIP3    H122849   6.446   4.754   0.820  0.8549 -1.0049  0.1608
  478TIP3    H222850   6.559   4.746   0.920  0.9425  1.6371  0.3480
  479TIP3   OH222851   2.305   0.631   5.197 -0.1044  0.2970 -0.0342
  479TIP3    H122852   2.364   0.557   5.209  0.0271  0.4453  0.2496
  479TIP3    H222853   2.219   0.597   5.221 -0.2705 -0.1416 -1.2110
  480TIP3   OH222854   5.377   5.264   2.773  0.0996  0.0874  0.0719
  480TIP3    H122855   5.434   5.337   2.795 -1.2411  1.4408 -0.7629
  480TIP3    H222856   5.407   5.235   2.687  0.1995  0.0719  0.1112
  481TIP3   OH222857   1.451   4.845  14.512 -0.1937  0.1569  0.0312
  481TIP3    H122858   1.499   4.922  14.543  1.8531 -1.1957  0.4313
  481TIP3    H222859   1.421   4.802  14.592 -0.4432  0.0131 -0.1392
  482TIP3   OH222860   4.452   6.073  15.223 -0.2556 -0.0200  0.6752
  482TIP3    H122861   4.419   6.128  15.293  0.6474  1.5188 -0.0638
  482TIP3    H222862   4.373   6.037  15.181 -0.9570  1.9573  0.2100
  483TIP3   OH222863   0.870   0.222   0.917  0.2337  0.3508 -0.0271
  483TIP3    H122864   0.867   0.314   0.891  0.8673  0.3155 -0.2560
  483TIP3    H222865   0.870   0.224   1.012  0.0183  0.5790 -0.0308
  484TIP3   OH222866   0.099   3.053   2.987 -0.3855 -0.4452 -0.6788
  484TIP3    H122867   0.187   3.064   2.953  0.2064 -2.0550  0.2149
  484TIP3    H222868   0.069   3.142   3.007  0.7750  0.1682 -1.5805
  485TIP3   OH222869   2.765   5.798   5.590 -0.0740 -0.1451  0.8755
  485TIP3    H122870   2.805   5.872   5.544  0.7418 -3.1107 -4.0045
  485TIP3    H222871   2.839   5.741   5.612 -0.8747 -1.8581 -0.5532
  486TIP3   OH222872   1.832   3.393  15.500  0.2005 -0.0661  0.1712
  486TIP3    H122873   1.860   3.322  15.442 -1.0034  0.3908 -1.0490
  486TIP3    H222874   1.912   3.439  15.522  0.8359 -1.0004 -0.1403
  487TIP3   OH222875   6.533   5.746   4.204  0.0388 -0.0630  0.5336
  487TIP3    H122876   6.562   5.791   4.125 -1.5328 -0.6628 -0.4497
  487TIP3    H222877   6.556   5.805   4.276  1.2840  0.6077 -0.3906
  488TIP3   OH222878   4.636   3.418   4.641  0.3926 -0.3861 -0.2684
  488TIP3    H122879   4.725   3.436   4.613  1.0946 -0.6257  1.6943
  488TIP3    H222880   4.640   3.332   4.684 -0.6580 -0.1407  0.3702
  489TIP3   OH222881   0.508   2.773  14.525 -0.0412  0.0518  0.3202
  489TIP3    H122882   0.503   2.868  14.514 -4.6909  0.0605  0.5206
  489TIP3    H222883   0.428   2.750  14.573  0.5247 -4.0411 -0.3022
  490TIP3   OH222884   2.609   1.387  15.623  0.0911 -0.0670 -0.0533
  490TIP3    H122885   2.614   1.482  15.637 -0.0783 -0.0778  0.0808
  490TIP3    H222886   2.556   1.378  15.544  0.5599 -0.0290 -0.3733
  491TIP3   OH222887   4.056   6.201   2.914  0.3889  0.5645 -0.3587
  491TIP3    H122888   4.055   6.200   2.818  0.0748 -2.7876 -0.4365
  491TIP3    H222889   3.964   6.197   2.940  0.5026 -1.4087 -0.0697
  492TIP3   OH222890   4.431   0.014  11.867  0.0075  0.0928 -0.1809
  492TIP3    H122891   4.526   0.010  11.853  0.0487 -1.1192  0.3471
  492TIP3    H222892   4.419  -0.004  11.960 -0.8371 -1.7507 -0.5956
  493TIP3   OH222893   0.400   1.698   2.144 -0.7747 -0.3903 -0.1708
  493TIP3    H122894   0.377   1.759   2.073 -1.2999  0.1091  0.4159
  493TIP3    H222895   0.327   1.704   2.205  0.2450  0.1173  1.0255
  494TIP3   OH222896   3.978   0.823   0.965  0.1416 -0.5000  0.2894
  494TIP3    H122897   3.953   0.733   0.943 -0.0785 -0.3397 -0.1103
  494TIP3    H222898   3.898   0.863   0.999 -0.1244 -0.0302 -0.8560
  495TIP3   OH222899   5.441   4.835  17.002 -0.0399  0.0353 -0.6888
  495TIP3    H122900   5.382   4.903  16.968 -0.2741 -0.0321 -0.4169
  495TIP3    H222901   5.438   4.846  17.097 -0.2431 -0.4933 -0.6335
  496TIP3   OH222902   0.977   4.217  14.851 -0.8034  0.5627 -0.0506
  496TIP3    H122903   0.979   4.122  14.834 -1.2095  0.4618  0.4431
  496TIP3    H222904   1.040   4.253  14.789 -0.4661 -0.0582 -0.0833
  497TIP3   OH222905   5.080   2.568  16.839 -0.6100  0.5768  0.3147
  497TIP3    H122906   5.097   2.515  16.917  0.3096  1.6874  0.9155
  497TIP3    H222907   5.119   2.518  16.767 -1.4924 -0.4747  0.5361
  498TIP3   OH222908   5.581   1.427   0.451 -0.4257 -0.1922 -0.5219
  498TIP3    H122909   5.652   1.392   0.504 -0.9810 -1.8419 -0.8063
  498TIP3    H222910   5.501   1.397   0.495 -0.8977 -0.9005 -1.7940
  499TIP3   OH222911   3.011   0.260  13.284  1.0218  0.2219 -0.0120
  499TIP3    H122912   3.038   0.291  13.370 -0.2738  0.5353  0.2987
  499TIP3    H222913   2.975   0.338  13.241 -1.1863 -0.5575  0.3384
  500TIP3   OH222914   3.949   4.647  14.098 -0.7044 -0.4752 -0.0771
  500TIP3    H122915   3.985   4.660  14.011  1.0029  2.6907  0.9483
  500TIP3    H222916   3.892   4.723  14.112  0.5420  0.1210  2.2029
  501TIP3   OH222917   0.246   1.075   4.514  0.0694 -0.1310  0.1521
  501TIP3    H122918   0.310   1.137   4.550 -1.0716 -0.0152  2.1507
  501TIP3    H222919   0.174   1.131   4.485  0.6673 -0.2869 -1.7504
  502TIP3   OH222920   5.145   4.716  17.027  0.6628 -0.2963 -0.2767
  502TIP3    H122921   5.210   4.660  17.070 -0.3725 -0.8955  0.5509
  502TIP3    H222922   5.188   4.801  17.021  2.0121 -0.9892 -0.9496
  503TIP3   OH222923   3.518   0.458   2.011  0.6590  0.0320 -0.1383
  503TIP3    H122924   3.516   0.394   2.083 -1.5758 -1.7829 -1.6380
  503TIP3    H222925   3.534   0.405   1.933 -2.4184  0.9983 -1.5918
  504TIP3   OH222926   0.662   3.994  16.258  0.2041 -0.2035 -0.0758
  504TIP3    H122927   0.655   3.952  16.344  1.5673 -0.2023  0.0489
  504TIP3    H222928   0.688   4.084  16.277 -1.3423  0.3643 -0.4207
  505TIP3   OH222929   4.616   6.351  14.801 -0.7423 -0.4011  0.6572
  505TIP3    H122930   4.629   6.269  14.850 -0.7986 -1.0310 -0.3605
  505TIP3    H222931   4.570   6.324  14.722 -0.4372  0.5808  0.1398
  506TIP3   OH222932   5.246   6.581  15.267 -0.0371 -0.5347 -0.2678
  506TIP3    H122933   5.332   6.602  15.231  0.3404  0.2482  1.0331
  506TIP3    H222934   5.238   6.637  15.344 -0.9620 -1.9199  0.6796
  507TIP3   OH222935   5.441   6.449  14.060 -0.3447  0.5345  0.6122
  507TIP3    H122936   5.473   6.524  14.010 -1.5401  0.6747  0.0311
  507TIP3    H222937   5.403   6.391  13.995 -0.3735 -0.0885  1.1778
  508TIP3   OH222938   1.851   1.884  14.631 -0.0949  0.0016  0.0355
  508TIP3    H122939   1.807   1.854  14.710  2.4827  0.1968  1.6388
  508TIP3    H222940   1.944   1.879  14.651  0.6836  0.0031 -3.0279
  509TIP3   OH222941   3.864   0.914   0.317  0.0628  0.4568 -0.5053
  509TIP3    H122942   3.841   0.898   0.409 -0.0208 -1.3062 -0.7974
  509TIP3    H222943   3.959   0.916   0.315  0.2344 -2.9891 -0.8182
  510TIP3   OH222944   1.805   1.010  15.204 -0.1351 -0.5516  0.5384
  510TIP3    H122945   1.731   0.959  15.235  0.2722 -1.4398  0.1061
  510TIP3    H222946   1.873   0.996  15.270 -1.1367  2.4933  2.4510
  511TIP3   OH222947   4.399   0.774  15.620 -0.0125 -0.1735  0.1424
  511TIP3    H122948   4.371   0.866  15.610  2.4351  0.6884  0.5931
  511TIP3    H222949   4.429   0.768  15.710  1.9391 -0.7511 -0.4973
  512TIP3   OH222950   0.475   4.723   4.652 -0.1150  0.8239  0.7877
  512TIP3    H122951   0.528   4.789   4.607  0.8637 -0.8322 -0.5727
  512TIP3    H222952   0.513   4.640   4.627 -1.6564 -0.3254  2.0432
  513TIP3   OH222953   4.621   1.786  13.345  0.9619  0.3493  0.1888
  513TIP3    H122954   4.618   1.753  13.255 -1.1277  0.2104  0.2746
  513TIP3    H222955   4.545   1.747  13.387  2.3333 -0.2286  2.2802
  514TIP3   OH222956   0.009   0.717  14.942 -0.0065 -0.1564  0.1917
  514TIP3    H122957   0.097   0.699  14.910  0.2632 -1.9182  1.7294
  514TIP3    H222958  -0.037   0.634  14.935 -1.6193  0.7547 -0.6817
  515TIP3   OH222959   5.977   6.435  12.134 -0.0250 -0.0599 -0.1928
  515TIP3    H122960   5.905   6.492  12.107  0.8086  1.6346  1.0127
  515TIP3    H222961   6.034   6.491  12.186  1.1873 -1.8512  0.5024
  516TIP3   OH222962   0.663   4.094   0.238  0.4962  0.1739  0.3901
  516TIP3    H122963   0.646   4.030   0.307 -2.2870 -0.0127 -0.3277
  516TIP3    H222964   0.688   4.042   0.162 -0.4398  0.0321  0.1730
  517TIP3   OH222965   6.752   0.928   4.467  0.1650  0.2593  0.3186
  517TIP3    H122966   6.668   0.896   4.436  0.0017  1.2983 -0.3654
  517TIP3    H222967   6.755   0.903   4.559  0.5580 -2.7138 -0.3994
  518TIP3   OH222968   0.162   3.062  14.492 -0.0624  0.3697 -0.8532
  518TIP3    H122969   0.083   3.060  14.437 -0.3908 -0.7649 -0.3641
  518TIP3    H222970   0.190   3.153  14.489 -1.4998  0.8443 -0.8908
  519TIP3   OH222971   5.581   0.709   1.857  0.5601  0.2796  0.6074
  519TIP3    H122972   5.584   0.656   1.937  1.2887 -0.8602 -0.1429
  519TIP3    H222973   5.487   0.719   1.839  0.2527 -3.6899 -1.0206
  520TIP3   OH222974   1.399   3.694  15.742 -0.1514  0.0060  0.4011
  520TIP3    H122975   1.403   3.607  15.703  1.2851 -0.1797  0.8685
  520TIP3    H222976   1.428   3.753  15.672  1.7905 -0.2557  0.9158
  521TIP3   OH222977   5.983   3.791  15.366 -0.3924  0.3945  0.5895
  521TIP3    H122978   6.049   3.861  15.371 -0.4417  0.4688  0.2116
  521TIP3    H222979   6.032   3.711  15.382  0.0504  0.3087 -1.0700
  522TIP3   OH222980   5.750   4.558  16.174  0.5713  0.2506  0.6564
  522TIP3    H122981   5.833   4.605  16.176  0.6950  0.0211  1.2635
  522TIP3    H222982   5.762   4.490  16.108 -0.8274  3.2027 -3.0101
  523TIP3   OH222983   5.721   5.820  17.059 -0.1204 -0.2537  0.3937
  523TIP3    H122984   5.745   5.887  16.995 -1.1178  0.3660  0.6476
  523TIP3    H222985   5.766   5.847  17.140 -0.9308  0.4342  0.6399
  524TIP3   OH222986   3.317   0.795  12.153 -0.1002 -0.1048  0.4762
  524TIP3    H122987   3.335   0.869  12.212 -1.2251  0.3697  0.2487
  524TIP3    H222988   3.401   0.777  12.111  1.2629 -1.6186  3.4675
  525TIP3   OH222989   0.905   4.106  11.300 -1.0530 -0.5556  0.8211
  525TIP3    H122990   0.865   4.026  11.336  0.6490 -1.2526  1.2530
  525TIP3    H222991   0.988   4.076  11.263 -0.9500  0.8376 -0.1181
  526TIP3   OH222992   0.800   4.200   5.075 -0.7998  0.4903 -0.1813
  526TIP3    H122993   0.815   4.140   5.002 -0.4734 -1.2182  1.2343
  526TIP3    H222994   0.705   4.213   5.076 -0.9738 -0.6994  0.0030
  527TIP3   OH222995   2.620   3.155   4.041  0.0181 -0.3536 -0.4224
  527TIP3    H122996   2.714   3.169   4.026 -0.2788  0.0215 -2.1859
  527TIP3    H222997   2.615   3.064   4.070  1.1256  0.3579  2.3813
  528TIP3   OH222998   1.379   2.128   5.520 -0.0280  0.1026 -0.0420
  528TIP3    H122999   1.474   2.140   5.516  0.0887 -0.1632  1.5412
  528TIP3    H223000   1.349   2.148   5.431  1.5813 -0.5278 -0.7664
  529TIP3   OH223001   5.941   5.623   2.892  0.2724 -0.6963  0.3299
  529TIP3    H123002   6.017   5.668   2.928 -0.0201  0.3581 -0.3044
  529TIP3    H223003   5.960   5.614   2.799 -0.3255 -0.5133  0.1849
  530TIP3   OH223004   1.598   3.612  16.538  0.4730  0.2814 -0.0164
  530TIP3    H123005   1.677   3.563  16.563  0.7328 -0.4066 -1.9948
  530TIP3    H223006   1.547   3.550  16.486  0.1273  1.6475 -1.4045
  531TIP3   OH223007   3.651   5.677   0.080 -1.1627 -0.2604 -0.0248
  531TIP3    H123008   3.735   5.718   0.101 -0.9578 -0.8991  0.4315
  531TIP3    H223009   3.590   5.714   0.144 -1.1793  0.0149 -0.1966
  532TIP3   OH223010   1.354   3.616   4.388  0.7579 -0.7475  0.0716
  532TIP3    H123011   1.322   3.683   4.448  2.3281  0.2707 -0.1688
  532TIP3    H223012   1.322   3.534   4.424 -0.1997  0.0247  1.0437
  533TIP3   OH223013   4.566   0.926   1.093 -0.0569  0.0977  0.6675
  533TIP3    H123014   4.634   0.862   1.115  0.4160  0.5255  0.4708
  533TIP3    H223015   4.596   0.966   1.011  0.5455  1.7841  1.6452
  534TIP3   OH223016   1.975   2.860   0.627 -0.1143  0.4455  0.1075
  534TIP3    H123017   2.032   2.783   0.637  0.8057  0.5977 -2.9395
  534TIP3    H223018   1.889   2.830   0.657  0.4659 -1.4254  0.0513
  535TIP3   OH223019   0.910   6.687   2.357 -0.3581 -0.7035 -0.1462
  535TIP3    H123020   0.908   6.769   2.407 -1.9415 -0.6513 -0.2365
  535TIP3    H223021   0.999   6.653   2.370 -0.4456 -0.2765  2.0420
  536TIP3   OH223022   0.110   4.792  14.248 -0.2190  0.0891 -0.4803
  536TIP3    H123023   0.173   4.731  14.209 -0.9331  0.6188 -2.6004
  536TIP3    H223024   0.133   4.877  14.211  1.2637  1.4249  3.0181
  537TIP3   OH223025   5.163   6.409  14.641  0.1083  0.5113  0.3751
  537TIP3    H123026   5.191   6.496  14.615  0.9141  1.2473  3.3038
  537TIP3    H223027   5.235   6.376  14.695 -0.7070 -1.4587  0.3434
  538TIP3   OH223028   5.784   0.643   6.135 -0.5152  0.1315  0.1144
  538TIP3    H123029   5.787   0.548   6.142  0.6304  0.2589  2.1141
  538TIP3    H223030   5.802   0.675   6.224 -1.4979  2.2170 -0.3607
  539TIP3   OH223031   4.146   0.726  11.453 -0.4262 -0.6016 -0.0346
  539TIP3    H123032   4.054   0.710  11.435 -0.5417  0.2978 -0.2860
  539TIP3    H223033   4.187   0.726  11.366 -0.4240  0.3635 -0.0434
  540TIP3   OH223034   3.561   2.270   2.177 -0.0886 -0.2365 -0.1123
  540TIP3    H123035   3.505   2.255   2.253 -2.2685  0.6691 -1.4682
  540TIP3    H223036   3.649   2.247   2.208 -1.0270 -0.8110  2.3733
  541TIP3   OH223037   5.553   0.828  11.399  0.4799 -0.5876 -0.2015
  541TIP3    H123038   5.627   0.784  11.441 -1.3779 -5.6979 -1.5373
  541TIP3    H223039   5.479   0.812  11.458 -0.5768 -0.5404 -1.4555
  542TIP3   OH223040   4.515   1.916   2.433 -0.7421 -0.1913 -0.0066
  542TIP3    H123041   4.444   1.865   2.473 -2.0401 -0.2169 -2.1720
  542TIP3    H223042   4.486   2.007   2.440 -0.3425 -0.0811  0.2678
  543TIP3   OH223043   3.434   2.287  16.646 -0.1576  0.2701  0.3740
  543TIP3    H123044   3.341   2.304  16.663 -0.2993  1.8087 -1.6164
  543TIP3    H223045   3.435   2.199  16.607 -0.8762  0.4956 -0.1922
  544TIP3   OH223046   5.106   4.474   3.649  0.0945  0.0599 -0.3010
  544TIP3    H123047   5.168   4.531   3.604  0.1743  0.5607  0.4227
  544TIP3    H223048   5.025   4.480   3.597 -0.4527  2.2299  0.6872
  545TIP3   OH223049   0.764   6.017  11.237  0.2382 -0.5053  0.2431
  545TIP3    H123050   0.755   5.999  11.144  3.4731  0.9104 -0.4936
  545TIP3    H223051   0.807   6.102  11.241 -1.5603  0.4109  3.1327
  546TIP3   OH223052   3.452   4.366   1.727 -0.1966 -0.2942 -0.0902
  546TIP3    H123053   3.368   4.324   1.710 -0.2171  0.1229 -1.0910
  546TIP3    H223054   3.512   4.327   1.663 -0.0653  0.6922 -0.5899
  547TIP3   OH223055   6.408   4.810  12.043  0.1545 -0.1082 -0.2343
  547TIP3    H123056   6.360   4.777  12.120 -1.2617  0.1052 -0.9886
  547TIP3    H223057   6.497   4.777  12.054 -0.2167 -0.7277  1.1058
  548TIP3   OH223058   2.695   0.745   0.122 -0.0818 -0.1514 -0.2628
  548TIP3    H123059   2.632   0.802   0.078  0.6128  0.9483  0.1325
  548TIP3    H223060   2.695   0.665   0.069 -1.9289 -0.2652 -0.1661
  549TIP3   OH223061   5.336   1.819   4.960 -0.0656  0.8351 -0.3263
  549TIP3    H123062   5.258   1.800   4.907 -0.3681  0.0387  0.3873
  549TIP3    H223063   5.303   1.835   5.048  0.6440 -0.8176  0.2903
  550TIP3   OH223064   5.620   2.566  16.619  0.0774  0.1951  0.3001
  550TIP3    H123065   5.632   2.525  16.705 -0.2582  2.4340  1.4846
  550TIP3    H223066   5.708   2.595  16.595 -0.1955  1.8842  1.1759
  551TIP3   OH223067   4.392   2.827   2.553 -0.0396  0.3585 -0.1694
  551TIP3    H123068   4.382   2.872   2.637  1.2972  0.9812 -0.3135
  551TIP3    H223069   4.322   2.863   2.498  0.0871  1.1773  0.1862
  552TIP3   OH223070   6.137   2.770   5.345 -0.4066  0.1285 -0.4882
  552TIP3    H123071   6.105   2.770   5.435 -1.3738 -0.1706 -0.8257
  552TIP3    H223072   6.164   2.680   5.328  1.5422  0.5407  0.0860
  553TIP3   OH223073   2.646   1.337   0.684 -0.2031 -0.1613  0.2127
  553TIP3    H123074   2.614   1.253   0.716  0.8948 -0.9153 -0.6321
  553TIP3    H223075   2.741   1.332   0.694 -0.1673  1.2700  0.8249
  554TIP3   OH223076   6.732   0.721   1.349  0.2039 -0.2097  0.2921
  554TIP3    H123077   6.745   0.704   1.256  0.4518 -1.6923  0.5616
  554TIP3    H223078   6.749   0.636   1.391  0.3683  0.4975  1.7139
  555TIP3   OH223079   2.023   5.202   5.341  0.0967  0.9631 -0.0130
  555TIP3    H123080   2.006   5.124   5.394  0.7844  0.1183 -1.0152
  555TIP3    H223081   2.115   5.224   5.358  0.4179  0.4950 -1.0820
  556TIP3   OH223082   1.436   0.393  16.072 -0.2948  0.2191  0.4754
  556TIP3    H123083   1.420   0.435  16.157  1.9631  1.4236  0.3844
  556TIP3    H223084   1.434   0.465  16.009 -2.9853 -0.7873 -0.7423
  557TIP3   OH223085   2.970   2.395   3.268  0.2577  0.0063 -0.4717
  557TIP3    H123086   3.017   2.434   3.342 -0.2529 -1.4430  0.6685
  557TIP3    H223087   2.892   2.450   3.258  0.9626  0.9890 -0.8214
  558TIP3   OH223088   1.183   5.490   1.380 -0.2084  0.1329  0.1575
  558TIP3    H123089   1.114   5.430   1.353  0.1337 -0.8146  1.2811
  558TIP3    H223090   1.158   5.516   1.469  0.9513 -0.3909  0.6622
  559TIP3   OH223091   1.813   2.273   3.284 -0.3174 -0.0231 -0.4865
  559TIP3    H123092   1.795   2.342   3.220  1.0052  0.4643 -0.3783
  559TIP3    H223093   1.866   2.317   3.351  3.7026 -1.8126 -2.1439
  560TIP3   OH223094   0.400   1.917  15.778  0.0883  0.3044 -0.2285
  560TIP3    H123095   0.428   1.890  15.865 -0.1445  1.7910  0.3321
  560TIP3    H223096   0.396   1.835  15.728  0.2914 -0.5681  1.1240
  561TIP3   OH223097   4.353   5.634   1.090 -0.1028  0.1754  0.0841
  561TIP3    H123098   4.317   5.641   1.178  0.5250 -0.4251  0.4022
  561TIP3    H223099   4.329   5.716   1.047  0.0997  0.7302  1.0093
  562TIP3   OH223100   6.167   3.363  13.277  0.3496  0.1266 -0.5635
  562TIP3    H123101   6.152   3.371  13.371  1.8446 -1.2992 -0.1712
  562TIP3    H223102   6.083   3.333  13.242 -0.3519  1.1001  0.2222
  563TIP3   OH223103   6.434   3.078   6.612 -0.4672  0.5320 -0.6199
  563TIP3    H123104   6.400   3.065   6.524 -2.0378 -1.7659  0.2120
  563TIP3    H223105   6.520   3.036   6.611 -0.6550  0.1462 -0.9775
  564TIP3   OH223106   3.575   2.019   4.070 -0.4924  0.3343  0.0456
  564TIP3    H123107   3.631   1.997   3.996  0.4022 -0.3585  0.9005
  564TIP3    H223108   3.518   2.088   4.037 -0.9780 -0.8051 -1.6621
  565TIP3   OH223109   6.565   5.277  16.657  0.0734  0.1408  0.4863
  565TIP3    H123110   6.646   5.233  16.634 -0.4996 -0.8058  0.2084
  565TIP3    H223111   6.499   5.238  16.600 -0.2474  2.3533 -0.7647
  566TIP3   OH223112   0.603   1.833   3.398  0.3543  0.1913  0.2965
  566TIP3    H123113   0.694   1.851   3.423  0.8387 -0.9363 -0.5488
  566TIP3    H223114   0.590   1.741   3.423 -0.0710 -0.0907 -0.9319
  567TIP3   OH223115   2.984   0.004  12.798 -0.4970 -0.3130  0.0492
  567TIP3    H123116   2.994   0.016  12.893 -0.7032 -0.5533  0.1012
  567TIP3    H223117   2.948   0.087  12.768  1.3635  0.4874 -0.1088
  568TIP3   OH223118   3.665   1.795   0.253  0.1577  0.3611  0.5119
  568TIP3    H123119   3.643   1.853   0.181 -1.4717 -2.1130 -1.1530
  568TIP3    H223120   3.629   1.838   0.331 -1.5945  1.2885 -0.7499
  569TIP3   OH223121   6.556   0.953  13.720 -0.4464 -0.0934 -0.2082
  569TIP3    H123122   6.619   0.977  13.788  1.2745 -0.5185 -1.6054
  569TIP3    H223123   6.484   0.912  13.769 -0.6684  2.2601  1.6204
  570TIP3   OH223124   5.770   2.703  14.932 -0.1880 -0.5420  0.0179
  570TIP3    H123125   5.808   2.657  15.006 -0.2931  0.5159  0.7534
  570TIP3    H223126   5.839   2.762  14.901 -0.9218  0.8023  0.8505
  571TIP3   OH223127   1.900   1.063   3.654 -0.4310 -0.2523  0.2209
  571TIP3    H123128   1.912   0.989   3.715 -1.2133 -0.1566  0.4997
  571TIP3    H223129   1.924   1.027   3.568  1.3677 -0.1987  0.6568
  572TIP3   OH223130   1.539   2.261  16.258 -0.1588 -0.1117  0.4081
  572TIP3    H123131   1.577   2.308  16.184  2.0813  0.9765  2.1375
  572TIP3    H223132   1.464   2.315  16.284 -0.8382 -0.3903 -0.8640
  573TIP3   OH223133   4.359   1.723   2.597 -0.2764 -0.4828 -0.6568
  573TIP3    H123134   4.316   1.654   2.546  0.7875 -1.9082  0.2789
  573TIP3    H223135   4.350   1.694   2.688  2.5997 -0.9141 -0.4003
  574TIP3   OH223136   4.779   4.787   2.838 -0.4738 -0.0825  0.5177
  574TIP3    H123137   4.750   4.839   2.763  0.7975  0.8054  0.6063
  574TIP3    H223138   4.776   4.848   2.912  1.4438  0.0543  0.5493
  575TIP3   OH223139   2.578   5.264  10.510  0.1499 -0.1297  0.2386
  575TIP3    H123140   2.503   5.319  10.489 -0.6774 -1.4137 -0.3255
  575TIP3    H223141   2.543   5.197  10.569  0.9280 -0.5305  0.2675
  576TIP3   OH223142   5.718   3.969   3.079 -0.1758 -0.1720  0.5400
  576TIP3    H123143   5.628   3.938   3.069 -0.0266 -0.5473  0.3648
  576TIP3    H223144   5.755   3.914   3.147 -0.4505  0.7935  1.5087
  577TIP3   OH223145   1.036   6.228  13.928  0.2040  0.6960  0.1179
  577TIP3    H123146   0.999   6.140  13.926  0.0770  0.7120  1.2231
  577TIP3    H223147   1.101   6.229  13.858 -0.6876  0.1340 -0.7411
  578TIP3   OH223148   4.665   4.652   3.662 -0.1417  0.1211 -0.3305
  578TIP3    H123149   4.688   4.736   3.624 -0.2456 -0.3675 -1.5339
  578TIP3    H223150   4.637   4.672   3.751 -0.6074  1.4151 -0.7526
  579TIP3   OH223151   1.486   2.981  16.191  0.5201 -0.4081 -0.0968
  579TIP3    H123152   1.486   3.074  16.167 -1.6496  0.0676  1.4269
  579TIP3    H223153   1.517   2.936  16.112 -0.5973  1.4450 -1.6971
  580TIP3   OH223154   3.176   4.643  14.223 -0.4179  0.6560 -0.2573
  580TIP3    H123155   3.154   4.730  14.189  3.0169  1.6116 -0.4758
  580TIP3    H223156   3.229   4.603  14.154  1.2309 -0.0190  1.3024
  581TIP3   OH223157   5.085   2.934  15.320 -0.3981  0.2419 -0.4208
  581TIP3    H123158   5.118   2.868  15.259  0.6554 -0.8720  1.2831
  581TIP3    H223159   5.116   3.017  15.284  1.7144 -0.5278 -0.5091
  582TIP3   OH223160   5.317   0.723  12.725 -0.5225  0.2228  0.3473
  582TIP3    H123161   5.254   0.746  12.793  0.3873  0.1001  1.2772
  582TIP3    H223162   5.329   0.804  12.675  1.2695  1.3657  2.4359
  583TIP3   OH223163   1.288   3.707  15.991 -0.0818 -0.5533  0.2496
  583TIP3    H123164   1.205   3.754  16.000 -0.1419 -0.8021  1.0481
  583TIP3    H223165   1.309   3.714  15.898 -1.6221 -1.5790 -0.2087
  584TIP3   OH223166   5.666   3.917  15.721  0.1538  0.0843  0.5834
  584TIP3    H123167   5.743   3.917  15.777 -1.0956  0.4206  2.4089
  584TIP3    H223168   5.597   3.956  15.775 -1.4516 -0.7632 -0.7487
  585TIP3   OH223169   1.726   4.096  13.818  0.1499 -0.7232  0.0592
  585TIP3    H123170   1.799   4.096  13.880 -1.2664  0.2086  1.8272
  585TIP3    H223171   1.725   4.185  13.782 -0.5925 -0.4823  0.6590
  586TIP3   OH223172   0.750   3.157   4.787  0.0198  0.6720 -0.2981
  586TIP3    H123173   0.691   3.225   4.819 -1.7936 -0.8520 -0.2219
  586TIP3    H223174   0.813   3.144   4.858 -2.0289 -0.4465  1.4441
  587TIP3   OH223175   3.987   6.610   3.696  0.0581 -0.2679  0.1764
  587TIP3    H123176   3.975   6.609   3.791  0.0402  2.1156  0.2491
  587TIP3    H223177   4.035   6.691   3.678  0.2705 -0.7756 -1.8412
  588TIP3   OH223178   0.420   5.276  14.772  0.5427 -0.2127 -0.2562
  588TIP3    H123179   0.509   5.308  14.789  1.0082 -1.5602 -0.0755
  588TIP3    H223180   0.389   5.331  14.700  1.4741  0.3593 -0.2390
  589TIP3   OH223181   0.534   6.190   2.313 -0.0797  0.1659  0.5443
  589TIP3    H123182   0.567   6.232   2.233  0.3769 -0.6836  0.2794
  589TIP3    H223183   0.442   6.214   2.315  0.4690  2.5250  1.2465
  590TIP3   OH223184   0.167   5.348   1.886  0.2883 -0.0423 -0.0414
  590TIP3    H123185   0.120   5.274   1.925  1.9407 -2.6053 -2.5211
  590TIP3    H223186   0.099   5.398   1.840 -0.9404  0.3847  2.1241
  591TIP3   OH223187   3.351   1.586   4.252 -0.5252 -0.2203  0.3053
  591TIP3    H123188   3.370   1.660   4.195  0.3726 -0.3543  0.4116
  591TIP3    H223189   3.391   1.511   4.208  1.8788 -0.0444  1.9596
  592TIP3   OH223190   6.607   5.451   1.022 -0.3579 -0.3624 -0.8468
  592TIP3    H123191   6.633   5.452   1.114 -1.2944  0.9538 -0.5659
  592TIP3    H223192   6.580   5.360   1.005  1.2692 -0.9725 -0.2753
  593TIP3   OH223193   1.875   3.511  16.877 -0.5264  0.0493 -0.0546
  593TIP3    H123194   1.846   3.569  16.947  1.1371 -0.2824  0.9517
  593TIP3    H223195   1.970   3.523  16.873 -0.3587 -1.3391 -0.9761
  594TIP3   OH223196   6.199   2.855  13.638 -0.6281 -0.4337  0.5999
  594TIP3    H123197   6.279   2.900  13.665 -0.3050 -0.7410  0.1690
  594TIP3    H223198   6.176   2.895  13.555 -0.9162 -0.3586  0.7140
  595TIP3   OH223199   2.557   2.904   4.366  0.5281 -0.2885 -0.2247
  595TIP3    H123200   2.463   2.914   4.354  0.3551  1.5709  1.8795
  595TIP3    H223201   2.585   2.847   4.295 -2.3409 -1.8570 -0.2597
  596TIP3   OH223202   0.360   2.617   2.855 -0.3200 -0.1169 -0.1299
  596TIP3    H123203   0.400   2.652   2.775  0.0729  1.0741  0.5712
  596TIP3    H223204   0.373   2.685   2.920 -0.9363 -0.9377  0.8758
  597TIP3   OH223205   2.952   4.266  14.643 -0.1013  0.1890  0.9773
  597TIP3    H123206   2.914   4.293  14.560  2.3995  0.1487 -0.2928
  597TIP3    H223207   2.965   4.172  14.635 -0.7318  0.0177  1.8295
  598TIP3   OH223208   3.899   5.937   5.278 -0.2533  0.2717  0.3444
  598TIP3    H123209   3.851   5.967   5.355  1.3518 -1.6767  2.2380
  598TIP3    H223210   3.849   5.861   5.247 -0.0057  0.0519  0.4827
  599TIP3   OH223211   0.457   4.744   3.238  0.0191  0.2229 -0.8441
  599TIP3    H123212   0.553   4.734   3.240  0.0015  0.1318 -0.0030
  599TIP3    H223213   0.444   4.833   3.205  0.4330  0.6161  0.0205
  600TIP3   OH223214   1.102   1.602   5.208  0.0836 -0.1869  0.0534
  600TIP3    H123215   1.008   1.583   5.211 -0.4367  1.9221 -1.3471
  600TIP3    H223216   1.111   1.685   5.254  1.1195  0.1021 -0.6519
  601TIP3   OH223217   1.383   0.854   1.121  0.0245 -0.0677  0.4118
  601TIP3    H123218   1.448   0.826   1.056 -1.1106 -0.0466 -0.7728
  601TIP3    H223219   1.428   0.923   1.171  1.5735 -1.3944  0.9475
  602TIP3   OH223220   1.098   5.834  12.233  0.2302 -0.1597 -0.5005
  602TIP3    H123221   1.154   5.912  12.241  0.8279 -0.4597 -1.5448
  602TIP3    H223222   1.119   5.782  12.311  0.1464  0.5138 -0.0157
  603TIP3   OH223223   3.034   5.468  16.599  0.0586  0.3033  0.0291
  603TIP3    H123224   3.108   5.463  16.660  0.1847  1.0228 -0.0495
  603TIP3    H223225   3.075   5.489  16.514 -0.2114  0.4271 -0.0698
  604TIP3   OH223226   5.302   6.553  15.616 -0.1613  0.2409 -0.3213
  604TIP3    H123227   5.343   6.484  15.563  3.1391  1.2540  0.6386
  604TIP3    H223228   5.321   6.633  15.567 -0.4034  0.8201  0.5289
  605TIP3   OH223229   6.072   4.580  12.783  0.5411 -0.4364 -0.1275
  605TIP3    H123230   6.114   4.597  12.867  0.5499 -2.5382  0.3687
  605TIP3    H223231   6.006   4.513  12.802 -1.0218  0.6617 -1.4170
  606TIP3   OH223232   3.056   1.579   2.365  1.0691 -0.1421 -0.2711
  606TIP3    H123233   3.103   1.603   2.445  1.4763 -0.3862 -0.4351
  606TIP3    H223234   2.987   1.645   2.357  0.8795 -0.2421  0.4054
  607TIP3   OH223235   5.572   3.486  12.414 -0.6494 -0.3596 -0.0404
  607TIP3    H123236   5.522   3.496  12.333  0.5776 -0.1827 -0.8066
  607TIP3    H223237   5.655   3.531  12.396  0.0898 -1.3065  0.8961
  608TIP3   OH223238   6.673   3.825  13.812  0.2779  0.4526 -0.0775
  608TIP3    H123239   6.766   3.806  13.824 -0.1273 -1.4837  0.3173
  608TIP3    H223240   6.631   3.739  13.810 -1.5936  1.3107  0.4170
  609TIP3   OH223241   4.983   4.813  12.995  0.3886  0.1329 -0.2480
  609TIP3    H123242   5.070   4.772  12.990  0.3764  0.2289 -1.6229
  609TIP3    H223243   4.991   4.893  12.943 -0.3272  0.5237  0.2314
  610TIP3   OH223244   6.623   2.333  12.845 -0.5540 -0.7575 -0.6656
  610TIP3    H123245   6.708   2.362  12.813  0.2208 -1.6366  0.5195
  610TIP3    H223246   6.609   2.248  12.802  0.4610 -1.9125  1.1417
  611TIP3   OH223247   3.054   5.432   1.610  0.6500 -0.0344 -0.7133
  611TIP3    H123248   3.077   5.366   1.545 -0.8940  0.8778 -2.2626
  611TIP3    H223249   3.082   5.515   1.571 -0.2637  0.5322 -0.2084
  612TIP3   OH223250   4.289   0.186  14.500  0.1162 -0.4443  0.5399
  612TIP3    H123251   4.276   0.092  14.510  0.4290 -0.5211  0.2469
  612TIP3    H223252   4.375   0.194  14.459  1.0006  0.0428  2.3905
  613TIP3   OH223253   3.002   2.192   0.638  0.0377  0.0994 -0.5389
  613TIP3    H123254   2.990   2.139   0.717 -1.8271  1.2832  0.0542
  613TIP3    H223255   3.091   2.172   0.609  0.3342 -1.3174  1.1365
  614TIP3   OH223256   6.534   2.797  16.442 -0.4898 -0.4272 -0.0443
  614TIP3    H123257   6.514   2.817  16.350 -1.3446 -0.9445  0.0272
  614TIP3    H223258   6.531   2.882  16.486 -0.1853 -0.1895 -0.4624
  615TIP3   OH223259   6.461   5.438  11.635 -0.7061 -0.3893  0.3339
  615TIP3    H123260   6.546   5.413  11.671 -1.0075 -1.1369  0.5372
  615TIP3    H223261   6.470   5.426  11.540 -0.1903  0.7498  0.2235
  616TIP3   OH223262   0.133   5.558   5.172 -0.7665 -0.1764 -0.5716
  616TIP3    H123263   0.184   5.609   5.110 -1.2558  0.4395 -0.4774
  616TIP3    H223264   0.046   5.551   5.132 -1.4057  1.1625  0.5246
  617TIP3   OH223265   3.802   4.847   0.935 -0.2215  0.0031 -0.3486
  617TIP3    H123266   3.717   4.804   0.925 -0.1112 -0.0395 -1.1937
  617TIP3    H223267   3.800   4.883   1.024 -1.0200 -0.2077 -0.2682
  618TIP3   OH223268   5.352   4.603  16.699 -0.1922  0.0947  0.3095
  618TIP3    H123269   5.285   4.648  16.647 -0.8067  0.7664  1.6479
  618TIP3    H223270   5.327   4.511  16.696 -1.8799  0.4559  1.7395
  619TIP3   OH223271   1.187   0.691  12.482 -0.6975 -0.2917  0.2910
  619TIP3    H123272   1.219   0.617  12.533  0.2490  0.2447  0.5041
  619TIP3    H223273   1.188   0.660  12.391 -1.2287 -0.8474  0.4671
  620TIP3   OH223274   0.470   5.639  13.686 -0.2213  0.6423  0.6298
  620TIP3    H123275   0.382   5.658  13.721 -0.5654  1.0259 -0.3947
  620TIP3    H223276   0.453   5.583  13.611  0.6267 -1.7937  2.1276
  621TIP3   OH223277   5.872   0.340  15.139  0.5519  0.1708  0.4007
  621TIP3    H123278   5.961   0.331  15.173  0.0362 -0.8854  1.5587
  621TIP3    H223279   5.836   0.252  15.140 -0.3411  0.5053 -0.5445
  622TIP3   OH223280   5.306   5.988  16.301  0.0103  0.5471  0.5181
  622TIP3    H123281   5.228   6.010  16.353 -1.0512  0.4046 -0.9376
  622TIP3    H223282   5.277   5.998  16.210  2.2216  2.2662 -0.0873
  623TIP3   OH223283   5.915   2.844   3.104  0.4041 -0.0254 -0.5883
  623TIP3    H123284   5.974   2.826   3.178  0.5425 -1.2857 -0.9827
  623TIP3    H223285   5.891   2.936   3.115 -1.2369 -0.6511  2.2411
  624TIP3   OH223286   2.055   1.534  12.069  0.6994 -0.4095  0.2963
  624TIP3    H123287   2.032   1.627  12.072  2.3418  0.0660 -0.6172
  624TIP3    H223288   2.096   1.516  12.153 -2.1448 -1.1032  1.6728
  625TIP3   OH223289   3.652   1.473  13.739 -0.4802  0.2026  0.7533
  625TIP3    H123290   3.562   1.495  13.764 -1.0639  0.2930 -1.2519
  625TIP3    H223291   3.646   1.451  13.646  1.4030 -0.8764  0.8460
  626TIP3   OH223292   2.586   4.458  16.689 -0.6356  0.4642  0.1854
  626TIP3    H123293   2.563   4.548  16.670 -2.5950  0.1406  0.8517
  626TIP3    H223294   2.620   4.423  16.606  1.4520  2.1342  0.2526
  627TIP3   OH223295   2.973   3.491   0.865 -0.0514 -0.2152  0.5578
  627TIP3    H123296   3.054   3.535   0.840  0.1957 -0.0525  1.5947
  627TIP3    H223297   2.997   3.399   0.876 -0.3759 -0.4820 -0.7151
  628TIP3   OH223298   2.142   2.734   4.745  0.1901 -0.1726 -0.2168
  628TIP3    H123299   2.099   2.787   4.679 -1.4794 -3.0160 -1.6154
  628TIP3    H223300   2.114   2.771   4.829 -1.3561  0.7802 -1.1149
  629TIP3   OH223301   4.524   3.677   5.188 -0.2506 -0.0495 -0.1538
  629TIP3    H123302   4.467   3.605   5.216 -0.4225  0.1947  0.1278
  629TIP3    H223303   4.535   3.663   5.095 -1.8748  0.6553 -0.4950
  630TIP3   OH223304   5.802   2.805   3.439  0.2404  0.2890 -0.2615
  630TIP3    H123305   5.781   2.803   3.346  1.2702  2.1721 -0.5878
  630TIP3    H223306   5.800   2.714   3.466 -0.8108 -0.2306 -1.9497
  631TIP3   OH223307   6.423   5.434  11.952 -0.2560 -0.6688  0.1972
  631TIP3    H123308   6.348   5.394  11.908  0.9331 -2.1259 -0.5741
  631TIP3    H223309   6.424   5.525  11.920 -0.2286 -1.3213 -1.7648
  632TIP3   OH223310   2.041   5.844   0.276  0.1803 -0.7488 -0.3147
  632TIP3    H123311   2.074   5.767   0.321 -0.5151 -0.6785  0.3309
  632TIP3    H223312   1.954   5.818   0.244 -0.5156  0.0864  0.8325
  633TIP3   OH223313   1.693   6.688   0.294  0.1131  0.0221  0.2247
  633TIP3    H123314   1.744   6.610   0.275 -0.8171 -0.2669 -1.1910
  633TIP3    H223315   1.628   6.659   0.358  0.3717 -0.1169  0.4284
  634TIP3   OH223316   1.046   2.281  10.568 -0.2869 -0.8041  0.0839
  634TIP3    H123317   1.131   2.317  10.593 -0.3359  0.1880 -1.0823
  634TIP3    H223318   1.067   2.206  10.513  0.0365  1.7666 -3.6944
  635TIP3   OH223319   3.770   3.977  13.834  0.4082 -0.1112  0.2868
  635TIP3    H123320   3.692   3.998  13.782  1.2264  1.9846 -0.1900
  635TIP3    H223321   3.762   4.032  13.912  1.5188  0.3739  0.0875
  636TIP3   OH223322   0.430   4.410  14.479 -0.9493  0.2532 -0.1764
  636TIP3    H123323   0.339   4.427  14.455 -0.4796  2.2859 -0.7037
  636TIP3    H223324   0.457   4.487  14.528  0.1638 -0.8551  1.0249
  637TIP3   OH223325   3.528   5.956  14.839 -0.1864 -0.2413  0.0237
  637TIP3    H123326   3.606   5.908  14.813 -0.9898 -1.3301 -0.5003
  637TIP3    H223327   3.457   5.892  14.830 -1.1744  0.7852  0.2422
  638TIP3   OH223328   6.086   1.839  15.111  0.1545  0.2487 -0.3970
  638TIP3    H123329   6.004   1.888  15.119 -0.8697 -1.4147 -0.2462
  638TIP3    H223330   6.095   1.822  15.017  0.6302  0.9122 -0.4745
  639TIP3   OH223331   3.745   6.251  10.574  0.3204 -0.2444 -0.1178
  639TIP3    H123332   3.656   6.250  10.609  0.4306 -1.1372  0.1673
  639TIP3    H223333   3.795   6.195  10.634  1.0930  0.2874 -0.2417
  640TIP3   OH223334   2.580   2.193   1.949  0.0043  0.2077 -0.0924
  640TIP3    H123335   2.486   2.204   1.934 -0.2475 -2.1829 -0.7958
  640TIP3    H223336   2.622   2.226   1.869 -0.4238 -0.6123 -0.6742
  641TIP3   OH223337   0.861   3.293  16.549  0.0628 -0.3540 -0.1641
  641TIP3    H123338   0.838   3.364  16.489  1.7730 -0.4241 -0.9788
  641TIP3    H223339   0.956   3.299  16.557  0.1348 -1.9714  0.5003
  642TIP3   OH223340   3.906   0.997   4.672  0.5822  0.2077 -0.4172
  642TIP3    H123341   3.948   1.060   4.731  1.3527 -0.4492 -0.2545
  642TIP3    H223342   3.974   0.971   4.610  0.9295 -1.9957  0.7599
  643TIP3   OH223343   6.067   6.601   0.874 -0.1084 -0.3319  0.2866
  643TIP3    H123344   6.148   6.555   0.897  1.4775  0.7962 -2.4335
  643TIP3    H223345   5.997   6.550   0.914  1.7461 -3.1809  0.1390
  644TIP3   OH223346   3.348   6.400   4.503  0.3863  0.1260  0.3893
  644TIP3    H123347   3.366   6.483   4.548  0.2760  0.0074  0.6561
  644TIP3    H223348   3.272   6.364   4.549 -0.3601  0.4833 -0.5365
  645TIP3   OH223349   6.314   5.485   3.665  0.1450 -0.4031  0.1206
  645TIP3    H123350   6.285   5.460   3.753 -0.3883 -2.8479 -0.6763
  645TIP3    H223351   6.349   5.404   3.627  0.1379  0.5148 -2.0063
  646TIP3   OH223352   1.782   0.958  11.527  0.1981  0.0756 -0.3639
  646TIP3    H123353   1.725   1.032  11.505  0.2811  0.3134  0.2235
  646TIP3    H223354   1.861   0.998  11.564  0.6846 -0.2618 -1.0095
  647TIP3   OH223355   1.697   1.277   1.482  0.0703  0.4556  0.6983
  647TIP3    H123356   1.696   1.359   1.433  1.0840  0.7041  1.0742
  647TIP3    H223357   1.720   1.211   1.417 -2.4082  0.1572  0.0050
  648TIP3   OH223358   1.655   5.528  16.891  0.5913  0.5840 -0.0465
  648TIP3    H123359   1.578   5.474  16.906  0.4845  1.0281  1.1340
  648TIP3    H223360   1.663   5.533  16.795 -0.7494  0.3992 -0.1902
  649TIP3   OH223361   1.221   1.126   0.874  0.2110 -0.1802  0.6142
  649TIP3    H123362   1.276   1.198   0.843 -0.1409 -0.3504 -0.4274
  649TIP3    H223363   1.275   1.048   0.861 -0.6442 -0.4914 -1.5078
  650TIP3   OH223364   1.552   4.598   1.279  0.3387 -0.0195 -0.5442
  650TIP3    H123365   1.521   4.575   1.367 -3.3663  0.5244 -1.5016
  650TIP3    H223366   1.592   4.518   1.246 -0.9030 -1.1907  0.6234
  651TIP3   OH223367   0.533   4.452   1.340  0.1718  0.1025 -0.3593
  651TIP3    H123368   0.456   4.414   1.383  0.9090 -0.7556  0.2454
  651TIP3    H223369   0.549   4.533   1.388 -0.0215  0.0034 -0.1219
  652TIP3   OH223370   3.558   6.085  16.920  0.3434 -0.0221 -0.2755
  652TIP3    H123371   3.585   6.067  16.829  0.0280  1.8167 -0.7855
  652TIP3    H223372   3.638   6.070  16.971  0.9272  0.3015 -1.0597
  653TIP3   OH223373   2.592   0.079   5.078  0.5382  0.2907 -0.0567
  653TIP3    H123374   2.535   0.129   5.021 -0.4501  1.8689  2.1690
  653TIP3    H223375   2.678   0.081   5.035  0.0962  2.3664 -0.9220
  654TIP3   OH223376   3.545   4.378  14.697  0.0829  0.1972 -0.0352
  654TIP3    H123377   3.506   4.454  14.653  1.3477  0.6582 -0.4116
  654TIP3    H223378   3.593   4.415  14.771  0.1166 -0.3101  0.1996
  655TIP3   OH223379   3.379   5.268   3.873  0.0930  0.2189  0.6424
  655TIP3    H123380   3.386   5.266   3.968 -2.6861 -0.6816  0.8862
  655TIP3    H223381   3.357   5.178   3.848 -2.2195  1.0430 -0.5148
  656TIP3   OH223382   0.315   0.978  15.319 -0.2403  0.0442  0.3520
  656TIP3    H123383   0.267   1.023  15.250  0.6171  1.7820  0.8362
  656TIP3    H223384   0.373   1.045  15.356  0.7636 -1.3518  1.4216
  657TIP3   OH223385   5.337   5.768  14.768  0.3883 -0.0374 -0.4417
  657TIP3    H123386   5.413   5.822  14.749  0.8308 -1.0687 -1.7711
  657TIP3    H223387   5.317   5.724  14.686 -0.3716 -1.3649  0.4012
  658TIP3   OH223388   0.007   6.598   3.066  0.2728  0.4463  0.2526
  658TIP3    H123389  -0.018   6.552   3.146  0.3627  2.5200  1.5486
  658TIP3    H223390   0.102   6.595   3.065  0.2582 -0.9910 -0.7141
  659TIP3   OH223391   0.850   2.338   1.564 -0.6326 -0.3166 -0.3738
  659TIP3    H123392   0.914   2.304   1.500 -1.7379 -0.6522 -1.3310
  659TIP3    H223393   0.857   2.278   1.638 -0.2005 -0.6609 -0.6849
  660TIP3   OH223394   1.532   1.329  14.237 -0.0227 -0.2079 -0.6251
  660TIP3    H123395   1.460   1.391  14.242  1.2098  1.2082  0.4282
  660TIP3    H223396   1.512   1.263  14.304  0.0019  0.5980  0.1978
  661TIP3   OH223397   3.234   5.016  16.748 -0.4878  0.3432 -0.3439
  661TIP3    H123398   3.261   4.943  16.693 -2.4450 -0.3937 -0.4246
  661TIP3    H223399   3.180   4.975  16.817 -1.1069  1.6352 -0.0341
  662TIP3   OH223400   6.634   3.372   2.175 -0.3558 -0.4648 -0.1645
  662TIP3    H123401   6.728   3.379   2.159 -0.3888  1.6613  0.3442
  662TIP3    H223402   6.593   3.392   2.091 -0.3718  2.2466  0.4180
  663TIP3   OH223403   4.415   3.572   2.961 -0.4476  0.2875 -0.2582
  663TIP3    H123404   4.382   3.486   2.989  0.7211  0.7916  3.1586
  663TIP3    H223405   4.508   3.557   2.943 -0.3551  0.7461 -0.1549
  664TIP3   OH223406   0.692   1.239  11.557  0.5061 -0.7508 -0.0781
  664TIP3    H123407   0.612   1.195  11.527  0.2181 -0.8662  0.8337
  664TIP3    H223408   0.664   1.291  11.632  0.9277  0.6994 -0.8874
  665TIP3   OH223409   3.236   5.818   3.002 -0.1226  0.0024 -0.2458
  665TIP3    H123410   3.233   5.911   2.984 -0.9444 -0.0199 -0.2684
  665TIP3    H223411   3.179   5.779   2.936  0.8043 -0.6038 -0.7166
  666TIP3   OH223412   5.987   6.400   1.667  0.1693  0.2557 -0.0432
  666TIP3    H123413   5.941   6.432   1.745 -0.8924 -1.2250 -0.0076
  666TIP3    H223414   6.015   6.312   1.691  2.4322  0.8485 -0.3443
  667TIP3   OH223415   2.877   5.578   1.368  0.4796 -0.2396  0.2144
  667TIP3    H123416   2.945   5.575   1.301  1.7773 -3.5334  1.4760
  667TIP3    H223417   2.923   5.606   1.447 -1.1121  4.0499 -0.1281
  668TIP3   OH223418   4.519   4.316  11.624 -0.4673 -0.4489 -0.0835
  668TIP3    H123419   4.429   4.319  11.592 -0.2295  0.2236 -0.7025
  668TIP3    H223420   4.569   4.275  11.553 -0.1061  0.1549 -0.1838
  669TIP3   OH223421   3.845   1.180   1.437  0.3302 -0.0791 -0.1268
  669TIP3    H123422   3.923   1.191   1.383  0.4318 -1.6349 -0.3359
  669TIP3    H223423   3.871   1.211   1.523  1.2955 -0.8411 -0.1205
  670TIP3   OH223424   3.251   5.476  12.494 -0.1345  0.4572  0.0297
  670TIP3    H123425   3.161   5.483  12.526 -0.9307 -1.3035 -1.6027
  670TIP3    H223426   3.292   5.414  12.555 -0.5705 -0.0775 -0.2008
  671TIP3   OH223427   4.878   1.533  14.205 -0.2545  0.1619 -0.2699
  671TIP3    H123428   4.799   1.480  14.210  0.4756 -0.8886  0.5290
  671TIP3    H223429   4.950   1.470  14.197  0.5053  1.0953 -1.1990
  672TIP3   OH223430   5.818   2.833   1.946 -0.4376  0.1135 -0.3429
  672TIP3    H123431   5.798   2.745   1.913 -0.2478  0.8179 -2.4712
  672TIP3    H223432   5.738   2.859   1.992 -0.7138 -0.9394 -0.1977
  673TIP3   OH223433   4.360   3.167  10.958 -0.1861  0.0400  0.3585
  673TIP3    H123434   4.438   3.150  10.904 -0.1241 -0.8132  0.7041
  673TIP3    H223435   4.387   3.145  11.047 -0.4663  0.8873  0.6593
  674TIP3   OH223436   3.841   6.599   1.179  0.5738  0.1151  0.0710
  674TIP3    H123437   3.839   6.504   1.190  0.6707 -0.0210 -1.0534
  674TIP3    H223438   3.779   6.631   1.245  0.6443 -0.7070  0.5625
  675TIP3   OH223439   3.943   1.261  12.561  0.1760 -0.3347  0.1516
  675TIP3    H123440   3.960   1.273  12.468  0.1780  1.2791  0.3324
  675TIP3    H223441   3.863   1.208  12.564 -1.3608  1.7993 -0.8368
  676TIP3   OH223442   2.201   0.922   1.573 -0.0960  0.0443  0.0210
  676TIP3    H123443   2.128   0.979   1.549  0.4956  0.2144 -1.4399
  676TIP3    H223444   2.179   0.837   1.535 -0.8185 -0.6902  1.9191
  677TIP3   OH223445   1.648   0.997   2.893  0.1357  0.3563  0.6500
  677TIP3    H123446   1.654   0.920   2.950  2.5927  0.1028  0.1485
  677TIP3    H223447   1.729   1.045   2.909  1.2786 -0.0738 -3.0425
  678TIP3   OH223448   6.509   1.046  10.325  0.4641 -0.5340  0.5276
  678TIP3    H123449   6.577   0.980  10.311  0.4308 -0.7020  1.1234
  678TIP3    H223450   6.433   0.996  10.355  0.1442 -0.3212  0.0953
  679TIP3   OH223451   1.631   1.693   3.815  0.0640 -0.5131  0.3042
  679TIP3    H123452   1.713   1.676   3.769 -0.6123 -1.6248 -0.5471
  679TIP3    H223453   1.630   1.788   3.828  0.5325 -0.2119 -1.5327
  680TIP3   OH223454   6.280   0.763  10.934 -0.3575  0.2323  0.1315
  680TIP3    H123455   6.221   0.723  10.871  0.2515 -0.2086 -0.1683
  680TIP3    H223456   6.350   0.800  10.880  1.1497 -1.7519  0.6257
  681TIP3   OH223457   0.869   3.820  13.894 -0.2461  0.1448  0.0893
  681TIP3    H123458   0.916   3.759  13.837  0.2899 -2.3496  2.9587
  681TIP3    H223459   0.928   3.895  13.903  0.1180  0.1189 -1.6646
  682TIP3   OH223460   5.569   0.937  16.944 -0.4175 -0.5690  0.3763
  682TIP3    H123461   5.653   0.893  16.954 -0.3932 -0.7128 -0.4009
  682TIP3    H223462   5.571   1.009  17.007  0.5922 -0.1243 -0.1499
  683TIP3   OH223463   5.773   6.436  10.355 -0.6503 -0.3330 -0.7576
  683TIP3    H123464   5.680   6.432  10.335 -0.6904 -0.6649 -0.4899
  683TIP3    H223465   5.798   6.346  10.377 -0.0497 -0.4458 -1.8167
  684TIP3   OH223466   4.915   5.812   1.540 -0.1799 -0.5510 -0.2093
  684TIP3    H123467   4.966   5.784   1.616 -0.2573 -0.4086 -0.1027
  684TIP3    H223468   4.947   5.758   1.468  1.2906  0.6303 -0.5119
  685TIP3   OH223469   3.096   6.787  16.883 -0.1471  0.5786  0.2383
  685TIP3    H123470   3.065   6.794  16.793 -0.0243 -3.4388 -0.3070
  685TIP3    H223471   3.191   6.773  16.875 -0.2308 -0.4963  0.8756
  686TIP3   OH223472   1.979   4.851  11.211 -0.7541 -0.2297 -0.2520
  686TIP3    H123473   2.074   4.837  11.208 -0.6720 -0.5839  1.9542
  686TIP3    H223474   1.956   4.835  11.303 -2.9437 -0.0441 -0.7231
  687TIP3   OH223475   3.360   6.469  13.011 -0.3704 -0.7819  0.0474
  687TIP3    H123476   3.444   6.483  13.053 -0.7186  1.9121  0.0064
  687TIP3    H223477   3.368   6.512  12.926 -1.4107 -1.5254 -0.4520
  688TIP3   OH223478   0.679   4.328  11.789 -0.0537 -0.3984 -0.6342
  688TIP3    H123479   0.630   4.398  11.746  1.7559  1.7096  0.5007
  688TIP3    H223480   0.740   4.297  11.722 -0.2680 -0.2702 -0.8916
  689TIP3   OH223481   2.705   3.613  12.546  0.2136  0.1819  1.0973
  689TIP3    H123482   2.743   3.687  12.593  0.8607  2.0466 -2.0513
  689TIP3    H223483   2.613   3.635  12.535  0.9670  2.3299 -2.5461
  690TIP3   OH223484   4.128   4.924  15.260 -0.2705  0.7677  0.4095
  690TIP3    H123485   4.141   5.004  15.311  0.5310  1.7795 -1.3184
  690TIP3    H223486   4.213   4.905  15.222 -0.9666  0.4073 -1.0495
  691TIP3   OH223487   0.163   1.377  16.653 -0.1802 -0.0615  0.3670
  691TIP3    H123488   0.080   1.335  16.675 -0.5029  0.4340  0.1132
  691TIP3    H223489   0.230   1.314  16.682 -0.6458 -0.6669  0.1560
  692TIP3   OH223490   2.641   3.957   1.369  0.3467  0.5530  0.2953
  692TIP3    H123491   2.699   3.895   1.413  1.9385  1.0194 -1.0573
  692TIP3    H223492   2.553   3.933   1.400  1.2754  0.3243  3.0124
  693TIP3   OH223493   1.518   1.453  16.929 -0.1012 -0.3270  0.1305
  693TIP3    H123494   1.445   1.444  16.867 -0.3954  0.4320  0.3584
  693TIP3    H223495   1.539   1.546  16.928  1.4255 -0.6372 -0.5523
  694TIP3   OH223496   1.646   4.611   4.696 -0.0613 -0.3354  0.1006
  694TIP3    H123497   1.597   4.668   4.637 -1.4354  0.0674  1.5737
  694TIP3    H223498   1.690   4.670   4.756 -0.6537 -0.7775  0.9910
  695TIP3   OH223499   5.106   6.666   4.308  0.0162 -0.1080 -0.2942
  695TIP3    H123500   5.087   6.606   4.235 -1.7503  1.1657 -0.9589
  695TIP3    H223501   5.100   6.612   4.386 -0.5888 -0.9878 -0.9371
  696TIP3   OH223502   5.201   4.702  16.057  0.2931  0.5829 -0.0516
  696TIP3    H123503   5.211   4.797  16.049  1.8264  0.5030  0.7642
  696TIP3    H223504   5.284   4.671  16.093  0.3804 -1.2554 -1.6525
  697TIP3   OH223505   3.791   6.048  14.657 -0.0966  0.3813  0.3192
  697TIP3    H123506   3.858   6.114  14.640 -0.6809  1.3197  1.5642
  697TIP3    H223507   3.813   6.011  14.742 -0.7631  0.2000  0.4219
  698TIP3   OH223508   6.404   4.964  16.329 -0.0337  0.1427  0.3042
  698TIP3    H123509   6.377   5.052  16.354 -0.8621 -0.0465  0.1180
  698TIP3    H223510   6.325   4.911  16.340  0.5530 -0.6583  0.7778
  699TIP3   OH223511   1.492   2.386  16.836 -0.3027 -0.4519  0.1669
  699TIP3    H123512   1.427   2.456  16.837  0.8512  0.6679 -0.0677
  699TIP3    H223513   1.519   2.380  16.744 -0.9296 -1.7699  0.0324
  700TIP3   OH223514   3.634   2.530  12.127  0.1155  0.5384 -0.0441
  700TIP3    H123515   3.648   2.624  12.115 -0.1759  0.4225 -1.3891
  700TIP3    H223516   3.564   2.508  12.066  0.4165 -0.6183  0.0103
  701TIP3   OH223517   2.821   3.773   6.152 -0.3117  0.0587 -0.5090
  701TIP3    H123518   2.886   3.704   6.137 -1.1477 -0.5538 -1.4538
  701TIP3    H223519   2.873   3.852   6.164  0.6070 -0.2764 -2.0171
  702TIP3   OH223520   3.364   4.810  14.511  0.1501  0.1592  0.4074
  702TIP3    H123521   3.300   4.788  14.442 -0.1531  0.4371  0.5917
  702TIP3    H223522   3.443   4.763  14.487  0.1993  0.6235 -0.4017
  703TIP3   OH223523   6.206   3.406  15.884 -0.1877  0.4025  0.0329
  703TIP3    H123524   6.260   3.363  15.817 -0.9946 -1.1021  0.3049
  703TIP3    H223525   6.123   3.423  15.840  0.3800  2.5761 -0.3383
  704TIP3   OH223526   3.084   4.567   0.416 -0.0127  0.1235 -0.4998
  704TIP3    H123527   2.999   4.598   0.447 -1.9106 -1.7205 -3.3114
  704TIP3    H223528   3.109   4.629   0.348  0.8759  0.5847  0.2259
  705TIP3   OH223529   6.027   6.229   0.399 -0.2748  0.1343  0.1394
  705TIP3    H123530   6.042   6.276   0.481  1.5844  0.8844 -0.5890
  705TIP3    H223531   5.932   6.222   0.393 -0.4783  0.4305  2.1346
  706TIP3   OH223532   5.528   5.777  10.797 -0.0609 -0.2095  0.0640
  706TIP3    H123533   5.434   5.779  10.782 -0.0693 -0.5011  0.0728
  706TIP3    H223534   5.540   5.814  10.884 -0.3782 -2.3025  1.0656
  707TIP3   OH223535   6.202   4.227  11.107 -0.2426  0.0316  0.3577
  707TIP3    H123536   6.191   4.140  11.070 -0.4626  0.1883  0.0498
  707TIP3    H223537   6.285   4.258  11.072 -0.7903  0.4671 -0.6024
  708TIP3   OH223538   5.505   6.383  12.599 -0.0220  0.5871  0.3456
  708TIP3    H123539   5.586   6.361  12.552 -0.7425  0.4953 -0.9077
  708TIP3    H223540   5.470   6.298  12.625 -0.8250  0.4512 -1.0772
  709TIP3   OH223541   0.936   3.301  12.348  0.6063  0.3980  0.0632
  709TIP3    H123542   0.919   3.212  12.380  1.0848  0.3057  0.0732
  709TIP3    H223543   0.997   3.338  12.413 -0.1713  0.9934  0.4615
  710TIP3   OH223544   4.080   1.256  12.214 -0.3117  0.1788 -0.1724
  710TIP3    H123545   4.104   1.316  12.143  0.3423 -0.3172 -0.3718
  710TIP3    H223546   4.101   1.304  12.294 -1.6701  1.0109 -0.2761
  711TIP3   OH223547   6.542   1.091  10.996  0.5963  0.0494 -0.7673
  711TIP3    H123548   6.459   1.138  10.984  1.5271  2.3040  0.9649
  711TIP3    H223549   6.577   1.080  10.907  0.8510  3.7526 -1.2568
  712TIP3   OH223550   5.950   2.183   5.306 -0.6059  0.2602 -0.1478
  712TIP3    H123551   6.007   2.186   5.229 -1.9600  0.0091 -1.1991
  712TIP3    H223552   5.965   2.267   5.350  2.5245 -0.8420  1.1265
  713TIP3   OH223553   4.990   5.310  16.629 -0.0229 -0.3726 -0.3075
  713TIP3    H123554   4.983   5.250  16.554  0.1171  1.1154 -1.5675
  713TIP3    H223555   4.947   5.390  16.599 -0.4827  0.0788  1.4456
  714TIP3   OH223556   1.493   3.214   0.776 -0.3904  0.1248 -0.5675
  714TIP3    H123557   1.421   3.248   0.722  0.9120  1.5252 -1.4975
  714TIP3    H223558   1.490   3.120   0.762 -0.7582  0.3518 -2.2958
  715TIP3   OH223559   1.039   1.177  12.547 -0.5999  0.3809  0.1923
  715TIP3    H123560   1.060   1.193  12.454  0.5477  1.3509  0.5865
  715TIP3    H223561   1.064   1.258  12.591 -0.6030 -0.2675  1.4340
  716TIP3   OH223562   3.376   2.084   1.480 -0.1654 -0.4157 -0.1103
  716TIP3    H123563   3.400   2.093   1.572 -0.8845 -0.2007  0.0664
  716TIP3    H223564   3.372   1.989   1.465  1.2164 -0.4686 -0.2779
  717TIP3   OH223565   3.574   1.395   3.923 -0.0946 -0.1367  0.6449
  717TIP3    H123566   3.527   1.396   4.007  0.3981 -1.9029  0.9739
  717TIP3    H223567   3.533   1.325   3.874  0.6472 -0.1315  0.0066
  718TIP3   OH223568   2.181   4.331  10.560 -0.6301  0.2430  0.1205
  718TIP3    H123569   2.232   4.279  10.497 -1.8750 -1.4324  0.4194
  718TIP3    H223570   2.174   4.417  10.519 -1.4385 -0.7889 -2.1392
  719TIP3   OH223571   6.345   0.912  16.996 -0.4590 -0.3266  0.1662
  719TIP3    H123572   6.353   0.934  17.088 -0.5116  0.8838 -0.0937
  719TIP3    H223573   6.264   0.862  16.990  0.4601 -1.9905  1.0165
  720TIP3   OH223574   0.476   2.692   1.981  0.0255  0.8479 -0.1618
  720TIP3    H123575   0.414   2.759   1.953  0.8015  1.6637  0.0165
  720TIP3    H223576   0.535   2.738   2.041  0.4310 -0.0574  0.1471
  721TIP3   OH223577   5.799   6.630  15.598  0.0732  0.3926  0.2490
  721TIP3    H123578   5.761   6.599  15.680 -0.0116  0.8335  0.3798
  721TIP3    H223579   5.888   6.656  15.621 -0.2730  1.4861  0.4357
  722TIP3   OH223580   3.687   1.318  16.362  0.3758  0.5056 -1.2646
  722TIP3    H123581   3.676   1.369  16.282  0.2687  1.4458 -0.6659
  722TIP3    H223582   3.600   1.316  16.402  0.5759  0.6834 -0.8052
  723TIP3   OH223583   1.983   3.074   3.574  0.2278  0.2719 -0.0290
  723TIP3    H123584   1.948   3.141   3.515 -0.0289 -1.8340 -2.4664
  723TIP3    H223585   2.077   3.088   3.573  0.3367 -0.2984 -1.8225
  724TIP3   OH223586   1.601   6.307   0.570  0.1969 -0.4289  0.0670
  724TIP3    H123587   1.580   6.371   0.502 -0.7085 -2.3027 -1.5162
  724TIP3    H223588   1.517   6.283   0.609  0.6563  0.2522  1.5660
  725TIP3   OH223589   0.728   3.979   4.394 -0.2894 -0.7377  0.6265
  725TIP3    H123590   0.698   4.034   4.322  0.7245 -2.0133 -0.8520
  725TIP3    H223591   0.821   4.002   4.404  0.2438 -2.3227 -0.2411
  726TIP3   OH223592   3.234   1.393  14.646  0.5114  0.7120 -0.1488
  726TIP3    H123593   3.207   1.436  14.565 -0.3035  0.3433 -0.0819
  726TIP3    H223594   3.184   1.438  14.714 -1.0791 -0.9073 -0.1675
  727TIP3   OH223595   3.505   4.053   2.554 -0.7572 -0.3464 -0.1424
  727TIP3    H123596   3.597   4.074   2.534 -1.2125  0.1341 -1.9244
  727TIP3    H223597   3.465   4.138   2.574 -0.8889 -0.5182  0.3353
  728TIP3   OH223598   6.110   2.908   1.901 -0.5217  0.9543  0.3057
  728TIP3    H123599   6.053   2.847   1.948  1.5436  0.7986  2.8329
  728TIP3    H223600   6.110   2.987   1.956  3.0119  0.3042  1.4961
  729TIP3   OH223601   5.964   5.442   3.638 -0.6340 -0.1191 -0.1117
  729TIP3    H123602   5.920   5.390   3.705 -0.4782 -1.5107 -1.0430
  729TIP3    H223603   6.011   5.510   3.687 -0.1985 -1.3277  1.2176
  730TIP3   OH223604   1.278   5.949   2.428 -0.1095  0.3478 -0.3638
  730TIP3    H123605   1.224   5.870   2.422  0.1079  0.1905 -0.2486
  730TIP3    H223606   1.215   6.021   2.422 -0.2965  0.1682 -0.5952
  731TIP3   OH223607   3.960   5.275  14.280  0.1552  0.3976  0.1044
  731TIP3    H123608   4.050   5.248  14.261  0.4518  1.4035  0.0455
  731TIP3    H223609   3.940   5.236  14.365  0.7701  0.4642  0.2813
  732TIP3   OH223610   0.175   3.897   1.779 -0.3849  0.2278 -0.2794
  732TIP3    H123611   0.185   3.969   1.717 -1.3678  0.0620 -0.6541
  732TIP3    H223612   0.082   3.896   1.799 -0.6419 -1.7637 -1.2989
  733TIP3   OH223613   0.932   2.870  15.175 -0.5922 -0.0537  0.6380
  733TIP3    H123614   0.969   2.797  15.225  2.5098  0.4383 -0.7268
  733TIP3    H223615   0.870   2.828  15.115  0.4838 -1.4753  0.4658
  734TIP3   OH223616   2.965   6.707  13.996  0.4300 -0.4909  0.0713
  734TIP3    H123617   2.943   6.753  14.078  2.9614 -1.0479  1.1544
  734TIP3    H223618   3.032   6.762  13.955  0.1255 -0.8910 -0.9873
  735TIP3   OH223619   5.611   4.914  11.465 -0.7271 -0.1449 -0.3509
  735TIP3    H123620   5.631   4.832  11.419  1.6482  1.0252 -1.6306
  735TIP3    H223621   5.561   4.965  11.402 -2.1124 -0.5342  0.4051
  736TIP3   OH223622   1.901   1.117   0.065  0.1235 -0.1332  0.0844
  736TIP3    H123623   1.896   1.077   0.152 -0.6973 -4.0998 -1.5571
  736TIP3    H223624   1.817   1.161   0.054  1.3463  3.1039  2.2552
  737TIP3   OH223625   4.879   6.495  16.342 -1.2900  0.2585  0.7125
  737TIP3    H123626   4.872   6.573  16.398 -2.0102  1.1762 -0.6048
  737TIP3    H223627   4.845   6.524  16.257 -1.7394 -1.5558  0.2438
  738TIP3   OH223628   5.551   2.454  13.483  0.2266 -0.3072  0.3503
  738TIP3    H123629   5.567   2.548  13.484  1.8138 -0.1899 -5.0453
  738TIP3    H223630   5.621   2.417  13.538  1.4600  1.5977  0.1501
  739TIP3   OH223631   1.930   2.184  14.754 -0.0237  0.3269  0.1006
  739TIP3    H123632   1.994   2.226  14.811  1.4630 -0.7077 -0.7383
  739TIP3    H223633   1.914   2.098  14.794  0.9600 -0.3697 -0.9171
  740TIP3   OH223634   2.411   2.422  12.447  0.1371  0.1333  0.5917
  740TIP3    H123635   2.470   2.493  12.471 -1.7364  0.8003  3.6702
  740TIP3    H223636   2.332   2.465  12.414  0.3778 -0.6854 -1.1822
  741TIP3   OH223637   0.043   2.770  13.652  0.1165  0.0990 -0.5621
  741TIP3    H123638   0.003   2.684  13.669  1.5743 -0.3340  0.9685
  741TIP3    H223639   0.135   2.751  13.633  0.2905  1.2651 -0.9879
  742TIP3   OH223640   5.911   3.476   0.309  0.4284  0.4262  0.1806
  742TIP3    H123641   5.971   3.423   0.360  0.2303 -0.0446 -0.0768
  742TIP3    H223642   5.945   3.473   0.220 -0.0746  0.0031 -0.0029
  743TIP3   OH223643   6.130   5.798  11.996  0.2841  0.3330  0.0635
  743TIP3    H123644   6.132   5.714  12.042 -1.4836  0.9361  1.3542
  743TIP3    H223645   6.098   5.777  11.908  0.5872 -0.4156  0.1244
  744TIP3   OH223646   0.431   0.653  10.521 -0.0369 -0.0354  0.4467
  744TIP3    H123647   0.400   0.614  10.603 -1.2460  0.5403  0.2885
  744TIP3    H223648   0.469   0.580  10.472  0.0559 -0.5144  1.2229
  745TIP3   OH223649   0.167   3.126   1.947 -0.1783 -0.1931 -0.0904
  745TIP3    H123650   0.126   3.050   1.905  3.0417 -1.1449 -1.8292
  745TIP3    H223651   0.249   3.091   1.984 -0.0828  1.8582  1.8563
  746TIP3   OH223652   0.538   3.720  12.362 -0.2056  0.0616 -0.2335
  746TIP3    H123653   0.571   3.693  12.276  0.2012 -2.3767  0.6232
  746TIP3    H223654   0.498   3.641  12.398 -1.6417  1.4088  1.2638
  747TIP3   OH223655   2.815   1.736   4.712 -0.0741  0.4220 -0.1764
  747TIP3    H123656   2.889   1.764   4.766  1.1071 -1.5444 -0.6818
  747TIP3    H223657   2.852   1.724   4.624 -1.4067  1.1320 -0.8596
  748TIP3   OH223658   3.037   5.126  15.518  0.2645  0.4708 -0.0109
  748TIP3    H123659   3.090   5.200  15.545  1.3418 -0.7460  1.3606
  748TIP3    H223660   3.000   5.091  15.599  1.2664 -1.5503 -0.3382
  749TIP3   OH223661   6.151   0.204  12.616 -0.0881  0.2495  0.3707
  749TIP3    H123662   6.226   0.148  12.597  0.2423  0.8124  0.0087
  749TIP3    H223663   6.083   0.143  12.646  0.8100 -0.1711  1.6358
  750TIP3   OH223664   5.961   6.625   0.024  0.2579 -0.0055  0.1996
  750TIP3    H123665   5.925   6.586  -0.055  0.3275 -0.5049  0.4083
  750TIP3    H223666   6.036   6.570   0.046  0.2392  0.1284  0.6124
  751TIP3   OH223667   3.634   0.883   1.577  0.7688 -0.5344 -0.8192
  751TIP3    H123668   3.692   0.908   1.650  0.2986 -1.1490 -0.2241
  751TIP3    H223669   3.565   0.832   1.618  0.0088 -0.1451 -1.5864
  752TIP3   OH223670   5.295   4.399   2.176 -0.3674 -0.3174  0.3115
  752TIP3    H123671   5.279   4.485   2.139  0.7387 -0.6002 -0.8690
  752TIP3    H223672   5.390   4.388   2.174 -0.4574 -1.4000  0.8356
  753TIP3   OH223673   4.198   2.121  13.014 -0.0873 -0.8740 -0.6143
  753TIP3    H123674   4.217   2.087  12.927  0.2877 -1.7882 -0.1928
  753TIP3    H223675   4.277   2.101  13.065 -0.8884 -1.7935  0.3339
  754TIP3   OH223676   2.695   3.594  13.344  0.4338 -0.0066 -0.0497
  754TIP3    H123677   2.784   3.567  13.321  0.8601  0.9438  0.4418
  754TIP3    H223678   2.701   3.625  13.434 -0.7688 -1.5879  0.6326
  755TIP3   OH223679   1.662   4.777   5.383  0.1762 -0.5306  1.0728
  755TIP3    H123680   1.648   4.846   5.318  0.7613 -1.4588 -0.0857
  755TIP3    H223681   1.749   4.796   5.419  0.3318 -0.6528  0.7648
  756TIP3   OH223682   0.260   1.747  16.250 -0.3755 -0.0208 -0.1368
  756TIP3    H123683   0.215   1.691  16.186  0.1407 -0.9736  0.3159
  756TIP3    H223684   0.238   1.709  16.334  0.0025  0.4564  0.1842
  757TIP3   OH223685   0.308   6.067   1.609 -0.5724 -0.3974 -0.7622
  757TIP3    H123686   0.308   6.087   1.515 -1.5155 -0.9017 -0.8722
  757TIP3    H223687   0.275   6.146   1.651  1.9487  0.7007 -0.6282
  758TIP3   OH223688   2.010   4.071  15.715 -0.0086  0.4347  0.2363
  758TIP3    H123689   1.948   4.142  15.734  0.3037  1.2407 -1.5805
  758TIP3    H223690   2.092   4.116  15.696 -0.1218 -0.2890 -2.2248
  759TIP3   OH223691   0.117   3.687  16.264  0.1292  0.2831  0.4761
  759TIP3    H123692   0.146   3.671  16.175 -1.9899  3.2367 -0.9535
  759TIP3    H223693   0.129   3.782  16.276  0.2394 -0.0039  3.3165
  760TIP3   OH223694   4.627   0.929  15.964 -0.2124  0.2207  0.0313
  760TIP3    H123695   4.568   1.005  15.958  0.4930  0.7564 -0.2849
  760TIP3    H223696   4.674   0.942  16.046  2.2204  1.8927 -1.4851
  761TIP3   OH223697   6.807   6.640   0.276 -0.4111  0.1588  0.7912
  761TIP3    H123698   6.868   6.571   0.302  1.1453  0.8501 -0.7915
  761TIP3    H223699   6.778   6.678   0.358 -0.2423 -1.4705  1.6552
  762TIP3   OH223700   4.822   2.219   2.578 -0.1532 -0.6420  0.1562
  762TIP3    H123701   4.742   2.271   2.584 -0.3355 -0.8323 -0.5983
  762TIP3    H223702   4.803   2.139   2.627 -0.4335 -0.6969 -0.0413
  763TIP3   OH223703   6.077   4.366  14.639 -0.0775  0.5007  0.0408
  763TIP3    H123704   6.006   4.318  14.597  1.8303 -1.5720 -1.0216
  763TIP3    H223705   6.143   4.376  14.571  2.5196 -1.6788  2.0257
  764TIP3   OH223706   0.849   3.334  13.642 -0.0112 -0.0891  0.3243
  764TIP3    H123707   0.846   3.375  13.556 -1.6509 -2.5621 -0.8784
  764TIP3    H223708   0.789   3.386  13.696 -1.9168 -0.7026 -1.1162
  765TIP3   OH223709   6.141   3.404   0.436 -0.1235  0.0047 -0.1238
  765TIP3    H123710   6.217   3.459   0.417 -0.1970  0.3382  0.4934
  765TIP3    H223711   6.092   3.454   0.502  0.5703 -1.4575  1.5671
  766TIP3   OH223712   3.902   6.274  14.904  0.1906 -0.3445  0.3231
  766TIP3    H123713   3.809   6.257  14.894  0.2485 -0.7776  0.4980
  766TIP3    H223714   3.943   6.188  14.900  0.5258 -0.2158  0.8340
  767TIP3   OH223715   5.496   0.557  15.722 -0.3879 -0.2530  0.0500
  767TIP3    H123716   5.548   0.608  15.660  0.1827 -0.9807 -0.0798
  767TIP3    H223717   5.513   0.466  15.699  1.1023 -0.6207  2.2387
  768TIP3   OH223718   4.805   2.739   1.167  0.2651 -0.1307 -0.6261
  768TIP3    H123719   4.757   2.677   1.112  1.6372 -3.4392  1.5905
  768TIP3    H223720   4.867   2.781   1.107 -0.2477 -1.4163 -2.1312
  769TIP3   OH223721   0.841   0.869   3.651  0.0113  0.4869  0.2618
  769TIP3    H123722   0.774   0.928   3.686  0.9901  0.7821  1.7071
  769TIP3    H223723   0.886   0.835   3.728  1.1150 -0.2107 -0.6608
  770TIP3   OH223724   5.800   4.310   0.297  0.0719 -0.4385 -0.1615
  770TIP3    H123725   5.889   4.276   0.289 -0.7626 -2.7479 -0.4640
  770TIP3    H223726   5.775   4.331   0.207 -0.8569 -3.2486 -0.6737
  771TIP3   OH223727   5.055   5.932  13.131 -0.3078  0.4841  0.0416
  771TIP3    H123728   4.993   5.893  13.192 -0.4252  0.7052  0.0658
  771TIP3    H223729   5.127   5.869  13.126 -0.4806  0.2816  0.1025
  772TIP3   OH223730   3.251   4.874   0.948  0.0505  0.2078  0.4243
  772TIP3    H123731   3.215   4.934   0.882 -0.1557  0.2754  0.5979
  772TIP3    H223732   3.270   4.793   0.900 -0.0523  0.2735  0.2735
  773TIP3   OH223733   5.948   2.581   0.817  0.4274 -0.6662  0.2781
  773TIP3    H123734   6.038   2.573   0.848  0.8037  0.0748 -0.5544
  773TIP3    H223735   5.943   2.522   0.741  0.6503  0.3443 -0.5472
  774TIP3   OH223736   0.220   5.210  16.433 -0.0575 -0.2586  0.2090
  774TIP3    H123737   0.126   5.190  16.429 -0.1152  0.1188 -0.7662
  774TIP3    H223738   0.260   5.149  16.372  0.0365  1.0158 -1.0649
  775TIP3   OH223739   2.131   5.456   1.595  0.1586 -0.2501 -0.0110
  775TIP3    H123740   2.119   5.401   1.672  0.4386  1.3014  1.1982
  775TIP3    H223741   2.225   5.453   1.577  0.0877 -0.6443 -0.3298
  776TIP3   OH223742   4.538   6.479   6.729  0.3013  0.0347 -1.3933
  776TIP3    H123743   4.458   6.470   6.780  0.3232 -0.8740 -1.5070
  776TIP3    H223744   4.509   6.472   6.638  0.5943 -1.1348 -1.4148
  777TIP3   OH223745   2.736   0.095   0.115  0.9683 -0.1819 -0.4955
  777TIP3    H123746   2.669   0.124   0.053  1.0408 -0.5414 -0.7497
  777TIP3    H223747   2.819   0.116   0.072  1.0348  1.0065  0.1711
  778TIP3   OH223748   1.755   6.108  12.718  0.8660 -0.0968 -0.3268
  778TIP3    H123749   1.819   6.176  12.697  0.1098  1.0092  0.8312
  778TIP3    H223750   1.756   6.102  12.813 -1.1096  0.3284 -0.2328
  779TIP3   OH223751   0.164   5.162   1.084 -0.7277  0.6433 -0.2389
  779TIP3    H123752   0.244   5.127   1.044 -1.5601  0.2995 -1.6800
  779TIP3    H223753   0.094   5.107   1.048 -1.7113  1.5958  0.1939
  780TIP3   OH223754   6.790   0.282   3.679 -0.1709  0.1965 -0.2004
  780TIP3    H123755   6.801   0.201   3.630  0.8017  0.3211 -0.1984
  780TIP3    H223756   6.769   0.254   3.768  0.9753 -0.0712 -0.0060
  781TIP3   OH223757   5.159   4.343   1.157  0.0981 -0.3499  0.9206
  781TIP3    H123758   5.240   4.395   1.147 -0.5656  0.6354  0.4811
  781TIP3    H223759   5.153   4.326   1.251  1.7793 -2.0427  0.7672
  782TIP3   OH223760   1.880   5.999  15.321 -0.4855  0.2884 -0.5594
  782TIP3    H123761   1.887   5.956  15.236 -0.4860 -0.2699 -0.2866
  782TIP3    H223762   1.815   6.067  15.309 -0.8519 -0.1165 -0.8779
  783TIP3   OH223763   1.241   5.999   3.796 -0.4470 -0.1304  0.0793
  783TIP3    H123764   1.336   6.007   3.800 -0.5821  1.9661  0.1924
  783TIP3    H223765   1.215   5.977   3.885 -0.0714 -0.9961 -0.0117
  784TIP3   OH223766   1.887   5.226  14.232  0.5745  0.2471  0.2073
  784TIP3    H123767   1.958   5.210  14.294  0.8631 -1.4239 -0.4959
  784TIP3    H223768   1.864   5.139  14.200 -0.6673  0.9302 -0.8222
  785TIP3   OH223769   1.828   0.306  13.481 -0.1030 -0.0097 -0.1910
  785TIP3    H123770   1.756   0.334  13.424 -0.6903  0.0616  0.5674
  785TIP3    H223771   1.817   0.211  13.489 -0.3285  0.0446  0.1970
  786TIP3   OH223772   4.565   4.091   0.452 -0.7288 -0.7904  0.6006
  786TIP3    H123773   4.621   4.020   0.483  0.5026  0.0552  0.3487
  786TIP3    H223774   4.592   4.168   0.502  0.2247  0.2419 -1.3907
  787TIP3   OH223775   0.723   0.460   2.740 -0.0688 -0.7463  0.7583
  787TIP3    H123776   0.677   0.530   2.695  1.3063  0.0321  0.5008
  787TIP3    H223777   0.715   0.482   2.833  0.3778 -0.2317  0.6761
  788TIP3   OH223778   3.594   4.409  13.893 -0.0872  0.5539  0.2222
  788TIP3    H123779   3.535   4.465  13.944 -0.3849 -0.1769  0.6973
  788TIP3    H223780   3.675   4.406  13.945 -0.7118 -0.9573  1.1702
  789TIP3   OH223781   2.092   1.687  11.724 -0.3908 -0.2652  0.0026
  789TIP3    H123782   2.000   1.690  11.701 -0.6823  0.1522  1.1440
  789TIP3    H223783   2.102   1.608  11.777  0.2016 -1.0465 -1.2263
  790TIP3   OH223784   2.870   3.273   4.871  0.2548 -0.7050 -0.0038
  790TIP3    H123785   2.923   3.351   4.888 -1.2284  0.3839 -0.1594
  790TIP3    H223786   2.781   3.307   4.859 -0.4187 -2.4267 -0.1317
  791TIP3   OH223787   2.435   6.151  15.079  0.5003  0.0189 -0.1408
  791TIP3    H123788   2.373   6.079  15.064  1.5021 -0.8877 -0.0444
  791TIP3    H223789   2.385   6.215  15.130 -0.9371  0.1713 -1.6321
  792TIP3   OH223790   0.591   3.362   4.912 -0.5068 -0.3562 -0.0740
  792TIP3    H123791   0.597   3.422   4.986  0.0126 -0.7275  0.1934
  792TIP3    H223792   0.500   3.334   4.911 -0.6603  0.1288  0.0430
  793TIP3   OH223793   4.222   4.771   2.518 -0.9383 -0.1740  0.0824
  793TIP3    H123794   4.257   4.809   2.598  1.1019 -0.8076 -0.4452
  793TIP3    H223795   4.234   4.839   2.452  1.4711 -1.1214 -0.5706
  794TIP3   OH223796   1.401   4.343  13.067 -0.7827  0.4001  0.1735
  794TIP3    H123797   1.467   4.403  13.102  0.4556 -0.4072 -0.7055
  794TIP3    H223798   1.338   4.334  13.139 -0.2498  1.6169  0.8433
  795TIP3   OH223799   0.933   2.180   4.665  0.4539 -0.3686 -0.2282
  795TIP3    H123800   0.863   2.241   4.688 -0.2159 -0.6340 -1.4925
  795TIP3    H223801   1.003   2.235   4.631 -0.0970 -0.2700 -1.2417
  796TIP3   OH223802   3.595   4.326   3.956 -0.2482  0.1542  0.7465
  796TIP3    H123803   3.518   4.293   4.002  1.1260 -1.6120  1.9501
  796TIP3    H223804   3.665   4.323   4.022  1.1387  0.4173 -0.6547
  797TIP3   OH223805   6.233   1.201   0.731 -0.4002 -0.2308  0.4446
  797TIP3    H123806   6.296   1.137   0.699 -0.3875 -1.2868  2.3961
  797TIP3    H223807   6.161   1.148   0.767 -1.4420  0.9134  0.1331
  798TIP3   OH223808   2.164   0.629  10.232  0.3338  0.1938 -0.1330
  798TIP3    H123809   2.185   0.557  10.293  0.0498  0.8433  0.7571
  798TIP3    H223810   2.069   0.632  10.231  0.3328  1.3569  0.8419
  799TIP3   OH223811   6.398   3.152   2.804  0.0224  0.1874 -0.2123
  799TIP3    H123812   6.361   3.238   2.781  0.1697  0.6067  1.0318
  799TIP3    H223813   6.483   3.172   2.842  0.5649 -0.6143 -0.9659
  800TIP3   OH223814   4.655   2.517   1.800 -0.1569 -0.5463  0.4442
  800TIP3    H123815   4.613   2.603   1.809 -3.4396 -2.0894  1.3146
  800TIP3    H223816   4.698   2.503   1.885 -1.5461 -0.6220  1.1774
  801TIP3   OH223817   4.848   0.748  14.167 -0.1696 -0.6077 -0.4040
  801TIP3    H123818   4.762   0.751  14.124  0.3885  2.7259 -1.5716
  801TIP3    H223819   4.911   0.744  14.095  0.7268 -1.7194  0.4047
  802TIP3   OH223820   6.381   2.101  12.049 -0.3549  0.0546  0.5157
  802TIP3    H123821   6.346   2.171  12.105  0.6582  0.8498  0.1966
  802TIP3    H223822   6.403   2.031  12.110  1.1505  1.0763  1.2122
  803TIP3   OH223823   3.666   0.989   4.310 -0.0027 -0.0877  0.1521
  803TIP3    H123824   3.602   0.987   4.239 -0.2842  0.1741  0.3981
  803TIP3    H223825   3.708   0.903   4.307  2.7328  1.1033 -2.8468
  804TIP3   OH223826   0.112   2.915   5.883 -0.2793  0.4460 -0.1027
  804TIP3    H123827   0.104   2.954   5.970  1.5935 -0.6368  0.6047
  804TIP3    H223828   0.077   2.827   5.893  0.9716 -0.0757 -0.1132
  805TIP3   OH223829   5.727   3.232  14.072  0.2916 -0.0228  0.5810
  805TIP3    H123830   5.762   3.314  14.038  1.2048  0.1315  1.8057
  805TIP3    H223831   5.788   3.165  14.043 -0.4706 -0.2953 -0.4447
  806TIP3   OH223832   0.264   0.399   4.842  0.4413  0.2429 -0.0322
  806TIP3    H123833   0.345   0.350   4.828  0.0224 -0.5750  0.3798
  806TIP3    H223834   0.243   0.385   4.934 -0.3128  0.2342 -0.2019
  807TIP3   OH223835   4.278   3.751  16.798 -0.3003 -0.0777  0.2161
  807TIP3    H123836   4.339   3.749  16.871  0.7549 -1.1404 -0.6522
  807TIP3    H223837   4.259   3.844  16.784  4.1109  0.7572 -1.8459
  808TIP3   OH223838   6.227   3.587  16.265  0.2527  0.1932 -0.3339
  808TIP3    H123839   6.171   3.650  16.221 -0.4379  1.1043  1.7453
  808TIP3    H223840   6.314   3.601  16.227 -0.5286  0.0166 -2.2910
  809TIP3   OH223841   5.500   3.724  11.906 -0.1011  0.9026  0.1035
  809TIP3    H123842   5.535   3.636  11.891  0.8797  1.4500 -0.9919
  809TIP3    H223843   5.557   3.761  11.974 -2.2950 -0.2735  2.7864
  810TIP3   OH223844   1.136   5.067  15.850 -0.2050 -0.2161 -0.1635
  810TIP3    H123845   1.048   5.099  15.869 -0.4398 -1.4037  0.8588
  810TIP3    H223846   1.165   5.025  15.931  1.6588  0.8796 -0.1960
  811TIP3   OH223847   2.636   0.864  11.379 -0.5825  0.2145 -0.4483
  811TIP3    H123848   2.557   0.869  11.433 -0.6849 -1.4400 -0.3943
  811TIP3    H223849   2.707   0.883  11.440 -0.7109 -1.4792  0.3081
  812TIP3   OH223850   5.806   0.733  14.265 -0.4714 -0.2673  0.5889
  812TIP3    H123851   5.860   0.658  14.290 -0.7674 -0.7701 -0.2363
  812TIP3    H223852   5.816   0.740  14.170  0.9489  1.8621  0.8244
  813TIP3   OH223853   6.086   4.040   3.475  0.0061 -0.2191  0.0933
  813TIP3    H123854   6.150   4.051   3.546  0.4762  0.2920 -0.4029
  813TIP3    H223855   6.033   4.120   3.478 -0.3848 -0.4851  0.2767
  814TIP3   OH223856   1.929   4.581   4.070  0.1436  0.0936 -0.0192
  814TIP3    H123857   1.871   4.520   4.117  1.5027 -0.0927  1.4896
  814TIP3    H223858   1.957   4.644   4.137  5.5918 -2.6500  0.8201
  815TIP3   OH223859   0.991   6.297   1.445  0.5821  0.7948 -0.5581
  815TIP3    H123860   1.008   6.232   1.378 -0.3242  1.1528 -1.1648
  815TIP3    H223861   0.917   6.261   1.494  1.1415  0.6070  0.1584
  816TIP3   OH223862   6.807   3.200   4.607  0.1954 -0.1474 -0.3004
  816TIP3    H123863   6.865   3.200   4.683  0.9268 -1.7716 -0.8093
  816TIP3    H223864   6.804   3.108   4.580  0.5176  0.4746 -2.6627
  817TIP3   OH223865   0.298   1.473   3.021 -0.3142  0.0688  0.2773
  817TIP3    H123866   0.346   1.556   3.026 -0.7273  0.2699  1.0395
  817TIP3    H223867   0.256   1.464   3.106 -0.0468 -1.0676  0.3075
  818TIP3   OH223868   2.315   4.821  13.626 -0.0313 -0.2151  0.6283
  818TIP3    H123869   2.349   4.874  13.555  0.0221 -1.8749 -0.6498
  818TIP3    H223870   2.393   4.789  13.672 -0.0521  0.4071  1.1113
  819TIP3   OH223871   1.434   4.761   5.892  0.2161  0.0024  0.0230
  819TIP3    H123872   1.397   4.673   5.892 -1.0188  0.3495  3.5254
  819TIP3    H223873   1.528   4.748   5.881 -0.1431 -1.5556 -1.4264
  820TIP3   OH223874   4.644   4.395   1.776  1.0355 -0.4134 -0.1388
  820TIP3    H123875   4.566   4.339   1.766 -1.1643  2.0952  1.6147
  820TIP3    H223876   4.639   4.427   1.866  2.8229  1.6713 -0.6971
  821TIP3   OH223877   6.192   0.149   6.568  0.3412  0.1922  0.4447
  821TIP3    H123878   6.151   0.210   6.629 -0.1097  0.3659 -0.0190
  821TIP3    H223879   6.285   0.149   6.592  0.3299  0.9742  0.5303
  822TIP3   OH223880   4.669   3.081  15.545  0.1974 -0.3049  0.0576
  822TIP3    H123881   4.718   3.000  15.556 -0.8961 -1.3440 -2.0869
  822TIP3    H223882   4.735   3.144  15.514  0.5485 -1.2271 -1.1842
  823TIP3   OH223883   0.773   1.039  11.212 -0.5086  0.1946  0.5803
  823TIP3    H123884   0.727   1.115  11.178  0.3171  0.1429 -0.7182
  823TIP3    H223885   0.707   0.969  11.215 -0.9703  0.6301  0.5894
  824TIP3   OH223886   4.741   0.945   6.431 -0.1364 -0.0487 -0.1147
  824TIP3    H123887   4.832   0.971   6.415 -0.2371  0.0198 -0.5852
  824TIP3    H223888   4.746   0.851   6.449 -0.0964 -0.2826 -1.2793
  825TIP3   OH223889   0.591   5.913   0.129 -0.0406 -0.2089  0.2838
  825TIP3    H123890   0.581   5.818   0.124 -0.9604 -0.1238  0.3296
  825TIP3    H223891   0.660   5.926   0.193  0.0394 -0.8437  0.3372
  826TIP3   OH223892   3.386   4.960   3.836  0.2939 -0.4954  0.3345
  826TIP3    H123893   3.334   4.949   3.756 -0.0958  1.5683  0.2584
  826TIP3    H223894   3.476   4.964   3.805  0.1159  0.6879 -0.0749
  827TIP3   OH223895   3.338   3.677   4.954  0.1912  0.3088 -0.0185
  827TIP3    H123896   3.402   3.608   4.936  0.2394  0.4957 -0.5865
  827TIP3    H223897   3.360   3.707   5.042 -0.2497 -0.8438  0.4951
  828TIP3   OH223898   3.957   0.685   4.564  0.1095 -0.1966  0.2744
  828TIP3    H123899   3.908   0.684   4.647  0.7676  2.4622  0.7883
  828TIP3    H223900   4.046   0.659   4.588 -0.2172 -1.6433 -0.0335
  829TIP3   OH223901   5.949   5.290   3.931  0.0458  0.4646 -0.0016
  829TIP3    H123902   5.976   5.199   3.936 -0.5665  0.1308 -1.7708
  829TIP3    H223903   5.868   5.295   3.983  0.2849  0.0902  0.4044
  830TIP3   OH223904   6.806   4.767   5.057  0.9850  0.5004 -0.1696
  830TIP3    H123905   6.888   4.797   5.019  1.2774 -0.5602 -0.4219
  830TIP3    H223906   6.829   4.687   5.104 -0.0099 -0.1868 -0.8210
  831TIP3   OH223907   1.297   5.655   2.546 -0.1186 -0.3572 -0.6668
  831TIP3    H123908   1.209   5.663   2.583 -0.2602  1.1091 -1.2414
  831TIP3    H223909   1.344   5.731   2.582  0.9851 -1.2246 -0.2143
  832TIP3   OH223910   0.827   2.476  13.813 -0.3629  0.3057 -0.2203
  832TIP3    H123911   0.880   2.425  13.752 -3.0159 -1.8425 -0.9254
  832TIP3    H223912   0.754   2.509  13.760 -0.5985  1.8719  0.9957
  833TIP3   OH223913   1.729   4.099  16.103  0.2616  0.6226 -0.0367
  833TIP3    H123914   1.690   4.149  16.175 -1.1165 -1.4612  0.7553
  833TIP3    H223915   1.801   4.154  16.072  0.8434  1.6459  2.8495
  834TIP3   OH223916   0.851   0.673   0.450  0.0760  0.1222 -0.4850
  834TIP3    H123917   0.814   0.609   0.389  1.7063 -1.1511 -0.2084
  834TIP3    H223918   0.798   0.663   0.529  0.4348 -1.0912 -0.3677
  835TIP3   OH223919   0.064   4.078  13.780  0.3048 -0.0885  0.4638
  835TIP3    H123920   0.022   4.144  13.835  0.4019 -0.2954  0.7882
  835TIP3    H223921   0.140   4.123  13.742  0.2629  0.0398  0.5328
  836TIP3   OH223922   6.775   2.835  14.963  0.6361 -0.4703 -0.2789
  836TIP3    H123923   6.687   2.815  14.931  1.3692 -1.2231 -1.9310
  836TIP3    H223924   6.787   2.928  14.944  0.9622 -0.8396 -2.0830
  837TIP3   OH223925   6.131   6.173   1.797 -0.8991 -0.2235  0.3228
  837TIP3    H123926   6.108   6.099   1.853  0.9458 -1.7360 -0.7934
  837TIP3    H223927   6.173   6.235   1.856 -0.3372 -1.1339  0.9123
  838TIP3   OH223928   3.415   1.667  16.458 -0.3933 -0.2447 -0.1094
  838TIP3    H123929   3.494   1.653  16.405 -1.9851 -2.2506 -2.2002
  838TIP3    H223930   3.444   1.653  16.548  1.2574 -3.4272 -0.9728
  839TIP3   OH223931   4.529   5.396  14.084 -0.3517  0.4079 -0.0293
  839TIP3    H123932   4.595   5.332  14.057 -0.3570  0.1352  0.5832
  839TIP3    H223933   4.473   5.406  14.007  0.7674  1.1241 -0.7747
  840TIP3   OH223934   2.933   6.086   4.708 -0.2890 -0.2713 -0.1512
  840TIP3    H123935   2.857   6.079   4.766 -0.2221 -0.9925 -0.1486
  840TIP3    H223936   2.903   6.049   4.625 -0.4833  1.0383 -0.6855
  841TIP3   OH223937   4.958   4.938   4.175  0.1587  0.1973  0.0152
  841TIP3    H123938   4.910   4.961   4.254 -0.7088 -0.0582 -0.4290
  841TIP3    H223939   4.900   4.963   4.103  0.1716 -1.2283 -0.5168
  842TIP3   OH223940   1.369   1.795  15.940 -0.1118 -0.3624  0.7836
  842TIP3    H123941   1.333   1.870  15.988  0.4492 -0.0537  0.7371
  842TIP3    H223942   1.310   1.783  15.866  0.1657  0.4659  0.4177
  843TIP3   OH223943   6.783   2.763  13.380 -0.6352 -0.1466  0.7151
  843TIP3    H123944   6.866   2.733  13.343  0.5883  0.7593  2.5402
  843TIP3    H223945   6.802   2.777  13.473 -2.3484  1.7732  0.8528
  844TIP3   OH223946   0.083   4.124  14.241  0.0669 -0.7167  0.1058
  844TIP3    H123947   0.086   4.051  14.179  0.1279 -0.5484 -0.0925
  844TIP3    H223948   0.174   4.141  14.263  0.0571 -0.6592  0.1021
  845TIP3   OH223949   3.586   2.544   4.169  0.7461 -0.0125  0.0220
  845TIP3    H123950   3.588   2.464   4.220 -0.5358  0.0952  0.2678
  845TIP3    H223951   3.617   2.612   4.229  0.4464 -0.0881  0.2598
  846TIP3   OH223952   4.088   0.300  13.039 -0.2152 -0.4527 -0.2447
  846TIP3    H123953   4.005   0.330  13.075  1.1164  0.1155  2.6322
  846TIP3    H223954   4.127   0.379  13.000  0.1139 -0.0747  0.8190
  847TIP3   OH223955   3.959   4.706  15.357 -0.0557  0.3171 -0.0002
  847TIP3    H123956   3.996   4.673  15.439 -0.2681  1.6987  0.6775
  847TIP3    H223957   4.017   4.777  15.330  1.1289 -1.3372 -2.1317
  848TIP3   OH223958   5.501   3.889  10.398 -0.1830 -0.2368  0.0768
  848TIP3    H123959   5.571   3.847  10.449 -0.9012 -2.4593 -0.6457
  848TIP3    H223960   5.526   3.873  10.307 -1.4236 -0.7211 -0.1896
  849TIP3   OH223961   4.866   3.653  14.815 -0.1271  0.3740  0.4192
  849TIP3    H123962   4.843   3.697  14.733 -1.3045 -0.9671 -0.0106
  849TIP3    H223963   4.956   3.679  14.832 -0.4704  2.1948 -0.2889
  850TIP3   OH223964   4.983   4.393   2.858 -0.1485 -0.1942  0.7206
  850TIP3    H123965   4.991   4.473   2.911  0.1683  0.1587  0.1503
  850TIP3    H223966   4.898   4.402   2.815 -0.3626 -0.4348  1.0867
  851TIP3   OH223967   0.767   1.900   1.417  0.0501 -0.5087  0.0967
  851TIP3    H123968   0.763   1.893   1.512  0.4075  1.3233  0.2664
  851TIP3    H223969   0.702   1.836   1.386 -2.4316  1.0647  1.6580
  852TIP3   OH223970   5.776   3.492  12.180  0.2114  0.5279 -0.1350
  852TIP3    H123971   5.798   3.585  12.172 -0.3635  0.6191 -0.7293
  852TIP3    H223972   5.795   3.455  12.094  2.3216 -0.3393  0.6435
  853TIP3   OH223973   2.917   6.008   5.494 -0.2572 -0.0318  0.5705
  853TIP3    H123974   2.932   6.031   5.403 -1.7703  2.4913  0.8680
  853TIP3    H223975   2.939   6.088   5.543 -5.3473  0.9467  1.7786
  854TIP3   OH223976   3.970   2.046  14.724 -0.2050  0.3001  0.0240
  854TIP3    H123977   4.054   1.999  14.726 -1.0086 -1.1781  0.5974
  854TIP3    H223978   3.977   2.110  14.796  0.9003  1.0929 -0.7568
  855TIP3   OH223979   4.796   2.260   0.335 -0.1230 -1.0184 -0.2624
  855TIP3    H123980   4.794   2.165   0.330 -1.7625 -1.0213  0.0157
  855TIP3    H223981   4.836   2.279   0.420  1.9566 -1.3832 -1.0896
  856TIP3   OH223982   4.452   6.355  16.730  0.1162 -0.2491 -0.7716
  856TIP3    H123983   4.384   6.336  16.666 -1.3082 -1.1535  0.9474
  856TIP3    H223984   4.406   6.390  16.806  1.8073  1.3058 -0.3716
  857TIP3   OH223985   5.578   2.899   5.082  0.2888 -0.2506  0.4322
  857TIP3    H123986   5.507   2.939   5.132  0.4727 -0.0760  0.5563
  857TIP3    H223987   5.614   2.832   5.140 -1.3644 -2.0740 -0.5380
  858TIP3   OH223988   2.588   4.322  10.978  0.3379 -0.0056 -0.4329
  858TIP3    H123989   2.548   4.265  10.912  0.7538 -0.2774 -0.4553
  858TIP3    H223990   2.607   4.403  10.932  1.5519 -0.5405 -0.9339
  859TIP3   OH223991   3.061   3.490  16.771 -0.3656  1.2759 -0.4694
  859TIP3    H123992   3.077   3.567  16.826 -1.5373  1.2487 -0.0531
  859TIP3    H223993   3.143   3.442  16.773 -0.4641  1.0975  1.5780
  860TIP3   OH223994   1.601   0.531   3.135 -0.0753 -0.3720  0.6563
  860TIP3    H123995   1.594   0.625   3.118 -0.2693 -0.3360  0.9256
  860TIP3    H223996   1.551   0.517   3.215  0.5617 -0.5896  1.0263
  861TIP3   OH223997   0.441   0.083   5.708 -0.0114 -0.3417  0.0049
  861TIP3    H123998   0.416  -0.007   5.725  0.7191 -0.7799 -1.1120
  861TIP3    H223999   0.386   0.110   5.635  1.4014 -0.7041 -1.2421
  862TIP3   OH224000   1.853   6.361  11.350 -0.2724 -0.4265  0.2420
  862TIP3    H124001   1.893   6.319  11.426 -1.4282 -0.4961  0.8372
  862TIP3    H224002   1.914   6.344  11.279  0.8442 -0.3513  1.1527
  863TIP3   OH224003   5.068   0.123  14.558 -0.3975 -0.4479 -0.1939
  863TIP3    H124004   5.025   0.188  14.502  0.2842 -0.3009 -0.5645
  863TIP3    H224005   5.065   0.042  14.509 -2.0778 -0.9551  0.6618
  864TIP3   OH224006   2.320   1.318   3.081  0.4936  0.0612 -0.3543
  864TIP3    H124007   2.231   1.292   3.104  0.7179  0.2911  0.8339
  864TIP3    H224008   2.309   1.381   3.010 -0.5432  2.7002  1.9716
  865TIP3   OH224009   2.450   5.983  13.828  0.7151 -0.1891  0.3928
  865TIP3    H124010   2.483   6.001  13.916 -0.3023  0.2659  0.7008
  865TIP3    H224011   2.481   5.895  13.808  2.7581  0.4773  0.3274
  866TIP3   OH224012   2.649   3.616  15.447  1.0909 -0.0606  0.0889
  866TIP3    H124013   2.561   3.611  15.483  1.3239 -1.9118  0.4771
  866TIP3    H224014   2.637   3.619  15.352  0.6286 -1.0751  0.1129
  867TIP3   OH224015   4.690   6.063   0.996  0.7787  0.2628  0.5922
  867TIP3    H124016   4.747   5.986   0.995  0.5559  0.1035 -0.2187
  867TIP3    H224017   4.713   6.112   0.917 -2.1273 -1.2638 -1.3933
  868TIP3   OH224018   5.964   3.378  11.181  0.0889  0.7294 -0.0386
  868TIP3    H124019   6.016   3.429  11.119 -0.3601 -0.5668 -1.5396
  868TIP3    H224020   5.925   3.308  11.129  0.5261 -1.0691  1.8950
  869TIP3   OH224021   2.049   5.561   0.286 -0.1845 -0.2495  0.3155
  869TIP3    H124022   2.037   5.525   0.199  1.5780  0.5158 -0.2871
  869TIP3    H224023   1.974   5.529   0.336 -0.2778 -2.1821 -0.9803
  870TIP3   OH224024   3.366   0.847  12.512 -0.6843 -0.1903  0.6475
  870TIP3    H124025   3.424   0.772  12.525  0.3096  0.6447  1.1421
  870TIP3    H224026   3.420   0.913  12.471 -0.8998  1.0700  2.2829
  871TIP3   OH224027   3.428   1.763  13.415  0.7773 -0.3173 -0.0786
  871TIP3    H124028   3.411   1.669  13.413  1.1629 -0.3971  0.3804
  871TIP3    H224029   3.437   1.787  13.323 -1.2243 -0.3757 -0.3362
  872TIP3   OH224030   0.247   6.235  13.053  0.1900  0.7448 -0.1647
  872TIP3    H124031   0.202   6.174  12.996  0.0532  1.0947 -0.4344
  872TIP3    H224032   0.238   6.198  13.141 -0.6485  0.8278 -0.2134
  873TIP3   OH224033   3.217   6.618   0.259 -0.3215 -0.1586  0.0638
  873TIP3    H124034   3.239   6.593   0.170  1.1120  0.9657  0.0734
  873TIP3    H224035   3.163   6.696   0.250 -0.3421 -0.1587  0.1807
  874TIP3   OH224036   3.129   6.298   6.526  0.0040 -0.4516 -0.2448
  874TIP3    H124037   3.191   6.370   6.534 -0.5872  0.0203  0.1720
  874TIP3    H224038   3.142   6.246   6.605 -1.3648  0.6505  0.7533
  875TIP3   OH224039   0.756   2.374   2.625 -0.3219 -0.0093 -0.7629
  875TIP3    H124040   0.664   2.399   2.628 -1.0470 -2.4529  1.9345
  875TIP3    H224041   0.804   2.454   2.643 -1.9983  0.9846 -0.5556
  876TIP3   OH224042   4.099   2.627  16.809 -0.3683  0.0196 -0.9657
  876TIP3    H124043   4.085   2.535  16.788  1.7540 -0.2880 -1.3452
  876TIP3    H224044   4.137   2.626  16.897 -1.6103  0.6613 -0.4072
  877TIP3   OH224045   6.333   1.758  16.847  0.7601 -0.4386 -0.4800
  877TIP3    H124046   6.304   1.801  16.927  1.0468  0.7426 -0.9782
  877TIP3    H224047   6.255   1.751  16.793  0.8752  0.3514 -0.7719
  878TIP3   OH224048   6.351   1.872   0.965  0.2931 -0.3908  0.1294
  878TIP3    H124049   6.404   1.949   0.985  0.2017 -0.5181  0.8674
  878TIP3    H224050   6.414   1.808   0.933  0.7856 -0.9542  2.1228
  879TIP3   OH224051   5.920   2.260  17.011 -0.2530  0.5668 -0.1633
  879TIP3    H124052   5.970   2.296  16.937 -1.1360  0.1059 -0.9949
  879TIP3    H224053   5.872   2.186  16.974  1.3854 -1.4563  1.4596
  880TIP3   OH224054   1.175   5.731  14.660  0.2246 -0.1004 -0.2385
  880TIP3    H124055   1.116   5.791  14.705  0.4159 -0.4226  0.4656
  880TIP3    H224056   1.247   5.786  14.630  0.5698 -0.0167  0.7069
  881TIP3   OH224057   1.078   6.028  14.667  0.3877 -0.0298 -0.5681
  881TIP3    H124058   1.051   6.016  14.576  2.6981 -0.0690 -1.2967
  881TIP3    H224059   1.136   6.104  14.666 -0.2579  0.5306  1.0472
  882TIP3   OH224060   1.620   3.721  15.087  0.9407  0.1705 -0.6501
  882TIP3    H124061   1.714   3.723  15.066  1.4247  2.1938  1.3075
  882TIP3    H224062   1.582   3.790  15.033  0.6741 -0.2453 -0.9972
  883TIP3   OH224063   5.697   1.770  10.996 -0.2861  0.2617 -0.4103
  883TIP3    H124064   5.779   1.774  11.045 -1.4138 -0.5362  1.6549
  883TIP3    H224065   5.698   1.848  10.941  2.3193 -0.2697 -1.2553
  884TIP3   OH224066   1.487   6.216  14.372 -0.4315  0.6670 -0.4437
  884TIP3    H124067   1.490   6.287  14.435 -0.2132 -0.2132  0.5667
  884TIP3    H224068   1.570   6.170  14.383 -1.0873 -0.4929 -0.1756
  885TIP3   OH224069   1.481   3.046  15.350  0.3622  0.6446  0.2765
  885TIP3    H124070   1.433   3.126  15.330 -1.0145  0.3148  2.0111
  885TIP3    H224071   1.556   3.048  15.291 -0.4306  2.4501 -0.7652
  886TIP3   OH224072   1.021   1.098  11.571  0.1907  0.5401  0.2074
  886TIP3    H124073   0.949   1.036  11.585 -0.0364  0.6845 -0.3109
  886TIP3    H224074   1.069   1.063  11.496  1.2810 -0.1172  1.1779
  887TIP3   OH224075   3.229   4.002   0.233  0.0540  0.2073  0.5775
  887TIP3    H124076   3.158   4.037   0.288 -0.6537  0.4593 -0.4653
  887TIP3    H224077   3.304   4.058   0.252  0.0004 -0.0982  1.7457
  888TIP3   OH224078   2.616   5.147  11.049 -0.0539 -0.4597 -0.1360
  888TIP3    H124079   2.711   5.133  11.054  0.0863  0.3360 -0.4996
  888TIP3    H224080   2.603   5.196  10.968 -0.5722  1.1054  0.8578
  889TIP3   OH224081   4.208   3.758  15.276  0.4396  0.4224 -0.5578
  889TIP3    H124082   4.172   3.785  15.192 -0.0746  0.4907 -0.3238
  889TIP3    H224083   4.284   3.705  15.254  1.3327  1.8476 -1.0356
  890TIP3   OH224084   2.170   2.103   3.688  0.2159 -0.0863 -0.6280
  890TIP3    H124085   2.264   2.104   3.672  0.1814 -0.1292 -0.8336
  890TIP3    H224086   2.139   2.022   3.648 -0.3211  1.1875 -2.9723
  891TIP3   OH224087   4.811   5.860  12.262 -0.7413 -0.2040  0.7222
  891TIP3    H124088   4.750   5.929  12.291  0.6894  0.7294  1.6141
  891TIP3    H224089   4.809   5.795  12.332 -0.3810  0.0502  0.9725
  892TIP3   OH224090   3.989   5.173   1.453 -0.5064  0.5338 -0.2747
  892TIP3    H124091   3.969   5.082   1.429  0.2292  0.2696  0.0993
  892TIP3    H224092   4.078   5.187   1.421 -0.1560  0.7269  0.7675
  893TIP3   OH224093   3.319   4.298  13.921  0.2969 -0.4235  0.1228
  893TIP3    H124094   3.248   4.238  13.897 -0.5992  0.3655  0.6981
  893TIP3    H224095   3.387   4.282  13.857 -0.7402 -0.6373 -0.9588
  894TIP3   OH224096   1.308   2.776   3.444 -0.4225  0.1734 -1.0645
  894TIP3    H124097   1.346   2.690   3.427 -0.1059 -0.2774  1.4942
  894TIP3    H224098   1.215   2.759   3.460 -0.4632  0.3710 -1.0857
  895TIP3   OH224099   1.124   0.275   1.910  0.7339  0.2773  0.8532
  895TIP3    H124100   1.180   0.205   1.875 -0.1148 -0.2080  0.4336
  895TIP3    H224101   1.127   0.344   1.843  0.5300  0.0886  0.6460
  896TIP3   OH224102   6.253   4.505  16.643 -0.1719  0.0365  0.0950
  896TIP3    H124103   6.319   4.501  16.712 -0.9308 -0.2182  0.8183
  896TIP3    H224104   6.239   4.598  16.628 -2.3879  0.2302  2.6491
  897TIP3   OH224105   4.542   0.431   4.382 -0.4277  0.4692 -0.2167
  897TIP3    H124106   4.577   0.342   4.382 -0.8232  0.3143 -0.2122
  897TIP3    H224107   4.449   0.420   4.400 -0.5625  0.8508 -0.6935
  898TIP3   OH224108   1.393   5.538   2.288 -0.4485  0.1769  0.0844
  898TIP3    H124109   1.375   5.572   2.375  0.8389  1.4670 -0.1252
  898TIP3    H224110   1.328   5.579   2.232 -0.1405  0.7715  0.1561
  899TIP3   OH224111   3.243   1.662   2.541  0.4957  0.5191  0.7471
  899TIP3    H124112   3.316   1.701   2.493  1.8852 -1.3258  1.2440
  899TIP3    H224113   3.281   1.635   2.625 -0.8387 -0.2337  1.1367
  900TIP3   OH224114   0.244   5.982  16.467  0.8717  0.3110  0.1073
  900TIP3    H124115   0.298   5.916  16.424 -0.2873 -0.5549 -0.0462
  900TIP3    H224116   0.292   6.003  16.548  1.0801 -0.9971  0.3477
  901TIP3   OH224117   3.999   4.952  16.740 -0.3573  0.2458  0.3031
  901TIP3    H124118   3.927   4.891  16.727  0.3364 -0.2971 -1.2428
  901TIP3    H224119   4.067   4.902  16.785 -0.0739  0.0827 -0.2977
  902TIP3   OH224120   5.963   5.966  12.820 -0.3108  0.4452 -0.2351
  902TIP3    H124121   5.890   6.026  12.836  0.1341  1.6017 -2.1727
  902TIP3    H224122   5.922   5.883  12.797 -0.9408  0.1577  1.7209
  903TIP3   OH224123   3.334   2.089  10.668  0.3148  0.1106  0.2930
  903TIP3    H124124   3.355   2.164  10.613 -0.8918  1.2867  1.3552
  903TIP3    H224125   3.346   2.013  10.611  0.4856  1.1751 -1.1532
  904TIP3   OH224126   2.274   4.668  12.611 -0.6602  0.2119  0.3056
  904TIP3    H124127   2.332   4.743  12.621  1.1691 -1.2217  0.8538
  904TIP3    H224128   2.259   4.662  12.516 -0.8127  1.2139  0.2508
  905TIP3   OH224129   0.198   2.600   1.703  0.1582  0.8462 -0.3983
  905TIP3    H124130   0.118   2.574   1.750 -0.9810  1.3158 -1.9859
  905TIP3    H224131   0.265   2.541   1.737 -0.8654  0.3751  0.9295
  906TIP3   OH224132   4.330   1.518   1.176  0.4106 -0.5570  0.0108
  906TIP3    H124133   4.414   1.502   1.218  0.5586 -0.3085 -0.1942
  906TIP3    H224134   4.348   1.584   1.109 -0.5393  1.9813  2.1155
  907TIP3   OH224135   5.831   0.039   2.764 -0.5792 -0.1483 -0.4700
  907TIP3    H124136   5.773   0.016   2.691  0.6287 -0.4487 -1.3716
  907TIP3    H224137   5.786   0.111   2.809 -0.2663  1.7217 -2.9628
  908TIP3   OH224138   2.506   5.941   2.505 -0.5239 -0.2780  0.2408
  908TIP3    H124139   2.456   6.003   2.453 -2.1858 -1.8847 -0.1947
  908TIP3    H224140   2.510   5.980   2.592 -2.6234 -0.0892  0.3059
  909TIP3   OH224141   3.119   4.744  12.416 -0.0716 -0.2890  0.4148
  909TIP3    H124142   3.121   4.780  12.505 -0.0726 -0.3130  0.4250
  909TIP3    H224143   3.131   4.650  12.429  1.0936 -0.1741  0.3238
  910TIP3   OH224144   1.954   0.092   5.961  0.0711 -0.6718 -0.0900
  910TIP3    H124145   1.881   0.114   5.903 -0.0003 -0.6388  0.0107
  910TIP3    H224146   1.914   0.036   6.028 -0.2753  0.8913  1.0750
  911TIP3   OH224147   4.914   2.214   4.668  0.7999  0.6771  0.3449
  911TIP3    H124148   4.965   2.196   4.747 -1.6323  0.2038  1.9366
  911TIP3    H224149   4.885   2.128   4.638  1.7151  0.8509 -1.1329
  912TIP3   OH224150   2.411   6.677  12.826 -0.1826 -0.0641 -0.2257
  912TIP3    H124151   2.471   6.614  12.786 -0.8476 -0.8678  0.0103
  912TIP3    H224152   2.393   6.641  12.913 -0.9017  0.2271 -0.2444
  913TIP3   OH224153   3.292   4.681   1.734 -0.0823 -0.0148 -0.6997
  913TIP3    H124154   3.335   4.596   1.722  1.4701  0.3772  1.3985
  913TIP3    H224155   3.353   4.745   1.696 -0.0456  0.3373 -0.0658
  914TIP3   OH224156   6.697   4.812  15.182 -0.3248 -0.1507  0.2014
  914TIP3    H124157   6.702   4.847  15.093 -0.1502  0.5087  0.4647
  914TIP3    H224158   6.761   4.863  15.232 -2.1348  1.2183  1.2623
  915TIP3   OH224159   0.374   3.324  11.959 -0.3243 -0.3325 -0.1062
  915TIP3    H124160   0.292   3.305  11.915 -0.2261 -0.1869 -0.3587
  915TIP3    H224161   0.366   3.284  12.046 -1.1377  0.6977  0.3108
  916TIP3   OH224162   2.352   5.401  14.881  0.4103 -0.3484  0.2475
  916TIP3    H124163   2.403   5.427  14.805 -0.7384  1.8049  0.1361
  916TIP3    H224164   2.318   5.314  14.860  0.7203 -0.0909 -1.3819
  917TIP3   OH224165   3.492   2.018  12.848  0.1707  0.3307  0.6295
  917TIP3    H124166   3.476   2.111  12.837  2.9549  0.7539 -0.6863
  917TIP3    H224167   3.526   1.989  12.763 -2.0814 -2.2882  0.4823
  918TIP3   OH224168   0.683   3.815   5.304  0.1377 -0.0167 -0.4083
  918TIP3    H124169   0.764   3.864   5.317 -0.1356  0.5263 -0.7047
  918TIP3    H224170   0.637   3.863   5.236 -0.3737 -0.4011 -0.3395
  919TIP3   OH224171   2.943   4.565  12.051  0.4267 -0.3565 -0.4586
  919TIP3    H124172   2.849   4.550  12.052  0.4285 -0.5479 -1.7251
  919TIP3    H224173   2.979   4.498  12.109 -0.1886 -0.4436 -0.1727
  920TIP3   OH224174   3.100   6.673  14.446  0.0153 -0.2994  0.0247
  920TIP3    H124175   3.017   6.639  14.479 -0.0241  0.0587  0.3086
  920TIP3    H224176   3.149   6.596  14.418 -0.8623 -0.4390 -1.2328
  921TIP3   OH224177   6.694   1.490  16.550  0.0517 -0.1251  0.3594
  921TIP3    H124178   6.701   1.406  16.594  0.9799 -0.4766 -0.4137
  921TIP3    H224179   6.685   1.468  16.457  0.0185  0.6228  0.1762
  922TIP3   OH224180   1.467   3.271  17.014  0.3559  0.2275 -0.2037
  922TIP3    H124181   1.405   3.314  17.073  0.5685  0.4472 -0.1419
  922TIP3    H224182   1.412   3.214  16.959  0.1082  0.3687 -0.1034
  923TIP3   OH224183   2.466   0.604   6.339 -0.2730  0.2650  0.1256
  923TIP3    H124184   2.525   0.660   6.388  1.4351  0.3067 -1.8573
  923TIP3    H224185   2.424   0.662   6.276  1.6624 -0.5956 -2.0807
  924TIP3   OH224186   3.323   5.567   4.730 -0.2674 -0.3104 -0.0583
  924TIP3    H124187   3.396   5.627   4.742  0.6409 -1.4429  0.2845
  924TIP3    H224188   3.364   5.483   4.709 -1.4132 -1.2300  1.1901
  925TIP3   OH224189   2.216   0.725  11.648  0.4202  0.0220 -0.0625
  925TIP3    H124190   2.175   0.670  11.581  0.4648 -1.1394  0.8330
  925TIP3    H224191   2.161   0.714  11.725  0.9852  0.4780  0.4106
  926TIP3   OH224192   2.772   1.967  12.769  0.1001  0.2578 -0.0443
  926TIP3    H124193   2.772   2.022  12.847 -0.0079  1.7524 -1.0602
  926TIP3    H224194   2.813   1.885  12.798  0.5087  0.9501  1.4427
  927TIP3   OH224195   5.764   5.959  14.482 -0.0223  0.1860 -0.0854
  927TIP3    H124196   5.803   5.988  14.564 -0.0431  0.2781 -0.1069
  927TIP3    H224197   5.838   5.938  14.426  0.0375  1.5357 -0.5479
  928TIP3   OH224198   0.689   6.572   6.004 -0.3378 -0.4287  0.1039
  928TIP3    H124199   0.670   6.666   6.007  1.3526 -0.0798  1.3559
  928TIP3    H224200   0.603   6.530   6.004 -1.1134  1.1008  0.4872
  929TIP3   OH224201   3.663   4.765   4.488 -0.1196  0.3110  0.2766
  929TIP3    H124202   3.653   4.850   4.445  2.9560  1.8180  2.2037
  929TIP3    H224203   3.734   4.722   4.439 -0.9115 -0.7404  0.0055
  930TIP3   OH224204   5.014   3.684  11.173  0.3011  0.2023  0.1478
  930TIP3    H124205   5.087   3.742  11.155  0.8406 -0.8244 -1.0874
  930TIP3    H224206   5.040   3.599  11.137 -0.9617 -0.5137  0.8190
  931TIP3   OH224207   5.165   1.611  11.282  0.4933  0.4898 -0.3851
  931TIP3    H124208   5.218   1.682  11.320  0.8218  0.1565 -0.2130
  931TIP3    H224209   5.190   1.610  11.189  1.6871 -0.4287 -0.0863
  932TIP3   OH224210   5.475   4.373  12.282  0.2614 -0.3680  0.0007
  932TIP3    H124211   5.412   4.337  12.219  0.5797 -0.9086 -0.0117
  932TIP3    H224212   5.560   4.351  12.246  0.4460 -1.3244  0.9817
  933TIP3   OH224213   1.631   1.523   1.946 -0.1635 -0.3600 -0.4872
  933TIP3    H124214   1.543   1.559   1.936 -0.0862 -0.3306 -1.0941
  933TIP3    H224215   1.617   1.428   1.952 -0.1402 -0.4915 -2.0928
  934TIP3   OH224216   2.902   4.817   0.110  0.0772  0.2516  0.0592
  934TIP3    H124217   2.859   4.733   0.097 -0.6718  0.4218  1.2579
  934TIP3    H224218   2.988   4.807   0.069  0.4992 -1.5510  1.2843
  935TIP3   OH224219   0.631   2.021  12.268  0.1419  0.4298  0.0048
  935TIP3    H124220   0.545   2.003  12.307  0.2766 -0.0117  0.1041
  935TIP3    H224221   0.652   1.941  12.219  0.5970  0.4447  0.1710
  936TIP3   OH224222   5.780   4.618  12.918 -0.0889 -0.0442 -0.0416
  936TIP3    H124223   5.824   4.652  12.995 -3.0314  2.0906  0.8975
  936TIP3    H224224   5.778   4.691  12.857  0.9153 -1.2654 -1.5917
  937TIP3   OH224225   1.736   6.378  14.208 -0.3157  0.1619  0.1619
  937TIP3    H124226   1.792   6.399  14.283 -0.5076  1.3809 -0.0275
  937TIP3    H224227   1.712   6.462  14.171 -1.4720 -0.3766 -0.3723
  938TIP3   OH224228   3.900   5.863   0.231 -0.3403  0.2664 -0.0290
  938TIP3    H124229   3.935   5.869   0.142 -0.6371  0.4987 -0.1357
  938TIP3    H224230   3.944   5.788   0.270  1.8466  1.7498  0.5520
  939TIP3   OH224231   4.160   2.742   1.001 -0.6332  0.0815  0.0532
  939TIP3    H124232   4.152   2.651   0.970 -1.9575 -0.1167  0.9007
  939TIP3    H224233   4.208   2.735   1.084 -3.6768 -0.3189  1.9289
  940TIP3   OH224234   5.459   4.223   5.568  0.0431  0.0980 -0.4489
  940TIP3    H124235   5.435   4.162   5.637 -0.8305  1.5940  0.6247
  940TIP3    H224236   5.444   4.309   5.606 -1.6735  0.9938 -2.8866
  941TIP3   OH224237   6.661   3.122  16.097  0.4478  0.1987 -0.2698
  941TIP3    H124238   6.746   3.107  16.057  1.5186  0.0154  1.8946
  941TIP3    H224239   6.605   3.151  16.025  2.0067 -0.7959 -1.9700
  942TIP3   OH224240   6.246   2.378  11.078 -0.2047 -0.2017  0.3464
  942TIP3    H124241   6.259   2.343  10.990  0.9293 -2.0442  1.1881
  942TIP3    H224242   6.330   2.415  11.102 -0.0682 -1.0194  1.1798
  943TIP3   OH224243   5.970   0.793   2.806 -0.1990  0.1250  0.2769
  943TIP3    H124244   6.015   0.820   2.887 -0.3973  1.4251 -0.0176
  943TIP3    H224245   6.038   0.755   2.752  0.0526 -0.2144  0.8246
  944TIP3   OH224246   4.014   5.008  14.920 -0.2969  0.3255 -1.1532
  944TIP3    H124247   3.935   5.039  14.964 -0.3672  0.0840 -1.1110
  944TIP3    H224248   4.084   5.024  14.983 -0.4695 -0.4922 -0.7512
  945TIP3   OH224249   2.022   3.042  15.797 -0.1734  0.0507 -0.0452
  945TIP3    H124250   2.098   3.076  15.844 -1.1237  0.6863  1.1056
  945TIP3    H224251   1.961   3.116  15.796 -1.1127 -0.7101 -0.1603
  946TIP3   OH224252   3.235   1.520   1.451  0.5314  0.1252  0.7290
  946TIP3    H124253   3.287   1.514   1.371 -0.4337 -0.8529  0.1326
  946TIP3    H224254   3.253   1.438   1.497  0.2990  0.2301  1.0058
  947TIP3   OH224255   3.037   4.740   1.054  0.2023  0.4661 -0.2070
  947TIP3    H124256   3.109   4.783   1.009  1.2434 -0.6276  0.3749
  947TIP3    H224257   3.043   4.770   1.145  1.8823 -1.9703  0.5710
  948TIP3   OH224258   6.147   2.090  13.820 -0.2992  0.1130  0.1168
  948TIP3    H124259   6.185   2.146  13.751  0.2518  0.0757  0.3841
  948TIP3    H224260   6.068   2.054  13.780 -1.3923  2.0973  0.3630
  949TIP3   OH224261   3.401   1.419   1.010 -0.1429  0.7173  0.3738
  949TIP3    H124262   3.427   1.327   1.001 -2.8005 -0.1866  1.1220
  949TIP3    H224263   3.362   1.441   0.926 -0.9263  0.6437  0.7103
  950TIP3   OH224264   1.000   6.570  15.768 -0.1525  0.0719  0.5239
  950TIP3    H124265   1.067   6.537  15.829  0.5292  1.2486  0.4269
  950TIP3    H224266   0.955   6.491  15.738 -0.2803 -0.5660  2.2903
  951TIP3   OH224267   3.779   3.223   4.146 -0.9304 -0.1197  0.1767
  951TIP3    H124268   3.722   3.153   4.176 -1.3478  0.1544  0.0486
  951TIP3    H224269   3.865   3.182   4.134 -1.7308 -1.2742 -2.4452
  952TIP3   OH224270   2.898   2.678   6.035 -0.2243 -0.0426 -0.2231
  952TIP3    H124271   2.953   2.736   6.087  0.1672 -0.8650  0.3099
  952TIP3    H224272   2.835   2.641   6.097 -1.1272  0.5601 -0.7449
  953TIP3   OH224273   2.963   2.870   2.590  0.1821  0.4555  0.2767
  953TIP3    H124274   2.963   2.963   2.570  1.4389  0.5269  0.5746
  953TIP3    H224275   2.985   2.827   2.508  1.4757  0.5338  0.5729
  954TIP3   OH224276   4.968   4.897  16.255  0.3423 -0.5890  0.3994
  954TIP3    H124277   5.019   4.948  16.192  1.0535 -0.9161  0.6956
  954TIP3    H224278   4.881   4.889  16.215  0.2193  0.8112  0.3300
  955TIP3   OH224279   0.691   3.794   1.591 -0.0542 -0.2182 -0.3389
  955TIP3    H124280   0.732   3.879   1.604  1.1530 -0.7686 -0.3996
  955TIP3    H224281   0.617   3.793   1.652  1.6131 -0.2276  1.8125
  956TIP3   OH224282   3.633   1.299   1.648 -0.0880  0.4226  0.2855
  956TIP3    H124283   3.714   1.282   1.601 -0.4744  1.6973 -0.8990
  956TIP3    H224284   3.661   1.335   1.732  0.5838 -0.9786  0.6930
  957TIP3   OH224285   3.572   6.485  14.977 -0.4618  0.6368 -0.2001
  957TIP3    H124286   3.491   6.437  14.994  0.0314 -1.0788 -2.2556
  957TIP3    H224287   3.622   6.428  14.917  1.4986  2.4120 -0.3826
  958TIP3   OH224288   6.489   4.176   3.927 -0.3994  0.0459  0.1925
  958TIP3    H124289   6.583   4.163   3.916 -0.2623  0.2390  1.0828
  958TIP3    H224290   6.455   4.184   3.838  0.8260  2.8823 -0.1279
  959TIP3   OH224291   3.664   6.387   1.419  0.2305  0.2143 -0.1986
  959TIP3    H124292   3.715   6.404   1.499 -0.7988  1.2705  0.2722
  959TIP3    H224293   3.634   6.474   1.392 -0.4225 -0.2753 -1.0652
  960TIP3   OH224294   4.638   1.766   5.489  0.0693 -0.1828 -0.6788
  960TIP3    H124295   4.723   1.755   5.446  1.0954  1.8196  0.6968
  960TIP3    H224296   4.619   1.859   5.482 -0.7836 -0.1658  1.2245
  961TIP3   OH224297   4.121   1.473   2.252 -0.5517  0.0666  0.1710
  961TIP3    H124298   4.061   1.418   2.301  0.7524 -2.1314 -0.5791
  961TIP3    H224299   4.167   1.413   2.193  0.8629  1.9750 -0.7912
  962TIP3   OH224300   4.407   0.576  10.429 -0.0395 -0.5449  0.5369
  962TIP3    H124301   4.354   0.654  10.444 -1.0672 -1.1976  0.4378
  962TIP3    H224302   4.434   0.581  10.338 -0.0210 -0.2589  0.5588
  963TIP3   OH224303   4.352   0.672  16.129 -0.3693 -0.2657  0.4938
  963TIP3    H124304   4.314   0.718  16.204 -1.0343  2.2523 -1.2837
  963TIP3    H224305   4.287   0.604  16.108 -0.0856 -1.1345  2.2395
  964TIP3   OH224306   3.439   5.334  12.672  0.2080  0.2518 -0.0779
  964TIP3    H124307   3.383   5.281  12.730  0.2616 -1.5568 -1.5843
  964TIP3    H224308   3.517   5.280  12.659  0.8489  1.2959 -0.6592
  965TIP3   OH224309   4.672   4.274   0.179  0.3127  0.0168 -0.3007
  965TIP3    H124310   4.696   4.187   0.211 -1.6845 -0.6654 -0.5217
  965TIP3    H224311   4.749   4.303   0.130  1.8568 -0.6720  1.5641
  966TIP3   OH224312   0.513   1.949  16.484  0.3742  0.5743  0.0914
  966TIP3    H124313   0.555   1.869  16.516  0.6354  1.1368  1.2016
  966TIP3    H224314   0.582   2.015  16.488  0.0714  0.9347 -0.5167
  967TIP3   OH224315   5.318   4.237   3.093  0.4130 -0.1550  0.5924
  967TIP3    H124316   5.285   4.179   3.161 -1.8733  0.0788 -0.2424
  967TIP3    H224317   5.286   4.200   3.011  1.2155  0.7984 -0.1920
  968TIP3   OH224318   1.309   3.364   2.606  0.2408 -0.1200  0.0215
  968TIP3    H124319   1.271   3.439   2.651 -0.3852 -1.2068  1.3619
  968TIP3    H224320   1.265   3.288   2.644  2.8578 -1.3826  0.7924
  969TIP3   OH224321   5.934   4.942   4.390 -0.1732  0.3650 -0.1406
  969TIP3    H124322   6.020   4.936   4.433  0.2756 -1.5349 -1.2089
  969TIP3    H224323   5.941   5.020   4.335  1.2657 -0.2545 -0.9226
  970TIP3   OH224324   1.875   0.588   1.298 -0.3531  0.1379 -0.2344
  970TIP3    H124325   1.854   0.573   1.206  1.1272  0.2698 -0.6178
  970TIP3    H224326   1.809   0.651   1.328 -0.0989  1.0842 -1.5600
  971TIP3   OH224327   4.381   2.850   3.237 -0.1492  0.1733 -0.2109
  971TIP3    H124328   4.381   2.757   3.256 -1.1867  0.1283 -0.4061
  971TIP3    H224329   4.289   2.875   3.235  0.1134  1.1972 -0.1927
  972TIP3   OH224330   0.144   6.663  10.995 -0.0597  0.2384 -0.4282
  972TIP3    H124331   0.179   6.578  10.968 -1.0844 -0.0370 -0.9336
  972TIP3    H224332   0.087   6.642  11.070 -1.9848  0.1427 -1.8377
  973TIP3   OH224333   5.351   0.033  12.715  0.1060 -0.1292 -0.2934
  973TIP3    H124334   5.375  -0.000  12.628  0.0099 -0.8391 -0.0572
  973TIP3    H224335   5.272   0.086  12.699 -1.4451 -2.2953 -0.3414
  974TIP3   OH224336   3.847   2.994  15.762 -0.8264 -0.4849 -0.5955
  974TIP3    H124337   3.935   3.010  15.794 -1.7907  2.5614  1.0000
  974TIP3    H224338   3.816   2.919  15.811  0.2097 -0.3410  0.3197
  975TIP3   OH224339   3.905   2.788   4.210 -0.0461 -0.3946  0.1490
  975TIP3    H124340   3.938   2.873   4.238  1.0772 -0.3007 -1.2868
  975TIP3    H224341   3.865   2.805   4.124 -0.2000 -1.2316  0.0444
  976TIP3   OH224342   0.205   0.108   6.030  0.1183  0.3217  0.5009
  976TIP3    H124343   0.145   0.181   6.015 -0.3154  0.6718  3.3067
  976TIP3    H224344   0.182   0.043   5.964 -1.8096  1.3825  0.0550
  977TIP3   OH224345   3.589   1.640  12.222  0.1345  0.0878  0.3449
  977TIP3    H124346   3.673   1.649  12.267  0.1064  1.4888  0.1666
  977TIP3    H224347   3.523   1.650  12.291  0.1037  0.8638  0.2076
  978TIP3   OH224348   2.411   1.595  12.666 -0.3895  0.0679  0.3272
  978TIP3    H124349   2.429   1.583  12.573 -0.4460 -1.0207  0.4502
  978TIP3    H224350   2.480   1.546  12.710 -1.2467 -0.6924  0.8468
  979TIP3   OH224351   3.335   0.199   5.638 -0.4739 -0.8414 -0.4876
  979TIP3    H124352   3.426   0.220   5.656 -1.3176  1.8708  1.1315
  979TIP3    H224353   3.305   0.152   5.715 -0.8075 -0.4483 -0.3743
  980TIP3   OH224354   5.038   3.824  16.783  0.4083 -0.3916 -0.0926
  980TIP3    H124355   5.006   3.734  16.790  2.0841 -0.9864  0.6906
  980TIP3    H224356   5.117   3.817  16.729  2.2985  0.0589  2.4257
  981TIP3   OH224357   2.659   1.173  15.304  0.6332 -0.2965 -0.1020
  981TIP3    H124358   2.598   1.195  15.375  1.3970  1.8231 -0.0376
  981TIP3    H224359   2.706   1.254  15.287  1.4651 -1.1382 -2.0925
  982TIP3   OH224360   3.486   5.621  12.899 -0.2757  0.8195  0.4144
  982TIP3    H124361   3.578   5.609  12.877 -0.6814 -0.0715 -0.9178
  982TIP3    H224362   3.450   5.533  12.906 -1.0475  1.1526  0.8422
  983TIP3   OH224363   2.070   6.135  12.541 -0.1281 -0.1205  0.2144
  983TIP3    H124364   2.016   6.134  12.462 -1.0840  0.6205  0.8308
  983TIP3    H224365   2.143   6.077  12.521 -0.4931 -0.1590 -1.1091
  984TIP3   OH224366   4.285   6.319  13.041  0.0764  0.1233  0.6789
  984TIP3    H124367   4.241   6.372  13.108 -0.2001  0.5655  0.1516
  984TIP3    H224368   4.269   6.229  13.068 -1.2289  0.2619  0.4762
  985TIP3   OH224369   0.013   1.570   6.402 -0.5347  0.2301  0.1758
  985TIP3    H124370  -0.003   1.482   6.369 -2.5703 -0.4558  2.6868
  985TIP3    H224371   0.092   1.563   6.454 -1.0707 -0.3136  0.9354
  986TIP3   OH224372   0.988   5.351  11.185  0.0438 -0.4529  0.4030
  986TIP3    H124373   0.984   5.365  11.280 -2.2166 -2.4551  0.7235
  986TIP3    H224374   0.913   5.401  11.151 -0.1227 -1.0373 -0.0984
  987TIP3   OH224375   0.202   2.639  16.313 -0.3749  0.1259  0.8196
  987TIP3    H124376   0.235   2.680  16.392  0.8571 -1.0297  0.9449
  987TIP3    H224377   0.240   2.551  16.314  0.5928  0.4303 -1.5849
  988TIP3   OH224378   0.980   4.114  13.140  0.2630 -1.2850  0.5032
  988TIP3    H124379   0.913   4.080  13.080 -0.3247 -0.7552  0.8526
  988TIP3    H224380   0.935   4.120  13.224 -0.0147  1.4066  0.2513
  989TIP3   OH224381   4.967   2.381   0.546 -0.1742 -0.1490 -0.5964
  989TIP3    H124382   4.888   2.411   0.592 -0.1870  0.9653 -1.3030
  989TIP3    H224383   5.033   2.447   0.568  0.0579 -0.0789 -1.4667
  990TIP3   OH224384   2.295   5.581  14.159  0.8448  0.7447 -0.0228
  990TIP3    H124385   2.252   5.644  14.217 -0.4529  0.8546 -1.0746
  990TIP3    H224386   2.385   5.615  14.151  0.7578  1.2887  1.0883
  991TIP3   OH224387   4.976   2.055  16.354  0.4427 -0.0449  0.1078
  991TIP3    H124388   4.893   2.007  16.351  0.3315  0.1171  0.5582
  991TIP3    H224389   5.040   1.988  16.378  0.2464  0.0840  0.9938
  992TIP3   OH224390   1.544   5.480  13.162 -0.0731 -0.2349 -0.2410
  992TIP3    H124391   1.592   5.425  13.224 -1.8873 -2.8922 -0.9833
  992TIP3    H224392   1.575   5.452  13.076  0.5529  1.5564 -0.6297
  993TIP3   OH224393   4.065   4.169  16.160  0.1899  0.3826  0.5295
  993TIP3    H124394   4.036   4.224  16.086 -0.9031 -0.4477  0.3009
  993TIP3    H224395   3.993   4.108  16.172  1.0600 -0.5128  1.2698
  994TIP3   OH224396   0.784   4.405   4.262  0.0729 -0.6788  0.3306
  994TIP3    H124397   0.732   4.485   4.269  0.7269 -0.2867  0.8759
  994TIP3    H224398   0.846   4.424   4.191  0.9769 -0.2481  1.2082
  995TIP3   OH224399   4.971   2.662  10.870  0.0878  0.0595  0.1606
  995TIP3    H124400   4.898   2.707  10.826  1.5799  2.0805 -0.4269
  995TIP3    H224401   4.989   2.585  10.816 -0.4789  0.5156 -0.6871
  996TIP3   OH224402   5.058   1.437  13.733 -0.2853  0.4747 -0.2857
  996TIP3    H124403   5.104   1.354  13.721 -0.5306  0.0539  1.4067
  996TIP3    H224404   5.050   1.446  13.828 -1.7892  1.5927 -0.4838
  997TIP3   OH224405   5.516   4.442  14.742 -0.6043 -0.2980 -0.9722
  997TIP3    H124406   5.429   4.410  14.717 -0.3461 -0.6162 -1.4869
  997TIP3    H224407   5.573   4.365  14.732 -0.5328 -0.5390  0.9040
  998TIP3   OH224408   2.676   0.052   3.193  0.0034  0.3257  0.1102
  998TIP3    H124409   2.632   0.133   3.165 -2.5310 -1.2323 -0.7797
  998TIP3    H224410   2.620   0.018   3.264  0.3780 -1.1832 -0.2834
  999TIP3   OH224411   2.875   0.345   0.841  0.0855 -0.4884 -0.6194
  999TIP3    H124412   2.935   0.289   0.792  0.7143 -0.2557 -0.1348
  999TIP3    H224413   2.789   0.309   0.823  0.5918 -3.0256  1.3818
 1000TIP3   OH224414   6.636   0.799  16.998  0.8793  0.8568  1.0626
 1000TIP3    H124415   6.604   0.874  17.048  1.0851  1.1906  0.7043
 1000TIP3    H224416   6.560   0.771  16.947  0.9504  1.1802  0.7732
 1001TIP3   OH224417   0.284   0.855   5.443  0.0884  0.1350 -0.1375
 1001TIP3    H124418   0.317   0.943   5.426 -1.0085  0.7108  0.5488
 1001TIP3    H224419   0.239   0.862   5.528 -0.0015 -1.0891 -0.0594
 1002TIP3   OH224420   4.185   4.418  16.320 -0.1026 -0.5261 -0.1608
 1002TIP3    H124421   4.262   4.364  16.338 -0.7338 -1.4994 -0.2938
 1002TIP3    H224422   4.111   4.364  16.349 -0.7270  0.4796  0.1686
 1003TIP3   OH224423   6.709   2.493  13.402  0.4292  0.5143  0.3396
 1003TIP3    H124424   6.677   2.405  13.383  0.1220  0.8283 -0.6614
 1003TIP3    H224425   6.651   2.551  13.353  0.6110  1.2836  1.0077
 1004TIP3   OH224426   3.385   1.996   5.726  0.0048 -0.1908  0.1925
 1004TIP3    H124427   3.449   1.928   5.744  0.3500 -0.1821 -0.8867
 1004TIP3    H224428   3.431   2.078   5.745 -0.3727 -0.2407  1.3797
 1005TIP3   OH224429   5.627   3.220  13.244  0.1039 -0.5674 -0.1688
 1005TIP3    H124430   5.595   3.263  13.164 -2.9107 -1.2000  0.5415
 1005TIP3    H224431   5.583   3.135  13.244  2.2656 -1.7525  0.8004
 1006TIP3   OH224432   0.668   6.667   5.678 -0.3195  0.1810 -0.1625
 1006TIP3    H124433   0.658   6.653   5.584 -2.5653 -2.4403  0.3443
 1006TIP3    H224434   0.579   6.662   5.713  0.3141  2.2448  2.0438
 1007TIP3   OH224435   3.774   6.463  15.199 -0.4862 -0.3015  0.0440
 1007TIP3    H124436   3.756   6.531  15.135  0.9393  0.3080  0.2613
 1007TIP3    H224437   3.860   6.428  15.173 -0.1503 -0.4303  1.2721
 1008TIP3   OH224438   1.984   6.242   4.327 -0.0352  0.1341 -0.8777
 1008TIP3    H124439   1.914   6.199   4.375 -0.1089 -2.0944 -2.8040
 1008TIP3    H224440   1.940   6.301   4.267 -0.1746 -0.1780 -1.0818
 1009TIP3   OH224441   4.888   6.067  11.813  0.2893  0.5185 -0.1150
 1009TIP3    H124442   4.955   6.014  11.856  0.9547 -0.5703 -2.3503
 1009TIP3    H224443   4.820   6.004  11.787 -0.7395  1.3421  0.4877
 1010TIP3   OH224444   4.269   1.699   2.278 -0.2363 -0.0441  0.4164
 1010TIP3    H124445   4.214   1.625   2.250 -0.1264 -0.3850  1.0806
 1010TIP3    H224446   4.292   1.744   2.197  0.6672 -1.4196 -0.1198
 1011TIP3   OH224447   6.503   6.575  16.598  0.1800  0.1008 -0.4104
 1011TIP3    H124448   6.596   6.597  16.593  0.0912  0.3153 -1.3192
 1011TIP3    H224449   6.462   6.629  16.530 -0.2261 -1.7987 -1.7705
 1012TIP3   OH224450   6.709   1.829   6.435 -0.2821 -0.6496  0.3656
 1012TIP3    H124451   6.758   1.748   6.419 -1.9312 -1.3829 -1.4925
 1012TIP3    H224452   6.699   1.868   6.348 -0.4272  1.0156  1.0998
 1013TIP3   OH224453   0.229   3.792  12.027  0.1667 -0.3215 -0.0413
 1013TIP3    H124454   0.246   3.711  12.074 -1.6396 -0.0781  1.1090
 1013TIP3    H224455   0.155   3.771  11.969  1.6615 -0.3199 -2.0771
 1014TIP3   OH224456   5.348   4.476   1.418 -0.2761  0.2522 -0.3166
 1014TIP3    H124457   5.359   4.527   1.338 -0.1541  0.1114 -0.3917
 1014TIP3    H224458   5.416   4.508   1.477  1.3063 -1.3595 -1.1651
 1015TIP3   OH224459   4.017   6.689   4.373  0.5983  0.1539 -0.0536
 1015TIP3    H124460   3.974   6.710   4.456  1.1020  0.5131  0.1279
 1015TIP3    H224461   4.069   6.611   4.392  0.5416  0.1070 -0.0910
 1016TIP3   OH224462   5.917   4.925  15.229  0.0315  0.4174  0.2348
 1016TIP3    H124463   5.921   5.009  15.275 -2.0314 -0.6059  2.5139
 1016TIP3    H224464   5.936   4.860  15.296 -1.8912 -1.0951 -0.5858
 1017TIP3   OH224465   3.690   1.288   2.665  0.6098  0.5057  0.0140
 1017TIP3    H124466   3.762   1.347   2.640  0.6727  0.0722 -0.8699
 1017TIP3    H224467   3.705   1.271   2.758  2.9009 -1.2444 -0.5831
 1018TIP3   OH224468   0.309   2.546  15.867 -0.4765  0.5313 -1.0155
 1018TIP3    H124469   0.397   2.578  15.848 -0.7390  0.9059 -1.6119
 1018TIP3    H224470   0.257   2.625  15.882 -1.0200  0.3889 -2.0449
 1019TIP3   OH224471   2.549   6.804  14.613 -0.3257  0.5473 -0.0397
 1019TIP3    H124472   2.463   6.833  14.581 -0.0064  0.2939 -1.1719
 1019TIP3    H224473   2.528   6.742  14.683 -1.0504  1.1255  0.2789
 1020TIP3   OH224474   4.820   1.759  15.293 -0.2927 -0.1610  0.2900
 1020TIP3    H124475   4.793   1.677  15.252 -2.2872  0.8660 -0.6193
 1020TIP3    H224476   4.895   1.789  15.242  0.8284 -1.6453  0.9898
 1021TIP3   OH224477   3.341   6.553  12.738  0.1653  0.3584 -0.1195
 1021TIP3    H124478   3.351   6.644  12.712 -0.5110  0.4911  0.0561
 1021TIP3    H224479   3.416   6.508  12.699  1.3615  1.2450  1.1190
 1022TIP3   OH224480   5.176   4.022   0.768  0.0189 -0.6402 -0.6754
 1022TIP3    H124481   5.150   4.098   0.819 -0.2035  0.3218 -2.1634
 1022TIP3    H224482   5.152   3.947   0.823  0.3447  0.3451  0.8650
 1023TIP3   OH224483   4.833   3.051  11.929 -0.0534 -0.2722  0.1350
 1023TIP3    H124484   4.875   3.059  12.014 -0.5349 -0.8568  0.4345
 1023TIP3    H224485   4.905   3.036  11.868  0.3983  1.1918  0.2677
 1024TIP3   OH224486   3.085   4.911   2.845  0.2795 -0.3905  0.5550
 1024TIP3    H124487   3.167   4.956   2.862 -0.8134  2.4449 -0.9529
 1024TIP3    H224488   3.049   4.893   2.932  1.4025  0.4561  1.2255
 1025TIP3   OH224489   4.327   1.622  16.231  0.4996  0.0240 -0.3887
 1025TIP3    H124490   4.387   1.560  16.271  1.1013  1.8296  1.7060
 1025TIP3    H224491   4.278   1.659  16.304 -1.3271  0.5007 -1.7861
 1026TIP3   OH224492   6.580   2.387  14.544 -0.5785 -0.0085  0.3464
 1026TIP3    H124493   6.606   2.384  14.451 -0.2965  0.2187  0.4146
 1026TIP3    H224494   6.539   2.473  14.554 -1.1421 -0.2667  0.3005
 1027TIP3   OH224495   4.290   4.510  13.690 -0.0506  0.4462  0.1989
 1027TIP3    H124496   4.310   4.552  13.606  1.2855 -0.2985  0.1165
 1027TIP3    H224497   4.249   4.427  13.665 -0.6676  0.6987  0.3291
 1028TIP3   OH224498   1.676   5.511   4.284 -0.0094 -0.2670 -0.5144
 1028TIP3    H124499   1.768   5.503   4.260  0.4399  1.8116  0.3303
 1028TIP3    H224500   1.663   5.445   4.353  0.1770 -2.2044 -2.2320
 1029TIP3   OH224501   2.923   2.056   3.796  0.7109 -0.4479 -0.2500
 1029TIP3    H124502   2.973   2.023   3.721 -0.2681  0.2342 -1.2413
 1029TIP3    H224503   2.834   2.024   3.780 -0.0966  1.9167 -0.8121
 1030TIP3   OH224504   5.374   4.626  14.081 -0.3300 -0.1707 -0.7939
 1030TIP3    H124505   5.434   4.689  14.042 -1.5671  0.8535 -1.1141
 1030TIP3    H224506   5.430   4.566  14.130  1.0011  0.3034 -1.6868
 1031TIP3   OH224507   2.708   6.151   2.422 -0.1028 -0.7330 -0.1078
 1031TIP3    H124508   2.617   6.138   2.395 -0.3360 -0.5145  0.5470
 1031TIP3    H224509   2.716   6.104   2.505  0.4468 -0.9444 -0.2749
 1032TIP3   OH224510   2.906   1.897  16.042 -0.0797 -0.1092  0.0262
 1032TIP3    H124511   2.919   1.989  16.068  2.6421  0.0140 -1.4093
 1032TIP3    H224512   2.994   1.864  16.029 -1.0781 -1.8225 -3.2424
 1033TIP3   OH224513   1.136   1.492   3.055  0.0585 -0.4942 -0.2788
 1033TIP3    H124514   1.232   1.484   3.054  0.0023 -2.4926  2.1374
 1033TIP3    H224515   1.120   1.571   3.107  0.3154  0.6670 -1.8484
 1034TIP3   OH224516   2.787   4.128   0.587 -0.1738  0.2906 -0.4593
 1034TIP3    H124517   2.716   4.064   0.586  0.2656 -0.2024 -0.2255
 1034TIP3    H224518   2.829   4.117   0.673  0.8176 -0.1179 -0.9810
 1035TIP3   OH224519   5.812   0.097   0.544 -0.2527 -0.0765 -0.1009
 1035TIP3    H124520   5.786   0.037   0.473 -0.5028 -0.7828  0.5693
 1035TIP3    H224521   5.793   0.184   0.510 -1.3762 -0.4607 -0.5065
 1036TIP3   OH224522   4.106   2.654   1.953 -0.1247  0.5490 -0.5140
 1036TIP3    H124523   4.072   2.643   2.042  0.6374 -2.7328 -0.5138
 1036TIP3    H224524   4.197   2.681   1.964 -0.7046  2.6563 -0.4221
 1037TIP3   OH224525   3.123   5.913  10.647 -0.9489  0.2938 -0.2862
 1037TIP3    H124526   3.074   5.910  10.565  0.4566  0.5262 -1.1768
 1037TIP3    H224527   3.103   5.999  10.684 -1.8179  0.0728 -0.2155
 1038TIP3   OH224528   4.998   4.898   0.927  0.0646 -0.5686 -0.6305
 1038TIP3    H124529   4.921   4.948   0.953  0.2846 -0.4021 -0.2796
 1038TIP3    H224530   5.058   4.963   0.892  0.0308 -0.7038 -0.9445
 1039TIP3   OH224531   0.306   3.029   2.788  0.4949 -0.2079  0.6706
 1039TIP3    H124532   0.373   3.025   2.719 -0.3592  0.6074 -0.2322
 1039TIP3    H224533   0.254   3.106   2.767 -0.6115 -0.7056  1.4733
 1040TIP3   OH224534   1.787   3.971   5.611 -0.2738  0.3896  0.1490
 1040TIP3    H124535   1.751   3.889   5.575 -3.3404  1.2524  0.8887
 1040TIP3    H224536   1.881   3.965   5.595 -0.4725 -2.8644 -0.6302
 1041TIP3   OH224537   0.631   6.611  15.551  0.0348  0.1697 -0.0875
 1041TIP3    H124538   0.613   6.602  15.644  0.9584 -0.6811  0.0304
 1041TIP3    H224539   0.714   6.565  15.538  1.1400  2.2541 -0.9239
 1042TIP3   OH224540   5.919   4.685  17.036  0.5886 -0.1797 -0.1495
 1042TIP3    H124541   5.979   4.759  17.042  1.8017 -1.2169  1.2019
 1042TIP3    H224542   5.960   4.616  17.088 -0.8014 -1.6108 -0.8527
 1043TIP3   OH224543   6.456   4.949   2.446  0.3293 -0.1708  0.3058
 1043TIP3    H124544   6.424   5.018   2.503  3.7276  1.0446  0.9939
 1043TIP3    H224545   6.436   4.868   2.493 -2.0119  0.3933  0.3929
 1044TIP3   OH224546   3.755   3.211  14.212  0.2624 -0.5749  0.6727
 1044TIP3    H124547   3.849   3.212  14.194  0.0893  0.2831 -0.2829
 1044TIP3    H224548   3.736   3.119  14.233  1.5283 -0.5240  2.2282
 1045TIP3   OH224549   4.240   2.509  11.500 -0.2638 -0.0733 -0.6240
 1045TIP3    H124550   4.183   2.567  11.450 -0.3704  0.9659  0.6434
 1045TIP3    H224551   4.207   2.421  11.482 -1.6429  0.4332 -0.6999
 1046TIP3   OH224552   0.255   3.716   6.137 -0.4490 -0.2161  0.5017
 1046TIP3    H124553   0.223   3.796   6.095 -0.0397 -0.6333 -0.6486
 1046TIP3    H224554   0.175   3.669   6.163 -0.7046  1.3633  2.8567
 1047TIP3   OH224555   0.040   5.557   0.226 -0.3926 -0.2344 -1.1536
 1047TIP3    H124556   0.011   5.496   0.158  0.4852 -1.1766 -0.7176
 1047TIP3    H224557   0.052   5.502   0.304  0.9823  0.3776 -0.8997
 1048TIP3   OH224558   4.542   1.126   2.432  0.1138  0.4448 -0.1492
 1048TIP3    H124559   4.527   1.059   2.366 -1.0834  1.7210 -1.2190
 1048TIP3    H224560   4.499   1.204   2.398  1.3913  1.7538  1.0982
 1049TIP3   OH224561   1.858   6.448   4.159 -0.1469  0.0781 -0.0017
 1049TIP3    H124562   1.806   6.520   4.195  0.8975  1.6268 -1.4554
 1049TIP3    H224563   1.839   6.449   4.065 -0.8518 -2.2296  0.0437
 1050TIP3   OH224564   2.566   3.951  16.204 -0.5573 -0.0665  0.4610
 1050TIP3    H124565   2.648   3.903  16.201 -0.4701  0.0476 -2.7332
 1050TIP3    H224566   2.505   3.892  16.249  0.7387 -1.0826  0.9404
 1051TIP3   OH224567   6.644   3.400  14.295 -0.1729  0.5253 -0.2884
 1051TIP3    H124568   6.685   3.435  14.375 -1.3494  1.8740 -0.2433
 1051TIP3    H224569   6.714   3.403  14.229  0.8623 -0.7556  0.6968
 1052TIP3   OH224570   1.262   6.198   2.067 -0.0331  0.0978  0.1024
 1052TIP3    H124571   1.270   6.148   1.986 -2.4522 -0.4426  0.1340
 1052TIP3    H224572   1.239   6.286   2.038  1.8124  0.6403  0.1503
 1053TIP3   OH224573   3.511   5.371   0.007 -0.6881 -0.3322  0.6414
 1053TIP3    H124574   3.498   5.394   0.099 -1.8665  0.3068  0.3250
 1053TIP3    H224575   3.526   5.455  -0.037  2.9327 -0.8153  0.6645
 1054TIP3   OH224576   1.065   6.699   1.011  0.2648 -0.0536  0.3097
 1054TIP3    H124577   1.077   6.606   0.994  1.3221 -0.1521  1.4011
 1054TIP3    H224578   0.982   6.722   0.968  0.8550 -1.0794 -1.4742
 1055TIP3   OH224579   6.322   5.268   5.161  0.5325  0.2273  0.1412
 1055TIP3    H124580   6.306   5.351   5.116  0.2119 -0.1733 -0.4999
 1055TIP3    H224581   6.381   5.220   5.104 -0.1507 -0.4277 -0.0327
 1056TIP3   OH224582   5.974   2.279  15.733 -0.2002  0.3049 -0.5990
 1056TIP3    H124583   5.971   2.188  15.704  0.6457 -0.1398  0.6284
 1056TIP3    H224584   6.061   2.309  15.708 -1.0662  1.3489 -2.5468
 1057TIP3   OH224585   2.653   6.248  16.344 -1.1228  0.7439 -0.2134
 1057TIP3    H124586   2.717   6.311  16.377  0.7851 -2.0537  2.0491
 1057TIP3    H224587   2.570   6.273  16.384 -0.1905  1.2739  1.4831
 1058TIP3   OH224588   4.560   3.793  10.712 -0.0585 -0.1010  0.1638
 1058TIP3    H124589   4.467   3.805  10.733 -0.1699  0.1094 -0.4272
 1058TIP3    H224590   4.601   3.877  10.735 -0.0010 -0.2270  0.5133
 1059TIP3   OH224591   4.898   3.106  14.205  0.3273  0.1330 -1.0578
 1059TIP3    H124592   4.868   3.165  14.274 -2.1034 -1.0472 -1.0244
 1059TIP3    H224593   4.954   3.042  14.250 -0.6963 -0.2329 -0.2762
 1060TIP3   OH224594   4.948   4.300   0.310  0.3097 -0.4212 -0.0340
 1060TIP3    H124595   4.935   4.217   0.264  1.1021 -1.5016  1.5891
 1060TIP3    H224596   5.015   4.346   0.259  0.4681 -1.1496 -0.4959
 1061TIP3   OH224597   1.866   4.565  13.615 -0.2187  0.0273 -0.1607
 1061TIP3    H124598   1.959   4.571  13.592 -0.3503 -1.3277 -1.1369
 1061TIP3    H224599   1.824   4.633  13.563  0.2221  0.7995  0.4519
 1062TIP3   OH224600   1.734   2.026   0.577 -0.2924 -0.2336 -0.2359
 1062TIP3    H124601   1.695   2.092   0.520  0.5596  0.1239 -0.4213
 1062TIP3    H224602   1.681   2.029   0.657  0.6378  1.7824  0.3753
 1063TIP3   OH224603   3.450   1.196  11.032 -0.5943 -0.3225  0.3570
 1063TIP3    H124604   3.363   1.189  10.993  0.4279 -0.0813 -2.1203
 1063TIP3    H224605   3.505   1.137  10.980  0.9954  0.4918  1.0370
 1064TIP3   OH224606   4.047   3.194  11.024  0.1387  0.1255 -0.0390
 1064TIP3    H124607   4.027   3.103  11.002 -0.6325  0.5819 -1.3921
 1064TIP3    H224608   4.117   3.219  10.964 -0.4501  0.7410 -0.4969
 1065TIP3   OH224609   1.361   0.658  14.887 -0.3499 -0.0858 -0.2191
 1065TIP3    H124610   1.265   0.663  14.883 -0.6409 -1.1609  2.7676
 1065TIP3    H224611   1.383   0.581  14.834 -0.9313  0.9852 -2.1060
 1066TIP3   OH224612   1.189   1.576  16.208 -0.3712 -0.3423 -0.1662
 1066TIP3    H124613   1.131   1.603  16.136 -1.7390 -2.4527  0.0904
 1066TIP3    H224614   1.155   1.621  16.285  0.4575  1.0912 -0.5946
 1067TIP3   OH224615   4.144   5.729  10.835 -0.1237 -0.2310  0.2562
 1067TIP3    H124616   4.146   5.722  10.930 -4.1817  2.7331  0.8037
 1067TIP3    H224617   4.084   5.659  10.807 -1.7185  1.0688  0.3327
 1068TIP3   OH224618   0.354   6.484   4.756 -0.0293 -0.1315  0.6525
 1068TIP3    H124619   0.306   6.542   4.697  1.3540  1.6914  1.2323
 1068TIP3    H224620   0.438   6.471   4.714  0.3721 -0.1472  1.4382
 1069TIP3   OH224621   4.176   3.222   2.857  0.2932  0.1058  0.1724
 1069TIP3    H124622   4.084   3.222   2.830  0.7678  0.2372 -1.5601
 1069TIP3    H224623   4.206   3.133   2.839  0.8424  0.4272 -0.5779
 1070TIP3   OH224624   3.963   1.891  16.793 -0.0453 -0.2695  0.1202
 1070TIP3    H124625   3.926   1.893  16.882  1.2007 -1.3470  0.7149
 1070TIP3    H224626   3.892   1.859  16.738 -0.8421  0.4147  0.7322
 1071TIP3   OH224627   4.382   4.765  11.182 -0.2491 -0.2642 -0.7304
 1071TIP3    H124628   4.356   4.687  11.132 -2.2316 -0.2993  0.2396
 1071TIP3    H224629   4.385   4.735  11.273  0.8240  0.3801 -0.5378
 1072TIP3   OH224630   1.728   2.770   5.075 -0.3701  0.6342 -0.0885
 1072TIP3    H124631   1.766   2.780   5.162 -2.5457  2.2566  0.7829
 1072TIP3    H224632   1.791   2.812   5.016  0.5213  0.6620  0.8640
 1073TIP3   OH224633   5.826   5.750   4.676  0.6849  0.0522  0.0409
 1073TIP3    H124634   5.873   5.830   4.653  0.5360  0.0114 -0.4051
 1073TIP3    H224635   5.887   5.680   4.652  0.3698 -0.0036 -0.6092
 1074TIP3   OH224636   5.237   1.470   5.202  0.2524  0.8045  0.0061
 1074TIP3    H124637   5.251   1.484   5.109 -0.3861 -0.7908 -0.3518
 1074TIP3    H224638   5.250   1.557   5.241 -2.6118  2.2527 -1.9314
 1075TIP3   OH224639   1.821   4.509  12.349 -0.5996  0.6057 -0.1281
 1075TIP3    H124640   1.754   4.453  12.308  1.5010 -1.7612 -0.5777
 1075TIP3    H224641   1.871   4.449  12.404  1.0435  2.3155  0.3185
 1076TIP3   OH224642   1.362   1.831   0.086  0.3857 -0.7618 -0.2845
 1076TIP3    H124643   1.445   1.877   0.101  0.7222 -1.2821 -0.5394
 1076TIP3    H224644   1.295   1.895   0.112  0.8629 -0.3745  0.0244
 1077TIP3   OH224645   5.470   3.496   2.837 -0.0343  0.5396 -0.1556
 1077TIP3    H124646   5.407   3.482   2.766  0.1129  0.6768 -0.3126
 1077TIP3    H224647   5.429   3.563   2.893 -1.1502 -1.0790  1.0787
 1078TIP3   OH224648   0.014   0.594   2.645 -0.5191 -0.1409 -0.0889
 1078TIP3    H124649   0.105   0.573   2.621 -0.8112 -0.0745 -1.3231
 1078TIP3    H224650  -0.023   0.633   2.566 -1.4871  0.2889  0.5599
 1079TIP3   OH224651   0.754   0.883   2.004 -0.1671  0.5644 -0.5838
 1079TIP3    H124652   0.803   0.952   2.049  1.7552 -2.0323  1.6623
 1079TIP3    H224653   0.793   0.879   1.916  3.4000 -0.8837  0.8701
 1080TIP3   OH224654   0.004   3.427  11.553 -0.2082 -0.4271  0.0428
 1080TIP3    H124655  -0.061   3.446  11.620 -0.1525  2.0285 -0.5123
 1080TIP3    H224656  -0.041   3.444  11.470  1.1770  1.6983 -0.3365
 1081TIP3   OH224657   2.137   3.849  16.518 -0.3809  0.6632 -0.5161
 1081TIP3    H124658   2.152   3.789  16.591 -2.3582  1.1092  0.3115
 1081TIP3    H224659   2.152   3.796  16.440  1.2510  0.0352  0.1851
 1082TIP3   OH224660   4.345   4.617   3.652  0.0849  0.2589 -0.1080
 1082TIP3    H124661   4.355   4.712   3.659  0.5155  0.2631 -0.7130
 1082TIP3    H224662   4.251   4.604   3.635  0.3782  0.7643 -2.5700
 1083TIP3   OH224663   3.425   1.199   1.967 -0.3159 -0.2676  0.4238
 1083TIP3    H124664   3.344   1.249   1.977 -0.8213 -0.9631 -0.0710
 1083TIP3    H224665   3.405   1.135   1.898 -0.0822 -1.9603  1.8752
 1084TIP3   OH224666   1.617   0.476  13.399  0.1616  1.0707  0.1257
 1084TIP3    H124667   1.523   0.480  13.379 -0.2075  0.1311  1.5022
 1084TIP3    H224668   1.625   0.523  13.482  0.5239 -0.6633  1.1174
 1085TIP3   OH224669   6.739   3.102  14.956  0.0161  0.4024 -0.1550
 1085TIP3    H124670   6.774   3.174  14.904  0.1086 -1.6361 -3.2038
 1085TIP3    H224671   6.645   3.118  14.958  0.0673  0.7861 -0.5826
 1086TIP3   OH224672   4.974   3.619  13.923  0.5147  0.4019  0.0831
 1086TIP3    H124673   4.917   3.612  13.846  1.5733 -1.0176 -0.6154
 1086TIP3    H224674   4.939   3.554  13.985  1.1107 -0.1795 -0.1827
 1087TIP3   OH224675   0.467   1.079   5.106 -0.0680  0.0136  0.2440
 1087TIP3    H124676   0.466   1.094   5.011 -2.7545 -0.3412  0.1413
 1087TIP3    H224677   0.484   0.985   5.114  0.5952  0.1221  0.1398
 1088TIP3   OH224678   2.760   1.534   3.190  0.2630  0.5881 -0.2258
 1088TIP3    H124679   2.726   1.505   3.274  0.9041 -0.0515 -0.1724
 1088TIP3    H224680   2.688   1.582   3.149 -0.8388 -1.0495 -0.2869
 1089TIP3   OH224681   6.307   2.329   2.021 -0.0894 -0.2055  0.1452
 1089TIP3    H124682   6.248   2.382   1.967 -0.5051  1.0474  1.7433
 1089TIP3    H224683   6.261   2.246   2.033  0.4340 -0.9011 -2.1428
 1090TIP3   OH224684   6.242   5.937  12.717  0.0756  0.6570 -0.2534
 1090TIP3    H124685   6.223   5.858  12.668  0.5890 -0.1111  0.7423
 1090TIP3    H224686   6.158   5.962  12.757  0.2859 -0.5169  0.9963
 1091TIP3   OH224687   3.302   3.524   3.016 -0.2299  0.2552 -0.0422
 1091TIP3    H124688   3.258   3.606   3.036 -0.6897 -0.5614  2.8240
 1091TIP3    H224689   3.385   3.550   2.975 -0.7845  2.0675 -0.1004
 1092TIP3   OH224690   4.695   6.555  15.495 -0.1161  0.3145  0.1160
 1092TIP3    H124691   4.711   6.591  15.407  0.6165 -1.4314 -0.4998
 1092TIP3    H224692   4.775   6.573  15.543 -1.2584  3.1695  1.1855
 1093TIP3   OH224693   6.602   4.631  13.477  0.3397  0.3009 -0.0981
 1093TIP3    H124694   6.580   4.587  13.395 -0.6367  1.2720 -0.3781
 1093TIP3    H224695   6.625   4.559  13.537 -1.6360 -0.6737 -0.4017
 1094TIP3   OH224696   2.105   0.085   0.314 -0.2115  0.0313 -0.4918
 1094TIP3    H124697   2.084   0.014   0.375  0.6718 -1.7212 -2.1337
 1094TIP3    H224698   2.020   0.116   0.283 -0.6118 -0.3749  0.1758
 1095TIP3   OH224699   4.085   5.606   3.154 -0.1865 -0.0552 -0.0222
 1095TIP3    H124700   4.164   5.581   3.204 -0.7223 -0.3790  0.6790
 1095TIP3    H224701   4.042   5.523   3.135 -0.5799  0.1552 -0.0471
 1096TIP3   OH224702   5.124   5.222   5.518 -0.0438 -0.3420 -0.3605
 1096TIP3    H124703   5.036   5.205   5.552 -0.2575 -1.6844 -1.4716
 1096TIP3    H224704   5.183   5.187   5.584 -0.3521  0.0762  0.1434
 1097TIP3   OH224705   6.782   4.130  16.519  0.1923  0.5367 -0.7053
 1097TIP3    H124706   6.859   4.075  16.534 -0.2501  0.1726  0.3339
 1097TIP3    H224707   6.753   4.107  16.430 -0.6844 -1.8418  0.1124
 1098TIP3   OH224708   6.489   5.965   2.689  0.7609  0.7779  0.2579
 1098TIP3    H124709   6.502   6.006   2.775 -0.8852  0.5304  0.6576
 1098TIP3    H224710   6.546   5.887   2.691  0.8835  0.8807  1.0380
 1099TIP3   OH224711   6.785   4.722   4.771 -0.0169 -0.6439  0.2169
 1099TIP3    H124712   6.876   4.697   4.755  0.9628  0.8576  2.8637
 1099TIP3    H224713   6.780   4.735   4.866 -2.9054 -0.2402  0.1005
 1100TIP3   OH224714   5.297   3.202   3.725  0.1428 -0.0854 -0.0170
 1100TIP3    H124715   5.220   3.145   3.735 -0.0801  0.2197  0.0330
 1100TIP3    H224716   5.370   3.149   3.756 -0.2062  0.0286  1.0619
 1101TIP3   OH224717   6.245   5.433   4.632  0.6596 -0.2812 -0.1383
 1101TIP3    H124718   6.328   5.480   4.619  0.0225  1.6139  1.9146
 1101TIP3    H224719   6.237   5.426   4.728 -0.3755 -2.7007 -0.3313
 1102TIP3   OH224720   3.438   5.602   6.342 -0.5113  0.2938 -0.5047
 1102TIP3    H124721   3.366   5.569   6.396 -0.2604  0.5484  0.0041
 1102TIP3    H224722   3.517   5.578   6.391 -0.3034  1.1339 -0.3999
 1103TIP3   OH224723   1.501   6.263   2.270 -0.5041  0.2964 -0.1175
 1103TIP3    H124724   1.438   6.277   2.200  1.0102  1.7530 -1.2572
 1103TIP3    H224725   1.477   6.328   2.337  0.4575  1.7066 -1.0809
 1104TIP3   OH224726   6.120   0.625   2.630  0.0076  0.3668 -0.4996
 1104TIP3    H124727   6.079   0.542   2.656 -0.0513  0.3890 -0.5217
 1104TIP3    H224728   6.180   0.646   2.702  2.2324 -1.1893 -1.7674
 1105TIP3   OH224729   1.546   4.665   3.833  0.0148 -0.2129  0.7029
 1105TIP3    H124730   1.548   4.610   3.754 -1.1143  0.1800  0.3799
 1105TIP3    H224731   1.636   4.694   3.845  0.5695 -1.7790  0.6356
 1106TIP3   OH224732   0.409   5.098   5.473  0.0025  0.1791 -0.0129
 1106TIP3    H124733   0.503   5.083   5.464  0.1528  1.6970 -1.5915
 1106TIP3    H224734   0.402   5.161   5.544  0.3276  1.0785 -0.7533
 1107TIP3   OH224735   6.398   3.405   2.669 -0.7095  0.1299  0.8344
 1107TIP3    H124736   6.388   3.500   2.675 -0.1404  0.1504  1.7106
 1107TIP3    H224737   6.432   3.389   2.581  0.1701  0.8314  1.0377
 1108TIP3   OH224738   5.409   3.397   5.402  0.2680 -0.0537  0.3449
 1108TIP3    H124739   5.457   3.430   5.325 -1.1392 -0.0220 -0.5654
 1108TIP3    H224740   5.457   3.433   5.477  1.6665 -0.0561 -0.5026
 1109TIP3   OH224741   4.144   4.613  13.181  0.3005 -0.0209  0.0140
 1109TIP3    H124742   4.154   4.696  13.134  2.7954 -0.2076  0.1028
 1109TIP3    H224743   4.064   4.624  13.232 -0.1136  1.8308 -0.9520
 1110TIP3   OH224744   6.062   5.763  13.939 -0.0472 -0.8436 -0.5560
 1110TIP3    H124745   5.987   5.748  13.881 -1.9176 -1.1420  1.7898
 1110TIP3    H224746   6.025   5.756  14.028  2.8857 -1.5778  0.7114
 1111TIP3   OH224747   4.627   2.722   5.914  0.2497  0.1672  0.1745
 1111TIP3    H124748   4.638   2.667   5.991  0.7564  0.6855  0.4757
 1111TIP3    H224749   4.638   2.812   5.946  0.5567  0.3832 -0.5133
 1112TIP3   OH224750   6.756   6.525  15.075  0.8986  0.2561  0.0021
 1112TIP3    H124751   6.692   6.482  15.018 -0.3062  1.0006  0.7439
 1112TIP3    H224752   6.830   6.545  15.017  0.1415  0.0661 -1.0685
 1113TIP3   OH224753   1.332   5.982  16.396  0.0512 -0.0170 -0.2546
 1113TIP3    H124754   1.405   5.990  16.458 -0.4130  0.6257  0.2220
 1113TIP3    H224755   1.339   5.893  16.363  2.0105  0.4891 -1.4152
 1114TIP3   OH224756   3.930   4.382   1.999  0.0202  0.0981 -0.2586
 1114TIP3    H124757   3.836   4.369   1.983  0.1085 -3.2425  1.1520
 1114TIP3    H224758   3.972   4.356   1.918 -0.2078 -1.7113  0.1524
 1115TIP3   OH224759   4.106   2.222   4.861  0.0207  0.2740  0.4100
 1115TIP3    H124760   4.059   2.291   4.812  0.2442  0.7114  0.8062
 1115TIP3    H224761   4.040   2.187   4.921  0.0739  0.5920  0.6613
 1116TIP3   OH224762   0.947   1.033   2.386  0.4759 -0.7475 -0.1572
 1116TIP3    H124763   1.010   1.073   2.446 -0.4934  1.0777 -0.2932
 1116TIP3    H224764   0.929   1.101   2.321 -1.4698 -1.2669 -0.2195
 1117TIP3   OH224765   3.517   3.179  14.884 -0.0055 -0.4632  0.2742
 1117TIP3    H124766   3.557   3.184  14.970 -0.2837  0.2881  0.3654
 1117TIP3    H224767   3.580   3.222  14.826 -0.5284  0.4480  0.3685
 1118TIP3   OH224768   5.421   5.980   4.829  0.0638  0.8388 -0.2168
 1118TIP3    H124769   5.346   5.923   4.849  0.6966  0.7402  2.1507
 1118TIP3    H224770   5.482   5.923   4.783  0.2444 -0.1473  1.1851
 1119TIP3   OH224771   4.297   0.793  11.134 -0.6175  0.0081 -0.5094
 1119TIP3    H124772   4.294   0.721  11.071  0.2438 -0.7291  0.2542
 1119TIP3    H224773   4.385   0.831  11.122  0.1735 -1.1271  1.2567
 1120TIP3   OH224774   2.679   3.712  11.018 -0.1779  0.4898 -0.7779
 1120TIP3    H124775   2.655   3.668  10.937 -1.4194  0.8725 -0.6557
 1120TIP3    H224776   2.599   3.707  11.072  0.9038 -0.6201  0.8271
 1121TIP3   OH224777   2.287   0.945  13.455 -0.4406  0.2032 -0.3336
 1121TIP3    H124778   2.369   0.919  13.412 -0.5726 -0.6433 -0.0842
 1121TIP3    H224779   2.255   1.017  13.401  0.0270 -0.0296 -0.9438
 1122TIP3   OH224780   6.695   5.140   6.081  0.3428 -0.1947 -0.2352
 1122TIP3    H124781   6.678   5.218   6.133  1.7337  0.5100 -0.7805
 1122TIP3    H224782   6.750   5.085   6.137 -0.9765 -1.0014  0.3074
 1123TIP3   OH224783   3.490   3.173   4.942  0.5186 -0.1157  0.2970
 1123TIP3    H124784   3.530   3.132   4.865 -0.9143  1.6982 -1.5208
 1123TIP3    H224785   3.399   3.145   4.940  0.4828 -0.1224  1.4255
 1124TIP3   OH224786   4.466   3.775  15.891 -0.2520 -0.1153  0.9421
 1124TIP3    H124787   4.552   3.816  15.896  0.1884 -0.1231 -3.2762
 1124TIP3    H224788   4.477   3.690  15.935  1.4186  0.5105  1.7951
 1125TIP3   OH224789   5.643   6.428   2.732 -0.3123 -0.0824  0.4188
 1125TIP3    H124790   5.645   6.460   2.641  0.0979 -0.1526  0.4020
 1125TIP3    H224791   5.669   6.336   2.726  0.5557  0.1306  0.6945
 1126TIP3   OH224792   5.448   4.428   5.738  0.0290 -0.3665 -0.1836
 1126TIP3    H124793   5.442   4.516   5.701  2.3995 -0.3209 -0.5908
 1126TIP3    H224794   5.424   4.440   5.830 -0.1182  0.6232 -0.3342
 1127TIP3   OH224795   0.900   1.454  12.366 -0.0292  0.4825  0.8157
 1127TIP3    H124796   0.945   1.488  12.443 -1.2846  0.6853  1.4909
 1127TIP3    H224797   0.927   1.511  12.295  0.6468  0.6907  1.2294
 1128TIP3   OH224798   2.049   3.502  12.886  0.3373  0.0683 -0.6577
 1128TIP3    H124799   2.133   3.546  12.870  1.5177 -2.1230 -0.8516
 1128TIP3    H224800   2.070   3.434  12.950 -0.9702 -1.4708 -1.7855
 1129TIP3   OH224801   0.365   2.174   0.970 -0.2021 -0.8521 -0.1993
 1129TIP3    H124802   0.283   2.133   0.942  0.3396 -2.5779  0.6349
 1129TIP3    H224803   0.340   2.232   1.041 -0.8303 -0.5687 -0.6388
 1130TIP3   OH224804   6.282   4.214   4.554  0.5704 -0.1421 -0.3262
 1130TIP3    H124805   6.296   4.218   4.648  0.8986 -0.0195 -0.3767
 1130TIP3    H224806   6.251   4.301   4.530 -1.5718 -0.7704 -0.0306
 1131TIP3   OH224807   3.817   3.280  13.249 -0.1741 -1.2268  0.1744
 1131TIP3    H124808   3.782   3.255  13.335 -1.0343  0.3128  0.3070
 1131TIP3    H224809   3.741   3.313  13.201  1.0930  4.5951  1.3169
 1132TIP3   OH224810   1.283   5.359   4.229 -0.3985  0.0626  0.2565
 1132TIP3    H124811   1.323   5.300   4.165  2.1897  1.5757  0.3353
 1132TIP3    H224812   1.334   5.347   4.308 -0.9312  1.1594  0.7960
 1133TIP3   OH224813   2.608   5.464  14.181 -0.0015  0.3580  0.6317
 1133TIP3    H124814   2.597   5.375  14.214  2.0030  0.7772  2.6485
 1133TIP3    H224815   2.575   5.460  14.091  0.5369 -2.5467  0.4621
 1134TIP3   OH224816   0.819   2.205   5.759 -0.1362  0.3138 -0.9679
 1134TIP3    H124817   0.828   2.291   5.718 -0.1455  0.1506 -1.3213
 1134TIP3    H224818   0.898   2.196   5.812  0.4988  0.0178 -1.9318
 1135TIP3   OH224819   5.807   2.073   0.523 -0.1597  0.1373 -0.1575
 1135TIP3    H124820   5.886   2.120   0.494  1.3618 -0.5590  2.4938
 1135TIP3    H224821   5.735   2.131   0.499  1.1303  0.9489 -2.4278
 1136TIP3   OH224822   2.288   6.119  13.233 -0.0153 -0.5553  0.5268
 1136TIP3    H124823   2.244   6.166  13.304  1.6340  1.0154  0.5886
 1136TIP3    H224824   2.225   6.053  13.204 -2.2483  1.3550  0.8111
 1137TIP3   OH224825   2.151   1.757   1.267 -0.2387  0.3788  0.0218
 1137TIP3    H124826   2.223   1.697   1.245  0.6417  1.2175  0.5195
 1137TIP3    H224827   2.075   1.722   1.220  0.0517 -1.5527  0.8770
 1138TIP3   OH224828   5.662   6.153   4.082 -0.2084 -0.4104 -0.3992
 1138TIP3    H124829   5.603   6.228   4.094  0.1843 -0.1393 -0.1363
 1138TIP3    H224830   5.681   6.154   3.988 -0.0589 -0.0642 -0.3678
 1139TIP3   OH224831   1.482   3.746  11.852 -0.0822 -0.1509 -0.0298
 1139TIP3    H124832   1.478   3.656  11.884 -1.6069 -0.0535  0.1658
 1139TIP3    H224833   1.400   3.757  11.803  0.0380  1.1497  0.0255
 1140TIP3   OH224834   3.604   2.896  12.806 -0.8863  0.5173  0.3217
 1140TIP3    H124835   3.560   2.907  12.722  0.8278 -0.6869 -0.8181
 1140TIP3    H224836   3.603   2.983  12.845  0.3253  1.7301 -2.0620
 1141TIP3   OH224837   1.966   3.997  14.851  0.1753 -0.5298 -0.1510
 1141TIP3    H124838   1.964   4.009  14.756  0.7294 -1.2323 -0.2694
 1141TIP3    H224839   1.914   4.069  14.886 -1.2608 -1.0787 -1.0582
 1142TIP3   OH224840   2.798   5.526  15.206 -0.0038 -0.3310 -0.0624
 1142TIP3    H124841   2.764   5.496  15.121  0.8690 -1.0570 -0.1803
 1142TIP3    H224842   2.720   5.542  15.259 -0.5813  0.5343 -1.1254
 1143TIP3   OH224843   3.513   1.835   3.362  0.2345 -0.2960  0.2418
 1143TIP3    H124844   3.588   1.780   3.383  0.0876  0.1796  2.2261
 1143TIP3    H224845   3.513   1.903   3.430 -1.8914 -0.1805  0.2007
 1144TIP3   OH224846   2.743   2.948  15.950  0.0065 -0.5726 -0.1130
 1144TIP3    H124847   2.717   3.028  15.995 -0.7950 -0.7338 -0.2695
 1144TIP3    H224848   2.687   2.880  15.989 -0.4098 -0.7849 -1.0443
 1145TIP3   OH224849   5.857   1.610   3.995 -0.5150  0.0334  0.2925
 1145TIP3    H124850   5.821   1.677   4.053 -0.4377  0.9803 -0.7138
 1145TIP3    H224851   5.905   1.551   4.053 -1.7432  0.0474  1.3736
 1146TIP3   OH224852   5.353   5.516   3.654 -0.0087 -0.5210  0.3369
 1146TIP3    H124853   5.404   5.484   3.728 -0.2210 -0.6595  0.4268
 1146TIP3    H224854   5.279   5.456   3.649  1.1600 -1.8901 -1.4030
 1147TIP3   OH224855   0.007   2.447   3.612  0.7657  0.3865 -0.1414
 1147TIP3    H124856   0.015   2.440   3.707  0.6630  0.6604 -0.1129
 1147TIP3    H224857   0.065   2.379   3.579 -1.5287 -1.8361  0.1457
 1148TIP3   OH224858   2.980   2.993   4.915  0.1879 -0.3043  0.2043
 1148TIP3    H124859   3.051   3.030   4.967  0.9929  0.1969 -1.2174
 1148TIP3    H224860   2.904   3.049   4.936  1.2198  1.8607 -1.4125
 1149TIP3   OH224861   3.673   4.802   2.418  0.1182 -0.3953  0.2790
 1149TIP3    H124862   3.714   4.750   2.487  0.2858 -2.1552 -1.0567
 1149TIP3    H224863   3.732   4.790   2.343  1.4064  3.5968  0.4274
 1150TIP3   OH224864   0.104   1.462   2.245  0.0835 -0.7440  0.4774
 1150TIP3    H124865   0.011   1.457   2.222  0.3071 -1.8898 -0.2805
 1150TIP3    H224866   0.104   1.472   2.340 -0.8248 -0.1699  0.4281
 1151TIP3   OH224867   4.364   3.054  10.619  0.0049  0.3703  0.1423
 1151TIP3    H124868   4.345   3.086  10.530 -1.3943  1.8283  0.8971
 1151TIP3    H224869   4.403   3.130  10.663 -0.8319  0.2091  1.2125
 1152TIP3   OH224870   6.460   6.303  12.603  0.3637  0.2179  0.2755
 1152TIP3    H124871   6.372   6.317  12.567  0.5753 -1.0379 -0.7880
 1152TIP3    H224872   6.503   6.388  12.595  0.1785  0.1601 -1.8472
 1153TIP3   OH224873   0.911   5.195  17.005  0.7268 -0.0987  0.0138
 1153TIP3    H124874   0.990   5.248  17.008  1.1168 -0.6001 -0.9606
 1153TIP3    H224875   0.903   5.170  16.913  0.0915 -1.0386  0.3172
 1154TIP3   OH224876   4.892   0.187   4.058 -0.2295  0.0465 -0.2653
 1154TIP3    H124877   4.876   0.107   4.108  0.0001 -0.6726 -1.3211
 1154TIP3    H224878   4.988   0.194   4.055 -0.2357 -0.0057 -0.7236
 1155TIP3   OH224879   4.432   4.589   0.487  0.3410 -0.3283  0.0787
 1155TIP3    H124880   4.498   4.520   0.486  2.3072  1.4315 -1.2207
 1155TIP3    H224881   4.470   4.657   0.543 -0.7842  0.3608  0.0298
 1156TIP3   OH224882   3.633   0.756   3.487  0.2515  0.3684  0.0194
 1156TIP3    H124883   3.641   0.727   3.396  0.1076  0.1328  0.0815
 1156TIP3    H224884   3.613   0.676   3.536  1.9604  0.2046  0.5108
 1157TIP3   OH224885   4.786   1.550  11.743 -0.5076  0.2390  0.6009
 1157TIP3    H124886   4.772   1.472  11.690 -1.1739 -1.3718  3.0174
 1157TIP3    H224887   4.873   1.539  11.781  0.2510  1.7068 -0.5828
 1158TIP3   OH224888   2.092   2.051  16.993 -0.5519  0.0335  0.1664
 1158TIP3    H124889   2.097   1.964  17.032  0.0049  0.7172  1.7010
 1158TIP3    H224890   2.106   2.037  16.899 -0.0349 -1.4632  0.4557
 1159TIP3   OH224891   5.202   0.908   1.188 -0.2884  0.1819  0.0365
 1159TIP3    H124892   5.190   0.976   1.254 -0.4805  0.9691 -0.7968
 1159TIP3    H224893   5.291   0.876   1.203 -0.5404 -0.0833  1.0622
 1160TIP3   OH224894   0.406   1.060   3.671  0.0289 -0.1142 -0.0615
 1160TIP3    H124895   0.344   1.105   3.729 -0.4933  0.7627 -1.2622
 1160TIP3    H224896   0.382   0.968   3.676  1.6042 -0.5027  3.0539
 1161TIP3   OH224897   0.785   6.361   1.159  0.6087 -0.4971 -0.0323
 1161TIP3    H124898   0.792   6.314   1.242 -1.0667  1.8397  1.5628
 1161TIP3    H224899   0.723   6.310   1.107 -0.3497 -0.6589  1.2292
 1162TIP3   OH224900   0.136   4.327   0.856  0.0450 -0.0982 -0.5410
 1162TIP3    H124901   0.075   4.381   0.907 -0.5616 -0.5866 -0.7437
 1162TIP3    H224902   0.149   4.249   0.909  0.0046 -0.2696 -0.7825
 1163TIP3   OH224903   2.602   6.794   0.575  0.3343  0.8520  0.6030
 1163TIP3    H124904   2.515   6.770   0.541  1.0132 -0.1258 -0.5013
 1163TIP3    H224905   2.623   6.726   0.638  0.8819  0.3255 -0.1443
 1164TIP3   OH224906   1.261   1.360   1.104 -0.2193  0.4569 -0.0665
 1164TIP3    H124907   1.262   1.416   1.027  0.1564  0.0990 -0.3312
 1164TIP3    H224908   1.353   1.354   1.131 -0.1888 -0.3790 -0.3119
 1165TIP3   OH224909   5.807   5.699   1.594  0.1510  0.1591 -0.3954
 1165TIP3    H124910   5.744   5.651   1.647  1.9370 -1.4659  0.3843
 1165TIP3    H224911   5.822   5.644   1.518 -1.0158  1.6178 -1.7488
 1166TIP3   OH224912   4.798   0.235   2.808  0.1270  0.6059 -0.0856
 1166TIP3    H124913   4.765   0.177   2.740 -0.5148 -0.8680  1.4202
 1166TIP3    H224914   4.767   0.196   2.890  2.1365  1.4754  1.1523
 1167TIP3   OH224915   6.192   3.020   5.226 -0.0232 -0.6455  0.0203
 1167TIP3    H124916   6.197   2.944   5.283  2.7548  0.1865  1.0590
 1167TIP3    H224917   6.266   3.075   5.253 -1.3573  2.0045 -1.2833
 1168TIP3   OH224918   6.719   1.277  16.733  0.3387 -0.2874  0.5744
 1168TIP3    H124919   6.656   1.205  16.731  0.3355 -0.2954 -1.2888
 1168TIP3    H224920   6.757   1.274  16.820  0.4642 -2.6493  0.4874
 1169TIP3   OH224921   5.235   4.185   4.449  0.0594 -0.0220  0.4744
 1169TIP3    H124922   5.246   4.097   4.414 -0.9847  0.8911 -2.4743
 1169TIP3    H224923   5.165   4.177   4.514 -0.8171 -1.2116 -0.5753
 1170TIP3   OH224924   5.020   0.665   2.714 -0.2938 -0.6235  0.7101
 1170TIP3    H124925   4.926   0.681   2.726 -0.4388 -2.1242  1.8768
 1170TIP3    H224926   5.023   0.582   2.666  0.4502  0.4980 -1.2940
 1171TIP3   OH224927   3.809   2.422   0.472  0.5687  0.0594  0.1476
 1171TIP3    H124928   3.901   2.431   0.445  0.8544 -0.7942  0.7948
 1171TIP3    H224929   3.789   2.503   0.518  0.7762  0.5541 -0.6240
 1172TIP3   OH224930   3.856   6.713   4.665  0.3645  0.1264  0.1766
 1172TIP3    H124931   3.931   6.661   4.692  1.5289  0.1902 -2.5525
 1172TIP3    H224932   3.785   6.650   4.655 -0.0147  0.0641  2.7809
 1173TIP3   OH224933   4.028   0.535   5.864 -0.3722 -0.1849 -0.1125
 1173TIP3    H124934   4.076   0.487   5.933 -1.7115  0.4802  1.3398
 1173TIP3    H224935   4.097   0.573   5.810  0.7334 -2.1966 -0.2339
 1174TIP3   OH224936   1.215   2.715   2.494  0.9341 -0.2002  0.1796
 1174TIP3    H124937   1.300   2.689   2.459  0.1655  1.0084 -2.8790
 1174TIP3    H224938   1.152   2.658   2.450  0.0195 -0.0414  1.2363
 1175TIP3   OH224939   3.722   6.322  11.700 -0.2637 -0.3270 -0.5106
 1175TIP3    H124940   3.631   6.295  11.687  0.1053 -1.5331 -0.6890
 1175TIP3    H224941   3.745   6.368  11.619  0.1472 -2.5350 -1.7243
 1176TIP3   OH224942   5.547   6.622   0.454 -0.7103  0.0781  0.2728
 1176TIP3    H124943   5.624   6.580   0.417  0.3513  1.9075  0.2880
 1176TIP3    H224944   5.503   6.661   0.379 -2.5092 -2.1884  0.0439
 1177TIP3   OH224945   5.468   2.969  10.407 -0.3450 -0.3427 -0.6184
 1177TIP3    H124946   5.376   2.986  10.388  0.3208  2.7740 -1.6252
 1177TIP3    H224947   5.516   3.013  10.337  1.9381 -0.5118  0.7379
 1178TIP3   OH224948   0.346   0.813   0.839 -0.6455 -0.2157 -0.0215
 1178TIP3    H124949   0.433   0.841   0.869 -1.1375 -0.0147  1.2919
 1178TIP3    H224950   0.352   0.718   0.836 -0.4532 -0.2210  0.3580
 1179TIP3   OH224951   1.532   4.983   0.756  0.1061 -0.1540 -0.0794
 1179TIP3    H124952   1.620   5.020   0.750 -1.0381  2.6828 -1.1961
 1179TIP3    H224953   1.504   4.975   0.665 -1.4045  0.6861  0.2827
 1180TIP3   OH224954   3.931   6.760   0.491  0.2114 -0.2093  0.1350
 1180TIP3    H124955   3.925   6.841   0.441  0.0021 -0.0025  0.4926
 1180TIP3    H224956   4.024   6.737   0.489  0.2032 -0.2112 -0.3565
 1181TIP3   OH224957   6.528   5.781  15.468  0.0194  0.7300  0.3666
 1181TIP3    H124958   6.618   5.808  15.484  0.1381  0.6414 -0.1659
 1181TIP3    H224959   6.490   5.851  15.416 -0.1886  0.7134  0.4917
 1182TIP3   OH224960   3.284   2.189  12.007 -0.0101  0.0600 -0.4721
 1182TIP3    H124961   3.334   2.256  12.054  0.3379 -1.1775  0.9963
 1182TIP3    H224962   3.207   2.174  12.062 -0.2066 -0.5550 -0.9075
 1183TIP3   OH224963   2.669   2.825   4.607  0.1965 -0.0753 -0.3211
 1183TIP3    H124964   2.657   2.838   4.513  1.8607  1.2069 -0.4079
 1183TIP3    H224965   2.702   2.909   4.639  0.4033 -0.7220  1.2669
 1184TIP3   OH224966   2.484   5.099  12.892 -0.1239  0.4429 -0.4710
 1184TIP3    H124967   2.457   5.012  12.921 -0.2943  1.0945  1.4425
 1184TIP3    H224968   2.425   5.118  12.818 -0.9902 -0.5083 -0.0584
 1185TIP3   OH224969   2.219   5.439  14.417 -0.2068  0.7027 -0.1276
 1185TIP3    H124970   2.140   5.471  14.375 -0.0087 -1.0528 -1.9769
 1185TIP3    H224971   2.291   5.473  14.364  0.0798 -0.9654 -0.8615
 1186TIP3   OH224972   3.022   0.095  12.262  0.5082 -0.0139 -0.2991
 1186TIP3    H124973   3.091   0.044  12.304 -0.0426  0.2376  0.9738
 1186TIP3    H224974   2.962   0.030  12.226  0.0435 -0.2840  0.9189
 1187TIP3   OH224975   0.316   0.603   1.309  0.1792  0.4569  0.5100
 1187TIP3    H124976   0.315   0.689   1.268  2.5308  1.4375  2.2805
 1187TIP3    H224977   0.225   0.588   1.335 -0.4770  1.8658 -0.8081
 1188TIP3   OH224978   3.091   5.631  12.278  0.3254 -0.0788  0.7529
 1188TIP3    H124979   3.115   5.722  12.298 -0.7948  0.4124 -0.0491
 1188TIP3    H224980   3.086   5.589  12.364 -0.8556  1.0763  1.2874
 1189TIP3   OH224981   2.030   0.793  16.294  0.3891  0.1906 -0.7046
 1189TIP3    H124982   2.078   0.727  16.245  0.5317 -2.8807  3.0988
 1189TIP3    H224983   1.945   0.753  16.311  0.0517  1.4506  0.8142
 1190TIP3   OH224984   1.477   6.267  14.708  0.6572  0.1102 -0.3240
 1190TIP3    H124985   1.537   6.329  14.666  1.3695  0.1119  0.6574
 1190TIP3    H224986   1.530   6.190  14.726 -0.5672 -1.4385 -2.8473
 1191TIP3   OH224987   2.466   0.056   2.584 -0.0838 -0.1090 -0.1873
 1191TIP3    H124988   2.538   0.055   2.647 -1.7159  2.0567  1.8792
 1191TIP3    H224989   2.496   0.112   2.513  0.9570 -0.8195 -0.3307
 1192TIP3   OH224990   1.970   0.866  16.988  0.3436  0.9577 -0.5461
 1192TIP3    H124991   2.015   0.943  17.022 -0.4264  1.6191 -1.0040
 1192TIP3    H224992   1.902   0.900  16.931 -0.9767 -0.0011  0.3797
 1193TIP3   OH224993   5.205   4.551  15.246 -0.0078 -0.0359 -0.2848
 1193TIP3    H124994   5.160   4.588  15.322 -0.1237 -0.9363  0.1061
 1193TIP3    H224995   5.256   4.623  15.210 -1.9878  1.1339 -0.9260
 1194TIP3   OH224996   0.606   2.537   3.096 -0.3505  0.5514 -0.0896
 1194TIP3    H124997   0.607   2.621   3.141  0.2841  0.1460  0.6792
 1194TIP3    H224998   0.513   2.512   3.093 -0.5537  1.3073 -0.4118
 1195TIP3   OH224999   3.452   6.504  15.452  0.8383  0.4028  0.0624
 1195TIP3    H125000   3.470   6.462  15.536  0.5040 -0.1919 -0.1565
 1195TIP3    H225001   3.482   6.440  15.387  0.6191  0.6381 -0.2729
 1196TIP3   OH225002   1.331   6.377   4.537  0.1060 -0.6154 -0.6280
 1196TIP3    H125003   1.284   6.298   4.565  1.1791 -1.2226 -0.4867
 1196TIP3    H225004   1.263   6.444   4.531 -0.4634 -0.8750  1.7854
 1197TIP3   OH225005   6.309   6.306  11.458  0.3035  0.0939  0.5097
 1197TIP3    H125006   6.308   6.295  11.363 -0.2926 -0.6166  0.5874
 1197TIP3    H225007   6.248   6.378  11.474  0.2284  0.0632  0.3679
 1198TIP3   OH225008   4.517   0.519   0.512  0.3933  0.2567 -0.3920
 1198TIP3    H125009   4.603   0.554   0.486 -0.4393  1.8013 -1.1477
 1198TIP3    H225010   4.539   0.441   0.563  2.2841  1.2930  0.4993
 1199TIP3   OH225011   4.070   5.874   4.700  0.2117  0.3953 -0.0552
 1199TIP3    H125012   4.023   5.868   4.783  0.5298  1.4780  0.2234
 1199TIP3    H225013   4.002   5.885   4.634 -0.1061 -1.3434 -0.0809
 1200TIP3   OH225014   4.559   3.358   2.679 -0.7063  0.1531 -0.2780
 1200TIP3    H125015   4.466   3.352   2.655 -0.4975 -0.1361 -1.0775
 1200TIP3    H225016   4.602   3.298   2.617  0.0248  0.3970 -0.0048
 1201TIP3   OH225017   6.539   0.903  12.458  0.6004  0.0955  0.0872
 1201TIP3    H125018   6.505   0.931  12.372  0.6949  0.0091  0.0214
 1201TIP3    H225019   6.462   0.868  12.503  0.3765  0.9170  0.3614
 1202TIP3   OH225020   1.714   5.093   4.788 -0.5370 -0.3185 -0.1955
 1202TIP3    H125021   1.758   5.170   4.824 -0.1029 -0.7969  0.3115
 1202TIP3    H225022   1.782   5.050   4.735 -0.0385 -1.6303  1.4248
 1203TIP3   OH225023   4.307   3.450   4.785  0.2457  0.1235 -0.0471
 1203TIP3    H125024   4.327   3.486   4.871 -1.9703  0.3522  0.4493
 1203TIP3    H225025   4.328   3.520   4.724  1.8172 -0.0324  0.2900
 1204TIP3   OH225026   4.120   1.363   4.594  0.1084 -0.0938  0.0336
 1204TIP3    H125027   4.118   1.284   4.648 -0.7643  0.8492  1.4423
 1204TIP3    H225028   4.029   1.389   4.587  0.3450  0.5350 -0.8151
 1205TIP3   OH225029   4.870   2.538   5.083 -0.0823 -0.3413 -0.3927
 1205TIP3    H125030   4.958   2.506   5.099 -0.0471 -0.3789 -0.6507
 1205TIP3    H225031   4.879   2.633   5.076 -0.4085 -0.0902  1.8859
 1206TIP3   OH225032   4.649   2.743  16.152  0.1074 -0.5703  0.2515
 1206TIP3    H125033   4.597   2.767  16.229 -0.0508 -0.5665  0.1438
 1206TIP3    H225034   4.740   2.748  16.182  0.0960  0.3896  0.1670
 1207TIP3   OH225035   3.823   1.654  12.916 -0.6894  0.2582  0.4016
 1207TIP3    H125036   3.818   1.684  12.826 -1.1451  0.5544  0.5206
 1207TIP3    H225037   3.871   1.723  12.962 -1.1001  0.4609  0.5298
 1208TIP3   OH225038   4.185   0.964   4.827 -0.4720 -0.0912 -0.1944
 1208TIP3    H125039   4.182   0.917   4.743  1.8781 -2.0728  0.6735
 1208TIP3    H225040   4.156   0.899   4.892  0.8467  0.2966  0.8352
 1209TIP3   OH225041   2.513   4.044  12.012  0.1363 -0.6087  0.3501
 1209TIP3    H125042   2.466   4.092  11.944 -0.6853  0.0344  1.3321
 1209TIP3    H225043   2.482   3.954  12.003 -2.3505 -0.0027  1.7563
 1210TIP3   OH225044   2.943   6.779  11.263  0.3381  0.1422 -0.3823
 1210TIP3    H125045   2.909   6.860  11.225  1.2675  0.2033 -1.1128
 1210TIP3    H225046   2.884   6.711  11.229 -1.2139  0.5981  1.2269
 1211TIP3   OH225047   0.303   6.726   3.535 -0.2733  0.2857 -0.5425
 1211TIP3    H125048   0.252   6.684   3.466 -1.3807 -1.4594  1.2273
 1211TIP3    H225049   0.244   6.727   3.611  1.1306  1.4732  0.6024
 1212TIP3   OH225050   6.070   1.687   1.802  0.1053 -0.0886 -0.4858
 1212TIP3    H125051   6.013   1.734   1.741  0.3665  0.1454 -0.5526
 1212TIP3    H225052   6.010   1.647   1.865 -0.4736 -3.4176 -2.9503
 1213TIP3   OH225053   5.059   2.081  13.754 -0.2400  0.7132 -0.4911
 1213TIP3    H125054   5.078   2.016  13.686 -1.8452  0.2783 -0.5838
 1213TIP3    H225055   5.070   2.165  13.710 -0.0606  0.4636 -0.9374
 1214TIP3   OH225056   0.029   0.160  10.667 -0.4524 -0.0730 -0.0475
 1214TIP3    H125057   0.050   0.211  10.589 -0.7424  2.0826  1.1935
 1214TIP3    H225058   0.054   0.070  10.645  2.7570  1.0126 -1.3491
 1215TIP3   OH225059   1.617   6.707   2.088  0.4948 -0.2733  0.7329
 1215TIP3    H125060   1.556   6.640   2.119  0.8527 -1.1655 -0.3741
 1215TIP3    H225061   1.579   6.790   2.115 -1.9879 -0.6744 -1.1296
 1216TIP3   OH225062   6.396   0.547  14.859 -0.1711  0.0116  0.5995
 1216TIP3    H125063   6.318   0.562  14.806 -0.1180 -2.3299 -0.2763
 1216TIP3    H225064   6.469   0.577  14.805 -0.2228 -1.1404 -0.1354
 1217TIP3   OH225065   3.310   0.567   0.464 -0.1403 -0.2370  0.2362
 1217TIP3    H125066   3.300   0.572   0.559 -2.0647 -1.0550  0.1074
 1217TIP3    H225067   3.238   0.620   0.430  1.0558  0.8020 -0.8051
 1218TIP3   OH225068   2.880   2.631   2.144 -0.0441 -0.0163  0.5023
 1218TIP3    H125069   2.856   2.567   2.210  0.6743 -2.7277 -1.6460
 1218TIP3    H225070   2.836   2.601   2.064  1.4323  1.3781 -0.9270
 1219TIP3   OH225071   3.752   0.489   4.512  0.2076  0.5867 -0.4027
 1219TIP3    H125072   3.736   0.533   4.596 -0.8909  0.5760 -0.5869
 1219TIP3    H225073   3.844   0.506   4.492  0.6831 -0.0014  1.1451
 1220TIP3   OH225074   4.942   3.067   1.825 -0.1745  0.3996 -0.0664
 1220TIP3    H125075   4.878   3.006   1.788  2.6638 -2.8773 -0.1150
 1220TIP3    H225076   4.929   3.060   1.920 -0.0941 -0.0710 -0.0862
 1221TIP3   OH225077   0.739   2.360  13.426  0.6226 -0.1205  0.6922
 1221TIP3    H125078   0.696   2.421  13.366  0.1883 -0.6051  0.5063
 1221TIP3    H225079   0.801   2.414  13.475 -0.7740  0.7698  1.5698
 1222TIP3   OH225080   0.440   1.007  16.024 -0.1823 -0.1233  0.1209
 1222TIP3    H125081   0.465   1.063  16.097  1.1349  1.1957 -1.2496
 1222TIP3    H225082   0.382   1.062  15.972  1.0618  0.0077 -1.2042
 1223TIP3   OH225083   1.131   3.902  11.441  0.3740  0.4861  0.2409
 1223TIP3    H125084   1.136   3.819  11.395 -2.7462  0.4928 -0.3346
 1223TIP3    H225085   1.158   3.967  11.376 -0.6667  0.1971 -0.5076
 1224TIP3   OH225086   4.361   2.880   5.482 -0.2314 -0.6406 -0.3029
 1224TIP3    H125087   4.440   2.826   5.483 -0.3162 -0.7527  0.1528
 1224TIP3    H225088   4.317   2.862   5.565 -1.1471 -1.1798 -0.8821
 1225TIP3   OH225089   2.092   5.010  12.172 -0.1489  0.2143  0.0471
 1225TIP3    H125090   2.160   4.943  12.177  0.7676  1.1984  3.8043
 1225TIP3    H225091   2.015   4.968  12.212 -0.6177  0.3531 -0.6926
 1226TIP3   OH225092   1.768   4.662  16.329 -0.6750 -0.6326 -0.0677
 1226TIP3    H125093   1.764   4.619  16.244 -0.6084  1.6543 -1.3215
 1226TIP3    H225094   1.859   4.688  16.339 -0.9529  0.3601  0.0040
 1227TIP3   OH225095   6.032   1.910   5.320  0.0512 -0.7449 -0.1277
 1227TIP3    H125096   6.023   2.005   5.320 -0.2715 -0.7273 -2.3616
 1227TIP3    H225097   6.059   1.888   5.409 -0.2030  1.3929  0.5185
 1228TIP3   OH225098   6.554   0.291  11.441  0.7021  0.0172 -0.1829
 1228TIP3    H125099   6.569   0.375  11.398  0.7300 -0.1714 -0.5490
 1228TIP3    H225100   6.461   0.273  11.426  0.9173 -0.4901 -0.9800
 1229TIP3   OH225101   5.293   0.917  12.562  0.3302  0.0547  0.3474
 1229TIP3    H125102   5.253   0.992  12.607  0.4073 -0.3569  1.1211
 1229TIP3    H225103   5.272   0.931  12.470 -1.5420 -0.1085  0.7035
 1230TIP3   OH225104   0.903   2.976   4.483 -0.1998  0.7612 -0.3427
 1230TIP3    H125105   0.916   2.924   4.562 -1.7194  0.6863 -0.1074
 1230TIP3    H225106   0.820   2.944   4.447 -0.3274  1.8951 -1.1072
 1231TIP3   OH225107   3.796   3.524   4.118 -0.3748  0.3064 -0.2012
 1231TIP3    H125108   3.718   3.565   4.155 -0.3616  0.9972 -0.9030
 1231TIP3    H225109   3.786   3.431   4.138 -0.2076  0.6708  1.7947
 1232TIP3   OH225110   2.739   0.043  14.387  0.3494  0.2448 -0.6679
 1232TIP3    H125111   2.655   0.032  14.432  1.2727 -0.9854  0.8293
 1232TIP3    H225112   2.793  -0.030  14.417  1.6289  0.3888 -2.4282
 1233TIP3   OH225113   1.704   4.895   4.175 -0.5926  0.3863 -0.4485
 1233TIP3    H125114   1.673   4.805   4.185  1.9982 -0.3978  1.3248
 1233TIP3    H225115   1.799   4.889   4.176 -0.3257  3.1589 -0.0380
 1234TIP3   OH225116   6.556   4.769  11.305  0.0404  0.1603  0.1413
 1234TIP3    H125117   6.566   4.689  11.357  0.8238  0.4779  0.4984
 1234TIP3    H225118   6.564   4.739  11.214  0.3071 -0.1715  0.2720
 1235TIP3   OH225119   1.734   1.772   2.517  0.4666  0.5272  0.4416
 1235TIP3    H125120   1.647   1.805   2.540 -1.0187 -2.6365 -0.0982
 1235TIP3    H225121   1.784   1.850   2.493 -2.0419  2.5187  1.2742
 1236TIP3   OH225122   3.883   3.707  11.198  0.6138  0.3362 -0.0028
 1236TIP3    H125123   3.951   3.673  11.257 -0.4022 -2.0171 -0.0639
 1236TIP3    H225124   3.822   3.753  11.256  0.1177 -1.1514  0.7198
 1237TIP3   OH225125   3.601   4.809  11.444 -0.1169 -0.7334  0.3864
 1237TIP3    H125126   3.602   4.726  11.395 -0.4250  0.4608 -1.7913
 1237TIP3    H225127   3.508   4.832  11.449  0.0031 -0.2966  0.5769
 1238TIP3   OH225128   0.195   2.792  17.024 -0.2176  0.0400  0.6796
 1238TIP3    H125129   0.198   2.853  17.098 -2.4548 -1.3020  2.0136
 1238TIP3    H225130   0.153   2.714  17.060  0.3006 -1.3709 -1.5937
 1239TIP3   OH225131   1.994   0.975   3.414 -0.5973  0.0765  0.3853
 1239TIP3    H125132   1.995   1.048   3.351  1.2542  1.0690  1.4769
 1239TIP3    H225133   1.988   0.897   3.360 -1.3835  0.9798 -0.8941
 1240TIP3   OH225134   3.260   4.960   0.085 -0.1617  0.1089  0.3717
 1240TIP3    H125135   3.305   5.023   0.142 -1.1249 -0.9895  2.4675
 1240TIP3    H225136   3.168   4.984   0.092 -0.4403 -0.9268  0.4502
 1241TIP3   OH225137   5.578   6.434  15.814 -0.1369  0.0033  0.8432
 1241TIP3    H125138   5.569   6.496  15.886  0.5393  1.9657 -0.6676
 1241TIP3    H225139   5.514   6.366  15.832 -1.5257  1.5946  2.1471
 1242TIP3   OH225140   4.396   2.854  15.981  0.0169 -0.2015  0.1937
 1242TIP3    H125141   4.465   2.788  15.981 -0.0243 -0.3024 -1.7310
 1242TIP3    H225142   4.332   2.822  16.045 -0.0093 -2.0588 -0.7155
 1243TIP3   OH225143   3.445   5.570   4.366 -0.0818 -0.1968 -0.0482
 1243TIP3    H125144   3.526   5.521   4.351  0.0149 -0.0158 -0.1201
 1243TIP3    H225145   3.393   5.514   4.424 -0.7775 -1.2746 -1.6011
 1244TIP3   OH225146   3.054   5.723   0.608 -0.6151 -0.4249 -0.2367
 1244TIP3    H125147   3.145   5.747   0.592 -1.3710  2.9636 -0.3005
 1244TIP3    H225148   3.024   5.688   0.524  0.4648 -1.0626 -0.3750
 1245TIP3   OH225149   0.051   5.714  11.159  0.6573  0.7379  0.0153
 1245TIP3    H125150   0.066   5.744  11.069  1.8955  1.4907  0.4484
 1245TIP3    H225151   0.045   5.795  11.210  0.5484  0.3000  0.7053
 1246TIP3   OH225152   4.261   0.162   4.489 -0.0214  0.2343  0.9911
 1246TIP3    H125153   4.252   0.147   4.395  1.6018 -0.5312  0.9282
 1246TIP3    H225154   4.182   0.212   4.513 -1.0347 -0.5552 -0.5396
 1247TIP3   OH225155   6.015   4.819  12.679  0.0894  0.0638  0.5813
 1247TIP3    H125156   6.028   4.726  12.699  1.7508  0.4047  1.2241
 1247TIP3    H225157   5.980   4.856  12.760 -1.0860 -0.0727  0.1574
 1248TIP3   OH225158   1.551   0.950   4.718  0.3206  0.3422 -0.2190
 1248TIP3    H125159   1.594   1.013   4.776  0.8206 -0.3777  0.2134
 1248TIP3    H225160   1.618   0.928   4.653  0.4240 -0.3348  0.1053
 1249TIP3   OH225161   0.950   3.545  11.163 -0.2701 -0.2223  0.0608
 1249TIP3    H125162   0.972   3.475  11.101 -2.5498 -2.1812  1.3152
 1249TIP3    H225163   0.995   3.520  11.244 -0.3541  0.2837  0.2661
 1250TIP3   OH225164   1.193   4.667   2.792  0.0747  0.0469  0.4963
 1250TIP3    H125165   1.207   4.572   2.793  0.5505  0.1115  0.3202
 1250TIP3    H225166   1.225   4.697   2.877 -0.2363  0.0288  0.6201
 1251TIP3   OH225167   1.379   3.423  12.581  0.3266  0.2084  0.2421
 1251TIP3    H125168   1.441   3.371  12.532  1.3364  3.4241 -2.2603
 1251TIP3    H225169   1.294   3.382  12.566  1.1421 -1.1034 -0.9186
 1252TIP3   OH225170   5.000   1.244   0.206 -0.3307 -0.2660 -0.1478
 1252TIP3    H125171   5.055   1.211   0.276 -0.0786  0.9390  0.2548
 1252TIP3    H225172   4.923   1.279   0.250 -0.9604 -1.0221 -0.6229
 1253TIP3   OH225173   6.016   5.269  13.207 -0.0359  0.5027  0.0697
 1253TIP3    H125174   6.071   5.194  13.231  2.0556  1.7239 -0.6701
 1253TIP3    H225175   6.003   5.316  13.289 -0.1706  0.1014  0.2836
 1254TIP3   OH225176   4.125   1.334   2.828 -0.0664  0.0555  0.0699
 1254TIP3    H125177   4.168   1.257   2.864 -0.5940 -0.0482  0.5019
 1254TIP3    H225178   4.132   1.400   2.898  1.1473  0.6972 -0.6206
 1255TIP3   OH225179   4.328   6.022   2.985  0.2333  0.1731  0.9108
 1255TIP3    H125180   4.280   6.090   3.031 -0.3951  1.4921 -1.5518
 1255TIP3    H225181   4.261   5.974   2.936  0.9655 -0.5506  0.5967
 1256TIP3   OH225182   1.574   3.478   6.316  0.6506  0.0492  0.3725
 1256TIP3    H125183   1.548   3.391   6.287 -0.5189  0.6976 -0.5882
 1256TIP3    H225184   1.666   3.468   6.343  0.4249 -1.5407  0.6203
 1257TIP3   OH225185   5.224   5.722  11.875 -0.0634  0.6250 -0.0776
 1257TIP3    H125186   5.183   5.646  11.833 -0.4999  0.4928  0.5727
 1257TIP3    H225187   5.316   5.718  11.847 -0.1121 -0.0604 -0.1625
 1258TIP3   OH225188   6.353   5.445   0.753 -0.1671 -0.1746 -0.6521
 1258TIP3    H125189   6.263   5.414   0.739 -0.1644  0.2034 -1.6426
 1258TIP3    H225190   6.408   5.369   0.733 -0.2213  0.0106 -1.5723
 1259TIP3   OH225191   1.550   0.072   3.215  0.3997 -0.0611  0.2740
 1259TIP3    H125192   1.581   0.149   3.263 -0.2997  0.7790 -0.5948
 1259TIP3    H225193   1.622   0.008   3.224 -0.0211 -0.2914  3.1443
 1260TIP3   OH225194   4.197   0.620   4.640 -0.3245 -0.4622 -0.1033
 1260TIP3    H125195   4.218   0.552   4.576 -1.0893 -0.2655 -0.5802
 1260TIP3    H225196   4.266   0.685   4.631 -0.5278 -0.3482 -0.8608
 1261TIP3   OH225197   0.476   4.265   2.538 -0.3657  0.0983  0.4563
 1261TIP3    H125198   0.384   4.266   2.565 -0.8669  0.4227 -1.1449
 1261TIP3    H225199   0.475   4.226   2.451  1.0687 -0.2215  0.5588
 1262TIP3   OH225200   2.415   4.630  11.780 -0.4583 -0.2248 -0.3238
 1262TIP3    H125201   2.504   4.653  11.755 -1.1563  0.8180 -2.0271
 1262TIP3    H225202   2.418   4.620  11.875  1.8588 -2.0534 -0.5013
 1263TIP3   OH225203   4.085   5.016  14.400  0.4552 -0.0842  0.0681
 1263TIP3    H125204   4.174   5.024  14.436  0.1389  3.3632  0.4057
 1263TIP3    H225205   4.099   4.996  14.307  1.4500 -1.8529  0.5417
 1264TIP3   OH225206   1.228   6.513   2.655  0.3471  0.2736 -0.3333
 1264TIP3    H125207   1.208   6.427   2.693 -0.1928  0.3142 -0.5192
 1264TIP3    H225208   1.145   6.560   2.656  0.9098  1.2947  1.0117
 1265TIP3   OH225209   6.406   6.378   1.367 -0.3560 -0.5234 -0.0187
 1265TIP3    H125210   6.428   6.322   1.292 -0.4891 -0.7948  0.1458
 1265TIP3    H225211   6.479   6.440   1.372 -0.2309 -0.6505 -0.2296
 1266TIP3   OH225212   6.498   2.848   1.258 -1.0468  0.5782  0.1219
 1266TIP3    H125213   6.584   2.872   1.293  0.3032  0.1194 -2.6351
 1266TIP3    H225214   6.458   2.932   1.233  0.1620  0.6245 -1.8475
 1267TIP3   OH225215   2.443   2.001  16.734 -0.2699  0.2315  0.1508
 1267TIP3    H125216   2.404   1.933  16.788  0.4042 -1.9281 -1.8923
 1267TIP3    H225217   2.370   2.056  16.707 -1.1037 -0.6571  0.5479
 1268TIP3   OH225218   4.475   2.174   3.292  0.9002 -0.1427  0.0753
 1268TIP3    H125219   4.414   2.178   3.365 -2.0095 -2.7093 -1.9848
 1268TIP3    H225220   4.547   2.120   3.324  0.7129  0.4640  1.6191
 1269TIP3   OH225221   4.438   5.874   3.225 -0.1342 -0.3087  0.5768
 1269TIP3    H125222   4.378   5.898   3.154 -0.1838 -0.5837  0.5242
 1269TIP3    H225223   4.514   5.838   3.181 -0.4240 -1.0617  0.6789
 1270TIP3   OH225224   0.369   1.326  11.500  0.1681  0.3044  0.1727
 1270TIP3    H125225   0.357   1.388  11.428 -0.5440 -1.1774 -1.0238
 1270TIP3    H225226   0.303   1.352  11.564 -0.4697  0.4676 -0.5397
 1271TIP3   OH225227   0.688   2.941  11.101  0.0706 -0.3450 -0.3382
 1271TIP3    H125228   0.726   2.928  11.014  2.1614  0.9489  0.3042
 1271TIP3    H225229   0.735   2.879  11.157 -1.2082 -1.1193 -0.1013
 1272TIP3   OH225230   5.700   0.446   3.263  0.6425  0.3899 -0.0664
 1272TIP3    H125231   5.786   0.453   3.221 -0.5103  2.6465 -2.3513
 1272TIP3    H225232   5.639   0.481   3.198 -1.9202 -0.2362  1.8341
 1273TIP3   OH225233   2.144   6.420  16.341  0.2287 -0.3876 -0.3299
 1273TIP3    H125234   2.116   6.460  16.423 -0.3784 -0.1507 -0.6434
 1273TIP3    H225235   2.078   6.448  16.277  1.1933  0.1849 -1.0992
 1274TIP3   OH225236   6.390   0.945   4.907  0.0852  0.2781  0.0755
 1274TIP3    H125237   6.382   0.877   4.974  2.7426 -0.4867 -0.2661
 1274TIP3    H225238   6.407   1.025   4.956 -2.9166  0.8196  0.4717
 1275TIP3   OH225239   4.542   0.772  14.721  0.5563  0.1383  0.5534
 1275TIP3    H125240   4.577   0.861  14.717 -0.5990  0.7128  2.3205
 1275TIP3    H225241   4.507   0.764  14.810 -1.7408 -1.1660 -0.4042
 1276TIP3   OH225242   3.599   4.773  14.044 -0.8759  0.4361  0.1246
 1276TIP3    H125243   3.550   4.780  13.962 -1.9577 -0.6921  0.6273
 1276TIP3    H225244   3.565   4.693  14.085 -0.8134  1.2821  1.9573
 1277TIP3   OH225245   1.432   4.198  13.845  0.0555  0.4557 -0.3817
 1277TIP3    H125246   1.407   4.108  13.820  1.8641 -0.1499 -0.1822
 1277TIP3    H225247   1.526   4.202  13.825  1.2856  0.5745  4.2897
 1278TIP3   OH225248   4.108   2.577  14.467  0.6852 -0.8217 -0.2323
 1278TIP3    H125249   4.083   2.576  14.559 -3.2130  2.2084 -0.9988
 1278TIP3    H225250   4.138   2.667  14.451  0.0751 -0.9005 -2.1224
 1279TIP3   OH225251   4.912   1.494  15.015 -0.3332 -0.3481  0.2619
 1279TIP3    H125252   4.972   1.438  14.966 -0.9274 -1.1674  0.4496
 1279TIP3    H225253   4.825   1.466  14.987 -0.7231 -1.4738  2.3941
 1280TIP3   OH225254   2.836   4.276   2.026  0.1173 -1.1107 -0.3103
 1280TIP3    H125255   2.924   4.248   2.002  0.7458  0.7486 -0.3256
 1280TIP3    H225256   2.787   4.275   1.944  0.6662 -0.3214 -0.6592
 1281TIP3   OH225257   5.360   5.422   4.286  0.0248 -0.1835 -0.1539
 1281TIP3    H125258   5.407   5.374   4.219 -0.3633 -0.8373  0.0398
 1281TIP3    H225259   5.426   5.441   4.353  0.9246  2.2586 -1.6023
 1282TIP3   OH225260   6.164   0.854  13.418  0.2584  0.4014 -0.4458
 1282TIP3    H125261   6.214   0.932  13.443 -0.7703  1.2158 -0.8654
 1282TIP3    H225262   6.073   0.883  13.417 -0.2573 -1.1069  0.4823
 1283TIP3   OH225263   6.123   4.939  16.417 -0.2454 -0.2945 -0.4369
 1283TIP3    H125264   6.058   5.000  16.451 -2.0710 -1.4023 -1.7665
 1283TIP3    H225265   6.079   4.894  16.345  1.8425 -1.4566 -1.0878
 1284TIP3   OH225266   3.268   0.708  16.724 -0.2998  0.0066 -0.1021
 1284TIP3    H125267   3.325   0.636  16.697  0.3054  0.9009 -1.2664
 1284TIP3    H225268   3.181   0.669  16.730  0.2185 -1.0947  0.5084
 1285TIP3   OH225269   6.070   5.024   3.714 -0.1149  0.3380  0.3398
 1285TIP3    H125270   6.059   4.951   3.653  0.9571 -0.3162  0.8987
 1285TIP3    H225271   6.077   5.101   3.657 -0.5114 -0.0827 -0.2938
 1286TIP3   OH225272   5.308   1.505   2.251 -0.6180  0.3177 -0.6912
 1286TIP3    H125273   5.279   1.435   2.309 -2.5825  0.7513 -1.0785
 1286TIP3    H225274   5.286   1.586   2.297  2.9230  0.8329  0.4073
 1287TIP3   OH225275   4.247   3.591   0.560  0.1230  0.0049  0.0430
 1287TIP3    H125276   4.255   3.672   0.510  1.1235 -1.1856 -1.8583
 1287TIP3    H225277   4.299   3.527   0.511  0.2752 -1.5319  2.0667
 1288TIP3   OH225278   5.386   1.591   5.982 -0.2107 -0.3330  0.0616
 1288TIP3    H125279   5.370   1.655   6.051  0.2162  1.1501 -1.1661
 1288TIP3    H225280   5.299   1.563   5.954 -0.4183 -2.5924  2.5746
 1289TIP3   OH225281   3.153   3.846   3.816 -0.0362 -0.4217 -0.1380
 1289TIP3    H125282   3.105   3.922   3.785  0.1124 -1.0190 -1.9291
 1289TIP3    H225283   3.230   3.882   3.860 -0.6893  0.4642  0.3127
 1290TIP3   OH225284   6.559   2.343  16.522  0.1268 -0.1097  0.4434
 1290TIP3    H125285   6.644   2.379  16.547 -0.1935  1.7743 -0.9798
 1290TIP3    H225286   6.546   2.369  16.431 -0.9760 -2.3784 -0.1412
 1291TIP3   OH225287   6.168   2.007   1.466  0.0101 -0.4599  0.2025
 1291TIP3    H125288   6.144   1.944   1.398 -0.8938 -0.8609  0.8624
 1291TIP3    H225289   6.229   2.067   1.423 -0.4879 -0.7369 -0.9368
 1292TIP3   OH225290   5.429   5.148  12.738  0.5730  0.4014 -0.0508
 1292TIP3    H125291   5.495   5.215  12.721  1.3138 -0.7090 -1.8612
 1292TIP3    H225292   5.416   5.151  12.833  0.5288  3.0987 -0.0736
 1293TIP3   OH225293   6.728   4.453   5.305 -0.0608  0.3464  0.6696
 1293TIP3    H125294   6.644   4.447   5.349  0.4421  1.0273  1.7663
 1293TIP3    H225295   6.723   4.389   5.234 -1.2858 -0.0115  1.0602
 1294TIP3   OH225296   6.410   1.036  14.705 -0.0142 -0.1336 -0.3397
 1294TIP3    H125297   6.402   0.977  14.629  0.1285  0.2698 -0.6714
 1294TIP3    H225298   6.397   0.979  14.780  0.2076 -0.6128 -0.6557
 1295TIP3   OH225299   1.273   4.946  10.486 -0.2337  0.2639  0.3668
 1295TIP3    H125300   1.321   4.968  10.566 -0.3102  0.0928  0.4591
 1295TIP3    H225301   1.289   4.852  10.473 -0.3353  0.2616  0.2584
 1296TIP3   OH225302   2.958   0.564  12.841  0.4855  0.1535  0.5088
 1296TIP3    H125303   3.005   0.610  12.771  0.8878 -0.4234  0.3815
 1296TIP3    H225304   2.942   0.477  12.804 -1.9214  0.7404  0.0247
 1297TIP3   OH225305   3.651   1.048   5.045  0.2833  0.1853 -0.1762
 1297TIP3    H125306   3.592   1.006   5.108  1.2218  0.8780  1.2168
 1297TIP3    H225307   3.640   1.141   5.061  0.0122  0.4057 -1.5575
 1298TIP3   OH225308   2.293   1.734   3.261  0.1453 -0.1183  0.5619
 1298TIP3    H125309   2.279   1.709   3.169  0.0037 -0.7461  0.7505
 1298TIP3    H225310   2.253   1.663   3.311  2.0830 -0.8711  1.1210
 1299TIP3   OH225311   1.933   3.603   2.860  0.1985  0.5273 -0.0903
 1299TIP3    H125312   1.983   3.552   2.796  1.2446  2.4937 -0.9104
 1299TIP3    H225313   1.842   3.580   2.842  0.6230 -1.1753 -0.2813
 1300TIP3   OH225314   3.508   3.456   4.996  0.3674  0.1869 -0.3764
 1300TIP3    H125315   3.491   3.362   4.987  0.7096  0.1737 -0.9560
 1300TIP3    H225316   3.591   3.470   4.950 -0.4536  1.0157 -1.7026
 1301TIP3   OH225317   4.106   1.287   4.297  0.8100 -0.6565 -1.0575
 1301TIP3    H125318   4.133   1.227   4.227  0.9577 -0.4144 -1.2123
 1301TIP3    H225319   4.188   1.314   4.338  0.8258  0.1192 -1.5611
 1302TIP3   OH225320   1.630   1.429   5.570 -0.1651  0.2132  0.2277
 1302TIP3    H125321   1.641   1.482   5.491 -0.4851  0.4614  0.3492
 1302TIP3    H225322   1.706   1.452   5.624  1.4818 -1.8506 -1.0597
 1303TIP3   OH225323   6.739   5.948  15.546 -0.1842  0.6225  0.1837
 1303TIP3    H125324   6.710   6.027  15.590  2.1129  2.2292 -0.9729
 1303TIP3    H225325   6.834   5.958  15.540  0.0345 -1.6299 -1.1577
 1304TIP3   OH225326   4.005   5.675  14.257  0.4951  0.2467 -0.0411
 1304TIP3    H125327   3.945   5.648  14.327 -2.1861  2.3788 -1.3455
 1304TIP3    H225328   4.076   5.720  14.303 -1.4962  2.1474  1.3881
 1305TIP3   OH225329   5.186   1.110   2.767  0.0891 -0.3788  0.1177
 1305TIP3    H125330   5.258   1.047   2.771 -0.2507 -1.0291 -2.4671
 1305TIP3    H225331   5.227   1.190   2.734 -0.0059 -0.1289  0.6084
 1306TIP3   OH225332   0.861   0.611  15.000  0.1911 -0.1640  0.0080
 1306TIP3    H125333   0.869   0.560  14.920  1.5622  0.6004 -0.3806
 1306TIP3    H225334   0.786   0.668  14.985 -0.6003 -1.1826 -0.0341
 1307TIP3   OH225335   1.708   4.552   2.643  0.0013 -0.6772 -0.0287
 1307TIP3    H125336   1.719   4.498   2.565 -1.1958  1.0950 -1.5001
 1307TIP3    H225337   1.748   4.636   2.620 -0.0893 -0.2128  1.3998
 1308TIP3   OH225338   6.779   5.682   1.153  0.3318 -0.4947 -0.1757
 1308TIP3    H125339   6.787   5.608   1.214  1.8864 -0.3665 -0.1977
 1308TIP3    H225340   6.721   5.744   1.198  2.1154 -0.0238  1.5745
 1309TIP3   OH225341   2.122   2.242   3.248 -0.5235  0.0561 -0.4399
 1309TIP3    H125342   2.037   2.210   3.276 -0.7179 -0.0252 -1.0982
 1309TIP3    H225343   2.156   2.173   3.190  0.0123  0.0642 -0.1427
 1310TIP3   OH225344   6.214   5.896   2.759 -0.6239 -0.8206  0.8295
 1310TIP3    H125345   6.202   5.941   2.842 -0.9873  2.8371 -0.9897
 1310TIP3    H225346   6.301   5.923   2.730 -1.5121  0.1605 -1.0935
 1311TIP3   OH225347   1.479   4.488   6.082  0.4220  0.0166 -0.8465
 1311TIP3    H125348   1.394   4.468   6.122 -0.1066  1.8058 -1.0192
 1311TIP3    H225349   1.472   4.455   5.993  0.6497 -1.6155 -0.2954
 1312TIP3   OH225350   5.714   3.998   5.385 -0.1799 -0.1501 -0.4212
 1312TIP3    H125351   5.685   4.037   5.467 -1.0541  0.6514 -1.0993
 1312TIP3    H225352   5.806   3.974   5.401 -0.1840  0.4871  0.6018
 1313TIP3   OH225353   3.239   2.215  13.411 -0.1514 -0.2710  0.0012
 1313TIP3    H125354   3.332   2.240  13.407 -0.3387  0.5790  0.7883
 1313TIP3    H225355   3.241   2.119  13.409  0.8333 -0.3156  1.3545
 1314TIP3   OH225356   1.390   1.432  10.925  0.4818  0.4060  0.0827
 1314TIP3    H125357   1.370   1.489  10.851 -0.6268 -1.3011 -1.0076
 1314TIP3    H225358   1.340   1.468  10.998 -1.9328 -0.3253 -1.1158
 1315TIP3   OH225359   3.753   5.023   1.149 -0.3435 -0.5925  0.6247
 1315TIP3    H125360   3.659   5.035   1.162 -0.2469  1.3925 -0.2150
 1315TIP3    H225361   3.779   5.095   1.091  1.2879 -2.4418 -1.0920
 1316TIP3   OH225362   3.272   1.924   0.921 -0.1275  0.6397  0.0431
 1316TIP3    H125363   3.323   1.846   0.900  0.5008  0.6329  1.4993
 1316TIP3    H225364   3.182   1.902   0.896 -0.1308 -0.9243  1.2806
 1317TIP3   OH225365   0.032   5.257   2.754  0.0809 -0.3927 -0.1208
 1317TIP3    H125366   0.109   5.308   2.779  0.1102  1.4193 -3.3253
 1317TIP3    H225367  -0.041   5.303   2.794  0.3023  1.0162 -1.2431
 1318TIP3   OH225368   3.691   3.342  12.608  0.6792  0.5496  0.7571
 1318TIP3    H125369   3.616   3.329  12.667  1.6197  0.4716  1.9787
 1318TIP3    H225370   3.723   3.254  12.591  0.2799  0.5581 -0.0715
 1319TIP3   OH225371   1.650   5.838  13.329  0.5144 -0.1265 -0.0525
 1319TIP3    H125372   1.647   5.748  13.361  0.1977  0.6797  2.3547
 1319TIP3    H225373   1.559   5.862  13.316  0.6569 -0.7817 -2.7935
 1320TIP3   OH225374   6.490   4.958  16.865 -0.2103  1.2012 -0.0919
 1320TIP3    H125375   6.576   4.941  16.826 -0.1183  0.0686  0.5605
 1320TIP3    H225376   6.436   4.988  16.792  0.1073 -0.3396 -0.9989
 1321TIP3   OH225377   4.271   5.173  16.918  0.0404 -0.2285 -0.4045
 1321TIP3    H125378   4.281   5.152  16.825  0.6825  0.4892 -0.5098
 1321TIP3    H225379   4.296   5.092  16.963 -2.2852 -1.2838 -0.8655
 1322TIP3   OH225380   2.188   3.759   3.670 -0.1471 -0.2341 -0.4150
 1322TIP3    H125381   2.281   3.750   3.692 -0.3338 -1.4903 -0.0804
 1322TIP3    H225382   2.155   3.669   3.665 -1.0689  0.1437 -1.7747
 1323TIP3   OH225383   0.774   6.026   3.630  0.4152 -0.2701  0.1022
 1323TIP3    H125384   0.687   6.015   3.668  0.2860 -1.8233 -0.5856
 1323TIP3    H225385   0.783   6.121   3.619 -1.0365 -0.0581  0.5083
 1324TIP3   OH225386   5.504   3.458  15.717  0.6991 -0.0708  0.9300
 1324TIP3    H125387   5.526   3.537  15.668  0.2734  0.1844  1.1408
 1324TIP3    H225388   5.573   3.450  15.784 -0.2159  1.1340  2.0634
 1325TIP3   OH225389   3.756   0.199   6.393 -0.3594 -0.2996 -0.0047
 1325TIP3    H125390   3.734   0.121   6.343  0.0738 -0.0310 -0.6265
 1325TIP3    H225391   3.756   0.270   6.328 -0.3081  0.1425  0.4702
 1326TIP3   OH225392   5.317   3.186   1.666 -0.1928 -0.1262  0.0947
 1326TIP3    H125393   5.305   3.221   1.754 -0.6740 -1.8823  0.7830
 1326TIP3    H225394   5.317   3.091   1.679 -1.7505 -0.4732 -1.9803
 1327TIP3   OH225395   1.806   6.226  10.832  0.6231 -0.2820  0.5540
 1327TIP3    H125396   1.874   6.168  10.865  1.7240  1.5206  1.6285
 1327TIP3    H225397   1.848   6.312  10.827 -1.7867  1.0885  2.1049
 1328TIP3   OH225398   1.710   3.284  13.018  0.0237 -0.1841 -0.3765
 1328TIP3    H125399   1.635   3.279  13.078  0.6020 -0.5083  0.3319
 1328TIP3    H225400   1.734   3.377  13.017  0.5207 -0.2881  0.5504
 1329TIP3   OH225401   5.612   0.635  13.931  0.5194  0.5277  0.5478
 1329TIP3    H125402   5.560   0.561  13.964  1.4507 -0.4825 -0.1635
 1329TIP3    H225403   5.547   0.703  13.913 -0.4680 -0.3730  0.5531
 1330TIP3   OH225404   2.491   1.939   1.912  0.1802 -0.0623  0.3418
 1330TIP3    H125405   2.442   1.939   1.830  0.4980  1.0899  0.1279
 1330TIP3    H225406   2.500   2.032   1.935  1.5815 -0.2765  0.7686
 1331TIP3   OH225407   4.565   6.145  11.761  0.3786 -0.3538  0.3977
 1331TIP3    H125408   4.495   6.176  11.819 -1.9175 -0.1395 -2.2667
 1331TIP3    H225409   4.590   6.059  11.797 -1.7270 -0.7254  1.0983
 1332TIP3   OH225410   5.014   1.594  13.964  0.1164  0.1695 -0.1084
 1332TIP3    H125411   4.941   1.645  13.929 -0.9459  0.2655  2.0557
 1332TIP3    H225412   4.987   1.572  14.053  1.5612 -2.1905 -0.1743
 1333TIP3   OH225413   2.007   2.271   6.086 -0.5411 -0.2451 -0.3261
 1333TIP3    H125414   1.956   2.287   6.165  0.5474 -1.5349  0.6916
 1333TIP3    H225415   1.967   2.194   6.046 -1.8715  1.1282 -1.7752
 1334TIP3   OH225416   0.473   4.507  13.283  0.6033  0.3583  0.8894
 1334TIP3    H125417   0.500   4.528  13.194 -0.3482 -0.8985  0.2768
 1334TIP3    H225418   0.440   4.418  13.278  1.5599 -0.1635  2.7316
 1335TIP3   OH225419   0.069   0.385   0.877 -0.7949  0.0357  0.4913
 1335TIP3    H125420   0.161   0.359   0.866 -0.6441  0.7501 -0.0713
 1335TIP3    H225421   0.068   0.477   0.850 -2.0299 -0.4652 -1.2710
 1336TIP3   OH225422   0.685   3.828   1.316 -0.8811 -0.2012  0.2653
 1336TIP3    H125423   0.643   3.759   1.265  0.0013 -0.9390  0.5118
 1336TIP3    H225424   0.658   3.810   1.407 -2.1403  0.8832  0.1368
 1337TIP3   OH225425   6.206   3.023  16.129  0.5142 -0.3319 -0.0897
 1337TIP3    H125426   6.205   3.117  16.146 -2.3419 -0.4904  1.1026
 1337TIP3    H225427   6.146   2.986  16.193  1.8669 -3.0718 -0.2362
 1338TIP3   OH225428   4.921   0.271  14.389  0.0679  0.3200 -0.5254
 1338TIP3    H125429   4.910   0.185  14.350  1.2495 -0.6595  1.1581
 1338TIP3    H225430   4.859   0.327  14.342 -1.4828 -1.6542 -0.9835
 1339TIP3   OH225431   3.226   4.194   1.667 -0.6352  0.4628  0.6963
 1339TIP3    H125432   3.167   4.162   1.599  0.0369  0.5356  0.0630
 1339TIP3    H225433   3.302   4.136   1.662  0.7732  2.2897 -0.7211
 1340TIP3   OH225434   1.851   0.525   3.009 -0.2913 -0.7044  0.3469
 1340TIP3    H125435   1.768   0.489   3.041 -2.9370  2.8870 -1.6352
 1340TIP3    H225436   1.863   0.486   2.922 -1.1757  0.3442 -0.2738
 1341TIP3   OH225437   1.184   3.466  16.994 -0.2594  0.2284 -1.3245
 1341TIP3    H125438   1.219   3.476  16.906 -1.3129 -0.8383 -1.8887
 1341TIP3    H225439   1.260   3.475  17.051  1.0231 -2.1732 -2.5042
 1342TIP3   OH225440   3.035   5.098   0.188 -0.0186  1.1733  0.6936
 1342TIP3    H125441   3.002   5.184   0.160  0.7875  1.5119  0.7519
 1342TIP3    H225442   2.970   5.068   0.252 -0.7247  1.3785  0.0979
 1343TIP3   OH225443   3.268   1.020  14.143  0.0790  0.5252  0.2103
 1343TIP3    H125444   3.181   1.054  14.164  0.7772  1.9957  0.8755
 1343TIP3    H225445   3.259   0.980  14.057 -1.7719 -1.3885  1.1803
 1344TIP3   OH225446   3.796   1.680  12.389  0.4704  0.0089  0.0152
 1344TIP3    H125447   3.792   1.586  12.372  0.5737 -0.1542  0.8306
 1344TIP3    H225448   3.888   1.697  12.410  0.1145 -0.1104  1.9059
 1345TIP3   OH225449   0.971   2.131  14.503  0.3327 -0.0594 -0.4473
 1345TIP3    H125450   0.903   2.072  14.469 -0.0669 -1.0312  1.8881
 1345TIP3    H225451   0.922   2.199  14.549  0.8716  0.9247 -1.3079
 1346TIP3   OH225452   2.185   1.053  13.954  0.4990  1.1685 -0.0682
 1346TIP3    H125453   2.228   1.064  13.870 -1.5216 -0.1720 -1.3564
 1346TIP3    H225454   2.223   0.972  13.990  0.7168  1.2562 -0.0981
 1347TIP3   OH225455   1.888   2.777   2.225 -0.4388  0.5082  0.5783
 1347TIP3    H125456   1.806   2.790   2.178  0.2175  0.5278 -0.5912
 1347TIP3    H225457   1.880   2.834   2.302 -0.1749  3.2141 -1.2530
 1348TIP3   OH225458   5.451   5.109  10.929 -0.2049 -0.6452  0.8794
 1348TIP3    H125459   5.499   5.033  10.895 -0.1705 -0.2838  0.0843
 1348TIP3    H225460   5.361   5.094  10.901 -0.0714 -0.0542  0.0752
 1349TIP3   OH225461   6.476   5.096   2.952 -0.4955  0.8020  0.1786
 1349TIP3    H125462   6.540   5.026   2.968 -0.6172  0.4837 -0.6811
 1349TIP3    H225463   6.514   5.173   2.994 -0.7032  0.0666  1.7927
 1350TIP3   OH225464   2.422   6.123  15.525  0.2975 -0.1153 -0.1745
 1350TIP3    H125465   2.464   6.208  15.510  1.4148 -0.8063 -1.1424
 1350TIP3    H225466   2.472   6.083  15.596 -0.4630  0.1650  0.5405
 1351TIP3   OH225467   5.596   3.877  11.623 -0.6480 -0.1442 -0.1481
 1351TIP3    H125468   5.590   3.876  11.527  1.0391 -0.9653 -0.2786
 1351TIP3    H225469   5.548   3.799  11.650  1.2590 -1.5408 -0.5588
 1352TIP3   OH225470   3.063   5.346   0.750  0.5971 -0.3120 -0.0852
 1352TIP3    H125471   3.014   5.367   0.670 -1.1081  0.3499  1.0780
 1352TIP3    H225472   3.108   5.264   0.729  0.1339 -0.1961 -1.6987
 1353TIP3   OH225473   2.114   3.620   1.492 -0.0211  0.0675 -0.2166
 1353TIP3    H125474   2.194   3.572   1.512 -0.8013 -1.7851 -1.3371
 1353TIP3    H225475   2.144   3.691   1.435  0.8408 -0.5816 -0.5996
 1354TIP3   OH225476   3.972   5.498  11.164  0.2493  0.0742 -0.0547
 1354TIP3    H125477   3.982   5.413  11.122  2.3825 -0.4138  1.2682
 1354TIP3    H225478   4.060   5.535  11.165 -0.4258  1.7979  0.4611
 1355TIP3   OH225479   0.338   5.934  14.479  0.5178 -0.3983 -0.1397
 1355TIP3    H125480   0.276   5.954  14.550  0.1592  1.7039 -0.9652
 1355TIP3    H225481   0.390   6.014  14.471  1.6631 -1.2309 -1.1413
 1356TIP3   OH225482   6.396   0.680   3.371 -0.2774 -0.9117  0.2139
 1356TIP3    H125483   6.387   0.730   3.290 -2.0777 -0.9911  0.3231
 1356TIP3    H225484   6.432   0.744   3.434  0.0167 -0.5211 -0.3444
 1357TIP3   OH225485   0.071   2.177  13.582 -0.2496  0.2552  0.4588
 1357TIP3    H125486   0.003   2.167  13.649 -0.5773  1.2611  0.2923
 1357TIP3    H225487   0.145   2.217  13.629 -0.2502  0.3813  0.3517
 1358TIP3   OH225488   3.420   0.538   1.340 -0.2388  0.0892  0.0980
 1358TIP3    H125489   3.335   0.559   1.380 -0.0067 -0.7021  1.0522
 1358TIP3    H225490   3.402   0.533   1.247 -1.1415  0.4161  0.2430
 1359TIP3   OH225491   0.583   2.471   0.778 -0.3071  0.1253  0.2591
 1359TIP3    H125492   0.605   2.419   0.700  0.5473  0.7987  0.0380
 1359TIP3    H225493   0.618   2.419   0.851 -3.0374 -1.6229  0.4690
 1360TIP3   OH225494   4.367   1.538  12.200  0.0550  0.3976 -0.2602
 1360TIP3    H125495   4.308   1.611  12.179 -2.9432 -0.3124  4.2673
 1360TIP3    H225496   4.328   1.462  12.157  0.0970  0.5813 -0.6287
 1361TIP3   OH225497   6.758   2.946   0.450 -0.3298  0.4531  0.8327
 1361TIP3    H125498   6.738   2.891   0.374  0.8299  0.1598  0.7274
 1361TIP3    H225499   6.698   2.915   0.518 -1.0893  0.4368  0.1760
 1362TIP3   OH225500   6.520   2.363   4.346  0.0050 -0.2231  0.2776
 1362TIP3    H125501   6.451   2.415   4.305 -2.2048 -1.7053  1.8993
 1362TIP3    H225502   6.554   2.309   4.275 -0.8874  0.1496 -0.4604
 1363TIP3   OH225503   6.034   3.275  13.800 -0.2161 -0.4508 -0.9741
 1363TIP3    H125504   6.002   3.308  13.884  1.9203 -1.6396  0.4100
 1363TIP3    H225505   6.052   3.182  13.815  2.3519 -0.2172 -2.0092
 1364TIP3   OH225506   5.220   4.060  16.849  0.1584 -0.4845 -0.3814
 1364TIP3    H125507   5.203   3.968  16.871 -1.1973 -0.0888  0.4128
 1364TIP3    H225508   5.308   4.076  16.881  0.0235 -1.2513  0.4354
 1365TIP3   OH225509   5.410   4.078  15.000 -0.2027 -0.0147  0.2095
 1365TIP3    H125510   5.403   4.150  15.063 -0.2166  0.2945 -0.1378
 1365TIP3    H225511   5.323   4.071  14.962  0.2940  1.2437 -1.3144
 1366TIP3   OH225512   5.584   4.867  10.872  0.1691 -0.5037 -0.4579
 1366TIP3    H125513   5.674   4.900  10.881 -0.2507  0.2455  1.7929
 1366TIP3    H225514   5.571   4.815  10.951 -1.1759 -1.1077 -1.0689
 1367TIP3   OH225515   3.947   5.039  17.013 -0.5513  0.4306  0.0998
 1367TIP3    H125516   3.939   5.134  17.007  1.9113  0.6579 -0.8234
 1367TIP3    H225517   3.965   5.010  16.923 -0.3163 -0.7701  0.5088
 1368TIP3   OH225518   5.792   6.021   3.846 -0.0615 -0.1003  0.6816
 1368TIP3    H125519   5.865   6.080   3.827  0.9284 -1.4266  0.2456
 1368TIP3    H225520   5.792   5.958   3.773  1.3391 -2.9466  2.9341
 1369TIP3   OH225521   4.992   6.724   5.566 -0.7493  0.0504 -0.2713
 1369TIP3    H125522   4.947   6.660   5.620 -0.0006 -0.8470 -0.6617
 1369TIP3    H225523   5.085   6.713   5.589 -0.5614  0.6015 -0.7488
 1370TIP3   OH225524   1.184   3.046   1.196  0.7276 -0.1506 -0.0004
 1370TIP3    H125525   1.227   3.035   1.281 -0.4644  0.9846  0.8115
 1370TIP3    H225526   1.254   3.041   1.132  1.5639 -1.8031  0.9834
 1371TIP3   OH225527   1.380   3.550  15.116  0.3117 -0.0530  0.6244
 1371TIP3    H125528   1.366   3.643  15.138  1.0499 -0.4043  2.8961
 1371TIP3    H225529   1.473   3.546  15.091  0.2955 -0.1720  0.5843
 1372TIP3   OH225530   1.535   2.331  15.009 -0.6066 -0.6493 -0.1487
 1372TIP3    H125531   1.595   2.347  14.936 -0.2445  0.4666  0.3582
 1372TIP3    H225532   1.456   2.380  14.986  0.3443  1.6978  1.2128
 1373TIP3   OH225533   1.748   2.802   0.732 -0.2549 -0.2269  0.2010
 1373TIP3    H125534   1.676   2.740   0.720  0.2154 -0.7935  0.2934
 1373TIP3    H225535   1.772   2.794   0.824 -0.5570  0.5049  0.3538
 1374TIP3   OH225536   6.277   1.449   2.746 -0.0556 -0.1038 -0.3447
 1374TIP3    H125537   6.371   1.458   2.761  0.2003  1.6861 -2.5449
 1374TIP3    H225538   6.243   1.538   2.754 -1.8686 -0.8777  1.7446
 1375TIP3   OH225539   6.074   3.410  11.792 -0.2278  0.4084  0.0263
 1375TIP3    H125540   6.056   3.469  11.719  2.9123  1.4143 -0.1092
 1375TIP3    H225541   6.134   3.459  11.849  0.4256 -1.6968  1.2899
 1376TIP3   OH225542   2.416   3.554   1.921 -0.1168 -0.0111  0.3730
 1376TIP3    H125543   2.455   3.468   1.915 -1.2695 -0.4453 -2.2043
 1376TIP3    H225544   2.335   3.541   1.971 -0.6004 -0.5722 -0.5419
 1377TIP3   OH225545   5.855   4.950   2.647  0.1136 -0.2886  0.4418
 1377TIP3    H125546   5.892   4.898   2.576 -1.3157  1.2721 -1.5723
 1377TIP3    H225547   5.931   4.982   2.695  1.1292 -1.3843 -0.3611
 1378TIP3   OH225548   0.344   3.983   2.874 -0.2388 -0.1982 -0.5490
 1378TIP3    H125549   0.436   3.989   2.900 -0.2482 -1.0038 -0.2874
 1378TIP3    H225550   0.339   3.900   2.826 -0.7984 -0.0849 -0.6925
 1379TIP3   OH225551   1.239   2.461  10.623  0.2018  0.3023  0.0957
 1379TIP3    H125552   1.240   2.555  10.640  0.6907  0.5109 -1.0463
 1379TIP3    H225553   1.328   2.432  10.643 -0.1446 -0.0617  1.1625
 1380TIP3   OH225554   1.843   4.704  15.059 -0.3648  1.0375  0.5819
 1380TIP3    H125555   1.875   4.738  15.143 -0.4866 -1.4808  1.7391
 1380TIP3    H225556   1.748   4.715  15.064 -0.4297  0.2901  1.0726
 1381TIP3   OH225557   6.427   2.571   4.176 -0.1352 -0.2238 -0.4678
 1381TIP3    H125558   6.338   2.604   4.190 -0.0067 -0.6485  1.7225
 1381TIP3    H225559   6.429   2.543   4.084 -2.5536 -1.0730 -0.3177
 1382TIP3   OH225560   1.638   1.608  11.214 -0.0056 -0.2656 -0.2629
 1382TIP3    H125561   1.696   1.663  11.266  1.2638 -2.0568  0.3148
 1382TIP3    H225562   1.696   1.563  11.153 -1.2681  0.5520 -2.1461
 1383TIP3   OH225563   0.627   1.323   1.859  0.3080  0.2766 -0.5122
 1383TIP3    H125564   0.538   1.313   1.892 -0.0605  3.4911 -0.2166
 1383TIP3    H225565   0.673   1.372   1.927  1.2382  1.7622 -2.1200
 1384TIP3   OH225566   1.829   3.810  10.557  0.1740  0.1387 -0.2652
 1384TIP3    H125567   1.785   3.873  10.615 -0.4291 -1.0969  0.6772
 1384TIP3    H225568   1.875   3.864  10.493  0.0241  1.5432  0.7627
 1385TIP3   OH225569   4.283   1.039   5.120  0.1555 -0.1966 -0.5922
 1385TIP3    H125570   4.286   1.079   5.207 -0.2930 -0.7966 -0.2950
 1385TIP3    H225571   4.191   1.043   5.096  0.2978  0.0809 -1.0973
 1386TIP3   OH225572   0.504   3.414  10.799  0.1276 -0.0770  0.9877
 1386TIP3    H125573   0.475   3.473  10.729 -0.9224  0.7413  2.0653
 1386TIP3    H225574   0.597   3.400  10.783  0.4104  1.9084  0.7036
 1387TIP3   OH225575   1.715   1.276  16.950  0.3323 -0.0420  0.0236
 1387TIP3    H125576   1.638   1.331  16.943 -0.6836 -1.5083 -0.9577
 1387TIP3    H225577   1.787   1.336  16.968 -0.6298  1.6284 -1.5017
 1388TIP3   OH225578   0.471   3.542   0.549 -0.1647  0.1307  0.3872
 1388TIP3    H125579   0.565   3.530   0.564 -0.3931 -0.2263  1.5679
 1388TIP3    H225580   0.455   3.494   0.468  1.3169  3.1564 -1.9241
 1389TIP3   OH225581   5.531   0.562   5.526  0.5559 -0.0419 -0.1918
 1389TIP3    H125582   5.479   0.599   5.455 -1.2707  0.6861  1.4362
 1389TIP3    H225583   5.618   0.599   5.514  0.1522  0.4596 -1.7472
 1390TIP3   OH225584   3.879   3.948  16.973 -0.4691  0.0142 -0.0517
 1390TIP3    H125585   3.971   3.953  16.998 -0.7717  1.5257  0.9345
 1390TIP3    H225586   3.846   4.037  16.987 -1.8998 -0.3196 -1.1100
 1391TIP3   OH225587   1.584   1.333   4.556 -0.3375  0.7387 -0.1547
 1391TIP3    H125588   1.613   1.374   4.475  0.8813  0.1552 -0.0267
 1391TIP3    H225589   1.517   1.270   4.528 -0.1833  0.7975 -0.6667
 1392TIP3   OH225590   1.929   2.855   3.729  0.5504 -0.1953 -0.4232
 1392TIP3    H125591   1.854   2.827   3.781  1.1318  0.6446  0.9332
 1392TIP3    H225592   1.923   2.951   3.728  1.7301 -0.1007 -0.0527
 1393TIP3   OH225593   4.329   0.462  13.270 -0.1287  0.1812  0.1009
 1393TIP3    H125594   4.315   0.553  13.244  0.0045 -0.0013 -0.6434
 1393TIP3    H225595   4.241   0.425  13.278 -0.1815  0.3582  0.3581
 1394TIP3   OH225596   0.819   1.805  11.803 -0.0988  0.0550 -0.1573
 1394TIP3    H125597   0.754   1.803  11.732 -0.5734  1.2662  0.2211
 1394TIP3    H225598   0.809   1.719  11.846 -0.6642 -0.2104 -0.7961
 1395TIP3   OH225599   1.071   4.916  16.400 -0.2440  0.0824 -0.3706
 1395TIP3    H125600   0.999   4.872  16.356 -0.4114  0.4898 -0.5065
 1395TIP3    H225601   1.074   4.876  16.487  0.8027 -1.5121 -1.1042
 1396TIP3   OH225602   4.844   0.617   6.223 -0.2997 -1.0148  0.2873
 1396TIP3    H125603   4.911   0.679   6.195 -0.4104 -0.8966  0.2843
 1396TIP3    H225604   4.767   0.671   6.240  0.0748 -0.9380  1.8967
 1397TIP3   OH225605   5.088   2.947   0.320 -0.1604  0.0366  0.3312
 1397TIP3    H125606   5.147   3.005   0.368 -1.5239  2.2240 -0.4824
 1397TIP3    H225607   5.046   2.893   0.387 -0.5427  1.6039  1.3945
 1398TIP3   OH225608   2.792   3.097  13.249  0.2658  0.6394  0.8285
 1398TIP3    H125609   2.700   3.080  13.272 -0.4732 -0.1155 -2.2128
 1398TIP3    H225610   2.820   3.018  13.203  2.1241  1.2818  0.7886
 1399TIP3   OH225611   4.802   3.315   2.481 -0.1599  0.8212 -0.1320
 1399TIP3    H125612   4.805   3.400   2.438  0.0973  0.9983  0.2331
 1399TIP3    H225613   4.867   3.321   2.551  0.9261 -0.1734 -1.0133
 1400TIP3   OH225614   3.633   4.662  14.527 -0.1938  0.3872  0.3223
 1400TIP3    H125615   3.675   4.623  14.604 -0.3391 -0.4790 -0.0164
 1400TIP3    H225616   3.685   4.629  14.453 -1.7373 -1.1337 -0.1412
 1401TIP3   OH225617   5.766   6.189   1.483 -0.0908 -0.9238  0.0654
 1401TIP3    H125618   5.758   6.284   1.491  0.7625 -0.9748  2.0445
 1401TIP3    H225619   5.860   6.172   1.478 -0.2655 -1.6102 -1.8010
 1402TIP3   OH225620   6.586   0.364   1.347  0.3995 -0.1070 -0.2163
 1402TIP3    H125621   6.670   0.325   1.371  0.6930 -0.0079 -1.0464
 1402TIP3    H225622   6.591   0.374   1.252  0.2973  1.8211 -0.0673
 1403TIP3   OH225623   4.669   0.099   3.881  0.6208  0.1184 -0.0058
 1403TIP3    H125624   4.724   0.021   3.886  1.5590  0.7798  0.1854
 1403TIP3    H225625   4.719   0.166   3.927 -0.5341  0.6331  0.5416
 1404TIP3   OH225626   1.239   2.703   0.456 -0.2617 -0.1596 -0.3872
 1404TIP3    H125627   1.313   2.661   0.412  1.3540  1.7075  0.4526
 1404TIP3    H225628   1.238   2.664   0.543  0.9471  1.1124  0.2326
 1405TIP3   OH225629   0.097   2.204   1.406 -0.1843 -0.0874 -0.4897
 1405TIP3    H125630   0.004   2.206   1.431 -0.0718 -1.1539  0.0734
 1405TIP3    H225631   0.143   2.232   1.485  0.0924 -2.0864  0.1278
 1406TIP3   OH225632   4.081   2.333  13.164 -0.8297  0.0405  0.1762
 1406TIP3    H125633   4.084   2.417  13.119 -0.8023 -0.1769 -0.2397
 1406TIP3    H225634   4.113   2.270  13.099 -2.5134 -0.5495 -0.1425
 1407TIP3   OH225635   4.768   2.129   4.256 -0.2123  0.4907  0.5585
 1407TIP3    H125636   4.837   2.167   4.201 -2.8248  0.3732 -3.1800
 1407TIP3    H225637   4.744   2.199   4.316  0.8665  1.7331 -0.3988
 1408TIP3   OH225638   1.280   4.454   3.834  0.0239  0.5580  0.5192
 1408TIP3    H125639   1.265   4.545   3.808 -0.4153  0.2421 -0.3935
 1408TIP3    H225640   1.206   4.407   3.798  0.9801 -0.3818 -0.2901
 1409TIP3   OH225641   3.647   2.176   2.688  0.0465  0.5498 -0.1414
 1409TIP3    H125642   3.705   2.225   2.747  1.1998 -0.9198  0.0003
 1409TIP3    H225643   3.637   2.091   2.729 -1.7547  0.5654 -0.4895
 1410TIP3   OH225644   1.427   2.207   2.167  0.2329 -0.3634 -0.5394
 1410TIP3    H125645   1.507   2.154   2.157  1.8893  1.7422  0.6527
 1410TIP3    H225646   1.429   2.268   2.093  0.5949  0.6996  0.3203
 1411TIP3   OH225647   3.432   4.479  11.658 -0.2121  0.1868 -0.2566
 1411TIP3    H125648   3.528   4.480  11.656 -0.1735 -0.9907  0.2191
 1411TIP3    H225649   3.407   4.429  11.581 -0.4510  0.5695 -0.4295
 1412TIP3   OH225650   4.719   0.714   0.604 -0.2133 -0.2928  0.3870
 1412TIP3    H125651   4.809   0.690   0.584 -0.3728  0.0319 -0.8107
 1412TIP3    H225652   4.717   0.724   0.699  0.5301 -2.2664  0.6622
 1413TIP3   OH225653   4.670   0.879   0.205 -0.4723 -0.4444 -0.5079
 1413TIP3    H125654   4.614   0.873   0.283  2.3871 -1.8096  1.5963
 1413TIP3    H225655   4.688   0.788   0.181  2.7487 -0.1716  0.4463
 1414TIP3   OH225656   3.380   1.898  13.767 -0.3073  0.4862  0.0284
 1414TIP3    H125657   3.384   1.832  13.699  1.3529  3.0796 -2.6406
 1414TIP3    H225658   3.299   1.947  13.749 -0.7362  0.1944  1.0385
 1415TIP3   OH225659   6.655   6.461   4.224 -0.4629  0.3750 -0.5224
 1415TIP3    H125660   6.600   6.530   4.261  1.0850  0.6368  1.4331
 1415TIP3    H225661   6.694   6.500   4.146  1.4751  2.2996  1.2922
 1416TIP3   OH225662   0.149   2.105  12.182  0.3162  0.1249 -0.1311
 1416TIP3    H125663   0.200   2.175  12.141  0.5299  0.0270 -0.0352
 1416TIP3    H225664   0.114   2.055  12.108  0.4551  0.1233 -0.1957
 1417TIP3   OH225665   6.452   2.838  14.272  0.1843 -0.2711  0.3256
 1417TIP3    H125666   6.438   2.873  14.184  1.3256  2.4613  1.1161
 1417TIP3    H225667   6.516   2.769  14.260  0.5976  0.3030 -0.9740
 1418TIP3   OH225668   2.838   6.601  14.530  0.1188 -0.1275  0.9767
 1418TIP3    H125669   2.867   6.519  14.571  0.5395 -0.4358  0.0917
 1418TIP3    H225670   2.746   6.586  14.509  0.7031 -1.2385 -1.1371
 1419TIP3   OH225671   2.182   5.021   4.387  0.2323  0.0002  0.1222
 1419TIP3    H125672   2.201   5.037   4.479 -1.6746 -0.5126  0.6494
 1419TIP3    H225673   2.221   4.935   4.369  1.0818  0.3458  0.2872
 1420TIP3   OH225674   6.027   2.833  15.620  0.0187  0.5197  0.1416
 1420TIP3    H125675   5.971   2.784  15.560 -0.3316  0.3250  0.6149
 1420TIP3    H225676   5.985   2.822  15.706  0.2377  1.1985  0.3405
 1421TIP3   OH225677   0.186   3.776  16.821  0.1760  0.5224  0.2385
 1421TIP3    H125678   0.244   3.812  16.888 -1.2795 -3.4532  4.0923
 1421TIP3    H225679   0.223   3.691  16.799 -1.9363 -0.3226 -0.3447
 1422TIP3   OH225680   3.136   6.644  15.994  0.1202 -0.1726  0.4516
 1422TIP3    H125681   3.226   6.622  16.021  0.0429  0.6263  1.4423
 1422TIP3    H225682   3.147   6.717  15.933  0.2316 -1.2994 -0.9313
 1423TIP3   OH225683   1.434   1.177  16.687  0.3778  0.2829  0.5466
 1423TIP3    H125684   1.521   1.142  16.668 -0.0423 -0.1122 -0.7513
 1423TIP3    H225685   1.441   1.270  16.669  1.0051  0.6132  2.2531
 1424TIP3   OH225686   1.256   0.151   1.044  0.6211  0.3870  0.0431
 1424TIP3    H125687   1.199   0.115   0.976  0.8376  1.8674 -0.9692
 1424TIP3    H225688   1.318   0.081   1.063 -0.6126 -0.7303  0.1088
 1425TIP3   OH225689   4.963   6.796  14.343  0.3706 -0.2061 -0.5834
 1425TIP3    H125690   4.878   6.801  14.299 -0.5926  1.0656  1.3092
 1425TIP3    H225691   5.016   6.739  14.286 -1.1029  0.5125 -2.8064
 1426TIP3   OH225692   1.276   5.518  11.976  0.3044  0.1922  0.1837
 1426TIP3    H125693   1.197   5.539  12.025 -1.1399  2.6253 -2.8611
 1426TIP3    H225694   1.346   5.562  12.024 -0.5594  0.2567  1.4524
 1427TIP3   OH225695   5.004   2.599   1.723  0.1581  0.2005  0.4540
 1427TIP3    H125696   5.064   2.651   1.669 -0.7432  0.8050  0.0066
 1427TIP3    H225697   5.061   2.554   1.785  1.0777  0.7440  0.0327
 1428TIP3   OH225698   3.831   2.671   2.814 -0.6018 -0.2075  0.4018
 1428TIP3    H125699   3.771   2.601   2.787 -1.5098  0.3875  0.8265
 1428TIP3    H225700   3.775   2.748   2.823  0.1724  0.2848  1.1429
 1429TIP3   OH225701   2.079   0.902  12.109  0.2776 -0.4590 -0.2322
 1429TIP3    H125702   2.131   0.957  12.167 -0.2688  0.5797 -0.7059
 1429TIP3    H225703   2.143   0.846  12.065  0.8906  0.1268 -0.0967
 1430TIP3   OH225704   4.901   5.975   4.839 -0.3133 -0.2717 -0.5956
 1430TIP3    H125705   4.985   5.940   4.809  0.1101 -0.0776  0.3176
 1430TIP3    H225706   4.863   5.903   4.890 -0.3703 -0.1049 -0.4040
 1431TIP3   OH225707   0.575   2.352   1.730  0.3374 -0.2497 -0.3588
 1431TIP3    H125708   0.534   2.368   1.646  0.7262 -0.0919 -0.5197
 1431TIP3    H225709   0.654   2.405   1.729 -1.4645  2.7968  1.5771
 1432TIP3   OH225710   6.686   1.375  15.048  0.1200  0.5513  0.5317
 1432TIP3    H125711   6.687   1.346  14.957 -3.2505 -2.2651  1.1829
 1432TIP3    H225712   6.654   1.465  15.045 -1.8558 -0.1448 -1.0224
 1433TIP3   OH225713   4.032   4.818  11.740  0.7892  0.7370 -0.5501
 1433TIP3    H125714   4.109   4.844  11.790  0.1177 -0.8924  1.4787
 1433TIP3    H225715   3.972   4.892  11.746  0.4304  0.3264  1.7913
 1434TIP3   OH225716   2.155   1.815   0.073 -0.6593  0.1766  0.4116
 1434TIP3    H125717   2.193   1.854   0.152  0.6196  0.9879 -0.5723
 1434TIP3    H225718   2.093   1.750   0.106  0.1189  0.2373  2.0863
 1435TIP3   OH225719   6.200   6.471   0.050  0.8386 -0.0477  0.5566
 1435TIP3    H125720   6.162   6.407   0.111 -2.2264 -0.0674 -1.1788
 1435TIP3    H225721   6.222   6.420  -0.028  2.0406  0.4286  0.5695
 1436TIP3   OH225722   2.433   4.641  10.982 -0.0852 -0.4447  0.2726
 1436TIP3    H125723   2.448   4.584  10.907 -1.4658  0.2454 -0.5756
 1436TIP3    H225724   2.341   4.628  11.004 -0.2447  0.9127  0.5028
 1437TIP3   OH225725   6.212   5.580   1.200 -0.1319  0.7268 -0.5484
 1437TIP3    H125726   6.145   5.539   1.146 -0.2261 -0.1030  0.1724
 1437TIP3    H225727   6.260   5.637   1.140  1.1415 -1.7562 -2.0235
 1438TIP3   OH225728   6.408   3.446  11.938  0.0271  0.0159 -0.4655
 1438TIP3    H125729   6.349   3.398  11.996  2.5613 -0.8684  1.5880
 1438TIP3    H225730   6.454   3.378  11.889  1.8202  0.3949  0.6013
 1439TIP3   OH225731   2.192   0.366  12.803 -0.5475  0.1357 -0.2286
 1439TIP3    H125732   2.235   0.417  12.735 -2.2620  0.4228 -1.1597
 1439TIP3    H225733   2.135   0.306  12.755 -2.1082  0.6186  0.9327
 1440TIP3   OH225734   1.704   5.135  11.571  0.2630  0.0772 -0.4244
 1440TIP3    H125735   1.729   5.136  11.663  1.2923  1.5650 -0.6686
 1440TIP3    H225736   1.626   5.191  11.567  0.8073  0.8503 -0.5684
 1441TIP3   OH225737   5.226   5.807   4.871 -0.2083 -0.5620  0.3112
 1441TIP3    H125738   5.193   5.805   4.961 -1.7643  0.1134 -0.2040
 1441TIP3    H225739   5.188   5.730   4.829 -1.0944  0.1762 -0.2698
 1442TIP3   OH225740   3.413   0.548   4.465 -0.0565  0.3406  0.0491
 1442TIP3    H125741   3.437   0.493   4.540  0.7018  0.3397 -0.1779
 1442TIP3    H225742   3.338   0.505   4.426  0.6567 -0.6707 -0.2548
 1443TIP3   OH225743   6.762   6.710  13.441 -0.5864  0.0033  0.1546
 1443TIP3    H125744   6.737   6.623  13.471  3.5297 -0.9816  1.2632
 1443TIP3    H225745   6.735   6.769  13.511 -1.9313 -0.5187  0.1192
 1444TIP3   OH225746   2.387   2.872   5.793  0.3986 -1.1486 -0.0182
 1444TIP3    H125747   2.440   2.948   5.768  1.0609 -2.4771 -3.1606
 1444TIP3    H225748   2.448   2.798   5.790 -0.7877 -2.1833  0.3167
 1445TIP3   OH225749   6.229   5.327  12.450  0.2562 -0.6596  0.5144
 1445TIP3    H125750   6.276   5.317  12.367 -0.6747 -1.2253  0.0235
 1445TIP3    H225751   6.277   5.272  12.512  0.0903 -1.4659 -0.0517
 1446TIP3   OH225752   4.522   6.255   1.876  0.0821 -0.4086  0.4154
 1446TIP3    H125753   4.609   6.238   1.841  0.0441 -0.7806  0.4876
 1446TIP3    H225754   4.537   6.306   1.955  0.2688 -0.8400  0.6647
 1447TIP3   OH225755   4.572   4.645  13.643  0.1687  0.2367 -0.1564
 1447TIP3    H125756   4.524   4.695  13.709  1.3791  0.0555  0.8980
 1447TIP3    H225757   4.508   4.630  13.573  0.0555  4.2618 -1.1191
 1448TIP3   OH225758   5.455   5.546  11.825  0.1593 -0.1878  0.0159
 1448TIP3    H125759   5.496   5.554  11.911  0.5869  1.6419 -0.3123
 1448TIP3    H225760   5.513   5.488  11.776 -0.0633 -1.2153  0.9155
 1449TIP3   OH225761   2.343   3.384   1.080  0.2635  0.0965  0.4685
 1449TIP3    H125762   2.310   3.447   1.015 -1.2881  0.5435  1.6257
 1449TIP3    H225763   2.295   3.303   1.062 -1.7656  0.7959  2.2631
 1450TIP3   OH225764   4.016   5.295  13.995  0.4170 -0.0087 -0.7682
 1450TIP3    H125765   4.079   5.223  13.992  2.1193  1.4069 -1.0655
 1450TIP3    H225766   4.071   5.374  13.994 -1.2935  1.3035  1.0039
 1451TIP3   OH225767   6.634   6.500  11.137  0.0846  0.1568 -0.2377
 1451TIP3    H125768   6.702   6.454  11.088  0.6841  2.5303 -1.8196
 1451TIP3    H225769   6.681   6.541  11.210  0.0501  0.4341 -0.3703
 1452TIP3   OH225770   4.380   5.079  16.671 -0.2326 -1.0126 -0.0300
 1452TIP3    H125771   4.320   5.080  16.596  1.5746 -1.0998 -1.5595
 1452TIP3    H225772   4.370   4.992  16.709 -1.0532 -1.0226 -0.2511
 1453TIP3   OH225773   4.076   4.826  15.607 -0.5338  0.1031 -0.2278
 1453TIP3    H125774   3.982   4.818  15.626 -0.0373 -3.4751  1.4931
 1453TIP3    H225775   4.119   4.799  15.688  1.9793  0.2928 -1.4132
 1454TIP3   OH225776   6.172   1.162  14.323  0.8826  0.6423 -0.0419
 1454TIP3    H125777   6.094   1.191  14.370  0.0966  1.6825 -1.8769
 1454TIP3    H225778   6.184   1.071  14.348  0.0968  0.9546  1.5719
 1455TIP3   OH225779   1.243   6.423   1.492  0.1955  0.7078 -0.2517
 1455TIP3    H125780   1.291   6.379   1.563 -0.1892  2.3733  1.1244
 1455TIP3    H225781   1.154   6.389   1.499  0.4496 -0.0915 -0.7974
 1456TIP3   OH225782   1.777   2.760  13.530  0.5006 -0.0451 -0.3534
 1456TIP3    H125783   1.873   2.769  13.532  0.5953 -0.8561 -0.5666
 1456TIP3    H225784   1.763   2.666  13.522 -0.2992  0.1270 -1.1948
 1457TIP3   OH225785   0.630   4.998  11.994 -0.3382 -0.0996  0.1417
 1457TIP3    H125786   0.647   5.066  12.058 -1.3364 -0.3998  0.7491
 1457TIP3    H225787   0.547   5.023  11.953 -1.4923 -1.6650  1.4022
 1458TIP3   OH225788   5.470   2.668   3.711  0.1988  0.0655 -0.4083
 1458TIP3    H125789   5.458   2.602   3.643 -1.3973 -0.0194 -0.1022
 1458TIP3    H225790   5.440   2.625   3.791  1.3499  0.4071  0.2239
 1459TIP3   OH225791   6.427   3.937  16.639 -0.4129  0.7297 -0.4196
 1459TIP3    H125792   6.375   3.900  16.567 -1.8925  1.0614  0.4336
 1459TIP3    H225793   6.464   4.017  16.602 -1.2086  0.9310 -0.8036
 1460TIP3   OH225794   2.045   5.291   4.981  0.4906  0.2246 -0.0491
 1460TIP3    H125795   1.957   5.297   4.943 -0.3481  0.9456  1.8149
 1460TIP3    H225796   2.074   5.202   4.963 -0.4677  0.0848 -1.0085
 1461TIP3   OH225797   6.720   0.989  11.990  0.3866 -0.4399  0.3752
 1461TIP3    H125798   6.797   1.031  12.028  0.1013  0.2628  0.1960
 1461TIP3    H225799   6.683   0.937  12.062  0.4863 -0.0134  0.7389
 1462TIP3   OH225800   3.929   0.060   2.949 -0.3478  0.3691 -0.4276
 1462TIP3    H125801   4.011   0.096   2.985  0.1857 -0.4797 -0.7750
 1462TIP3    H225802   3.869   0.135   2.949  0.2067  0.8383  0.4835
 1463TIP3   OH225803   3.956   5.001  12.008  0.1617 -0.4205 -0.7798
 1463TIP3    H125804   4.015   4.996  12.083 -1.0869  1.2849  0.3900
 1463TIP3    H225805   3.916   4.914  12.003  1.7864 -1.1938 -0.8019
 1464TIP3   OH225806   5.936   4.355  15.462 -0.1721  0.2002 -0.1267
 1464TIP3    H125807   5.862   4.403  15.498 -0.5324  2.2818 -3.2532
 1464TIP3    H225808   5.916   4.263  15.479 -3.1524  0.7509 -0.2414
 1465TIP3   OH225809   4.342   3.036   0.137  0.0160  0.0171 -0.5096
 1465TIP3    H125810   4.342   3.127   0.109 -1.9619  0.2709  0.1310
 1465TIP3    H225811   4.379   3.037   0.225  0.7687  0.0772 -0.8263
 1466TIP3   OH225812   5.760   4.928  14.300  0.6308  0.1210  0.0898
 1466TIP3    H125813   5.665   4.934  14.303  0.7203  2.1479 -0.0176
 1466TIP3    H225814   5.791   5.014  14.328  2.4485 -0.6079  0.4891
 1467TIP3   OH225815   1.279   4.047  15.979  0.6249  0.3236 -0.1032
 1467TIP3    H125816   1.193   4.039  15.939 -0.4687  0.7396  2.0476
 1467TIP3    H225817   1.316   3.958  15.974 -0.5640 -0.2118  0.2689
 1468TIP3   OH225818   2.794   4.032  16.034  0.2965  0.2906 -0.0201
 1468TIP3    H125819   2.704   4.046  16.006  0.5905  1.6990 -0.3528
 1468TIP3    H225820   2.796   4.059  16.125  0.2389 -0.4506  0.2129
 1469TIP3   OH225821   5.698   4.314  15.260  0.2981 -0.0428  0.1686
 1469TIP3    H125822   5.696   4.352  15.173  1.2207 -1.8822 -0.7171
 1469TIP3    H225823   5.682   4.387  15.319  0.2343  1.3482 -1.5044
 1470TIP3   OH225824   6.386   1.224   1.002  0.2014  0.3042  0.8812
 1470TIP3    H125825   6.309   1.199   0.950 -0.2313  0.0861  1.6188
 1470TIP3    H225826   6.380   1.171   1.081  0.5939  0.9995  1.3849
 1471TIP3   OH225827   6.220   2.359  16.925  0.2507  0.4014  0.2238
 1471TIP3    H125828   6.146   2.307  16.955 -1.0453  0.9406 -1.8398
 1471TIP3    H225829   6.259   2.308  16.855  0.2572  1.2339 -0.3988
 1472TIP3   OH225830   1.828   1.153  13.628 -0.2435  0.6766  0.1560
 1472TIP3    H125831   1.772   1.085  13.665  0.1664 -0.3559 -1.0546
 1472TIP3    H225832   1.886   1.178  13.700 -0.0165 -0.6710  0.4715
 1473TIP3   OH225833   6.724   6.794  15.788 -0.2404 -0.3538  0.0382
 1473TIP3    H125834   6.809   6.821  15.754  0.1374 -1.3662  0.1549
 1473TIP3    H225835   6.679   6.757  15.712 -0.2804 -0.5227  0.1439
 1474TIP3   OH225836   3.851   0.232   5.515  0.0874  0.1126  0.1398
 1474TIP3    H125837   3.894   0.308   5.475 -0.5322  0.3182 -0.1507
 1474TIP3    H225838   3.868   0.241   5.609  1.5841 -0.3894 -0.0480
 1475TIP3   OH225839   4.068   5.177   4.751  0.2995  0.1296 -0.4123
 1475TIP3    H125840   3.977   5.193   4.725  0.5392  0.1262 -1.2963
 1475TIP3    H225841   4.069   5.188   4.846 -0.5271  0.5895 -0.4518
 1476TIP3   OH225842   0.281   5.368   4.978 -0.5140  0.2902  0.1688
 1476TIP3    H125843   0.276   5.345   5.071  1.4180 -0.7539  0.0536
 1476TIP3    H225844   0.313   5.458   4.978 -0.7667  0.3837  0.5036
 1477TIP3   OH225845   5.345   1.477   1.578  0.8796 -0.4750  0.8447
 1477TIP3    H125846   5.356   1.556   1.631  2.4995  0.5674 -0.9195
 1477TIP3    H225847   5.426   1.428   1.590  2.0454  0.5987 -1.8207
 1478TIP3   OH225848   4.890   3.845   2.524 -0.2509 -0.1949  0.3306
 1478TIP3    H125849   4.829   3.778   2.554  0.2968 -1.0560 -0.3952
 1478TIP3    H225850   4.959   3.846   2.591  1.5094 -2.8515 -1.2334
 1479TIP3   OH225851   1.280   3.033   5.739  0.0635  0.2454  0.3493
 1479TIP3    H125852   1.207   3.081   5.701 -0.4301  0.2767  1.3054
 1479TIP3    H225853   1.290   2.955   5.683  0.8127  1.3712 -1.1545
 1480TIP3   OH225854   0.535   0.091  11.406  0.1374  0.1031 -0.9185
 1480TIP3    H125855   0.533   0.171  11.354 -0.4895 -0.6511 -2.1022
 1480TIP3    H225856   0.603   0.038  11.365 -0.8597 -0.7954 -1.4721
 1481TIP3   OH225857   3.011   0.045   2.219 -0.2275  0.2194  0.3967
 1481TIP3    H125858   3.038  -0.045   2.231 -0.1532  0.2432  0.4073
 1481TIP3    H225859   3.071   0.080   2.153 -1.8372 -0.4742 -1.5438
 1482TIP3   OH225860   0.686   1.190  12.836  0.3244 -0.1549  0.5239
 1482TIP3    H125861   0.692   1.281  12.805 -1.1287 -0.3509 -0.4036
 1482TIP3    H225862   0.753   1.144  12.785 -0.8262 -0.1188 -1.0939
 1483TIP3   OH225863   2.995   4.220   3.926 -0.0789  0.5501 -0.2266
 1483TIP3    H125864   2.951   4.137   3.945  0.6463  0.3236  0.5196
 1483TIP3    H225865   2.950   4.284   3.980  1.3333  0.0798  1.6297
 1484TIP3   OH225866   0.262   0.903  11.250  0.6080  0.7026 -0.1277
 1484TIP3    H125867   0.266   0.967  11.179 -0.8996  1.1947  0.1941
 1484TIP3    H225868   0.353   0.882  11.269  1.0566  1.2339 -1.6011
 1485TIP3   OH225869   2.163   5.965   2.615 -0.2390 -0.2062 -0.1817
 1485TIP3    H125870   2.100   5.916   2.669 -2.0143 -2.0899 -3.6144
 1485TIP3    H225871   2.242   5.912   2.619 -0.4891 -0.5695  0.1974
 1486TIP3   OH225872   0.946   4.984   4.525  0.1383  0.1157  0.1479
 1486TIP3    H125873   0.881   4.961   4.458 -0.2803  0.3634  0.4645
 1486TIP3    H225874   0.981   5.068   4.496  0.7568 -0.2998 -0.3396
 1487TIP3   OH225875   6.312   0.536  14.550  0.5245  0.2790  0.0549
 1487TIP3    H125876   6.259   0.487  14.487  0.4905  1.1300 -0.5919
 1487TIP3    H225877   6.402   0.509  14.532  0.6377  1.3817 -1.1721
 1488TIP3   OH225878   1.024   2.793   5.055  0.2821 -0.8039 -0.1289
 1488TIP3    H125879   1.020   2.748   4.970 -1.6521 -1.0396  0.0404
 1488TIP3    H225880   0.933   2.820   5.072  0.7578 -0.1361  1.5425
 1489TIP3   OH225881   4.165   5.135  13.461  0.2858 -0.3999  0.2345
 1489TIP3    H125882   4.192   5.198  13.395 -1.1109  0.4670  0.4591
 1489TIP3    H225883   4.085   5.096  13.427  0.4313 -1.1359  0.6900
 1490TIP3   OH225884   1.572   4.973  13.590 -0.3295  0.5493 -0.0313
 1490TIP3    H125885   1.479   4.988  13.609 -0.5157 -0.5668  0.0024
 1490TIP3    H225886   1.584   5.011  13.503 -0.3315  2.4336  0.7293
 1491TIP3   OH225887   4.716   2.684   2.181  0.1580 -0.6181  0.2139
 1491TIP3    H125888   4.771   2.716   2.252 -0.7550 -1.5541  1.3801
 1491TIP3    H225889   4.732   2.746   2.109  0.8645  0.5464  1.3254
 1492TIP3   OH225890   5.268   6.706  14.200  0.2675  0.7232 -0.4009
 1492TIP3    H125891   5.329   6.670  14.136  1.5580  0.3424  0.9956
 1492TIP3    H225892   5.181   6.685  14.165  0.9480 -0.7603 -1.2915
 1493TIP3   OH225893   6.347   3.196   4.316  0.2105 -0.0026 -0.1133
 1493TIP3    H125894   6.345   3.262   4.247  0.4347  0.6741  0.5277
 1493TIP3    H225895   6.286   3.228   4.382  4.3101  2.5207  2.8614
 1494TIP3   OH225896   3.136   4.122  13.849 -0.0346  0.0242  0.3308
 1494TIP3    H125897   3.155   4.037  13.890 -0.7880  0.2800  1.2445
 1494TIP3    H225898   3.040   4.123  13.840 -0.0064  0.6617  0.0697
 1495TIP3   OH225899   6.565   0.453   3.715 -0.5160  0.1875 -0.2496
 1495TIP3    H125900   6.614   0.533   3.737 -0.6019  0.3244 -0.5513
 1495TIP3    H225901   6.632   0.387   3.701 -0.4810 -0.4238  2.3332
 1496TIP3   OH225902   1.125   1.549   4.126 -0.1701 -0.3136 -0.2807
 1496TIP3    H125903   1.179   1.475   4.098 -1.0085 -1.6156  1.3384
 1496TIP3    H225904   1.041   1.510   4.149 -1.3201  1.4462 -1.2474
 1497TIP3   OH225905   0.850   4.963   3.093 -0.0433 -0.4385  0.7262
 1497TIP3    H125906   0.853   5.054   3.121 -1.1943  0.2243 -1.0873
 1497TIP3    H225907   0.879   4.965   3.002 -1.0442 -1.7223  0.3443
 1498TIP3   OH225908   4.374   5.688  16.977 -0.5281  0.1484 -0.6745
 1498TIP3    H125909   4.433   5.614  16.987  0.5946  0.9282 -1.3599
 1498TIP3    H225910   4.314   5.680  17.051  2.0832  0.8333  1.6953
 1499TIP3   OH225911   5.507   2.294   4.152  0.0911  0.0848 -0.1133
 1499TIP3    H125912   5.553   2.227   4.103 -0.9552 -0.4460 -0.4141
 1499TIP3    H225913   5.539   2.284   4.242  0.2726 -0.5295 -0.2393
 1500TIP3   OH225914   1.703   2.055   1.777 -0.0868  0.4875  0.7891
 1500TIP3    H125915   1.667   1.967   1.781  1.4239 -0.1837  0.3585
 1500TIP3    H225916   1.796   2.042   1.756 -0.2332  2.2477 -1.2387
 1501TIP3   OH225917   0.478   2.835   4.870 -0.0367  0.3189 -0.0972
 1501TIP3    H125918   0.452   2.778   4.943 -1.3834  1.1542  0.1130
 1501TIP3    H225919   0.573   2.841   4.878 -0.0336 -0.5823  0.8570
 1502TIP3   OH225920   1.826   6.321   3.614 -0.1523  0.0846 -0.4719
 1502TIP3    H125921   1.902   6.378   3.625  0.0517 -0.2796  0.1209
 1502TIP3    H225922   1.847   6.266   3.539  0.4531 -0.4205  0.0471
 1503TIP3   OH225923   0.650   2.963   4.609 -0.3534 -0.1429 -0.1161
 1503TIP3    H125924   0.683   3.042   4.650 -3.8304  0.4805  1.7671
 1503TIP3    H225925   0.653   2.896   4.678 -2.3601 -0.2042 -0.0490
 1504TIP3   OH225926   1.664   5.382   5.945  0.5522  0.2935 -0.0711
 1504TIP3    H125927   1.749   5.388   5.989  0.6800  0.6442 -0.3642
 1504TIP3    H225928   1.650   5.469   5.909 -0.2803  0.4560  0.6048
 1505TIP3   OH225929   5.500   3.923   5.024  0.3641 -0.2261 -0.3373
 1505TIP3    H125930   5.419   3.902   5.069  0.5751  0.0709  0.1861
 1505TIP3    H225931   5.541   3.838   5.006 -0.5584 -0.4450 -1.5660
 1506TIP3   OH225932   5.859   4.581   5.478  0.1293 -0.4995 -0.2261
 1506TIP3    H125933   5.939   4.613   5.521 -0.9385  1.5637  0.3885
 1506TIP3    H225934   5.831   4.654   5.423 -0.9678 -1.4472 -0.9698
 1507TIP3   OH225935   3.115   0.331  12.146 -0.0733 -0.7299  0.2317
 1507TIP3    H125936   3.084   0.259  12.200 -0.1743 -1.4978 -0.8076
 1507TIP3    H225937   3.036   0.379  12.123 -0.2439 -1.3450 -0.5275
 1508TIP3   OH225938   0.412   5.612   3.319 -0.2575  0.0231 -0.5653
 1508TIP3    H125939   0.483   5.568   3.273  1.0130  2.2678 -0.9182
 1508TIP3    H225940   0.344   5.622   3.253  0.0546 -0.0715 -0.9079
 1509TIP3   OH225941   1.442   1.423   3.752  0.5566 -0.2272 -0.2730
 1509TIP3    H125942   1.506   1.451   3.686  0.8966 -0.2786  0.0303
 1509TIP3    H225943   1.362   1.406   3.702  1.2932 -1.9857 -0.9669
 1510TIP3   OH225944   0.089   0.537   1.493 -0.5137 -0.6090 -0.2401
 1510TIP3    H125945   0.108   0.444   1.504  1.7271 -0.0950  0.8844
 1510TIP3    H225946   0.122   0.577   1.573  0.6314  1.3917 -1.6242
 1511TIP3   OH225947   1.453   0.649  11.394  0.5884  0.2027  0.2923
 1511TIP3    H125948   1.406   0.591  11.453  2.2141 -1.2174  0.2830
 1511TIP3    H225949   1.442   0.736  11.431 -2.1494  0.0027  0.1657
 1512TIP3   OH225950   6.811   3.772   0.646 -0.0024  0.2616  0.2029
 1512TIP3    H125951   6.799   3.867   0.640 -1.2178  0.0285 -1.9524
 1512TIP3    H225952   6.731   3.740   0.687 -0.3677  0.0173 -0.6927
 1513TIP3   OH225953   3.357   6.240  12.297  0.0054  0.3531 -0.1162
 1513TIP3    H125954   3.342   6.333  12.283  0.9210  1.0983  2.9456
 1513TIP3    H225955   3.451   6.233  12.313 -0.1561 -0.9688  0.4267
 1514TIP3   OH225956   2.598   1.197   2.385 -0.4920 -0.3449 -0.4288
 1514TIP3    H125957   2.658   1.185   2.459 -0.6414  0.2307 -0.2127
 1514TIP3    H225958   2.635   1.270   2.335 -0.3704 -0.7535 -0.9490
 1515TIP3   OH225959   1.257   1.397   5.072 -0.9719 -0.5079 -0.1926
 1515TIP3    H125960   1.344   1.364   5.095 -1.0203 -1.0038 -0.7164
 1515TIP3    H225961   1.227   1.442   5.151 -0.6756 -1.2503  0.3532
 1516TIP3   OH225962   2.166   5.143  11.374  0.0756 -0.0646  0.3468
 1516TIP3    H125963   2.170   5.233  11.407  1.5108 -0.7062  2.0809
 1516TIP3    H225964   2.245   5.134  11.321 -1.2936  0.3894 -1.8804
 1517TIP3   OH225965   6.717   0.163   5.604  0.5257 -0.2301 -0.4461
 1517TIP3    H125966   6.676   0.230   5.550 -0.9849 -0.2224  0.6459
 1517TIP3    H225967   6.674   0.081   5.579  1.5639 -0.6334 -0.9715
 1518TIP3   OH225968   4.386   6.443  15.924 -0.0514 -0.0614  0.0181
 1518TIP3    H125969   4.375   6.347  15.923  1.9344 -0.3504 -2.0470
 1518TIP3    H225970   4.308   6.475  15.969  0.0158 -2.7184  2.3474
 1519TIP3   OH225971   3.092   1.909   3.618  0.1224  0.1827 -0.1716
 1519TIP3    H125972   3.177   1.868   3.633  0.5212  1.1289  0.2044
 1519TIP3    H225973   3.033   1.835   3.601  0.3235 -0.8347  2.7973
 1520TIP3   OH225974   6.347   3.396  14.396  0.3167 -0.3821 -0.7514
 1520TIP3    H125975   6.359   3.301  14.405  0.8846 -0.3680 -1.3021
 1520TIP3    H225976   6.432   3.429  14.367  0.6274  0.5266  1.0661
 1521TIP3   OH225977   0.648   6.678  13.312  0.0059 -0.0179  0.3455
 1521TIP3    H125978   0.631   6.589  13.282 -1.7891  0.2322  0.5064
 1521TIP3    H225979   0.648   6.731  13.232  0.2854 -0.0484  0.3241
 1522TIP3   OH225980   0.374   3.818  11.370 -0.1622  0.7134  0.2917
 1522TIP3    H125981   0.362   3.786  11.459 -3.2600  2.5175  0.6489
 1522TIP3    H225982   0.291   3.799  11.326  1.4655 -0.7030 -2.5132
 1523TIP3   OH225983   1.034   0.074   5.232  0.2282 -0.1283  0.0419
 1523TIP3    H125984   0.983   0.047   5.308 -1.1650  0.7434 -0.5520
 1523TIP3    H225985   1.087  -0.003   5.210  0.7697 -0.3650  1.9372
 1524TIP3   OH225986   2.503   3.833   1.933  0.1254 -0.7855 -0.1004
 1524TIP3    H125987   2.484   3.753   1.884 -0.1185 -0.5442 -0.4036
 1524TIP3    H225988   2.419   3.878   1.940 -0.1962 -1.6071  2.0022
 1525TIP3   OH225989   0.719   2.951   5.798  0.5018  0.1073  0.1484
 1525TIP3    H125990   0.682   2.886   5.739  0.2516  0.3948 -0.0133
 1525TIP3    H225991   0.776   2.901   5.857  1.5451 -0.0553 -0.9689
 1526TIP3   OH225992   0.578   5.324   4.396  0.1178  0.0209 -1.0659
 1526TIP3    H125993   0.655   5.344   4.448 -0.2017 -1.3196 -0.0121
 1526TIP3    H225994   0.505   5.365   4.443 -0.1272 -0.9010 -0.6103
 1527TIP3   OH225995   3.451   0.279   3.561  0.7162  0.6383 -0.0601
 1527TIP3    H125996   3.531   0.264   3.511  0.9452 -0.3924  0.5987
 1527TIP3    H225997   3.481   0.287   3.652  0.3127  2.5522 -0.0383
 1528TIP3   OH225998   5.110   1.112  14.510  0.2943 -0.0565  0.1584
 1528TIP3    H125999   5.109   1.098  14.415 -0.6621 -0.4095  0.2113
 1528TIP3    H226000   5.140   1.028  14.545 -0.5256 -0.3309  0.2207
 1529TIP3   OH226001   0.213   1.465   0.385  0.4731 -0.0571  0.1901
 1529TIP3    H126002   0.245   1.391   0.334 -2.6534 -2.0487  0.8653
 1529TIP3    H226003   0.263   1.461   0.467 -0.3544 -2.1619  0.6468
 1530TIP3   OH226004   4.234   6.744  16.085 -0.0030  0.9082 -0.5887
 1530TIP3    H126005   4.171   6.800  16.039  1.3421  0.4869 -3.0576
 1530TIP3    H226006   4.202   6.655  16.071 -0.2658  0.8228  0.4386
 1531TIP3   OH226007   3.120   2.118   1.110  0.5134 -0.2393 -0.5386
 1531TIP3    H126008   3.151   2.126   1.200  1.5969 -0.4352 -0.8879
 1531TIP3    H226009   3.171   2.183   1.062 -1.6391  1.4874 -0.6412
 1532TIP3   OH226010   1.828   3.994   2.066 -0.2029  0.3872 -0.0774
 1532TIP3    H126011   1.868   4.021   2.149 -0.8070 -0.5760  0.5599
 1532TIP3    H226012   1.828   3.898   2.070 -3.0281  0.3115  0.2420
 1533TIP3   OH226013   1.970   4.511   3.581  0.5504  0.5365  0.2592
 1533TIP3    H126014   1.918   4.573   3.529  1.4143  1.0949  0.0411
 1533TIP3    H226015   1.947   4.530   3.672 -0.1207  0.3180  0.1453
 1534TIP3   OH226016   0.450   5.714   0.381  0.0421  0.5776 -0.7884
 1534TIP3    H126017   0.533   5.742   0.342  0.9489 -0.2697  0.4528
 1534TIP3    H226018   0.395   5.792   0.379  0.7642  1.0795 -1.8976
 1535TIP3   OH226019   3.780   1.893  13.768  0.0384  0.1306 -0.1165
 1535TIP3    H126020   3.714   1.839  13.723 -0.0021  0.6552 -0.7044
 1535TIP3    H226021   3.756   1.983  13.746  1.1765  0.3194 -0.6705
 1536TIP3   OH226022   0.203   1.622  17.073 -0.0247  0.3154  0.2321
 1536TIP3    H126023   0.116   1.590  17.047 -0.2889  0.8803  0.4090
 1536TIP3    H226024   0.252   1.625  16.991 -0.4180  0.7399  0.0066
 1537TIP3   OH226025   6.441   2.549   3.903  0.0654  0.2059 -0.0939
 1537TIP3    H126026   6.460   2.642   3.886 -1.6106  0.7790  0.9358
 1537TIP3    H226027   6.469   2.504   3.823 -0.5728  1.8069 -1.2758
 1538TIP3   OH226028   4.106   0.847   1.734  0.0057 -0.3450 -0.4136
 1538TIP3    H126029   4.047   0.907   1.780 -0.5840 -0.4329 -1.0418
 1538TIP3    H226030   4.075   0.760   1.758  0.7508 -0.4114  0.3547
 1539TIP3   OH226031   0.573   3.246   2.414 -0.5768 -0.0493 -0.3878
 1539TIP3    H126032   0.544   3.321   2.466  1.0029 -0.4313  1.1406
 1539TIP3    H226033   0.582   3.279   2.325  2.1683  2.2080  0.6043
 1540TIP3   OH226034   2.654   0.624   3.966  0.4246 -0.2109 -0.5640
 1540TIP3    H126035   2.593   0.696   3.976  0.2888 -0.2589 -1.0258
 1540TIP3    H226036   2.727   0.646   4.024 -0.3657 -0.5277  0.5896
 1541TIP3   OH226037   0.310   4.918  13.101  0.3554 -0.3651  0.3479
 1541TIP3    H126038   0.253   4.944  13.029  0.1827  1.1987  1.0123
 1541TIP3    H226039   0.259   4.852  13.149 -0.8532  0.8416  0.8007
 1542TIP3   OH226040   4.130   6.502  16.683  0.3600  0.7335 -0.1314
 1542TIP3    H126041   4.208   6.556  16.688  0.5541  0.6144 -1.5713
 1542TIP3    H226042   4.163   6.415  16.661 -0.0886  0.4007  0.4775
 1543TIP3   OH226043   1.236   5.013  15.592 -0.2906  0.1767 -0.4830
 1543TIP3    H126044   1.173   5.039  15.659 -0.8758 -0.3086 -0.8348
 1543TIP3    H226045   1.274   5.095  15.560  0.9980  0.3566  1.3797
 1544TIP3   OH226046   0.339   4.883  12.745 -0.1665 -0.2687 -0.2156
 1544TIP3    H126047   0.407   4.842  12.798  1.7091 -1.2403 -3.1180
 1544TIP3    H226048   0.364   4.976  12.741  0.6958 -0.5150 -0.7839
 1545TIP3   OH226049   2.095   0.452   6.155  0.2315  0.5315 -0.3778
 1545TIP3    H126050   2.088   0.363   6.123  0.5312  0.0438  0.8476
 1545TIP3    H226051   2.131   0.443   6.243 -0.4955  1.8044  0.0771
 1546TIP3   OH226052   1.576   4.011   1.405  0.3692 -0.1654  0.5199
 1546TIP3    H126053   1.539   4.091   1.443 -0.0180 -0.6851  1.2659
 1546TIP3    H226054   1.632   4.042   1.334 -1.0393  0.6840 -0.2762
 1547TIP3   OH226055   2.054   5.430  14.982 -0.2013 -0.3114 -0.3008
 1547TIP3    H126056   2.109   5.409  14.907 -0.8535 -1.9305 -0.3766
 1547TIP3    H226057   2.010   5.511  14.958  0.3858 -0.2566 -1.2255
 1548TIP3   OH226058   4.758   6.619  14.824 -0.4773 -0.1646 -0.1208
 1548TIP3    H126059   4.671   6.653  14.804 -0.8223 -0.5404  0.6912
 1548TIP3    H226060   4.745   6.565  14.902  0.1440 -1.7402 -1.0571
 1549TIP3   OH226061   6.046   3.777   3.414  0.1564 -0.7944  0.3516
 1549TIP3    H126062   6.022   3.737   3.498 -0.9850  0.0924  0.4734
 1549TIP3    H226063   6.077   3.865   3.436  0.6776 -0.8627 -0.0842
 1550TIP3   OH226064   2.509   4.755   4.169  0.1188  0.5169  0.0508
 1550TIP3    H126065   2.579   4.783   4.227  0.6427 -2.1574  0.8525
 1550TIP3    H226066   2.554   4.709   4.097 -0.7320 -0.1018 -0.1030
 1551TIP3   OH226067   4.219   2.704   5.144 -0.1193 -0.1933 -0.9824
 1551TIP3    H126068   4.190   2.770   5.207 -0.3369  1.1457 -2.4168
 1551TIP3    H226069   4.237   2.626   5.197 -3.1297 -0.0987  0.3929
 1552TIP3   OH226070   0.424   6.618  15.761  0.0914  0.6847  0.0569
 1552TIP3    H126071   0.400   6.701  15.719 -1.1003  0.0470 -0.5675
 1552TIP3    H226072   0.361   6.555  15.728  1.4579 -0.6707 -0.0949
 1553TIP3   OH226073   3.993   4.700  11.453  0.1579  0.4754 -0.4307
 1553TIP3    H126074   3.958   4.775  11.404 -0.3455  0.7922  0.3954
 1553TIP3    H226075   4.024   4.738  11.535 -2.3756 -0.5334  1.1002
 1554TIP3   OH226076   4.079   1.916   4.836  0.8827 -0.0598 -0.0134
 1554TIP3    H126077   4.005   1.971   4.812  0.4779  0.8060  2.8567
 1554TIP3    H226078   4.127   1.903   4.754 -2.4985 -0.8656 -2.0783
 1555TIP3   OH226079   5.810   6.323  15.872 -1.0513  0.2348  0.1062
 1555TIP3    H126080   5.720   6.344  15.846 -0.2134  0.5992 -2.8472
 1555TIP3    H226081   5.863   6.344  15.795  1.5171 -0.5011  1.5552
 1556TIP3   OH226082   4.228   1.380  12.031 -0.0636 -0.1047  0.5762
 1556TIP3    H126083   4.287   1.313  11.997  0.8835  1.0031 -0.0060
 1556TIP3    H226084   4.227   1.448  11.964  0.2480  1.2000  1.8584
 1557TIP3   OH226085   3.200   2.325  16.358  0.2431  0.5236 -0.7860
 1557TIP3    H126086   3.207   2.230  16.355 -0.1495  0.4494  0.2664
 1557TIP3    H226087   3.116   2.341  16.402  1.3152  1.3480  1.0245
 1558TIP3   OH226088   2.417   5.631   1.804 -0.0639  0.2630  0.0168
 1558TIP3    H126089   2.326   5.620   1.831 -0.7619  1.0855 -1.8710
 1558TIP3    H226090   2.425   5.723   1.780  0.9617 -0.0372 -0.8919
 1559TIP3   OH226091   5.383   6.486   0.068  0.3504  0.2917  0.3400
 1559TIP3    H126092   5.341   6.567   0.038 -0.1666 -0.0556  0.0970
 1559TIP3    H226093   5.324   6.453   0.136 -0.6174 -0.9944 -1.0555
 1560TIP3   OH226094   0.548   1.505   0.204  0.1632  0.5427  0.7903
 1560TIP3    H126095   0.529   1.466   0.119 -0.1113  1.3324  0.4758
 1560TIP3    H226096   0.542   1.433   0.266  0.0332  0.0226  0.1846
 1561TIP3   OH226097   3.848   4.653   0.731  0.5419 -0.0904 -0.3857
 1561TIP3    H126098   3.942   4.638   0.740  0.7829  1.8670  1.0746
 1561TIP3    H226099   3.828   4.720   0.797 -1.7428  0.0846 -1.1666
 1562TIP3   OH226100   3.781   6.556   2.077 -0.2908 -0.0714 -0.1362
 1562TIP3    H126101   3.769   6.630   2.017 -0.6771  0.1232  0.1738
 1562TIP3    H226102   3.808   6.484   2.021  0.0085  0.2825 -0.4550
 1563TIP3   OH226103   1.752   3.179   3.418  0.2093 -0.0755 -0.5551
 1563TIP3    H126104   1.758   3.274   3.416 -0.5340  0.0102  0.2092
 1563TIP3    H226105   1.727   3.159   3.509 -1.4817 -0.8599 -1.1450
 1564TIP3   OH226106   5.666   4.739  13.401 -0.4166 -0.3263  0.4777
 1564TIP3    H126107   5.722   4.682  13.453  0.0251 -0.3941 -0.0653
 1564TIP3    H226108   5.579   4.701  13.408 -0.2078 -0.7967  0.5002
 1565TIP3   OH226109   1.592   1.114  12.538 -0.4946 -0.1942  0.0879
 1565TIP3    H126110   1.683   1.130  12.512  0.0079 -1.0803  1.2049
 1565TIP3    H226111   1.582   1.162  12.620 -0.8476 -0.5715  0.2680
 1566TIP3   OH226112   1.917   4.901  12.334  0.5051  0.9681  0.5644
 1566TIP3    H126113   1.844   4.899  12.273 -0.0305 -1.6328  1.1765
 1566TIP3    H226114   1.885   4.855  12.412  2.2958  1.0935  1.4370
 1567TIP3   OH226115   2.717   4.688   2.912 -0.1531  0.2619  0.0927
 1567TIP3    H126116   2.697   4.775   2.947 -4.4298  0.4847 -2.2368
 1567TIP3    H226117   2.776   4.705   2.839 -0.9692  1.2693 -0.3643
 1568TIP3   OH226118   2.866   4.317   2.957  0.0966 -0.0411  0.1028
 1568TIP3    H126119   2.793   4.343   3.014 -0.8675 -0.2205 -0.9991
 1568TIP3    H226120   2.923   4.265   3.013  0.2799  1.5129  1.4453
 1569TIP3   OH226121   4.858   2.091  17.055 -0.3192  0.5381 -0.1204
 1569TIP3    H126122   4.817   2.099  17.141  1.6027  1.6454  0.7630
 1569TIP3    H226123   4.795   2.130  16.994 -0.6345  2.0955  1.1559
 1570TIP3   OH226124   1.380   0.328   2.369 -0.1240  0.0802 -0.4501
 1570TIP3    H126125   1.382   0.417   2.334  0.6584  0.2372 -0.0240
 1570TIP3    H226126   1.293   0.319   2.408  0.2285  1.0898  0.6137
 1571TIP3   OH226127   0.513   0.527  13.216  0.3340  0.0226 -0.4220
 1571TIP3    H126128   0.537   0.459  13.279  0.1818  0.0001 -0.3864
 1571TIP3    H226129   0.518   0.484  13.130  0.0605 -0.0880 -0.3856
 1572TIP3   OH226130   6.062   0.375   2.726 -0.2078  0.5418  0.0914
 1572TIP3    H126131   5.998   0.329   2.673 -1.2125  2.2350 -0.2447
 1572TIP3    H226132   6.097   0.308   2.785 -3.2300 -0.2271  1.1951
 1573TIP3   OH226133   2.667   1.978  14.053  0.6112 -0.0086  0.2961
 1573TIP3    H126134   2.614   2.004  14.128  1.2081 -0.2486  0.8078
 1573TIP3    H226135   2.605   1.937  13.992  0.1693 -0.0458  0.7657
 1574TIP3   OH226136   4.632   3.030   2.033  0.3763  0.2361  0.1075
 1574TIP3    H126137   4.672   3.059   2.115  0.9024  0.7629 -0.3287
 1574TIP3    H226138   4.539   3.052   2.043 -0.1622 -2.2846  1.7096
 1575TIP3   OH226139   1.154   5.793   5.402 -0.2024 -0.1122 -0.2734
 1575TIP3    H126140   1.073   5.743   5.394 -0.1950 -0.1312 -0.2349
 1575TIP3    H226141   1.132   5.866   5.460 -0.1273 -0.2588 -0.0568
 1576TIP3   OH226142   3.338   2.455   2.615 -0.7741  0.7347 -0.3097
 1576TIP3    H126143   3.297   2.540   2.632 -1.6626  1.1615 -3.7959
 1576TIP3    H226144   3.278   2.391   2.653 -1.6493  1.5848 -0.2220
 1577TIP3   OH226145   4.748   1.085  13.738 -1.1360 -0.4328 -0.0957
 1577TIP3    H126146   4.751   1.096  13.643  1.0001  1.3768  0.1028
 1577TIP3    H226147   4.749   1.174  13.772 -2.2427 -1.0415  1.6654
 1578TIP3   OH226148   4.958   5.246   4.528  0.4684  0.2646 -0.5291
 1578TIP3    H126149   5.042   5.214   4.561  0.7919  0.3085 -1.2750
 1578TIP3    H226150   4.973   5.340   4.514  0.0006  0.4532  0.2209
 1579TIP3   OH226151   4.860   0.587  12.387  0.3821 -0.2687  0.2866
 1579TIP3    H126152   4.839   0.680  12.379  1.7212 -0.0115 -0.4770
 1579TIP3    H226153   4.903   0.564  12.305  0.8102 -1.3561  0.7872
 1580TIP3   OH226154   0.542   6.230   6.167  0.4372 -0.4735 -0.8203
 1580TIP3    H126155   0.466   6.288   6.176 -0.4700 -1.3737 -2.2711
 1580TIP3    H226156   0.521   6.156   6.225  0.7027 -0.2472 -0.4303
 1581TIP3   OH226157   2.718   1.410   3.448  0.2379  0.6482 -0.5086
 1581TIP3    H126158   2.628   1.380   3.438  0.0690  1.2069 -0.7181
 1581TIP3    H226159   2.734   1.410   3.542  0.2328 -0.0650 -0.5079
 1582TIP3   OH226160   1.026   1.265   3.215 -0.4291  0.4497 -0.1259
 1582TIP3    H126161   1.028   1.200   3.145 -1.0382 -1.1380  1.2667
 1582TIP3    H226162   1.024   1.349   3.170  1.1161 -0.4457 -1.9957
 1583TIP3   OH226163   5.757   6.557   1.856 -0.7215  0.6471  0.0987
 1583TIP3    H126164   5.849   6.580   1.866 -0.5711  0.4197 -0.7001
 1583TIP3    H226165   5.732   6.521   1.941  0.4013 -0.8529 -0.1601
 1584TIP3   OH226166   2.055   3.974  11.346 -0.2028  0.2499 -0.2975
 1584TIP3    H126167   2.123   3.913  11.319  0.4958  0.9433 -0.1334
 1584TIP3    H226168   1.984   3.918  11.379 -0.6022 -0.5961 -2.4020
 1585TIP3   OH226169   4.252   2.029   0.876  0.0175 -0.0141  0.1533
 1585TIP3    H126170   4.188   2.016   0.946 -0.5547 -2.2324 -0.7157
 1585TIP3    H226171   4.204   2.080   0.810  0.5696  2.1159  1.2827
 1586TIP3   OH226172   4.363   5.984  12.803 -0.0997  0.1776  0.1859
 1586TIP3    H126173   4.392   5.933  12.879 -0.2212 -1.5552 -0.8939
 1586TIP3    H226174   4.304   5.925  12.756 -0.3152  1.3559 -1.0676
 1587TIP3   OH226175   0.249   6.441  13.376 -0.3812  0.2406 -0.3391
 1587TIP3    H126176   0.169   6.447  13.324 -0.5900  2.1299  0.1095
 1587TIP3    H226177   0.263   6.530  13.409  0.1276 -0.6924  2.2465
 1588TIP3   OH226178   6.211   5.340   0.410 -0.0434 -0.3581 -0.2747
 1588TIP3    H126179   6.134   5.360   0.357  0.6570 -0.5848 -1.4220
 1588TIP3    H226180   6.264   5.282   0.355  0.6527 -0.7273  0.7410
 1589TIP3   OH226181   4.203   1.375   4.995 -0.3844 -0.0614 -0.6317
 1589TIP3    H126182   4.198   1.455   4.943 -0.6179  0.0336 -0.4640
 1589TIP3    H226183   4.295   1.349   4.990 -0.3930 -0.0237 -1.0463
 1590TIP3   OH226184   6.605   1.895   0.287 -0.3595  0.0668 -0.4320
 1590TIP3    H126185   6.634   1.818   0.239  1.0187  1.3201 -1.7023
 1590TIP3    H226186   6.546   1.940   0.228  0.6144  1.1359 -0.6319
 1591TIP3   OH226187   6.204   0.332   1.583 -0.6749  0.2261 -0.0168
 1591TIP3    H126188   6.262   0.270   1.628  0.4226  0.9009 -0.4637
 1591TIP3    H226189   6.183   0.397   1.649 -0.7929  0.0689  0.1015
 1592TIP3   OH226190   1.750   0.502   3.779 -0.1920  0.1140  0.4163
 1592TIP3    H126191   1.722   0.471   3.693 -2.8017  0.1485  1.1634
 1592TIP3    H226192   1.742   0.598   3.774  0.1181  0.1458  0.5296
 1593TIP3   OH226193   5.523   0.751  15.208 -0.1197  0.7168 -0.2087
 1593TIP3    H126194   5.586   0.796  15.264  0.3022  0.9082 -0.8282
 1593TIP3    H226195   5.448   0.733  15.265 -0.5645  2.7421 -0.0552
 1594TIP3   OH226196   5.219   6.556  10.578  0.0702 -0.0982 -0.3154
 1594TIP3    H126197   5.128   6.526  10.570  0.2474 -0.5979 -0.5313
 1594TIP3    H226198   5.213   6.642  10.620 -0.4284 -0.6937  0.8798
 1595TIP3   OH226199   3.586   0.125   6.584  0.1198  0.9785  0.2106
 1595TIP3    H126200   3.520   0.157   6.523  0.3953  1.0767 -0.0414
 1595TIP3    H226201   3.670   0.144   6.541  0.3291  1.3600  0.7734
 1596TIP3   OH226202   4.616   2.762  15.446 -0.3233  0.4536 -0.0612
 1596TIP3    H126203   4.686   2.708  15.409 -0.2436 -0.2250  1.0205
 1596TIP3    H226204   4.637   2.768  15.539 -0.5134  2.1086 -0.0878
 1597TIP3   OH226205   2.997   3.911  15.464  0.1751  0.1766 -0.1581
 1597TIP3    H126206   3.092   3.904  15.456  0.2108 -0.3745  0.5666
 1597TIP3    H226207   2.963   3.841  15.409  0.1076  1.3881 -1.7273
 1598TIP3   OH226208   1.405   0.161  11.661  0.0329 -0.2272  0.5894
 1598TIP3    H126209   1.351   0.157  11.741  1.0589  3.9001  1.7351
 1598TIP3    H226210   1.344   0.190  11.593  0.1194  1.3390  1.1473
 1599TIP3   OH226211   2.212   5.409  12.143 -0.1337 -0.4311 -0.8659
 1599TIP3    H126212   2.158   5.475  12.100  1.1185  1.4704  0.3406
 1599TIP3    H226213   2.152   5.365  12.204 -0.5446  1.1000 -0.1197
 1600TIP3   OH226214   1.476   1.567   4.638  0.4047 -0.5727  0.0989
 1600TIP3    H126215   1.559   1.593   4.598  0.2252 -1.0346 -0.5917
 1600TIP3    H226216   1.487   1.475   4.660 -0.2510 -0.9016 -0.8863
 1601TIP3   OH226217   6.053   0.777   4.025 -0.0020  0.2027 -0.0515
 1601TIP3    H126218   6.045   0.714   3.954 -0.2579  1.1483 -0.8817
 1601TIP3    H226219   6.110   0.845   3.990 -2.4442  2.1602 -0.4683
 1602TIP3   OH226220   6.500   4.791  14.918  0.1248 -0.5433 -0.2155
 1602TIP3    H126221   6.572   4.729  14.927 -1.2906 -1.9632  2.2326
 1602TIP3    H226222   6.478   4.816  15.008 -2.4221 -0.1638 -0.8610
 1603TIP3   OH226223   4.755   5.163  17.022 -0.1819  0.6618 -0.0539
 1603TIP3    H126224   4.663   5.189  17.011  0.3346  2.4394 -0.4107
 1603TIP3    H226225   4.804   5.245  17.016  1.5880 -0.4294 -1.5736
 1604TIP3   OH226226   2.423   4.036   2.966  0.1483  0.4480  0.1057
 1604TIP3    H126227   2.480   3.997   3.032  1.1064 -0.9160 -1.4548
 1604TIP3    H226228   2.335   4.007   2.990  0.2696  1.2503  1.6238
 1605TIP3   OH226229   6.461   6.760   1.100  0.6297 -0.7067  0.5671
 1605TIP3    H126230   6.533   6.809   1.140  2.1388 -0.4665 -2.2108
 1605TIP3    H226231   6.386   6.820   1.104  1.6888  0.7412 -0.1526
 1606TIP3   OH226232   1.804   1.295  11.776  0.1909 -0.3824 -0.4138
 1606TIP3    H126233   1.799   1.364  11.843  0.3912 -0.2588 -0.5225
 1606TIP3    H226234   1.893   1.259  11.786  0.6900  0.4939 -1.4447
 1607TIP3   OH226235   6.343   5.359   1.368  0.4378  0.0432 -0.0812
 1607TIP3    H126236   6.305   5.443   1.342  2.1976  1.5716  2.0328
 1607TIP3    H226237   6.313   5.298   1.299 -1.2131  2.2497 -1.4727
 1608TIP3   OH226238   1.602   2.899  13.738  0.0345  0.2153  0.3621
 1608TIP3    H126239   1.669   2.838  13.707 -0.4560 -1.2163  1.9543
 1608TIP3    H226240   1.527   2.884  13.680 -0.3144 -1.2553  1.1368
 1609TIP3   OH226241   0.325   2.227   5.401 -0.0916 -0.0372  0.3197
 1609TIP3    H126242   0.253   2.241   5.340  0.5493 -0.7485 -0.6400
 1609TIP3    H226243   0.306   2.284   5.475 -0.4559  1.5120 -0.9110
 1610TIP3   OH226244   0.732   0.089   5.784  0.6518  0.4112  0.0207
 1610TIP3    H126245   0.664   0.080   5.851  0.0638  1.0270 -0.4751
 1610TIP3    H226246   0.709   0.025   5.717  1.4736 -0.4938  0.5866
 1611TIP3   OH226247   4.197   6.731   0.490  0.5727  0.2691  0.7359
 1611TIP3    H126248   4.235   6.819   0.500  2.6053 -0.5293  0.4159
 1611TIP3    H226249   4.270   6.671   0.503 -0.7806 -1.4130  0.9770
 1612TIP3   OH226250   2.325   5.868   4.225 -0.4723 -0.2322 -0.0038
 1612TIP3    H126251   2.302   5.937   4.163 -0.5749 -1.4800 -1.4127
 1612TIP3    H226252   2.241   5.842   4.265 -0.5743 -0.2499 -0.2306
 1613TIP3   OH226253   1.214   0.963   0.001  0.1790 -0.3437 -0.0252
 1613TIP3    H126254   1.184   1.000  -0.081  0.6705 -1.0376 -0.5309
 1613TIP3    H226255   1.291   0.910  -0.023  1.7769  1.3062  1.1853
 1614TIP3   OH226256   5.992   2.783   1.187 -0.4512 -0.1039 -0.1414
 1614TIP3    H126257   5.913   2.764   1.238  2.4746 -1.4522  4.5598
 1614TIP3    H226258   5.995   2.879   1.182 -2.1604 -0.0194 -0.0451
 1615TIP3   OH226259   2.786   0.010   1.582  0.2967 -0.2827 -0.0741
 1615TIP3    H126260   2.867   0.044   1.545  0.7620 -0.2009  0.9838
 1615TIP3    H226261   2.814  -0.048   1.653 -0.4886 -2.3789 -1.3718
 1616TIP3   OH226262   1.893   1.890   0.366 -0.5510 -0.0877  0.0140
 1616TIP3    H126263   1.848   1.949   0.426 -2.1767 -0.9409 -0.3210
 1616TIP3    H226264   1.969   1.859   0.415 -0.8772  0.5867  0.9790
 1617TIP3   OH226265   6.151   4.688   3.723  0.0467 -0.1552 -0.1857
 1617TIP3    H126266   6.078   4.664   3.781 -1.1562  0.7042 -1.2984
 1617TIP3    H226267   6.148   4.622   3.653  2.3716 -2.0495  1.3480
 1618TIP3   OH226268   1.963   3.102  16.480 -0.5049 -0.4643  0.3731
 1618TIP3    H126269   1.947   3.152  16.560 -0.7642  1.5115 -0.8465
 1618TIP3    H226270   1.907   3.144  16.414  1.9220 -0.0112 -1.5658
 1619TIP3   OH226271   3.382   1.919   1.845 -0.0663  0.6091 -0.7104
 1619TIP3    H126272   3.331   1.998   1.861 -0.5395  0.2485 -0.4094
 1619TIP3    H226273   3.318   1.856   1.812  0.3921  0.4910 -1.3784
 1620TIP3   OH226274   2.464   3.749   3.673 -0.1027  0.0551  0.5207
 1620TIP3    H126275   2.499   3.695   3.602  1.0710 -0.8282  1.7295
 1620TIP3    H226276   2.529   3.818   3.685 -0.2176  0.1084  0.8347
 1621TIP3   OH226277   0.312   1.058   4.071 -0.2850  0.1283 -0.6017
 1621TIP3    H126278   0.380   1.022   4.128  0.5232  1.5217 -0.6527
 1621TIP3    H226279   0.230   1.026   4.109  0.3494 -1.2018 -0.2768
 1622TIP3   OH226280   0.519   2.201   3.148 -0.3611 -0.7556 -0.1383
 1622TIP3    H126281   0.466   2.152   3.211  0.3569 -3.1246 -1.2335
 1622TIP3    H226282   0.455   2.244   3.090 -1.0910 -1.8767 -0.1983
 1623TIP3   OH226283   0.550   3.718  16.991  0.0978 -0.6851 -0.2275
 1623TIP3    H126284   0.464   3.710  16.950 -0.2705 -0.1117  0.3863
 1623TIP3    H226285   0.554   3.645  17.053  0.4587 -1.2756 -0.9430
 1624TIP3   OH226286   4.814   3.660   2.180 -0.2477 -0.8452 -0.0173
 1624TIP3    H126287   4.818   3.611   2.097 -0.7352 -0.3796 -0.3219
 1624TIP3    H226288   4.758   3.735   2.160  0.7475  0.0137  0.3498
 1625TIP3   OH226289   3.396   0.311   3.102  0.5504 -1.1188 -0.5065
 1625TIP3    H126290   3.350   0.311   3.186  1.3933 -2.3458 -0.0103
 1625TIP3    H226291   3.467   0.247   3.114 -0.7406 -3.1858 -2.9280
 1626TIP3   OH226292   6.154   5.597   1.462 -0.2225  0.2302 -0.6033
 1626TIP3    H126293   6.155   5.595   1.366 -1.5627  3.4996 -0.7993
 1626TIP3    H226294   6.233   5.646   1.485 -3.0692  5.4707 -0.6044
 1627TIP3   OH226295   5.524   1.889   5.398 -0.1192 -0.4569 -0.7388
 1627TIP3    H126296   5.570   1.846   5.326  1.1563 -0.1382 -0.1556
 1627TIP3    H226297   5.526   1.825   5.469 -1.8276 -0.9718 -1.1158
 1628TIP3   OH226298   3.891   1.051  16.677  0.4023 -0.1439 -0.9127
 1628TIP3    H126299   3.797   1.055  16.697  0.8717 -0.4477  1.8013
 1628TIP3    H226300   3.896   1.004  16.594 -1.7977 -1.9762 -0.1423
 1629TIP3   OH226301   1.881   1.537   5.673 -0.2026  0.3007  0.3740
 1629TIP3    H126302   1.905   1.562   5.763  1.2324 -2.6584  0.9447
 1629TIP3    H226303   1.965   1.519   5.630 -0.8601  1.8226 -1.6845
 1630TIP3   OH226304   3.603   3.148   2.762  0.4087  0.6660 -0.5496
 1630TIP3    H126305   3.565   3.104   2.686 -1.1335  1.2410 -0.1506
 1630TIP3    H226306   3.555   3.113   2.837 -0.5822  2.6348 -0.1854
 1631TIP3   OH226307   2.620   5.057  15.114 -0.2017  0.3775  0.0023
 1631TIP3    H126308   2.660   5.098  15.191 -1.1664  0.6330  0.3763
 1631TIP3    H226309   2.655   5.107  15.039 -0.5430  1.1977  0.3812
 1632TIP3   OH226310   6.211   6.250   6.778  0.2777 -0.0358 -0.1122
 1632TIP3    H126311   6.174   6.333   6.806 -2.3058 -0.5674 -1.5996
 1632TIP3    H226312   6.269   6.223   6.850 -1.4070  1.4285  1.9104
 1633TIP3   OH226313   5.831   3.123   3.085 -0.0772  0.1511  0.6232
 1633TIP3    H126314   5.746   3.080   3.095 -1.3866  2.1693 -0.9878
 1633TIP3    H226315   5.819   3.182   3.011  2.6544  0.7701  0.5784
 1634TIP3   OH226316   2.733   0.113  13.361 -0.2077 -0.2987 -0.5053
 1634TIP3    H126317   2.784   0.082  13.287  0.6391 -0.3466  0.0749
 1634TIP3    H226318   2.709   0.203  13.338  0.6322 -0.0786 -0.5562
 1635TIP3   OH226319   1.001   6.060  13.366 -0.0718 -0.8746 -0.5138
 1635TIP3    H126320   0.974   6.140  13.410 -0.4323 -1.2458 -0.0367
 1635TIP3    H226321   1.008   6.083  13.274  0.3509 -0.1699 -0.3096
 1636TIP3   OH226322   1.690   6.123  14.139 -0.1175 -0.3564 -0.2581
 1636TIP3    H126323   1.684   6.216  14.160  0.7438 -0.4563  0.4946
 1636TIP3    H226324   1.714   6.082  14.222 -0.6034 -1.2641 -0.5612
 1637TIP3   OH226325   5.626   6.270   0.624  0.9529  0.5453  0.1975
 1637TIP3    H126326   5.649   6.346   0.678 -2.8438  0.6741  2.0199
 1637TIP3    H226327   5.539   6.292   0.590 -0.9050 -3.3293  1.7974
 1638TIP3   OH226328   1.540   6.340   0.062  0.1234 -0.3517  0.4714
 1638TIP3    H126329   1.474   6.407   0.042  1.0166  0.2687 -0.5206
 1638TIP3    H226330   1.574   6.314  -0.024 -0.2973 -2.2046  0.8301
 1639TIP3   OH226331   4.888   4.285  14.405 -0.5784 -0.0808 -0.2551
 1639TIP3    H126332   4.799   4.313  14.383  0.2743  1.7821 -1.6981
 1639TIP3    H226333   4.881   4.250  14.493 -2.7442  0.0171 -0.3320
 1640TIP3   OH226334   3.132   0.649  11.876 -0.0288  0.2757  0.4460
 1640TIP3    H126335   3.078   0.570  11.873  0.0304  0.2245  0.6736
 1640TIP3    H226336   3.126   0.687  11.789  0.1624 -0.1308  0.2546
 1641TIP3   OH226337   3.564   3.957   0.422 -0.3442 -0.3019  0.0605
 1641TIP3    H126338   3.486   3.936   0.472  0.5183 -0.8794  1.2053
 1641TIP3    H226339   3.631   3.896   0.453 -0.0939 -1.6247 -2.7329
 1642TIP3   OH226340   0.554   6.430  14.882 -0.3578 -0.0483  0.4184
 1642TIP3    H126341   0.489   6.376  14.927 -0.1794 -0.3558  0.3107
 1642TIP3    H226342   0.635   6.379  14.886 -0.0795  0.4106  0.7071
 1643TIP3   OH226343   5.224   6.335   4.594 -0.0919 -0.0587  0.5040
 1643TIP3    H126344   5.220   6.310   4.686  0.6040 -0.5691  0.3948
 1643TIP3    H226345   5.289   6.405   4.591  0.6002 -0.7091  0.2507
 1644TIP3   OH226346   5.136   5.366   5.002 -0.2931  0.1852  0.3742
 1644TIP3    H126347   5.137   5.405   4.914  3.1967 -0.5497 -0.0263
 1644TIP3    H226348   5.134   5.272   4.986 -0.8599  0.0492  1.1715
 1645TIP3   OH226349   6.593   3.668   0.791  0.5584 -0.2362 -0.5453
 1645TIP3    H126350   6.539   3.744   0.815  0.9814 -0.2185  0.4045
 1645TIP3    H226351   6.531   3.605   0.755 -0.3184 -0.6594  1.5478
 1646TIP3   OH226352   5.032   1.619  11.839  0.1338 -0.3888  0.0499
 1646TIP3    H126353   5.041   1.705  11.798  0.4887 -0.3502  0.2099
 1646TIP3    H226354   5.116   1.577  11.824  0.2216 -0.4229  0.6358
 1647TIP3   OH226355   1.338   1.872   0.963 -0.3401  0.3559  0.2046
 1647TIP3    H126356   1.307   1.861   1.053  1.0436  1.6169  0.8782
 1647TIP3    H226357   1.279   1.937   0.925 -0.0267  0.9423  0.7021
 1648TIP3   OH226358   5.872   0.274  14.025 -0.3420  0.3213  0.2709
 1648TIP3    H126359   5.805   0.315  14.079  0.5257  0.2198  1.4662
 1648TIP3    H226360   5.831   0.195  13.990 -1.1303  0.7422  0.2286
 1649TIP3   OH226361   3.054   3.718  13.148 -0.4532  0.5382  0.6319
 1649TIP3    H126362   3.148   3.718  13.161 -0.5330  0.9937  1.3095
 1649TIP3    H226363   3.027   3.808  13.167 -0.6064  1.4178 -2.9997
 1650TIP3   OH226364   3.056   6.037   3.547 -0.0870  0.2501  0.4991
 1650TIP3    H126365   2.994   6.058   3.616  0.1018  0.0221  0.7430
 1650TIP3    H226366   3.035   6.097   3.475 -2.0544 -1.2925 -0.3063
 1651TIP3   OH226367   4.630   5.163   4.361  0.2587  0.1396 -0.5071
 1651TIP3    H126368   4.705   5.213   4.328 -1.3533  2.6811 -0.6234
 1651TIP3    H226369   4.626   5.185   4.454 -1.3570  1.5644 -0.8609
 1652TIP3   OH226370   5.236   2.472  15.189  0.5400 -0.3768  0.0264
 1652TIP3    H126371   5.310   2.450  15.132  1.7939  0.5216  1.2507
 1652TIP3    H226372   5.208   2.389  15.227 -0.3767 -1.0122 -1.9079
 1653TIP3   OH226373   5.070   1.885  11.745 -0.3562  0.5330 -0.6849
 1653TIP3    H126374   5.043   1.940  11.819 -1.8897  0.8002 -1.4007
 1653TIP3    H226375   5.024   1.922  11.669  0.2429 -0.4578 -1.5653
 1654TIP3   OH226376   2.447   6.628  16.580 -0.1067  0.2515  0.1658
 1654TIP3    H126377   2.441   6.716  16.541  1.0277 -0.6556 -2.2864
 1654TIP3    H226378   2.525   6.633  16.635 -0.2873  0.9001  0.3755
 1655TIP3   OH226379   4.394   1.324  11.807 -0.0655  0.2359  0.7902
 1655TIP3    H126380   4.464   1.368  11.856 -0.3630  1.2388  0.3195
 1655TIP3    H226381   4.402   1.357  11.718  0.3251 -1.4027  0.1742
 1656TIP3   OH226382   4.796   4.659   6.266  0.1540 -0.3839  0.4006
 1656TIP3    H126383   4.810   4.671   6.360  1.4643 -1.3095  0.3488
 1656TIP3    H226384   4.707   4.625   6.260 -0.4264  0.8931  1.1825
 1657TIP3   OH226385   1.050   4.244   4.205 -0.3874 -0.0938 -0.3849
 1657TIP3    H126386   1.013   4.326   4.238 -1.1718 -0.7219  0.3321
 1657TIP3    H226387   1.125   4.272   4.152 -1.0990  1.1306 -0.8010
 1658TIP3   OH226388   3.652   0.692  15.950  0.2128  0.7681  0.5366
 1658TIP3    H126389   3.667   0.665  15.859  0.3764 -0.0850  0.7981
 1658TIP3    H226390   3.696   0.776  15.958  0.0362  0.9389 -0.2230
 1659TIP3   OH226391   2.333   6.441   3.007 -0.4659 -0.1908 -0.0823
 1659TIP3    H126392   2.350   6.349   3.027 -0.3148  0.0782  1.1079
 1659TIP3    H226393   2.251   6.440   2.958 -0.0227 -1.0226 -0.8438
 1660TIP3   OH226394   4.904   4.661   1.921  0.3440 -0.3887  1.0333
 1660TIP3    H126395   4.847   4.642   1.846  0.4843 -0.7143  1.0043
 1660TIP3    H226396   4.911   4.756   1.923  1.0598 -0.4033  0.0845
 1661TIP3   OH226397   0.411   5.819   5.239  0.4146  0.5317  0.2301
 1661TIP3    H126398   0.416   5.736   5.287  1.8826  0.6630  0.3505
 1661TIP3    H226399   0.498   5.858   5.249  0.2700  1.3106 -1.2222
 1662TIP3   OH226400   4.541   2.909  16.336 -0.9457 -0.4572 -0.3366
 1662TIP3    H126401   4.580   2.868  16.413 -0.8972 -1.4344 -0.8638
 1662TIP3    H226402   4.582   2.995  16.330 -2.5444  0.5529  1.9990
 1663TIP3   OH226403   1.146   5.567   5.948  0.4689 -0.0726  0.2528
 1663TIP3    H126404   1.187   5.588   5.864 -0.1831 -1.8495 -0.5659
 1663TIP3    H226405   1.054   5.588   5.936  0.4896  0.3279  0.7755
 1664TIP3   OH226406   5.866   6.185  16.113 -0.0025 -0.0628  0.1960
 1664TIP3    H126407   5.825   6.242  16.048 -3.0441 -1.2221  0.9253
 1664TIP3    H226408   5.850   6.096  16.082  0.7130 -0.5911  1.2665
 1665TIP3   OH226409   0.682   2.637  10.533 -0.2990  0.5025 -0.0245
 1665TIP3    H126410   0.764   2.588  10.531 -0.8183 -0.3889  0.3790
 1665TIP3    H226411   0.613   2.571  10.538 -1.1137  1.1884 -1.3463
 1666TIP3   OH226412   2.335   6.351   1.940  0.3617  0.3290  0.2272
 1666TIP3    H126413   2.307   6.268   1.979  1.1326  0.3266  0.8062
 1666TIP3    H226414   2.302   6.348   1.850  0.1714 -0.4928  0.3174
 1667TIP3   OH226415   3.075   5.855  12.709  0.8495  0.0987  0.1777
 1667TIP3    H126416   3.160   5.857  12.751  0.3904 -1.9692  1.3161
 1667TIP3    H226417   3.092   5.823  12.620  1.2004 -0.8297  0.5764
 1668TIP3   OH226418   1.058   5.418  13.017 -0.6913  0.1954  1.1847
 1668TIP3    H126419   1.020   5.414  13.105 -0.6203  0.3255  1.2212
 1668TIP3    H226420   1.036   5.506  12.985  0.4114  0.6284  1.5839
 1669TIP3   OH226421   2.149   2.738  15.668 -0.6976 -0.1230  0.3032
 1669TIP3    H126422   2.169   2.826  15.635 -1.2141  0.2943  1.0643
 1669TIP3    H226423   2.181   2.739  15.758 -0.9760 -0.6192  0.4118
 1670TIP3   OH226424   2.696   0.160  13.664  0.3022  0.3907 -0.3334
 1670TIP3    H126425   2.615   0.205  13.643  0.0082 -0.6897 -1.6877
 1670TIP3    H226426   2.740   0.149  13.579  2.0023  1.1904  0.4076
 1671TIP3   OH226427   5.672   1.925   5.977 -0.0048 -0.2951  0.1617
 1671TIP3    H126428   5.693   1.949   6.067 -0.2819  0.0569  0.1372
 1671TIP3    H226429   5.646   2.008   5.936  1.1116 -0.2612 -0.5270
 1672TIP3   OH226430   1.926   3.529   4.332  0.2512  0.5631 -0.7937
 1672TIP3    H126431   1.947   3.446   4.373 -0.2827  0.3495 -0.9404
 1672TIP3    H226432   2.002   3.585   4.349  0.7643 -0.0640 -1.0066
 1673TIP3   OH226433   2.658   1.516   2.578 -0.4950 -0.3310  0.1787
 1673TIP3    H126434   2.705   1.594   2.547  1.0751 -1.1447  0.4387
 1673TIP3    H226435   2.726   1.453   2.600 -1.6634 -1.0717  1.9531
 1674TIP3   OH226436   6.430   5.246  13.130 -0.8450  0.2841  0.1951
 1674TIP3    H126437   6.496   5.294  13.079 -0.0789 -0.5770  0.3485
 1674TIP3    H226438   6.399   5.309  13.195 -0.8666  0.9861 -0.4799
 1675TIP3   OH226439   1.015   0.075   0.401  0.0155 -0.2828 -0.0497
 1675TIP3    H126440   1.036  -0.018   0.412  0.2627 -0.2997 -0.6193
 1675TIP3    H226441   0.953   0.094   0.471  0.5707 -0.6805  0.5678
 1676TIP3   OH226442   2.353   0.379   4.190  0.2004 -0.3940 -0.0514
 1676TIP3    H126443   2.373   0.433   4.266  0.5187 -1.2705  0.5087
 1676TIP3    H226444   2.340   0.291   4.226  0.6959 -0.8896 -1.0463
 1677TIP3   OH226445   1.982   3.753  12.696  0.0203 -0.7586  0.5339
 1677TIP3    H126446   1.967   3.757  12.601 -0.2422 -1.3823  0.5452
 1677TIP3    H226447   1.904   3.711  12.731  0.1408 -0.5812  1.0260
 1678TIP3   OH226448   4.599   0.322  13.708  0.5639 -0.2499  0.1799
 1678TIP3    H126449   4.536   0.336  13.637 -1.4672 -1.8870  1.5105
 1678TIP3    H226450   4.559   0.364  13.784  1.9228  0.1111  0.7232
 1679TIP3   OH226451   2.144   0.002  14.104  0.1829  0.5180  0.7504
 1679TIP3    H126452   2.227  -0.026  14.066  0.6685 -1.9705  3.3510
 1679TIP3    H226453   2.131   0.090  14.070  2.0557 -0.3014 -2.5585
 1680TIP3   OH226454   1.083   5.408   0.028  0.3760 -0.0650  0.4478
 1680TIP3    H126455   1.122   5.495   0.040  1.0183 -0.3689  0.6609
 1680TIP3    H226456   1.075   5.374   0.117  1.6648 -0.8617  0.2888
 1681TIP3   OH226457   3.407   2.388   3.615 -0.0758  0.5950  0.6591
 1681TIP3    H126458   3.367   2.308   3.648  0.5373  0.0082  0.0078
 1681TIP3    H226459   3.380   2.456   3.678 -1.1161  0.0106  0.8757
 1682TIP3   OH226460   4.312   1.086  13.016  0.0930  0.0715 -0.2171
 1682TIP3    H126461   4.346   1.174  13.001  1.1324 -0.4095 -0.7948
 1682TIP3    H226462   4.314   1.044  12.930 -3.3219  0.4093 -0.6210
 1683TIP3   OH226463   0.550   0.562  14.618  0.1042 -0.5181  0.4780
 1683TIP3    H126464   0.546   0.657  14.623 -0.1354 -0.5669  1.8001
 1683TIP3    H226465   0.503   0.539  14.538 -2.1574  0.3687  1.4686
 1684TIP3   OH226466   2.597   2.985   2.099  0.2085  0.0115  0.8145
 1684TIP3    H126467   2.636   3.040   2.167  1.6214 -0.2421  0.2520
 1684TIP3    H226468   2.522   3.035   2.067  1.7350  1.9228 -0.0401
 1685TIP3   OH226469   2.455   2.827  12.697 -0.6018  0.0793  0.2262
 1685TIP3    H126470   2.427   2.786  12.615 -0.7597 -2.2598  1.3588
 1685TIP3    H226471   2.540   2.866  12.677 -0.2683 -1.1485 -0.8776
 1686TIP3   OH226472   5.225   4.758   1.527  0.0582  0.5333 -0.5954
 1686TIP3    H126473   5.312   4.736   1.560 -0.2379 -0.2445 -0.3074
 1686TIP3    H226474   5.241   4.829   1.464  0.5244  2.8008  1.9012
 1687TIP3   OH226475   5.105   4.273  13.435 -0.5919  0.3112  0.0039
 1687TIP3    H126476   5.151   4.244  13.357 -2.0504 -2.6265  0.0855
 1687TIP3    H226477   5.024   4.312  13.403 -1.3648 -1.2351 -0.0141
 1688TIP3   OH226478   2.255   1.956   4.991 -0.2025 -0.1575 -0.0220
 1688TIP3    H126479   2.319   2.026   4.985  1.8062 -1.8878 -0.1612
 1688TIP3    H226480   2.274   1.900   4.915 -0.2170 -1.9832  1.2426
 1689TIP3   OH226481   6.679   0.771  15.215  0.1602 -0.2979  0.3874
 1689TIP3    H126482   6.674   0.838  15.147 -0.5881  0.6502  1.3435
 1689TIP3    H226483   6.770   0.742  15.213 -0.1545 -1.3642 -1.9799
 1690TIP3   OH226484   3.626   0.995  12.498 -0.0440  0.3405 -0.0553
 1690TIP3    H126485   3.612   1.086  12.473 -2.7606  0.3210  0.9811
 1690TIP3    H226486   3.659   0.953  12.419 -0.1417  1.9389 -0.9873
 1691TIP3   OH226487   5.283   4.478   4.477  0.0392  0.0840 -0.5151
 1691TIP3    H126488   5.203   4.499   4.525 -0.2273 -0.2958 -0.7828
 1691TIP3    H226489   5.268   4.389   4.444  0.8275 -0.2367 -0.0344
 1692TIP3   OH226490   5.409   2.096   0.671  0.4659 -0.2063  0.1484
 1692TIP3    H126491   5.404   2.192   0.667  4.6680  0.2480  1.1305
 1692TIP3    H226492   5.408   2.069   0.579 -0.2533  0.8074 -0.1625
 1693TIP3   OH226493   6.100   4.659  15.837 -0.0574  0.1189 -0.8005
 1693TIP3    H126494   6.005   4.646  15.833  0.0877 -1.0576 -0.9542
 1693TIP3    H226495   6.119   4.669  15.930 -0.4701  1.6494 -0.8632
 1694TIP3   OH226496   4.913   1.356   2.627  0.9070 -0.0385  0.2276
 1694TIP3    H126497   4.893   1.444   2.594  0.8243  0.1460  0.7574
 1694TIP3    H226498   4.962   1.314   2.555  1.2023  0.5388  0.0802
 1695TIP3   OH226499   0.758   5.854   2.314 -0.4867  0.0787  0.2024
 1695TIP3    H126500   0.797   5.781   2.265 -0.5595  0.7481 -0.8806
 1695TIP3    H226501   0.771   5.930   2.258 -1.4006  0.7062  0.8143
 1696TIP3   OH226502   3.377   0.000   2.663  0.3358 -0.4175 -0.1806
 1696TIP3    H126503   3.360  -0.038   2.577  1.9241 -2.0136  0.1536
 1696TIP3    H226504   3.465   0.037   2.656  0.1800  0.1093  0.5444
 1697TIP3   OH226505   1.644   1.516  13.176  0.0661 -0.5013  0.1993
 1697TIP3    H126506   1.583   1.485  13.109  0.0966 -0.5943  0.2148
 1697TIP3    H226507   1.645   1.446  13.241  0.5989 -0.7438 -0.0607
 1698TIP3   OH226508   0.898   3.620  16.635 -0.1565 -0.7515  1.0298
 1698TIP3    H126509   0.954   3.687  16.674  0.4598 -1.4055  1.2853
 1698TIP3    H226510   0.854   3.579  16.709 -1.9262  0.5428  0.7692
 1699TIP3   OH226511   2.707   2.467   1.992 -0.1173 -0.0750 -0.4483
 1699TIP3    H126512   2.760   2.509   1.924  2.2150  2.4927  2.6472
 1699TIP3    H226513   2.749   2.382   2.006  0.2253 -0.0414 -1.2136
 1700TIP3   OH226514   5.802   1.364  15.609 -0.2300  0.4518  0.0346
 1700TIP3    H126515   5.816   1.277  15.573 -1.4255  0.8642 -1.5415
 1700TIP3    H226516   5.886   1.409  15.597 -0.1002  0.0269 -0.6719
 1701TIP3   OH226517   1.252   1.408  15.222  0.2539  0.0027  0.2820
 1701TIP3    H126518   1.259   1.314  15.233 -0.2402 -0.1233 -0.3752
 1701TIP3    H226519   1.336   1.435  15.185  0.3546 -0.1944  0.3675
 1702TIP3   OH226520   5.099   6.557  11.719  0.3189 -0.2191  0.4602
 1702TIP3    H126521   5.140   6.472  11.736  0.2696 -0.6240 -1.3023
 1702TIP3    H226522   5.072   6.553  11.628 -0.2871  1.4587  0.5345
 1703TIP3   OH226523   6.020   4.540   1.451 -0.2462 -0.1756  0.3291
 1703TIP3    H126524   6.004   4.477   1.522 -0.2812 -0.0054  0.4733
 1703TIP3    H226525   6.062   4.488   1.382  0.4563 -0.1925  0.7602
 1704TIP3   OH226526   5.975   2.124  16.468 -0.0503 -0.0226  0.2576
 1704TIP3    H126527   5.956   2.044  16.418  1.9396 -1.9480  2.3367
 1704TIP3    H226528   6.060   2.153  16.436  1.3115 -1.3573  2.4402
 1705TIP3   OH226529   5.927   4.658  13.913 -0.1419  0.2231  0.0953
 1705TIP3    H126530   5.989   4.588  13.932  0.1887  0.7069  0.8338
 1705TIP3    H226531   5.958   4.696  13.830 -0.2128 -0.3727 -0.2061
 1706TIP3   OH226532   5.789   3.388   3.757 -0.0887  0.9132  0.2460
 1706TIP3    H126533   5.771   3.360   3.846 -0.5871 -0.2080 -0.1910
 1706TIP3    H226534   5.883   3.374   3.746 -0.4902 -1.9682 -0.3680
 1707TIP3   OH226535   6.270   4.127  13.779 -0.0268  0.0617  0.2762
 1707TIP3    H126536   6.365   4.136  13.777 -0.0305  0.1349  0.4202
 1707TIP3    H226537   6.247   4.096  13.691  0.1407 -0.0775  0.2807
 1708TIP3   OH226538   4.248   4.936  14.007  0.3363 -0.4931 -0.5105
 1708TIP3    H126539   4.246   4.883  13.927  0.0429 -0.1161 -0.7579
 1708TIP3    H226540   4.312   5.005  13.988  1.4479 -1.3007  0.1702
 1709TIP3   OH226541   0.827   1.875   2.386  0.2892 -0.2939  0.2190
 1709TIP3    H126542   0.795   1.789   2.356  1.8485  0.1705 -3.2643
 1709TIP3    H226543   0.767   1.938   2.346 -0.5824  0.3828  2.4010
 1710TIP3   OH226544   1.436   6.138   4.701 -0.0487  0.3781  0.0941
 1710TIP3    H126545   1.354   6.100   4.670 -0.9447  0.6334  2.0284
 1710TIP3    H226546   1.424   6.233   4.690 -0.4135  0.4768  1.2465
 1711TIP3   OH226547   5.284   4.215  15.954  0.5645  0.1569  0.6939
 1711TIP3    H126548   5.337   4.284  15.914  1.0975  1.1399  2.9437
 1711TIP3    H226549   5.197   4.254  15.961 -0.2687 -1.0352 -1.9348
 1712TIP3   OH226550   2.904   5.484  13.105  0.0144 -0.3295 -0.4560
 1712TIP3    H126551   2.998   5.500  13.113  0.1669  0.9882 -3.4411
 1712TIP3    H226552   2.863   5.568  13.124 -0.3623 -0.2945 -1.3512
 1713TIP3   OH226553   5.651   0.688   2.558 -0.1407  0.3901  0.2429
 1713TIP3    H126554   5.594   0.616   2.531  0.5864 -0.0317 -0.1858
 1713TIP3    H226555   5.634   0.698   2.652 -0.1838 -0.4107  0.3278
 1714TIP3   OH226556   4.028   0.754  15.381 -0.4590 -0.4637  0.2639
 1714TIP3    H126557   4.027   0.661  15.405  1.0798 -1.2210 -2.2538
 1714TIP3    H226558   4.017   0.755  15.286 -0.5152  1.9536  0.2301
 1715TIP3   OH226559   1.734   2.309  14.220  0.6751  0.2987  0.5162
 1715TIP3    H126560   1.659   2.353  14.179  1.8907  1.2565 -0.7983
 1715TIP3    H226561   1.762   2.369  14.289  0.5720  0.2004  0.6443
 1716TIP3   OH226562   2.724   5.787   5.863 -0.4391  0.0431  0.4960
 1716TIP3    H126563   2.737   5.799   5.769  1.9083  0.0347  0.7542
 1716TIP3    H226564   2.653   5.724   5.869 -1.5246  1.0074 -1.2260
 1717TIP3   OH226565   1.252   2.084   0.205 -0.5260  0.5278 -0.6889
 1717TIP3    H126566   1.209   2.046   0.281  1.1463  0.6719  0.3726
 1717TIP3    H226567   1.185   2.138   0.163 -2.1523 -1.3955 -0.6948
 1718TIP3   OH226568   4.509   1.448   4.659 -0.0388 -0.8650 -0.2399
 1718TIP3    H126569   4.524   1.493   4.576 -0.2744  0.7016  0.5201
 1718TIP3    H226570   4.536   1.512   4.725 -2.2485 -1.0777  0.9588
 1719TIP3   OH226571   3.532   3.884   0.721 -0.0846 -0.3092 -0.2463
 1719TIP3    H126572   3.578   3.965   0.697  0.4368 -0.1805  1.1056
 1719TIP3    H226573   3.440   3.904   0.707  0.0206  0.6109  0.2543
 1720TIP3   OH226574   4.930   1.638  13.266 -0.0163  0.1981 -0.0046
 1720TIP3    H126575   4.895   1.659  13.353 -0.8083  0.3202 -0.3448
 1720TIP3    H226576   4.879   1.563  13.237 -0.4050  0.7401 -0.7520
 1721TIP3   OH226577   2.044   2.486  11.673 -0.3225  0.5895 -0.1351
 1721TIP3    H126578   1.958   2.475  11.630  0.7082 -0.7505 -2.0389
 1721TIP3    H226579   2.061   2.580  11.668 -1.3264  0.7761 -0.4620
 1722TIP3   OH226580   0.490   0.898   5.872  0.1189 -0.3383  0.7423
 1722TIP3    H126581   0.492   0.935   5.961  1.4501 -2.0158  1.4659
 1722TIP3    H226582   0.454   0.968   5.818  1.0208  1.4357  2.3058
 1723TIP3   OH226583   3.912   2.293   0.981  0.0928 -0.3677  1.0289
 1723TIP3    H126584   3.918   2.221   0.918  1.3181  0.9107 -0.3892
 1723TIP3    H226585   3.894   2.250   1.064 -0.2141 -2.2253  0.0651
 1724TIP3   OH226586   3.038   5.533   2.473 -0.2780  0.4406 -0.0474
 1724TIP3    H126587   3.004   5.521   2.385  0.3589  0.2826 -0.2767
 1724TIP3    H226588   2.960   5.534   2.529 -0.5816 -1.2813 -0.3947
 1725TIP3   OH226589   1.669   5.079  10.840 -0.1967  0.4446 -0.6708
 1725TIP3    H126590   1.742   5.020  10.821  0.5807  1.1404  0.0568
 1725TIP3    H226591   1.642   5.055  10.929  0.7906  1.8331  0.0279
 1726TIP3   OH226592   2.031   0.035  10.921 -0.0885  0.6365 -0.5918
 1726TIP3    H126593   2.125   0.021  10.919 -0.3547 -1.4713 -0.0620
 1726TIP3    H226594   2.011   0.074  10.835  1.3689  2.2090 -0.2780
 1727TIP3   OH226595   0.445   6.492  16.708  0.2652  0.2668  0.5572
 1727TIP3    H126596   0.521   6.460  16.659 -0.2385 -0.6788  0.3746
 1727TIP3    H226597   0.445   6.440  16.789  0.8661  1.5406  1.4200
 1728TIP3   OH226598   2.984   0.763  16.399 -0.2343 -0.0977 -0.3101
 1728TIP3    H126599   3.013   0.854  16.402 -0.0491  0.0328 -3.2044
 1728TIP3    H226600   3.066   0.713  16.393 -0.3661 -0.3473 -0.0029
 1729TIP3   OH226601   3.356   6.319  14.367  0.1734 -0.0617 -0.2786
 1729TIP3    H126602   3.315   6.388  14.314  0.0142 -0.2969 -0.4661
 1729TIP3    H226603   3.414   6.274  14.306 -0.9297 -1.1203 -0.5882
 1730TIP3   OH226604   4.209   2.478  12.887  0.2092 -0.1680 -0.2752
 1730TIP3    H126605   4.196   2.538  12.960 -0.9798 -1.9416  1.0524
 1730TIP3    H226606   4.279   2.420  12.915 -0.5401 -1.1281 -0.3538
 1731TIP3   OH226607   5.676   0.060  13.200  0.1296 -0.8212 -0.3555
 1731TIP3    H126608   5.768   0.058  13.228  0.7365  1.0287 -2.0038
 1731TIP3    H226609   5.679   0.041  13.107 -1.1552 -0.6387 -0.4470
 1732TIP3   OH226610   5.611   6.605  16.058 -0.3873 -0.0419 -0.0581
 1732TIP3    H126611   5.659   6.655  15.992  0.6283  1.5178  1.7546
 1732TIP3    H226612   5.675   6.589  16.127 -1.3857 -1.6919  0.5282
 1733TIP3   OH226613   2.712   2.187  12.637  0.0068  1.2426 -0.2860
 1733TIP3    H126614   2.708   2.174  12.543  1.2326  0.8723 -0.3002
 1733TIP3    H226615   2.744   2.104  12.672 -1.5707  0.9504  0.5948
 1734TIP3   OH226616   5.772   3.074  11.326  0.0559 -0.2607 -0.2626
 1734TIP3    H126617   5.791   2.983  11.303  2.9369  0.5223 -1.5205
 1734TIP3    H226618   5.735   3.111  11.246 -1.5706 -0.3720  0.3954
 1735TIP3   OH226619   6.378   5.690  15.692  0.2835 -0.0144  0.6503
 1735TIP3    H126620   6.473   5.680  15.687  0.3618  0.0751  1.7229
 1735TIP3    H226621   6.352   5.715  15.604  1.0239 -1.8782 -0.1506
 1736TIP3   OH226622   0.493   4.292   0.451  0.0681 -0.1414  0.5357
 1736TIP3    H126623   0.435   4.302   0.526 -1.3706  2.0545 -0.7451
 1736TIP3    H226624   0.438   4.252   0.383  1.2133 -1.6556  0.4300
 1737TIP3   OH226625   0.278   4.524  15.971 -0.8280  0.9622 -0.5514
 1737TIP3    H126626   0.232   4.583  15.911  1.4886  1.7249 -1.7370
 1737TIP3    H226627   0.259   4.436  15.938 -1.1694  1.2772 -1.2042
 1738TIP3   OH226628   0.554   5.511  15.354  0.1762  0.3199 -0.3374
 1738TIP3    H126629   0.557   5.556  15.438 -1.7610 -1.8829  1.0238
 1738TIP3    H226630   0.610   5.564  15.296  1.2326  2.1302  2.1785
 1739TIP3   OH226631   2.752   6.353  11.056  0.4529  0.3093 -0.7922
 1739TIP3    H126632   2.795   6.355  10.971 -0.1003  1.2985 -1.0706
 1739TIP3    H226633   2.662   6.381  11.038 -0.0163 -0.6583 -0.0615
 1740TIP3   OH226634   3.780   0.795  16.842  0.2885 -0.3719 -0.4352
 1740TIP3    H126635   3.858   0.833  16.882 -0.6798  1.2445 -0.0002
 1740TIP3    H226636   3.782   0.826  16.752 -0.0373 -0.0037 -0.3198
 1741TIP3   OH226637   0.761   1.681  13.346 -0.1523  0.2651 -0.0253
 1741TIP3    H126638   0.789   1.599  13.306 -1.4428 -0.3832  0.3431
 1741TIP3    H226639   0.761   1.663  13.440 -1.0217  0.4741  0.0263
 1742TIP3   OH226640   0.817   2.139  13.232 -0.0308  0.7436  0.1679
 1742TIP3    H126641   0.901   2.143  13.278  0.4076  2.3688 -0.7154
 1742TIP3    H226642   0.753   2.168  13.297 -0.2216 -2.0016  1.3605
 1743TIP3   OH226643   2.011   3.324  13.786  1.1275  0.9873 -0.4610
 1743TIP3    H126644   1.979   3.285  13.705  0.9119  0.8073 -0.2903
 1743TIP3    H226645   1.938   3.316  13.847  0.6518  2.6946 -0.7517
 1744TIP3   OH226646   2.821   6.168   2.892 -0.0520 -0.3066 -0.1805
 1744TIP3    H126647   2.901   6.207   2.857 -0.5050  0.1753 -0.7172
 1744TIP3    H226648   2.777   6.240   2.938  0.9507 -1.1283  2.2045
 1745TIP3   OH226649   3.298   4.429  15.945  0.1661 -0.4050  0.5736
 1745TIP3    H126650   3.210   4.458  15.925  0.3308 -1.2530 -1.6231
 1745TIP3    H226651   3.310   4.449  16.038 -2.5692 -0.9035  1.1039
 1746TIP3   OH226652   4.246   5.337   4.646  0.2007  0.5720  0.6425
 1746TIP3    H126653   4.230   5.409   4.707 -0.3395 -1.0831  2.5759
 1746TIP3    H226654   4.166   5.285   4.649  1.0616 -0.8353  0.3700
 1747TIP3   OH226655   5.472   2.926   0.867  0.0741 -0.2007  0.6513
 1747TIP3    H126656   5.450   2.965   0.952 -1.4315 -1.5915  0.9430
 1747TIP3    H226657   5.420   2.847   0.863  0.2372 -0.2488 -1.5374
 1748TIP3   OH226658   2.610   0.722  15.153  0.1874  0.1853 -0.2587
 1748TIP3    H126659   2.634   0.793  15.212  0.9919  0.5470 -0.9843
 1748TIP3    H226660   2.535   0.755  15.104  0.5912  0.5722 -0.6293
 1749TIP3   OH226661   2.318   3.494   5.360 -0.1578 -0.2034  0.0221
 1749TIP3    H126662   2.249   3.461   5.302  0.1524  0.0918 -0.5229
 1749TIP3    H226663   2.375   3.546   5.303  0.8148 -0.8773  0.3506
 1750TIP3   OH226664   5.055   5.265  13.204  0.5729 -0.0981 -0.0576
 1750TIP3    H126665   4.969   5.295  13.174 -0.9146 -2.5979  1.3265
 1750TIP3    H226666   5.114   5.286  13.132 -1.7147 -0.6796 -2.2803
 1751TIP3   OH226667   4.079   5.209   0.596 -0.0596 -0.2223  0.0587
 1751TIP3    H126668   3.992   5.186   0.629 -1.3063  1.2466 -1.9296
 1751TIP3    H226669   4.130   5.229   0.674 -1.5084 -1.0998  1.2771
 1752TIP3   OH226670   1.728   2.353   0.149  0.5205 -0.5359 -0.0150
 1752TIP3    H126671   1.772   2.432   0.119 -0.9277  0.7426  1.0210
 1752TIP3    H226672   1.778   2.280   0.111  0.5930  0.8864 -2.8592
 1753TIP3   OH226673   3.631   6.533  13.079 -0.9279 -0.0874 -0.6864
 1753TIP3    H126674   3.648   6.625  13.101 -0.5440 -0.4105  0.4806
 1753TIP3    H226675   3.714   6.502  13.042 -1.3416  0.2616 -1.9428
 1754TIP3   OH226676   6.475   1.607  14.814  0.1071  0.3468  0.2949
 1754TIP3    H126677   6.467   1.682  14.873  4.0600  0.9111  0.3886
 1754TIP3    H226678   6.567   1.606  14.790 -0.7214 -1.7423 -3.4850
 1755TIP3   OH226679   2.695   0.886  15.347 -0.4202 -0.4952 -0.6612
 1755TIP3    H126680   2.655   0.903  15.432 -1.0339  0.1483 -1.0675
 1755TIP3    H226681   2.719   0.973  15.314 -1.0765 -0.6433 -1.5660
 1756TIP3   OH226682   0.691   3.649   2.675 -0.1406 -0.0867  1.1401
 1756TIP3    H126683   0.732   3.662   2.589 -2.9175 -0.0125 -0.2785
 1756TIP3    H226684   0.757   3.603   2.726  1.3804 -0.7434 -1.2507
 1757TIP3   OH226685   1.090   3.964   4.248  0.2580  0.2826 -0.4746
 1757TIP3    H126686   1.066   4.049   4.210 -1.8571 -0.2497 -0.4631
 1757TIP3    H226687   1.109   3.983   4.340  2.3121  1.0930 -1.0226
 1758TIP3   OH226688   3.626   4.686   0.193 -0.6220 -0.2245 -0.0001
 1758TIP3    H126689   3.590   4.628   0.261  1.1204  0.9581  2.0505
 1758TIP3    H226690   3.659   4.626   0.126  0.2804 -1.6297  1.6071
 1759TIP3   OH226691   0.981   0.478   0.046 -0.4632 -0.1846  0.0998
 1759TIP3    H126692   1.070   0.444   0.053 -1.0492 -1.5195  1.4797
 1759TIP3    H226693   0.938   0.420  -0.016 -1.2054 -1.5080  1.7701
 1760TIP3   OH226694   6.707   4.094   3.575 -0.3169  0.3011 -0.0420
 1760TIP3    H126695   6.739   4.009   3.546 -0.6594  0.8870 -2.3019
 1760TIP3    H226696   6.612   4.088   3.564 -0.3878  0.8053  0.2911
 1761TIP3   OH226697   4.291   5.526  12.895 -0.4650 -0.1167 -0.3658
 1761TIP3    H126698   4.247   5.576  12.827  0.7155  1.1323 -0.2460
 1761TIP3    H226699   4.222   5.472  12.933 -1.5477  0.6172 -1.2284
 1762TIP3   OH226700   2.711   2.679   5.199  0.2150 -0.3559  0.0164
 1762TIP3    H126701   2.748   2.705   5.115 -0.5348 -1.7782 -0.7787
 1762TIP3    H226702   2.619   2.657   5.179  0.0054 -0.6401  1.2141
 1763TIP3   OH226703   1.236   6.698  13.185  0.1722  0.6136  0.2334
 1763TIP3    H126704   1.245   6.745  13.102 -2.0645  1.4155  0.3801
 1763TIP3    H226705   1.149   6.658  13.180 -0.3742  1.3831  2.5079
 1764TIP3   OH226706   5.653   3.884  14.056  0.1454  0.3749 -0.0002
 1764TIP3    H126707   5.747   3.870  14.066  0.9862  4.7595  0.0127
 1764TIP3    H226708   5.644   3.927  13.971 -2.2895 -2.1256 -1.1748
 1765TIP3   OH226709   3.120   6.505   6.026 -0.4837 -0.1382  0.0343
 1765TIP3    H126710   3.137   6.499   6.120 -0.5325  0.4315  0.0821
 1765TIP3    H226711   3.044   6.562   6.019 -1.0181 -0.8769 -0.3064
 1766TIP3   OH226712   4.373   4.639  14.926 -0.2477  0.2356  0.1456
 1766TIP3    H126713   4.405   4.550  14.913 -0.2305 -0.3474  3.4722
 1766TIP3    H226714   4.439   4.695  14.885  0.1067 -1.2109 -1.3698
 1767TIP3   OH226715   4.766   2.110  13.800 -0.0443 -0.3733 -0.1559
 1767TIP3    H126716   4.824   2.060  13.857  1.8095  0.9847 -0.7270
 1767TIP3    H226717   4.788   2.081  13.711 -0.6942 -0.2802 -0.3545
 1768TIP3   OH226718   6.379   5.910  11.655  0.1422  0.1349 -0.4114
 1768TIP3    H126719   6.402   5.995  11.693  2.3631 -0.0197 -1.2365
 1768TIP3    H226720   6.287   5.917  11.632  0.2868  2.3539 -0.4869
 1769TIP3   OH226721   4.047   2.666   0.302 -0.0714  0.3605  0.7513
 1769TIP3    H126722   4.137   2.695   0.284  0.2686 -0.7369  0.5541
 1769TIP3    H226723   4.058   2.581   0.346 -1.0114 -0.9558 -1.3972
 1770TIP3   OH226724   2.748   4.804  15.156 -0.0447 -0.2698  0.3627
 1770TIP3    H126725   2.748   4.883  15.103 -0.3603 -1.2329 -1.1419
 1770TIP3    H226726   2.773   4.833  15.243  0.0054  1.4478 -0.1956
 1771TIP3   OH226727   2.953   1.919  14.133 -0.6452  0.4895  0.9407
 1771TIP3    H126728   3.010   1.942  14.060 -0.7772 -0.1874  0.6195
 1771TIP3    H226729   2.866   1.950  14.107 -0.1508  3.3265  2.2608
 1772TIP3   OH226730   3.604   5.582  16.359  0.4913 -0.1327  0.3618
 1772TIP3    H126731   3.663   5.615  16.427 -0.2757  1.1975  0.4095
 1772TIP3    H226732   3.580   5.660  16.308  0.1726 -0.9316 -0.7502
 1773TIP3   OH226733   3.768   2.253   3.467 -0.1563 -0.1245 -0.3233
 1773TIP3    H126734   3.680   2.255   3.430 -1.0541 -0.2886  1.6978
 1773TIP3    H226735   3.768   2.321   3.533  1.3464  0.0647 -0.4942
 1774TIP3   OH226736   6.765   2.429  15.843 -0.3884 -0.1841  0.1006
 1774TIP3    H126737   6.849   2.396  15.811  0.7519  1.3496  1.3395
 1774TIP3    H226738   6.787   2.476  15.923 -2.2742  1.2016 -0.1216
 1775TIP3   OH226739   1.338   0.497   6.092  0.2439  0.2422 -0.2102
 1775TIP3    H126740   1.338   0.407   6.060 -1.0750  0.3394 -0.5394
 1775TIP3    H226741   1.249   0.512   6.121  1.0635  0.5899  2.3609
 1776TIP3   OH226742   2.552   0.009   2.911  0.4604  0.0510  0.3542
 1776TIP3    H126743   2.553   0.021   3.005  3.9646 -0.7175  0.5679
 1776TIP3    H226744   2.468  -0.033   2.893 -0.2006 -0.0219  3.1509
 1777TIP3   OH226745   0.235   4.367   5.182 -0.2603 -0.2984  0.4774
 1777TIP3    H126746   0.223   4.280   5.219  0.9208 -0.5196  0.3773
 1777TIP3    H226747   0.223   4.427   5.256 -0.3836 -0.5914  0.6946
 1778TIP3   OH226748   5.041   1.230   2.993 -0.2628  0.0603  0.1831
 1778TIP3    H126749   5.097   1.197   2.922 -0.5676  2.1654 -1.1345
 1778TIP3    H226750   4.971   1.277   2.948  0.8780  3.6792  1.8049
 1779TIP3   OH226751   4.846   1.579   2.462 -0.0621  0.8732  0.1630
 1779TIP3    H126752   4.809   1.555   2.377 -1.2363 -1.6514  1.3007
 1779TIP3    H226753   4.779   1.633   2.503 -0.1796  0.7690  0.1076
 1780TIP3   OH226754   5.210   2.743  15.133  0.1421 -0.7116  0.2887
 1780TIP3    H126755   5.287   2.781  15.176  0.0050 -0.8410  0.6556
 1780TIP3    H226756   5.216   2.649  15.152 -0.4326 -0.6407  0.8537
 1781TIP3   OH226757   3.041   6.436  10.610 -0.0105 -0.2361 -0.6919
 1781TIP3    H126758   3.134   6.425  10.589  0.2646 -0.2348  0.4866
 1781TIP3    H226759   2.997   6.366  10.562  0.6263 -0.3986 -1.0516
 1782TIP3   OH226760   5.550   2.416  12.243 -0.1328  0.3721  0.9353
 1782TIP3    H126761   5.507   2.331  12.255  0.0111 -0.1292 -1.6046
 1782TIP3    H226762   5.640   2.401  12.273 -0.4002 -0.0235  1.5669
 1783TIP3   OH226763   1.037   3.871  12.299  0.2531  0.7849  0.1075
 1783TIP3    H126764   1.009   3.786  12.265 -1.3507  0.5030  1.9419
 1783TIP3    H226765   1.063   3.854  12.390  0.5923  2.1318  0.2892
 1784TIP3   OH226766   3.002   4.526   6.283  0.5820  0.2254 -0.1755
 1784TIP3    H126767   3.086   4.529   6.327 -0.4996 -0.2757  2.0533
 1784TIP3    H226768   2.945   4.477   6.342 -1.3353  0.6729 -1.5359
 1785TIP3   OH226769   3.435   6.501  14.681  0.4862 -0.3292  0.1391
 1785TIP3    H126770   3.470   6.415  14.707 -1.2267 -2.0652 -2.8235
 1785TIP3    H226771   3.414   6.491  14.589 -1.3097  2.8206  0.0996
 1786TIP3   OH226772   1.056   5.449   4.084 -0.0131 -0.2655  0.4402
 1786TIP3    H126773   0.985   5.385   4.097  0.1343 -0.8580 -1.4332
 1786TIP3    H226774   1.131   5.410   4.129 -0.8013  0.3323  2.3878
 1787TIP3   OH226775   6.115   3.989   4.072 -0.1593 -0.3524  0.1554
 1787TIP3    H126776   6.023   3.990   4.099 -0.3997 -1.6813 -0.5122
 1787TIP3    H226777   6.152   4.068   4.111 -1.3235 -0.3508  1.3484
 1788TIP3   OH226778   4.405   1.518  13.181  0.2590  0.4220  0.0235
 1788TIP3    H126779   4.339   1.560  13.236  0.6130  2.1889 -0.8395
 1788TIP3    H226780   4.355   1.478  13.109 -0.3954 -3.3214  2.2610
 1789TIP3   OH226781   6.164   0.925  15.509 -0.2900 -0.4826  0.3020
 1789TIP3    H126782   6.080   0.892  15.542 -0.7404  0.7611  0.4601
 1789TIP3    H226783   6.147   0.946  15.417  0.1167 -1.1016  0.0817
 1790TIP3   OH226784   0.166   0.548  16.012  0.1732  0.2506 -0.0446
 1790TIP3    H126785   0.106   0.557  16.086  0.7970 -1.2175  0.6862
 1790TIP3    H226786   0.239   0.607  16.033  0.5935 -0.5348  0.8089
 1791TIP3   OH226787   2.284   6.668   0.719 -0.3003  0.3976 -0.3845
 1791TIP3    H126788   2.223   6.613   0.768 -0.5763  0.1229 -1.0238
 1791TIP3    H226789   2.358   6.610   0.699  0.1471  0.7075  0.3200
 1792TIP3   OH226790   2.177   0.066   3.705 -0.0769 -0.1307 -0.1281
 1792TIP3    H126791   2.228   0.144   3.680  0.9766 -0.6834  0.2247
 1792TIP3    H226792   2.090   0.100   3.724  0.4882  1.0494  0.5137
 1793TIP3   OH226793   1.786   0.694  10.579 -0.1536 -0.1241 -0.4398
 1793TIP3    H126794   1.856   0.678  10.515 -0.2528  2.2514 -1.2500
 1793TIP3    H226795   1.794   0.787  10.600 -2.2146 -0.1099  0.4902
 1794TIP3   OH226796   3.884   1.869  15.113  0.2282 -0.8019  0.3025
 1794TIP3    H126797   3.977   1.892  15.123 -0.1316  1.0485 -0.2736
 1794TIP3    H226798   3.880   1.823  15.029  0.6097 -0.7905  0.2746
 1795TIP3   OH226799   5.801   4.966  17.011 -0.0743 -0.0532  0.3472
 1795TIP3    H126800   5.814   4.872  16.994 -1.0087 -0.1296 -0.0037
 1795TIP3    H226801   5.817   5.007  16.926  0.4968  0.1354  0.5389
 1796TIP3   OH226802   6.393   6.331  13.103 -0.8862 -0.2541 -0.3353
 1796TIP3    H126803   6.320   6.388  13.128  0.0404  0.5225  0.7786
 1796TIP3    H226804   6.365   6.243  13.127 -2.3106 -0.2829 -1.9968
 1797TIP3   OH226805   4.083   4.623   4.128 -0.1070 -0.0372  0.9119
 1797TIP3    H126806   4.078   4.561   4.201 -0.6285 -0.8235  0.2332
 1797TIP3    H226807   4.175   4.622   4.101  0.0896  0.2659  1.5506
 1798TIP3   OH226808   1.471   5.634  12.418 -0.0537  0.5111 -0.3327
 1798TIP3    H126809   1.447   5.671  12.333  0.8589 -1.9585 -1.7710
 1798TIP3    H226810   1.566   5.628  12.415 -0.1476 -2.2091 -0.4030
 1799TIP3   OH226811   1.829   1.425  13.607 -0.5218  0.0357 -0.5647
 1799TIP3    H126812   1.807   1.337  13.574 -0.2250 -0.4062  0.3691
 1799TIP3    H226813   1.922   1.434  13.590 -0.3019 -0.3166  0.3848
 1800TIP3   OH226814   6.431   6.196  16.292 -0.4407  0.2272  0.2153
 1800TIP3    H126815   6.444   6.102  16.305  1.6085  0.7381  2.4413
 1800TIP3    H226816   6.391   6.227  16.373 -1.7693  1.2302 -0.7663
 1801TIP3   OH226817   0.815   0.210  13.540  0.1191 -0.2836 -0.0450
 1801TIP3    H126818   0.874   0.163  13.600  0.1723 -0.1468  0.0097
 1801TIP3    H226819   0.728   0.194  13.577  0.2491  0.8731  0.8216
 1802TIP3   OH226820   4.443   1.151   3.533 -0.5408  0.1476 -0.3905
 1802TIP3    H126821   4.435   1.185   3.622  0.1355 -2.6420  0.8571
 1802TIP3    H226822   4.535   1.165   3.509 -0.1269 -1.1218  0.3350
 1803TIP3   OH226823   4.393   2.754  14.024  0.4373 -0.1482  0.0883
 1803TIP3    H126824   4.417   2.779  13.935  2.4893 -0.2719  0.5679
 1803TIP3    H226825   4.301   2.727  14.017 -0.6659  3.3785 -1.2371
 1804TIP3   OH226826   2.740   2.285  13.483  0.3877  0.2677 -0.3415
 1804TIP3    H126827   2.661   2.338  13.475 -0.6476 -0.5943  2.8055
 1804TIP3    H226828   2.710   2.202  13.521  2.5234 -0.9831 -1.1788
 1805TIP3   OH226829   6.458   6.573   3.307 -0.1162 -0.3495  0.3418
 1805TIP3    H126830   6.447   6.667   3.317  1.5576 -0.1732  0.9007
 1805TIP3    H226831   6.427   6.536   3.389 -1.2484 -0.3434 -0.0742
 1806TIP3   OH226832   0.527   1.703  11.087  0.0212 -0.1612 -0.0173
 1806TIP3    H126833   0.473   1.654  11.025 -1.8948  0.2738  1.2106
 1806TIP3    H226834   0.475   1.781  11.107  1.6228  0.8425  0.4074
 1807TIP3   OH226835   3.740   4.094  11.013 -0.7441 -0.1148  0.2836
 1807TIP3    H126836   3.740   4.186  10.987 -0.8580 -0.8530 -2.7798
 1807TIP3    H226837   3.651   4.064  10.993 -0.2590 -1.2198 -0.2746
 1808TIP3   OH226838   1.919   2.126  10.247 -0.2950  0.2378  0.4483
 1808TIP3    H126839   1.964   2.173  10.177 -0.7841  0.1519  0.0744
 1808TIP3    H226840   1.850   2.076  10.203  0.2121 -0.8376  0.8370
 1809TIP3   OH226841   1.633   1.720  14.674 -0.0049 -0.4072  0.2181
 1809TIP3    H126842   1.580   1.798  14.661 -0.4907 -0.9570 -1.3241
 1809TIP3    H226843   1.611   1.663  14.600  0.4344 -1.9558  1.2278
 1810TIP3   OH226844   2.142   3.569   4.061  0.0027  0.7894 -0.3610
 1810TIP3    H126845   2.081   3.642   4.068 -0.9337  0.1000 -1.0975
 1810TIP3    H226846   2.219   3.606   4.019  0.2814  1.7670  0.9635
 1811TIP3   OH226847   5.995   0.491   5.700 -0.3851 -0.7309  0.2200
 1811TIP3    H126848   6.039   0.482   5.616 -0.0520 -1.3474  0.4574
 1811TIP3    H226849   6.061   0.528   5.758  0.2555 -2.7972  0.8995
 1812TIP3   OH226850   5.760   2.694   2.260 -0.0509  0.0037  0.5067
 1812TIP3    H126851   5.693   2.665   2.197 -1.2759  0.3540  1.6000
 1812TIP3    H226852   5.752   2.789   2.261  1.3528  0.1578 -0.2625
 1813TIP3   OH226853   0.373   1.977   2.224 -0.1479  0.2012 -0.1504
 1813TIP3    H126854   0.291   1.946   2.263 -0.5847  1.7759  0.2774
 1813TIP3    H226855   0.358   2.071   2.210  1.2489  0.3277 -0.9660
 1814TIP3   OH226856   6.793   3.477  13.083  0.1427 -0.0502 -0.2615
 1814TIP3    H126857   6.725   3.415  13.110  1.7819 -0.7819  2.7730
 1814TIP3    H226858   6.875   3.429  13.096  1.3380  1.6406 -1.2008
 1815TIP3   OH226859   6.212   3.555   4.165 -0.3711 -0.1766 -0.7087
 1815TIP3    H126860   6.179   3.623   4.106 -0.7905 -0.0855 -0.3774
 1815TIP3    H226861   6.238   3.602   4.244 -0.3813 -0.3620 -0.5940
 1816TIP3   OH226862   2.678   5.991  14.000  0.0749  0.1937  0.1508
 1816TIP3    H126863   2.639   6.035  14.076 -1.8299  3.3574 -2.4161
 1816TIP3    H226864   2.773   5.998  14.015 -0.2363  1.1148  2.0155
 1817TIP3   OH226865   3.644   2.322  14.128  0.4677  0.2080  0.2902
 1817TIP3    H126866   3.626   2.231  14.102  1.9164 -0.4180  1.3639
 1817TIP3    H226867   3.739   2.329  14.127  0.3736  1.7267  0.2372
 1818TIP3   OH226868   4.762   2.450   4.805  0.4566  0.0799  0.7085
 1818TIP3    H126869   4.782   2.457   4.899  2.7234  0.9832  0.2303
 1818TIP3    H226870   4.841   2.413   4.767 -1.1305 -2.1258 -0.6641
 1819TIP3   OH226871   2.155   2.561  16.743  0.5312  0.1553 -0.0022
 1819TIP3    H126872   2.101   2.506  16.800 -0.1854  0.5379 -0.2892
 1819TIP3    H226873   2.110   2.556  16.658  1.8925 -0.8740 -0.6942
 1820TIP3   OH226874   4.986   1.158   5.900  0.1629  0.2107 -0.1612
 1820TIP3    H126875   4.902   1.193   5.871 -0.3998  2.6621  3.7200
 1820TIP3    H226876   4.963   1.083   5.955  0.4709  0.9545  0.9987
 1821TIP3   OH226877   4.229   6.266  10.419 -0.7243  0.7177 -0.4847
 1821TIP3    H126878   4.248   6.315  10.499  1.5093 -0.6422 -0.0957
 1821TIP3    H226879   4.292   6.299  10.355  0.8051 -1.5388 -0.2205
 1822TIP3   OH226880   4.790   1.614  16.000 -0.0658 -0.0058  0.0631
 1822TIP3    H126881   4.740   1.694  15.982  1.1519  0.5276 -1.2364
 1822TIP3    H226882   4.840   1.600  15.920  2.8359  0.2469  1.6980
 1823TIP3   OH226883   1.894   5.581  15.181  0.1808  0.0811 -0.0734
 1823TIP3    H126884   1.953   5.507  15.167  1.8625  0.7953  2.3899
 1823TIP3    H226885   1.890   5.625  15.097  0.0199 -2.1445 -1.3056
 1824TIP3   OH226886   3.591   0.158  16.253 -0.0644  0.6728 -0.0631
 1824TIP3    H126887   3.571   0.213  16.177  0.4669  0.4871 -0.3455
 1824TIP3    H226888   3.687   0.152  16.252 -0.1003  0.0694  0.1957
 1825TIP3   OH226889   0.626   0.767  14.958  0.1820 -0.4915  0.2020
 1825TIP3    H126890   0.625   0.797  14.867  2.9904 -0.2290  0.1831
 1825TIP3    H226891   0.533   0.764  14.983 -0.5684  1.2968 -2.0303
 1826TIP3   OH226892   3.753   5.750  12.745  0.5585  0.0578 -0.6552
 1826TIP3    H126893   3.704   5.806  12.685  2.0401  1.3188 -0.7738
 1826TIP3    H226894   3.796   5.686  12.689 -1.9522 -1.9644 -0.4322
 1827TIP3   OH226895   3.410   5.984  11.081  0.1362 -0.7439 -0.3649
 1827TIP3    H126896   3.503   5.983  11.102  0.4565  0.3563 -1.5698
 1827TIP3    H226897   3.407   6.005  10.987 -1.3540  1.2285  0.0412
 1828TIP3   OH226898   0.547   6.287  11.585 -0.2441 -0.4227  0.1281
 1828TIP3    H126899   0.462   6.307  11.547 -0.1969 -0.7204 -0.1325
 1828TIP3    H226900   0.606   6.353  11.548 -0.3454 -0.2594  0.2551
 1829TIP3   OH226901   2.672   5.270   3.059  0.1664  0.6779 -0.1090
 1829TIP3    H126902   2.719   5.314   3.129  1.3360  0.1405 -0.5425
 1829TIP3    H226903   2.618   5.204   3.103  0.8176  0.4075  0.2883
 1830TIP3   OH226904   1.570   5.630  14.256  0.4103 -0.2565 -0.7547
 1830TIP3    H126905   1.654   5.635  14.210  0.8303  0.5713  0.0807
 1830TIP3    H226906   1.591   5.649  14.347 -0.6649 -0.1898 -0.5073
 1831TIP3   OH226907   2.557   3.972  12.935  0.3408 -0.2398  0.1494
 1831TIP3    H126908   2.572   3.912  12.862  2.3807  1.1058 -0.6267
 1831TIP3    H226909   2.477   4.019  12.911 -0.1629 -1.2608 -0.1949
 1832TIP3   OH226910   0.918   6.678   5.843 -0.3881  0.5153 -0.0177
 1832TIP3    H126911   0.843   6.681   5.783 -0.8786  1.0661  0.6135
 1832TIP3    H226912   0.943   6.770   5.854 -1.8536  0.6991  2.5136
 1833TIP3   OH226913   3.322   0.075  11.233 -0.7035 -0.4536  0.6312
 1833TIP3    H126914   3.333   0.097  11.140  0.6423 -2.6222  0.2141
 1833TIP3    H226915   3.409   0.085  11.271 -0.9983 -0.7333  1.4052
 1834TIP3   OH226916   4.920   6.455   2.155  0.3731  0.5064  0.2063
 1834TIP3    H126917   4.944   6.425   2.068 -0.0708 -0.3080  0.3558
 1834TIP3    H226918   5.000   6.493   2.190  1.4289 -1.8820  0.5808
 1835TIP3   OH226919   4.663   1.197   5.122  0.6558  0.2339 -0.2430
 1835TIP3    H126920   4.632   1.207   5.032 -1.6160 -0.6087  0.3907
 1835TIP3    H226921   4.661   1.103   5.139  0.0079  0.4507  1.0306
 1836TIP3   OH226922   2.368   6.602  16.978  0.0341 -0.1575 -0.6791
 1836TIP3    H126923   2.284   6.642  17.003 -0.1952 -1.3865  0.7289
 1836TIP3    H226924   2.434   6.654  17.023 -0.1454 -0.4448 -0.0751
 1837TIP3   OH226925   4.929   4.714   1.651 -0.1535  0.3891  0.0063
 1837TIP3    H126926   5.020   4.735   1.634 -0.5518  0.8899 -1.7454
 1837TIP3    H226927   4.880   4.791   1.622 -1.2862 -0.8214 -1.5166
 1838TIP3   OH226928   2.758   4.589   0.031 -0.4599  0.2653  0.5531
 1838TIP3    H126929   2.742   4.543  -0.051  0.2727  0.4127  0.3108
 1838TIP3    H226930   2.711   4.538   0.097  0.6782 -1.1048  0.3617
 1839TIP3   OH226931   3.695   2.169  11.937 -0.3091 -0.2134 -0.1410
 1839TIP3    H126932   3.714   2.192  12.028  1.1180 -1.1231 -0.1690
 1839TIP3    H226933   3.766   2.210  11.887 -2.1798  2.0110 -1.1406
 1840TIP3   OH226934   6.660   5.994   5.586 -0.3765  0.1234 -0.5453
 1840TIP3    H126935   6.578   5.976   5.541 -0.3297  0.6268 -0.8376
 1840TIP3    H226936   6.724   5.938   5.542 -0.7090 -0.8776  0.2168
 1841TIP3   OH226937   1.288   4.838  14.894 -0.3201  0.1135 -0.1664
 1841TIP3    H126938   1.262   4.779  14.823  2.1830 -1.0922 -0.2083
 1841TIP3    H226939   1.252   4.798  14.973 -0.3226 -0.3791 -0.4136
 1842TIP3   OH226940   0.624   1.285   1.080 -0.2699  0.3165 -0.4920
 1842TIP3    H126941   0.628   1.272   1.174  1.1151 -0.3163 -0.6062
 1842TIP3    H226942   0.630   1.196   1.043  1.1423  0.6580 -1.1722
 1843TIP3   OH226943   5.447   0.887  13.578  0.3348 -0.0673  0.1988
 1843TIP3    H126944   5.488   0.955  13.524 -2.1541  1.4431  0.0307
 1843TIP3    H226945   5.517   0.856  13.634  2.4959 -0.1396 -2.3635
 1844TIP3   OH226946   1.097   1.905  11.279  1.1388  0.2064  0.2288
 1844TIP3    H126947   1.004   1.890  11.298  0.9558  0.9948 -0.0215
 1844TIP3    H226948   1.101   1.914  11.184  1.5456 -0.2986  0.1933
 1845TIP3   OH226949   4.944   3.127   4.020  0.1935 -0.0144 -0.1529
 1845TIP3    H126950   4.956   3.222   4.023 -0.8065  0.1340 -0.5300
 1845TIP3    H226951   4.920   3.103   4.109 -0.3794  0.2029 -0.2489
 1846TIP3   OH226952   4.221   5.329   0.157 -0.2016  0.1716 -0.1938
 1846TIP3    H126953   4.260   5.259   0.105 -0.0350  0.6599 -0.7478
 1846TIP3    H226954   4.235   5.408   0.104 -0.0253  0.6851  0.6020
 1847TIP3   OH226955   1.475   5.407  16.215 -0.2791 -0.1236 -0.5569
 1847TIP3    H126956   1.508   5.350  16.145  1.7195  1.3684 -0.9351
 1847TIP3    H226957   1.419   5.470  16.171 -1.0164 -0.6624 -0.4106
 1848TIP3   OH226958   2.072   4.471  13.414 -0.2191  0.6835 -0.1272
 1848TIP3    H126959   2.126   4.391  13.413  0.3133  1.0292  0.4191
 1848TIP3    H226960   2.045   4.482  13.323  0.1387  0.1690 -0.3036
 1849TIP3   OH226961   6.233   3.903   4.596 -0.2105  0.8074 -0.1078
 1849TIP3    H126962   6.138   3.913   4.590 -0.1081  1.1947 -1.5458
 1849TIP3    H226963   6.266   3.992   4.591  0.2416  0.6476  0.0247
 1850TIP3   OH226964   2.565   3.146   4.523  0.0965 -0.5670  0.1485
 1850TIP3    H126965   2.619   3.107   4.591  0.9270  1.2124  0.5605
 1850TIP3    H226966   2.522   3.071   4.481  1.3430 -1.8746  1.0948
 1851TIP3   OH226967   6.322   6.533  10.279  0.0171  0.3204 -0.0229
 1851TIP3    H126968   6.387   6.602  10.266 -0.0998  0.4213 -0.0739
 1851TIP3    H226969   6.249   6.558  10.223 -0.5625  0.8537  0.9415
 1852TIP3   OH226970   4.554   0.075  11.572  0.3182  0.2612 -0.1408
 1852TIP3    H126971   4.532  -0.006  11.526  0.0177  0.6840 -0.7551
 1852TIP3    H226972   4.608   0.046  11.645 -1.9760 -0.7869  1.2486
 1853TIP3   OH226973   6.622   5.076  11.585  1.1699  0.2953 -0.2601
 1853TIP3    H126974   6.614   5.037  11.672 -0.6250  1.2830  0.0526
 1853TIP3    H226975   6.680   5.152  11.598 -0.4532  1.4616  0.4806
 1854TIP3   OH226976   5.351   0.250  12.928 -0.0505 -0.3419  0.0113
 1854TIP3    H126977   5.283   0.196  12.967  2.9519 -2.0070  3.5204
 1854TIP3    H226978   5.376   0.202  12.848 -1.7142 -0.6236 -0.3738
 1855TIP3   OH226979   4.492   5.967  16.256 -0.3260  0.5634  0.3185
 1855TIP3    H126980   4.465   6.009  16.175 -1.6195 -1.5104 -0.3873
 1855TIP3    H226981   4.577   5.927  16.235 -1.0268 -0.6511 -0.3061
 1856TIP3   OH226982   3.909   0.314  12.082 -0.2602 -0.3860 -0.2763
 1856TIP3    H126983   3.966   0.319  12.005 -1.2154  0.1444 -0.9668
 1856TIP3    H226984   3.824   0.289  12.047 -0.9519  0.8348  0.4747
 1857TIP3   OH226985   4.522   3.816   3.653  0.3457  0.7956  0.3135
 1857TIP3    H126986   4.551   3.906   3.635 -2.9030  1.8210 -0.4553
 1857TIP3    H226987   4.560   3.764   3.581 -1.6215  2.5128 -2.1416
 1858TIP3   OH226988   2.846   0.573   2.192 -0.1098 -0.6670 -0.2163
 1858TIP3    H126989   2.870   0.485   2.220 -0.9265 -0.9494 -0.3586
 1858TIP3    H226990   2.815   0.562   2.102  3.4686  0.3911 -1.7185
 1859TIP3   OH226991   6.224   2.541   5.216 -0.2090 -0.4891  0.0256
 1859TIP3    H126992   6.242   2.447   5.210  0.3724 -0.2609 -2.9172
 1859TIP3    H226993   6.303   2.583   5.183 -0.4102  1.1055  1.4223
 1860TIP3   OH226994   1.386   6.049  15.551  0.4869 -0.0367 -0.4019
 1860TIP3    H126995   1.357   6.035  15.461  2.1543  0.3496 -1.0414
 1860TIP3    H226996   1.425   6.136  15.551  1.2015 -0.3310  0.4891
 1861TIP3   OH226997   6.044   1.441   0.049 -0.4531 -0.4332 -0.4306
 1861TIP3    H126998   6.045   1.523  -0.000  1.2121 -0.2384 -0.1165
 1861TIP3    H226999   5.972   1.453   0.112 -0.5248  0.5983 -0.6848
 1862TIP3   OH227000   5.451   6.621  10.430 -0.1892  0.1164  0.5576
 1862TIP3    H127001   5.397   6.590  10.502  2.3035 -0.1036  2.4650
 1862TIP3    H227002   5.485   6.541  10.390 -1.3620  0.2455 -0.7786
 1863TIP3   OH227003   3.214   4.992  16.196 -0.1985 -0.0520  0.1060
 1863TIP3    H127004   3.125   5.013  16.226  0.4025  1.3343  0.9636
 1863TIP3    H227005   3.243   4.923  16.256 -0.5589 -0.2819  0.0263
 1864TIP3   OH227006   5.947   2.930  11.526 -0.0848 -0.6466  0.0707
 1864TIP3    H127007   5.936   3.002  11.464  0.3791  0.4780  1.2521
 1864TIP3    H227008   5.898   2.857  11.488  1.1837 -0.3801 -2.2004
 1865TIP3   OH227009   5.362   6.764   4.312 -0.4556  0.3210  0.3126
 1865TIP3    H127010   5.274   6.726   4.315 -1.2878  2.1455  1.1424
 1865TIP3    H227011   5.348   6.857   4.332  1.7596  0.4949  1.3321
 1866TIP3   OH227012   4.936   1.487  11.316  0.4123 -0.0304  0.1995
 1866TIP3    H127013   5.001   1.548  11.349 -0.4491  1.1345 -0.1946
 1866TIP3    H227014   4.977   1.448  11.238  0.6486  0.6758 -0.0328
 1867TIP3   OH227015   3.847   6.067  15.982  0.0545  0.7556 -0.1434
 1867TIP3    H127016   3.876   6.134  16.043 -0.4167  0.8707 -0.0432
 1867TIP3    H227017   3.759   6.093  15.956 -0.1472  0.1642 -0.0812
 1868TIP3   OH227018   5.655   2.626  12.536 -0.7058 -0.0718  0.1143
 1868TIP3    H127019   5.700   2.637  12.452 -0.2788  0.6238  0.4265
 1868TIP3    H227020   5.653   2.531  12.549  3.5160 -0.1909  1.5629
 1869TIP3   OH227021   2.699   4.526   4.740  0.3259 -0.1511 -0.2504
 1869TIP3    H127022   2.744   4.610   4.747  0.1362  0.0299 -1.1331
 1869TIP3    H227023   2.770   4.461   4.735  0.4700 -0.0704  0.6351
 1870TIP3   OH227024   0.466   5.015  16.600 -0.3559  0.1047 -0.6036
 1870TIP3    H127025   0.527   5.088  16.591  1.0324 -0.6787  1.5993
 1870TIP3    H227026   0.386   5.054  16.633  0.4103  0.6419  0.6574
 1871TIP3   OH227027   2.869   1.760   3.505  0.1849  0.2307  0.4455
 1871TIP3    H127028   2.919   1.681   3.489 -1.4772 -0.6402 -0.6603
 1871TIP3    H227029   2.805   1.735   3.572  0.4699  1.0112  1.0284
 1872TIP3   OH227030   1.099   5.567  11.015 -0.5195  0.2927  0.4075
 1872TIP3    H127031   1.019   5.540  11.061  0.0352  1.0095  1.8736
 1872TIP3    H227032   1.073   5.644  10.965 -0.6237  0.9487  1.4317
 1873TIP3   OH227033   6.184   6.162   4.908  0.2358  0.4892  0.6223
 1873TIP3    H127034   6.207   6.098   4.840  0.2007 -0.0782  1.1393
 1873TIP3    H227035   6.096   6.192   4.884 -0.8866 -1.6248  1.8041
 1874TIP3   OH227036   2.860   4.859  16.038  0.6500  0.2170 -0.1370
 1874TIP3    H127037   2.839   4.919  16.109  3.8864  2.5254 -0.9506
 1874TIP3    H227038   2.940   4.815  16.066 -0.5416 -2.4022 -0.4579
 1875TIP3   OH227039   4.431   4.442   6.028  0.5710 -0.1189  0.1118
 1875TIP3    H127040   4.373   4.518   6.036  0.6672 -0.1331  1.0777
 1875TIP3    H227041   4.397   4.393   5.953  0.1271  0.5514 -0.1297
 1876TIP3   OH227042   1.023   5.519   1.902 -0.2733 -0.6780 -0.1533
 1876TIP3    H127043   1.045   5.539   1.811 -1.2296 -1.7665 -0.6391
 1876TIP3    H227044   0.930   5.498   1.901 -0.2498 -0.9187  1.0451
 1877TIP3   OH227045   2.925   5.699  11.860 -0.6308  0.2599  0.1152
 1877TIP3    H127046   2.978   5.772  11.830  0.0660 -0.4338 -0.3873
 1877TIP3    H227047   2.870   5.735  11.930  2.4267  0.4362  2.6506
 1878TIP3   OH227048   2.878   6.766   2.969 -0.4040 -0.3177  0.5375
 1878TIP3    H127049   2.848   6.747   2.880 -0.2433  1.6624  0.0161
 1878TIP3    H227050   2.798   6.761   3.022 -0.8152  0.2146 -0.0200
 1879TIP3   OH227051   0.513   3.596   4.550  0.4259 -0.5280  0.1301
 1879TIP3    H127052   0.502   3.689   4.566 -0.2787 -0.4298 -0.8570
 1879TIP3    H227053   0.569   3.591   4.473 -0.9694 -0.8634 -0.9033
 1880TIP3   OH227054   1.461   4.120  14.133  0.1488 -0.3215  0.0373
 1880TIP3    H127055   1.439   4.206  14.168 -0.7436 -1.1762  1.6684
 1880TIP3    H227056   1.425   4.121  14.044 -0.7906  0.6195  0.4017
 1881TIP3   OH227057   1.837   3.510  13.540 -0.4285  0.2124 -0.2483
 1881TIP3    H127058   1.744   3.532  13.541 -0.4707  0.0187  0.8305
 1881TIP3    H227059   1.876   3.570  13.603  0.3706  1.0333 -1.4675
 1882TIP3   OH227060   4.949   5.207   1.379 -0.0757  0.0476  0.5859
 1882TIP3    H127061   4.925   5.132   1.323  1.2996 -0.7608  1.0299
 1882TIP3    H227062   4.944   5.282   1.320 -0.9931 -0.4435 -0.0044
 1883TIP3   OH227063   4.041   2.394  16.689 -0.5057  0.2608 -0.0346
 1883TIP3    H127064   4.010   2.371  16.601  2.5182  1.3223 -1.5347
 1883TIP3    H227065   4.038   2.312  16.738 -0.3763 -0.8420 -1.7898
 1884TIP3   OH227066   2.047   1.353   5.006 -0.3445 -0.0481  0.2764
 1884TIP3    H127067   1.956   1.337   5.032 -0.4266  0.7629  0.5158
 1884TIP3    H227068   2.068   1.439   5.042  0.6035 -0.3311  0.4388
 1885TIP3   OH227069   4.340   5.598   3.240 -0.3649 -0.0059  0.0287
 1885TIP3    H127070   4.411   5.589   3.176  0.7145 -0.4157  1.2285
 1885TIP3    H227071   4.346   5.689   3.268 -0.5277  0.0471 -0.1095
 1886TIP3   OH227072   3.053   1.553   3.543  0.2482 -1.2183  0.0372
 1886TIP3    H127073   3.148   1.557   3.532  0.2290  1.3460  0.1335
 1886TIP3    H227074   3.027   1.469   3.504  2.5303 -2.0106  0.0836
 1887TIP3   OH227075   0.208   6.325   2.366  0.1533  0.2759 -0.5320
 1887TIP3    H127076   0.124   6.310   2.410  0.3044  1.7206  0.3321
 1887TIP3    H227077   0.216   6.253   2.303 -1.6358  0.0049 -0.5009
 1888TIP3   OH227078   6.420   0.787  14.484 -0.1228  0.5001 -0.1948
 1888TIP3    H127079   6.381   0.814  14.401 -2.1026  0.8531  0.8114
 1888TIP3    H227080   6.371   0.709  14.510  1.1246 -0.1874  0.2053
 1889TIP3   OH227081   6.219   1.219   2.310  0.3924  0.5612  0.0254
 1889TIP3    H127082   6.198   1.126   2.300 -0.6762  0.5506  1.7983
 1889TIP3    H227083   6.314   1.221   2.321  0.5699 -0.1710 -1.2146
 1890TIP3   OH227084   0.868   6.762  12.985  0.1833  0.0960  0.0164
 1890TIP3    H127085   0.887   6.668  12.975  0.8754  0.3861 -1.6316
 1890TIP3    H227086   0.773   6.766  12.996  0.3720 -1.0001  3.4101
 1891TIP3   OH227087   0.757   6.332  15.198 -0.3753 -0.2599  0.0103
 1891TIP3    H127088   0.675   6.368  15.231  0.7098 -0.4702  3.3515
 1891TIP3    H227089   0.824   6.396  15.226  0.7683 -0.9405 -1.0768
 1892TIP3   OH227090   1.886   0.414  14.387 -0.1238 -0.2237 -0.0033
 1892TIP3    H127091   1.904   0.320  14.388  0.8662 -0.0422 -0.0280
 1892TIP3    H227092   1.888   0.441  14.479 -3.0396 -0.6680  0.3064
 1893TIP3   OH227093   5.316   6.504   0.807  0.6656  0.1038 -0.2628
 1893TIP3    H127094   5.257   6.567   0.848 -1.4375 -0.0282 -2.7795
 1893TIP3    H227095   5.361   6.462   0.880 -1.2409  1.3186  1.7505
 1894TIP3   OH227096   1.779   0.982  11.178 -1.1315  0.6264  0.0041
 1894TIP3    H127097   1.769   1.051  11.112 -0.6499  1.0324  0.3444
 1894TIP3    H227098   1.850   1.014  11.234 -2.5993  1.0433  1.6902
 1895TIP3   OH227099   3.335   4.224   0.395  0.6810 -0.7613 -0.2927
 1895TIP3    H127100   3.290   4.292   0.445 -1.7588 -3.1591  1.1259
 1895TIP3    H227101   3.427   4.250   0.396 -0.1600  2.7149 -0.3542
 1896TIP3   OH227102   2.468   0.218  17.062  0.1937  0.2476 -0.1534
 1896TIP3    H127103   2.421   0.299  17.045 -1.0716 -0.1621  1.1810
 1896TIP3    H227104   2.399   0.154  17.080  1.2054 -0.8748 -0.1458
 1897TIP3   OH227105   0.364   6.655   6.245 -0.1420 -0.4351 -0.1011
 1897TIP3    H127106   0.387   6.570   6.207 -1.0844 -0.1226 -1.4546
 1897TIP3    H227107   0.279   6.640   6.288 -0.7036 -0.0128 -1.0356
 1898TIP3   OH227108   6.588   1.397   0.866  0.3112  0.0539 -0.2986
 1898TIP3    H127109   6.557   1.409   0.776 -1.1423  0.1251  0.1823
 1898TIP3    H227110   6.516   1.351   0.910  0.2526  1.5123  1.2341
 1899TIP3   OH227111   2.339   2.900   2.750 -0.2444  0.6554 -0.2725
 1899TIP3    H127112   2.415   2.889   2.692  0.7048  0.9467  0.8781
 1899TIP3    H227113   2.365   2.970   2.810 -0.7943 -0.3191  1.1403
 1900TIP3   OH227114   0.859   6.107  16.427 -0.4705  0.1820  0.0402
 1900TIP3    H127115   0.825   6.156  16.352  1.3511  0.5915 -0.5719
 1900TIP3    H227116   0.924   6.048  16.389 -1.7482 -1.8828  0.9297
 1901TIP3   OH227117   1.599   0.043  11.900  0.0876  0.4070 -0.2510
 1901TIP3    H127118   1.575   0.049  11.808  3.3905 -2.3280 -1.5072
 1901TIP3    H227119   1.519   0.017  11.945 -1.0373 -0.8766 -2.8040
 1902TIP3   OH227120   1.972   4.727   3.079 -0.3573  0.2642 -0.0896
 1902TIP3    H127121   1.898   4.703   3.135  0.3779 -0.3623  0.6426
 1902TIP3    H227122   1.935   4.731   2.991 -1.3179  0.2229  0.3000
 1903TIP3   OH227123   4.385   0.807   4.604 -0.3464 -0.3255  0.0776
 1903TIP3    H127124   4.374   0.894   4.566  1.3817 -0.2798 -0.3932
 1903TIP3    H227125   4.455   0.767   4.552 -0.2765 -1.5362  1.0610
 1904TIP3   OH227126   4.975   3.821   4.060  0.4847 -0.3384 -0.1544
 1904TIP3    H127127   4.937   3.859   4.139 -0.7790 -3.1605  0.7206
 1904TIP3    H227128   4.901   3.806   4.002  1.0528 -0.6589 -0.8141
 1905TIP3   OH227129   4.272   5.341  13.253 -0.1707 -0.3015 -0.3044
 1905TIP3    H127130   4.226   5.337  13.169 -1.1532  1.8518  0.0758
 1905TIP3    H227131   4.344   5.401  13.238  0.0558 -0.4380  0.2275
 1906TIP3   OH227132   1.510   2.676  12.016  0.3462 -0.0521 -0.3617
 1906TIP3    H127133   1.542   2.592  12.049  0.2182  0.2642  0.6040
 1906TIP3    H227134   1.586   2.734  12.020  0.0881  0.2461  0.3150
 1907TIP3   OH227135   3.671   3.793  13.585  1.0044  1.0018  0.6569
 1907TIP3    H127136   3.684   3.720  13.525 -1.2942  0.9844  0.0785
 1907TIP3    H227137   3.685   3.756  13.672  0.1780 -0.0758  0.3555
 1908TIP3   OH227138   5.126   5.720   5.806 -0.0942  0.4467  0.3588
 1908TIP3    H127139   5.101   5.686   5.892  0.9499  1.3607  1.0577
 1908TIP3    H227140   5.221   5.713   5.805  0.0054  1.7316 -0.1591
 1909TIP3   OH227141   0.868   1.606  14.320  0.1806  0.3103  0.1796
 1909TIP3    H127142   0.787   1.651  14.341  0.6812  0.9890  0.6850
 1909TIP3    H227143   0.926   1.625  14.393  1.9012  2.5723 -1.6010
 1910TIP3   OH227144   1.942   4.576   4.925 -0.3834  0.4661 -0.0679
 1910TIP3    H127145   1.898   4.526   4.994 -1.1531  0.4945 -0.5216
 1910TIP3    H227146   2.025   4.602   4.964  0.5882 -2.1510 -0.1874
 1911TIP3   OH227147   3.986   5.544  12.183 -0.6969 -0.5494  0.2620
 1911TIP3    H127148   3.996   5.542  12.279 -1.7351 -1.4188  0.3767
 1911TIP3    H227149   3.896   5.575  12.169 -0.6545 -0.7233 -0.4269
 1912TIP3   OH227150   0.224   1.024   0.126 -0.0764 -1.2107 -0.7581
 1912TIP3    H127151   0.183   1.016   0.040 -2.0612  0.7449 -0.0742
 1912TIP3    H227152   0.151   1.038   0.186  1.4411  0.5081  0.8069
 1913TIP3   OH227153   5.905   5.895  12.148 -0.1239  0.4487 -0.4108
 1913TIP3    H127154   5.905   5.990  12.159  1.7272  0.2745  2.0030
 1913TIP3    H227155   5.988   5.876  12.104 -0.4071 -0.0702 -0.7338
 1914TIP3   OH227156   1.593   2.745  11.760 -0.2431 -0.2397 -0.5024
 1914TIP3    H127157   1.542   2.709  11.833  0.6588  2.0756  1.4088
 1914TIP3    H227158   1.564   2.836  11.754  2.1899  0.5798 -0.6949
 1915TIP3   OH227159   3.091   1.174   3.255 -0.0048  0.2834  0.1780
 1915TIP3    H127160   2.995   1.175   3.259 -0.1071  2.8020 -0.8971
 1915TIP3    H227161   3.113   1.241   3.190  2.4818 -1.1417 -0.5857
 1916TIP3   OH227162   4.207   6.225  12.469 -0.2906 -0.1792  0.1947
 1916TIP3    H127163   4.159   6.142  12.474  1.0852 -0.9347  1.6889
 1916TIP3    H227164   4.297   6.200  12.451  0.7299  0.7054  3.4842
 1917TIP3   OH227165   6.373   6.266   5.675 -0.1198 -0.2634  0.0868
 1917TIP3    H127166   6.345   6.353   5.705  0.3808  0.2624 -0.9233
 1917TIP3    H227167   6.325   6.252   5.594  0.4974 -0.5240 -0.2384
 1918TIP3   OH227168   3.585   6.152  14.246 -0.2330  0.4321 -0.0310
 1918TIP3    H127169   3.522   6.102  14.193 -1.9969  3.2674 -0.8378
 1918TIP3    H227170   3.616   6.220  14.186  2.6142 -0.0189  0.8078
 1919TIP3   OH227171   0.032   4.060  15.930  0.1048 -0.3148  0.0494
 1919TIP3    H127172   0.039   4.020  16.017 -0.3538  0.2698  0.3613
 1919TIP3    H227173   0.047   3.988  15.870 -1.3034 -1.1131  0.5972
 1920TIP3   OH227174   4.476   2.174  13.119 -0.3636 -0.1157 -0.2489
 1920TIP3    H127175   4.493   2.201  13.029 -2.4703 -0.4350 -0.8034
 1920TIP3    H227176   4.552   2.122  13.144  1.5761  2.2773 -0.8074
 1921TIP3   OH227177   0.903   2.792   5.966 -0.2702 -0.2315  0.2207
 1921TIP3    H127178   0.920   2.849   6.041 -0.3597 -0.6142  0.5338
 1921TIP3    H227179   0.986   2.744   5.954 -1.4761 -3.2989  2.7685
 1922TIP3   OH227180   3.145   5.226  15.171  0.0794  0.2018  0.0743
 1922TIP3    H127181   3.096   5.307  15.185 -1.7393 -1.1427  2.3166
 1922TIP3    H227182   3.199   5.217  15.250  1.1331 -0.2516 -0.6620
 1923TIP3   OH227183   0.662   6.134  14.482 -0.5332 -0.7984 -0.0496
 1923TIP3    H127184   0.714   6.213  14.496 -2.4603  0.2354  1.9735
 1923TIP3    H227185   0.724   6.062  14.494  0.8496  0.3608  0.0687
 1924TIP3   OH227186   5.295   5.346  11.463  0.0186  0.5016 -0.6252
 1924TIP3    H127187   5.319   5.386  11.380 -2.2365  1.0354 -1.1037
 1924TIP3    H227188   5.225   5.284  11.440  0.1743 -0.2076  0.7255
 1925TIP3   OH227189   3.319   5.673  10.324  0.3573  0.2088  0.1312
 1925TIP3    H127190   3.236   5.722  10.332 -0.3399 -1.2135  3.8034
 1925TIP3    H227191   3.298   5.599  10.268 -0.4953  0.5480 -0.0155
 1926TIP3   OH227192   0.861   2.379  12.730  0.2702  0.0662 -0.6649
 1926TIP3    H127193   0.886   2.388  12.822  0.4490 -0.5889 -0.6445
 1926TIP3    H227194   0.857   2.469  12.697 -2.1224  0.4885  0.5706
 1927TIP3   OH227195   1.873   3.688   5.041  0.1590  1.0015  0.4920
 1927TIP3    H127196   1.786   3.692   5.081 -0.9293  1.9417 -1.7770
 1927TIP3    H227197   1.864   3.735   4.958  2.0083 -1.5310 -1.3324
 1928TIP3   OH227198   1.816   1.661  16.433 -0.4419 -0.0806  0.1961
 1928TIP3    H127199   1.819   1.624  16.345  0.3206 -1.8773  0.9344
 1928TIP3    H227200   1.868   1.741  16.426  1.3580 -1.2329 -0.5726
 1929TIP3   OH227201   5.736   5.752  16.242 -0.6375  0.7822  0.3635
 1929TIP3    H127202   5.654   5.802  16.242 -0.3687  1.2566 -0.6278
 1929TIP3    H227203   5.789   5.795  16.175  0.1933  0.1032  0.5787
 1930TIP3   OH227204   4.798   3.640  13.692 -0.0676  0.0302  0.5358
 1930TIP3    H127205   4.863   3.592  13.642 -1.6126 -1.4159 -0.1975
 1930TIP3    H227206   4.780   3.718  13.639 -0.3141 -0.5359 -0.2207
 1931TIP3   OH227207   3.655   3.806  16.611  0.2031  0.0549  0.2653
 1931TIP3    H127208   3.692   3.752  16.541 -0.2541  0.1758 -0.0781
 1931TIP3    H227209   3.714   3.793  16.685  0.8546  0.1474 -0.2235
 1932TIP3   OH227210   1.739   1.899   4.762  0.2217 -0.1579  0.5125
 1932TIP3    H127211   1.677   1.847   4.814  1.6076 -1.7608  0.6572
 1932TIP3    H227212   1.817   1.903   4.817  0.6871  0.7207 -0.2024
 1933TIP3   OH227213   1.846   2.240   2.104 -0.3930  0.6556 -0.0503
 1933TIP3    H127214   1.920   2.181   2.119  0.0333  0.5731 -2.0971
 1933TIP3    H227215   1.884   2.328   2.109 -0.1536  0.6172 -0.9391
 1934TIP3   OH227216   4.508   0.472  15.854 -0.5115 -0.0347 -0.2014
 1934TIP3    H127217   4.558   0.457  15.774 -0.9994 -1.3129 -0.2864
 1934TIP3    H227218   4.474   0.561  15.844  2.0052  1.0327  0.0351
 1935TIP3   OH227219   3.921   5.849  11.893  0.1670 -0.4676  0.1281
 1935TIP3    H127220   3.853   5.799  11.848 -0.0680 -1.7747  1.8460
 1935TIP3    H227221   3.884   5.937  11.900  0.1371 -0.2544 -1.9741
 1936TIP3   OH227222   0.290   2.561   4.742  0.1086  0.3324 -0.1133
 1936TIP3    H127223   0.258   2.506   4.670 -1.8054  0.7965  0.3191
 1936TIP3    H227224   0.305   2.647   4.701 -0.2042  0.3833 -0.1251
 1937TIP3   OH227225   3.254   1.853  11.481  0.6279 -0.2331 -0.2240
 1937TIP3    H127226   3.299   1.797  11.417  0.1495 -2.2522  1.1091
 1937TIP3    H227227   3.305   1.843  11.561  0.1978  0.8189  0.1931
 1938TIP3   OH227228   5.354   6.557  13.510  0.4583 -0.0551 -0.2042
 1938TIP3    H127229   5.276   6.514  13.474  0.8433 -0.6699 -0.3179
 1938TIP3    H227230   5.420   6.488  13.513 -0.0024 -0.5287  3.2567
 1939TIP3   OH227231   2.201   0.503  11.426 -0.3697  0.2891  0.0500
 1939TIP3    H127232   2.136   0.571  11.410 -0.0005  1.2241  2.2059
 1939TIP3    H227233   2.280   0.534  11.383 -0.3304  1.0228  0.6413
 1940TIP3   OH227234   6.637   6.537  14.199  0.1001  0.0370 -0.0111
 1940TIP3    H127235   6.722   6.495  14.211  0.1770  0.3309  0.5090
 1940TIP3    H227236   6.648   6.589  14.119  0.7015  0.7739  0.5328
 1941TIP3   OH227237   1.181   4.255   5.969 -0.2272 -0.3130  0.6228
 1941TIP3    H127238   1.211   4.219   6.052  1.7444 -0.6240 -0.1786
 1941TIP3    H227239   1.133   4.183   5.927 -0.8116 -0.3038  1.2514
 1942TIP3   OH227240   5.029   1.264  13.055  0.3203  0.3514 -0.0974
 1942TIP3    H127241   5.096   1.327  13.084  0.9901  0.0586 -0.9885
 1942TIP3    H227242   4.971   1.316  12.999 -0.3163  0.6458  0.8110
 1943TIP3   OH227243   5.650   3.161   0.412  0.2446 -0.2498  0.3744
 1943TIP3    H127244   5.657   3.097   0.483 -1.2942 -0.3953  0.4312
 1943TIP3    H227245   5.582   3.222   0.442  1.0241  0.8774 -0.0902
 1944TIP3   OH227246   2.730   6.342  15.350  0.5615 -0.1168  0.3234
 1944TIP3    H127247   2.648   6.327  15.397  1.1524 -0.7153  1.1986
 1944TIP3    H227248   2.709   6.411  15.287 -0.9459 -1.1790 -0.3952
 1945TIP3   OH227249   3.526   4.038   3.312  0.3757 -0.2194  0.2808
 1945TIP3    H127250   3.533   4.116   3.257  0.3660 -1.2090 -1.2127
 1945TIP3    H227251   3.445   4.050   3.361  0.5034  0.8094  0.2626
 1946TIP3   OH227252   1.724   5.606  13.442  0.4072  0.2046  0.1455
 1946TIP3    H127253   1.682   5.522  13.459 -0.9557  0.7669 -0.3517
 1946TIP3    H227254   1.817   5.585  13.435  0.1913 -1.1167  0.9127
 1947TIP3   OH227255   2.458   0.446   2.527 -0.1279  0.2921  0.4974
 1947TIP3    H127256   2.498   0.533   2.531  0.3076  0.0700  1.0473
 1947TIP3    H227257   2.499   0.405   2.451  0.2926  0.2601  0.7399
 1948TIP3   OH227258   4.407   4.520   4.506  0.5025 -0.1301  0.1542
 1948TIP3    H127259   4.448   4.601   4.475  0.1810 -0.0872 -0.1721
 1948TIP3    H227260   4.410   4.461   4.431 -0.0127 -0.1315  0.1293
 1949TIP3   OH227261   6.746   4.226  15.721  0.1489 -0.4417  0.0602
 1949TIP3    H127262   6.685   4.158  15.693  0.0116 -0.4476  0.3691
 1949TIP3    H227263   6.791   4.189  15.798  1.2104 -0.8064 -0.7086
 1950TIP3   OH227264   5.890   2.611  16.583  0.4318  0.2410  0.3756
 1950TIP3    H127265   5.946   2.688  16.571 -1.0263  1.1473 -1.1155
 1950TIP3    H227266   5.935   2.541  16.537  1.1350  0.5112  0.6266
 1951TIP3   OH227267   5.219   6.650  14.953  0.7163  0.0358  0.4190
 1951TIP3    H127268   5.141   6.600  14.976  0.8672 -0.9111 -0.9806
 1951TIP3    H227269   5.187   6.739  14.939  0.2874  0.1682  2.0237
 1952TIP3   OH227270   6.656   6.205   4.315  0.4031 -0.2499  0.2422
 1952TIP3    H127271   6.666   6.296   4.286 -0.3552  0.0036  0.7531
 1952TIP3    H227272   6.746   6.176   4.332  0.7178  0.1587 -0.6362
 1953TIP3   OH227273   0.658   5.662   2.865  0.1307  0.5404 -0.4521
 1953TIP3    H127274   0.607   5.740   2.843 -0.3094  0.6087  0.7012
 1953TIP3    H227275   0.683   5.676   2.957  0.4862 -0.4352 -0.3954
 1954TIP3   OH227276   3.148   6.786   4.976  0.3748  0.3037 -0.4723
 1954TIP3    H127277   3.142   6.833   5.060 -0.3200  1.8888 -1.3654
 1954TIP3    H227278   3.212   6.716   4.993  0.0545  0.4038  1.4467
 1955TIP3   OH227279   3.300   5.776   0.005  0.4956  0.1731  0.4216
 1955TIP3    H127280   3.338   5.864   0.002  0.5033  0.1492 -1.6503
 1955TIP3    H227281   3.360   5.725   0.059  1.4237  1.0311  0.2131
 1956TIP3   OH227282   5.874   3.740   1.887 -0.3182  0.6009  0.4876
 1956TIP3    H127283   5.931   3.811   1.856 -0.3779  0.6251  0.4336
 1956TIP3    H227284   5.824   3.713   1.810 -0.6684  0.8497  0.6237
 1957TIP3   OH227285   4.803   5.088   0.903 -0.0382 -0.0595  0.1935
 1957TIP3    H127286   4.752   5.159   0.864  1.4180 -0.2172 -2.1199
 1957TIP3    H227287   4.738   5.039   0.955 -1.5701  1.5095 -0.1248
 1958TIP3   OH227288   5.297   4.095   4.112 -1.0258  0.5530  0.1673
 1958TIP3    H127289   5.301   4.033   4.184  0.9046  0.5239  0.0798
 1958TIP3    H227290   5.293   4.040   4.033  0.5182  0.5157  0.0980
 1959TIP3   OH227291   2.988   4.700  14.509  0.7508  0.5556  0.0989
 1959TIP3    H127292   3.018   4.615  14.477 -0.7366 -0.2444  0.7215
 1959TIP3    H227293   3.016   4.703  14.600  1.4608  1.0658 -0.1352
 1960TIP3   OH227294   4.185   4.016  16.676  0.5133 -0.3264  0.0145
 1960TIP3    H127295   4.117   4.065  16.721  2.2563  1.3749  0.9375
 1960TIP3    H227296   4.174   4.037  16.584 -0.2815 -0.1875  0.1373
 1961TIP3   OH227297   5.867   2.814  11.236 -0.3447  0.0936  0.4522
 1961TIP3    H127298   5.869   2.748  11.167 -2.1094  0.4574 -0.0010
 1961TIP3    H227299   5.937   2.789  11.296 -0.8172 -2.0627  0.1657
 1962TIP3   OH227300   3.130   0.584   2.358  0.3912 -0.2028 -0.3272
 1962TIP3    H127301   3.125   0.642   2.282  0.6557  0.5142  0.1901
 1962TIP3    H227302   3.079   0.629   2.425 -1.0912 -1.5354 -0.4998
 1963TIP3   OH227303   0.098   1.400  13.130 -0.2592  0.4584  0.1486
 1963TIP3    H127304   0.101   1.387  13.225  1.1026  3.2139  0.5834
 1963TIP3    H227305   0.181   1.364  13.099  0.2734  1.4807  0.3435
 1964TIP3   OH227306   3.977   3.846  15.456  0.0844  0.3492 -0.0115
 1964TIP3    H127307   4.063   3.877  15.483 -0.9382  2.2389  1.3281
 1964TIP3    H227308   3.973   3.756  15.487  1.1500  0.6078  0.9279
 1965TIP3   OH227309   2.564   0.238   5.305 -0.0321  0.0837  0.0848
 1965TIP3    H127310   2.548   0.165   5.246  1.7363 -0.2374 -0.0387
 1965TIP3    H227311   2.649   0.220   5.344 -0.6709  0.8184  1.9645
 1966TIP3   OH227312   5.550   1.427   3.201 -0.1343  0.2202 -0.1674
 1966TIP3    H127313   5.471   1.412   3.149 -0.3075  0.0044  0.1558
 1966TIP3    H227314   5.526   1.401   3.290 -0.5115  2.5754  0.4837
 1967TIP3   OH227315   4.925   5.095  14.817  0.0191  0.2748 -0.2490
 1967TIP3    H127316   4.865   5.021  14.828  0.9051 -0.2853  1.0403
 1967TIP3    H227317   4.998   5.059  14.767 -0.5607  0.8919 -1.5938
 1968TIP3   OH227318   4.982   5.254   2.087 -0.1110  0.0500 -0.2959
 1968TIP3    H127319   5.005   5.199   2.162  0.3938  0.9788  0.2542
 1968TIP3    H227320   4.914   5.205   2.041 -1.1790 -0.0691  1.3565
 1969TIP3   OH227321   4.469   3.892  11.893  0.6744 -0.4108  1.3427
 1969TIP3    H127322   4.553   3.924  11.861 -0.5150  0.3375 -1.3386
 1969TIP3    H227323   4.407   3.962  11.870 -0.8772 -1.5332  1.9902
 1970TIP3   OH227324   2.778   2.941   1.866 -0.3220  0.0671 -0.0921
 1970TIP3    H127325   2.796   3.032   1.843  0.0797  0.7966  2.6876
 1970TIP3    H227326   2.719   2.947   1.941 -0.0076 -1.9656  0.3797
 1971TIP3   OH227327   1.654   3.081  11.133  0.1324 -0.2565  0.7023
 1971TIP3    H127328   1.572   3.086  11.083 -0.7069 -0.6232  1.9919
 1971TIP3    H227329   1.720   3.056  11.068 -0.6313  0.6998 -0.4952
 1972TIP3   OH227330   3.728   4.692   3.147  0.4920  0.8676  0.4789
 1972TIP3    H127331   3.794   4.758   3.125  1.2165 -0.3191 -1.1230
 1972TIP3    H227332   3.663   4.698   3.076  1.7054 -1.5495 -0.9512
 1973TIP3   OH227333   5.212   6.603  10.942  0.1410 -0.0426 -0.4702
 1973TIP3    H127334   5.204   6.606  11.037  1.4527 -0.5446 -0.3290
 1973TIP3    H227335   5.145   6.539  10.914  0.5856 -0.8348  0.2345
 1974TIP3   OH227336   6.544   4.519  12.231 -0.5023  0.8652 -1.0695
 1974TIP3    H127337   6.514   4.483  12.147 -0.9993  1.9977 -1.4029
 1974TIP3    H227338   6.628   4.561  12.211  1.5038 -2.3380 -0.1271
 1975TIP3   OH227339   3.879   0.110   5.123 -0.5072 -0.1641  0.2797
 1975TIP3    H127340   3.919   0.028   5.152 -1.2060 -1.0111 -0.9924
 1975TIP3    H227341   3.938   0.178   5.154  0.7225 -1.2238  0.3817
 1976TIP3   OH227342   3.807   1.376   5.442  0.3429 -0.6468  0.0284
 1976TIP3    H127343   3.728   1.430   5.440  1.0129  0.3479 -0.7146
 1976TIP3    H227344   3.830   1.363   5.350  1.6937  0.1121  0.2194
 1977TIP3   OH227345   3.751   2.388  15.898  0.0252  0.0990 -0.4850
 1977TIP3    H127346   3.718   2.476  15.918  1.5338  0.4249  0.7065
 1977TIP3    H227347   3.738   2.339  15.979  3.8615  0.7063  0.6698
 1978TIP3   OH227348   3.779   2.721   0.189 -0.1254 -0.2443  0.4799
 1978TIP3    H127349   3.863   2.689   0.221 -0.4268 -0.1926  1.3404
 1978TIP3    H227350   3.762   2.800   0.240 -0.6748 -0.2247  0.2725
 1979TIP3   OH227351   4.985   0.431   0.817 -0.2243 -0.0486 -0.0348
 1979TIP3    H127352   5.005   0.524   0.827 -1.3668  0.1407  0.7720
 1979TIP3    H227353   5.070   0.388   0.819  0.3404  0.9794 -0.6006
 1980TIP3   OH227354   5.793   3.968   4.053  0.1024 -0.0608  0.2763
 1980TIP3    H127355   5.832   3.898   4.002  2.5152  0.5481  1.1723
 1980TIP3    H227356   5.713   3.990   4.006  0.3063 -2.0371 -1.1068
 1981TIP3   OH227357   2.005   3.141   0.698 -0.5126  0.0128 -0.0644
 1981TIP3    H127358   1.958   3.059   0.681  1.6110 -1.3450  0.2200
 1981TIP3    H227359   2.003   3.150   0.793 -1.7754  0.9792 -0.1594
 1982TIP3   OH227360   6.408   4.366  13.480 -0.3478 -0.5110  0.4616
 1982TIP3    H127361   6.353   4.305  13.431 -0.4362  0.9373 -1.3305
 1982TIP3    H227362   6.493   4.321  13.485 -1.0145 -1.7357  1.1737
 1983TIP3   OH227363   4.311   4.364   0.815 -0.7278 -0.6148 -0.2302
 1983TIP3    H127364   4.250   4.437   0.803 -2.4711 -2.2026 -1.5469
 1983TIP3    H227365   4.389   4.390   0.767 -1.2815  0.4222 -0.6039
 1984TIP3   OH227366   5.084   4.148   4.674  0.0253 -0.0537  0.1571
 1984TIP3    H127367   5.012   4.211   4.677 -0.1350 -0.2749  1.0911
 1984TIP3    H227368   5.043   4.065   4.653  0.1422  0.0082 -0.3275
 1985TIP3   OH227369   3.687   4.466   0.022  0.5764 -0.8277 -0.3646
 1985TIP3    H127370   3.753   4.465   0.091 -0.2079 -2.6483  0.4193
 1985TIP3    H227371   3.667   4.374   0.007 -1.5219 -0.3404 -0.8158
 1986TIP3   OH227372   2.941   6.731  11.542  0.3818  0.1844 -0.0014
 1986TIP3    H127373   2.960   6.785  11.465  1.9795  2.4660  1.8552
 1986TIP3    H227374   2.858   6.766  11.576  0.0111 -0.3952 -0.2843
 1987TIP3   OH227375   2.666   2.360  14.108 -0.2205 -0.0997  0.2620
 1987TIP3    H127376   2.680   2.351  14.014 -0.1561  0.8667  0.1748
 1987TIP3    H227377   2.753   2.366  14.145 -0.2498  1.5324  0.1588
 1988TIP3   OH227378   6.621   2.920  12.441 -0.7361 -0.4605  0.2164
 1988TIP3    H127379   6.617   3.015  12.449  2.3345  0.0216 -2.0135
 1988TIP3    H227380   6.642   2.889  12.529 -0.5161  1.0554  0.7257
 1989TIP3   OH227381   4.892   3.574   2.867 -0.1552 -0.9538 -0.1323
 1989TIP3    H127382   4.814   3.523   2.890  0.1567 -0.8852  1.1560
 1989TIP3    H227383   4.871   3.663   2.895 -0.1811 -0.6298 -1.1593
 1990TIP3   OH227384   3.750   2.794  15.933 -0.3207 -0.1348  0.3320
 1990TIP3    H127385   3.684   2.782  15.865 -0.5087 -1.0140  0.6618
 1990TIP3    H227386   3.711   2.859  15.992 -1.3290 -1.3145  1.0285
 1991TIP3   OH227387   5.629   6.760  16.966 -0.1993  0.3090  0.1985
 1991TIP3    H127388   5.612   6.759  16.872  0.0873  0.9038  0.1409
 1991TIP3    H227389   5.547   6.792  17.005 -0.7412 -1.0627  0.2491
 1992TIP3   OH227390   0.670   5.897   1.648 -0.1648 -0.1163  0.2745
 1992TIP3    H127391   0.714   5.826   1.602  0.3704  0.1356  0.3968
 1992TIP3    H227392   0.629   5.856   1.724 -0.0340 -0.3288  0.2290
 1993TIP3   OH227393   1.976   0.803   6.587  0.6149  0.3994  0.1114
 1993TIP3    H127394   1.946   0.720   6.549  0.3884  1.1805 -1.5140
 1993TIP3    H227395   2.008   0.853   6.512 -0.2273  2.1908  0.8887
 1994TIP3   OH227396   6.262   3.089   2.310  0.4491 -0.0736 -0.4945
 1994TIP3    H127397   6.346   3.124   2.280  0.8944  1.8578  2.5143
 1994TIP3    H227398   6.286   3.016   2.367  0.0760  0.1644 -0.0235
 1995TIP3   OH227399   3.408   5.907  12.871 -0.6114 -0.6459 -0.1359
 1995TIP3    H127400   3.428   5.946  12.956  3.2425 -0.1505 -1.0955
 1995TIP3    H227401   3.431   5.815  12.880 -1.4880 -0.8882 -0.2893
 1996TIP3   OH227402   1.678   6.216   2.020 -0.1617  0.0791  0.4308
 1996TIP3    H127403   1.754   6.180   2.065  0.1383  1.3142  0.9558
 1996TIP3    H227404   1.626   6.255   2.090 -1.6479 -1.3164  0.1819
 1997TIP3   OH227405   6.377   3.381  10.956  0.4849  0.2500 -0.0474
 1997TIP3    H127406   6.369   3.462  11.007  1.2893 -0.2227  0.8695
 1997TIP3    H227407   6.458   3.341  10.988 -0.1515 -1.1628 -0.1342
 1998TIP3   OH227408   3.486   2.888  11.343  0.2290 -0.5834  0.8777
 1998TIP3    H127409   3.444   2.870  11.259 -0.7290 -0.5950  1.3438
 1998TIP3    H227410   3.554   2.821  11.352  0.6948 -0.2591 -0.1170
 1999TIP3   OH227411   1.991   1.448   1.860  0.5791  0.3640  0.0996
 1999TIP3    H127412   2.044   1.468   1.783  0.3519  0.8141  0.0597
 1999TIP3    H227413   1.918   1.397   1.825  0.3940  0.6997 -0.0081
 2000TIP3   OH227414   2.596   2.874   4.066 -0.4174 -0.2055  0.0448
 2000TIP3    H127415   2.669   2.857   4.007  1.2755  0.8977  1.7066
 2000TIP3    H227416   2.529   2.811   4.041  1.6506 -2.2554 -0.5987
 2001TIP3   OH227417   1.184   3.087  12.865 -0.1095  0.0231  0.8963
 2001TIP3    H127418   1.274   3.116  12.873 -0.0078  0.8311 -2.1430
 2001TIP3    H227419   1.191   2.993  12.848  0.3677  0.3939 -1.2675
 2002TIP3   OH227420   5.503   3.915   0.186  0.7777  0.0022  0.0897
 2002TIP3    H127421   5.522   3.823   0.168 -1.9116 -1.2732  2.8139
 2002TIP3    H227422   5.588   3.957   0.193  2.0821 -1.6754 -3.4987
 2003TIP3   OH227423   4.434   2.604  14.493 -0.0556 -0.2234 -0.1622
 2003TIP3    H127424   4.401   2.672  14.552  0.1476 -0.8838  0.7354
 2003TIP3    H227425   4.466   2.652  14.417  1.4513  0.8237  1.0780
 2004TIP3   OH227426   2.722   6.466  16.101 -0.0292 -0.7181 -0.0223
 2004TIP3    H127427   2.794   6.443  16.044 -0.4084 -0.4912 -0.5956
 2004TIP3    H227428   2.761   6.471  16.188  0.4104 -1.8024 -0.1330
 2005TIP3   OH227429   4.911   3.638  14.237 -0.1735  0.2890 -0.6193
 2005TIP3    H127430   4.987   3.667  14.188 -0.0341  0.7306 -0.1583
 2005TIP3    H227431   4.836   3.671  14.187 -0.0561 -0.0214 -0.9965
 2006TIP3   OH227432   2.462   1.926  13.020  0.6529  0.0367  0.1956
 2006TIP3    H127433   2.481   1.984  12.947  1.7830  0.0768  0.5132
 2006TIP3    H227434   2.485   1.839  12.989  1.0943  0.0476  0.4739
 2007TIP3   OH227435   5.835   2.064   1.004  0.2821 -0.1892 -0.5127
 2007TIP3    H127436   5.905   2.031   0.949  1.8177  1.9326  0.0179
 2007TIP3    H227437   5.754   2.041   0.958  1.3373 -1.7835 -1.6667
 2008TIP3   OH227438   4.847   0.632  11.750 -0.0216 -0.6701 -0.3955
 2008TIP3    H127439   4.817   0.691  11.681  0.8202  0.6849  0.3686
 2008TIP3    H227440   4.805   0.665  11.830  1.0480 -0.6198  0.1641
 2009TIP3   OH227441   3.520   0.655  16.919  0.6019  0.1604  0.5905
 2009TIP3    H127442   3.486   0.602  16.847  1.5612 -1.4964  1.2741
 2009TIP3    H227443   3.606   0.684  16.889  1.9461 -2.2805  1.7184
 2010TIP3   OH227444   1.821   5.204   2.504 -0.0547  0.1371  0.4383
 2010TIP3    H127445   1.754   5.256   2.459 -0.5751 -0.8580  0.0272
 2010TIP3    H227446   1.838   5.131   2.444  1.7778  0.6235  0.2981
 2011TIP3   OH227447   0.774   3.667   5.557 -0.5222 -0.4981  0.6693
 2011TIP3    H127448   0.694   3.666   5.609 -0.7525  1.2272  0.3905
 2011TIP3    H227449   0.810   3.755   5.569  1.2976 -1.1901  0.7015
 2012TIP3   OH227450   5.151   1.983   0.762  0.1847  0.4128 -0.3628
 2012TIP3    H127451   5.213   2.053   0.740  0.0885  0.9097  0.8613
 2012TIP3    H227452   5.193   1.935   0.834 -0.2004 -0.1736 -0.5189
 2013TIP3   OH227453   3.077   5.188   3.319  0.1049  0.0003  0.1088
 2013TIP3    H127454   3.135   5.113   3.335 -0.9706 -1.1812 -1.2420
 2013TIP3    H227455   3.016   5.187   3.392  0.4069 -0.1201  0.3625
 2014TIP3   OH227456   5.873   6.785   0.264 -0.3331  0.1070 -0.5667
 2014TIP3    H127457   5.962   6.809   0.290 -0.6150  0.4633  0.0992
 2014TIP3    H227458   5.869   6.806   0.170  0.2443  0.1872 -0.5783
 2015TIP3   OH227459   5.333   5.360   5.199  0.7343  0.0134 -0.6168
 2015TIP3    H127460   5.298   5.275   5.222  1.0479  0.1126  0.2786
 2015TIP3    H227461   5.281   5.389   5.124 -0.3755 -0.3056  0.0091
 2016TIP3   OH227462   1.183   4.748   4.155 -0.0087  0.4863 -0.5409
 2016TIP3    H127463   1.257   4.730   4.096  1.2188 -0.2449  1.1372
 2016TIP3    H227464   1.190   4.841   4.175  0.1127  0.5411 -0.8353
 2017TIP3   OH227465   2.477   4.191  13.620 -0.3562 -0.1262 -0.2163
 2017TIP3    H127466   2.536   4.266  13.609 -0.8225  0.4570  1.0782
 2017TIP3    H227467   2.535   4.118  13.642  0.1080 -0.1854 -1.5361
 2018TIP3   OH227468   5.630   1.455  14.558  0.6647 -0.4348 -0.0316
 2018TIP3    H127469   5.592   1.397  14.625 -1.1213 -0.1924 -0.7740
 2018TIP3    H227470   5.664   1.395  14.492  0.4683 -0.6565  0.0641
 2019TIP3   OH227471   1.042   1.364   5.381 -0.2605  0.4655  0.5073
 2019TIP3    H127472   1.058   1.401   5.294 -1.1429 -0.2492  0.0277
 2019TIP3    H227473   0.972   1.418   5.417  1.2747  1.8636  1.5006
 2020TIP3   OH227474   1.396   2.281  13.999 -0.4168 -0.1203 -0.7479
 2020TIP3    H127475   1.423   2.366  14.036 -0.0444 -0.9149  0.8855
 2020TIP3    H227476   1.429   2.283  13.909  0.4516  1.0704 -0.4299
 2021TIP3   OH227477   1.469   5.145  16.639 -0.1519 -0.3148 -0.1175
 2021TIP3    H127478   1.503   5.231  16.614  1.4762 -1.1471 -0.9473
 2021TIP3    H227479   1.439   5.107  16.556 -1.9565 -0.1154  0.4194
 2022TIP3   OH227480   3.474   2.076  14.551  0.2001  0.1832  0.2203
 2022TIP3    H127481   3.524   2.074  14.633  2.7687  0.8647 -1.2016
 2022TIP3    H227482   3.539   2.097  14.484 -1.6604 -1.0360 -2.1293
 2023TIP3   OH227483   3.222   3.196   3.674  0.5618  0.1290 -0.9833
 2023TIP3    H127484   3.220   3.292   3.676  2.1952  0.2128 -1.6456
 2023TIP3    H227485   3.293   3.173   3.734  0.8842 -0.6004 -1.6232
 2024TIP3   OH227486   1.979   1.040  15.712 -0.5820 -0.1997 -0.6061
 2024TIP3    H127487   2.071   1.020  15.696 -0.1745  1.2594 -0.2611
 2024TIP3    H227488   1.935   0.956  15.707  1.2146 -1.5181  2.3907
 2025TIP3   OH227489   3.832   5.473  11.905 -0.2714  0.0325  0.3555
 2025TIP3    H127490   3.810   5.402  11.845  2.1589 -0.1783 -0.3963
 2025TIP3    H227491   3.837   5.431  11.991  0.0583 -0.5013  0.0824
 2026TIP3   OH227492   0.370   5.494  11.785 -0.4270 -0.2011 -0.1074
 2026TIP3    H127493   0.318   5.530  11.714 -3.3203 -0.1316  1.8730
 2026TIP3    H227494   0.357   5.555  11.858 -0.4406 -2.0296  1.5015
 2027TIP3   OH227495   6.282   2.108   0.463 -0.0640  0.2918 -0.2578
 2027TIP3    H127496   6.282   2.028   0.516 -1.5161  0.2377 -0.3018
 2027TIP3    H227497   6.374   2.122   0.441  0.1854 -1.5768 -0.5679
 2028TIP3   OH227498   1.349   5.588   0.529  0.0974 -0.3257  0.2794
 2028TIP3    H127499   1.271   5.629   0.567  0.8853  2.2702 -0.6585
 2028TIP3    H227500   1.330   5.582   0.436  0.8857 -0.0001  0.0925
 2029TIP3   OH227501   2.215   2.815  11.593 -0.2041  0.2033 -0.2712
 2029TIP3    H127502   2.232   2.815  11.688  0.8198  0.0574 -0.4478
 2029TIP3    H227503   2.299   2.793  11.554 -0.6319  0.2426 -1.2232
 2030TIP3   OH227504   4.970   5.059  12.898 -0.6716 -0.5695 -0.5437
 2030TIP3    H127505   4.894   5.093  12.946 -1.3282 -1.6172 -0.8155
 2030TIP3    H227506   4.976   5.116  12.821  1.0922  1.8735  1.2472
 2031TIP3   OH227507   4.180   5.087  15.527 -0.3153 -0.1680  0.1871
 2031TIP3    H127508   4.172   5.115  15.618 -4.0593 -1.2049  0.3673
 2031TIP3    H227509   4.129   5.006  15.523 -0.4578 -0.0315 -2.8643
 2032TIP3   OH227510   4.069   2.318  14.428  0.7596  0.1660 -0.5907
 2032TIP3    H127511   4.098   2.408  14.435  0.7674  0.2102 -1.1205
 2032TIP3    H227512   4.148   2.268  14.407  0.3810  0.4087 -2.9295
 2033TIP3   OH227513   3.606   4.067  16.784  0.8850  0.0021 -0.0694
 2033TIP3    H127514   3.575   4.123  16.714 -2.0381 -0.0696  1.0256
 2033TIP3    H227515   3.628   3.984  16.741  2.9576  1.1320 -1.3580
 2034TIP3   OH227516   4.052   1.180   3.150 -0.4194  0.7191 -0.5201
 2034TIP3    H127517   4.134   1.175   3.099  0.2786  1.4411  0.4841
 2034TIP3    H227518   4.068   1.125   3.226 -0.7055  1.2154 -0.0998
 2035TIP3   OH227519   5.742   1.181   0.819  0.3417  0.4471  0.0947
 2035TIP3    H127520   5.732   1.260   0.766 -0.9415  0.5970  0.5233
 2035TIP3    H227521   5.799   1.124   0.767 -1.2174  0.4136 -1.6709
 2036TIP3   OH227522   0.465   2.637   0.540  0.0586  0.1737 -0.1466
 2036TIP3    H127523   0.393   2.700   0.533 -0.3502 -0.2362  0.2656
 2036TIP3    H227524   0.447   2.589   0.621  1.7742  1.2510  0.9205
 2037TIP3   OH227525   3.828   6.808   0.994  0.3196  0.4611  0.0469
 2037TIP3    H127526   3.908   6.849   0.961  0.8489 -1.3162 -1.0097
 2037TIP3    H227527   3.858   6.732   1.044 -0.6725  0.4466  0.6539
 2038TIP3   OH227528   3.274   6.758  13.008 -0.6556 -0.7613 -0.0254
 2038TIP3    H127529   3.346   6.800  12.962  0.0686 -1.3971  0.4815
 2038TIP3    H227530   3.201   6.820  13.003 -0.2583 -0.3655 -1.0627
 2039TIP3   OH227531   3.625   3.422   2.669 -0.3326  0.1005 -0.0095
 2039TIP3    H127532   3.641   3.327   2.675 -0.7149  0.0041 -0.5240
 2039TIP3    H227533   3.577   3.433   2.587  1.2982  0.9600 -0.8923
 2040TIP3   OH227534   3.862   2.887   5.521 -0.2021  0.1667 -0.3530
 2040TIP3    H127535   3.813   2.815   5.562  1.8405  0.2055  2.5226
 2040TIP3    H227536   3.844   2.962   5.577  1.3104  0.7145 -0.5580
 2041TIP3   OH227537   1.009   5.598  15.088 -0.2142 -0.2158  0.0200
 2041TIP3    H127538   0.984   5.522  15.034  0.0759 -0.5765  0.3880
 2041TIP3    H227539   1.105   5.598  15.086 -0.1006  2.2505 -2.9171
 2042TIP3   OH227540   4.596   4.385   3.588  0.0633  0.4035  0.4895
 2042TIP3    H127541   4.612   4.477   3.606 -1.5972  0.5769  1.2953
 2042TIP3    H227542   4.560   4.351   3.670 -1.2140 -0.4701 -0.3991
 2043TIP3   OH227543   6.592   3.418   1.694 -0.4019 -0.1057  0.5254
 2043TIP3    H127544   6.640   3.382   1.768  2.0109 -0.9015 -1.3204
 2043TIP3    H227545   6.564   3.341   1.644  0.0015  0.4551 -0.5792
 2044TIP3   OH227546   5.224   5.735  15.921  0.3702 -0.1302 -0.2599
 2044TIP3    H127547   5.249   5.703  15.834  1.3215 -0.4847  0.1264
 2044TIP3    H227548   5.129   5.746  15.917  0.1144 -2.0886 -0.7252
 2045TIP3   OH227549   3.757   6.034  15.138 -0.4909 -0.6263 -0.4678
 2045TIP3    H127550   3.818   6.060  15.208 -1.4375  0.5995 -0.0651
 2045TIP3    H227551   3.700   5.970  15.179  0.8706 -2.2753 -1.0239
 2046TIP3   OH227552   0.501   0.133   6.549  0.2025 -1.3044 -0.1725
 2046TIP3    H127553   0.427   0.080   6.580 -0.8446  0.0660 -0.2011
 2046TIP3    H227554   0.578   0.091   6.587 -0.6391 -2.4495  0.3458
 2047TIP3   OH227555   3.400   5.192   4.956  0.6228 -0.1921  0.4596
 2047TIP3    H127556   3.339   5.256   4.918  1.1145 -0.2889 -0.5311
 2047TIP3    H227557   3.460   5.245   5.009  0.5487  0.0763  0.2806
 2048TIP3   OH227558   5.962   6.155   5.492 -0.4122 -0.0884  0.3089
 2048TIP3    H127559   5.955   6.113   5.406 -0.4744  2.2161 -0.9207
 2048TIP3    H227560   5.919   6.095   5.552 -1.1772 -1.3806 -1.4350
 2049TIP3   OH227561   5.181   2.888  11.942  0.0927 -0.1099 -0.1818
 2049TIP3    H127562   5.153   2.968  11.898 -2.1849  0.3640  1.9099
 2049TIP3    H227563   5.243   2.917  12.008 -0.6260 -0.0801  0.4841
 2050TIP3   OH227564   5.772   4.524   1.579  0.4547  0.0813 -0.4981
 2050TIP3    H127565   5.845   4.558   1.527  0.3622 -1.4216 -1.6743
 2050TIP3    H227566   5.811   4.455   1.633  0.1082 -0.0147 -0.3647
 2051TIP3   OH227567   3.531   0.462  15.751  0.3787  0.2087 -0.5498
 2051TIP3    H127568   3.480   0.465  15.670 -0.9227  2.9606  0.2544
 2051TIP3    H227569   3.497   0.385  15.797 -0.2331 -0.2791 -1.7507
 2052TIP3   OH227570   3.603   6.198  12.384 -0.4529 -0.3168 -0.4602
 2052TIP3    H127571   3.650   6.133  12.331  0.1096  0.3014 -0.7278
 2052TIP3    H227572   3.659   6.275  12.382 -0.7003 -0.1008  0.5698
 2053TIP3   OH227573   1.460   3.790   2.775  0.2752 -0.3993 -0.1774
 2053TIP3    H127574   1.398   3.763   2.708  2.0809  0.1019 -2.1853
 2053TIP3    H227575   1.446   3.884   2.784 -0.1057 -0.5019  0.3012
 2054TIP3   OH227576   0.558   3.734   3.053  0.2090 -0.0827  0.1143
 2054TIP3    H127577   0.568   3.645   3.019 -0.9784  0.0849 -0.7058
 2054TIP3    H227578   0.464   3.745   3.066  0.5125 -0.0042  3.1580
 2055TIP3   OH227579   0.292   5.843   4.752  0.1095  0.4631 -0.1554
 2055TIP3    H127580   0.221   5.907   4.763  0.9570  1.5066 -0.6237
 2055TIP3    H227581   0.251   5.770   4.706 -0.9139  0.5887  0.5214
 2056TIP3   OH227582   1.005   6.412  13.494 -0.0966  0.0618  0.2373
 2056TIP3    H127583   1.032   6.437  13.583  1.3775 -0.7963  0.0732
 2056TIP3    H227584   0.911   6.428  13.492 -0.1781  0.0278  1.9834
 2057TIP3   OH227585   4.135   5.646  11.515  0.6164 -0.1518 -0.3871
 2057TIP3    H127586   4.191   5.589  11.462  3.2728  2.4100 -0.6016
 2057TIP3    H227587   4.150   5.617  11.605 -0.0405 -1.3743 -0.6607
 2058TIP3   OH227588   2.260   1.936  16.473  0.0566 -0.6047 -0.4031
 2058TIP3    H127589   2.306   1.872  16.529  0.1361 -0.7002 -0.5746
 2058TIP3    H227590   2.331   1.985  16.431  0.0052  0.6219  0.8664
 2059TIP3   OH227591   5.671   2.372   3.151  0.1850  0.0657 -0.1820
 2059TIP3    H127592   5.758   2.407   3.136  0.2549  0.4973  1.1745
 2059TIP3    H227593   5.620   2.400   3.074  0.8960  0.9064 -0.3524
 2060TIP3   OH227594   5.304   2.554   4.467  0.1963  0.0324 -0.0539
 2060TIP3    H127595   5.258   2.525   4.546  0.4512 -0.9993 -0.2608
 2060TIP3    H227596   5.274   2.493   4.399  0.9239  0.1233 -0.4634
 2061TIP3   OH227597   6.640   4.288  16.782 -0.6161 -0.5084  0.2528
 2061TIP3    H127598   6.735   4.287  16.792 -0.7714 -0.4346  1.9942
 2061TIP3    H227599   6.622   4.369  16.735  0.2241 -0.9516 -0.8903
 2062TIP3   OH227600   2.628   4.173   2.292 -0.5164  0.7539  0.3033
 2062TIP3    H127601   2.625   4.167   2.387  0.1131  1.1059  0.3542
 2062TIP3    H227602   2.611   4.084   2.261 -0.0942  0.5110  0.7647
 2063TIP3   OH227603   4.905   5.932   1.195  0.4252  0.9946  0.3462
 2063TIP3    H127604   4.911   5.837   1.186  0.3179  0.6425  3.0970
 2063TIP3    H227605   4.981   5.965   1.148 -0.0023 -0.3401 -1.4178
 2064TIP3   OH227606   0.433   5.774  12.240 -0.5550  0.6331 -0.1577
 2064TIP3    H127607   0.438   5.867  12.264 -0.0213  0.8310 -1.0066
 2064TIP3    H227608   0.369   5.737  12.301 -0.5528  1.4961  0.3815
 2065TIP3   OH227609   1.674   2.484   4.203  0.0465  0.0814 -0.1694
 2065TIP3    H127610   1.588   2.442   4.195  0.1088 -0.0905  0.0620
 2065TIP3    H227611   1.667   2.564   4.151 -0.7876  0.9257  1.1846
 2066TIP3   OH227612   0.528   5.944   2.409  0.0675  0.0749 -0.8658
 2066TIP3    H127613   0.537   6.038   2.398 -1.0600  0.5458  1.6975
 2066TIP3    H227614   0.617   5.910   2.399  1.1348  1.8573  1.5724
 2067TIP3   OH227615   1.833   0.466  13.892 -0.2141 -0.0593  0.0282
 2067TIP3    H127616   1.889   0.486  13.967 -0.0731  1.6033 -0.4740
 2067TIP3    H227617   1.882   0.400  13.842  0.8682  0.6705  0.0913
 2068TIP3   OH227618   0.655   5.795   1.968  0.3236  0.1035 -0.2111
 2068TIP3    H127619   0.646   5.839   2.052 -0.3262  0.2115 -0.3303
 2068TIP3    H227620   0.572   5.812   1.923  1.3032  1.5396 -1.5871
 2069TIP3   OH227621   1.442   1.184  14.961 -0.4206 -0.5489 -0.3974
 2069TIP3    H127622   1.432   1.106  14.907 -2.8060 -0.3083 -0.3840
 2069TIP3    H227623   1.360   1.232  14.951  0.5988  1.5049  0.3485
 2070TIP3   OH227624   2.128   2.579  13.611  0.1003 -0.2871  0.1539
 2070TIP3    H127625   2.195   2.627  13.660  0.6494  0.7900 -1.5707
 2070TIP3    H227626   2.095   2.643  13.548 -1.0104 -1.4520 -0.4732
 2071TIP3   OH227627   5.032   2.173  12.207 -0.1820 -0.2611  0.4441
 2071TIP3    H127628   5.039   2.267  12.226 -0.8752  0.2360 -1.5175
 2071TIP3    H227629   4.941   2.151  12.225 -0.6867  0.0764 -1.3984
 2072TIP3   OH227630   4.147   6.717  14.134 -0.8678  0.1328  0.2090
 2072TIP3    H127631   4.079   6.761  14.083 -0.7363 -1.9382 -1.9554
 2072TIP3    H227632   4.134   6.624  14.115  3.4199 -0.3191 -1.6330
 2073TIP3   OH227633   2.895   1.125   1.656  0.5974  0.1348 -0.6627
 2073TIP3    H127634   2.862   1.100   1.742 -0.4350  0.0698 -1.0623
 2073TIP3    H227635   2.988   1.139   1.669  0.3829  0.5227  0.5489
 2074TIP3   OH227636   0.894   4.342  10.931 -0.0561  0.4971  0.1342
 2074TIP3    H127637   0.943   4.294  10.863  0.1190  1.0576 -0.1383
 2074TIP3    H227638   0.808   4.357  10.891 -0.7030 -1.0495  0.8501
 2075TIP3   OH227639   6.095   6.187   5.849 -0.3802 -0.0178 -0.0323
 2075TIP3    H127640   6.068   6.199   5.759 -0.4662 -0.7630 -0.1125
 2075TIP3    H227641   6.104   6.092   5.859  1.5093  0.1450  0.1800
 2076TIP3   OH227642   4.595   1.431   3.342  0.0028 -0.0667  0.0480
 2076TIP3    H127643   4.612   1.417   3.435 -0.0452 -0.6162 -0.0228
 2076TIP3    H227644   4.626   1.352   3.300 -0.1543  0.1016 -0.3852
 2077TIP3   OH227645   0.528   1.123   4.845  0.1354 -0.4927 -0.5444
 2077TIP3    H127646   0.490   1.035   4.835 -2.0673  0.5356 -2.0591
 2077TIP3    H227647   0.596   1.127   4.777  0.4657 -1.1022 -0.2632
 2078TIP3   OH227648   3.631   3.755   3.068  0.2053  0.5048  0.6466
 2078TIP3    H127649   3.642   3.727   2.977 -0.5130  0.3935  0.5827
 2078TIP3    H227650   3.681   3.837   3.075 -2.1972  2.2337 -0.7301
 2079TIP3   OH227651   1.658   6.127  13.838 -0.0165 -0.0844 -0.2261
 2079TIP3    H127652   1.640   6.106  13.930  0.8891 -1.8216 -0.4125
 2079TIP3    H227653   1.592   6.077  13.789  0.9186 -0.9818 -0.6005
 2080TIP3   OH227654   6.356   2.491  11.830  0.0519 -0.5268 -0.1764
 2080TIP3    H127655   6.425   2.472  11.766  1.0173 -1.7550  1.1576
 2080TIP3    H227656   6.300   2.413  11.827 -0.1037 -0.4288  0.1974
 2081TIP3   OH227657   0.709   6.171  13.113  0.5508 -0.4274 -0.2233
 2081TIP3    H127658   0.713   6.134  13.024 -1.2948 -1.5077  0.1044
 2081TIP3    H227659   0.627   6.138  13.149  0.8116  0.7715  1.5680
 2082TIP3   OH227660   1.177   0.389  11.673  0.1007  0.1201  0.2404
 2082TIP3    H127661   1.122   0.418  11.600  0.8664 -0.0473 -0.4244
 2082TIP3    H227662   1.244   0.457  11.680  1.1062 -0.7719 -0.4295
 2083TIP3   OH227663   4.260   1.356  12.962  0.0620 -0.8878  0.7917
 2083TIP3    H127664   4.232   1.341  12.872  0.7295 -2.8266  0.8676
 2083TIP3    H227665   4.185   1.399  13.003 -1.6891 -3.2136  0.2211
 2084TIP3   OH227666   6.708   6.373   5.656  0.0045 -0.1035 -0.1767
 2084TIP3    H127667   6.626   6.419   5.642 -0.4534 -1.2538 -1.4327
 2084TIP3    H227668   6.685   6.300   5.714  0.3662  0.1567  0.3098
 2085TIP3   OH227669   5.486   2.586   6.155 -0.5507  0.1975  0.3214
 2085TIP3    H127670   5.564   2.601   6.208  0.1643  0.4030 -0.7432
 2085TIP3    H227671   5.461   2.673   6.124 -0.7999  0.0568  0.1210
 2086TIP3   OH227672   0.105   3.159  16.721  0.3493  0.3862  0.3152
 2086TIP3    H127673   0.160   3.188  16.794 -2.0879  1.5212  1.8354
 2086TIP3    H227674   0.048   3.092  16.759  1.6201 -1.9413 -1.6062
 2087TIP3   OH227675   5.929   1.704  12.095 -0.4913 -0.2371 -0.6555
 2087TIP3    H127676   5.864   1.635  12.110 -0.9386  0.4281  0.6532
 2087TIP3    H227677   6.000   1.661  12.049 -0.6933 -1.6195  0.2702
 2088TIP3   OH227678   5.968   1.621   2.157  0.2392 -0.3961  0.4560
 2088TIP3    H127679   5.885   1.653   2.192  0.2585  1.1714 -0.8196
 2088TIP3    H227680   6.027   1.696   2.163  1.1160 -1.0234 -0.0957
 2089TIP3   OH227681   4.191   5.440   3.721  0.0349 -0.6296  0.0037
 2089TIP3    H127682   4.256   5.438   3.651  0.5889  0.2463  0.4705
 2089TIP3    H227683   4.151   5.526   3.714 -0.2476 -0.7215  0.4485
 2090TIP3   OH227684   4.623   2.289  14.125  0.1686  0.2177  0.2870
 2090TIP3    H127685   4.650   2.328  14.042 -0.3779  0.4128  0.1973
 2090TIP3    H227686   4.584   2.205  14.102 -0.2157  0.3864  0.3236
 2091TIP3   OH227687   0.221   6.753  11.815  0.3551 -0.5868 -0.0892
 2091TIP3    H127688   0.143   6.765  11.761  0.7719  2.2501 -0.1718
 2091TIP3    H227689   0.251   6.664  11.794 -2.7300 -1.7594 -0.1304
 2092TIP3   OH227690   3.799   5.644  15.379 -0.1349 -0.1079 -0.3716
 2092TIP3    H127691   3.817   5.571  15.438 -0.9847 -1.2432 -1.4587
 2092TIP3    H227692   3.885   5.682  15.360  0.0580  1.2346  2.6647
 2093TIP3   OH227693   1.285   4.776   3.072 -0.3995 -0.0410 -0.0627
 2093TIP3    H127694   1.370   4.817   3.087 -0.4427  0.1791 -0.3914
 2093TIP3    H227695   1.221   4.842   3.099 -0.4793  0.4693 -1.4073
 2094TIP3   OH227696   5.080   2.087   3.114  0.0309  0.4254  0.7828
 2094TIP3    H127697   5.150   2.046   3.164 -0.8812 -1.0477  0.9002
 2094TIP3    H227698   5.090   2.053   3.025 -0.7174 -0.0293  0.8698
 2095TIP3   OH227699   2.425   5.751   3.899 -0.2110  0.6478 -0.0996
 2095TIP3    H127700   2.339   5.781   3.929  0.1057  0.6489  0.8430
 2095TIP3    H227701   2.423   5.764   3.804 -1.8404 -0.8800 -0.3116
 2096TIP3   OH227702   6.759   1.206  17.003  0.1678  0.2496  0.3585
 2096TIP3    H127703   6.807   1.123  16.998  0.2742  0.2551  1.1002
 2096TIP3    H227704   6.699   1.194  17.078  2.1999  1.8393  2.3738
 2097TIP3   OH227705   3.117   0.707  15.306 -0.1374 -0.1574  0.3761
 2097TIP3    H127706   3.204   0.668  15.300 -0.2607 -0.3421 -0.4603
 2097TIP3    H227707   3.086   0.707  15.215 -0.1858  1.7844  0.3644
 2098TIP3   OH227708   3.430   3.338  12.714  0.3434 -0.1683  0.0346
 2098TIP3    H127709   3.360   3.273  12.711  0.3528 -0.2416  0.9801
 2098TIP3    H227710   3.385   3.422  12.716  0.3383 -0.0935 -1.7384
 2099TIP3   OH227711   5.861   5.397   6.028  0.1211 -0.3072  0.2903
 2099TIP3    H127712   5.862   5.434   6.117  2.3088 -0.6433  0.4784
 2099TIP3    H227713   5.775   5.357   6.019 -0.4288  0.3929  1.9754
 2100TIP3   OH227714   1.332   3.672   3.011  0.0208  0.0134  0.0198
 2100TIP3    H127715   1.409   3.699   2.961 -0.3869 -2.2677 -2.0431
 2100TIP3    H227716   1.262   3.730   2.983  0.5787  1.0148  0.6469
 2101TIP3   OH227717   1.147   5.157  11.084 -0.1884 -1.3193 -0.2217
 2101TIP3    H127718   1.104   5.081  11.124 -1.0248 -2.2297 -2.6696
 2101TIP3    H227719   1.107   5.232  11.127 -0.7052 -2.2310  0.9602
 2102TIP3   OH227720   2.545   5.028   1.920  0.3424 -0.3030 -0.2392
 2102TIP3    H127721   2.568   4.971   1.846  0.2735 -1.8491  0.8654
 2102TIP3    H227722   2.617   5.018   1.981  1.3088  2.4298 -0.8214
 2103TIP3   OH227723   2.928   3.497  13.253  0.6810 -0.1922 -0.5457
 2103TIP3    H127724   2.993   3.463  13.314  1.0195 -1.5573 -1.6129
 2103TIP3    H227725   2.959   3.585  13.230  0.2830  0.5437  1.5625
 2104TIP3   OH227726   4.281   0.827   4.262 -0.3327  0.0287  0.0331
 2104TIP3    H127727   4.262   0.898   4.323  0.5925 -0.1859  0.5973
 2104TIP3    H227728   4.376   0.818   4.266  0.1143  1.6492 -3.2775
 2105TIP3   OH227729   4.907   2.703   4.140 -0.1148  0.0416  0.3294
 2105TIP3    H127730   4.996   2.698   4.106  0.1918  2.6239  0.5903
 2105TIP3    H227731   4.852   2.668   4.070  0.7922  2.0715 -1.4915
 2106TIP3   OH227732   6.366   5.291  15.435 -0.1332 -0.6491 -0.2144
 2106TIP3    H127733   6.326   5.242  15.507 -1.1834 -1.1513 -1.1167
 2106TIP3    H227734   6.401   5.370  15.476 -0.8624 -0.8488  0.8230
 2107TIP3   OH227735   1.977   1.865  16.406 -0.0412 -0.0122 -0.2788
 2107TIP3    H127736   2.055   1.902  16.447  1.1104 -2.9562  0.4403
 2107TIP3    H227737   1.997   1.862  16.313  0.2044  0.3174 -0.2358
 2108TIP3   OH227738   5.384   2.622  15.550  0.4167  0.4651  0.1370
 2108TIP3    H127739   5.348   2.536  15.568 -0.5526  1.0383  1.0341
 2108TIP3    H227740   5.443   2.608  15.476  0.9808 -1.1238  0.8419
 2109TIP3   OH227741   5.203   0.431   5.805  0.1343  0.5987  0.3661
 2109TIP3    H127742   5.150   0.464   5.877  0.0710  0.6518  0.2954
 2109TIP3    H227743   5.205   0.336   5.818 -1.5341  0.3812 -0.6731
 2110TIP3   OH227744   5.806   5.341  10.457 -0.1935  0.1034  0.0970
 2110TIP3    H127745   5.749   5.399  10.407 -1.7333 -0.2209  1.4041
 2110TIP3    H227746   5.838   5.396  10.529  2.1953  0.6372 -1.2691
 2111TIP3   OH227747   4.901   6.024   4.484  0.1864  0.0533 -0.0373
 2111TIP3    H127748   4.861   5.946   4.523  1.2034  0.5580  2.1839
 2111TIP3    H227749   4.985   6.033   4.528  1.0943  1.1796 -1.8474
 2112TIP3   OH227750   1.889   0.198   3.189 -0.0797 -0.4774  0.3499
 2112TIP3    H127751   1.959   0.136   3.172 -1.0528 -1.0373 -2.1690
 2112TIP3    H227752   1.858   0.223   3.101 -3.0205 -0.2928  1.3244
 2113TIP3   OH227753   2.022   5.208   1.784  0.2810 -0.0164 -0.3716
 2113TIP3    H127754   2.075   5.129   1.773 -0.6485 -0.7360  0.1337
 2113TIP3    H227755   1.934   5.182   1.757 -0.3095  0.4601  0.9984
 2114TIP3   OH227756   1.250   5.001  12.847 -0.6117 -0.0709  0.4420
 2114TIP3    H127757   1.260   4.978  12.939  0.0518  1.3306  0.7318
 2114TIP3    H227758   1.179   4.944  12.816 -0.2804 -1.1523  1.5868
 2115TIP3   OH227759   0.691   2.513   5.193 -0.4999  0.5926 -0.0386
 2115TIP3    H127760   0.658   2.427   5.218 -0.2817  0.0184 -1.6214
 2115TIP3    H227761   0.753   2.496   5.122  0.0150  2.0037  0.0308
 2116TIP3   OH227762   1.109   1.138   0.451 -0.5301  0.1896  0.0414
 2116TIP3    H127763   1.183   1.177   0.404 -1.4753  0.5761 -1.1868
 2116TIP3    H227764   1.082   1.065   0.396 -1.5734  0.5592  0.0487
 2117TIP3   OH227765   6.111   5.261   4.332  0.6469 -0.4813  0.2438
 2117TIP3    H127766   6.016   5.272   4.333  0.7214  0.5446 -0.9133
 2117TIP3    H227767   6.146   5.342   4.368  1.0931 -0.9755  0.9554
 2118TIP3   OH227768   0.404   5.170   4.810  1.0000 -0.0743 -0.2095
 2118TIP3    H127769   0.466   5.137   4.875  2.0972  1.9071 -0.1660
 2118TIP3    H227770   0.338   5.217   4.862  0.4367 -0.6431 -0.3897
 2119TIP3   OH227771   1.045   3.334  15.466 -0.2558 -0.0764 -0.7038
 2119TIP3    H127772   1.109   3.269  15.437 -0.2500 -0.0036 -0.8557
 2119TIP3    H227773   1.090   3.418  15.461 -0.0969 -0.1137 -0.0007
 2120TIP3   OH227774   3.712   6.798  13.167 -0.5745 -0.0811 -0.6376
 2120TIP3    H127775   3.660   6.855  13.224 -0.7684 -1.3327  0.5061
 2120TIP3    H227776   3.744   6.856  13.098  2.6868  2.4496  2.5849
 2121TIP3   OH227777   3.139   6.691   1.775  1.0974  0.0503  0.3891
 2121TIP3    H127778   3.174   6.733   1.697  0.5388  0.8452  0.5531
 2121TIP3    H227779   3.142   6.597   1.756  0.4672  0.2589 -0.8019
 2122TIP3   OH227780   5.426   2.647   2.529  0.0936 -0.1759 -0.5566
 2122TIP3    H127781   5.480   2.583   2.482 -0.4090 -0.0300 -1.3545
 2122TIP3    H227782   5.373   2.594   2.588  1.0701 -0.3256  0.2094
 2123TIP3   OH227783   5.996   4.293  11.257  0.5486  0.1808  0.2284
 2123TIP3    H127784   5.936   4.220  11.244 -0.3720  1.2913 -2.5782
 2123TIP3    H227785   6.074   4.269  11.207  0.3790  0.8868 -0.4071
 2124TIP3   OH227786   2.665   3.352   2.227 -0.5080 -0.0644 -0.0563
 2124TIP3    H127787   2.700   3.431   2.185  0.6026 -0.9687 -0.8949
 2124TIP3    H227788   2.742   3.295   2.238 -1.1360 -0.6797  1.3518
 2125TIP3   OH227789   6.473   2.712  17.079  0.1280 -0.3956 -0.0553
 2125TIP3    H127790   6.483   2.802  17.049  1.6990  0.4370  2.5634
 2125TIP3    H227791   6.385   2.709  17.118  0.3821  0.2700  0.5866
 2126TIP3   OH227792   0.913   5.142   0.214 -0.0333 -0.3080  0.0293
 2126TIP3    H127793   0.921   5.139   0.119  0.5274  1.9570 -0.0681
 2126TIP3    H227794   0.828   5.103   0.233 -1.0045  0.8901 -1.5999
 2127TIP3   OH227795   2.790   0.000   4.305  0.3490 -0.0374  0.0373
 2127TIP3    H127796   2.714   0.004   4.363 -1.1552 -1.4277 -1.7373
 2127TIP3    H227797   2.781  -0.083   4.258  1.9472  0.6368 -1.5946
 2128TIP3   OH227798   6.316   1.707  15.740 -0.5963  0.4160 -0.5207
 2128TIP3    H127799   6.274   1.788  15.768 -0.6066  0.8588 -1.7403
 2128TIP3    H227800   6.381   1.734  15.675 -1.2387 -0.5980 -1.6501
 2129TIP3   OH227801   6.127   6.575  14.230  0.3570  0.0930 -0.1401
 2129TIP3    H127802   6.151   6.485  14.254 -1.2824  0.3712  3.0447
 2129TIP3    H227803   6.071   6.605  14.301 -0.7170  3.0386 -2.0288
 2130TIP3   OH227804   3.205   4.956  14.172  0.4176 -0.2170 -0.2147
 2130TIP3    H127805   3.297   4.948  14.145  0.4071  0.7553 -0.5862
 2130TIP3    H227806   3.165   5.010  14.104 -0.3929 -0.4710  0.0468
 2131TIP3   OH227807   0.652   0.473  12.575 -0.1416  0.4120  0.3275
 2131TIP3    H127808   0.592   0.538  12.540 -1.3606 -1.2155 -0.7998
 2131TIP3    H227809   0.622   0.390  12.537  1.5989 -0.7537  1.3369
 2132TIP3   OH227810   3.318   5.679   0.849 -0.5403 -0.1747 -0.2102
 2132TIP3    H127811   3.301   5.764   0.809 -2.0914 -0.0939  0.5515
 2132TIP3    H227812   3.334   5.620   0.774  0.3187  0.7100 -0.7477
 2133TIP3   OH227813   6.631   1.545  12.705 -0.0041  0.5765  0.3113
 2133TIP3    H127814   6.709   1.586  12.742  0.1470 -0.3794  1.0914
 2133TIP3    H227815   6.558   1.581  12.756  0.1434 -0.2383  1.1127
 2134TIP3   OH227816   1.064   4.532  15.057 -0.4056  0.0126  0.1129
 2134TIP3    H127817   1.062   4.626  15.076 -0.8138 -0.2020  1.2449
 2134TIP3    H227818   0.973   4.503  15.070  0.2633 -1.1082  3.0943
 2135TIP3   OH227819   1.494   0.002   1.049  0.7090  0.7718  0.7722
 2135TIP3    H127820   1.529  -0.028   1.132  1.2489  2.3696  1.1555
 2135TIP3    H227821   1.564  -0.015   0.986  0.1852 -0.7227  0.5412
 2136TIP3   OH227822   4.725   6.791   2.229 -0.6587 -0.0502  0.0186
 2136TIP3    H127823   4.722   6.886   2.212  0.2259 -0.2717 -1.6526
 2136TIP3    H227824   4.637   6.760   2.204 -0.8965  0.3071  0.4035
 2137TIP3   OH227825   5.706   3.049  15.686  0.1507 -0.2938  0.2995
 2137TIP3    H127826   5.639   3.115  15.666  1.4449  0.8640 -0.3972
 2137TIP3    H227827   5.713   3.050  15.781  0.2699  0.7307  0.2965
 2138TIP3   OH227828   2.678   3.689  15.703 -0.1173  0.5035  0.0854
 2138TIP3    H127829   2.662   3.678  15.609 -2.0227 -1.3080  0.5562
 2138TIP3    H227830   2.772   3.703  15.709  0.3770 -1.3746 -1.9573
 2139TIP3   OH227831   3.770   4.868  12.358  0.1009 -0.2142  0.7178
 2139TIP3    H127832   3.844   4.811  12.338 -1.1301 -1.2267 -1.2495
 2139TIP3    H227833   3.798   4.955  12.328  0.4071 -0.6393 -0.2650
 2140TIP3   OH227834   0.224   0.730  12.536  0.3708 -0.1210 -0.0766
 2140TIP3    H127835   0.246   0.647  12.492 -0.0756  0.5766 -1.7087
 2140TIP3    H227836   0.140   0.713  12.579  0.4009 -0.5903 -0.1967
 2141TIP3   OH227837   0.769   2.077  16.400 -0.0834  0.5780  0.3600
 2141TIP3    H127838   0.713   2.143  16.360 -0.7499 -0.2342 -0.0860
 2141TIP3    H227839   0.822   2.126  16.464 -0.6962  1.4984  0.1870
 2142TIP3   OH227840   1.673   5.466   5.387  0.3952 -0.4574 -0.7728
 2142TIP3    H127841   1.610   5.444   5.455 -1.1706 -0.6301 -2.2186
 2142TIP3    H227842   1.689   5.384   5.341 -0.3993  0.0851 -2.0645
 2143TIP3   OH227843   0.962   2.535  16.596  0.2579 -0.0915 -0.1045
 2143TIP3    H127844   0.928   2.619  16.625 -1.1039 -0.7161  0.1767
 2143TIP3    H227845   1.026   2.557  16.528 -1.1032  1.1034 -1.0393
 2144TIP3   OH227846   3.619   5.805  15.179 -0.2734  0.0750 -0.1498
 2144TIP3    H127847   3.524   5.806  15.163 -0.0920  1.0207 -1.2463
 2144TIP3    H227848   3.639   5.712  15.195 -0.9828 -0.5674 -2.5176
 2145TIP3   OH227849   1.234   0.327  10.490 -0.3525  0.4119 -0.6180
 2145TIP3    H127850   1.166   0.268  10.522  1.0765 -1.4866 -0.9620
 2145TIP3    H227851   1.207   0.413  10.521 -2.3387 -0.4398  0.1667
 2146TIP3   OH227852   6.661   0.228  13.704 -0.4907  0.1759 -0.0410
 2146TIP3    H127853   6.616   0.193  13.628 -0.2476 -1.5161  0.5520
 2146TIP3    H227854   6.754   0.222  13.683 -0.4519  1.0641 -0.1661
 2147TIP3   OH227855   3.634   1.220   4.771  0.5161  0.2285  0.0102
 2147TIP3    H127856   3.567   1.272   4.726 -0.8463 -1.2314  0.2739
 2147TIP3    H227857   3.656   1.150   4.710  0.0592 -0.6571  0.8377
 2148TIP3   OH227858   2.708   3.543  16.381  0.5081  0.4639  0.6229
 2148TIP3    H127859   2.721   3.636  16.396 -0.3556  0.4939  1.2408
 2148TIP3    H227860   2.744   3.501  16.459 -0.4330  0.3828  1.0279
 2149TIP3   OH227861   4.165   1.542   1.409  0.0073  0.1192  0.2215
 2149TIP3    H127862   4.104   1.615   1.412  1.1900  1.1251  0.9295
 2149TIP3    H227863   4.200   1.542   1.320 -1.4683 -0.8926 -0.4029
 2150TIP3   OH227864   4.359   5.396   5.452  0.6655 -0.5816 -0.4661
 2150TIP3    H127865   4.270   5.366   5.465  0.0311  1.2462 -0.2617
 2150TIP3    H227866   4.390   5.350   5.374 -1.0332 -0.0621 -1.4884
 2151TIP3   OH227867   5.285   3.076   2.150  0.5097 -0.6581  0.1743
 2151TIP3    H127868   5.226   3.097   2.223  0.1487 -0.9750 -0.0206
 2151TIP3    H227869   5.318   2.988   2.171  1.5372 -0.1651  0.6826
 2152TIP3   OH227870   5.990   3.027   4.547  0.2857  0.1476  0.4661
 2152TIP3    H127871   5.991   3.050   4.640 -0.4358  1.5577  0.1605
 2152TIP3    H227872   5.903   2.989   4.533  1.2827 -2.5552  0.8561
 2153TIP3   OH227873   0.775   3.610  12.178  0.5976  0.3700  0.1168
 2153TIP3    H127874   0.721   3.681  12.142 -0.9072  0.1133  1.7166
 2153TIP3    H227875   0.724   3.531  12.160  1.2033 -0.0622  0.2935
 2154TIP3   OH227876   3.277   1.268  16.911 -0.5189 -0.0568  0.0189
 2154TIP3    H127877   3.258   1.267  17.005 -0.1862  0.1929  0.0876
 2154TIP3    H227878   3.314   1.181  16.893  2.5300  0.9822  0.7598
 2155TIP3   OH227879   4.420   5.909   5.209 -0.3946  0.2818 -0.2162
 2155TIP3    H127880   4.458   5.993   5.181 -1.0143  0.5410 -0.2924
 2155TIP3    H227881   4.429   5.910   5.305 -0.5465  0.5071 -0.2028
 2156TIP3   OH227882   1.799   5.587   5.003 -0.0755 -0.1850  0.3065
 2156TIP3    H127883   1.820   5.636   4.923 -1.0368 -0.6842 -0.2829
 2156TIP3    H227884   1.849   5.631   5.072  0.7387  0.2927 -0.5554
 2157TIP3   OH227885   0.588   2.066   0.436  0.3963  0.0106 -0.3438
 2157TIP3    H127886   0.538   2.028   0.508 -0.3859  0.6737 -0.5212
 2157TIP3    H227887   0.523   2.086   0.369  1.0068  0.1683 -0.9001
 2158TIP3   OH227888   1.033   1.984   0.372  0.3400 -0.1715 -0.1677
 2158TIP3    H127889   0.938   1.996   0.370  0.6712  3.3823 -0.6643
 2158TIP3    H227890   1.052   1.938   0.290 -0.8916 -0.1506 -0.4981
 2159TIP3   OH227891   3.985   5.586   0.670  0.6087  0.6767 -0.1402
 2159TIP3    H127892   3.962   5.521   0.603 -0.3754  0.6312  0.2213
 2159TIP3    H227893   4.046   5.540   0.728 -0.3438 -0.0817  0.3146
 2160TIP3   OH227894   0.550   4.621   5.740  0.1498 -0.6426  0.4335
 2160TIP3    H127895   0.603   4.642   5.817  0.8606 -1.9524  0.3210
 2160TIP3    H227896   0.499   4.545   5.766 -0.0072 -0.7644 -0.2236
 2161TIP3   OH227897   1.720   1.228  15.915  0.0458  0.0100 -0.0775
 2161TIP3    H127898   1.789   1.232  15.848 -0.8846 -0.3956 -1.0894
 2161TIP3    H227899   1.733   1.144  15.958  0.9531  0.4816  0.6218
 2162TIP3   OH227900   0.622   3.657   4.325 -0.2249  0.1514 -0.4858
 2162TIP3    H127901   0.607   3.631   4.234 -0.4265  0.1458 -0.4505
 2162TIP3    H227902   0.715   3.682   4.327 -0.0618 -0.4075 -0.5584
 2163TIP3   OH227903   1.776   1.760  13.004  0.5502 -0.3102 -0.5581
 2163TIP3    H127904   1.687   1.748  12.972  0.4413  0.0339 -0.3828
 2163TIP3    H227905   1.808   1.672  13.020  0.4526 -0.4704 -1.1999
 2164TIP3   OH227906   6.218   5.205  16.310  0.0926 -0.1747 -0.1536
 2164TIP3    H127907   6.173   5.124  16.335 -0.7284  0.8395  1.8805
 2164TIP3    H227908   6.177   5.273  16.364  1.7356  1.3738 -0.7649
 2165TIP3   OH227909   4.231   3.921  11.132 -0.7307  0.0637 -0.0888
 2165TIP3    H127910   4.137   3.940  11.138 -0.7765 -0.3366  0.6343
 2165TIP3    H227911   4.268   3.997  11.087 -1.6527 -0.6069 -2.1164
 2166TIP3   OH227912   3.032   6.430  14.064  0.2585 -0.0922 -0.2156
 2166TIP3    H127913   2.986   6.513  14.055 -1.0332 -0.9102 -1.5447
 2166TIP3    H227914   3.053   6.424  14.158 -0.5141  1.2655  0.0616
 2167TIP3   OH227915   3.580   6.211   6.010 -0.1412  0.4825  0.2045
 2167TIP3    H127916   3.492   6.243   5.989 -0.1164  0.7385  0.4810
 2167TIP3    H227917   3.571   6.170   6.096 -0.7101 -2.4730 -1.1366
 2168TIP3   OH227918   5.833   6.748   4.283 -0.2276  0.2630 -0.1977
 2168TIP3    H127919   5.790   6.798   4.214 -3.4741 -0.3588  1.1823
 2168TIP3    H227920   5.863   6.814   4.346  0.5885  0.7029 -1.0339
 2169TIP3   OH227921   0.882   4.038  12.661  0.2387 -0.0185  0.2557
 2169TIP3    H127922   0.957   4.044  12.601 -0.8625 -2.2825 -1.4791
 2169TIP3    H227923   0.893   3.953  12.704  0.4368  1.1170  2.6123
 2170TIP3   OH227924   4.726   4.776   5.469 -0.3817 -0.6959  0.1724
 2170TIP3    H127925   4.769   4.693   5.489 -0.0953 -0.7199 -0.5363
 2170TIP3    H227926   4.706   4.813   5.555 -0.6348 -1.5572  0.4920
 2171TIP3   OH227927   4.992   6.465   2.690 -0.5838 -0.5688 -0.7341
 2171TIP3    H127928   5.064   6.402   2.700 -0.5109 -0.1415  2.2116
 2171TIP3    H227929   5.036   6.550   2.685 -0.8419 -0.3826  0.1330
 2172TIP3   OH227930   5.002   1.856  11.321  0.0246  0.0201  0.0025
 2172TIP3    H127931   4.968   1.913  11.391 -0.2440  0.6382 -0.6172
 2172TIP3    H227932   5.092   1.837  11.347  0.7754  2.2947 -0.6919
 2173TIP3   OH227933   4.997   0.185  10.880 -0.4844 -0.3245  0.0015
 2173TIP3    H127934   4.929   0.239  10.920  0.9017  1.4864  0.0564
 2173TIP3    H227935   5.015   0.228  10.795 -0.3238 -1.5294 -0.5963
 2174TIP3   OH227936   1.260   3.785  14.494  0.3840 -0.6689  0.1178
 2174TIP3    H127937   1.322   3.830  14.437 -1.0461  0.7302 -0.3693
 2174TIP3    H227938   1.240   3.848  14.563 -2.1780 -0.1922 -0.9543
 2175TIP3   OH227939   2.079   4.471  12.683 -0.5159  0.1351 -0.2420
 2175TIP3    H127940   2.049   4.452  12.594 -0.6943 -1.1569  0.0608
 2175TIP3    H227941   2.147   4.537  12.673 -0.9300  0.4109 -1.2838
 2176TIP3   OH227942   5.083   3.079   3.486  0.2158 -0.7260 -0.4321
 2176TIP3    H127943   5.127   3.033   3.558  1.2750 -0.3740 -0.8242
 2176TIP3    H227944   5.000   3.108   3.522  0.9498 -0.0927  0.8279
 2177TIP3   OH227945   4.337   3.514  16.644 -0.5278  0.0693 -0.2038
 2177TIP3    H127946   4.392   3.482  16.573 -0.6728 -0.9386  0.1212
 2177TIP3    H227947   4.370   3.602  16.663  0.9124 -0.4863 -0.0746
 2178TIP3   OH227948   3.637   5.533  14.966 -0.3443  0.3789 -0.2512
 2178TIP3    H127949   3.709   5.530  15.029 -0.1935 -2.8336 -0.4199
 2178TIP3    H227950   3.558   5.536  15.020 -0.1534 -0.2706  0.0831
 2179TIP3   OH227951   5.826   2.072  14.617  0.3541 -0.2254 -0.1907
 2179TIP3    H127952   5.819   2.010  14.690  1.2850 -0.2582 -0.1144
 2179TIP3    H227953   5.751   2.051  14.561 -0.7084  0.1699  1.0178
 2180TIP3   OH227954   6.240   0.353   3.135  0.5307 -0.1760  0.6217
 2180TIP3    H127955   6.336   0.347   3.133  0.4897 -0.7648 -1.3659
 2180TIP3    H227956   6.211   0.293   3.067 -1.3166 -0.6637  1.7731
 2181TIP3   OH227957   2.625   1.778  12.467  0.1496 -0.2517  0.1909
 2181TIP3    H127958   2.666   1.748  12.549 -0.7225 -0.3688  0.5985
 2181TIP3    H227959   2.611   1.698  12.417 -0.5796 -0.3402  0.5272
 2182TIP3   OH227960   3.696   1.636  11.706  0.2850  0.0498 -0.7262
 2182TIP3    H127961   3.668   1.657  11.795 -0.6595  0.7053 -1.1692
 2182TIP3    H227962   3.771   1.693  11.690  0.6114 -0.2444 -0.2754
 2183TIP3   OH227963   0.267   2.904  14.272  0.0471  0.2894 -0.4239
 2183TIP3    H127964   0.261   2.930  14.364  0.1718 -1.7594  0.2226
 2183TIP3    H227965   0.276   2.986  14.224  0.1859  1.3992  1.4083
 2184TIP3   OH227966   3.421   0.575  13.268 -0.1466  0.1398 -0.3097
 2184TIP3    H127967   3.357   0.507  13.246  0.2809  0.3713 -2.4064
 2184TIP3    H227968   3.499   0.526  13.294 -0.3965 -0.1516 -0.0861
 2185TIP3   OH227969   6.369   1.701   3.073 -0.3663  0.1951  0.7359
 2185TIP3    H127970   6.340   1.788   3.101  0.1284  0.6159 -0.0410
 2185TIP3    H227971   6.322   1.686   2.991 -1.0890 -0.6358  1.2831
 2186TIP3   OH227972   4.606   2.963  11.317  0.1919  0.2664 -0.0363
 2186TIP3    H127973   4.566   2.876  11.310  2.0838 -0.5446 -1.7635
 2186TIP3    H227974   4.674   2.964  11.250  1.4816  2.4302  1.1768
 2187TIP3   OH227975   1.456   0.818   1.450 -0.3433 -0.2326  0.2329
 2187TIP3    H127976   1.483   0.818   1.358  1.0758 -2.1145  0.5948
 2187TIP3    H227977   1.393   0.890   1.456  0.8200  1.0780 -1.8247
 2188TIP3   OH227978   2.550   6.148   2.708  0.1396 -0.0583 -0.0210
 2188TIP3    H127979   2.544   6.241   2.684  2.1598  0.1766  0.2207
 2188TIP3    H227980   2.621   6.144   2.771  0.2264 -1.8211 -0.1902
 2189TIP3   OH227981   0.281   2.139  13.964 -0.4395 -0.3562  0.2797
 2189TIP3    H127982   0.306   2.176  14.049 -0.7651 -1.0999  0.7162
 2189TIP3    H227983   0.291   2.211  13.902  0.6890 -0.0492  0.7907
 2190TIP3   OH227984   3.166   3.609  12.427  0.1166 -0.3199  0.7950
 2190TIP3    H127985   3.171   3.705  12.422  0.7977 -0.4280 -1.2348
 2190TIP3    H227986   3.246   3.578  12.384 -1.3911 -1.7998 -1.1361
 2191TIP3   OH227987   6.580   4.055  15.623 -0.1996  0.0656 -0.3946
 2191TIP3    H127988   6.544   4.024  15.540  0.0707  1.4809 -1.0837
 2191TIP3    H227989   6.504   4.063  15.681 -0.1967 -2.3959  0.0353
 2192TIP3   OH227990   4.974   2.403  17.067 -0.4102  0.2006  0.0388
 2192TIP3    H127991   5.046   2.342  17.050 -0.3527  0.5828 -1.1680
 2192TIP3    H227992   4.999   2.447  17.148  0.7848  0.3974 -0.4122
 2193TIP3   OH227993   3.752   1.774  16.581 -0.3463 -0.5222  0.1233
 2193TIP3    H127994   3.734   1.717  16.506 -2.1148  1.5863 -1.1742
 2193TIP3    H227995   3.696   1.740  16.651 -1.1476 -0.5857 -0.5331
 2194TIP3   OH227996   0.293   0.845  10.835 -0.1118  0.2920 -0.0254
 2194TIP3    H127997   0.308   0.937  10.812 -0.5975  0.1850 -0.7949
 2194TIP3    H227998   0.379   0.804  10.825 -0.1478  0.4113 -0.8962
 2195TIP3   OH227999   0.697   0.653   5.034 -0.6491 -0.0160 -0.2332
 2195TIP3    H128000   0.792   0.661   5.024 -0.6986  1.3809  0.1552
 2195TIP3    H228001   0.685   0.607   5.117 -0.3074  0.3161  0.0042
 2196TIP3   OH228002   6.668   3.952  12.721 -0.6186 -0.4724 -0.5020
 2196TIP3    H128003   6.680   3.984  12.632 -1.0084 -1.0648 -0.7728
 2196TIP3    H228004   6.756   3.947  12.757 -0.4828  0.0612 -0.7462
 2197TIP3   OH228005   6.122   1.158   4.079 -0.4096  0.0070  0.3754
 2197TIP3    H128006   6.077   1.202   4.007  1.5989  1.3642 -0.1502
 2197TIP3    H228007   6.157   1.078   4.040  1.5049  1.1973 -0.5398
 2198TIP3   OH228008   3.065   4.025   3.353  0.0805 -0.0102  0.3098
 2198TIP3    H128009   3.050   3.933   3.374 -1.3459  0.0993 -0.1103
 2198TIP3    H228010   2.991   4.049   3.298  1.3051  0.9376 -1.0076
 2199TIP3   OH228011   0.670   0.727  12.319 -0.1479  0.1454 -0.4292
 2199TIP3    H128012   0.647   0.808  12.274 -1.2573 -0.6664 -1.3938
 2199TIP3    H228013   0.703   0.669  12.250  0.8298 -0.1721  0.2772
 2200TIP3   OH228014   0.113   6.010   2.506 -0.5248  0.1711  0.0842
 2200TIP3    H128015   0.047   5.981   2.569 -1.9055  2.4610 -0.1655
 2200TIP3    H228016   0.197   5.991   2.548 -1.3277 -1.7172  0.9435
 2201TIP3   OH228017   3.291   4.946   3.574  0.2319  0.3923 -0.5030
 2201TIP3    H128018   3.201   4.945   3.540 -0.2228 -1.2603  0.6379
 2201TIP3    H228019   3.328   4.862   3.546  0.5851 -0.0236  1.1491
 2202TIP3   OH228020   3.927   4.919  14.611 -0.2188 -0.0658  0.6684
 2202TIP3    H128021   3.959   4.873  14.688 -1.9240 -0.7078  1.0457
 2202TIP3    H228022   3.995   4.906  14.545  0.0317 -1.8826  1.2164
 2203TIP3   OH228023   1.529   2.738  15.235  0.2526  0.2499 -0.3103
 2203TIP3    H128024   1.591   2.781  15.294  0.3691 -0.0166 -0.2372
 2203TIP3    H228025   1.561   2.648  15.228  0.8207  0.5324 -1.5675
 2204TIP3   OH228026   2.271   4.164  14.493  0.2646 -0.3008 -0.0784
 2204TIP3    H128027   2.232   4.225  14.555 -1.2737  0.5322 -1.7786
 2204TIP3    H228028   2.356   4.203  14.471  0.6848 -0.4406  1.2026
 2205TIP3   OH228029   0.820   3.542  14.894  0.4413  0.6135  0.4853
 2205TIP3    H128030   0.851   3.455  14.920  2.3770  1.4068  1.0286
 2205TIP3    H228031   0.794   3.583  14.976 -0.1631  0.6732  0.2684
 2206TIP3   OH228032   3.982   0.905   2.314  0.6836 -0.4783  0.0378
 2206TIP3    H128033   4.073   0.879   2.328  0.2003 -2.1900  0.2495
 2206TIP3    H228034   3.931   0.831   2.347 -0.8122  0.6630  0.4063
 2207TIP3   OH228035   3.317   6.645  12.002 -0.1287  0.1115 -0.4739
 2207TIP3    H128036   3.339   6.597  11.922  0.1228 -2.1337  0.8760
 2207TIP3    H228037   3.225   6.668  11.991 -0.2032 -0.5017 -1.2296
 2208TIP3   OH228038   5.394   5.287   3.300  0.2392  0.4051  0.2874
 2208TIP3    H128039   5.450   5.332   3.236 -0.3977 -0.7606 -1.1452
 2208TIP3    H228040   5.305   5.315   3.277 -0.0973 -0.9532 -0.1462
 2209TIP3   OH228041   2.238   2.857   3.130  0.7854 -0.4764  0.1936
 2209TIP3    H128042   2.288   2.927   3.090 -1.0129  0.6772 -0.1704
 2209TIP3    H228043   2.217   2.798   3.057  2.2383 -1.4240  0.4877
 2210TIP3   OH228044   3.608   3.245  13.980  0.1525 -0.2505  0.0066
 2210TIP3    H128045   3.648   3.214  14.061  0.7449 -1.2094 -0.6371
 2210TIP3    H228046   3.514   3.241  13.996  0.1863 -2.4940 -0.0515
 2211TIP3   OH228047   2.948   6.638  13.575 -0.5403  0.2030 -0.1052
 2211TIP3    H128048   2.987   6.721  13.548  0.8922 -0.4630 -0.2222
 2211TIP3    H228049   3.020   6.575  13.568 -1.1974 -0.7680  1.3761
 2212TIP3   OH228050   1.242   3.479  10.465  0.0791 -0.2466  0.4943
 2212TIP3    H128051   1.265   3.410  10.403 -0.9989 -0.4035  0.2451
 2212TIP3    H228052   1.162   3.517  10.429 -0.0603  0.2600  1.3234
 2213TIP3   OH228053   3.322   3.870  15.370 -0.2747  0.5333 -0.4202
 2213TIP3    H128054   3.370   3.953  15.369 -0.7257  0.8015 -0.7323
 2213TIP3    H228055   3.281   3.866  15.283  0.4972 -0.4754 -0.7515
 2214TIP3   OH228056   4.102   6.464  13.204  0.4127 -0.0268  0.7200
 2214TIP3    H128057   4.024   6.493  13.251  0.1868  0.9919 -0.2452
 2214TIP3    H228058   4.159   6.541  13.202  0.3079  0.0487 -0.8619
 2215TIP3   OH228059   0.233   2.835  16.501  0.4007 -0.1387 -0.0829
 2215TIP3    H128060   0.255   2.821  16.593 -0.7756 -1.7484  0.0036
 2215TIP3    H228061   0.202   2.925  16.497  0.8685  0.0836  1.0138
 2216TIP3   OH228062   0.257   4.865   1.274 -0.4525 -0.1626 -0.1473
 2216TIP3    H128063   0.341   4.900   1.246 -0.1499 -0.7076  0.0801
 2216TIP3    H228064   0.234   4.916   1.352 -1.5322  1.7075 -1.5828
 2217TIP3   OH228065   5.179   4.423  11.497 -0.4901 -0.5500  0.1063
 2217TIP3    H128066   5.183   4.336  11.458 -0.8352 -0.3674 -0.3428
 2217TIP3    H228067   5.267   4.438  11.532  0.0159 -0.4656 -1.1664
 2218TIP3   OH228068   2.924   3.380   3.478  0.2249 -0.0972  0.3032
 2218TIP3    H128069   2.833   3.409   3.482  0.3507  0.1810  1.5560
 2218TIP3    H228070   2.969   3.434   3.543  0.9658 -1.3861  0.8937
 2219TIP3   OH228071   3.954   4.799   3.834 -0.3738  0.4873  0.7601
 2219TIP3    H128072   3.939   4.757   3.749 -0.6793  1.3665  0.3668
 2219TIP3    H228073   3.888   4.760   3.892  0.5100 -0.8890  0.8910
 2220TIP3   OH228074   6.424   2.265  16.751  0.8613  0.1008  0.1067
 2220TIP3    H128075   6.466   2.294  16.670 -0.6835  0.7099 -0.5198
 2220TIP3    H228076   6.495   2.263  16.815  1.8901  0.8243 -0.9621
 2221TIP3   OH228077   6.020   2.598   3.314  0.0713  0.2434 -0.3090
 2221TIP3    H128078   5.965   2.574   3.389  0.9102 -0.8315 -0.0090
 2221TIP3    H228079   6.107   2.611   3.352  0.5436 -0.5002 -1.1057
 2222TIP3   OH228080   3.768   0.669  12.068 -0.2218 -0.1807 -0.2696
 2222TIP3    H128081   3.822   0.638  12.141 -0.5215  2.0749  1.0340
 2222TIP3    H228082   3.778   0.603  12.000  1.1766 -1.6955  1.3161
 2223TIP3   OH228083   5.192   2.299  15.874  0.3587  0.4092 -0.3567
 2223TIP3    H128084   5.255   2.284  15.804  0.6495 -0.5375  0.0944
 2223TIP3    H228085   5.131   2.225  15.868 -0.1987  0.8474 -0.2304
 2224TIP3   OH228086   3.012   5.810   0.121  0.8563  0.0201  0.8451
 2224TIP3    H128087   3.083   5.778   0.065 -0.5177 -0.6698 -0.6100
 2224TIP3    H228088   2.937   5.817   0.061 -0.5666 -0.3155  2.5214
 2225TIP3   OH228089   3.651   3.215   2.416 -0.0203 -0.0866  0.0468
 2225TIP3    H128090   3.739   3.224   2.379 -0.3259 -0.1518 -0.7228
 2225TIP3    H228091   3.622   3.128   2.388 -1.1925  0.7907 -1.6691
 2226TIP3   OH228092   4.532   3.389  10.454 -0.2665 -0.8828  0.6238
 2226TIP3    H128093   4.560   3.449  10.524 -0.4667  0.9563 -0.8208
 2226TIP3    H228094   4.579   3.419  10.377 -1.7691 -1.4492 -0.5478
 2227TIP3   OH228095   3.434   4.245   5.638 -0.1364  0.4113  0.1369
 2227TIP3    H128096   3.398   4.177   5.694 -1.9124  1.5223  0.4148
 2227TIP3    H228097   3.512   4.276   5.685 -1.4096  1.1007  1.8755
 2228TIP3   OH228098   4.932   3.055  13.300  0.3182  0.0680  0.6585
 2228TIP3    H128099   4.978   3.137  13.286 -0.0863  0.0275 -1.1217
 2228TIP3    H228100   4.839   3.079  13.302  0.2838 -0.0881  2.3588
 2229TIP3   OH228101   2.233   2.854  15.252  0.3316 -0.2382 -0.3100
 2229TIP3    H128102   2.228   2.932  15.306  1.8585 -0.5285  0.2704
 2229TIP3    H228103   2.236   2.887  15.162 -0.4496  0.3009 -0.1471
 2230TIP3   OH228104   5.311   2.300  13.507 -0.2367  0.2470 -0.2035
 2230TIP3    H128105   5.320   2.274  13.415 -0.7356  1.2857 -0.5635
 2230TIP3    H228106   5.392   2.346  13.526 -0.9014  1.6706 -0.7054
 2231TIP3   OH228107   0.818   2.759   2.421 -0.4218 -0.2955 -0.4073
 2231TIP3    H128108   0.802   2.703   2.497  0.3839 -1.1099 -0.8262
 2231TIP3    H228109   0.889   2.716   2.374 -0.4219  0.5906 -1.2381
 2232TIP3   OH228110   2.814   0.549   4.474  0.5352  0.1129  1.2129
 2232TIP3    H128111   2.798   0.455   4.478  0.8844  0.0788  2.1331
 2232TIP3    H228112   2.815   0.570   4.381 -1.6520 -0.4155  1.0112
 2233TIP3   OH228113   6.644   2.372   3.103  0.2035 -0.2960 -0.1991
 2233TIP3    H128114   6.709   2.440   3.085  0.1365  0.0671  0.8787
 2233TIP3    H228115   6.560   2.417   3.092  0.1425  0.4196  2.5702
 2234TIP3   OH228116   6.382   0.055   5.698 -0.6609 -0.8165 -0.2111
 2234TIP3    H128117   6.377   0.140   5.653  2.5888 -0.4831 -0.1450
 2234TIP3    H228118   6.345  -0.007   5.635 -2.0719  0.4610 -0.7035
 2235TIP3   OH228119   2.499   2.029   4.027 -0.3728  0.3552  0.0867
 2235TIP3    H128120   2.533   2.006   4.114  2.7771  1.4948 -0.6898
 2235TIP3    H228121   2.462   2.117   4.039 -0.2980  0.3485  0.3844
 2236TIP3   OH228122   1.204   1.654  15.077  0.5368  0.4222 -0.4327
 2236TIP3    H128123   1.191   1.697  15.161 -0.5502  0.4017 -0.5768
 2236TIP3    H228124   1.230   1.565  15.099 -0.1429  0.2994 -0.1153
 2237TIP3   OH228125   2.994   6.525   0.578  0.5668 -0.1264 -0.2216
 2237TIP3    H128126   3.035   6.544   0.662 -0.0974  1.6769 -0.2631
 2237TIP3    H228127   2.921   6.586   0.572  0.6777 -0.1098 -2.1608
 2238TIP3   OH228128   2.919   2.549  13.043  0.1589  0.1089  0.1229
 2238TIP3    H128129   2.928   2.591  12.957 -0.6847  2.5014  1.1296
 2238TIP3    H228130   2.829   2.517  13.044  0.2219 -0.0700  0.0503
 2239TIP3   OH228131   1.835   4.633   3.832  0.3301 -0.1766  0.5207
 2239TIP3    H128132   1.850   4.727   3.823  0.8648 -0.3944 -1.1361
 2239TIP3    H228133   1.850   4.615   3.925  0.8722  1.2527  0.7333
 2240TIP3   OH228134   0.247   4.121   2.255 -0.2946 -0.0083  0.1424
 2240TIP3    H128135   0.269   4.185   2.188  0.6017 -0.1887  0.2529
 2240TIP3    H228136   0.175   4.070   2.218 -0.6537  0.7120 -0.1627
 2241TIP3   OH228137   6.334   3.866  10.358 -0.3111 -0.0817 -0.3892
 2241TIP3    H128138   6.353   3.772  10.356  1.1295  0.0955 -4.2511
 2241TIP3    H228139   6.327   3.890  10.266  1.7219  4.0159  0.3051
 2242TIP3   OH228140   0.907   5.976  14.900  0.3101  0.1103 -0.4444
 2242TIP3    H128141   0.947   5.981  14.814 -0.5246 -0.5742 -0.8858
 2242TIP3    H228142   0.816   5.950  14.884 -0.5648  2.3311  0.4775
 2243TIP3   OH228143   3.389   4.746  16.755  0.1972 -0.4053  0.0292
 2243TIP3    H128144   3.387   4.802  16.832  0.1648  1.1244 -1.0259
 2243TIP3    H228145   3.426   4.663  16.786  0.5918  0.3124  1.5817
 2244TIP3   OH228146   3.189   6.518   2.943 -0.6856 -0.1276 -0.0526
 2244TIP3    H128147   3.151   6.605   2.956 -3.8280 -1.4536  0.3282
 2244TIP3    H228148   3.187   6.505   2.848 -2.0136 -0.5028  0.0158
 2245TIP3   OH228149   4.651   2.495   0.304  0.0297 -0.2744  0.4679
 2245TIP3    H128150   4.573   2.479   0.356 -0.0613  0.2922  0.5072
 2245TIP3    H228151   4.689   2.408   0.290  0.0747 -0.4269  1.4983
 2246TIP3   OH228152   1.940   0.448  15.450 -0.0862 -0.1055 -0.1238
 2246TIP3    H128153   1.944   0.542  15.465 -0.5954 -0.1491  0.2959
 2246TIP3    H228154   1.878   0.437  15.379  0.8959 -0.0417 -1.0129
 2247TIP3   OH228155   4.632   0.086  15.863  0.2363 -0.0345  0.0384
 2247TIP3    H128156   4.556   0.142  15.844  1.1224  1.5451  0.8815
 2247TIP3    H228157   4.678   0.079  15.779 -0.2012  0.0260 -0.2081
 2248TIP3   OH228158   2.706   3.312  12.562  0.6975  0.3662 -0.4561
 2248TIP3    H128159   2.701   3.407  12.548 -0.3914  0.3533 -0.2094
 2248TIP3    H228160   2.800   3.293  12.564  0.9334  1.5188  0.0644
 2249TIP3   OH228161   2.564   2.311  15.240 -0.0497 -0.1593  0.4120
 2249TIP3    H128162   2.489   2.349  15.194 -0.5740 -0.0127  1.3540
 2249TIP3    H228163   2.637   2.318  15.178 -0.2637  1.8348  0.3065
 2250TIP3   OH228164   2.242   4.481   4.342 -0.2765  0.0753 -0.5012
 2250TIP3    H128165   2.235   4.392   4.309  0.8296 -0.1986 -0.0327
 2250TIP3    H228166   2.154   4.500   4.376  0.0519 -1.7511  1.6089
 2251TIP3   OH228167   5.977   5.378  11.607  0.2691  0.8606  0.1913
 2251TIP3    H128168   6.063   5.419  11.606  0.0440  1.3342 -0.4254
 2251TIP3    H228169   5.988   5.299  11.660  0.7311  1.6704  1.3496
 2252TIP3   OH228170   4.089   1.119   3.629  0.3504 -0.4622 -0.4642
 2252TIP3    H128171   4.135   1.197   3.600 -1.3006 -0.3137 -3.0234
 2252TIP3    H228172   3.998   1.146   3.638  0.2118 -1.4257  1.5827
 2253TIP3   OH228173   4.747   4.418   2.396 -0.7576  0.0657 -0.3389
 2253TIP3    H128174   4.720   4.335   2.356 -0.3158  0.1792 -0.8854
 2253TIP3    H228175   4.841   4.422   2.380 -0.5075 -0.0228  0.9906
 2254TIP3   OH228176   0.822   3.855  15.546 -0.7543  0.1726 -0.6047
 2254TIP3    H128177   0.737   3.871  15.504 -0.1372  0.1294 -1.8921
 2254TIP3    H228178   0.885   3.905  15.494 -0.0458  0.6005  0.6359
 2255TIP3   OH228179   3.710   3.260   2.000 -0.1531 -0.2969  0.3291
 2255TIP3    H128180   3.782   3.203   1.971 -0.9032 -0.7896 -0.5920
 2255TIP3    H228181   3.682   3.306   1.921 -0.6284  0.1519  0.7553
 2256TIP3   OH228182   1.943   2.567   5.061  0.1559  0.4859  0.6648
 2256TIP3    H128183   1.904   2.649   5.031 -3.1749 -1.1951 -0.0294
 2256TIP3    H228184   2.023   2.557   5.009 -1.6225  1.2478 -2.4262
 2257TIP3   OH228185   3.147   5.695   2.750  0.0648  0.5274 -0.1844
 2257TIP3    H128186   3.088   5.742   2.690  2.2387  0.5818 -2.4618
 2257TIP3    H228187   3.234   5.705   2.711  1.6273  0.3291  2.9215
 2258TIP3   OH228188   0.469   4.671   0.480 -0.1789 -0.8061  1.2850
 2258TIP3    H128189   0.545   4.631   0.522  1.4868 -0.2538 -1.0088
 2258TIP3    H228190   0.497   4.760   0.458 -1.5452 -0.5354  0.5041
 2259TIP3   OH228191   4.431   2.436   3.556  0.8910 -0.6615  0.0865
 2259TIP3    H128192   4.491   2.497   3.599 -0.3957  0.3091  0.5968
 2259TIP3    H228193   4.347   2.452   3.600  0.1254 -1.5239 -1.0248
 2260TIP3   OH228194   0.287   4.848  10.413 -0.0075  0.9868  0.3485
 2260TIP3    H128195   0.204   4.849  10.366 -0.6982 -1.7598  1.3203
 2260TIP3    H228196   0.339   4.782  10.369  0.7870  1.0691  1.1404
 2261TIP3   OH228197   5.752   5.968  13.085  0.0696  0.0985 -0.5794
 2261TIP3    H128198   5.707   6.040  13.042  0.6510  0.6348 -0.3090
 2261TIP3    H228199   5.723   5.890  13.039  1.9546  0.7623 -3.1016
 2262TIP3   OH228200   0.379   5.432   0.165  0.0907  0.0004  0.0130
 2262TIP3    H128201   0.331   5.361   0.208  1.2553 -0.4319  0.6512
 2262TIP3    H228202   0.312   5.496   0.144 -0.6622 -0.1457  1.7374
 2263TIP3   OH228203   1.460   1.879  11.734 -0.2190  0.4817 -0.0666
 2263TIP3    H128204   1.442   1.803  11.679 -1.0102  1.5055 -1.2868
 2263TIP3    H228205   1.550   1.866  11.764 -0.9888 -1.9054  1.4467
 2264TIP3   OH228206   4.327   3.954   3.782 -0.3661 -0.0673  0.1469
 2264TIP3    H128207   4.256   3.951   3.718 -0.7895  0.4677  0.5746
 2264TIP3    H228208   4.397   3.902   3.743 -0.5118  0.4802 -0.8771
 2265TIP3   OH228209   1.621   4.882   0.102  0.0851 -0.3078  0.2634
 2265TIP3    H128210   1.639   4.799   0.147 -0.5164 -0.2235  0.6737
 2265TIP3    H228211   1.553   4.861   0.039  0.2866 -0.2305  0.0202
 2266TIP3   OH228212   4.204   4.085  13.027  0.1118 -0.2708  0.8750
 2266TIP3    H128213   4.135   4.062  13.090 -2.3449  0.5834 -1.3380
 2266TIP3    H228214   4.199   4.181  13.022 -1.0858 -0.4055 -1.9242
 2267TIP3   OH228215   1.752   5.122  16.172 -0.1800  0.5056 -0.2838
 2267TIP3    H128216   1.805   5.057  16.218 -0.5979  0.2011 -0.2261
 2267TIP3    H228217   1.717   5.074  16.096  0.6579  1.0486 -1.0296
 2268TIP3   OH228218   5.356   2.503  13.750 -0.3231  0.4952  0.0497
 2268TIP3    H128219   5.446   2.529  13.731 -1.1447  1.8159 -2.4368
 2268TIP3    H228220   5.363   2.413  13.781  1.8873  0.7580  0.4642
 2269TIP3   OH228221   0.996   5.840   3.637 -0.6201  0.5755 -0.2221
 2269TIP3    H128222   0.922   5.898   3.654 -0.9036  0.3532 -0.6716
 2269TIP3    H228223   0.987   5.769   3.701 -0.4174  0.8835  0.1578
 2270TIP3   OH228224   5.334   0.842   3.139  0.6301  0.3840  0.4702
 2270TIP3    H128225   5.247   0.875   3.116  1.1916  1.6485  0.0379
 2270TIP3    H228226   5.319   0.783   3.212 -0.5500  0.9613  0.7190
 2271TIP3   OH228227   3.775   1.790   3.892 -0.4834  0.2989  0.0342
 2271TIP3    H128228   3.758   1.875   3.853 -2.4977 -0.3297 -0.5717
 2271TIP3    H228229   3.867   1.794   3.919  0.0281  1.9551 -1.7304
 2272TIP3   OH228230   3.922   2.089  11.169  0.7104 -0.0210  0.0671
 2272TIP3    H128231   3.854   2.058  11.110  0.4496 -0.2438  0.4777
 2272TIP3    H228232   3.878   2.096  11.254  0.8998  0.9461  0.0980
 2273TIP3   OH228233   2.625   4.322   5.780  0.0709 -0.2950 -0.0207
 2273TIP3    H128234   2.557   4.334   5.847 -0.7962 -1.4068 -0.6709
 2273TIP3    H228235   2.619   4.400   5.726  0.4781  0.4075  0.9177
 2274TIP3   OH228236   4.795   6.765   3.173 -0.1841 -0.7538  0.0275
 2274TIP3    H128237   4.854   6.724   3.109  1.7451 -0.8376  1.7603
 2274TIP3    H228238   4.797   6.858   3.151  0.3554 -0.8017 -0.1509
 2275TIP3   OH228239   4.627   5.264   0.763 -0.1427 -0.0813  0.0218
 2275TIP3    H128240   4.631   5.271   0.668  1.5903 -1.9414 -0.1142
 2275TIP3    H228241   4.575   5.339   0.791 -0.7770  0.4498 -2.3826
 2276TIP3   OH228242   4.742   5.746  15.934  0.1285  0.2205  0.0012
 2276TIP3    H128243   4.675   5.706  15.990  1.4365 -1.4115  0.5017
 2276TIP3    H228244   4.693   5.797  15.869 -1.5049  0.4369  1.3452
 2277TIP3   OH228245   4.054   5.996   2.609  0.2146  0.5604 -0.4895
 2277TIP3    H128246   4.084   5.937   2.678 -0.8761 -1.1279 -1.4023
 2277TIP3    H228247   4.131   6.005   2.551 -0.0518 -1.2951 -1.1926
 2278TIP3   OH228248   6.303   1.314  12.129 -0.2510  0.0733 -0.0074
 2278TIP3    H128249   6.384   1.275  12.095  0.5785  1.7728 -0.0396
 2278TIP3    H228250   6.236   1.250  12.106  0.6637 -0.1562 -2.4288
 2279TIP3   OH228251   2.872   2.228  12.360 -0.5096  0.1823 -0.5008
 2279TIP3    H128252   2.959   2.212  12.324 -0.3583  1.0195 -0.5366
 2279TIP3    H228253   2.819   2.155  12.328  0.5241 -1.1957  0.7999
 2280TIP3   OH228254   3.702   2.818  13.435  0.1446 -0.7121 -0.0322
 2280TIP3    H128255   3.714   2.857  13.348 -0.4810 -1.3120 -0.3909
 2280TIP3    H228256   3.648   2.741  13.420 -1.5156  0.1718  1.1135
 2281TIP3   OH228257   6.097   3.387   2.061 -0.4901 -0.2893 -0.5984
 2281TIP3    H128258   6.122   3.446   1.990  0.9953 -0.9651 -0.6679
 2281TIP3    H228259   6.021   3.429   2.101  1.2671  2.3849  0.1728
 2282TIP3   OH228260   3.945   6.237  10.800 -0.0965  0.3885 -0.4565
 2282TIP3    H128261   3.974   6.317  10.756 -0.1547 -0.0501 -1.3243
 2282TIP3    H228262   4.003   6.168  10.766 -1.0913 -0.2168 -0.9793
 2283TIP3   OH228263   2.706   5.528   0.659 -0.0891  0.0585  0.5178
 2283TIP3    H128264   2.709   5.621   0.638 -0.9298 -0.0250  0.0165
 2283TIP3    H228265   2.673   5.524   0.749 -2.9923  0.1477 -0.4518
 2284TIP3   OH228266   0.929   4.424  11.189 -0.5782  0.5575  0.0374
 2284TIP3    H128267   0.930   4.394  11.099 -1.6130  1.0803 -0.1620
 2284TIP3    H228268   0.944   4.518  11.184  4.8337  0.0750  0.7718
 2285TIP3   OH228269   2.861   0.296  12.772 -0.2818  0.1168  0.3537
 2285TIP3    H128270   2.908   0.262  12.696 -1.5438  0.3977 -0.5938
 2285TIP3    H228271   2.773   0.258  12.765 -0.7275  0.9601  1.1067
 2286TIP3   OH228272   2.500   1.189   4.481  0.7407 -0.2131  0.1234
 2286TIP3    H128273   2.586   1.148   4.482  0.5204 -0.7190 -0.8645
 2286TIP3    H228274   2.481   1.207   4.573  1.4332 -1.0764  0.4458
 2287TIP3   OH228275   4.725   1.093   3.471 -0.3435  0.7168  0.2095
 2287TIP3    H128276   4.763   1.070   3.387  0.1065 -0.1476  0.6266
 2287TIP3    H228277   4.800   1.113   3.527 -0.7015  2.8329 -0.0004
 2288TIP3   OH228278   4.788   4.966   4.607 -0.3064  0.9886  0.2151
 2288TIP3    H128279   4.844   4.928   4.675 -0.2908 -0.3973 -0.5368
 2288TIP3    H228280   4.806   5.060   4.612  1.6419  0.6577  0.4073
 2289TIP3   OH228281   4.296   5.792   0.187  0.1488 -0.3952  0.2362
 2289TIP3    H128282   4.223   5.730   0.186  0.0003 -0.2441  1.1491
 2289TIP3    H228283   4.254   5.878   0.181  0.1412 -0.2331  2.2090
 2290TIP3   OH228284   0.034   0.321  11.870  0.4793 -0.2026 -0.2128
 2290TIP3    H128285   0.006   0.376  11.796  4.3362 -0.5376 -2.1890
 2290TIP3    H228286  -0.018   0.242  11.862 -0.4155  0.4741 -1.4976
 2291TIP3   OH228287   1.940   3.426   5.479 -0.2986 -0.0377 -0.0039
 2291TIP3    H128288   1.931   3.442   5.385  0.6735 -2.3646 -0.5591
 2291TIP3    H228289   1.852   3.436   5.514 -0.6285  1.1326 -1.0997
 2292TIP3   OH228290   0.049   6.178   0.623  0.4298 -0.1945 -0.4297
 2292TIP3    H128291   0.064   6.269   0.597  2.3908 -1.1331 -3.0579
 2292TIP3    H228292   0.025   6.133   0.542 -0.6286 -2.0086  0.8256
 2293TIP3   OH228293   4.179   2.782   5.660 -0.1287 -0.4248 -0.4252
 2293TIP3    H128294   4.129   2.863   5.666 -0.5156 -0.7204  0.4638
 2293TIP3    H228295   4.217   2.771   5.747 -0.1745 -1.2678 -0.5076
 2294TIP3   OH228296   4.145   0.354   0.690  0.5115  0.0054  0.2592
 2294TIP3    H128297   4.199   0.294   0.639 -0.1764 -1.3691  1.0853
 2294TIP3    H228298   4.106   0.412   0.624 -1.0526 -2.2779 -0.9710
 2295TIP3   OH228299   6.453   4.294  11.362  1.0983  0.1012 -0.0465
 2295TIP3    H128300   6.482   4.206  11.387 -0.4932 -0.1143  1.1848
 2295TIP3    H228301   6.358   4.293  11.377  1.0425  2.0134 -0.0628
 2296TIP3   OH228302   4.155   4.749  14.619 -0.2297 -0.0991 -0.0230
 2296TIP3    H128303   4.211   4.757  14.542 -3.4647  0.7887 -2.5260
 2296TIP3    H228304   4.195   4.806  14.684  1.1903  1.3460 -2.0468
 2297TIP3   OH228305   0.420   3.163   4.211  0.7046 -0.3317 -0.3059
 2297TIP3    H128306   0.387   3.227   4.275 -0.9271 -0.5298 -0.9064
 2297TIP3    H228307   0.513   3.184   4.202  0.8649  0.0507  1.7192
 2298TIP3   OH228308   2.622   0.682   2.486 -0.1833  0.3291  0.2608
 2298TIP3    H128309   2.673   0.689   2.567 -0.6077  0.3343  0.5358
 2298TIP3    H228310   2.542   0.731   2.505 -1.1800 -1.3307  0.5636
 2299TIP3   OH228311   1.617   5.757   4.363 -0.1553  0.2275 -0.5402
 2299TIP3    H128312   1.618   5.817   4.289 -2.6458 -1.1057 -1.7586
 2299TIP3    H228313   1.654   5.676   4.329  2.0786  0.6085  0.7714
 2300TIP3   OH228314   2.958   1.888  12.587 -0.3906 -0.3152 -0.2239
 2300TIP3    H128315   2.942   1.824  12.518  1.0221  1.1328 -1.9833
 2300TIP3    H228316   2.877   1.888  12.638 -1.1837 -1.9997 -1.3842
 2301TIP3   OH228317   5.639   1.567  10.812  0.0809 -0.2468  0.3467
 2301TIP3    H128318   5.553   1.574  10.771  0.4763  0.8808 -0.3565
 2301TIP3    H228319   5.660   1.656  10.840  1.4094 -0.2885 -0.3798
 2302TIP3   OH228320   2.986   0.544  16.084  0.4222 -0.2870 -0.1740
 2302TIP3    H128321   2.941   0.617  16.043  0.9384 -0.5497 -1.2422
 2302TIP3    H228322   2.929   0.468  16.066  0.9957 -0.5285 -1.0804
 2303TIP3   OH228323   3.667   6.361   0.577 -0.0461 -0.5531  0.1770
 2303TIP3    H128324   3.711   6.276   0.584 -1.3579 -1.1380  2.8317
 2303TIP3    H228325   3.575   6.342   0.595 -0.9295  1.0684 -2.2187
 2304TIP3   OH228326   3.834   3.430   1.112  0.1253 -0.1933  0.1044
 2304TIP3    H128327   3.857   3.381   1.033  0.7926  0.2274  0.0294
 2304TIP3    H228328   3.849   3.521   1.088  1.7289 -0.1552  1.1672
 2305TIP3   OH228329   1.070   1.829  11.683 -0.1577 -0.0372 -0.0519
 2305TIP3    H128330   1.077   1.743  11.641 -0.3118  0.5699 -1.3730
 2305TIP3    H228331   0.999   1.819  11.747  1.4197 -1.5474  1.5579
 2306TIP3   OH228332   4.355   4.468   1.922  0.0288  0.2665  0.2683
 2306TIP3    H128333   4.371   4.375   1.906 -0.8390  0.2716 -0.7283
 2306TIP3    H228334   4.365   4.478   2.017 -1.4625 -1.1852  0.6372
 2307TIP3   OH228335   5.818   1.851   4.177 -0.4517 -0.5251  0.5789
 2307TIP3    H128336   5.726   1.838   4.198 -0.5720 -0.3078  0.1862
 2307TIP3    H228337   5.833   1.945   4.193 -0.9149 -0.0100 -1.6664
 2308TIP3   OH228338   2.829   1.136  11.692 -0.0058 -0.5624 -0.0061
 2308TIP3    H128339   2.859   1.168  11.778  1.4679  1.0667 -1.0588
 2308TIP3    H228340   2.847   1.042  11.695 -1.5468 -0.8638  2.0564
 2309TIP3   OH228341   1.178   2.623  11.006 -0.2289  0.0044  0.3917
 2309TIP3    H128342   1.211   2.668  10.929  0.7074 -0.4634  0.5094
 2309TIP3    H228343   1.159   2.693  11.069 -0.5492  0.3510 -0.0876
 2310TIP3   OH228344   6.701   3.183  16.363 -0.7547 -0.1661  0.6381
 2310TIP3    H128345   6.738   3.270  16.344 -0.1954 -0.4224  0.5199
 2310TIP3    H228346   6.671   3.151  16.278  0.0906 -0.5574  0.4707
 2311TIP3   OH228347   5.936   2.544  16.850  0.0052 -0.5006  0.1879
 2311TIP3    H128348   5.935   2.559  16.756  0.8384  1.0816  0.3989
 2311TIP3    H228349   5.849   2.573  16.880  0.1031 -0.0435  0.0331
 2312TIP3   OH228350   0.209   0.262  15.410 -0.0410  0.2840 -0.2023
 2312TIP3    H128351   0.284   0.261  15.351 -0.1760  0.5227 -0.3828
 2312TIP3    H228352   0.160   0.341  15.385  0.3459  0.8624  0.7878
 2313TIP3   OH228353   2.087   2.040  11.593 -0.2660  0.6657 -0.3618
 2313TIP3    H128354   2.150   2.016  11.662 -1.2700 -0.9074  0.0483
 2313TIP3    H228355   2.126   2.006  11.513  0.5352  1.8245 -0.4917
 2314TIP3   OH228356   5.738   1.427  16.562  0.1026 -0.2325  0.0906
 2314TIP3    H128357   5.679   1.406  16.490  1.5255 -2.1790 -0.5816
 2314TIP3    H228358   5.766   1.517  16.544  0.2631 -0.6039 -1.7040
 2315TIP3   OH228359   1.695   4.126   4.552  0.1769 -0.2538  0.2605
 2315TIP3    H128360   1.664   4.099   4.465 -2.3482  0.8785  0.7002
 2315TIP3    H228361   1.787   4.147   4.540 -0.2922  0.6315 -2.3581
 2316TIP3   OH228362   3.372   5.195   5.687  1.0693  0.0866 -0.0551
 2316TIP3    H128363   3.356   5.284   5.717 -2.3746  0.0552 -1.3010
 2316TIP3    H228364   3.314   5.184   5.611 -1.2725 -4.1274  1.9461
 2317TIP3   OH228365   6.757   5.096  17.013  0.4796  0.1333  0.4257
 2317TIP3    H128366   6.795   5.019  16.971 -0.3906 -0.3868  0.5512
 2317TIP3    H228367   6.670   5.104  16.973  0.3074  0.6479  0.8941
 2318TIP3   OH228368   4.591   1.729  11.079 -0.2613 -0.1433 -0.4475
 2318TIP3    H128369   4.686   1.737  11.069 -0.1264  0.3162  0.9526
 2318TIP3    H228370   4.565   1.811  11.121 -1.1230 -0.6928  0.1178
 2319TIP3   OH228371   2.694   5.520  10.368  0.2382  0.2356  0.6784
 2319TIP3    H128372   2.673   5.448  10.427 -0.7849 -0.3561 -0.3443
 2319TIP3    H228373   2.623   5.519  10.303  1.1576  1.0257 -0.3873
 2320TIP3   OH228374   0.109   4.480  14.801  0.1700 -0.8129  0.0517
 2320TIP3    H128375   0.081   4.527  14.879 -0.7915 -0.4630 -0.4865
 2320TIP3    H228376   0.092   4.540  14.729  0.7590 -1.2462 -0.4618
 2321TIP3   OH228377   2.597   5.449   0.884 -0.2773  0.2954 -0.4424
 2321TIP3    H128378   2.518   5.398   0.866 -1.0109  1.1526  0.2655
 2321TIP3    H228379   2.624   5.421   0.972  0.7273 -0.6370 -1.0311
 2322TIP3   OH228380   1.256   2.156  12.599 -0.0214 -0.8012  0.4248
 2322TIP3    H128381   1.348   2.132  12.597  0.5425  1.1925  0.7617
 2322TIP3    H228382   1.236   2.183  12.509  0.5560  1.4967  0.9172
 2323TIP3   OH228383   3.720   1.926   1.014  0.0584 -0.3121  0.6369
 2323TIP3    H128384   3.665   1.985   1.066 -0.5288 -1.5929  1.5050
 2323TIP3    H228385   3.744   1.978   0.937 -1.0971  0.7948  0.9844
 2324TIP3   OH228386   5.396   6.182   0.905 -0.4422 -0.0749  0.1103
 2324TIP3    H128387   5.318   6.234   0.887 -0.8190 -0.6687  0.0067
 2324TIP3    H228388   5.439   6.227   0.978  0.4448  1.6566 -1.3917
 2325TIP3   OH228389   3.625   2.482   0.067 -0.3489  0.5862  0.2032
 2325TIP3    H128390   3.718   2.490   0.045 -0.0139 -1.9074  0.3760
 2325TIP3    H228391   3.583   2.457  -0.015 -0.8686  1.4976  0.1769
 2326TIP3   OH228392   5.097   5.211  14.424 -0.6723  0.0565  0.3720
 2326TIP3    H128393   5.060   5.212  14.336  0.9277 -1.2876 -0.3702
 2326TIP3    H228394   5.064   5.129  14.462 -1.0869  0.4698  0.9199
 2327TIP3   OH228395   2.210   2.961  13.898  0.4978  0.2498 -0.5672
 2327TIP3    H128396   2.216   2.895  13.967 -0.7129  1.5379  0.8617
 2327TIP3    H228397   2.274   3.027  13.922 -1.0705  1.5217  0.3430
 2328TIP3   OH228398   2.974   3.339  10.767 -0.7496  0.2134 -0.3021
 2328TIP3    H128399   3.062   3.312  10.739 -0.0924 -1.3012  2.7973
 2328TIP3    H228400   2.984   3.432  10.788  1.0139 -0.5111  2.6621
 2329TIP3   OH228401   0.009   3.633   3.497  0.0201 -0.3416  0.1587
 2329TIP3    H128402   0.049   3.607   3.580  2.1664 -2.3354 -1.3727
 2329TIP3    H228403  -0.071   3.580   3.493  0.6161 -1.2939  0.3655
 2330TIP3   OH228404   3.273   2.175  13.747  0.0803  0.0861 -0.2797
 2330TIP3    H128405   3.363   2.181  13.715  0.5386  0.9621  1.0646
 2330TIP3    H228406   3.228   2.249  13.705 -0.2715 -0.8531 -1.6263
 2331TIP3   OH228407   4.417   4.887   3.746 -0.0355  0.4242  0.0464
 2331TIP3    H128408   4.418   4.955   3.678  1.5511  0.3838 -0.0015
 2331TIP3    H228409   4.379   4.931   3.822 -0.1256  1.0183 -0.3320
 2332TIP3   OH228410   4.188   0.263  16.914  0.0374  0.0212  0.3779
 2332TIP3    H128411   4.141   0.221  16.987 -1.3539 -1.1525 -1.1245
 2332TIP3    H228412   4.161   0.213  16.837 -0.3631  2.6699 -1.2978
 2333TIP3   OH228413   3.837   0.992  14.405  0.0980 -0.6157 -0.2985
 2333TIP3    H128414   3.858   1.038  14.324  0.4805 -1.5938 -0.7729
 2333TIP3    H228415   3.742   0.995  14.411 -0.0065 -1.3552 -1.2941
 2334TIP3   OH228416   6.022   1.707   0.319 -0.0379 -0.4844 -0.2841
 2334TIP3    H128417   5.985   1.796   0.314  1.8821  0.2908 -3.9334
 2334TIP3    H228418   5.958   1.652   0.274 -0.7635 -0.8691  1.1368
 2335TIP3   OH228419   3.532   5.075   4.162 -0.5534  0.0797 -0.4803
 2335TIP3    H128420   3.603   5.106   4.105 -0.7728  2.7930  0.5880
 2335TIP3    H228421   3.464   5.142   4.154 -2.8615 -2.1900 -1.0829
 2336TIP3   OH228422   5.231   1.394  12.541  0.0636  0.1725 -0.2727
 2336TIP3    H128423   5.313   1.344  12.552  1.2024  1.9274 -0.4232
 2336TIP3    H228424   5.258   1.474  12.496 -1.6534  1.0648  0.2174
 2337TIP3   OH228425   3.528   1.377  15.138  0.2597  0.7278 -0.3052
 2337TIP3    H128426   3.619   1.407  15.134 -0.1780  1.9733 -1.5257
 2337TIP3    H228427   3.531   1.288  15.103  1.3872 -0.3279  2.1937
 2338TIP3   OH228428   4.329   2.865   2.221  0.1937  0.5438  0.1527
 2338TIP3    H128429   4.265   2.839   2.288 -1.2642  1.3207 -0.8849
 2338TIP3    H228430   4.352   2.955   2.243 -1.2246  1.2344 -1.0321
 2339TIP3   OH228431   2.213   2.006   5.930 -0.1311  0.1425  0.0796
 2339TIP3    H128432   2.269   2.082   5.942 -0.0754  0.3409 -1.3079
 2339TIP3    H228433   2.190   1.978   6.019  1.9273  0.2233  0.6762
 2340TIP3   OH228434   0.043   0.705  14.595  0.1409  0.1947 -0.3361
 2340TIP3    H128435  -0.001   0.621  14.589  0.8213 -0.1279 -1.0797
 2340TIP3    H228436  -0.006   0.762  14.536  0.8148 -0.2207 -1.3243
 2341TIP3   OH228437   5.049   0.401  14.108  0.1042  0.0025  0.2185
 2341TIP3    H128438   5.099   0.456  14.169  1.7045  0.3693 -1.3285
 2341TIP3    H228439   5.106   0.326  14.093  0.0338  0.2306 -1.2923
 2342TIP3   OH228440   4.785   6.352  10.474  0.3952 -0.2585 -0.1762
 2342TIP3    H128441   4.691   6.330  10.469  0.7024 -1.2609 -3.0546
 2342TIP3    H228442   4.815   6.303  10.551 -1.2104 -0.9183  0.0974
 2343TIP3   OH228443   5.891   0.974   4.628 -0.1294 -0.1542  0.0570
 2343TIP3    H128444   5.866   1.048   4.683  2.6720  0.5242  0.5510
 2343TIP3    H228445   5.818   0.964   4.567 -1.4058  1.8187  1.1503
 2344TIP3   OH228446   0.803   4.699  12.617 -0.2016 -0.3383  0.1083
 2344TIP3    H128447   0.718   4.671  12.582  0.1819 -1.0723 -0.2506
 2344TIP3    H228448   0.864   4.686  12.545 -0.1967  2.7865 -0.6054
 2345TIP3   OH228449   3.783   0.836   3.783 -0.8999 -0.3291  0.0239
 2345TIP3    H128450   3.758   0.756   3.736  0.0243 -0.7295  0.2121
 2345TIP3    H228451   3.819   0.806   3.866  0.7447  0.1856 -0.4608
 2346TIP3   OH228452   6.741   4.865  11.474  0.1170  0.2981  0.1836
 2346TIP3    H128453   6.712   4.955  11.487  0.5218  1.0721 -3.3277
 2346TIP3    H228454   6.674   4.825  11.419  1.7228 -0.3075 -1.4550
 2347TIP3   OH228455   2.057   4.322   3.264  0.3561 -0.2442 -0.6121
 2347TIP3    H128456   2.061   4.237   3.308  2.0339 -0.1314 -0.4677
 2347TIP3    H228457   2.093   4.384   3.328  1.4148  0.1642 -1.5605
 2348TIP3   OH228458   5.680   5.282  12.684 -0.5186 -0.2223  0.1356
 2348TIP3    H128459   5.629   5.362  12.676 -1.2949 -0.6736  0.4660
 2348TIP3    H228460   5.736   5.281  12.607 -0.3280  0.7528  0.2467
 2349TIP3   OH228461   2.503   3.425  16.221 -0.0540  0.7135 -0.7281
 2349TIP3    H128462   2.562   3.385  16.285 -0.4593 -1.3809 -1.5842
 2349TIP3    H228463   2.561   3.461  16.154  0.3050  0.8422 -0.3544
 2350TIP3   OH228464   0.657   3.892  16.791 -0.0564 -0.0100 -0.4025
 2350TIP3    H128465   0.606   3.823  16.832 -0.9302 -0.4472 -2.1204
 2350TIP3    H228466   0.604   3.971  16.804 -0.1951 -0.0966 -0.4317
 2351TIP3   OH228467   3.326   6.669   4.612  0.3181 -0.5048 -0.3251
 2351TIP3    H128468   3.289   6.756   4.625  2.1707  0.4606 -1.2364
 2351TIP3    H228469   3.361   6.645   4.698 -0.6120 -0.5875  0.0461
 2352TIP3   OH228470   6.513   4.320  14.400  0.3418  0.6913 -0.1514
 2352TIP3    H128471   6.601   4.340  14.433  0.7573  0.0005 -0.8087
 2352TIP3    H228472   6.520   4.231  14.365 -0.6435  0.5974 -0.1402
 2353TIP3   OH228473   5.671   5.711  12.986  0.2389  0.6109 -0.2122
 2353TIP3    H128474   5.611   5.728  12.913  0.3427  2.4647  0.1028
 2353TIP3    H228475   5.711   5.627  12.964 -1.8774 -0.3184 -0.8212
 2354TIP3   OH228476   0.615   6.798  13.044  0.4637 -0.4073  0.2009
 2354TIP3    H128477   0.538   6.744  13.027  1.0359 -1.6834  1.5462
 2354TIP3    H228478   0.579   6.885  13.063 -0.5437 -0.6347 -0.5526
 2355TIP3   OH228479   6.146   0.555  15.267  0.1329 -0.3214 -0.0683
 2355TIP3    H128480   6.056   0.556  15.300  0.2823  2.0179  0.4631
 2355TIP3    H228481   6.195   0.504  15.333 -0.4918 -0.0909  0.5836
 2356TIP3   OH228482   3.332   6.447   2.379  1.0722  0.3382 -0.1776
 2356TIP3    H128483   3.364   6.408   2.459 -0.4026 -2.7672 -0.9721
 2356TIP3    H228484   3.269   6.384   2.344  1.0277  1.9277 -3.3519
 2357TIP3   OH228485   2.841   3.168   0.351  0.6743 -0.0563 -0.2121
 2357TIP3    H128486   2.808   3.226   0.283 -0.7895 -0.7138 -0.1048
 2357TIP3    H228487   2.827   3.080   0.317  1.4483 -0.3665  0.2547
 2358TIP3   OH228488   1.285   3.333  13.077  0.2618  0.2671 -0.3824
 2358TIP3    H128489   1.327   3.387  13.143 -1.3294  0.9610  0.0919
 2358TIP3    H228490   1.351   3.266  13.056  1.7659  1.5631 -0.0216
 2359TIP3   OH228491   6.400   3.332  16.395  0.3010 -0.3092  0.3799
 2359TIP3    H128492   6.466   3.263  16.391 -0.4241 -1.2800  2.9171
 2359TIP3    H228493   6.428   3.388  16.468 -2.1224 -1.3714  2.2845
 2360TIP3   OH228494   6.703   4.509  15.594  0.0424 -0.5086  0.0004
 2360TIP3    H128495   6.714   4.435  15.654 -1.0716  0.9681  2.1625
 2360TIP3    H228496   6.611   4.508  15.571 -0.2203  0.7757  0.8978
 2361TIP3   OH228497   5.457   1.739  13.302 -0.6282 -0.0265  0.3104
 2361TIP3    H128498   5.417   1.695  13.377  1.4834  1.5446  2.5053
 2361TIP3    H228499   5.419   1.827  13.303  1.2442  0.8409  1.2228
 2362TIP3   OH228500   1.718   2.238   2.590  0.8488 -0.3871 -0.1895
 2362TIP3    H128501   1.644   2.225   2.531  1.3211  2.5924 -1.6212
 2362TIP3    H228502   1.788   2.186   2.552  0.8146  0.5791 -1.6336
 2363TIP3   OH228503   2.491   2.227  11.193 -0.3912  0.2823 -0.0850
 2363TIP3    H128504   2.489   2.294  11.125 -1.6191 -0.0873 -0.4342
 2363TIP3    H228505   2.546   2.158  11.156  0.3616  0.8046  0.0205
 2364TIP3   OH228506   6.801   6.025  14.493 -0.5984 -0.0346  0.2759
 2364TIP3    H128507   6.710   5.994  14.491 -1.2723  1.8485 -1.3154
 2364TIP3    H228508   6.819   6.054  14.404 -0.0273  3.8362  1.4575
 2365TIP3   OH228509   5.861   1.110  15.473 -0.0733 -0.0858  0.5071
 2365TIP3    H128510   5.840   1.040  15.535 -0.2368  0.3110  0.8967
 2365TIP3    H228511   5.798   1.098  15.402  0.7685 -1.1778 -0.0935
 2366TIP3   OH228512   5.417   2.478  16.995 -0.0135 -0.1091 -0.5017
 2366TIP3    H128513   5.496   2.456  16.946 -0.0106  0.0217 -0.5551
 2366TIP3    H228514   5.377   2.394  17.014  0.4172 -0.2090 -0.0059
 2367TIP3   OH228515   0.319   2.131   4.558 -0.0545  0.2198 -0.2696
 2367TIP3    H128516   0.288   2.222   4.557  0.6162  0.4512 -1.0354
 2367TIP3    H228517   0.392   2.130   4.497  0.7697 -0.5587  0.7027
 2368TIP3   OH228518   1.666   5.762   0.467  0.3651 -0.0072 -0.2170
 2368TIP3    H128519   1.730   5.768   0.396 -0.4328  1.7698 -0.8566
 2368TIP3    H228520   1.658   5.668   0.484  0.2206 -0.5648 -2.8461
 2369TIP3   OH228521   4.649   0.283  14.908 -0.1180 -0.2868  0.3897
 2369TIP3    H128522   4.591   0.355  14.931 -1.3528 -1.1394  0.0230
 2369TIP3    H228523   4.636   0.270  14.814 -0.5091 -1.4990  0.5973
 2370TIP3   OH228524   1.206   6.656   1.328 -0.4649  0.1939  0.0528
 2370TIP3    H128525   1.151   6.634   1.253  0.2265 -2.0319  0.1455
 2370TIP3    H228526   1.217   6.574   1.375  1.4480  0.9661  1.0465
 2371TIP3   OH228527   2.245   4.666   3.095  0.2975  0.1274  0.2880
 2371TIP3    H128528   2.153   4.684   3.114 -0.2563 -0.9785 -1.1412
 2371TIP3    H228529   2.245   4.634   3.005  2.0802  0.0247  0.2925
 2372TIP3   OH228530   0.609   0.190  15.456  0.4603 -0.8442  0.7069
 2372TIP3    H128531   0.626   0.284  15.463  1.5631 -1.0016  0.3454
 2372TIP3    H228532   0.528   0.183  15.406  0.5464 -0.0893  0.4541
 2373TIP3   OH228533   4.312   4.799   4.125 -0.1151  0.7064  0.5994
 2373TIP3    H128534   4.272   4.867   4.072  0.3993  0.2595 -0.3878
 2373TIP3    H228535   4.387   4.769   4.074 -0.6526 -0.9906  0.7357
 2374TIP3   OH228536   3.498   1.245  10.704 -0.3378  0.3840 -0.4049
 2374TIP3    H128537   3.538   1.169  10.747 -0.0313  0.7511 -0.0433
 2374TIP3    H228538   3.572   1.304  10.687 -0.2682 -0.2157 -2.4248
 2375TIP3   OH228539   4.171   4.157  15.619 -0.3513  0.3338 -0.2589
 2375TIP3    H128540   4.109   4.117  15.558 -0.9048  0.7780  0.0086
 2375TIP3    H228541   4.211   4.229  15.570 -1.0344  0.8975  0.0008
 2376TIP3   OH228542   4.057   6.237  13.381  0.0256  0.0003 -0.5218
 2376TIP3    H128543   4.132   6.182  13.403  0.4370  0.0261 -1.7664
 2376TIP3    H228544   4.036   6.214  13.291 -1.0783  0.4486 -0.3963
 2377TIP3   OH228545   0.991   4.524   5.098 -0.4616 -0.0195 -0.2185
 2377TIP3    H128546   0.910   4.490   5.061 -0.4073 -2.9311  1.9189
 2377TIP3    H228547   0.966   4.551   5.187  0.3963  1.8162 -0.4968
 2378TIP3   OH228548   0.795   1.624   0.236 -0.0012  0.2901 -0.6090
 2378TIP3    H128549   0.702   1.614   0.216 -0.4408 -0.0017  1.3779
 2378TIP3    H228550   0.826   1.535   0.250  0.9502  0.2575 -2.5651
 2379TIP3   OH228551   3.050   0.521  13.869 -0.1995 -0.2636 -0.0505
 2379TIP3    H128552   3.138   0.541  13.900 -0.6813 -0.8904  1.9022
 2379TIP3    H228553   3.053   0.428  13.846 -0.7405 -0.7701  1.7408
 2380TIP3   OH228554   2.188   3.887   3.996 -0.2972  0.1267 -0.0736
 2380TIP3    H128555   2.114   3.841   4.035 -1.6019  2.4811  0.3911
 2380TIP3    H228556   2.226   3.939   4.067 -1.3693  2.8008 -1.2993
 2381TIP3   OH228557   1.050   2.202   0.518 -0.3435 -0.3732 -0.2637
 2381TIP3    H128558   0.987   2.193   0.589  1.0261  1.2039  1.2702
 2381TIP3    H228559   1.046   2.119   0.471 -1.0403 -1.6495  1.9061
 2382TIP3   OH228560   4.715   2.283  15.447 -0.2212  0.2477  0.3318
 2382TIP3    H128561   4.763   2.201  15.439 -0.6671 -0.0411  0.5767
 2382TIP3    H228562   4.781   2.347  15.474  0.0875 -0.0721  0.3433
 2383TIP3   OH228563   2.824   5.281   2.048  0.3230  0.4888 -0.0086
 2383TIP3    H128564   2.817   5.194   2.011 -2.9569  1.4436 -2.0451
 2383TIP3    H228565   2.794   5.272   2.138 -0.0758 -0.4493 -0.2328
 2384TIP3   OH228566   5.862   5.186  12.848 -0.1861  0.5524  0.2451
 2384TIP3    H128567   5.790   5.223  12.797 -1.0363  0.2535  1.1884
 2384TIP3    H228568   5.912   5.262  12.879 -1.9899  1.0209  2.2810
 2385TIP3   OH228569   5.335   2.636   0.880 -0.6334 -0.0622 -0.2265
 2385TIP3    H128570   5.382   2.612   0.960 -1.7520 -0.6442  0.2874
 2385TIP3    H228571   5.292   2.556   0.852 -1.5644  0.5007 -0.4852
 2386TIP3   OH228572   1.190   0.852  13.264  0.0307  0.2017 -0.6978
 2386TIP3    H128573   1.267   0.811  13.304 -1.1225 -0.0839  1.4166
 2386TIP3    H228574   1.159   0.789  13.199  0.2456 -0.7612  0.1148
 2387TIP3   OH228575   4.122   5.263   3.246  0.5810 -0.0323  0.8449
 2387TIP3    H128576   4.196   5.313   3.281  0.3339  0.0837  1.2220
 2387TIP3    H228577   4.090   5.213   3.322 -1.7415  2.3644  1.5974
 2388TIP3   OH228578   5.089   6.742   2.712 -1.1387  0.3810  0.1547
 2388TIP3    H128579   5.154   6.719   2.646  0.3751  1.6550  1.0907
 2388TIP3    H228580   5.038   6.813   2.672 -1.3808 -0.0248 -0.2644
 2389TIP3   OH228581   0.191   4.261  15.572 -0.0470 -0.0970  0.1994
 2389TIP3    H128582   0.124   4.268  15.639  0.1407  3.9010  0.2119
 2389TIP3    H228583   0.273   4.282  15.617  0.2473  1.3794 -0.9158
 2390TIP3   OH228584   2.568   6.411   0.109 -0.3002  0.1656 -0.3300
 2390TIP3    H128585   2.522   6.493   0.129 -0.5771 -0.2006  0.6014
 2390TIP3    H228586   2.639   6.408   0.173 -0.7612 -0.6960  0.1600
 2391TIP3   OH228587   4.741   2.323  14.365 -0.0877  0.1717 -0.6443
 2391TIP3    H128588   4.718   2.319  14.272  0.8159 -0.9690 -0.8298
 2391TIP3    H228589   4.763   2.233  14.389 -2.7940 -0.0869  1.3432
 2392TIP3   OH228590   0.103   0.983   4.252  0.3628 -0.1214  0.3468
 2392TIP3    H128591   0.029   0.975   4.313 -1.0716 -1.6155 -1.4630
 2392TIP3    H228592   0.102   1.075   4.226 -0.9798 -0.1257  0.2854
 2393TIP3   OH228593   0.621   2.201  12.999 -0.0312  0.1460  0.4882
 2393TIP3    H128594   0.618   2.284  12.952 -2.5722 -0.4059 -0.5277
 2393TIP3    H228595   0.708   2.197  13.038  0.9855  2.1822 -1.4158
 2394TIP3   OH228596   0.888   5.555   0.329  0.0899 -0.9378  0.2921
 2394TIP3    H128597   0.797   5.532   0.310  0.7092 -0.8262 -3.6828
 2394TIP3    H228598   0.895   5.647   0.303  1.1098 -0.5950  1.6661
 2395TIP3   OH228599   4.472   4.852   1.509  0.0723  0.5601  0.1635
 2395TIP3    H128600   4.516   4.774   1.476 -1.8230  0.5390 -2.7412
 2395TIP3    H228601   4.446   4.830   1.598 -1.7536 -2.8215 -1.0161
 2396TIP3   OH228602   0.933   3.780  12.736 -0.7682 -0.4958  0.2403
 2396TIP3    H128603   0.848   3.736  12.742 -0.1055 -2.0442 -1.0308
 2396TIP3    H228604   0.970   3.749  12.653  1.1269 -0.0223  0.8635
 2397TIP3   OH228605   2.047   6.169  12.030 -0.5553 -0.2280 -0.3885
 2397TIP3    H128606   1.989   6.224  12.083  0.7654  1.1107 -0.2560
 2397TIP3    H228607   2.035   6.202  11.941 -2.0096 -1.7950 -0.8163
 2398TIP3   OH228608   0.642   4.584   2.325  0.3758  0.5701  0.5947
 2398TIP3    H128609   0.686   4.499   2.326  0.5701  0.6741  1.5947
 2398TIP3    H228610   0.676   4.627   2.246  0.0398 -0.3896 -0.0913
 2399TIP3   OH228611   5.779   2.761   5.370 -0.1729  0.4872  0.5855
 2399TIP3    H128612   5.801   2.728   5.282 -0.6081 -0.1995  0.7288
 2399TIP3    H228613   5.828   2.844   5.377 -1.7085  1.6203 -1.0945
 2400TIP3   OH228614   0.739   3.276  16.269 -0.1891  0.4842  0.7810
 2400TIP3    H128615   0.721   3.369  16.257  1.6843  0.6309 -1.7142
 2400TIP3    H228616   0.678   3.232  16.209  1.9346  0.4927 -1.5442
 2401TIP3   OH228617   2.857   4.185   0.119 -0.3317 -0.2223 -0.0454
 2401TIP3    H128618   2.868   4.098   0.157  0.1577  0.1622  0.7370
 2401TIP3    H228619   2.917   4.240   0.169 -0.7321  0.5885 -0.4371
 2402TIP3   OH228620   1.064   3.466   2.098 -0.4589 -0.1396  0.6230
 2402TIP3    H128621   1.092   3.519   2.023  2.2959 -1.0316  0.9006
 2402TIP3    H228622   1.014   3.394   2.059 -0.8772  0.5294 -0.1190
 2403TIP3   OH228623   4.324   5.776   2.441 -0.4961 -0.0700  0.3991
 2403TIP3    H128624   4.292   5.829   2.368  0.8743  1.1428  0.6491
 2403TIP3    H228625   4.388   5.717   2.401 -0.3127  0.0568  0.5112
 2404TIP3   OH228626   3.946   4.036  10.426 -0.4079  0.3916 -0.0566
 2404TIP3    H128627   3.966   4.099  10.495  1.2935  2.3957 -2.1900
 2404TIP3    H228628   4.013   3.969  10.435  0.0520  0.8520  0.0174
 2405TIP3   OH228629   5.386   4.016   6.537  0.5033 -0.1031  0.2661
 2405TIP3    H128630   5.464   3.965   6.558  1.2293  1.6104  1.9834
 2405TIP3    H228631   5.417   4.105   6.525 -1.1768  0.6709  1.2057
 2406TIP3   OH228632   5.653   2.666  14.584  0.4538 -0.8209  0.4703
 2406TIP3    H128633   5.692   2.740  14.538 -0.6768 -0.3051  0.2996
 2406TIP3    H228634   5.618   2.610  14.515 -0.6202 -0.3974  0.6416
 2407TIP3   OH228635   4.925   4.599   4.863 -0.3386 -0.4217  0.4014
 2407TIP3    H128636   4.978   4.626   4.938 -0.1824  1.1682 -0.2273
 2407TIP3    H228637   4.836   4.621   4.888 -0.6486 -2.3366  1.1306
 2408TIP3   OH228638   1.440   3.702  12.541 -0.1427  0.0030 -0.3121
 2408TIP3    H128639   1.369   3.763  12.561  2.1726  2.3842  1.2241
 2408TIP3    H228640   1.400   3.616  12.551 -3.0772  1.1856 -0.6746
 2409TIP3   OH228641   5.621   0.702  12.791 -0.1705  0.4648  0.1133
 2409TIP3    H128642   5.699   0.659  12.824  0.1477  0.7470 -0.2583
 2409TIP3    H228643   5.558   0.631  12.777  1.1920 -0.3015 -2.9494
 2410TIP3   OH228644   1.352   0.569   0.554 -0.0928 -0.1555  0.5315
 2410TIP3    H128645   1.417   0.595   0.619 -0.2233  0.6350  0.3592
 2410TIP3    H228646   1.277   0.539   0.605  0.0787 -0.2480  0.7321
 2411TIP3   OH228647   5.278   4.613  14.408 -0.4292  0.0576  0.0182
 2411TIP3    H128648   5.353   4.639  14.462  0.1900  1.2149 -1.3401
 2411TIP3    H228649   5.271   4.681  14.341  0.2946 -2.4316 -2.8111
 2412TIP3   OH228650   5.721   4.483  15.575  0.0548  0.1530 -0.1098
 2412TIP3    H128651   5.725   4.396  15.615  0.4974  0.3036  0.1830
 2412TIP3    H228652   5.658   4.474  15.503 -0.8659 -0.0835  0.7117
 2413TIP3   OH228653   5.198   5.407  15.788  0.1785 -0.3294 -0.0504
 2413TIP3    H128654   5.104   5.394  15.777  0.0940  0.0566  0.2039
 2413TIP3    H228655   5.216   5.492  15.749  0.0211  0.6371  1.8571
 2414TIP3   OH228656   4.648   3.195  13.613 -0.5955  0.0920 -0.1120
 2414TIP3    H128657   4.715   3.209  13.680 -1.5531 -1.2550  1.1863
 2414TIP3    H228658   4.697   3.167  13.536  0.3858 -0.5606  0.7231
 2415TIP3   OH228659   4.974   4.055  15.547 -0.2680  0.5031  0.4792
 2415TIP3    H128660   5.031   3.983  15.574 -0.4097 -0.5329 -1.7622
 2415TIP3    H228661   4.974   4.115  15.622 -0.7629 -2.1450  2.7528
 2416TIP3   OH228662   1.664   3.751   0.773  0.2920 -0.2977 -0.5863
 2416TIP3    H128663   1.655   3.845   0.756  0.3663 -0.1366  0.2332
 2416TIP3    H228664   1.585   3.712   0.735 -1.2591  0.4588  1.6367
 2417TIP3   OH228665   2.755   3.913   0.144  0.1395  0.6008 -0.6336
 2417TIP3    H128666   2.701   3.949   0.074 -0.8384  0.5623  0.0915
 2417TIP3    H228667   2.773   3.823   0.116 -0.8272  0.3639 -0.5174
 2418TIP3   OH228668   5.632   5.034  16.631 -0.0426  0.7278 -0.3648
 2418TIP3    H128669   5.668   5.027  16.719  2.1300 -0.9483 -1.2965
 2418TIP3    H228670   5.545   4.993  16.636  0.6379 -0.6470  0.7168
 2419TIP3   OH228671   0.630   4.157   3.416  0.3748  0.2030  0.0466
 2419TIP3    H128672   0.601   4.170   3.506  0.7535 -1.6108  0.4766
 2419TIP3    H228673   0.550   4.148   3.366  0.1182  2.5557 -0.0844
 2420TIP3   OH228674   0.319   5.109  15.185 -0.1215 -0.1650 -0.1386
 2420TIP3    H128675   0.281   5.151  15.108  0.1712  0.3751  0.0055
 2420TIP3    H228676   0.372   5.177  15.226  0.1953 -0.6197  0.2178
 2421TIP3   OH228677   3.036   6.495   5.170 -0.7791 -0.0008  0.3561
 2421TIP3    H128678   3.002   6.476   5.257 -0.0268  0.0623  0.6717
 2421TIP3    H228679   2.970   6.552   5.130 -0.8241  0.4972  1.1220
 2422TIP3   OH228680   2.190   4.803   4.666 -0.4434  0.9072 -0.2909
 2422TIP3    H128681   2.241   4.844   4.736 -0.2262  0.4152 -0.1557
 2422TIP3    H228682   2.107   4.849   4.668 -0.7632  0.3373  0.8754
 2423TIP3   OH228683   1.410   2.976  13.262 -0.2138 -0.4734  0.2988
 2423TIP3    H128684   1.462   2.966  13.341 -1.4888 -0.0890  1.2091
 2423TIP3    H228685   1.362   3.058  13.274 -0.3228 -0.3252 -0.9448
 2424TIP3   OH228686   5.675   0.008  12.144  0.1936 -0.7932  0.1210
 2424TIP3    H128687   5.654   0.098  12.120 -2.0886 -0.9616  1.2691
 2424TIP3    H228688   5.764   0.013  12.179 -0.1837  1.1833  0.9365
 2425TIP3   OH228689   0.770   4.343   5.646  0.6748 -0.4238  0.3977
 2425TIP3    H128690   0.723   4.366   5.566  1.9683 -1.3002 -0.6452
 2425TIP3    H228691   0.702   4.304   5.702 -0.0961 -0.5124 -0.5643
 2426TIP3   OH228692   5.118   4.095  11.905  0.3693 -0.0086 -0.6768
 2426TIP3    H128693   5.199   4.059  11.870  0.9234  0.5068  0.0309
 2426TIP3    H228694   5.136   4.189  11.914 -0.3392  0.1235 -0.5935
 2427TIP3   OH228695   6.551   2.043   0.520  0.2421  0.3795 -0.3635
 2427TIP3    H128696   6.585   1.989   0.448 -0.9173  0.1696 -0.7799
 2427TIP3    H228697   6.539   1.981   0.592  1.3957  0.5882  0.0286
 2428TIP3   OH228698   3.343   2.348  11.287 -0.6844  0.3010  0.3838
 2428TIP3    H128699   3.322   2.255  11.299  0.0259 -0.2355 -2.0356
 2428TIP3    H228700   3.324   2.365  11.195  0.6694  2.1698  0.4064
 2429TIP3   OH228701   1.918   2.993   1.962  0.0944 -0.5164 -0.0604
 2429TIP3    H128702   1.880   3.078   1.985  1.2889  0.0238  0.0036
 2429TIP3    H228703   1.953   3.005   1.874 -0.3097 -1.1566 -0.3179
 2430TIP3   OH228704   5.909   4.921  14.955  0.1350  0.5864 -0.8890
 2430TIP3    H128705   5.946   4.919  15.043 -1.9356 -0.5726  0.0323
 2430TIP3    H228706   5.979   4.886  14.899  1.7371  2.0134  0.1417
 2431TIP3   OH228707   4.097   6.610   4.693 -0.1873 -0.3167 -0.6489
 2431TIP3    H128708   4.126   6.519   4.686 -1.5754 -0.9046  0.5889
 2431TIP3    H228709   4.178   6.660   4.704  0.4890 -1.7238  1.3466
 2432TIP3   OH228710   5.375   3.759  15.957 -0.6133  0.0896 -0.2925
 2432TIP3    H128711   5.340   3.670  15.944  2.0848 -0.8536 -1.9397
 2432TIP3    H228712   5.454   3.745  16.010  0.2246  1.4288 -1.1596
 2433TIP3   OH228713   2.116   6.623   6.016  0.2455  0.1133  0.2964
 2433TIP3    H128714   2.124   6.686   5.945 -0.7011 -1.1889 -1.0229
 2433TIP3    H228715   2.035   6.577   5.998  0.9859 -1.6003  1.1134
 2434TIP3   OH228716   1.980   4.459   0.613 -0.1395 -0.0488  0.4446
 2434TIP3    H128717   1.967   4.439   0.706 -1.1188 -1.2392  0.0871
 2434TIP3    H228718   2.030   4.541   0.613  2.0871 -1.2920  2.0227
 2435TIP3   OH228719   6.553   4.541  11.467  0.8307 -0.2013 -0.2343
 2435TIP3    H128720   6.513   4.455  11.455  0.8356 -0.1524 -0.6112
 2435TIP3    H228721   6.635   4.523  11.512 -0.1590 -0.1938  1.6901
 2436TIP3   OH228722   2.445   6.445   0.618 -0.4961  0.5110 -0.0430
 2436TIP3    H128723   2.393   6.380   0.666 -1.6074 -0.0365 -1.8745
 2436TIP3    H228724   2.473   6.399   0.539 -0.7002  2.0500 -1.0393
 2437TIP3   OH228725   2.060   6.114  14.847 -0.0081 -0.7446 -0.2836
 2437TIP3    H128726   2.035   6.167  14.772  1.0826  0.1497 -0.0299
 2437TIP3    H228727   2.140   6.069  14.820  0.3569 -0.4667  0.3085
 2438TIP3   OH228728   5.782   0.780   2.353 -0.2088 -0.5593 -0.1504
 2438TIP3    H128729   5.860   0.725   2.352  0.1278 -0.2321  2.1223
 2438TIP3    H228730   5.738   0.759   2.435 -0.1841  2.3157  0.7426
 2439TIP3   OH228731   6.077   3.393   3.981 -0.2991 -0.5832 -0.1037
 2439TIP3    H128732   6.112   3.402   3.892 -1.4803  1.9409 -0.3910
 2439TIP3    H228733   6.120   3.462   4.031 -1.6993 -0.1676  0.5699
 2440TIP3   OH228734   2.138   1.690  16.740  0.1847 -0.0030  0.8330
 2440TIP3    H128735   2.057   1.651  16.708  1.6309 -0.2850 -2.9678
 2440TIP3    H228736   2.120   1.784  16.742 -0.3620 -0.0960  0.4359
 2441TIP3   OH228737   1.750   4.970  14.885 -0.6616  0.2199 -0.1702
 2441TIP3    H128738   1.693   5.001  14.814  0.2934  1.2045 -0.5348
 2441TIP3    H228739   1.716   5.014  14.963 -1.4971 -0.5956 -0.0523
 2442TIP3   OH228740   1.541   2.015  15.532  0.8770  0.3691 -0.5132
 2442TIP3    H128741   1.494   2.084  15.485  0.4226  1.0725  0.9385
 2442TIP3    H228742   1.630   2.017  15.495  0.9035  1.8076 -0.4058
 2443TIP3   OH228743   5.772   3.705  12.424  0.0176 -0.0285 -0.6393
 2443TIP3    H128744   5.832   3.775  12.398  1.1016  0.0900  1.9534
 2443TIP3    H228745   5.716   3.745  12.490 -1.1121 -0.9213 -1.0326
 2444TIP3   OH228746   0.320   0.510   4.512  0.8483  0.0165 -0.4314
 2444TIP3    H128747   0.253   0.476   4.572 -0.0833  1.9920 -0.2600
 2444TIP3    H228748   0.306   0.463   4.430 -0.1974 -0.2028 -0.1395
 2445TIP3   OH228749   5.864   5.008  16.459  0.1813  0.1946  0.3718
 2445TIP3    H128750   5.813   4.952  16.516  0.3369 -0.8344 -0.4612
 2445TIP3    H228751   5.806   5.083  16.440 -1.3396 -1.2658 -1.1102
 2446TIP3   OH228752   4.328   4.390  15.501  0.5164 -0.7162 -0.0446
 2446TIP3    H128753   4.306   4.418  15.590  0.6067  0.0010 -0.2414
 2446TIP3    H228754   4.248   4.408  15.450  0.8847  0.0793 -0.3641
 2447TIP3   OH228755   2.879   1.961  16.893  0.0090  0.4657  0.2706
 2447TIP3    H128756   2.966   1.948  16.856  0.2457 -0.0703  0.9910
 2447TIP3    H228757   2.819   1.944  16.820  0.4583 -0.7010  0.1535
 2448TIP3   OH228758   6.590   0.320   5.867  0.1266  0.2038 -0.1084
 2448TIP3    H128759   6.675   0.363   5.854 -0.0213  1.2633  1.9153
 2448TIP3    H228760   6.567   0.286   5.781  2.0591  0.9010 -0.9735
 2449TIP3   OH228761   2.768   5.593   2.980 -0.2795 -0.1146 -0.1782
 2449TIP3    H128762   2.855   5.555   2.968  0.2537  1.1365 -0.4354
 2449TIP3    H228763   2.769   5.672   2.926 -1.4903  0.0630  0.0309
 2450TIP3   OH228764   3.381   0.935  16.634  0.7626  0.4880 -0.4871
 2450TIP3    H128765   3.335   0.857  16.666  1.3605 -0.0994 -1.0133
 2450TIP3    H228766   3.322   1.008  16.653 -1.3486 -0.4007 -2.9527
 2451TIP3   OH228767   3.306   4.834   0.483 -0.1818  0.3114 -0.4559
 2451TIP3    H128768   3.268   4.797   0.403 -0.2158 -0.8769  0.0804
 2451TIP3    H228769   3.284   4.770   0.551  2.2321 -0.1293 -0.0020
 2452TIP3   OH228770   6.374   2.790   3.703 -0.0123  0.0664  0.1237
 2452TIP3    H128771   6.445   2.738   3.666 -0.1815  0.6183 -1.0331
 2452TIP3    H228772   6.415   2.838   3.775  0.3091 -1.1028  0.7329
 2453TIP3   OH228773   0.085   3.607   5.506 -0.1650  0.2806 -0.3718
 2453TIP3    H128774   0.140   3.560   5.443  0.2202 -1.7823  1.3879
 2453TIP3    H228775   0.147   3.643   5.570 -0.6846 -0.0026  0.3096
 2454TIP3   OH228776   2.841   0.729  13.345  0.4331 -0.2494 -0.1632
 2454TIP3    H128777   2.761   0.683  13.318  1.4002 -1.9701 -0.2532
 2454TIP3    H228778   2.881   0.758  13.263  0.2853 -0.0770 -0.1733
 2455TIP3   OH228779   6.369   0.466  16.933  0.0717  0.4438 -0.0161
 2455TIP3    H128780   6.352   0.403  16.863 -0.6701  0.2350  0.3470
 2455TIP3    H228781   6.397   0.545  16.887 -0.0561  0.1969 -0.5306
 2456TIP3   OH228782   0.689   3.347  12.530 -0.0108 -0.2543 -0.4166
 2456TIP3    H128783   0.687   3.407  12.455 -1.3516 -0.7887 -0.8394
 2456TIP3    H228784   0.701   3.260  12.491 -1.0413 -0.5753 -0.0690
 2457TIP3   OH228785   0.159   1.139   1.399  0.1268 -0.7353 -0.0195
 2457TIP3    H128786   0.074   1.156   1.357  0.1370 -1.9387 -0.5804
 2457TIP3    H228787   0.143   1.064   1.456  0.1258  0.8694  2.1914
 2458TIP3   OH228788   1.836   5.777   3.585 -0.6131 -0.2709 -0.6826
 2458TIP3    H128789   1.809   5.811   3.499 -1.5960 -1.4124 -0.8553
 2458TIP3    H228790   1.930   5.760   3.575 -0.8025 -0.8288 -1.7090
 2459TIP3   OH228791   5.146   5.320   3.669  0.3722 -0.0780  0.2397
 2459TIP3    H128792   5.101   5.353   3.747  1.0639  0.3933  0.4568
 2459TIP3    H228793   5.087   5.340   3.596 -0.6652 -1.2726  0.7074
 2460TIP3   OH228794   5.952   6.202   3.559  0.1854  0.3472 -0.3499
 2460TIP3    H128795   6.009   6.182   3.634  0.7661  0.6364 -0.7051
 2460TIP3    H228796   6.012   6.235   3.492 -0.3236 -0.0057 -0.9800
 2461TIP3   OH228797   2.216   5.252   5.564 -0.1163 -0.1757  0.2301
 2461TIP3    H128798   2.252   5.311   5.630  1.1399  1.6995 -1.9863
 2461TIP3    H228799   2.226   5.165   5.603  2.4259  0.6563  1.7296
 2462TIP3   OH228800   2.448   5.421  12.307  0.1829 -0.0399  0.7772
 2462TIP3    H128801   2.376   5.397  12.250  0.1523 -0.4822  1.0007
 2462TIP3    H228802   2.411   5.486  12.366  0.3881  0.9242 -0.1276
 2463TIP3   OH228803   1.598   3.786   4.515  0.6682  0.0765 -0.5756
 2463TIP3    H128804   1.515   3.738   4.516  0.2437  0.7457 -1.6589
 2463TIP3    H228805   1.624   3.790   4.607 -0.9163  0.5344 -0.1101
 2464TIP3   OH228806   0.443   2.915  10.358  0.2439 -0.2745  0.1289
 2464TIP3    H128807   0.382   2.983  10.331  0.7914 -0.0181 -0.5072
 2464TIP3    H228808   0.389   2.848  10.398 -0.2216  0.8953  1.5245
 2465TIP3   OH228809   2.095   0.179  16.773  0.6757 -0.0527 -0.2750
 2465TIP3    H128810   2.074   0.229  16.852  0.4375 -0.2854 -0.1910
 2465TIP3    H228811   2.012   0.170  16.727  0.7201 -0.3591 -0.2987
 2466TIP3   OH228812   3.682   4.117   4.273  0.0829 -0.2101 -0.2605
 2466TIP3    H128813   3.641   4.070   4.200  1.1937 -1.0488 -0.3702
 2466TIP3    H228814   3.612   4.170   4.310 -1.3793 -2.3932  0.2276
 2467TIP3   OH228815   6.164   2.505   5.609  0.4524 -0.4890  0.2670
 2467TIP3    H128816   6.251   2.507   5.648  1.6772 -0.4151 -2.3235
 2467TIP3    H228817   6.109   2.552   5.672  2.9083  2.3515  0.5125
 2468TIP3   OH228818   5.766   6.637  10.560 -0.3198 -0.2721 -0.2781
 2468TIP3    H128819   5.727   6.584  10.491 -0.4791  1.2502 -1.3988
 2468TIP3    H228820   5.770   6.725  10.524 -0.9658  0.7095  1.8717
 2469TIP3   OH228821   1.806   6.516   2.140  0.0732 -0.2838 -0.6041
 2469TIP3    H128822   1.826   6.480   2.054 -0.3675 -0.5931 -0.5794
 2469TIP3    H228823   1.734   6.577   2.124 -0.7033 -1.1111 -0.3013
 2470TIP3   OH228824   2.242   1.517  16.970 -0.6304  0.6386  0.6656
 2470TIP3    H128825   2.334   1.513  16.943 -0.8735  0.2733 -0.1254
 2470TIP3    H228826   2.221   1.611  16.967 -0.2603  0.7365  0.9632
 2471TIP3   OH228827   6.489   0.228  11.931 -0.5178 -0.5087 -0.4610
 2471TIP3    H128828   6.567   0.177  11.909 -0.1984  0.0539 -0.6763
 2471TIP3    H228829   6.424   0.202  11.866 -0.6803 -1.3557  0.0313
 2472TIP3   OH228830   1.479   2.613  11.200  0.3302 -0.0139 -0.0877
 2472TIP3    H128831   1.445   2.660  11.276  0.0801 -0.9103  0.3700
 2472TIP3    H228832   1.566   2.650  11.185  0.8213 -0.5514  1.3041
 2473TIP3   OH228833   2.602   5.905  12.510 -0.4595  0.2766  0.5660
 2473TIP3    H128834   2.606   5.940  12.420  1.0748  0.2824  0.6175
 2473TIP3    H228835   2.594   5.810  12.498  0.4549  0.2144  0.4157
 2474TIP3   OH228836   5.934   6.426  14.831  0.0331  0.3670  0.5664
 2474TIP3    H128837   5.994   6.352  14.820  0.4964  0.7431  0.5223
 2474TIP3    H228838   5.847   6.389  14.820  0.3186  0.4796 -3.3176
 2475TIP3   OH228839   2.078   6.282   5.048  0.3924 -0.0598  0.0652
 2475TIP3    H128840   2.150   6.236   5.004 -0.1297 -0.2459 -0.6100
 2475TIP3    H228841   2.032   6.328   4.978 -1.5013 -1.7413  0.0978
 2476TIP3   OH228842   6.509   2.378  15.383  0.4803 -0.4464  0.0906
 2476TIP3    H128843   6.588   2.377  15.437  0.8967 -1.7180 -0.5010
 2476TIP3    H228844   6.440   2.341  15.438  0.0895  1.3001  0.8486
 2477TIP3   OH228845   0.342   0.492  15.225  0.4465 -0.2069 -0.3874
 2477TIP3    H128846   0.404   0.489  15.152  0.2717  4.4999 -1.0607
 2477TIP3    H228847   0.385   0.548  15.290 -2.2867  1.8532 -0.1743
 2478TIP3   OH228848   5.856   6.136   6.382  0.2817 -0.1851 -0.2866
 2478TIP3    H128849   5.788   6.112   6.444  0.5229 -0.7292 -0.2271
 2478TIP3    H228850   5.935   6.143   6.436  1.0047 -2.9619 -0.8212
 2479TIP3   OH228851   1.425   6.181   2.838 -0.1267  0.1049 -0.6112
 2479TIP3    H128852   1.497   6.199   2.778 -0.9101  0.3799 -1.4840
 2479TIP3    H228853   1.365   6.255   2.827  0.8047  1.4482  2.2777
 2480TIP3   OH228854   0.420   4.960   2.467 -0.0849  0.4099  0.1965
 2480TIP3    H128855   0.354   4.890   2.472 -1.4578  1.3728 -2.4191
 2480TIP3    H228856   0.411   5.008   2.549 -1.3467 -0.5739  0.6711
 2481TIP3   OH228857   5.413   3.333   3.998  0.4513 -0.0812 -0.4123
 2481TIP3    H128858   5.319   3.340   3.982  0.4107  2.2753  0.4175
 2481TIP3    H228859   5.453   3.390   3.932  1.1537  0.1665  0.2090
 2482TIP3   OH228860   0.444   4.791  11.864  0.0523 -0.6190  0.2273
 2482TIP3    H128861   0.477   4.714  11.818 -1.0552 -0.6613 -0.5392
 2482TIP3    H228862   0.480   4.784  11.953  1.7452 -0.8473 -0.4519
 2483TIP3   OH228863   2.954   6.033   5.208  0.4903 -0.6356  0.1177
 2483TIP3    H128864   2.919   6.089   5.139  1.5844 -0.8886 -0.6803
 2483TIP3    H228865   2.946   5.944   5.173  1.0500 -0.7645  0.3063
 2484TIP3   OH228866   5.754   2.842  13.173  0.1125  0.1561 -0.4021
 2484TIP3    H128867   5.814   2.846  13.248 -0.1720  0.2035 -0.1713
 2484TIP3    H228868   5.726   2.750  13.170 -0.8095  0.3966  0.3068
 2485TIP3   OH228869   6.591   5.794  14.828  0.2950  0.2239  0.2806
 2485TIP3    H128870   6.570   5.801  14.921 -0.1978 -0.1960  0.2013
 2485TIP3    H228871   6.641   5.713  14.821  0.9155  0.5976  0.2782
 2486TIP3   OH228872   2.813   3.999   3.977 -0.1194 -0.4812  0.0563
 2486TIP3    H128873   2.760   4.018   4.055  0.2048  0.9625 -0.0363
 2486TIP3    H228874   2.749   3.977   3.910 -0.4398 -1.1066  0.5518
 2487TIP3   OH228875   4.476   2.810  13.776 -0.5564  0.1886  0.3077
 2487TIP3    H128876   4.537   2.884  13.787  0.0067  0.1055 -1.7162
 2487TIP3    H228877   4.456   2.811  13.682 -0.5640 -2.2164  0.2398
 2488TIP3   OH228878   3.166   4.536   5.463 -0.1873  0.2958 -0.1539
 2488TIP3    H128879   3.101   4.466   5.477  0.0182 -0.3630 -2.0832
 2488TIP3    H228880   3.147   4.567   5.374  1.7320  0.5148 -0.5213
 2489TIP3   OH228881   1.749   1.553   1.704 -0.3218  0.1938 -0.0143
 2489TIP3    H128882   1.771   1.464   1.677 -1.4318 -0.7304  1.8764
 2489TIP3    H228883   1.717   1.543   1.794 -2.3183  2.2219 -0.4082
 2490TIP3   OH228884   3.030   1.471  12.077 -0.2104 -0.8920 -0.3030
 2490TIP3    H128885   3.093   1.543  12.085 -0.1197 -1.0781  0.8764
 2490TIP3    H228886   3.068   1.413  12.012 -0.2469  0.0836 -1.2143
 2491TIP3   OH228887   1.665   0.416   4.202 -0.2889 -0.0491  0.0084
 2491TIP3    H128888   1.629   0.504   4.212 -0.1947 -0.1631  1.5818
 2491TIP3    H228889   1.602   0.359   4.246  0.9230 -0.4480  1.3142
 2492TIP3   OH228890   1.669   3.737  13.349 -0.4219  0.3418 -0.2492
 2492TIP3    H128891   1.718   3.707  13.273 -0.2190 -2.0062  0.7441
 2492TIP3    H228892   1.736   3.775  13.407 -0.3294  0.5331 -0.4786
 2493TIP3   OH228893   1.800   0.790  12.929  0.0736 -0.3155 -0.1823
 2493TIP3    H128894   1.844   0.821  13.007 -1.2903  1.5066 -0.0779
 2493TIP3    H228895   1.841   0.837  12.857 -1.0577  0.7436 -0.1681
 2494TIP3   OH228896   0.968   5.844   3.091 -0.0466  0.1042 -0.1505
 2494TIP3    H128897   1.029   5.835   3.164 -1.4242  0.2033  1.0811
 2494TIP3    H228898   1.001   5.917   3.039  1.4392 -0.5302 -0.1308
 2495TIP3   OH228899   4.515   4.684   4.296  0.8178 -0.4072 -0.3087
 2495TIP3    H128900   4.480   4.750   4.236 -0.1721  1.1899  1.8803
 2495TIP3    H228901   4.592   4.725   4.334  0.3840 -0.6165  0.8313
 2496TIP3   OH228902   4.348   1.140  15.012  0.0650 -0.0998  0.2778
 2496TIP3    H128903   4.288   1.203  15.051  0.1952 -0.4937  1.1167
 2496TIP3    H228904   4.389   1.096  15.086  0.9983 -0.2084 -0.2837
 2497TIP3   OH228905   0.669   5.294  11.341 -0.5826 -0.0452  0.5744
 2497TIP3    H128906   0.681   5.260  11.252 -0.6964  1.2728  0.0243
 2497TIP3    H228907   0.616   5.228  11.385 -0.6601 -0.6483 -0.3914
 2498TIP3   OH228908   2.705   3.768  15.013 -0.1901 -0.1834 -0.1628
 2498TIP3    H128909   2.610   3.770  15.000 -0.0947 -0.4146 -0.9243
 2498TIP3    H228910   2.718   3.704  15.083 -0.7550  1.4816  1.5506
 2499TIP3   OH228911   4.918   4.925   1.919 -0.1188 -0.1880 -0.5798
 2499TIP3    H128912   4.846   4.975   1.955  1.2046 -0.0472  2.0772
 2499TIP3    H228913   4.975   4.991   1.877 -1.2724 -0.2665 -2.3938
 2500TIP3   OH228914   1.259   6.665  16.014  0.0370 -0.2141 -0.4433
 2500TIP3    H128915   1.259   6.582  15.967 -0.2444 -0.7269  0.4359
 2500TIP3    H228916   1.351   6.687  16.026  0.1881 -1.6164  1.3788
 2501TIP3   OH228917   5.940   1.836   1.569  0.0617  0.1635  0.3991
 2501TIP3    H128918   5.888   1.864   1.494  0.5077  1.6238  0.6080
 2501TIP3    H228919   6.026   1.874   1.555  0.9466 -1.7305  0.3655
 2502TIP3   OH228920   2.456   0.007  15.129  0.1378 -0.4138 -0.0633
 2502TIP3    H128921   2.540  -0.035  15.111  1.2258 -0.1827  3.5688
 2502TIP3    H228922   2.461   0.091  15.082  1.2963 -0.9896 -1.0334
 2503TIP3   OH228923   4.948   4.820   3.193 -0.1932  0.7889 -0.0721
 2503TIP3    H128924   4.994   4.877   3.255  0.9716 -0.5005  0.3165
 2503TIP3    H228925   5.005   4.743   3.185 -1.1085  0.2123 -1.5138
 2504TIP3   OH228926   4.672   3.090   1.284  0.5178  0.5929 -0.1033
 2504TIP3    H128927   4.587   3.077   1.244  0.2972  0.6642  0.3371
 2504TIP3    H228928   4.668   3.039   1.366  1.5807 -1.0251 -0.9985
 2505TIP3   OH228929   0.322   2.638  11.245  0.0791 -0.3393  0.3034
 2505TIP3    H128930   0.402   2.586  11.239 -0.0771 -0.7517  1.5029
 2505TIP3    H228931   0.293   2.627  11.336  0.1865  2.0845  0.6789
 2506TIP3   OH228932   4.532   0.565   5.302 -0.2787 -0.5337  0.2643
 2506TIP3    H128933   4.475   0.497   5.265 -0.4646  0.3622 -1.2016
 2506TIP3    H228934   4.476   0.643   5.306  1.0817  0.7319 -2.4338
 2507TIP3   OH228935   2.296   3.761   1.712 -0.1183  0.1267 -0.4316
 2507TIP3    H128936   2.312   3.668   1.700 -0.1274 -0.2649  2.1257
 2507TIP3    H228937   2.201   3.771   1.701 -0.0813 -0.0801 -0.9982
 2508TIP3   OH228938   2.641   4.866  13.237 -0.0618 -0.0293  0.2966
 2508TIP3    H128939   2.731   4.838  13.221 -0.3641 -0.0755 -1.6913
 2508TIP3    H228940   2.629   4.942  13.179 -0.3776  1.9925  2.8622
 2509TIP3   OH228941   2.331   1.489  16.630  0.2291 -0.2913  0.0665
 2509TIP3    H128942   2.282   1.508  16.710  0.5445 -0.5860  0.3344
 2509TIP3    H228943   2.419   1.524  16.646  0.0190  0.5648 -0.5559
 2510TIP3   OH228944   5.476   5.012  14.882  0.4778  0.4938  0.4417
 2510TIP3    H128945   5.475   4.973  14.969 -0.0257  1.5855  0.9432
 2510TIP3    H228946   5.552   5.070  14.883 -1.0157  2.5506  1.1223
 2511TIP3   OH228947   3.170   5.049   4.134 -0.3866  0.0341  0.3534
 2511TIP3    H128948   3.133   5.096   4.059 -0.2798  1.6486  1.2576
 2511TIP3    H228949   3.242   5.104   4.164 -1.3577  0.2131  2.5350
 2512TIP3   OH228950   3.778   2.901  11.201 -0.2813  1.0860 -0.0341
 2512TIP3    H128951   3.828   2.926  11.124 -0.6942  0.8658 -0.3738
 2512TIP3    H228952   3.688   2.892  11.170 -0.3760  0.5570  0.3761
 2513TIP3   OH228953   5.254   3.232   5.224 -0.6482  0.2527  0.3646
 2513TIP3    H128954   5.162   3.216   5.244 -0.3822 -1.5076  0.2654
 2513TIP3    H228955   5.287   3.277   5.302 -1.6712  1.3274  0.2151
 2514TIP3   OH228956   1.942   3.992  12.857 -0.2543  0.4596  0.2378
 2514TIP3    H128957   1.969   3.927  12.792 -2.1756 -0.5154  0.3336
 2514TIP3    H228958   1.980   4.074  12.826 -0.3683 -0.1413 -1.6406
 2515TIP3   OH228959   3.814   3.736  16.824  0.0813  0.2677  0.2445
 2515TIP3    H128960   3.830   3.803  16.889  0.6556  0.1428  0.2330
 2515TIP3    H228961   3.901   3.707  16.796 -0.0892  1.4955 -1.7920
 2516TIP3   OH228962   0.953   1.463   2.886 -0.1387 -0.2510  0.7184
 2516TIP3    H128963   1.013   1.499   2.953  0.7118  0.0899 -0.2055
 2516TIP3    H228964   0.908   1.540   2.851 -1.6131 -0.5645  1.8420
 2517TIP3   OH228965   0.758   2.608   0.153  0.6133 -0.4075  0.1905
 2517TIP3    H128966   0.748   2.526   0.202 -0.6606 -0.2899  0.1684
 2517TIP3    H228967   0.682   2.610   0.095  1.8894 -0.3692 -1.5779
 2518TIP3   OH228968   2.262   4.037  16.722 -0.1717  0.0689  0.4589
 2518TIP3    H128969   2.221   3.974  16.662  1.1692 -1.7202  1.3135
 2518TIP3    H228970   2.192   4.059  16.784 -0.6001 -0.7923  0.2993
 2519TIP3   OH228971   5.894   5.032  11.524 -0.3402  0.0653 -0.2691
 2519TIP3    H128972   5.834   4.959  11.538 -1.4069  1.1352  1.0333
 2519TIP3    H228973   5.845   5.094  11.471  0.4348  0.0051 -1.0830
 2520TIP3   OH228974   0.581   0.655   4.752 -0.3105 -0.1943  0.0474
 2520TIP3    H128975   0.637   0.654   4.830  1.6589 -0.8527 -1.2855
 2520TIP3    H228976   0.593   0.568   4.713 -0.7375  0.3220 -1.2986
 2521TIP3   OH228977   4.360   5.274   1.175 -0.6530 -0.4308 -0.1667
 2521TIP3    H128978   4.374   5.188   1.136 -0.4672 -0.6799  0.4308
 2521TIP3    H228979   4.442   5.321   1.160 -1.3860  0.3108 -2.1136
 2522TIP3   OH228980   2.276   6.100   1.631 -0.1676  0.2985  0.0188
 2522TIP3    H128981   2.254   6.102   1.724 -0.6062  2.0596 -0.0870
 2522TIP3    H228982   2.195   6.076   1.587 -1.3708  4.1604 -0.1828
 2523TIP3   OH228983   3.377   5.307  14.033  0.4236 -0.7840 -0.0682
 2523TIP3    H128984   3.413   5.367  14.099 -2.0789  0.4928  0.2746
 2523TIP3    H228985   3.369   5.223  14.078  1.7581 -0.7984  0.1878
 2524TIP3   OH228986   4.682   0.169  14.073 -0.2358 -0.5745  0.0001
 2524TIP3    H128987   4.622   0.243  14.078 -2.5309 -2.3720  1.0407
 2524TIP3    H228988   4.697   0.157  13.979 -0.6549  0.5632 -0.2231
 2525TIP3   OH228989   2.699   2.408   0.032 -0.3003 -1.2373 -0.0387
 2525TIP3    H128990   2.717   2.479   0.094 -2.5895 -1.2593  0.7372
 2525TIP3    H228991   2.740   2.331   0.073  1.0265 -0.6671 -0.2214
 2526TIP3   OH228992   5.653   2.438  12.001 -0.2825  0.2366  0.4193
 2526TIP3    H128993   5.614   2.419  12.087 -0.9554  0.1985  0.1135
 2526TIP3    H228994   5.635   2.360  11.949  2.8520 -1.0878  1.1283
 2527TIP3   OH228995   5.710   6.502   5.687 -0.1261  0.1442  0.8565
 2527TIP3    H128996   5.789   6.487   5.738 -0.4065 -2.6841  0.5894
 2527TIP3    H228997   5.740   6.507   5.597 -0.0973  0.6998  0.8941
 2528TIP3   OH228998   4.556   5.071   4.103  0.4142  0.0913  0.2174
 2528TIP3    H128999   4.461   5.074   4.097  0.3887 -0.0577  0.4909
 2528TIP3    H229000   4.576   5.110   4.188  0.5443 -0.5475  0.4875
 2529TIP3   OH229001   2.866   4.048   3.140 -0.0647 -0.1423 -0.1743
 2529TIP3    H129002   2.791   3.991   3.153 -1.6555  1.4305 -1.9204
 2529TIP3    H229003   2.915   4.009   3.067 -1.0509  0.5901 -1.2482
 2530TIP3   OH229004   0.200   1.114   0.474  0.1793 -0.0266  0.1412
 2530TIP3    H129005   0.110   1.080   0.475 -0.3925  1.3585  2.4089
 2530TIP3    H229006   0.207   1.160   0.390 -1.7070  0.9761  0.4755
 2531TIP3   OH229007   1.654   2.392  15.552  0.4700  0.0478 -0.3402
 2531TIP3    H129008   1.690   2.480  15.541 -0.8216  0.8477  1.3335
 2531TIP3    H229009   1.559   2.406  15.555  0.2906 -1.2195  1.2150
 2532TIP3   OH229010   3.649   0.195  13.871 -0.2552 -0.3028  0.1180
 2532TIP3    H129011   3.609   0.132  13.930  0.4195  1.3160  2.4407
 2532TIP3    H229012   3.598   0.188  13.790 -1.8544 -1.9148  1.1921
 2533TIP3   OH229013   4.830   3.019   3.635 -0.3441  0.0652 -0.0444
 2533TIP3    H129014   4.845   2.942   3.690 -0.5484  0.2550  0.2839
 2533TIP3    H229015   4.801   3.087   3.697 -0.4916  0.3063 -0.3753
 2534TIP3   OH229016   0.974   0.067   2.592 -0.3102 -0.1604 -0.0245
 2534TIP3    H129017   1.033   0.054   2.666  1.9619 -0.2863 -1.7426
 2534TIP3    H229018   0.900   0.115   2.629  1.4714  1.2269  2.0214
 2535TIP3   OH229019   2.840   3.861   2.634 -0.0673  0.1469 -0.5661
 2535TIP3    H129020   2.855   3.952   2.657  1.1342  0.3278 -1.8942
 2535TIP3    H229021   2.920   3.816   2.660  0.3680 -0.0524 -2.1575
 2536TIP3   OH229022   6.386   4.289   3.316  0.0604  0.0296  0.3561
 2536TIP3    H129023   6.359   4.368   3.270  3.1215  0.9428 -0.0770
 2536TIP3    H229024   6.395   4.222   3.247  1.0424  0.3748  0.1281
 2537TIP3   OH229025   0.878   6.437  15.528  0.8911  0.6495  0.4034
 2537TIP3    H129026   0.919   6.517  15.493  1.3912 -0.1155 -0.8098
 2537TIP3    H229027   0.877   6.376  15.454  1.4663 -0.8375  1.5712
 2538TIP3   OH229028   2.485   0.548   0.365  0.1567  0.0357  0.4081
 2538TIP3    H129029   2.396   0.584   0.361  1.0410  2.2938 -0.4827
 2538TIP3    H229030   2.497   0.506   0.280  0.2495  0.5454  0.1656
 2539TIP3   OH229031   5.280   1.779   3.835 -0.1943  0.1968 -0.4737
 2539TIP3    H129032   5.353   1.810   3.782  1.6264 -0.9607  1.1854
 2539TIP3    H229033   5.304   1.689   3.858 -2.1529 -0.2107  0.1728
 2540TIP3   OH229034   5.816   2.684  11.753  0.2457 -0.2263 -0.2271
 2540TIP3    H129035   5.882   2.739  11.712  0.0441  0.2516  0.0870
 2540TIP3    H229036   5.776   2.636  11.680 -0.2259  0.7351 -0.6182
 2541TIP3   OH229037   2.567   4.536  15.782 -0.4181  0.2675  0.5522
 2541TIP3    H129038   2.527   4.535  15.869 -0.6737 -1.6561  0.4627
 2541TIP3    H229039   2.591   4.444  15.766 -0.9807  0.4543 -1.6600
 2542TIP3   OH229040   2.867   6.493  13.259  0.0803  0.3214  0.0924
 2542TIP3    H129041   2.885   6.510  13.352  0.4011  2.3129 -0.2805
 2542TIP3    H229042   2.798   6.427  13.260  0.6734 -0.3364  1.7206
 2543TIP3   OH229043   0.150   3.990  11.761  0.3306  0.5736  0.3463
 2543TIP3    H129044   0.236   4.018  11.790  0.1240  0.9376  0.6249
 2543TIP3    H229045   0.125   4.054  11.694 -0.2672  1.2519  1.1931
 2544TIP3   OH229046   3.663   3.211  17.028 -0.2763  0.0259  0.2548
 2544TIP3    H129047   3.717   3.142  16.990 -1.6064  0.3705 -2.5233
 2544TIP3    H229048   3.619   3.170  17.102  1.9667 -0.8892  1.1535
 2545TIP3   OH229049   5.932   3.835   2.921 -0.8787  0.1526  0.0356
 2545TIP3    H129050   5.850   3.879   2.942 -1.8152 -1.1439 -0.6917
 2545TIP3    H229051   5.918   3.799   2.833  0.6138  0.2074 -0.2599
 2546TIP3   OH229052   1.747   0.451  12.602  0.5656 -0.3783 -0.7022
 2546TIP3    H129053   1.773   0.480  12.689 -0.9958 -0.1936 -0.2671
 2546TIP3    H229054   1.741   0.532  12.550 -1.7652 -0.0540 -0.0424
 2547TIP3   OH229055   2.597   4.105   0.839  0.8409 -0.0003  0.4351
 2547TIP3    H129056   2.666   4.056   0.882  1.0960 -0.4160 -0.4206
 2547TIP3    H229057   2.519   4.090   0.893  1.0653 -0.8083  0.5362
 2548TIP3   OH229058   0.509   5.150  12.374  0.2493 -0.3613  0.1082
 2548TIP3    H129059   0.590   5.103  12.396 -0.8092 -2.2298  0.2909
 2548TIP3    H229060   0.439   5.093  12.407 -1.1988  0.3358 -1.5935
 2549TIP3   OH229061   1.079   1.182  12.275 -0.1326  0.0536 -0.6976
 2549TIP3    H129062   1.080   1.131  12.194 -0.3517  0.0386 -0.6944
 2549TIP3    H229063   1.081   1.273  12.246 -0.4852  0.0532 -0.7333
 2550TIP3   OH229064   6.689   3.061   1.173  0.2685  0.0462 -0.0133
 2550TIP3    H129065   6.743   2.992   1.135  1.5416  1.1204 -0.2362
 2550TIP3    H229066   6.666   3.117   1.099 -0.6069 -0.0276  0.1908
 2551TIP3   OH229067   6.731   0.228  14.750  0.4434  0.3678  0.1622
 2551TIP3    H129068   6.707   0.185  14.668  0.5644 -0.1087  0.3714
 2551TIP3    H229069   6.729   0.158  14.815 -0.7553  0.9554  0.7911
 2552TIP3   OH229070   3.690   4.263  15.662 -0.4859  0.4153 -0.5135
 2552TIP3    H129071   3.596   4.278  15.672 -0.6460  0.6114 -2.1526
 2552TIP3    H229072   3.712   4.301  15.577  0.9963 -0.0122 -0.3445
 2553TIP3   OH229073   5.044   4.638  16.302  0.7263  0.1386 -0.3144
 2553TIP3    H129074   5.071   4.596  16.220  1.6996 -0.2121  0.1771
 2553TIP3    H229075   5.049   4.732  16.283  1.7235  0.0755 -0.4283
 2554TIP3   OH229076   6.436   5.193   0.678  0.0450 -0.1328  0.3866
 2554TIP3    H129077   6.371   5.137   0.637  2.1416 -0.4929 -2.8451
 2554TIP3    H229078   6.518   5.144   0.670  1.4571  2.0953  0.1396
 2555TIP3   OH229079   4.031   2.626  14.715  0.6566  0.7543 -0.0294
 2555TIP3    H129080   4.028   2.689  14.787  1.0070 -0.0495  0.7150
 2555TIP3    H229081   4.010   2.542  14.756  0.2108  0.3835 -0.9987
 2556TIP3   OH229082   6.337   0.765  13.807 -0.2708 -0.2241 -0.3188
 2556TIP3    H129083   6.378   0.700  13.749  0.3543 -0.0298 -0.1040
 2556TIP3    H229084   6.269   0.717  13.854  0.8586 -0.9799  0.5903
 2557TIP3   OH229085   3.571   1.254  16.036  0.3811 -0.5176 -0.0312
 2557TIP3    H129086   3.619   1.216  15.963  2.3885  1.9321 -0.1250
 2557TIP3    H229087   3.482   1.218  16.027  1.0836 -1.9236 -2.3978
 2558TIP3   OH229088   6.642   3.441  16.073 -0.5689 -0.1561 -0.4326
 2558TIP3    H129089   6.682   3.357  16.049 -3.0973 -1.7178  0.4634
 2558TIP3    H229090   6.606   3.475  15.991  0.3066 -0.0077 -0.7680
 2559TIP3   OH229091   6.349   0.448  15.406 -0.2813 -0.0468 -0.3833
 2559TIP3    H129092   6.375   0.395  15.481  0.6292  0.1592 -0.5340
 2559TIP3    H229093   6.426   0.447  15.348  0.0626  2.0439 -0.0382
 2560TIP3   OH229094   4.986   6.386   1.894 -0.0480  0.0216  0.0941
 2560TIP3    H129095   5.066   6.353   1.935  0.4450  1.1331  0.0666
 2560TIP3    H229096   4.963   6.320   1.829  0.1692 -0.8880  0.9197
 2561TIP3   OH229097   3.044   6.506  11.397  0.2939 -0.0771  0.1519
 2561TIP3    H129098   2.998   6.589  11.413  1.7010  0.7401  0.1473
 2561TIP3    H229099   3.001   6.470  11.319 -0.7942  0.2866  0.5634
 2562TIP3   OH229100   1.820   1.236  16.437  0.7899 -0.2817  0.5148
 2562TIP3    H129101   1.857   1.313  16.479 -0.0406  0.4428 -0.0483
 2562TIP3    H229102   1.800   1.264  16.348 -1.9081 -0.3429  1.0181
 2563TIP3   OH229103   4.212   0.421  14.884 -0.0339 -0.3664 -0.3028
 2563TIP3    H129104   4.251   0.424  14.796  0.6508  2.7035  0.0025
 2563TIP3    H229105   4.143   0.487  14.882  0.5387  0.3569  1.6752
 2564TIP3   OH229106   5.853   3.823  14.404  0.1176  0.0293  0.4080
 2564TIP3    H129107   5.876   3.744  14.453  1.1731  0.1530  0.1440
 2564TIP3    H229108   5.874   3.802  14.314  1.1712  0.8794  0.4394
 2565TIP3   OH229109   3.590   2.756  17.078 -0.5193  0.0242  0.1194
 2565TIP3    H129110   3.643   2.698  17.133 -0.2999 -0.2340 -0.3641
 2565TIP3    H229111   3.645   2.832  17.062 -1.3573  1.1079  2.0406
 2566TIP3   OH229112   5.264   3.803   5.823  0.0874 -0.5655  0.6946
 2566TIP3    H129113   5.298   3.843   5.903 -0.3431  0.7685  0.2339
 2566TIP3    H229114   5.279   3.709   5.835 -2.0560 -0.6911  3.3583
 2567TIP3   OH229115   6.578   3.108  10.228  0.2933  0.4866 -0.1875
 2567TIP3    H129116   6.550   3.029  10.182  1.5444 -0.1579  0.1235
 2567TIP3    H229117   6.525   3.178  10.190 -1.3027 -0.5847 -0.0186
 2568TIP3   OH229118   3.926   0.552  12.232  0.1847 -0.0467  0.0540
 2568TIP3    H129119   3.925   0.457  12.222  2.9546 -0.0268 -1.3836
 2568TIP3    H229120   4.011   0.579  12.198 -0.7510  3.0354 -0.1564
 2569TIP3   OH229121   5.735   6.053   6.149  0.2382  0.2686 -0.6420
 2569TIP3    H129122   5.776   6.079   6.231  0.4721 -0.0570 -0.6526
 2569TIP3    H229123   5.650   6.096   6.150 -0.0231 -0.2384  0.0707
 2570TIP3   OH229124   5.097   4.590  12.600 -0.6787 -0.1668 -0.3287
 2570TIP3    H129125   5.074   4.673  12.643 -0.7319  0.1050 -0.8746
 2570TIP3    H229126   5.035   4.527  12.635 -0.0983 -0.1662  0.7358
 2571TIP3   OH229127   3.072   3.152   4.082  0.4259  0.3191  0.7757
 2571TIP3    H129128   3.026   3.212   4.024 -1.0799 -3.2853 -2.2426
 2571TIP3    H229129   3.165   3.174   4.072  0.0462  1.1437 -1.4447
 2572TIP3   OH229130   4.557   4.721  13.257  0.3338 -0.1238  0.3049
 2572TIP3    H129131   4.587   4.765  13.178  1.3779  0.3110  0.9138
 2572TIP3    H229132   4.583   4.780  13.328  0.2704 -0.9551  1.0310
 2573TIP3   OH229133   5.616   5.180  13.435 -0.2711  0.2575 -0.0604
 2573TIP3    H129134   5.695   5.178  13.489  0.7465  0.2300 -1.4907
 2573TIP3    H229135   5.544   5.187  13.498  0.8780  0.6391  1.2648
 2574TIP3   OH229136   5.030   3.641   3.267  0.5287  0.4170  0.0723
 2574TIP3    H129137   5.064   3.588   3.195 -0.3436 -0.8958  0.6037
 2574TIP3    H229138   4.944   3.670   3.238  0.5871  0.7269  0.1928
 2575TIP3   OH229139   4.531   4.810  14.757 -0.4598  0.2170 -0.5315
 2575TIP3    H129140   4.502   4.735  14.706  1.7690 -0.1324 -1.4221
 2575TIP3    H229141   4.459   4.873  14.751 -2.4846 -1.8846  0.4438
 2576TIP3   OH229142   3.100   1.058  12.187 -0.3975  0.3064 -0.0365
 2576TIP3    H129143   3.149   1.062  12.105  1.0732  3.3025  0.8409
 2576TIP3    H229144   3.009   1.051  12.160  0.2094 -3.3446 -1.7614
 2577TIP3   OH229145   3.330   1.230  13.807 -0.3923  0.2471 -0.1188
 2577TIP3    H129146   3.329   1.141  13.840  1.3497  0.9640  2.1439
 2577TIP3    H229147   3.248   1.239  13.759 -1.3400 -2.0647  0.9316
 2578TIP3   OH229148   1.006   4.054  17.079 -0.2427  0.0108  0.2767
 2578TIP3    H129149   1.090   4.092  17.052 -0.5824 -1.1945 -2.9902
 2578TIP3    H229150   1.026   3.963  17.100 -0.9706 -1.2921 -3.7603
 2579TIP3   OH229151   4.809   5.706  13.877  0.2762  0.6571 -0.2039
 2579TIP3    H129152   4.802   5.614  13.905  1.9123 -0.9454 -4.1612
 2579TIP3    H229153   4.726   5.724  13.834  0.2990  0.6613 -0.2464
 2580TIP3   OH229154   0.296   5.228  16.724  0.0059  0.1484  0.0858
 2580TIP3    H129155   0.235   5.259  16.656 -0.2272 -0.9037 -0.1957
 2580TIP3    H229156   0.250   5.246  16.806 -0.5853 -0.3999 -0.1158
 2581TIP3   OH229157   3.731   3.167  15.083  0.0593 -0.2716  0.6107
 2581TIP3    H129158   3.803   3.228  15.068 -0.9017  0.8618  0.5129
 2581TIP3    H229159   3.732   3.151  15.177  1.0196 -1.0253  0.4903
 2582TIP3   OH229160   0.630   3.089  12.924 -0.4283 -0.3295 -0.8520
 2582TIP3    H129161   0.553   3.112  12.976 -1.0859  0.3686 -2.0626
 2582TIP3    H229162   0.656   3.172  12.883  1.0090 -0.5471 -0.4383
 2583TIP3   OH229163   1.393   6.295  14.109  0.0038 -0.1484 -0.5008
 2583TIP3    H129164   1.447   6.290  14.189 -0.1025  0.9445 -0.3426
 2583TIP3    H229165   1.405   6.385  14.078 -2.7013  0.5433  0.2300
 2584TIP3   OH229166   3.443   3.923   3.882  0.7045  0.1299 -0.6933
 2584TIP3    H129167   3.511   3.863   3.851  1.7857  0.8596  0.1580
 2584TIP3    H229168   3.489   4.007   3.893  0.1950  0.1414  1.9132
 2585TIP3   OH229169   2.498   5.459  13.615  0.4772  0.4625 -0.4789
 2585TIP3    H129170   2.497   5.419  13.528  0.4614  0.6762 -0.5778
 2585TIP3    H229171   2.440   5.404  13.668  1.2071 -0.2098 -0.3555
 2586TIP3   OH229172   6.454   5.116  15.842  0.1848 -0.6781  0.0666
 2586TIP3    H129173   6.500   5.034  15.821  1.9050  0.4117 -0.6394
 2586TIP3    H229174   6.506   5.155  15.913  1.0854  1.1081 -1.4832
 2587TIP3   OH229175   1.213   1.633  15.361 -0.6214  0.2617  0.1919
 2587TIP3    H129176   1.250   1.545  15.348  0.2999  0.6195  0.3285
 2587TIP3    H229177   1.289   1.691  15.362 -1.2382  1.0895 -0.0750
 2588TIP3   OH229178   2.984   2.487  13.451  0.3747  0.0040  0.1584
 2588TIP3    H129179   2.986   2.556  13.517 -1.2021  0.4000 -0.1766
 2588TIP3    H229180   2.952   2.530  13.372  0.8344 -0.7892 -0.4795
 2589TIP3   OH229181   6.593   3.314   2.964  0.2399  0.1518  0.1399
 2589TIP3    H129182   6.521   3.337   3.023  0.6367  0.5458  0.4822
 2589TIP3    H229183   6.610   3.394   2.915  0.2412 -0.0326 -0.1597
 2590TIP3   OH229184   4.629   5.509  14.536 -0.2195 -0.5500 -0.2864
 2590TIP3    H129185   4.580   5.507  14.618  0.8493  1.2492  0.4643
 2590TIP3    H229186   4.719   5.490  14.562  0.2136  0.4997 -0.9522
 2591TIP3   OH229187   2.946   4.336   0.668 -0.1452  0.0506 -0.4079
 2591TIP3    H129188   2.907   4.266   0.615 -0.2493 -1.0550  1.0786
 2591TIP3    H229189   2.878   4.402   0.673 -0.5738 -0.3621 -0.6580
 2592TIP3   OH229190   6.574   6.309  12.852 -0.9650  0.3688 -0.3341
 2592TIP3    H129191   6.519   6.304  12.774 -1.3254 -0.7564 -0.0197
 2592TIP3    H229192   6.512   6.321  12.924 -0.6776  0.7476 -0.1461
 2593TIP3   OH229193   1.277   2.139   3.454  0.0293 -0.6297 -0.9769
 2593TIP3    H129194   1.345   2.163   3.516 -0.1301 -3.0585  0.2664
 2593TIP3    H229195   1.312   2.165   3.368  1.4348  0.3410 -0.1413
 2594TIP3   OH229196   3.453   2.589   3.931  0.3989 -0.2216 -0.6664
 2594TIP3    H129197   3.512   2.529   3.977  1.0921  0.7041 -0.3243
 2594TIP3    H229198   3.389   2.615   3.998  0.0433 -0.6290 -0.8385
 2595TIP3   OH229199   6.228   3.716  15.957 -0.7812  0.1672 -0.1701
 2595TIP3    H129200   6.221   3.621  15.954 -1.0481  0.2076 -1.2420
 2595TIP3    H229201   6.173   3.747  15.885 -1.6105  1.1896  0.8457
 2596TIP3   OH229202   5.131   4.830   4.744  0.1351 -0.5136  0.4208
 2596TIP3    H129203   5.112   4.764   4.811  0.4463 -1.5139 -0.4617
 2596TIP3    H229204   5.219   4.861   4.767  0.0062 -0.4236  0.8111
 2597TIP3   OH229205   3.095   0.166   2.573 -0.3449 -0.9676 -0.1844
 2597TIP3    H129206   3.076   0.074   2.590 -1.1683 -0.8485 -0.4275
 2597TIP3    H229207   3.104   0.172   2.478 -0.1586 -0.8230 -0.1581
 2598TIP3   OH229208   2.454   5.950  16.823  0.5126  0.1063  0.6673
 2598TIP3    H129209   2.514   5.876  16.830  1.3664  0.6839 -0.2016
 2598TIP3    H229210   2.370   5.911  16.798  1.0387 -0.5388 -0.1373
 2599TIP3   OH229211   0.983   1.810   0.142  0.0254  0.2703 -0.1755
 2599TIP3    H129212   0.906   1.759   0.169 -0.4717  1.3106  0.4288
 2599TIP3    H229213   1.054   1.746   0.140 -0.8286 -0.7031 -0.6865
 2600TIP3   OH229214   5.214   2.833  11.044 -0.0145  0.0295 -0.6930
 2600TIP3    H129215   5.267   2.773  10.991 -0.2643  0.4526 -1.4478
 2600TIP3    H229216   5.165   2.776  11.104  1.2768 -0.3608  0.0180
 2601TIP3   OH229217   4.602   5.075  10.413 -0.1146 -0.5576  0.2041
 2601TIP3    H129218   4.542   5.005  10.387  1.8409 -2.2325  0.0095
 2601TIP3    H229219   4.685   5.053  10.370  0.1173  2.9458 -1.5181
 2602TIP3   OH229220   5.763   3.450  16.927 -0.7631 -0.0255  0.0630
 2602TIP3    H129221   5.710   3.463  16.848 -0.5462 -0.1411 -0.1051
 2602TIP3    H229222   5.737   3.521  16.986 -0.5116  0.4051 -0.3388
 2603TIP3   OH229223   2.152   0.501  11.035  0.5020  0.1125 -0.3537
 2603TIP3    H129224   2.179   0.508  11.126  0.0139  0.3842 -0.2227
 2603TIP3    H229225   2.226   0.460  10.990  1.1442  0.8832 -0.0244
 2604TIP3   OH229226   2.937   2.189  12.084  0.5854 -0.7096  0.8051
 2604TIP3    H129227   3.002   2.202  12.153  0.2220 -2.4284  1.5145
 2604TIP3    H229228   2.905   2.100  12.097 -1.5054 -0.1190  0.1208
 2605TIP3   OH229229   6.641   2.594   4.455 -0.4153  0.4230 -0.4408
 2605TIP3    H129230   6.588   2.673   4.445 -0.0022  0.5436 -1.9047
 2605TIP3    H229231   6.585   2.523   4.425  0.1123  0.5226 -1.7671
 2606TIP3   OH229232   3.654   1.373   2.243 -0.5648 -0.2044 -0.8701
 2606TIP3    H129233   3.671   1.285   2.276 -1.2781 -0.1790 -0.4072
 2606TIP3    H229234   3.614   1.360   2.157  0.6047 -0.2928 -1.4055
 2607TIP3   OH229235   4.266   0.323  12.532 -0.0332  0.7290 -0.0448
 2607TIP3    H129236   4.236   0.250  12.587  0.3257 -1.4699 -2.5346
 2607TIP3    H229237   4.349   0.351  12.571 -0.0561 -0.3683  0.8435
 2608TIP3   OH229238   3.296   5.209   3.083  0.4592  0.2189 -0.3114
 2608TIP3    H129239   3.335   5.291   3.114 -1.2667  1.0726 -0.2575
 2608TIP3    H229240   3.204   5.216   3.109 -0.1323 -0.9057 -1.9726
 2609TIP3   OH229241   3.946   5.095  11.394 -0.3125 -1.1448  0.2818
 2609TIP3    H129242   3.902   5.013  11.369  1.6018 -2.2377  0.3230
 2609TIP3    H229243   3.977   5.132  11.311 -0.5477 -0.8311  0.3315
 2610TIP3   OH229244   0.958   3.032   1.873 -0.1545  0.2883  0.1748
 2610TIP3    H129245   0.979   3.053   1.782 -0.5834  0.3407  0.0862
 2610TIP3    H229246   1.018   2.960   1.895 -0.7237 -0.3986 -0.4629
 2611TIP3   OH229247   6.251   6.068   3.953 -0.0422 -0.2671  0.0954
 2611TIP3    H129248   6.319   6.105   4.009 -0.2041 -0.3559  0.3537
 2611TIP3    H229249   6.275   6.095   3.865  0.3674 -0.3584  0.1780
 2612TIP3   OH229250   2.596   1.882  12.129  0.6744 -0.3944  0.2532
 2612TIP3    H129251   2.556   1.812  12.181  1.4093  0.0289  1.4330
 2612TIP3    H229252   2.526   1.947  12.119  0.3677 -0.7209  0.2555
 2613TIP3   OH229253   4.739   0.279   4.607  0.0585  0.3080 -0.6989
 2613TIP3    H129254   4.713   0.201   4.656  0.1268  0.0110 -1.1313
 2613TIP3    H229255   4.831   0.265   4.587  0.1741  0.6766 -0.4588
 2614TIP3   OH229256   1.740   5.999  12.263 -0.1721 -0.5474 -0.4913
 2614TIP3    H129257   1.716   6.076  12.211  0.9807 -0.4908 -0.9699
 2614TIP3    H229258   1.836   5.997  12.260 -0.0904 -0.7365  1.3759
 2615TIP3   OH229259   0.541   4.605  12.573 -0.1161  0.1632  0.3303
 2615TIP3    H129260   0.459   4.590  12.621 -1.1355  0.6914 -1.1565
 2615TIP3    H229261   0.597   4.532  12.598 -0.7668  0.1461  1.9145
 2616TIP3   OH229262   5.854   1.531  15.296 -0.0347 -0.1408  0.3132
 2616TIP3    H129263   5.786   1.464  15.284  0.0774 -0.2003 -0.0064
 2616TIP3    H229264   5.832   1.598  15.232  0.3079 -0.2429  0.0834
 2617TIP3   OH229265   5.168   3.800  14.015 -0.0643  0.3209 -0.1028
 2617TIP3    H129266   5.138   3.887  13.990  0.3916  0.6251  0.3876
 2617TIP3    H229267   5.096   3.742  13.990 -0.7059  0.9307  0.2929
 2618TIP3   OH229268   4.787   2.850  14.401  0.2384  0.1440  0.0837
 2618TIP3    H129269   4.744   2.806  14.327  0.0797  0.0589  0.2232
 2618TIP3    H229270   4.784   2.785  14.472 -0.9769  0.7538  0.6243
 2619TIP3   OH229271   3.011   3.126  15.629 -0.4637 -0.3678 -0.3261
 2619TIP3    H129272   2.940   3.133  15.692  0.5521  0.1219  0.8066
 2619TIP3    H229273   2.996   3.199  15.569  0.6024  1.5336  1.5698
 2620TIP3   OH229274   4.662   6.097   1.254  0.4132 -0.9732  0.6012
 2620TIP3    H129275   4.739   6.056   1.291  1.5476  0.8723  0.4421
 2620TIP3    H229276   4.675   6.092   1.159  0.4202 -0.5442  0.5760
 2621TIP3   OH229277   5.834   0.821   5.275 -0.3179  0.2967  0.7298
 2621TIP3    H129278   5.918   0.799   5.233  0.0114  2.0644  0.3901
 2621TIP3    H229279   5.849   0.806   5.368 -0.4275 -1.7421  0.4797
 2622TIP3   OH229280   3.891   6.214   4.648  0.7020  0.2183 -0.6163
 2622TIP3    H129281   3.893   6.136   4.592 -1.7815 -1.6750  1.6485
 2622TIP3    H229282   3.799   6.240   4.649  0.5796  0.0290  2.6101
 2623TIP3   OH229283   3.381   1.276   3.166  0.1680  0.6132  0.3814
 2623TIP3    H129284   3.397   1.198   3.114 -0.5703  0.0073  1.0274
 2623TIP3    H229285   3.467   1.302   3.198  0.4553  0.2423 -0.0789
 2624TIP3   OH229286   1.905   2.718  15.135 -0.7406  0.2103  0.3836
 2624TIP3    H129287   1.837   2.680  15.079 -1.1578  1.3191  0.1043
 2624TIP3    H229288   1.983   2.666  15.117 -1.3314 -0.6085  0.1428
 2625TIP3   OH229289   1.366   0.677  13.329 -0.6058 -0.8416 -0.4041
 2625TIP3    H129290   1.365   0.635  13.243 -0.7617  0.7098 -1.1808
 2625TIP3    H229291   1.338   0.608  13.389  1.9874 -2.7281 -1.2033
 2626TIP3   OH229292   2.227   1.729   5.174  0.1252 -0.1524  0.3252
 2626TIP3    H129293   2.245   1.815   5.138 -0.1686 -0.0702  0.3665
 2626TIP3    H229294   2.303   1.708   5.228  0.7677 -0.4618 -0.6723
 2627TIP3   OH229295   2.451   2.960  12.023  0.5084 -0.4528 -0.5290
 2627TIP3    H129296   2.422   3.033  12.079  2.3924 -1.5774  2.1237
 2627TIP3    H229297   2.539   2.984  11.995  0.3558 -0.8279 -1.3777
 2628TIP3   OH229298   6.574   0.268   2.542 -0.1619 -0.2692  0.1501
 2628TIP3    H129299   6.481   0.288   2.552  0.1414  1.8135 -0.7580
 2628TIP3    H229300   6.603   0.244   2.630 -0.9176  2.0891  1.1049
 2629TIP3   OH229301   6.421   6.419   0.822  0.0371 -0.0185 -0.0388
 2629TIP3    H129302   6.362   6.344   0.828 -3.3296  2.3787 -0.5952
 2629TIP3    H229303   6.454   6.430   0.911 -1.3492 -0.7637  0.6033
 2630TIP3   OH229304   0.311   4.382  12.020  0.0197 -0.0942  0.9000
 2630TIP3    H129305   0.402   4.355  12.030  0.6666  1.2970 -0.7611
 2630TIP3    H229306   0.309   4.471  12.056 -0.8357 -0.3267  1.4526
 2631TIP3   OH229307   3.880   0.715  11.360 -0.1071  0.3416  0.0386
 2631TIP3    H129308   3.900   0.624  11.338  0.0083  0.0414  1.2845
 2631TIP3    H229309   3.788   0.726  11.335 -0.2318 -0.2404  0.2211
 2632TIP3   OH229310   2.378   4.470   0.250 -0.2021  0.0451 -0.4652
 2632TIP3    H129311   2.342   4.381   0.248 -0.3342  0.1098 -0.9504
 2632TIP3    H229312   2.460   4.461   0.298 -0.3765 -0.2787 -0.2156
 2633TIP3   OH229313   3.768   3.586   4.929  0.6457 -0.4249  0.7775
 2633TIP3    H129314   3.750   3.627   5.014 -0.1625  2.1297 -0.5313
 2633TIP3    H229315   3.843   3.634   4.895 -0.8008  0.5911 -1.1431
 2634TIP3   OH229316   6.394   2.930   6.305  0.0313  0.3568 -0.6971
 2634TIP3    H129317   6.347   3.014   6.314  1.3828  1.1192 -0.4823
 2634TIP3    H229318   6.334   2.865   6.342 -0.5476  1.4038  0.2760
 2635TIP3   OH229319   1.496   5.187  12.073 -0.1429  0.2472 -0.3491
 2635TIP3    H129320   1.551   5.137  12.134 -0.4008  0.4784  0.0765
 2635TIP3    H229321   1.549   5.264  12.051  0.0746  0.0101 -0.6577
 2636TIP3   OH229322   3.727   0.577   0.525 -0.0098  0.3586  0.3345
 2636TIP3    H129323   3.657   0.520   0.557  0.7528 -0.4639  0.5875
 2636TIP3    H229324   3.734   0.556   0.432 -0.4874  0.8717  0.1777
 2637TIP3   OH229325   1.632   6.397   5.375 -0.5373 -0.7319  0.1218
 2637TIP3    H129326   1.685   6.386   5.296 -0.3837  0.1514  0.0928
 2637TIP3    H229327   1.652   6.486   5.405 -1.1403 -0.8023  0.7503
 2638TIP3   OH229328   0.450   4.998   4.555  0.4403  0.3024 -0.3482
 2638TIP3    H129329   0.434   5.039   4.640  0.5088 -0.9372  0.2894
 2638TIP3    H229330   0.362   4.973   4.524  0.5623 -0.9144  0.2431
 2639TIP3   OH229331   4.091   2.830   4.697  0.1671 -0.5991  0.1992
 2639TIP3    H129332   4.116   2.922   4.707 -1.3337 -0.0528 -0.6113
 2639TIP3    H229333   4.068   2.802   4.785 -0.6720  0.2396  0.2642
 2640TIP3   OH229334   5.719   6.489   3.128 -0.0496 -0.0497  0.3865
 2640TIP3    H129335   5.776   6.534   3.065 -0.3568  0.9069  0.7743
 2640TIP3    H229336   5.670   6.560   3.170 -2.2283 -0.8979 -0.6189
 2641TIP3   OH229337   0.552   4.927  14.411  0.2631 -0.3430  0.4900
 2641TIP3    H129338   0.478   4.867  14.407  1.6279 -2.7826  5.0610
 2641TIP3    H229339   0.519   5.003  14.459  0.3073 -0.8307  1.3212
 2642TIP3   OH229340   3.981   5.663   5.740  0.0318  0.0483 -0.2506
 2642TIP3    H129341   4.062   5.711   5.720  0.5016  0.3237  2.0161
 2642TIP3    H229342   4.009   5.591   5.795 -0.8102 -2.3626 -2.7296
 2643TIP3   OH229343   4.876   3.196   2.775  0.4368  0.0580 -0.2437
 2643TIP3    H129344   4.916   3.278   2.747  1.5145 -1.2839 -2.9789
 2643TIP3    H229345   4.925   3.172   2.854  1.8067  0.8353 -0.8072
 2644TIP3   OH229346   5.073   0.751  15.238 -0.0300  0.0330 -0.1636
 2644TIP3    H129347   5.032   0.809  15.303  0.2229 -0.4477  0.4289
 2644TIP3    H229348   5.077   0.666  15.281 -0.3485 -0.4249 -1.0117
 2645TIP3   OH229349   2.100   5.378   3.285 -0.1715 -0.5596 -0.7622
 2645TIP3    H129350   2.168   5.371   3.218 -0.7246  1.2336 -1.5486
 2645TIP3    H229351   2.119   5.305   3.345  2.1557 -0.3829 -1.1905
 2646TIP3   OH229352   1.569   0.215  12.592 -0.0874  0.0001  0.4349
 2646TIP3    H129353   1.534   0.209  12.502  0.1509 -1.1380  0.4032
 2646TIP3    H229354   1.633   0.286  12.588  0.2379 -0.3295 -0.4059
 2647TIP3   OH229355   0.109   1.355   0.677  0.2302  0.2363  0.1873
 2647TIP3    H129356   0.169   1.292   0.637  0.3009  0.6881 -0.4267
 2647TIP3    H229357   0.046   1.301   0.725  0.7304 -0.2706  0.2809
 2648TIP3   OH229358   3.738   2.066   3.823  0.0927  0.1043  0.2235
 2648TIP3    H129359   3.823   2.068   3.779  0.7622  1.2141  1.4985
 2648TIP3    H229360   3.737   2.146   3.876 -1.4208 -0.2931  0.8403
 2649TIP3   OH229361   2.595   6.563  14.411 -0.1584 -0.2902  0.2210
 2649TIP3    H129362   2.573   6.621  14.338 -0.5431 -0.5985  0.0891
 2649TIP3    H229363   2.615   6.479  14.370 -1.1586 -0.6891  0.5125
 2650TIP3   OH229364   5.647   0.752   2.873 -0.0313 -0.5484 -0.3734
 2650TIP3    H129365   5.718   0.787   2.818 -0.3432 -0.1077 -0.4980
 2650TIP3    H229366   5.691   0.693   2.934  0.9366  2.1150  1.7154
 2651TIP3   OH229367   5.707   0.455  13.497 -0.3061 -0.2795 -0.1055
 2651TIP3    H129368   5.635   0.392  13.501  1.7216 -2.8539 -1.1838
 2651TIP3    H229369   5.722   0.469  13.403  1.6642 -1.1907  0.0235
 2652TIP3   OH229370   4.984   6.399   0.391 -0.1450 -1.0073 -0.4584
 2652TIP3    H129371   4.893   6.421   0.413  0.7532  1.7205  0.8483
 2652TIP3    H229372   4.975   6.330   0.325 -3.1935 -0.1474 -1.1313
 2653TIP3   OH229373   4.743   0.669   2.238 -0.6006  0.3062  0.0918
 2653TIP3    H129374   4.788   0.752   2.251  0.8041 -0.7025  2.2605
 2653TIP3    H229375   4.650   0.691   2.240 -0.2825  1.7140  1.8536
 2654TIP3   OH229376   1.359   0.085   5.255 -0.0886  0.2174 -0.1851
 2654TIP3    H129377   1.400   0.171   5.256 -1.6082  0.9881  1.3426
 2654TIP3    H229378   1.331   0.072   5.165 -0.5724  1.7166 -0.2704
 2655TIP3   OH229379   4.038   6.747   0.826  0.7960  0.1803 -0.3250
 2655TIP3    H129380   4.110   6.684   0.828  0.0184 -0.7211  0.5437
 2655TIP3    H229381   3.974   6.706   0.767  0.5467  0.4538 -0.2420
 2656TIP3   OH229382   6.043   3.732  16.973  0.0128  0.1137 -0.2312
 2656TIP3    H129383   6.093   3.715  16.893  2.6559 -0.9577  1.5167
 2656TIP3    H229384   6.043   3.827  16.982 -1.0258  0.3134 -1.8335
 2657TIP3   OH229385   3.059   0.611   0.885  0.6529  0.0798 -0.2540
 2657TIP3    H129386   3.129   0.578   0.828  0.9538 -1.1517  0.7664
 2657TIP3    H229387   3.000   0.536   0.896 -0.6288  0.9786 -0.7527
 2658TIP3   OH229388   0.552   5.266  15.228  0.2863 -0.0426 -0.2232
 2658TIP3    H129389   0.560   5.346  15.279  0.0345 -0.2653  0.1746
 2658TIP3    H229390   0.512   5.294  15.145  0.6962  0.3177 -0.3018
 2659TIP3   OH229391   2.431   1.589  14.537  0.0338 -0.3756  0.2707
 2659TIP3    H129392   2.444   1.521  14.603 -1.4058 -2.2912 -1.2521
 2659TIP3    H229393   2.471   1.552  14.458 -0.0085  0.9710 -0.3984
 2660TIP3   OH229394   3.572   5.488   4.047 -0.4563 -0.1368 -0.6579
 2660TIP3    H129395   3.613   5.448   3.970 -0.4528 -0.1231 -0.6634
 2660TIP3    H229396   3.639   5.547   4.082 -0.6126  0.1806 -0.8974
 2661TIP3   OH229397   3.185   3.297   4.883  0.1365  0.1289  0.1600
 2661TIP3    H129398   3.136   3.376   4.904 -1.5441 -0.5213 -1.1141
 2661TIP3    H229399   3.187   3.247   4.965 -0.5198  0.5983  0.4690
 2662TIP3   OH229400   1.353   5.929   2.136 -0.1475  0.2044 -0.1664
 2662TIP3    H129401   1.342   6.024   2.142  0.6905  0.2686  0.4743
 2662TIP3    H229402   1.312   5.895   2.215 -1.5869 -0.0858 -1.0077
 2663TIP3   OH229403   5.512   4.197   5.302  0.1963 -0.2480 -0.0118
 2663TIP3    H129404   5.586   4.140   5.321 -0.0081  0.1027  2.0470
 2663TIP3    H229405   5.459   4.195   5.381 -1.8613 -0.2285 -1.2960
 2664TIP3   OH229406   5.612   5.990   4.291  0.1478 -0.2325  0.3951
 2664TIP3    H129407   5.520   5.981   4.266  0.1718 -0.1889  0.2937
 2664TIP3    H229408   5.648   6.053   4.230  0.3215 -0.4770  0.2417
 2665TIP3   OH229409   0.704   0.618   1.243  0.3721 -0.5131 -0.1767
 2665TIP3    H129410   0.610   0.629   1.233  0.3514 -0.7895 -0.2854
 2665TIP3    H229411   0.730   0.688   1.302 -0.0133 -0.8620  0.4203
 2666TIP3   OH229412   4.757   0.616  15.433  0.2430  0.0002 -0.1977
 2666TIP3    H129413   4.784   0.638  15.523  0.0462 -0.7128  0.0464
 2666TIP3    H229414   4.780   0.523  15.424 -2.8016 -0.9352  0.3214
 2667TIP3   OH229415   4.564   0.345  11.998 -0.4457 -0.0776 -0.5620
 2667TIP3    H129416   4.520   0.427  12.023  1.8145  1.3207 -0.8879
 2667TIP3    H229417   4.575   0.351  11.904  1.7107  0.3530 -0.3325
 2668TIP3   OH229418   5.265   0.443   0.696 -0.3225  0.5535 -0.4911
 2668TIP3    H129419   5.302   0.526   0.726  1.1779 -0.2781  0.1121
 2668TIP3    H229420   5.274   0.445   0.601  0.1036  0.9144 -0.4452
 2669TIP3   OH229421   0.982   0.243   0.651  0.1753  0.3376 -0.1267
 2669TIP3    H129422   1.035   0.176   0.693 -0.3074 -0.1972 -0.3708
 2669TIP3    H229423   0.912   0.262   0.714  0.6190  1.0137  0.1779
 2670TIP3   OH229424   5.751   3.524  13.731  0.6024 -0.2940  0.0051
 2670TIP3    H129425   5.822   3.529  13.667  0.0429  1.8331 -0.5515
 2670TIP3    H229426   5.712   3.612  13.730 -0.5059 -0.6983  2.0544
 2671TIP3   OH229427   5.509   6.774   4.953  0.5889 -0.0268  0.6995
 2671TIP3    H129428   5.436   6.782   4.891  0.6666 -2.9583  0.0908
 2671TIP3    H229429   5.468   6.781   5.039 -0.0933  0.3947  0.3486
 2672TIP3   OH229430   1.944   1.252  11.159 -0.3572  0.0695 -0.5334
 2672TIP3    H129431   2.023   1.243  11.213 -0.8479  0.4288  0.2750
 2672TIP3    H229432   1.970   1.221  11.073  0.2347 -1.3460  0.1153
 2673TIP3   OH229433   2.683   2.088   2.333 -0.6155 -0.3435 -0.6450
 2673TIP3    H129434   2.662   2.172   2.373  0.0062 -0.3794 -0.2192
 2673TIP3    H229435   2.625   2.025   2.378  2.3290 -0.9585  2.8065
 2674TIP3   OH229436   0.617   4.835   1.489 -0.1311  0.1572  0.4999
 2674TIP3    H129437   0.619   4.884   1.571 -1.2282  1.5277 -0.2540
 2674TIP3    H229438   0.585   4.748   1.514  3.3445 -0.8297  2.1105
 2675TIP3   OH229439   3.806   2.979  13.664  0.4924  0.7292  0.6334
 2675TIP3    H129440   3.808   2.903  13.606 -0.5882  0.5816  0.7827
 2675TIP3    H229441   3.757   2.949  13.741  1.9945  0.8802  1.7009
 2676TIP3   OH229442   5.898   1.982   4.920  0.5713 -0.0029  0.1546
 2676TIP3    H129443   5.950   1.977   4.839  0.7089 -2.0072  0.3230
 2676TIP3    H229444   5.928   1.908   4.973  0.1944  1.0331  1.8970
 2677TIP3   OH229445   5.283   2.816  14.871  0.1549  0.1607  0.4936
 2677TIP3    H129446   5.240   2.777  14.947  0.2691  1.3670  1.1934
 2677TIP3    H229447   5.377   2.811  14.891  0.3552 -1.5471 -0.5887
 2678TIP3   OH229448   4.453   6.633   0.424  0.2348  0.1688  0.1285
 2678TIP3    H129449   4.401   6.600   0.351  1.9311 -0.6058 -0.8016
 2678TIP3    H229450   4.518   6.564   0.440 -2.1623 -1.4337  4.7958
 2679TIP3   OH229451   1.184   1.858   3.417  0.3151 -0.2840 -0.3141
 2679TIP3    H129452   1.178   1.843   3.511  3.0526 -1.3087 -0.2159
 2679TIP3    H229453   1.191   1.953   3.409 -3.4404  0.1920  0.1321
 2680TIP3   OH229454   6.593   6.570   1.419  0.2040 -0.8844  0.0288
 2680TIP3    H129455   6.610   6.656   1.380  0.1702 -0.4923  0.8689
 2680TIP3    H229456   6.637   6.572   1.504 -0.9734 -1.1761  0.6738
 2681TIP3   OH229457   0.505   4.735  15.962  0.3386 -0.0601 -0.3759
 2681TIP3    H129458   0.532   4.671  15.896  0.6311  0.8486 -1.1505
 2681TIP3    H229459   0.410   4.725  15.968  0.4145 -0.7969 -0.2316
 2682TIP3   OH229460   1.592   4.240   5.188 -0.2429 -0.2450 -0.1310
 2682TIP3    H129461   1.594   4.226   5.283 -0.9456 -0.1378 -0.0950
 2682TIP3    H229462   1.625   4.159   5.151  0.9296  0.0542  0.2261
 2683TIP3   OH229463   5.861   5.188  15.988 -0.6590  0.2095 -0.1019
 2683TIP3    H129464   5.866   5.155  15.898 -0.0191  0.6583 -0.2360
 2683TIP3    H229465   5.916   5.129  16.039  0.5280  1.0449 -0.3511
 2684TIP3   OH229466   3.779   2.563  16.751 -0.2679 -0.2955 -0.2872
 2684TIP3    H129467   3.706   2.584  16.692  0.2091  1.6174 -0.2409
 2684TIP3    H229468   3.848   2.532  16.693  0.2762  1.7823 -0.8367
 2685TIP3   OH229469   5.210   3.839  13.233 -0.1349  0.5789 -0.0552
 2685TIP3    H129470   5.255   3.892  13.299  2.1729 -0.7814 -0.4245
 2685TIP3    H229471   5.127   3.814  13.274  1.3163 -0.4460  2.5122
 2686TIP3   OH229472   1.717   0.748  17.050  0.0026 -0.2514  0.2215
 2686TIP3    H129473   1.731   0.802  17.128 -4.4103  3.0982 -0.9513
 2686TIP3    H229474   1.737   0.806  16.977  0.0725 -1.9959 -1.2154
 2687TIP3   OH229475   4.896   5.433  14.610 -0.5466  0.0851  0.1605
 2687TIP3    H129476   4.889   5.357  14.552 -1.0901  0.2992 -0.0603
 2687TIP3    H229477   4.961   5.407  14.675  0.6996  0.1612 -1.0232
 2688TIP3   OH229478   4.631   3.621  16.134  0.3906  0.0322 -0.0238
 2688TIP3    H129479   4.584   3.548  16.093  0.1802 -0.0522  0.3712
 2688TIP3    H229480   4.563   3.674  16.175  0.2761  1.7076 -2.2108
 2689TIP3   OH229481   3.489   0.451   4.705  0.3360 -0.2965 -0.7492
 2689TIP3    H129482   3.462   0.361   4.725 -0.3932 -0.5896 -2.7753
 2689TIP3    H229483   3.570   0.463   4.753 -0.8777 -1.1047  1.6578
 2690TIP3   OH229484   3.395   0.645  15.345 -0.2109  0.6090  0.2138
 2690TIP3    H129485   3.427   0.575  15.288  1.5420 -0.2289  2.0804
 2690TIP3    H229486   3.446   0.722  15.320 -0.0890  0.4710  0.0407
 2691TIP3   OH229487   2.192   5.898   3.338 -0.1978  0.2819  0.0414
 2691TIP3    H129488   2.220   5.823   3.285  0.8441  1.1949 -0.7368
 2691TIP3    H229489   2.113   5.929   3.294  0.2888  0.6265 -0.6195
 2692TIP3   OH229490   3.110   4.343  15.066  0.6201 -0.3641 -0.2571
 2692TIP3    H129491   3.099   4.438  15.072  1.8526 -0.1778 -0.7599
 2692TIP3    H229492   3.032   4.313  15.019 -0.0564  0.3112  0.3833
 2693TIP3   OH229493   4.392   3.196  14.854 -0.0017 -0.0876  0.1971
 2693TIP3    H129494   4.406   3.287  14.830 -0.1411 -0.2307 -0.4487
 2693TIP3    H229495   4.449   3.146  14.796  1.5112 -0.3277  1.8161
 2694TIP3   OH229496   1.978   5.897  16.917 -0.5365  0.6830 -0.0033
 2694TIP3    H129497   1.933   5.842  16.981  0.1509  0.6005  0.4148
 2694TIP3    H229498   2.039   5.950  16.969  0.3617  0.2893 -0.6261
 2695TIP3   OH229499   3.814   2.965   2.947 -0.2205  0.4723  0.7479
 2695TIP3    H129500   3.825   2.944   3.040 -2.5745  2.1938  1.5201
 2695TIP3    H229501   3.728   2.929   2.925  1.0720 -1.6208 -1.3900
 2696TIP3   OH229502   2.758   5.925  10.825 -0.0685  0.5067 -0.2902
 2696TIP3    H129503   2.777   5.928  10.919  0.9232 -0.7455 -0.4141
 2696TIP3    H229504   2.772   5.833  10.801 -0.0043  0.8643 -1.7205
 2697TIP3   OH229505   5.402   2.317  15.674  0.2433 -0.4843 -0.1004
 2697TIP3    H129506   5.439   2.318  15.586  0.1086  0.3679 -0.1554
 2697TIP3    H229507   5.471   2.352  15.730  0.7853 -2.1781  0.3358
 2698TIP3   OH229508   5.182   1.454   4.172  0.2271  0.1141 -0.3956
 2698TIP3    H129509   5.226   1.539   4.169  0.2111  0.1400  0.0496
 2698TIP3    H229510   5.220   1.410   4.248 -1.1625  0.4919  0.5547
 2699TIP3   OH229511   4.521   1.543   5.977 -0.3440  0.3730  0.1615
 2699TIP3    H129512   4.445   1.594   6.007  1.1451  2.1520  1.1556
 2699TIP3    H229513   4.595   1.581   6.025  1.5711  0.4393 -2.6275
 2700TIP3   OH229514   0.678   0.707  13.728  0.4751  0.2216  0.0274
 2700TIP3    H129515   0.709   0.796  13.744  2.8854 -0.5110 -0.1594
 2700TIP3    H229516   0.641   0.709  13.640 -1.8595  1.5679  0.9709
 2701TIP3   OH229517   6.447   0.841   6.278  0.5122  0.3785  0.5883
 2701TIP3    H129518   6.460   0.750   6.254  0.0161  0.8532 -1.7140
 2701TIP3    H229519   6.533   0.871   6.308  0.7378 -0.7362  1.1207
 2702TIP3   OH229520   6.041   6.283  13.759  0.2281 -0.4099 -0.2044
 2702TIP3    H129521   5.956   6.297  13.718 -0.3402 -1.1265  0.7026
 2702TIP3    H229522   6.021   6.271  13.852  1.1316 -2.2627 -0.2068
 2703TIP3   OH229523   0.356   0.813   2.406 -0.1361  0.4601  0.4915
 2703TIP3    H129524   0.400   0.867   2.471 -0.7085  0.5110  0.8461
 2703TIP3    H229525   0.338   0.873   2.333  2.2081 -0.0082 -0.5841
 2704TIP3   OH229526   0.573   0.044  15.888  0.5087  0.3772 -0.1813
 2704TIP3    H129527   0.616   0.032  15.803  2.0411 -0.7176  0.6801
 2704TIP3    H229528   0.600   0.131  15.917  1.2394  0.1612 -0.1779
 2705TIP3   OH229529   3.234   4.411   0.597 -0.0926  0.1186 -0.5829
 2705TIP3    H129530   3.157   4.357   0.617  0.2824 -0.4900 -0.7340
 2705TIP3    H229531   3.199   4.489   0.554 -0.5497 -0.7735 -1.9154
 2706TIP3   OH229532   5.412   2.530   4.075  0.6262 -0.0470 -0.5517
 2706TIP3    H129533   5.447   2.589   4.142  0.5865 -0.6104 -0.0270
 2706TIP3    H229534   5.448   2.444   4.098 -1.5289 -0.7674  0.3401
 2707TIP3   OH229535   1.808   2.385   3.926  0.0708  0.4345  0.7455
 2707TIP3    H129536   1.801   2.356   4.017 -1.6220  1.4660  0.9726
 2707TIP3    H229537   1.901   2.372   3.904  0.0876 -1.8777  1.8879
 2708TIP3   OH229538   3.556   4.994   5.417  0.1589  0.4115 -0.2137
 2708TIP3    H129539   3.568   5.087   5.437 -1.1430  0.5249  0.1047
 2708TIP3    H229540   3.492   4.991   5.347 -0.5089 -0.2674  0.3972
 2709TIP3   OH229541   0.290   2.883   1.952  0.3412  0.3521  0.0839
 2709TIP3    H129542   0.209   2.869   1.903 -0.0832  1.2762  0.4952
 2709TIP3    H229543   0.343   2.938   1.895 -0.1156  1.3512  0.6119
 2710TIP3   OH229544   2.344   1.366   4.928 -0.0402 -0.3887  0.2631
 2710TIP3    H129545   2.363   1.458   4.912  1.4594 -0.4392  1.5143
 2710TIP3    H229546   2.251   1.365   4.954 -0.0786  0.7594  0.2146
 2711TIP3   OH229547   6.765   5.414  12.180 -0.5688  0.0731  0.3530
 2711TIP3    H129548   6.777   5.507  12.161 -1.3940  0.1953  0.3618
 2711TIP3    H229549   6.709   5.382  12.110  1.9914 -1.1173 -1.2806
 2712TIP3   OH229550   3.453   3.343   3.175  0.2614  0.8240 -0.1210
 2712TIP3    H129551   3.429   3.253   3.197  2.4864  0.3409  0.6065
 2712TIP3    H229552   3.384   3.373   3.117 -0.1412 -1.6201 -1.0100
 2713TIP3   OH229553   6.241   4.992   3.026 -0.3710  0.0882 -0.6998
 2713TIP3    H129554   6.316   5.051   3.021 -0.2173 -0.0930 -0.5093
 2713TIP3    H229555   6.177   5.041   3.078  0.1518 -0.3369  0.3622
 2714TIP3   OH229556   3.793   2.986   1.865 -0.2446 -0.1278 -0.4027
 2714TIP3    H129557   3.884   3.018   1.870 -0.8253  1.4955  0.5763
 2714TIP3    H229558   3.765   3.008   1.777  0.1895 -0.2807 -0.5829
 2715TIP3   OH229559   6.058   2.430   4.843  0.0753 -0.3793  0.0176
 2715TIP3    H129560   6.098   2.439   4.757  2.4075 -3.2315  0.6428
 2715TIP3    H229561   6.077   2.513   4.888  0.1476  0.5399 -1.6427
 2716TIP3   OH229562   6.238   2.082  16.711  0.0815  0.0953  0.4665
 2716TIP3    H129563   6.296   2.158  16.705  0.8421 -0.2390  2.6740
 2716TIP3    H229564   6.250   2.036  16.628 -0.1246  2.1543 -0.7823
 2717TIP3   OH229565   5.208   1.637  12.407 -0.0355  0.0125 -0.1034
 2717TIP3    H129566   5.164   1.685  12.478 -0.0217 -0.4379  0.2127
 2717TIP3    H229567   5.139   1.624  12.342 -0.3157 -0.4743  0.2820
 2718TIP3   OH229568   1.556   5.130  14.470 -0.9063 -0.7376 -0.2456
 2718TIP3    H129569   1.577   5.201  14.408 -1.7153  0.3215  0.6434
 2718TIP3    H229570   1.597   5.053  14.432  0.6116  0.3288 -0.8984
 2719TIP3   OH229571   6.212   2.947   4.949 -0.5763  0.0234  0.6309
 2719TIP3    H129572   6.294   2.987   4.920 -0.8716 -0.4278 -0.8894
 2719TIP3    H229573   6.221   2.940   5.044  0.6539  1.0608  0.6132
 2720TIP3   OH229574   1.089   1.903  11.012 -0.1539 -0.3545 -0.6757
 2720TIP3    H129575   1.086   1.831  10.948 -0.0044 -0.0973 -0.9722
 2720TIP3    H229576   1.091   1.982  10.959 -1.6963 -0.0595 -0.3595
 2721TIP3   OH229577   5.976   4.043  12.874  0.5838  0.1647 -0.0631
 2721TIP3    H129578   6.047   4.065  12.815  0.1477 -1.0246 -1.0736
 2721TIP3    H229579   5.922   3.980  12.825  0.1817 -0.8296  1.5620
 2722TIP3   OH229580   4.475   0.923   2.252  0.1465  0.0389  0.2342
 2722TIP3    H129581   4.460   0.847   2.196 -0.0559  2.0609 -2.6813
 2722TIP3    H229582   4.389   0.964   2.261  0.4882  0.7018  0.5816
 2723TIP3   OH229583   0.619   6.376  16.519  0.4373  0.2170 -0.4251
 2723TIP3    H129584   0.636   6.448  16.458  0.3056 -0.3222 -1.1192
 2723TIP3    H229585   0.703   6.332  16.529  0.9213  1.4571  1.3449
 2724TIP3   OH229586   4.494   5.329  11.958  0.5305  0.0363 -0.3446
 2724TIP3    H129587   4.440   5.303  11.883 -0.6080  0.9346  0.1275
 2724TIP3    H229588   4.516   5.247  12.002 -1.1983 -0.3076 -0.0632
 2725TIP3   OH229589   2.508   1.041  15.667 -0.2684 -1.0912 -0.0612
 2725TIP3    H129590   2.584   1.098  15.653 -1.0796  0.1491  0.4278
 2725TIP3    H229591   2.532   0.988  15.743 -0.2817  0.0194  0.7365
 2726TIP3   OH229592   3.485   0.208   4.836 -0.3950  0.4779  0.1543
 2726TIP3    H129593   3.446   0.153   4.903 -0.7899  0.9837  0.3436
 2726TIP3    H229594   3.502   0.148   4.763 -0.7525  0.0951  0.3816
 2727TIP3   OH229595   2.368   4.372  12.840 -0.8715  0.1772 -0.7405
 2727TIP3    H129596   2.420   4.388  12.761  1.4226  0.2636  0.7102
 2727TIP3    H229597   2.352   4.278  12.840  1.3389 -0.2600 -0.0824
 2728TIP3   OH229598   3.089   6.024  14.868  0.1434 -0.2896  0.2217
 2728TIP3    H129599   3.094   6.074  14.786 -0.0203 -0.0189  0.3741
 2728TIP3    H229600   3.173   6.041  14.911  0.4515 -0.8669 -0.1328
 2729TIP3   OH229601   2.728   3.329   2.582  0.3294  0.5709  0.1434
 2729TIP3    H129602   2.672   3.398   2.546  0.5756  0.4840 -0.4018
 2729TIP3    H229603   2.742   3.356   2.673 -1.2686  0.1740  0.5386
 2730TIP3   OH229604   1.504   6.540  16.523  0.8318 -0.3520 -0.0908
 2730TIP3    H129605   1.558   6.466  16.494 -0.2008 -0.3976 -2.0703
 2730TIP3    H229606   1.443   6.554  16.451  0.1267  1.5864  0.8307
 2731TIP3   OH229607   6.275   3.001  15.863  0.4193  0.3742  0.2057
 2731TIP3    H129608   6.355   2.953  15.841  0.8427  1.5008 -0.8611
 2731TIP3    H229609   6.262   2.985  15.956  1.8040  0.0349  0.3661
 2732TIP3   OH229610   3.553   0.412   0.685  0.2626  0.0122 -0.4642
 2732TIP3    H129611   3.489   0.348   0.653 -1.9774  1.2741  1.2318
 2732TIP3    H229612   3.555   0.398   0.780  0.5984  1.6649 -0.2064
 2733TIP3   OH229613   5.967   1.674  17.017 -0.1888  0.1473 -0.2386
 2733TIP3    H129614   5.996   1.750  16.966 -0.9704  1.3365  1.0249
 2733TIP3    H229615   5.878   1.696  17.044 -0.2836 -1.0578  0.4839
 2734TIP3   OH229616   2.510   4.888   1.264  0.3289 -0.2365  0.1222
 2734TIP3    H129617   2.493   4.939   1.343  1.1066 -0.3078  0.3361
 2734TIP3    H229618   2.586   4.834   1.285  1.6144  0.9578 -1.1979
 2735TIP3   OH229619   2.770   4.798  16.884 -0.2022 -0.0396 -0.6415
 2735TIP3    H129620   2.741   4.722  16.832  1.5500 -0.4201 -1.1097
 2735TIP3    H229621   2.766   4.767  16.975 -2.4135  0.3427 -0.5399
 2736TIP3   OH229622   2.580   5.455   2.847 -0.5570 -0.0256 -0.7898
 2736TIP3    H129623   2.660   5.476   2.896 -1.8266  1.7127  0.7137
 2736TIP3    H229624   2.567   5.361   2.860 -1.3942  0.4698  3.3298
 2737TIP3   OH229625   6.269   1.101  16.123 -0.2181 -0.2148  0.8783
 2737TIP3    H129626   6.194   1.124  16.178  0.0735 -0.9844  1.6379
 2737TIP3    H229627   6.320   1.040  16.177  1.5947  1.2062  0.8473
 2738TIP3   OH229628   4.160   6.265   5.755 -0.0362 -0.2662  0.0422
 2738TIP3    H129629   4.239   6.312   5.726 -0.3263  0.2464  0.0591
 2738TIP3    H229630   4.104   6.262   5.678  0.1601 -0.9857 -0.0787
 2739TIP3   OH229631   6.680   4.813   3.613  0.2033 -0.7132  0.4679
 2739TIP3    H129632   6.749   4.817   3.547 -0.4055 -2.8814 -0.3792
 2739TIP3    H229633   6.725   4.828   3.696  1.2213  0.5450 -0.2683
 2740TIP3   OH229634   1.950   4.578   1.611  0.2425 -0.3903 -0.7402
 2740TIP3    H129635   1.905   4.641   1.668 -1.2868 -2.7789  0.8668
 2740TIP3    H229636   1.912   4.593   1.524 -0.9152  0.1456 -0.1631
 2741TIP3   OH229637   5.940   1.252   2.253 -0.5222  0.8703  0.6996
 2741TIP3    H129638   5.991   1.174   2.274  0.1133  1.0496 -0.1491
 2741TIP3    H229639   5.866   1.250   2.314 -0.5571 -0.4401  0.6262
 2742TIP3   OH229640   3.128   0.505  14.489  0.5325 -0.0716  0.0601
 2742TIP3    H129641   3.174   0.422  14.482  2.1727  0.8232 -0.2728
 2742TIP3    H229642   3.157   0.555  14.413 -1.1116  0.5084 -0.2321
 2743TIP3   OH229643   3.098   1.937  12.002  0.7696  0.0277  0.2707
 2743TIP3    H129644   3.017   1.959  12.049  0.5125 -1.5246  0.6012
 2743TIP3    H229645   3.133   1.861  12.049  1.7836 -0.0739 -0.6146
 2744TIP3   OH229646   1.560   2.714   4.385 -0.2445  0.2288  0.4057
 2744TIP3    H129647   1.630   2.659   4.350 -0.9451  0.6247 -1.7571
 2744TIP3    H229648   1.534   2.671   4.466  2.5414  0.1362  1.3656
 2745TIP3   OH229649   0.850   2.375  12.104  0.1399  0.4517 -0.2994
 2745TIP3    H129650   0.807   2.460  12.112  1.4762  1.0468  0.8977
 2745TIP3    H229651   0.940   2.390  12.132  0.3752 -1.3890  0.0905
 2746TIP3   OH229652   4.608   1.306  12.488  0.2469  0.1562  0.0914
 2746TIP3    H129653   4.602   1.322  12.582  2.1719 -0.4211  0.3567
 2746TIP3    H229654   4.594   1.212  12.479 -2.1948  0.5073 -0.4973
 2747TIP3   OH229655   2.813   6.391  15.644 -0.1574 -0.0375 -0.1809
 2747TIP3    H129656   2.783   6.479  15.618  0.7321  1.1064  2.3641
 2747TIP3    H229657   2.764   6.332  15.586 -0.7743  2.0994 -2.0117
 2748TIP3   OH229658   6.454   5.613   2.833  0.7820  0.4256 -0.7088
 2748TIP3    H129659   6.418   5.663   2.759 -0.9770  1.0727  0.4971
 2748TIP3    H229660   6.446   5.522   2.807  0.6575  0.6576 -1.5119
 2749TIP3   OH229661   0.588   2.950  11.991 -0.4188  0.3151  0.4930
 2749TIP3    H129662   0.602   3.040  11.959  0.5991 -0.4310 -1.3058
 2749TIP3    H229663   0.656   2.899  11.948 -2.1234 -1.6558  0.0059
 2750TIP3   OH229664   4.083   3.529  11.612 -0.0562 -0.3122  0.1525
 2750TIP3    H129665   4.027   3.599  11.581 -0.7499 -0.9251 -0.0124
 2750TIP3    H229666   4.164   3.572  11.637 -0.3373  0.4953 -0.2930
 2751TIP3   OH229667   2.457   4.634  12.952 -0.3313 -0.4353  0.2347
 2751TIP3    H129668   2.438   4.547  12.918  1.8306 -0.7724 -0.2560
 2751TIP3    H229669   2.552   4.636  12.962 -0.4581  1.3818  1.6155
 2752TIP3   OH229670   5.424   2.689   5.416 -0.1728  0.8232 -0.4686
 2752TIP3    H129671   5.357   2.680   5.483 -0.7032 -0.4472 -1.1247
 2752TIP3    H229672   5.434   2.784   5.404 -1.7754  1.0453 -0.2715
 2753TIP3   OH229673   0.058   3.318   3.062  0.7553  0.0411 -0.0265
 2753TIP3    H129674  -0.007   3.384   3.039  0.5913  0.2636  1.0228
 2753TIP3    H229675   0.043   3.300   3.155  0.2111 -2.1400 -0.4884
 2754TIP3   OH229676   4.394   0.886   2.768 -0.7671  0.0927 -0.0447
 2754TIP3    H129677   4.476   0.930   2.746 -0.4025 -0.3883  0.3436
 2754TIP3    H229678   4.420   0.809   2.818 -1.4027 -0.5817 -0.7258
 2755TIP3   OH229679   3.337   2.129  14.062  0.0554  0.3282 -0.1805
 2755TIP3    H129680   3.291   2.054  14.025 -1.5498  0.1342  1.9944
 2755TIP3    H229681   3.426   2.099  14.075  0.1158 -0.2702 -1.8106
 2756TIP3   OH229682   5.784   0.403  14.527  0.2580 -0.7913 -0.1752
 2756TIP3    H129683   5.772   0.334  14.592 -1.0976 -2.3287 -1.9262
 2756TIP3    H229684   5.727   0.475  14.556 -0.2808 -1.4328  0.3824
 2757TIP3   OH229685   2.373   3.657  15.543  0.2701  0.3285  0.0107
 2757TIP3    H129686   2.320   3.674  15.466 -0.7551  2.7821  1.1605
 2757TIP3    H229687   2.318   3.685  15.617  1.7430 -0.6075  1.5320
 2758TIP3   OH229688   1.712   3.754  13.881  0.0378 -0.3535 -0.6336
 2758TIP3    H129689   1.807   3.766  13.883 -0.2036  2.0901 -1.1235
 2758TIP3    H229690   1.685   3.787  13.795 -1.5317  1.8969  0.6193
 2759TIP3   OH229691   5.347   5.331  14.782  0.4781 -0.1945  0.4104
 2759TIP3    H129692   5.325   5.261  14.844  0.1747  0.0384  0.5689
 2759TIP3    H229693   5.316   5.411  14.824  0.8315  0.0379  0.2313
 2760TIP3   OH229694   0.442   5.437   3.639 -0.2751 -0.2112  0.7936
 2760TIP3    H129695   0.446   5.497   3.564  3.7183 -0.6127  0.4618
 2760TIP3    H229696   0.387   5.483   3.703 -0.0049  2.3067 -0.6511
 2761TIP3   OH229697   3.432   3.314   1.207 -0.3052  0.1075  0.4392
 2761TIP3    H129698   3.411   3.350   1.294  0.0914 -0.2500  0.6817
 2761TIP3    H229699   3.474   3.231   1.225 -1.0772 -0.4176 -0.1254
 2762TIP3   OH229700   5.025   1.353   5.531  0.0432 -0.3461 -0.4393
 2762TIP3    H129701   5.107   1.395   5.554  0.4217 -1.7507  1.0193
 2762TIP3    H229702   4.958   1.401   5.580  0.2396 -0.2716 -0.2419
 2763TIP3   OH229703   0.703   6.015  12.398  0.2815  0.5380 -0.6424
 2763TIP3    H129704   0.746   6.009  12.312 -0.9271  1.9321 -1.3785
 2763TIP3    H229705   0.705   6.108  12.420 -1.4195  0.5111 -0.2305
 2764TIP3   OH229706   2.313   2.691   4.447  0.0925 -0.4556 -0.2998
 2764TIP3    H129707   2.241   2.688   4.384 -0.9317 -1.1143  0.8623
 2764TIP3    H229708   2.320   2.784   4.471 -1.5907 -0.5879  0.8859
 2765TIP3   OH229709   1.091   0.615  13.490 -0.3216  0.1349  0.2975
 2765TIP3    H129710   1.026   0.683  13.476 -1.8008 -0.9787  1.3661
 2765TIP3    H229711   1.133   0.639  13.573  1.0037  1.0922 -0.6093
 2766TIP3   OH229712   3.564   2.275  12.765  0.4278  0.6134 -0.2707
 2766TIP3    H129713   3.529   2.342  12.824  0.5507  0.8987 -0.5186
 2766TIP3    H229714   3.544   2.307  12.678 -0.2894 -0.1036 -0.3806
 2767TIP3   OH229715   1.403   5.996  14.969 -0.8042  0.1016  0.1701
 2767TIP3    H129716   1.400   5.951  15.054 -1.3648 -0.4395 -0.1210
 2767TIP3    H229717   1.312   6.021  14.952 -1.0739 -1.5700 -1.1761
 2768TIP3   OH229718   5.702   0.415  12.561 -0.0299  0.4595 -0.1581
 2768TIP3    H129719   5.643   0.417  12.636 -1.1989  1.2453 -1.0685
 2768TIP3    H229720   5.649   0.380  12.490  1.2599 -0.9240 -0.4938
 2769TIP3   OH229721   2.274   2.426   3.358 -0.8346 -0.0132  0.2460
 2769TIP3    H129722   2.244   2.462   3.441 -2.3507 -1.7692  0.5451
 2769TIP3    H229723   2.203   2.366   3.331  1.3100 -2.4775 -0.3193
 2770TIP3   OH229724   5.299   5.578   2.669  0.1327  0.1252  0.6105
 2770TIP3    H129725   5.246   5.509   2.632 -0.4878  1.3071 -0.8132
 2770TIP3    H229726   5.388   5.542   2.672 -0.4046 -1.2027  1.2628
 2771TIP3   OH229727   2.613   0.523   0.907 -0.0744  0.0348 -0.1066
 2771TIP3    H129728   2.695   0.520   0.955 -0.3300 -1.5095  0.2839
 2771TIP3    H229729   2.595   0.432   0.883 -0.1784  0.6783 -2.8025
 2772TIP3   OH229730   0.366   1.744   3.099 -0.0799  0.3772 -0.3006
 2772TIP3    H129731   0.304   1.793   3.152 -0.6241 -0.8131  0.1990
 2772TIP3    H229732   0.451   1.757   3.143 -0.5539 -0.7800  1.0639
 2773TIP3   OH229733   3.863   5.165  14.507  0.9338  0.2037  0.2411
 2773TIP3    H129734   3.917   5.093  14.539  0.9364  0.7765  1.5734
 2773TIP3    H229735   3.787   5.122  14.466  1.2585 -0.5562  0.4226
 2774TIP3   OH229736   0.408   1.890  12.459 -0.3847 -0.3651  0.0605
 2774TIP3    H129737   0.472   1.823  12.437 -0.6750 -0.4342 -0.5953
 2774TIP3    H229738   0.327   1.861  12.417  0.0940  1.7104 -2.6024
 2775TIP3   OH229739   4.043   5.311   1.953 -0.1061  0.6104 -0.5558
 2775TIP3    H129740   4.106   5.380   1.929  0.7764 -0.8845 -2.8542
 2775TIP3    H229741   4.012   5.277   1.870  1.0002 -3.1065  0.3751
 2776TIP3   OH229742   3.389   6.518  16.077 -0.0268 -0.3686 -0.7399
 2776TIP3    H129743   3.453   6.569  16.127 -1.4322  1.4809 -0.7383
 2776TIP3    H229744   3.401   6.428  16.108  2.0384  0.0288 -0.2236
 2777TIP3   OH229745   4.638   5.162  16.128 -0.1799  0.2512 -0.1732
 2777TIP3    H129746   4.550   5.192  16.152 -0.3678 -0.3192 -0.1159
 2777TIP3    H229747   4.697   5.230  16.160 -0.7314  1.7569 -2.2055
 2778TIP3   OH229748   5.324   4.127  10.780 -0.1225 -0.0666  0.1662
 2778TIP3    H129749   5.365   4.203  10.738 -1.9925  0.9736  0.1470
 2778TIP3    H229750   5.241   4.160  10.815  0.0728 -1.5479  2.2485
 2779TIP3   OH229751   6.569   5.285   2.421  0.3225  0.2159  0.1308
 2779TIP3    H129752   6.627   5.210   2.435 -1.3642 -1.4353 -1.2759
 2779TIP3    H229753   6.629   5.359   2.404  2.0313 -0.6765  1.8283
 2780TIP3   OH229754   3.191   5.755   5.283 -0.4589  0.1749 -0.1540
 2780TIP3    H129755   3.189   5.811   5.206 -0.6942  1.9130  1.0707
 2780TIP3    H229756   3.124   5.689   5.266 -0.7689  0.7547 -1.2694
 2781TIP3   OH229757   2.095   5.054  13.003  0.6387 -0.2442 -0.2608
 2781TIP3    H129758   2.136   5.074  12.919  1.6491  0.8726  0.4636
 2781TIP3    H229759   2.168   5.030  13.060  0.2742  1.3816  0.9563
 2782TIP3   OH229760   5.458   4.171  11.542  0.5224  0.0220  0.1182
 2782TIP3    H129761   5.364   4.177  11.522  0.6304 -0.2465 -0.5008
 2782TIP3    H229762   5.501   4.201  11.462  0.9845 -1.9991 -0.4458
 2783TIP3   OH229763   1.097   5.240   0.623  0.0163 -0.0273  0.1212
 2783TIP3    H129764   1.092   5.254   0.529 -0.9541 -1.3710 -0.0651
 2783TIP3    H229765   1.086   5.327   0.661 -0.8983  0.3692 -0.9909
 2784TIP3   OH229766   4.648   1.142   1.288 -0.1737  0.3022  1.3037
 2784TIP3    H129767   4.667   1.095   1.369  0.6296 -2.8453 -0.5534
 2784TIP3    H229768   4.574   1.096   1.249 -0.8574  2.0423  0.4182
 2785TIP3   OH229769   0.241   1.522   0.841 -0.2359  0.0554 -0.0582
 2785TIP3    H129770   0.277   1.463   0.907 -1.9934  0.7130  1.6048
 2785TIP3    H229771   0.196   1.465   0.779 -1.3573 -0.4717  1.1690
 2786TIP3   OH229772   0.963   2.108   5.975  0.1018 -0.3571  1.0670
 2786TIP3    H129773   0.937   2.055   6.051 -3.3035  2.2744  2.0038
 2786TIP3    H229774   1.026   2.171   6.011  1.6486 -1.6118  0.6749
 2787TIP3   OH229775   6.255   6.545   3.690 -1.3063 -0.2015  0.3440
 2787TIP3    H129776   6.331   6.520   3.742 -2.2368 -2.5519  0.7045
 2787TIP3    H229777   6.249   6.640   3.700  1.4871  0.0685  0.3462
 2788TIP3   OH229778   2.642   4.324  14.725  0.4983  0.0175  0.1524
 2788TIP3    H129779   2.724   4.283  14.751 -0.3490 -1.1981  0.9876
 2788TIP3    H229780   2.630   4.299  14.634  0.4501 -0.8443  0.3902
 2789TIP3   OH229781   0.190   1.027  11.505  0.4328  0.0214 -0.9986
 2789TIP3    H129782   0.237   0.953  11.543  0.6860  0.3576 -0.6505
 2789TIP3    H229783   0.210   1.022  11.411  0.8798 -0.0480 -0.9044
 2790TIP3   OH229784   4.277   0.257  11.831 -0.2690  0.6603  0.1594
 2790TIP3    H129785   4.304   0.322  11.895 -0.0713  1.1492 -0.4080
 2790TIP3    H229786   4.353   0.199  11.821 -0.3767  0.4560  0.5221
 2791TIP3   OH229787   3.363   2.768  12.988  0.2667  0.1778  0.5300
 2791TIP3    H129788   3.412   2.845  12.959  0.7717  0.5823  2.2883
 2791TIP3    H229789   3.430   2.700  12.997  0.2408  0.2410  1.2852
 2792TIP3   OH229790   0.697   1.362   0.403  0.2158 -0.0548  0.0531
 2792TIP3    H129791   0.728   1.288   0.351  1.0129 -0.3560  0.9414
 2792TIP3    H229792   0.764   1.375   0.470 -0.7848  0.3379  1.0044
 2793TIP3   OH229793   6.631   6.112   4.786  0.0868 -0.6240 -0.1210
 2793TIP3    H129794   6.621   6.146   4.874  2.7832 -1.6608  0.6887
 2793TIP3    H229795   6.542   6.111   4.750 -1.4137 -1.9502  3.2465
 2794TIP3   OH229796   5.288   2.513   5.128  0.3679  0.0879  0.4991
 2794TIP3    H129797   5.283   2.602   5.093  0.3745  1.2772  3.3079
 2794TIP3    H229798   5.381   2.492   5.129  0.3412 -0.1664 -0.5383
 2795TIP3   OH229799   3.775   6.684   5.724 -0.7335  0.5133  0.4347
 2795TIP3    H129800   3.715   6.739   5.774  0.1503  1.1337  0.8468
 2795TIP3    H229801   3.720   6.616   5.687 -1.6030  0.7489  1.2499
 2796TIP3   OH229802   3.972   2.462  12.405  0.6282  0.4150  0.3962
 2796TIP3    H129803   3.993   2.549  12.371  1.0736  0.8012  1.5890
 2796TIP3    H229804   4.041   2.444  12.470  0.0686 -0.4684  0.7706
 2797TIP3   OH229805   1.111   1.562  11.582  0.5414  0.2118 -0.6197
 2797TIP3    H129806   1.112   1.467  11.570  0.0147  0.0887  0.2337
 2797TIP3    H229807   1.057   1.595  11.510  1.7636 -0.0024 -1.6738
 2798TIP3   OH229808   1.551   6.329  13.704  0.3564 -0.4567  0.3627
 2798TIP3    H129809   1.504   6.279  13.637  1.2465 -0.8701  0.0353
 2798TIP3    H229810   1.604   6.264  13.750 -1.2200 -0.4027  2.3622
 2799TIP3   OH229811   2.487   2.615   1.353  0.4158  0.0708 -0.1188
 2799TIP3    H129812   2.422   2.654   1.411  0.8208 -0.4680  0.7188
 2799TIP3    H229813   2.491   2.674   1.277 -0.2344  0.7002  0.3315
 2800TIP3   OH229814   5.008   5.591   1.693  0.8853  0.0719  0.0887
 2800TIP3    H129815   5.022   5.542   1.774  1.1095  0.7621  0.4765
 2800TIP3    H229816   4.913   5.589   1.680  1.0417 -2.5750 -1.2536
 2801TIP3   OH229817   0.542   0.734  10.818 -0.0066 -0.0660 -0.1971
 2801TIP3    H129818   0.596   0.812  10.817 -2.0117  1.3858 -1.0115
 2801TIP3    H229819   0.595   0.667  10.774  1.9569  0.6250  1.0137
 2802TIP3   OH229820   1.700   0.607  13.161 -0.1167 -0.7661  0.4689
 2802TIP3    H129821   1.734   0.696  13.161 -0.0301 -0.7961 -0.0979
 2802TIP3    H229822   1.686   0.587  13.254  0.0341 -0.2323  0.6110
 2803TIP3   OH229823   5.966   5.624   0.178  0.0402 -0.4125  0.3080
 2803TIP3    H129824   5.961   5.720   0.184  1.1912  0.0963 -3.6407
 2803TIP3    H229825   6.056   5.603   0.202  0.2719 -0.2533 -0.3857
 2804TIP3   OH229826   1.669   3.212  11.354  0.2365 -0.1345 -0.1384
 2804TIP3    H129827   1.649   3.174  11.268  0.7391 -0.3444 -0.1640
 2804TIP3    H229828   1.652   3.306  11.343  1.3095  0.0066 -0.7789
 2805TIP3   OH229829   1.618   1.741   0.474  0.3754 -0.1942 -0.2638
 2805TIP3    H129830   1.689   1.677   0.480  0.3334 -0.1256  3.0494
 2805TIP3    H229831   1.655   1.822   0.509 -0.6053  0.6190 -1.0176
 2806TIP3   OH229832   6.802   5.666  12.073  0.7969 -0.1608  0.0140
 2806TIP3    H129833   6.853   5.741  12.103 -2.3665  2.1810  0.0947
 2806TIP3    H229834   6.819   5.661  11.979  0.7568  0.9685 -0.0681
 2807TIP3   OH229835   3.054   4.818  16.917  0.3849  0.2816  0.6107
 2807TIP3    H129836   2.963   4.822  16.890  0.1565  0.4158  1.3702
 2807TIP3    H229837   3.062   4.736  16.965 -0.0829  1.5859  3.0676
 2808TIP3   OH229838   6.326   2.375   6.013 -0.6898  0.3883 -0.0945
 2808TIP3    H129839   6.250   2.319   6.000 -1.0887  1.0050 -0.5189
 2808TIP3    H229840   6.291   2.464   6.004 -0.0159  0.6933  0.2400
 2809TIP3   OH229841   3.374   2.066  16.491 -0.0395  0.1076  0.2769
 2809TIP3    H129842   3.394   2.009  16.566  1.3973  1.3091  0.8499
 2809TIP3    H229843   3.286   2.040  16.465  0.1660 -1.6586  1.1730
 2810TIP3   OH229844   1.825   3.795  15.723 -0.4291  0.6448 -0.3140
 2810TIP3    H129845   1.790   3.786  15.811 -1.7631 -0.2952 -0.9135
 2810TIP3    H229846   1.784   3.874  15.688 -0.2869  0.7341 -0.2841
 2811TIP3   OH229847   3.373   1.294   1.541 -0.5686 -0.7000 -0.4620
 2811TIP3    H129848   3.454   1.304   1.590 -2.4577 -1.4582  3.1724
 2811TIP3    H229849   3.393   1.229   1.474  2.2200  0.4555 -0.8678
 2812TIP3   OH229850   4.339   0.664   3.690 -0.0327  0.1558 -0.2280
 2812TIP3    H129851   4.348   0.757   3.672  1.1521  0.3399  1.0902
 2812TIP3    H229852   4.412   0.644   3.750 -2.4415 -0.7349  2.6844
 2813TIP3   OH229853   4.443   1.778  16.576  0.2301  0.6668  0.1625
 2813TIP3    H129854   4.500   1.802  16.650  1.8831  2.0752 -1.4681
 2813TIP3    H229855   4.504   1.764  16.503 -1.4296  0.4859 -1.2345
 2814TIP3   OH229856   2.277   1.648  13.689  0.7568 -0.1736 -0.3976
 2814TIP3    H129857   2.268   1.736  13.726 -2.0687 -0.2179 -0.7938
 2814TIP3    H229858   2.251   1.590  13.760 -0.6625 -0.4711 -1.1301
 2815TIP3   OH229859   0.724   4.057   2.420 -0.2790 -0.3163 -0.2620
 2815TIP3    H129860   0.760   4.109   2.348 -0.4437 -0.9632 -0.8270
 2815TIP3    H229861   0.663   3.997   2.377 -0.6443 -0.4712  0.4685
 2816TIP3   OH229862   5.087   2.448   3.062  0.0465  0.8945 -0.2795
 2816TIP3    H129863   5.085   2.404   2.977 -0.0167 -0.7943  0.5640
 2816TIP3    H229864   4.998   2.440   3.095  0.1698  1.1812  0.1283
 2817TIP3   OH229865   0.827   1.404  13.289 -0.1067  0.3543 -0.6781
 2817TIP3    H129866   0.840   1.368  13.376  2.1797  2.5774  0.0489
 2817TIP3    H229867   0.786   1.334  13.239  2.1552 -2.4837  1.1105
 2818TIP3   OH229868   2.244   6.035   0.228 -0.3047  0.0564 -0.4861
 2818TIP3    H129869   2.294   5.978   0.169 -1.5508 -1.5287 -0.0663
 2818TIP3    H229870   2.164   5.987   0.247  0.3179  0.1048  3.1020
 2819TIP3   OH229871   2.279   2.227  12.576  0.0576 -0.5021  0.1351
 2819TIP3    H129872   2.236   2.289  12.634  0.4164 -0.1851  0.0640
 2819TIP3    H229873   2.344   2.279  12.529  2.0377 -1.3612  1.7684
 2820TIP3   OH229874   1.909   3.161   3.913  0.5102 -0.5525 -0.0187
 2820TIP3    H129875   1.979   3.212   3.871 -0.0876  0.1399 -0.1998
 2820TIP3    H229876   1.926   3.170   4.006  0.1292  0.4157 -0.0282
 2821TIP3   OH229877   5.958   2.239  16.724  0.1205  0.9881  0.5119
 2821TIP3    H129878   5.972   2.202  16.637  0.6597  0.1289  0.9499
 2821TIP3    H229879   6.009   2.320  16.724  1.3148  0.2623  0.4981
 2822TIP3   OH229880   0.160   3.312  15.313  0.1864 -0.3924 -0.3691
 2822TIP3    H129881   0.111   3.246  15.264  1.2803 -0.1909 -1.7885
 2822TIP3    H229882   0.123   3.395  15.285  0.3822 -0.2986 -0.3467
 2823TIP3   OH229883   6.409   4.140  15.850 -0.2270 -0.0365  0.6659
 2823TIP3    H129884   6.334   4.199  15.859  0.3806  1.2335 -1.8568
 2823TIP3    H229885   6.371   4.056  15.824 -1.0706 -0.8400  3.9863
 2824TIP3   OH229886   4.301   4.547  11.048 -0.1201 -0.0087  0.5987
 2824TIP3    H129887   4.375   4.502  11.007 -0.5120  0.6940 -0.9557
 2824TIP3    H229888   4.285   4.499  11.129 -0.0151 -2.1853 -0.6006
 2825TIP3   OH229889   3.598   0.767   5.564 -0.0431  0.0945  0.0253
 2825TIP3    H129890   3.659   0.810   5.505 -1.5033  1.5376 -0.5013
 2825TIP3    H229891   3.619   0.803   5.650  0.6542 -0.3627  0.0502
 2826TIP3   OH229892   1.260   5.110  11.943 -0.0772  0.2920 -0.2719
 2826TIP3    H129893   1.352   5.096  11.964 -0.7884 -0.4909  2.8628
 2826TIP3    H229894   1.247   5.205  11.953  0.0134  0.1642  1.5026
 2827TIP3   OH229895   4.487   0.397   4.696 -0.1518 -0.1966 -0.1209
 2827TIP3    H129896   4.549   0.328   4.674  0.4050  0.3022 -0.1299
 2827TIP3    H229897   4.461   0.434   4.611 -0.9260 -0.7980 -0.1562
 2828TIP3   OH229898   0.254   4.935  15.822  0.0061 -0.1776  0.2490
 2828TIP3    H129899   0.218   4.880  15.892 -0.6040 -1.8611 -1.2941
 2828TIP3    H229900   0.328   4.884  15.788  0.4891  0.7569 -0.1350
 2829TIP3   OH229901   3.869   2.478  14.894  0.0746  0.2326 -0.4350
 2829TIP3    H129902   3.875   2.499  14.988 -0.5136 -0.4647 -0.2335
 2829TIP3    H229903   3.791   2.525  14.864  0.7495  1.1559 -0.7787
 2830TIP3   OH229904   5.001   1.149   3.580 -0.6560  0.4234 -0.1179
 2830TIP3    H129905   5.034   1.062   3.604 -2.8247  0.2397  2.6628
 2830TIP3    H229906   4.974   1.140   3.488 -1.0297 -1.9307  0.1625
 2831TIP3   OH229907   2.265   4.417  16.385 -0.4486 -0.2103 -0.3601
 2831TIP3    H129908   2.296   4.369  16.461 -1.7959  0.5249  0.7085
 2831TIP3    H229909   2.336   4.477  16.362  0.0049 -0.5149  0.2562
 2832TIP3   OH229910   4.092   5.323   1.132 -0.0830 -0.1400 -0.2379
 2832TIP3    H129911   4.097   5.400   1.075 -0.2408  0.5995  0.7203
 2832TIP3    H229912   4.182   5.309   1.161 -0.3523  0.9194  1.1672
 2833TIP3   OH229913   4.563   4.773  11.651  0.1791  0.5407 -0.4089
 2833TIP3    H129914   4.555   4.799  11.559  2.2875  0.2789 -0.7106
 2833TIP3    H229915   4.612   4.844  11.692  0.7267 -0.1289  0.1186
 2834TIP3   OH229916   5.612   6.225   6.589  0.2192  0.2061  0.0969
 2834TIP3    H129917   5.561   6.167   6.533 -0.4525  0.7935  0.0862
 2834TIP3    H229918   5.575   6.312   6.574 -0.8026  0.2440  2.3095
 2835TIP3   OH229919   6.767   5.581  14.833  0.0741  0.5457 -0.3268
 2835TIP3    H129920   6.842   5.638  14.811 -0.4784  1.3389 -0.2049
 2835TIP3    H229921   6.801   5.521  14.899  1.1248 -0.3480 -1.6195
 2836TIP3   OH229922   4.990   2.453  12.219  0.7099 -0.7111  0.0854
 2836TIP3    H129923   4.918   2.418  12.167 -1.0766  1.6074  0.8172
 2836TIP3    H229924   5.015   2.534  12.173 -0.6874  1.2130  2.4782
 2837TIP3   OH229925   0.161   1.556  16.098  0.6493 -0.1380 -0.2863
 2837TIP3    H129926   0.138   1.471  16.137  0.1758 -0.4844 -1.2967
 2837TIP3    H229927   0.231   1.537  16.037 -0.1345  0.0101 -1.2663
 2838TIP3   OH229928   0.673   0.500   5.342 -0.2247  0.1620  0.0293
 2838TIP3    H129929   0.618   0.447   5.400 -0.2218 -0.3462 -0.4256
 2838TIP3    H229930   0.756   0.509   5.389 -0.0286 -0.7226 -0.1342
 2839TIP3   OH229931   2.549   6.125  11.183  0.2135 -0.2569  0.0151
 2839TIP3    H129932   2.644   6.140  11.183  0.2437 -0.3729 -1.1914
 2839TIP3    H229933   2.512   6.201  11.139 -0.5014  0.9291  2.4623
 2840TIP3   OH229934   5.053   3.662  16.272  0.0461  0.1259  0.2670
 2840TIP3    H129935   5.114   3.733  16.251 -0.3713  0.1633 -0.9389
 2840TIP3    H229936   4.967   3.697  16.248 -0.2666 -0.4534  0.5292
 2841TIP3   OH229937   3.573   1.520   0.318 -0.2044  0.0347 -0.0496
 2841TIP3    H129938   3.628   1.598   0.310  1.5881 -1.0595  1.0545
 2841TIP3    H229939   3.626   1.457   0.366 -2.1944 -1.3368  0.5023
 2842TIP3   OH229940   2.399   1.861  14.177  0.3975 -0.6721  0.3995
 2842TIP3    H129941   2.430   1.834  14.091 -0.2919 -1.8749  0.5086
 2842TIP3    H229942   2.372   1.952  14.165  0.9236 -0.6236 -0.4835
 2843TIP3   OH229943   0.763   5.375  12.662  0.1302 -0.0968  0.5797
 2843TIP3    H129944   0.676   5.399  12.629  0.6910  3.0647  0.9996
 2843TIP3    H229945   0.796   5.310  12.601 -1.2814  1.0344 -1.5134
 2844TIP3   OH229946   4.957   2.371  13.163  0.2430 -0.6481 -0.1404
 2844TIP3    H129947   4.958   2.461  13.194  0.2806 -0.8169  0.3554
 2844TIP3    H229948   4.950   2.318  13.242  0.0247 -1.0746 -0.4409
 2845TIP3   OH229949   3.434   5.057  11.611  0.0163 -0.5638  0.2571
 2845TIP3    H129950   3.499   5.019  11.671  1.4090 -2.5099 -2.2547
 2845TIP3    H229951   3.408   4.983  11.556 -1.7411  0.9647 -1.0519
 2846TIP3   OH229952   4.354   4.781  14.379  0.2504  0.3321 -0.1982
 2846TIP3    H129953   4.448   4.797  14.367  0.8279 -1.1003  1.8336
 2846TIP3    H229954   4.321   4.766  14.290  1.5425  2.6328 -1.1622
 2847TIP3   OH229955   3.734   3.697   0.045  0.7187  0.6387 -0.2961
 2847TIP3    H129956   3.787   3.754   0.101  1.2623 -2.2632  2.4422
 2847TIP3    H229957   3.770   3.610   0.059 -2.1075 -0.8868 -1.6770
 2848TIP3   OH229958   5.403   2.510   2.278 -0.5279  0.3749 -0.3024
 2848TIP3    H129959   5.315   2.483   2.250 -0.7401  2.5481 -2.0321
 2848TIP3    H229960   5.396   2.604   2.290  1.2580  0.3887  0.9280
 2849TIP3   OH229961   3.054   4.652   3.014  0.3022 -0.2201  0.3580
 2849TIP3    H129962   3.096   4.687   3.092  0.3324  0.7333 -0.0691
 2849TIP3    H229963   2.967   4.625   3.043 -0.4723  2.0480  0.3452
 2850TIP3   OH229964   3.336   3.741  14.161  0.3524 -0.1512 -0.0808
 2850TIP3    H129965   3.375   3.729  14.075  2.5191 -2.2757  1.0529
 2850TIP3    H229966   3.401   3.792  14.210  0.1552 -0.8077  0.8957
 2851TIP3   OH229967   4.467   6.045   4.925 -0.5347  0.2059  0.0911
 2851TIP3    H129968   4.538   6.094   4.884  0.9348 -0.5736  1.5538
 2851TIP3    H229969   4.461   6.080   5.013 -1.0635 -0.6291  0.4027
 2852TIP3   OH229970   0.005   5.193  12.588  0.3939  0.5505 -0.2937
 2852TIP3    H129971   0.057   5.220  12.663  0.0841  2.4096 -0.6877
 2852TIP3    H229972  -0.084   5.184  12.622  0.2392  1.4661 -0.4215
 2853TIP3   OH229973   0.867   5.792   4.462 -0.0930 -0.8772 -0.2225
 2853TIP3    H129974   0.806   5.824   4.528  1.8787 -0.3885  1.4782
 2853TIP3    H229975   0.881   5.866   4.403  0.3777 -0.3167  0.5715
 2854TIP3   OH229976   6.233   5.853  15.854  0.7693 -0.0636 -0.0884
 2854TIP3    H129977   6.304   5.805  15.811  0.3073 -0.4606 -0.4262
 2854TIP3    H229978   6.189   5.900  15.783  0.4041 -0.1976  0.0457
 2855TIP3   OH229979   0.922   6.253   3.417  0.1727 -0.2414 -1.0120
 2855TIP3    H129980   0.882   6.263   3.331  1.9099 -0.6866 -1.9129
 2855TIP3    H229981   0.984   6.181   3.406 -0.8964 -1.6125  1.1223
 2856TIP3   OH229982   1.778   1.289   3.368 -0.1724 -0.1417  0.3121
 2856TIP3    H129983   1.848   1.269   3.305 -0.5767  0.2250 -0.2607
 2856TIP3    H229984   1.698   1.264   3.322 -0.4260 -0.5144  0.9488
 2857TIP3   OH229985   4.853   0.494   5.438 -0.4695  0.1837  0.2176
 2857TIP3    H129986   4.921   0.431   5.416 -1.4972 -0.9850  0.2650
 2857TIP3    H229987   4.828   0.532   5.354 -2.6707 -2.4919 -0.4837
 2858TIP3   OH229988   5.303   3.345   2.642 -0.3671  0.1838  0.0189
 2858TIP3    H129989   5.240   3.276   2.622 -0.3641  0.0727  0.3865
 2858TIP3    H229990   5.383   3.317   2.599 -1.0458  1.2628 -2.0904
 2859TIP3   OH229991   0.862   1.491  11.118  1.0949  0.4316 -0.9656
 2859TIP3    H129992   0.805   1.458  11.187  1.9604 -0.5048 -0.6673
 2859TIP3    H229993   0.803   1.518  11.049  0.2810 -2.3115 -1.4794
 2860TIP3   OH229994   3.251   2.574   0.648  0.3456 -0.2471 -0.1424
 2860TIP3    H129995   3.334   2.547   0.688  1.2909 -0.5457 -2.2101
 2860TIP3    H229996   3.276   2.612   0.564 -1.4607  1.6991  0.1391
 2861TIP3   OH229997   4.014   0.337  11.840 -0.2044 -0.2357  0.0985
 2861TIP3    H129998   4.094   0.285  11.829  0.6153  1.3018 -1.6717
 2861TIP3    H229999   3.971   0.332  11.755 -2.9815 -2.4199  1.4557
 2862TIP3   OH230000   4.896   3.320  11.219 -0.7328 -0.4898 -0.5921
 2862TIP3    H130001   4.834   3.392  11.229  1.0278  1.3972 -2.1545
 2862TIP3    H230002   4.909   3.286  11.307  0.2751  2.8710  0.7273
 2863TIP3   OH230003   3.118   0.938   6.284  0.0698 -0.2337 -0.1562
 2863TIP3    H130004   3.080   0.976   6.364  1.0029  0.7471 -0.1523
 2863TIP3    H230005   3.119   0.844   6.301  1.4924  0.0320  1.5794
 2864TIP3   OH230006   3.106   4.653  15.133  0.5332  0.7576  0.0603
 2864TIP3    H130007   3.113   4.748  15.129 -1.4890  0.9132 -0.7293
 2864TIP3    H230008   3.022   4.633  15.091  0.8156 -1.3623  0.3975
 2865TIP3   OH230009   4.928   2.260  15.134 -0.0763 -0.1062 -0.8134
 2865TIP3    H130010   4.834   2.268  15.148  0.1002  2.0438 -0.4542
 2865TIP3    H230011   4.962   2.225  15.217 -0.4121  0.5596 -0.3873
 2866TIP3   OH230012   0.075   3.201  11.343 -0.1115  0.7222 -0.0290
 2866TIP3    H130013   0.036   3.288  11.352  0.2893  1.1181 -1.6866
 2866TIP3    H230014   0.168   3.219  11.329  0.0074  0.0176 -0.1652
 2867TIP3   OH230015   4.726   4.454  12.395  0.0735  0.2367 -0.1056
 2867TIP3    H130016   4.649   4.400  12.380 -0.0072  0.5144 -0.7173
 2867TIP3    H230017   4.800   4.395  12.376 -0.0061  0.2045 -0.3227
 2868TIP3   OH230018   1.140   1.128   5.104 -0.0577 -0.4919  0.1472
 2868TIP3    H130019   1.209   1.116   5.169  0.5466 -1.7691 -0.6776
 2868TIP3    H230020   1.159   1.212   5.063  1.1305 -0.9092 -0.1846
 2869TIP3   OH230021   2.962   6.467  16.779 -0.1177 -0.2801  0.1670
 2869TIP3    H130022   2.904   6.450  16.853 -0.9506  1.8460  0.0644
 2869TIP3    H230023   2.907   6.454  16.702 -0.2347  0.8343  0.0449
 2870TIP3   OH230024   5.831   0.791   5.593  0.7380 -0.4214  0.6974
 2870TIP3    H130025   5.794   0.726   5.534 -0.0504 -1.3235  2.1239
 2870TIP3    H230026   5.878   0.740   5.659  2.2180  0.5947  0.4896
 2871TIP3   OH230027   0.748   6.128   0.782 -0.0825  0.2000  0.5265
 2871TIP3    H130028   0.708   6.204   0.738  0.7326  0.5742  0.4274
 2871TIP3    H230029   0.838   6.128   0.752  0.1792 -0.2311  1.3036
 2872TIP3   OH230030   4.107   2.173   5.222  1.0006 -0.0221  0.1829
 2872TIP3    H130031   4.059   2.155   5.141 -0.2702 -0.9750  1.1093
 2872TIP3    H230032   4.099   2.268   5.234 -0.3887 -0.1217  0.1485
 2873TIP3   OH230033   1.476   5.628   5.641 -0.2429 -0.1331  0.0830
 2873TIP3    H130034   1.508   5.649   5.729 -0.7898  1.9059 -0.1481
 2873TIP3    H230035   1.388   5.594   5.654  0.2823 -1.4080  0.4111
 2874TIP3   OH230036   6.801   5.379   3.898 -0.1431 -0.3691 -0.3912
 2874TIP3    H130037   6.765   5.462   3.929 -2.3899 -0.8345 -1.5904
 2874TIP3    H230038   6.783   5.317   3.969  3.3099  0.4470  1.3958
 2875TIP3   OH230039   6.689   4.185  12.026 -0.6164  0.4175 -0.3394
 2875TIP3    H130040   6.733   4.184  12.111 -3.8732  1.3851  1.5457
 2875TIP3    H230041   6.740   4.247  11.973 -0.0370  1.9637  1.8950
 2876TIP3   OH230042   4.434   4.095  16.820  0.2406  0.9361 -0.4172
 2876TIP3    H130043   4.346   4.099  16.783  0.4561  0.4536 -0.9958
 2876TIP3    H230044   4.439   4.171  16.878 -0.5021  1.0507 -0.4920
 2877TIP3   OH230045   2.508   0.303  16.423 -0.3676  0.6274  0.5394
 2877TIP3    H130046   2.433   0.335  16.473  0.3783  1.3362  1.2365
 2877TIP3    H230047   2.554   0.244  16.483  1.3477  2.6016  1.3023
 2878TIP3   OH230048   3.469   0.147   1.591  0.4781  0.0504  0.3918
 2878TIP3    H130049   3.527   0.071   1.600 -1.8632 -1.8886  0.0944
 2878TIP3    H230050   3.516   0.205   1.530  1.0526 -2.6065 -1.9272
 2879TIP3   OH230051   2.551   5.734  13.720 -0.6257 -0.1191 -0.2837
 2879TIP3    H130052   2.539   5.661  13.659  0.2963 -3.0831  2.7805
 2879TIP3    H230053   2.634   5.774  13.693 -0.2781 -1.3062 -1.0751
 2880TIP3   OH230054   3.097   0.343  13.542  0.8408  0.3258  0.3439
 2880TIP3    H130055   3.028   0.404  13.569  0.2702  0.5852 -1.5892
 2880TIP3    H230056   3.179   0.385  13.571  0.3077  0.8564  1.1120
 2881TIP3   OH230057   1.349   1.177  11.531  0.3381 -0.3188  0.7661
 2881TIP3    H130058   1.385   1.249  11.582  0.8208 -0.0541  0.0702
 2881TIP3    H230059   1.264   1.209  11.501 -0.0825 -0.5869  1.6259
 2882TIP3   OH230060   0.844   5.430   3.824  0.4936  0.8024  0.5336
 2882TIP3    H130061   0.817   5.342   3.801 -0.8580  1.0702  1.0120
 2882TIP3    H230062   0.763   5.475   3.849  1.0009  2.4499 -0.5722
 2883TIP3   OH230063   4.650   6.188   6.126 -0.0987  0.2691  0.1597
 2883TIP3    H130064   4.670   6.257   6.063 -0.3023 -0.0429 -0.2513
 2883TIP3    H230065   4.590   6.230   6.189 -0.4930  0.3783 -0.2802
 2884TIP3   OH230066   1.427   5.786   0.114  0.3829  0.1685 -0.3283
 2884TIP3    H130067   1.468   5.863   0.156  0.4260 -0.9247  1.7402
 2884TIP3    H230068   1.382   5.822   0.038  0.6477  2.2085  0.4150
 2885TIP3   OH230069   5.206   0.066   1.538 -0.3722 -0.0596  0.1039
 2885TIP3    H130070   5.131   0.006   1.539  0.6778 -1.4352 -0.6156
 2885TIP3    H230071   5.240   0.061   1.449  2.1100 -1.5260  1.0109
 2886TIP3   OH230072   2.169   4.618   0.861  0.1624  0.0561 -0.1869
 2886TIP3    H130073   2.232   4.625   0.790 -1.5270 -0.1501 -1.7832
 2886TIP3    H230074   2.171   4.526   0.886 -1.1350 -0.4731 -1.8634
 2887TIP3   OH230075   2.351   1.838   0.908 -0.1109  0.2292  0.1151
 2887TIP3    H130076   2.365   1.764   0.966 -0.9404  0.1232  0.1919
 2887TIP3    H230077   2.383   1.914   0.957 -0.6124  0.1102  0.6317
 2888TIP3   OH230078   1.298   4.254  15.752  0.5530 -0.0253 -0.3029
 2888TIP3    H130079   1.319   4.163  15.776 -1.9696 -0.6251 -0.0472
 2888TIP3    H230080   1.284   4.250  15.658  0.9310  0.2168 -0.3689
 2889TIP3   OH230081   5.985   3.900   5.027 -0.2271 -0.1954  0.3120
 2889TIP3    H130082   5.975   3.988   5.064  3.2137  0.0712  0.8638
 2889TIP3    H230083   6.026   3.848   5.096  0.6417 -1.3757 -1.0264
 2890TIP3   OH230084   1.656   0.816   2.645 -0.2129 -0.6972  0.3317
 2890TIP3    H130085   1.715   0.799   2.571 -1.1822 -2.7462 -0.0510
 2890TIP3    H230086   1.649   0.911   2.649  1.4224 -0.4741 -0.9456
 2891TIP3   OH230087   3.791   5.167   4.818 -0.3763 -0.1792 -0.7106
 2891TIP3    H130088   3.757   5.087   4.776 -0.9968  0.2021 -0.9427
 2891TIP3    H230089   3.789   5.147   4.912  2.9881 -1.8437 -0.8455
 2892TIP3   OH230090   3.336   2.298   0.083  0.3202  0.2325  0.0149
 2892TIP3    H130091   3.372   2.372   0.034  2.0633  0.9405  2.1773
 2892TIP3    H230092   3.356   2.221   0.028 -1.4628  1.2570 -2.2318
 2893TIP3   OH230093   3.133   0.068  16.216 -0.1550 -0.3540  0.2384
 2893TIP3    H130094   3.136   0.134  16.147  0.2775 -3.1244 -2.5915
 2893TIP3    H230095   3.224   0.042  16.228 -0.5252 -2.1367 -0.5347
 2894TIP3   OH230096   1.451   5.590   4.159  0.5110 -0.1370  0.1038
 2894TIP3    H130097   1.384   5.565   4.223 -0.2984 -1.6168 -1.2422
 2894TIP3    H230098   1.532   5.555   4.195 -0.0807 -1.8034 -0.0647
 2895TIP3   OH230099   1.969   5.208  14.758  0.2691  0.1582 -0.0587
 2895TIP3    H130100   1.909   5.274  14.723 -0.4649 -1.2895 -1.6854
 2895TIP3    H230101   1.913   5.144  14.802  0.9494  0.4786  1.3253
 2896TIP3   OH230102   1.323   5.950  12.446 -0.0765 -0.1099 -0.1634
 2896TIP3    H130103   1.251   6.010  12.427  0.0194 -0.5532 -2.1929
 2896TIP3    H230104   1.396   6.006  12.472 -0.6539  0.4639  0.2363
 2897TIP3   OH230105   6.616   5.368  12.963  0.4049  0.4532  0.5728
 2897TIP3    H130106   6.671   5.433  13.004  1.6018  1.7837 -2.7641
 2897TIP3    H230107   6.572   5.415  12.892 -1.7137 -1.5418  0.4446
 2898TIP3   OH230108   5.039   0.788  12.549  0.3750 -0.1043 -0.4196
 2898TIP3    H130109   5.119   0.830  12.581 -0.1554  1.2465 -0.7758
 2898TIP3    H230110   5.037   0.808  12.455 -0.7791  0.5950 -0.2648
 2899TIP3   OH230111   5.251   4.627  11.029  0.4013  0.5668 -0.5478
 2899TIP3    H130112   5.201   4.616  10.948 -2.0036 -1.3711  1.0490
 2899TIP3    H230113   5.210   4.702  11.072  0.8638  0.8239 -0.5519
 2900TIP3   OH230114   4.302   4.170   0.480  0.4953 -0.2571  1.2907
 2900TIP3    H130115   4.398   4.166   0.477  0.5517  1.2734 -1.1125
 2900TIP3    H230116   4.273   4.082   0.459  1.3743 -0.4960  1.0461
 2901TIP3   OH230117   2.081   3.104   2.994  0.4648 -0.4478 -0.6271
 2901TIP3    H130118   2.019   3.033   2.979  1.6991 -1.2619 -2.2037
 2901TIP3    H230119   2.048   3.176   2.941  0.9650 -0.9623 -1.6637
 2902TIP3   OH230120   2.676   5.190  16.036 -0.3672 -0.1515  0.0803
 2902TIP3    H130121   2.771   5.179  16.034 -0.2035  0.9408  0.8058
 2902TIP3    H230122   2.649   5.189  15.944  0.4425  0.2293 -0.1624
 2903TIP3   OH230123   3.971   5.018  13.047  0.0797  0.1796  0.2629
 2903TIP3    H130124   3.998   5.107  13.027  0.9678  0.2266  1.5705
 2903TIP3    H230125   3.877   5.025  13.066  0.7655  1.5052  3.7606
 2904TIP3   OH230126   0.729   0.698  15.335  0.0600 -0.2098 -0.0468
 2904TIP3    H130127   0.764   0.625  15.282 -0.3184 -0.6026  0.2394
 2904TIP3    H230128   0.807   0.749  15.358  0.1320  0.6566 -1.9668
 2905TIP3   OH230129   6.386   5.937   1.876  0.4964  0.1864  0.1771
 2905TIP3    H130130   6.308   5.893   1.843  1.2629  1.1725 -3.3306
 2905TIP3    H230131   6.459   5.887   1.840  1.5203  0.0604  2.2996
 2906TIP3   OH230132   5.944   1.093   4.304 -0.1391  0.3202  0.1717
 2906TIP3    H130133   6.031   1.096   4.264 -0.6589 -0.6736 -1.1313
 2906TIP3    H230134   5.913   1.004   4.285 -1.8245  0.9769 -0.2660
 2907TIP3   OH230135   2.712   0.188  13.075  0.0590 -0.0455 -0.3596
 2907TIP3    H130136   2.645   0.153  13.016 -0.7782 -0.4226  0.7603
 2907TIP3    H230137   2.760   0.111  13.105  1.1518  0.2463 -1.3139
 2908TIP3   OH230138   5.854   2.086   5.695  0.5868  0.4645  0.2030
 2908TIP3    H130139   5.911   2.163   5.697  2.2114 -0.6797  0.3835
 2908TIP3    H230140   5.878   2.038   5.775  1.4372 -1.4475 -1.1330
 2909TIP3   OH230141   4.152   0.779   0.462 -0.4260 -0.5414  0.3431
 2909TIP3    H130142   4.175   0.870   0.445 -0.1451 -0.1137  2.6389
 2909TIP3    H230143   4.187   0.730   0.387  0.6262  1.0741 -0.2634
 2910TIP3   OH230144   4.255   5.454   1.861 -0.2124  0.1223 -0.2711
 2910TIP3    H130145   4.303   5.373   1.847 -1.1862 -0.4992 -0.0924
 2910TIP3    H230146   4.271   5.506   1.782  0.0843 -0.4194 -0.5686
 2911TIP3   OH230147   3.395   5.447  16.483 -0.1577 -0.1555  0.3401
 2911TIP3    H130148   3.473   5.498  16.460 -1.2953  2.2822  1.4880
 2911TIP3    H230149   3.326   5.483  16.427 -0.4902 -2.3392 -0.7279
 2912TIP3   OH230150   1.030   3.395  13.018 -0.0953 -0.6033  0.0376
 2912TIP3    H130151   0.977   3.318  13.041  0.7535 -0.7723  1.5857
 2912TIP3    H230152   1.118   3.373  13.049  0.4823  0.4302 -0.8020
 2913TIP3   OH230153   3.240   4.431   1.526  0.3685 -0.2307  0.1269
 2913TIP3    H130154   3.334   4.418   1.516  0.5705  1.0551  0.2809
 2913TIP3    H230155   3.207   4.346   1.556  1.5352 -0.5697  0.4819
 2914TIP3   OH230156   6.053   5.145   1.587 -0.0279 -0.2167  0.6914
 2914TIP3    H130157   6.040   5.118   1.678  1.2198  1.3007  1.3596
 2914TIP3    H230158   6.133   5.100   1.560  0.4580  0.5172  0.8731
 2915TIP3   OH230159   2.538   4.051  16.769  0.8129  0.0942  0.0200
 2915TIP3    H130160   2.561   3.998  16.693  2.2777 -0.6149  0.9147
 2915TIP3    H230161   2.444   4.068  16.759  0.5899 -1.5294 -0.9952
 2916TIP3   OH230162   4.566   3.059  14.654  0.1125 -0.0792 -0.1652
 2916TIP3    H130163   4.557   3.047  14.560  0.6034 -0.2144 -0.2011
 2916TIP3    H230164   4.653   3.097  14.665  0.5635 -1.1877  0.3132
 2917TIP3   OH230165   5.533   5.882  15.539 -0.1116  0.2920 -0.1117
 2917TIP3    H130166   5.548   5.814  15.473  0.0224  1.0683 -0.8998
 2917TIP3    H230167   5.442   5.871  15.565  0.6530 -2.1801  2.0942
 2918TIP3   OH230168   5.246   0.869  12.076 -0.2196  0.2976  0.5652
 2918TIP3    H130169   5.221   0.783  12.043  0.5150 -0.1327  1.0971
 2918TIP3    H230170   5.309   0.902  12.012 -0.2176  0.2751  0.5555
 2919TIP3   OH230171   1.531   3.502  11.267  0.1378 -0.0189 -0.3117
 2919TIP3    H130172   1.591   3.576  11.258  0.3604  0.0254  1.1338
 2919TIP3    H230173   1.446   3.536  11.240  0.4703  0.3895 -0.8690
 2920TIP3   OH230174   4.442   6.542  11.999  0.2599  0.2092 -0.4547
 2920TIP3    H130175   4.430   6.573  12.089  1.2718 -0.5681 -0.0253
 2920TIP3    H230176   4.365   6.487  11.982  0.6793 -0.6662  0.4098
 2921TIP3   OH230177   5.697   5.989  15.238 -0.3347 -0.1479  0.5191
 2921TIP3    H130178   5.704   5.904  15.281  1.7636 -1.4110 -2.0150
 2921TIP3    H230179   5.612   6.024  15.267 -0.6521 -2.4257  2.7053
 2922TIP3   OH230180   2.872   4.462   5.743 -0.3084 -0.4757 -0.1487
 2922TIP3    H130181   2.792   4.418   5.769  0.7428 -2.6090 -0.3023
 2922TIP3    H230182   2.931   4.452   5.817  0.4467 -0.6427 -0.7548
 2923TIP3   OH230183   1.798   5.012   0.287 -0.3655 -0.5267  0.3786
 2923TIP3    H130184   1.885   5.004   0.250 -0.9115  1.0726 -1.3765
 2923TIP3    H230185   1.739   4.981   0.219 -1.3844  2.2795 -0.1474
 2924TIP3   OH230186   3.378   0.755   2.457 -0.4719 -0.4476 -0.5061
 2924TIP3    H130187   3.316   0.813   2.413  0.7349 -0.5833 -2.5330
 2924TIP3    H230188   3.401   0.691   2.391  2.1799 -0.1146 -0.0166
 2925TIP3   OH230189   1.169   6.365  12.497  0.5961  0.1439  0.3109
 2925TIP3    H130190   1.134   6.275  12.493  0.5205  0.2091 -1.2802
 2925TIP3    H230191   1.261   6.354  12.519  0.3944 -0.2718  0.9607
 2926TIP3   OH230192   0.466   1.966  10.711 -0.4177 -0.4968 -0.0086
 2926TIP3    H130193   0.373   1.950  10.695 -0.4304  0.6690 -1.2136
 2926TIP3    H230194   0.477   2.060  10.700  1.1218 -0.7650 -1.0580
 2927TIP3   OH230195   4.225   1.559   3.845 -0.0224  0.0362 -0.1542
 2927TIP3    H130196   4.203   1.650   3.827 -0.1595  0.6818  2.8415
 2927TIP3    H230197   4.144   1.511   3.827 -1.0466  1.0310  1.5420
 2928TIP3   OH230198   2.841   5.968  12.648 -0.0374 -0.2303 -0.1289
 2928TIP3    H130199   2.914   5.907  12.655 -1.5619 -2.2357 -0.6651
 2928TIP3    H230200   2.775   5.921  12.597 -1.5590  1.6442 -0.0195
 2929TIP3   OH230201   4.903   6.703  16.530 -0.1745 -0.3858 -0.2561
 2929TIP3    H130202   4.813   6.715  16.559  0.0569  0.0481  0.2980
 2929TIP3    H230203   4.908   6.747  16.445 -1.0854 -2.3964 -1.4333
 2930TIP3   OH230204   2.762   5.210   2.748 -0.1136  0.4888 -0.4378
 2930TIP3    H130205   2.745   5.228   2.840 -1.1057  0.0176 -0.5151
 2930TIP3    H230206   2.853   5.236   2.734 -0.0130  0.7245  0.6287
 2931TIP3   OH230207   0.756   5.441  16.007 -0.1332 -0.0984  0.1875
 2931TIP3    H130208   0.688   5.499  16.042 -1.3203 -0.1296 -1.8757
 2931TIP3    H230209   0.708   5.365  15.974  1.2693 -1.6332  1.5696
 2932TIP3   OH230210   4.785   4.232   5.152  0.3265  0.2662 -0.2166
 2932TIP3    H130211   4.778   4.291   5.228  0.3195  1.5506 -1.1721
 2932TIP3    H230212   4.869   4.254   5.113  0.4554 -0.5919 -0.4194
 2933TIP3   OH230213   1.399   0.837   2.467 -0.0209 -0.0498  0.2807
 2933TIP3    H130214   1.361   0.751   2.450 -0.8411  0.2696  0.4856
 2933TIP3    H230215   1.489   0.818   2.495 -0.6044 -0.9268  1.6478
 2934TIP3   OH230216   6.086   2.939  11.739  0.0181  0.2019  0.0384
 2934TIP3    H130217   6.048   2.946  11.652 -0.0229  1.8438  0.1588
 2934TIP3    H230218   6.170   2.985  11.732 -0.6404  1.6287  1.2175
 2935TIP3   OH230219   1.871   0.884  14.947 -0.4315  0.3278 -0.0754
 2935TIP3    H130220   1.955   0.902  14.905  0.7913 -4.0655 -0.0211
 2935TIP3    H230221   1.879   0.920  15.035  0.1753  2.4697 -0.9436
 2936TIP3   OH230222   5.632   0.098  12.865  0.0673  0.8896 -0.0152
 2936TIP3    H130223   5.557   0.088  12.806  0.6182 -0.0713 -0.5741
 2936TIP3    H230224   5.676   0.013  12.863 -0.0969  0.6959  2.0903
 2937TIP3   OH230225   2.371   2.266   0.161  0.3757 -0.2906  0.1906
 2937TIP3    H130226   2.453   2.314   0.173  0.9334 -1.1529  0.0039
 2937TIP3    H230227   2.400   2.176   0.142 -0.6235 -0.6424  0.3137
 2938TIP3   OH230228   3.088   6.285   4.626  0.2375 -0.0882 -0.0381
 2938TIP3    H130229   3.076   6.317   4.716 -0.6554 -0.2048 -0.1108
 2938TIP3    H230230   3.054   6.195   4.628 -0.4535  0.1549 -0.6604
 2939TIP3   OH230231   5.221   4.982  16.923  0.2492 -0.0918 -0.2031
 2939TIP3    H130232   5.204   5.025  16.840  0.6886 -0.6391 -0.5839
 2939TIP3    H230233   5.163   5.026  16.985 -0.7858 -0.3135 -0.9814
 2940TIP3   OH230234   6.250   4.783   4.533  0.3995 -0.3234  0.4956
 2940TIP3    H130235   6.220   4.870   4.556  2.1308  0.0962  1.2833
 2940TIP3    H230236   6.233   4.775   4.439 -0.8835  0.3782  0.6587
 2941TIP3   OH230237   4.834   5.637  16.306 -0.3826  0.3782 -0.4850
 2941TIP3    H130238   4.924   5.626  16.275 -0.5778 -0.9370 -0.6603
 2941TIP3    H230239   4.782   5.643  16.226 -0.5762 -0.1866 -0.4100
 2942TIP3   OH230240   6.671   2.067   1.513  0.3740  0.1549 -0.2146
 2942TIP3    H130241   6.590   2.019   1.530  0.6154 -0.4249 -0.6381
 2942TIP3    H230242   6.740   2.000   1.517  0.6079  0.2590 -1.8244
 2943TIP3   OH230243   4.484   1.203   4.211  0.1418  0.1730  0.1134
 2943TIP3    H130244   4.555   1.268   4.210  0.1133  0.3119  2.3917
 2943TIP3    H230245   4.412   1.246   4.164  1.3357  0.2504 -1.7377
 2944TIP3   OH230246   4.035   1.753  13.849  0.3719  0.4660 -0.2519
 2944TIP3    H130247   3.973   1.751  13.922  1.1625  2.2019  0.5325
 2944TIP3    H230248   3.989   1.797  13.778  0.7359  2.0223  0.4259
 2945TIP3   OH230249   2.727   2.307   1.739  0.5664  0.2648 -0.1312
 2945TIP3    H130250   2.822   2.315   1.749  0.7338 -0.6241 -0.8759
 2945TIP3    H230251   2.703   2.382   1.685  0.7848  0.6993  0.3657
 2946TIP3   OH230252   1.119   1.018   4.431 -0.1584 -0.3798 -0.6441
 2946TIP3    H130253   1.044   1.069   4.402  1.7516  3.4843  0.5294
 2946TIP3    H230254   1.094   0.982   4.515 -1.0593 -0.0281 -0.7560
 2947TIP3   OH230255   3.007   3.949  12.921 -0.1319  0.0637  0.4889
 2947TIP3    H130256   2.932   4.008  12.920 -1.0235 -1.0259 -0.5971
 2947TIP3    H230257   3.038   3.947  12.830 -0.8479 -1.9633  0.2431
 2948TIP3   OH230258   0.392   3.308   1.896  0.5335  0.2097 -0.2223
 2948TIP3    H130259   0.323   3.308   1.963 -1.6415  1.1475 -2.3294
 2948TIP3    H230260   0.395   3.218   1.865  1.0111 -0.0584  0.5717
 2949TIP3   OH230261   2.657   3.210   3.767  0.5001  0.0419 -0.2057
 2949TIP3    H130262   2.606   3.290   3.757  1.3512  0.7550  0.8004
 2949TIP3    H230263   2.643   3.184   3.858  1.4287 -0.0691 -0.0764
 2950TIP3   OH230264   2.193   3.755   2.885  0.2560 -0.0116 -0.5528
 2950TIP3    H130265   2.176   3.849   2.871  0.2079  0.0818  0.1010
 2950TIP3    H230266   2.110   3.722   2.921  0.3924 -0.2259 -0.4372
 2951TIP3   OH230267   5.509   5.752  15.108  0.4339  0.1835 -0.6146
 2951TIP3    H130268   5.605   5.753  15.101  0.5983  4.4919 -0.2621
 2951TIP3    H230269   5.481   5.827  15.057 -2.5184  0.8950  1.8154
 2952TIP3   OH230270   4.343   1.594   2.866 -0.0704  0.2124 -0.1766
 2952TIP3    H130271   4.370   1.552   2.948  0.7666 -0.5012 -0.8008
 2952TIP3    H230272   4.255   1.628   2.885  0.4510  0.8353  1.2885
 2953TIP3   OH230273   6.494   5.356   0.470 -0.3271  0.3015 -0.1362
 2953TIP3    H130274   6.415   5.408   0.487 -0.2138  0.8889 -1.2995
 2953TIP3    H230275   6.500   5.297   0.545 -2.4589 -0.4744 -0.4914
 2954TIP3   OH230276   5.207   1.595   1.288  0.3696 -0.4328 -0.7749
 2954TIP3    H130277   5.147   1.522   1.271  0.0709 -0.3692 -0.0085
 2954TIP3    H230278   5.290   1.566   1.249  0.0805 -0.8906 -1.0769
 2955TIP3   OH230279   5.657   0.174  15.061  0.7990 -1.0265 -0.2738
 2955TIP3    H130280   5.665   0.109  14.992  2.5326  0.6423 -1.7631
 2955TIP3    H230281   5.632   0.254  15.016 -0.6108 -0.4606  1.4055
 2956TIP3   OH230282   0.419   6.067  17.046  0.4678 -0.5282 -0.0394
 2956TIP3    H130283   0.352   6.084  17.113  2.0178  1.1594  1.1666
 2956TIP3    H230284   0.471   5.996  17.083 -0.1450 -1.3014 -0.6235
 2957TIP3   OH230285   4.801   4.970   0.440  0.4762 -0.0319  0.8530
 2957TIP3    H130286   4.865   5.039   0.426  0.0546  0.4751  1.3977
 2957TIP3    H230287   4.762   4.955   0.353  0.2012  0.7757  0.8296
 2958TIP3   OH230288   4.431   2.835  16.797  0.2194  0.2215 -0.1196
 2958TIP3    H130289   4.505   2.887  16.766 -1.4953  1.6529 -2.0804
 2958TIP3    H230290   4.397   2.792  16.719 -2.0611  1.0445  0.3292
 2959TIP3   OH230291   4.497   0.058   2.760  0.1803  0.2055 -0.1113
 2959TIP3    H130292   4.515   0.038   2.851 -0.2150 -0.6877 -0.2228
 2959TIP3    H230293   4.428   0.124   2.762 -0.9738 -0.9741  0.2279
 2960TIP3   OH230294   5.759   3.303  15.517 -0.3743 -0.2267  0.3986
 2960TIP3    H130295   5.739   3.372  15.455  0.2591  0.0143  0.4537
 2960TIP3    H230296   5.678   3.252  15.525 -0.5843  0.0020 -0.2882
 2961TIP3   OH230297   6.599   3.744  10.728 -0.4445  0.3606  0.4454
 2961TIP3    H130298   6.566   3.829  10.759 -0.1899  0.7005 -0.1959
 2961TIP3    H230299   6.693   3.747  10.745 -0.3639  0.3966  0.0063
 2962TIP3   OH230300   4.483   3.592  12.229  0.2249 -0.3506  0.1900
 2962TIP3    H130301   4.520   3.660  12.172  1.7769 -2.2302 -1.1885
 2962TIP3    H230302   4.550   3.524  12.231 -0.6674 -1.2546  2.6839
 2963TIP3   OH230303   5.170   2.394   2.252 -0.2516 -0.0110  0.0522
 2963TIP3    H130304   5.124   2.323   2.297 -0.2814 -0.5859 -0.8389
 2963TIP3    H230305   5.192   2.356   2.166  3.0227 -0.2280  0.8642
 2964TIP3   OH230306   1.138   2.653  13.939  0.1818 -0.9791 -0.1345
 2964TIP3    H130307   1.188   2.691  14.011  1.1428 -0.5527 -1.0056
 2964TIP3    H230308   1.175   2.565  13.928  1.7319 -0.2038 -1.6422
 2965TIP3   OH230309   1.317   4.071   2.410  0.2456  0.5040  0.2910
 2965TIP3    H130310   1.269   4.015   2.471  2.1165  0.1173  1.4879
 2965TIP3    H230311   1.282   4.048   2.324  0.6893 -2.2846  0.7713
 2966TIP3   OH230312   4.864   5.907   5.377 -0.2938 -0.2918  0.4383
 2966TIP3    H130313   4.792   5.969   5.389  0.3711  0.5600  0.1213
 2966TIP3    H230314   4.850   5.841   5.444 -0.3706  0.8222  1.5572
 2967TIP3   OH230315   1.223   4.137   0.681  0.5631 -0.3403  0.8309
 2967TIP3    H130316   1.232   4.165   0.590 -0.5664 -3.9133 -0.5467
 2967TIP3    H230317   1.153   4.193   0.716  1.5227  1.6010 -0.2028
 2968TIP3   OH230318   3.187   0.927   2.379 -0.6762  0.2571  0.1721
 2968TIP3    H130319   3.143   1.006   2.409 -0.7266  0.0421  0.6729
 2968TIP3    H230320   3.186   0.934   2.283 -3.2596 -0.4910  0.0493
 2969TIP3   OH230321   6.270   1.895   4.173  0.3232  0.2544 -0.5151
 2969TIP3    H130322   6.308   1.891   4.086  1.1223 -0.1081 -0.1688
 2969TIP3    H230323   6.208   1.821   4.176  0.5311  0.0732 -0.6721
 2970TIP3   OH230324   0.291   1.735  12.085 -0.4182  0.0315  0.2559
 2970TIP3    H130325   0.279   1.811  12.028  0.0949 -0.1407 -0.0849
 2970TIP3    H230326   0.384   1.734  12.106 -0.6421  0.2352  1.3102
 2971TIP3   OH230327   5.196   5.777   6.547 -0.0622 -0.6327  0.4953
 2971TIP3    H130328   5.190   5.872   6.558  1.5786 -0.3386 -0.7905
 2971TIP3    H230329   5.133   5.757   6.477 -1.2072 -0.6944  1.4988
 2972TIP3   OH230330   4.083   0.428  13.425  0.2301 -0.2603  0.5291
 2972TIP3    H130331   3.988   0.430  13.412 -0.0444 -0.2651  2.3225
 2972TIP3    H230332   4.110   0.520  13.425  0.7789 -0.2681 -3.1207
 2973TIP3   OH230333   2.246   0.344  14.716  0.2301  0.4633 -0.5833
 2973TIP3    H130334   2.214   0.431  14.695 -1.4867  0.0384  0.0869
 2973TIP3    H230335   2.189   0.285  14.665 -0.2564 -0.3290  0.8263
 2974TIP3   OH230336   4.151   0.781  13.985 -0.0397  0.2269  0.0277
 2974TIP3    H130337   4.191   0.866  13.965 -0.0158  0.2818  0.3023
 2974TIP3    H230338   4.203   0.718  13.936 -1.0170  0.5152 -1.4383
 2975TIP3   OH230339   1.665   2.088   5.506  0.9516  0.5790 -0.2997
 2975TIP3    H130340   1.703   2.086   5.594 -1.6793 -1.2117  0.9123
 2975TIP3    H230341   1.727   2.038   5.452  2.3067  1.2156  0.6237
 2976TIP3   OH230342   1.706   5.317   0.195 -0.1676 -0.0886  0.3949
 2976TIP3    H130343   1.752   5.343   0.274  1.2516  1.3008 -0.8122
 2976TIP3    H230344   1.641   5.386   0.181  1.3498  1.1378 -1.0028
 2977TIP3   OH230345   5.634   2.968   2.104 -0.0418  0.0123  0.2173
 2977TIP3    H130346   5.549   2.931   2.077  0.8744 -1.2769 -1.0916
 2977TIP3    H230347   5.637   3.054   2.062  0.8520 -1.4773 -3.1880
 2978TIP3   OH230348   3.886   4.565  16.924 -0.0194  0.0451  0.7067
 2978TIP3    H130349   3.803   4.544  16.967 -0.1792  0.7604  0.7602
 2978TIP3    H230350   3.952   4.554  16.992  0.2837 -2.9344  0.0827
 2979TIP3   OH230351   2.308   0.435  16.622 -0.3799  0.1164 -0.6487
 2979TIP3    H130352   2.284   0.393  16.704  0.5398 -1.0200 -0.9416
 2979TIP3    H230353   2.225   0.461  16.583 -0.9664 -1.3246 -0.3998
 2980TIP3   OH230354   3.127   6.054   2.009 -0.0529 -0.3561  0.2203
 2980TIP3    H130355   3.045   6.051   1.960  1.4434 -0.9691 -2.4422
 2980TIP3    H230356   3.156   6.145   2.002  0.6447 -0.6529 -0.9538
 2981TIP3   OH230357   0.666   5.872  15.826 -0.2420 -0.9123  0.4349
 2981TIP3    H130358   0.607   5.867  15.751 -0.7712 -1.1481  0.8614
 2981TIP3    H230359   0.633   5.807  15.887 -0.0426 -0.4606  1.0326
 2982TIP3   OH230360   2.312   3.843   4.746 -0.3358  0.2142 -0.2598
 2982TIP3    H130361   2.228   3.888   4.739 -0.1200  0.7377  0.4270
 2982TIP3    H230362   2.321   3.822   4.839  0.0907 -0.2353 -0.3977
 2983TIP3   OH230363   6.356   5.557   4.950  0.4117  0.3180  0.0931
 2983TIP3    H130364   6.408   5.576   5.028 -1.2048 -2.0354  1.8906
 2983TIP3    H230365   6.266   5.549   4.981 -0.3911 -0.1780 -2.1072
 2984TIP3   OH230366   3.969   5.918  15.564  0.4530  0.0295 -0.2292
 2984TIP3    H130367   3.970   5.982  15.634  0.5273 -1.0750  0.8231
 2984TIP3    H230368   4.053   5.872  15.573  0.1433 -0.6162 -0.5567
 2985TIP3   OH230369   2.163   5.328  15.265 -0.6919 -0.5841  0.3622
 2985TIP3    H130370   2.189   5.421  15.262 -1.3205 -0.4276 -0.3254
 2985TIP3    H230371   2.119   5.312  15.182  1.5357 -2.1530 -0.6067
 2986TIP3   OH230372   5.494   6.747   3.554  0.2421 -0.2412  0.3566
 2986TIP3    H130373   5.544   6.770   3.632 -0.8887  2.7399  0.3225
 2986TIP3    H230374   5.403   6.759   3.580 -0.3262 -1.9850 -0.6609
 2987TIP3   OH230375   3.927   4.059   1.861 -0.0398  0.3194 -0.0543
 2987TIP3    H130376   3.955   4.150   1.855 -1.3320  0.7497  0.0148
 2987TIP3    H230377   3.954   4.020   1.778 -2.7040  1.7682 -1.7381
 2988TIP3   OH230378   3.629   3.514  12.374 -0.3141  1.0342  0.8498
 2988TIP3    H130379   3.546   3.513  12.326  0.2795  3.1539 -0.3506
 2988TIP3    H230380   3.608   3.480  12.460 -2.1682  0.3979  0.1886
 2989TIP3   OH230381   2.616   3.380   4.845 -0.0828 -0.1983  0.3162
 2989TIP3    H130382   2.611   3.405   4.753  0.9936 -0.1396  0.2598
 2989TIP3    H230383   2.535   3.412   4.883 -0.1074  0.6449 -0.4086
 2990TIP3   OH230384   0.728   2.585  15.885  0.3003 -0.2138  0.3400
 2990TIP3    H130385   0.676   2.506  15.902  0.7987 -0.7389 -0.4923
 2990TIP3    H230386   0.818   2.553  15.875  0.3892  0.3364 -0.8227
 2991TIP3   OH230387   3.995   2.775  14.131 -0.5419  0.3931  0.0858
 2991TIP3    H130388   3.938   2.716  14.181 -0.2175  0.6475  0.7666
 2991TIP3    H230389   4.080   2.769  14.174 -0.6280  1.7302  0.4815
 2992TIP3   OH230390   3.070   2.058   5.062 -0.2149 -0.8027  0.0332
 2992TIP3    H130391   3.133   2.107   5.009 -0.8223 -1.4528 -1.3382
 2992TIP3    H230392   3.065   1.972   5.020 -0.8282 -1.3071  1.0815
 2993TIP3   OH230393   0.217   6.334  14.754 -0.3579  0.4646  0.2314
 2993TIP3    H130394   0.266   6.286  14.821  1.3349  0.3993 -0.9951
 2993TIP3    H230395   0.265   6.318  14.673 -1.2359  2.1349 -0.6698
 2994TIP3   OH230396   3.025   5.633   0.356 -0.0923  0.3307  0.3138
 2994TIP3    H130397   2.981   5.705   0.312 -0.5925  0.3752  0.8700
 2994TIP3    H230398   3.058   5.577   0.285 -3.6134 -1.3012 -0.2228
 2995TIP3   OH230399   2.584   5.051  10.694 -0.2718 -0.0187  0.3682
 2995TIP3    H130400   2.645   4.982  10.719  0.9638  1.4090  1.5277
 2995TIP3    H230401   2.538   5.074  10.775 -0.6764  0.4926  0.0021
 2996TIP3   OH230402   3.562   4.014  13.020  0.0694 -0.4804  0.2562
 2996TIP3    H130403   3.578   4.107  13.031 -0.2476 -0.0610 -2.2070
 2996TIP3    H230404   3.554   4.002  12.926 -2.5842 -2.5407  0.6164
 2997TIP3   OH230405   4.582   0.694   6.302  0.8677  0.3405  0.4114
 2997TIP3    H130406   4.567   0.706   6.396  2.0878  0.1760  0.6365
 2997TIP3    H230407   4.496   0.667   6.268  0.3693  0.5690  1.4407
 2998TIP3   OH230408   1.840   1.178   2.286 -0.2094  0.3426 -0.5741
 2998TIP3    H130409   1.781   1.108   2.258 -1.0464  0.9793 -0.4352
 2998TIP3    H230410   1.800   1.212   2.366  1.1828 -0.2375  0.4129
 2999TIP3   OH230411   0.282   0.530  13.501  0.6246 -0.2190 -0.5186
 2999TIP3    H130412   0.190   0.537  13.474  0.7295  0.2189 -0.7712
 2999TIP3    H230413   0.318   0.618  13.486  0.4346  0.3583  1.9689
 3000TIP3   OH230414   5.015   5.587   2.800  0.2641  0.1146 -0.2195
 3000TIP3    H130415   5.041   5.500   2.769 -0.4700 -1.0408  2.1442
 3000TIP3    H230416   5.092   5.620   2.846  0.0951  0.0993  0.0766
 3001TIP3   OH230417   4.626   4.794  16.883  0.2912  0.6068 -0.3384
 3001TIP3    H130418   4.701   4.811  16.940  0.0719  0.0493  0.1186
 3001TIP3    H230419   4.666   4.767  16.800  0.6800  3.7778 -1.2974
 3002TIP3   OH230420   0.185   2.020  16.223  0.0348  0.0842 -0.2004
 3002TIP3    H130421   0.120   2.031  16.293  0.0537 -1.4186  0.0832
 3002TIP3    H230422   0.221   1.933  16.238 -1.6764 -1.3320 -3.4805
 3003TIP3   OH230423   1.955   2.142   2.863  0.5515  0.1631 -0.4592
 3003TIP3    H130424   1.865   2.150   2.897  1.0412 -1.0580  1.2898
 3003TIP3    H230425   1.960   2.208   2.794 -1.1621  1.4657  0.5479
 3004TIP3   OH230426   5.664   4.920  15.100  0.7795  0.1537  0.0529
 3004TIP3    H130427   5.734   4.919  15.035  0.1836 -1.5411 -0.6107
 3004TIP3    H230428   5.707   4.893  15.182  0.9200 -0.9144 -0.3571
 3005TIP3   OH230429   3.723   6.603  11.216  0.2045  0.0262 -0.2354
 3005TIP3    H130430   3.652   6.540  11.202 -1.5214  1.7123  0.5728
 3005TIP3    H230431   3.733   6.647  11.132  1.3377 -1.1650 -0.7696
 3006TIP3   OH230432   4.589   2.881   0.663 -0.0338  0.3534  0.3459
 3006TIP3    H130433   4.534   2.820   0.712  0.3947 -0.7885 -0.5605
 3006TIP3    H230434   4.599   2.841   0.577  0.4198  1.6226 -0.2177
 3007TIP3   OH230435   4.569   3.844   4.629 -0.0139 -0.2427 -0.3773
 3007TIP3    H130436   4.552   3.933   4.597 -1.9915 -0.0505  0.9679
 3007TIP3    H230437   4.639   3.811   4.574  1.5354  2.5266 -0.2404
 3008TIP3   OH230438   5.547   2.691   3.042 -0.0538 -0.3847 -0.3406
 3008TIP3    H130439   5.561   2.600   3.014 -0.4763 -0.3995 -0.5084
 3008TIP3    H230440   5.544   2.687   3.137  0.3209 -0.4875 -0.3285
 3009TIP3   OH230441   1.583   5.146   3.025  0.5871 -0.1930  0.4543
 3009TIP3    H130442   1.581   5.195   2.943 -1.8624  0.7604  0.9834
 3009TIP3    H230443   1.645   5.194   3.080  1.2736 -0.0960 -0.3827
 3010TIP3   OH230444   1.833   5.099   0.550 -0.5101  0.2048  0.2592
 3010TIP3    H130445   1.779   5.164   0.594 -0.0676  0.4976  0.3819
 3010TIP3    H230446   1.784   5.076   0.471 -0.2573  1.3757 -0.2654
 3011TIP3   OH230447   6.454   3.894   3.949  0.1887 -0.2021 -0.2022
 3011TIP3    H130448   6.477   3.986   3.933  1.4255 -0.6797 -1.3659
 3011TIP3    H230449   6.456   3.885   4.044  0.2805  0.9221 -0.0856
 3012TIP3   OH230450   0.337   2.043   5.879 -0.4192 -0.3328  0.4042
 3012TIP3    H130451   0.431   2.043   5.860 -0.8070  0.1519 -1.8126
 3012TIP3    H230452   0.331   2.069   5.971  1.5859  0.3828  0.3768
 3013TIP3   OH230453   4.242   1.935  14.630  0.2646  0.1099 -0.2088
 3013TIP3    H130454   4.226   1.936  14.536  0.9708 -1.1879 -0.3561
 3013TIP3    H230455   4.248   2.028  14.655  1.4001  0.4528 -1.6616
 3014TIP3   OH230456   2.451   5.182   6.051  0.1212 -0.0451  0.6243
 3014TIP3    H130457   2.400   5.248   6.097 -1.0446  0.7597 -1.6809
 3014TIP3    H230458   2.540   5.217   6.050 -0.1377  0.6313  0.9356
 3015TIP3   OH230459   0.556   6.655  15.222  0.1324 -0.4084 -0.0561
 3015TIP3    H130460   0.508   6.586  15.269  0.0833  1.2833  2.5869
 3015TIP3    H230461   0.547   6.631  15.130 -5.3573 -0.5718  0.1917
 3016TIP3   OH230462   0.464   3.446  12.709  0.4035  0.1348 -0.3956
 3016TIP3    H130463   0.381   3.400  12.702 -0.4497  1.0330  2.4470
 3016TIP3    H230464   0.530   3.380  12.686 -0.9563 -1.3198 -0.2968
 3017TIP3   OH230465   4.477   1.390  15.118  0.0845 -0.3472 -0.0601
 3017TIP3    H130466   4.475   1.295  15.130  0.6448 -0.5352 -1.3564
 3017TIP3    H230467   4.394   1.421  15.154 -1.8805 -1.7462 -3.0756
 3018TIP3   OH230468   3.880   4.172  15.319  0.5828  0.5806 -0.1935
 3018TIP3    H130469   3.900   4.127  15.238 -1.4721 -1.9651  0.5614
 3018TIP3    H230470   3.804   4.226  15.298  1.0758  1.2397 -0.3232
 3019TIP3   OH230471   0.189   3.254   2.732 -0.2812  0.0883 -0.3468
 3019TIP3    H130472   0.098   3.248   2.705  0.4825  0.1059 -3.2304
 3019TIP3    H230473   0.198   3.344   2.766 -1.0322  0.5753 -1.3825
 3020TIP3   OH230474   0.816   6.508   0.767  0.0058  0.8979  0.4297
 3020TIP3    H130475   0.749   6.453   0.807 -0.1879  0.2081 -0.7904
 3020TIP3    H230476   0.798   6.596   0.800 -0.9444  0.5745  0.7991
 3021TIP3   OH230477   2.240   5.966  15.084  0.2256 -0.0600  0.5333
 3021TIP3    H130478   2.150   5.937  15.097 -0.5001  1.5664 -0.6732
 3021TIP3    H230479   2.290   5.885  15.075 -1.3890 -0.9769 -0.5863
 3022TIP3   OH230480   6.701   0.570   2.160 -0.3341  0.3257 -0.2789
 3022TIP3    H130481   6.692   0.559   2.065 -1.8540 -0.1480 -0.1088
 3022TIP3    H230482   6.795   0.579   2.174  0.0863 -1.3516 -1.6480
 3023TIP3   OH230483   6.564   0.700  14.713 -0.4052  0.0639  0.0813
 3023TIP3    H130484   6.519   0.756  14.650 -1.0051 -2.4962 -1.9939
 3023TIP3    H230485   6.653   0.692  14.678  0.8712  2.4978  2.3915
 3024TIP3   OH230486   2.385   4.912   6.133  0.0668  0.0987 -0.4165
 3024TIP3    H130487   2.406   4.978   6.200 -0.3453  0.7451 -0.9124
 3024TIP3    H230488   2.374   4.962   6.053 -0.2476 -0.5863 -0.8090
 3025TIP3   OH230489   6.785   0.447  13.048  0.6840 -0.2629  0.2910
 3025TIP3    H130490   6.709   0.411  13.003  0.2911 -0.0756  0.8072
 3025TIP3    H230491   6.773   0.542  13.045  0.5237 -0.2570  1.0170
 3026TIP3   OH230492   3.869   0.430  13.149  0.4217  0.2115  0.0512
 3026TIP3    H130493   3.806   0.500  13.132  0.1460 -0.0587 -0.0428
 3026TIP3    H230494   3.848   0.399  13.238 -1.4371 -1.7809 -0.9986
 3027TIP3   OH230495   6.398   1.212   4.705 -0.4549  0.3095 -0.2229
 3027TIP3    H130496   6.472   1.152   4.717 -0.3960  0.0533 -1.6159
 3027TIP3    H230497   6.321   1.160   4.728 -0.2676  0.2990  0.3923
 3028TIP3   OH230498   3.577   5.566  15.549  0.4514  0.6288 -0.0950
 3028TIP3    H130499   3.531   5.512  15.485  0.3952 -1.0829  1.3297
 3028TIP3    H230500   3.628   5.628  15.496 -0.1520 -0.2531 -1.7616
 3029TIP3   OH230501   5.243   5.267   4.591  0.1313  0.8375  0.1246
 3029TIP3    H130502   5.211   5.346   4.635  3.5125  0.6073  3.4803
 3029TIP3    H230503   5.323   5.296   4.545 -0.1940 -0.1218 -1.1190
 3030TIP3   OH230504   5.518   3.764   3.643 -0.3692 -0.1337  0.2280
 3030TIP3    H130505   5.598   3.816   3.650 -0.0440 -0.5920  0.0478
 3030TIP3    H230506   5.447   3.825   3.662  0.0856  0.0268  1.5042
 3031TIP3   OH230507   0.999   2.135   1.424  0.5030  0.7934  1.1581
 3031TIP3    H130508   0.997   2.065   1.359 -0.4235 -1.2942  3.2762
 3031TIP3    H230509   1.086   2.128   1.464  1.9979  3.5851 -1.2303
 3032TIP3   OH230510   6.790   4.018  12.460  0.3038  0.1201  0.4601
 3032TIP3    H130511   6.857   4.061  12.512  1.0985 -0.6890  0.1361
 3032TIP3    H230512   6.839   3.968  12.394 -0.5475 -1.3996  0.9098
 3033TIP3   OH230513   0.866   0.897  11.661  0.1077 -0.5543  0.4543
 3033TIP3    H130514   0.771   0.887  11.667 -0.2514  2.2446  0.8962
 3033TIP3    H230515   0.887   0.961  11.730  2.4128 -1.5862  0.7748
 3034TIP3   OH230516   4.727   3.673   4.430 -0.1174 -0.2434  0.2679
 3034TIP3    H130517   4.712   3.658   4.337  1.9892  2.3042 -0.6244
 3034TIP3    H230518   4.656   3.627   4.474 -3.2068  1.2288 -2.7742
 3035TIP3   OH230519   3.454   4.799   2.766 -0.0978  0.5350 -0.2039
 3035TIP3    H130520   3.396   4.780   2.692  0.4656 -0.1612 -0.4842
 3035TIP3    H230521   3.416   4.876   2.808  0.9301  2.5411 -2.7030
 3036TIP3   OH230522   1.792   0.278   5.448 -0.6594  0.7392  0.0743
 3036TIP3    H130523   1.838   0.321   5.520  2.3560 -1.3265 -0.4043
 3036TIP3    H230524   1.836   0.311   5.369  0.2985 -1.4766 -0.3978
 3037TIP3   OH230525   5.151   6.292  11.362  0.2689 -0.3659  0.6527
 3037TIP3    H130526   5.237   6.332  11.353  0.6901 -1.5871 -1.7859
 3037TIP3    H230527   5.169   6.199  11.378 -0.5909 -0.4986  0.8945
 3038TIP3   OH230528   5.475   2.187  11.330 -0.4410  0.1955 -0.1090
 3038TIP3    H130529   5.480   2.282  11.326 -0.6502  0.2661  0.9408
 3038TIP3    H230530   5.397   2.169  11.382  0.1421 -0.5188  0.5587
 3039TIP3   OH230531   2.857   4.388   4.083 -0.6251  0.7005  0.3116
 3039TIP3    H130532   2.882   4.469   4.127 -0.6612 -0.6681  3.1023
 3039TIP3    H230533   2.763   4.379   4.101 -1.0965  1.0141 -1.7588
 3040TIP3   OH230534   6.412   1.483   1.136  0.4197  0.4493 -0.5959
 3040TIP3    H130535   6.374   1.404   1.099  0.7063 -1.7644  3.2944
 3040TIP3    H230536   6.337   1.540   1.152 -0.4500 -0.9561  0.5845
 3041TIP3   OH230537   2.299   0.077  11.004  0.1605 -0.2184 -0.4101
 3041TIP3    H130538   2.331   0.167  10.995 -0.4370 -0.0330 -0.8293
 3041TIP3    H230539   2.344   0.029  10.935  0.6021 -0.2728 -0.0808
 3042TIP3   OH230540   3.014   2.416   0.799  0.6274 -0.3811 -0.1428
 3042TIP3    H130541   3.070   2.474   0.747 -0.2677 -0.1061 -0.8235
 3042TIP3    H230542   3.010   2.335   0.749  1.1169 -0.7057  0.3397
 3043TIP3   OH230543   1.983   2.651   1.390  0.4288 -0.1896  0.1775
 3043TIP3    H130544   1.947   2.709   1.323 -1.4390 -0.0402  1.2210
 3043TIP3    H230545   2.074   2.638   1.365  0.5627  2.1583 -0.8042
 3044TIP3   OH230546   5.464   4.057   1.548 -0.0989  0.4269  0.1332
 3044TIP3    H130547   5.490   4.137   1.594  1.9292  0.8518 -1.5632
 3044TIP3    H230548   5.373   4.042   1.574 -0.5131  3.2420  0.5796
 3045TIP3   OH230549   1.342   5.832  11.510  0.2734  0.3074  0.1305
 3045TIP3    H130550   1.381   5.760  11.462  1.2172  1.1649 -0.4251
 3045TIP3    H230551   1.402   5.906  11.496 -0.1336  0.9370  1.5038
 3046TIP3   OH230552   6.321   5.669  12.854  0.0201  0.0880  0.2277
 3046TIP3    H130553   6.252   5.675  12.789 -0.1586 -1.1666  0.2700
 3046TIP3    H230554   6.314   5.750  12.905 -1.1846  0.1277  0.0202
 3047TIP3   OH230555   6.240   2.809  12.579 -0.3553 -0.1800  0.1821
 3047TIP3    H130556   6.280   2.893  12.598  1.4906 -0.8338 -0.6367
 3047TIP3    H230557   6.219   2.812  12.486 -0.1375 -0.6729  0.1120
 3048TIP3   OH230558   3.260   3.912  15.024 -0.2975 -0.5142  0.1473
 3048TIP3    H130559   3.177   3.959  15.035 -1.1790 -1.5406 -1.5367
 3048TIP3    H230560   3.236   3.835  14.972  1.6393 -1.0996  0.0622
 3049TIP3   OH230561   6.643   0.616   3.103 -0.3432 -0.7574  0.5963
 3049TIP3    H130562   6.603   0.696   3.067  2.5458  0.8694  0.7096
 3049TIP3    H230563   6.675   0.569   3.026  2.0101  0.5705  0.6824
 3050TIP3   OH230564   3.085   3.870  13.916 -0.2675 -0.0246 -0.3516
 3050TIP3    H130565   3.099   3.909  14.002  1.5806  0.4907 -0.8464
 3050TIP3    H230566   3.056   3.781  13.934  0.4565 -0.0380  0.8082
 3051TIP3   OH230567   1.104   2.716  11.285 -0.6083  0.0511 -0.4668
 3051TIP3    H130568   1.172   2.652  11.303 -2.1501 -0.8741  2.6936
 3051TIP3    H230569   1.121   2.787  11.347 -0.9133  1.1485 -1.5969
 3052TIP3   OH230570   4.547   1.769  11.898  0.4865 -0.3371  0.6150
 3052TIP3    H130571   4.507   1.831  11.959  1.3457  0.3155  0.5226
 3052TIP3    H230572   4.602   1.714  11.953  1.2404  0.2344  0.4428
 3053TIP3   OH230573   1.109   3.298   1.734 -0.3997 -0.0228  0.7306
 3053TIP3    H130574   1.128   3.361   1.665 -0.3187  0.3839  1.1198
 3053TIP3    H230575   1.023   3.323   1.767  0.8316  1.7935  2.9072
 3054TIP3   OH230576   3.468   0.820   0.319 -0.0463 -0.9780 -0.3719
 3054TIP3    H130577   3.533   0.783   0.259 -0.4342 -0.2603 -1.2575
 3054TIP3    H230578   3.429   0.744   0.362 -0.4944 -1.5801 -1.8010
 3055TIP3   OH230579   6.251   3.234  11.637 -0.0971 -0.0060 -0.1029
 3055TIP3    H130580   6.196   3.266  11.709  0.2153  1.7371 -0.5989
 3055TIP3    H230581   6.212   3.272  11.559 -0.7677 -2.3350 -0.9696
 3056TIP3   OH230582   0.071   1.458   2.523  0.3581 -0.5751 -0.1102
 3056TIP3    H130583   0.124   1.418   2.592 -0.3063 -1.1942  0.0537
 3056TIP3    H230584  -0.007   1.403   2.519  0.0845 -0.1316 -0.8841
 3057TIP3   OH230585   0.290   1.209   5.993 -0.0569 -0.0534  0.5533
 3057TIP3    H130586   0.377   1.237   6.022 -0.3922  0.7775  0.7735
 3057TIP3    H230587   0.250   1.171   6.071  1.4903 -4.0744 -0.3833
 3058TIP3   OH230588   4.826   3.809   4.898 -0.6124  0.1135 -0.6233
 3058TIP3    H130589   4.875   3.772   4.972  2.5136  0.7110 -2.2468
 3058TIP3    H230590   4.798   3.896   4.929 -0.9954 -0.3849  0.4685
 3059TIP3   OH230591   1.558   1.177   3.236 -0.0278  0.1563  0.2952
 3059TIP3    H130592   1.507   1.149   3.159  2.3311 -3.1583 -0.2822
 3059TIP3    H230593   1.506   1.146   3.310  0.1918 -1.6512 -0.2331
 3060TIP3   OH230594   1.191   4.355   0.210 -0.1438 -0.5922  0.2442
 3060TIP3    H130595   1.206   4.298   0.135  1.4953  0.6445 -0.4232
 3060TIP3    H230596   1.144   4.430   0.175 -1.1498 -0.9096  0.8675
 3061TIP3   OH230597   1.395   2.256   3.217 -0.1377  0.4421 -0.0683
 3061TIP3    H130598   1.430   2.343   3.198  1.2087  0.2256  1.2209
 3061TIP3    H230599   1.470   2.207   3.252 -1.4676 -0.3817  1.8003
 3062TIP3   OH230600   5.001   4.762   4.491 -0.1218  0.2485 -0.5005
 3062TIP3    H130601   5.078   4.790   4.442 -0.7970  1.2873 -1.0197
 3062TIP3    H230602   5.012   4.802   4.578 -0.2342  0.6909 -0.6856
 3063TIP3   OH230603   1.367   2.167  12.243 -0.4421  0.4863 -0.3118
 3063TIP3    H130604   1.317   2.248  12.236 -1.5068 -0.1771 -0.6671
 3063TIP3    H230605   1.303   2.102  12.274  0.7269  0.1000  1.4161
 3064TIP3   OH230606   3.147   0.415   5.538 -0.1741  0.1599  0.0938
 3064TIP3    H130607   3.190   0.453   5.462  0.1209 -2.6091 -1.2283
 3064TIP3    H230608   3.209   0.351   5.572 -1.2730 -0.3608  1.2028
 3065TIP3   OH230609   0.483   5.818  13.059  0.2210 -0.3642 -0.3602
 3065TIP3    H130610   0.517   5.866  12.984  2.4428 -0.8564  0.2555
 3065TIP3    H230611   0.436   5.743  13.021 -0.4818  0.5066 -1.2513
 3066TIP3   OH230612   1.759   3.970   0.527  0.0408  0.0599  0.1020
 3066TIP3    H130613   1.757   4.035   0.598 -0.6498 -0.2382  0.3571
 3066TIP3    H230614   1.667   3.951   0.509  0.2116 -0.0302 -0.7340
 3067TIP3   OH230615   1.918   2.792   4.146  0.5292  0.3370 -0.5492
 3067TIP3    H130616   1.836   2.827   4.111  0.2758 -0.5277 -0.8493
 3067TIP3    H230617   1.968   2.766   4.069  0.1074 -1.2677 -0.3316
 3068TIP3   OH230618   1.101   6.407   5.951 -0.9369 -0.4780 -0.4280
 3068TIP3    H130619   1.108   6.322   5.996 -0.7004  0.0541  0.5692
 3068TIP3    H230620   1.183   6.452   5.973 -1.9054  0.7974  0.7346
 3069TIP3   OH230621   4.262   2.983   3.559  0.2065  0.4480  1.0229
 3069TIP3    H130622   4.253   2.896   3.599  0.9245  1.5514  3.8211
 3069TIP3    H230623   4.353   2.987   3.529 -0.3042 -0.3405 -0.8136
 3070TIP3   OH230624   2.131   2.660   5.950 -0.3646 -0.0255  0.1607
 3070TIP3    H130625   2.048   2.647   5.995 -0.8237  0.1377 -0.6253
 3070TIP3    H230626   2.185   2.708   6.013 -0.6406 -0.6629  0.9087
 3071TIP3   OH230627   0.273   5.661  12.470 -1.0724  0.2035  0.1983
 3071TIP3    H130628   0.280   5.575  12.427 -1.5350 -0.4013  1.2772
 3071TIP3    H230629   0.183   5.689  12.455 -1.5075 -0.4209  1.4548
 3072TIP3   OH230630   2.446   5.402  11.600 -0.0554 -0.3650 -0.4435
 3072TIP3    H130631   2.451   5.497  11.605 -3.0948 -0.1571  0.1346
 3072TIP3    H230632   2.422   5.374  11.688 -0.1678 -1.5864 -0.8410
 3073TIP3   OH230633   4.157   3.959   2.029 -0.6554  0.2677 -0.2966
 3073TIP3    H130634   4.098   4.015   1.979 -0.6575 -1.0507 -1.8752
 3073TIP3    H230635   4.219   3.926   1.964  1.0021  0.5654  1.0821
 3074TIP3   OH230636   4.097   5.083   5.646 -0.1777  0.8343  0.0205
 3074TIP3    H130637   4.002   5.072   5.652 -0.1254 -0.7710 -1.3429
 3074TIP3    H230638   4.131   5.037   5.723 -0.4018 -1.5966 -1.2412
 3075TIP3   OH230639   4.702   2.372   4.410  0.0855 -0.2846 -1.0842
 3075TIP3    H130640   4.655   2.352   4.491  0.0108  0.9415 -0.8015
 3075TIP3    H230641   4.738   2.459   4.425 -1.2008  0.6218 -2.9496
 3076TIP3   OH230642   2.192   3.346   3.152  0.8647  0.4268  0.3409
 3076TIP3    H130643   2.120   3.284   3.166  2.6522 -1.6969  0.6322
 3076TIP3    H230644   2.207   3.344   3.058  2.3081 -1.3434  0.5509
 3077TIP3   OH230645   1.314   5.687   1.653  0.4163  0.3336  0.2444
 3077TIP3    H130646   1.322   5.725   1.740 -0.7455 -0.5532  0.7633
 3077TIP3    H230647   1.221   5.693   1.632  0.9229  2.4565 -1.8573
 3078TIP3   OH230648   4.717   4.665  15.493 -0.1376  0.4885 -0.4243
 3078TIP3    H130649   4.782   4.734  15.503  1.7756 -1.2090 -0.5582
 3078TIP3    H230650   4.730   4.609  15.570 -1.6871  0.2625 -0.2854
 3079TIP3   OH230651   0.975   2.022   6.490 -0.3654 -0.3087  0.1478
 3079TIP3    H130652   0.917   2.060   6.556 -0.0758 -0.4945  0.5097
 3079TIP3    H230653   0.941   1.933   6.477  0.1017 -0.5736  0.6884
 3080TIP3   OH230654   2.949   0.162  17.076 -0.0356 -0.5229  0.6396
 3080TIP3    H130655   2.966   0.098  17.008 -0.2005 -0.8737  0.9269
 3080TIP3    H230656   3.023   0.223  17.071 -1.5107  1.2861 -1.9327
 3081TIP3   OH230657   0.211   5.695   2.099  0.3381 -0.6885  0.5261
 3081TIP3    H130658   0.173   5.776   2.065  0.5203 -0.3828  1.0374
 3081TIP3    H230659   0.273   5.725   2.166 -1.0963 -1.3432  2.1942
 3082TIP3   OH230660   5.266   1.437  16.199 -0.1947 -0.4045 -0.8406
 3082TIP3    H130661   5.332   1.478  16.144  0.5195 -0.7802 -0.2769
 3082TIP3    H230662   5.239   1.359  16.152 -0.4411 -0.1102 -1.1962
 3083TIP3   OH230663   1.370   5.853   0.414  0.3413  0.0819 -0.5181
 3083TIP3    H130664   1.387   5.761   0.392  0.0603  0.0246 -0.4892
 3083TIP3    H230665   1.457   5.889   0.431  0.4527 -0.1803 -0.5247
 3084TIP3   OH230666   3.306   4.054   3.483 -0.2257 -0.3778  0.6878
 3084TIP3    H130667   3.232   4.044   3.423  0.2665 -0.3844  0.0746
 3084TIP3    H230668   3.269   4.097   3.560 -0.6598  0.5373 -0.0201
 3085TIP3   OH230669   4.832   3.953   2.186 -0.3638  0.5447  0.3316
 3085TIP3    H130670   4.814   4.002   2.266  1.4606  2.3282 -0.2430
 3085TIP3    H230671   4.917   3.913   2.200  0.9797  2.5718 -1.3430
 3086TIP3   OH230672   5.407   5.444   3.937 -0.6598 -0.2186  0.6642
 3086TIP3    H130673   5.437   5.514   3.994  1.9937 -2.1482  1.8716
 3086TIP3    H230674   5.484   5.418   3.887 -1.9032 -1.3255 -0.8155
 3087TIP3   OH230675   2.934   4.706   4.497  0.6161  0.6177  0.2660
 3087TIP3    H130676   3.022   4.730   4.470  1.1250  1.5435  2.5137
 3087TIP3    H230677   2.936   4.611   4.505  1.0711  0.5335 -0.7046
 3088TIP3   OH230678   0.279   2.743  10.515  0.2098  0.0780 -0.5022
 3088TIP3    H130679   0.187   2.759  10.535  0.1298 -1.1579  0.2111
 3088TIP3    H230680   0.322   2.739  10.600  0.3701 -2.3864 -0.6504
 3089TIP3   OH230681   1.677   4.807  15.548 -0.6779  0.4080 -0.0374
 3089TIP3    H130682   1.621   4.736  15.517 -0.2805  0.3221 -0.5711
 3089TIP3    H230683   1.647   4.884  15.500  0.3860  0.1407 -1.1697
 3090TIP3   OH230684   0.436   4.844  16.798 -0.4153 -0.2923 -0.0986
 3090TIP3    H130685   0.348   4.837  16.759 -0.1597  1.8657 -1.2221
 3090TIP3    H230686   0.479   4.912  16.747  1.0724  0.4404  2.0194
 3091TIP3   OH230687   1.429   3.668   4.130 -0.2063 -0.7708 -0.7048
 3091TIP3    H130688   1.335   3.685   4.122 -0.4971 -2.3475 -1.1507
 3091TIP3    H230689   1.439   3.631   4.218  0.1848  0.3637 -0.2551
 3092TIP3   OH230690   1.355   5.240   0.753 -0.2696  0.0229 -0.4663
 3092TIP3    H130691   1.265   5.256   0.725 -0.3058  1.0770  0.2437
 3092TIP3    H230692   1.347   5.173   0.821 -0.4000 -0.7028 -1.1728
 3093TIP3   OH230693   4.147   3.235   3.434 -0.8655  0.5468  0.0388
 3093TIP3    H130694   4.108   3.159   3.477 -1.3668  0.7110 -0.1088
 3093TIP3    H230695   4.073   3.295   3.422 -0.6243  0.7333 -0.5485
 3094TIP3   OH230696   0.286   6.451  12.774 -0.2552 -0.2918  0.4979
 3094TIP3    H130697   0.328   6.392  12.713 -0.9480  1.0987 -1.4238
 3094TIP3    H230698   0.192   6.435  12.762 -0.4654  1.2899 -0.2369
 3095TIP3   OH230699   1.355   0.365  10.778  0.1141 -0.0745  0.4350
 3095TIP3    H130700   1.376   0.434  10.715 -0.4494 -0.7090 -0.4544
 3095TIP3    H230701   1.396   0.286  10.742 -0.1016 -0.4156  0.9274
 3096TIP3   OH230702   2.208   2.012   1.230  0.1522 -0.1221  0.9863
 3096TIP3    H130703   2.270   2.007   1.157 -0.1997  1.3528  0.5626
 3096TIP3    H230704   2.191   1.920   1.253 -0.5531 -0.6889 -1.4862
 3097TIP3   OH230705   1.229   4.639   1.240  0.0062 -0.0398 -0.0859
 3097TIP3    H130706   1.303   4.629   1.300  0.5960  2.2203 -0.3592
 3097TIP3    H230707   1.172   4.703   1.282 -1.4637 -1.1870 -0.2391
 3098TIP3   OH230708   4.854   6.160  11.209 -1.1045 -0.2844 -0.0796
 3098TIP3    H130709   4.922   6.097  11.230 -1.1555 -0.6834 -1.0528
 3098TIP3    H230710   4.870   6.184  11.117 -1.7590  0.2642 -0.0636
 3099TIP3   OH230711   1.264   2.462  14.689 -0.3695 -0.7643  0.2090
 3099TIP3    H130712   1.178   2.501  14.671 -0.3985 -0.8066  0.2559
 3099TIP3    H230713   1.270   2.388  14.628  0.6081  0.6120 -1.4769
 3100TIP3   OH230714   6.806   4.331   3.737 -0.8896  0.0911  0.1477
 3100TIP3    H130715   6.776   4.257   3.684 -2.0664  0.7412 -0.1420
 3100TIP3    H230716   6.731   4.353   3.792 -0.3302  0.6526  0.7082
 3101TIP3   OH230717   4.587   5.096  15.568 -1.1029 -0.4807  0.6827
 3101TIP3    H130718   4.559   5.087  15.477 -0.9750  2.7755  0.1840
 3101TIP3    H230719   4.519   5.150  15.609  1.0060  2.0279  1.1746
 3102TIP3   OH230720   6.728   6.338   1.144 -0.3142 -0.2530 -0.4816
 3102TIP3    H130721   6.742   6.305   1.055  1.9911  0.1788 -0.3427
 3102TIP3    H230722   6.687   6.424   1.131 -0.4097 -0.3849 -1.1120
 3103TIP3   OH230723   5.494   4.692  14.567  0.0198  0.0178 -0.2364
 3103TIP3    H130724   5.534   4.612  14.602  1.3072 -0.4829 -2.6320
 3103TIP3    H230725   5.557   4.725  14.504 -1.1210  2.1914 -0.3479
 3104TIP3   OH230726   5.465   1.337   4.614 -0.5265  0.1451  0.4171
 3104TIP3    H130727   5.432   1.317   4.526 -0.5900  0.9535  0.2469
 3104TIP3    H230728   5.401   1.299   4.673 -0.2519 -0.8012  0.1244
 3105TIP3   OH230729   5.431   6.423  11.159  0.2204 -0.1644  0.1868
 3105TIP3    H130730   5.355   6.390  11.112  0.3691  0.8485 -0.8040
 3105TIP3    H230731   5.489   6.348  11.167  0.1836 -0.3695 -1.2559
 3106TIP3   OH230732   5.144   4.012  14.951 -0.4358  0.2382 -0.3382
 3106TIP3    H130733   5.121   3.934  14.901  0.1345 -0.3083  0.2376
 3106TIP3    H230734   5.066   4.030  15.004 -0.5676  0.0595 -0.4674
 3107TIP3   OH230735   5.972   2.101  12.128 -0.2043 -0.2225  0.3277
 3107TIP3    H130736   6.043   2.151  12.169  1.7458 -1.1650 -1.6578
 3107TIP3    H230737   5.950   2.034  12.193 -0.1724  0.8226  1.4623
 3108TIP3   OH230738   1.320   6.627  13.462  0.3480  0.1638 -0.1322
 3108TIP3    H130739   1.290   6.681  13.388 -1.0671  0.1206  0.3753
 3108TIP3    H230740   1.274   6.544  13.450  1.4878 -0.4797 -0.1700
 3109TIP3   OH230741   1.689   0.089  13.980  0.1025  0.1041  0.2230
 3109TIP3    H130742   1.769   0.082  13.928  1.1257 -0.0024  1.7654
 3109TIP3    H230743   1.632   0.147  13.928  1.4826  0.8274 -0.5346
 3110TIP3   OH230744   6.494   0.281   2.264  0.4107 -0.1968  0.6562
 3110TIP3    H130745   6.438   0.224   2.317 -1.8205  1.2206 -0.0342
 3110TIP3    H230746   6.467   0.265   2.174  0.7776  0.8605  0.3359
 3111TIP3   OH230747   3.096   1.168   0.995 -0.2142  0.1057 -0.6440
 3111TIP3    H130748   3.040   1.090   0.993 -0.8652  0.5696 -1.3157
 3111TIP3    H230749   3.159   1.150   1.065 -2.0046  0.0948  1.0921
 3112TIP3   OH230750   3.991   3.486  13.308  0.0024  0.0174 -0.1184
 3112TIP3    H130751   3.961   3.411  13.256  1.8485  0.5397 -2.0643
 3112TIP3    H230752   4.001   3.451  13.396 -0.9393 -1.5423 -0.5867
 3113TIP3   OH230753   6.381   0.829   5.731  0.1992  0.3107 -0.0334
 3113TIP3    H130754   6.324   0.879   5.791  0.2456  2.4924 -1.6590
 3113TIP3    H230755   6.452   0.890   5.709 -0.0440 -0.2021 -2.6040
 3114TIP3   OH230756   1.496   6.301  15.535 -0.0001  0.7395 -0.3257
 3114TIP3    H130757   1.540   6.341  15.610  0.7605  0.5835 -0.6793
 3114TIP3    H230758   1.407   6.336  15.538 -0.3957 -0.2475  1.4191
 3115TIP3   OH230759   3.776   0.380   3.168 -0.3786  0.2214 -0.2970
 3115TIP3    H130760   3.733   0.320   3.107 -1.1899  0.2230  0.2570
 3115TIP3    H230761   3.778   0.464   3.122 -0.6368  0.1353 -0.4684
 3116TIP3   OH230762   1.327   2.338  11.273  0.3930  0.8368 -0.0303
 3116TIP3    H130763   1.419   2.359  11.290  0.2941  0.8990  0.4498
 3116TIP3    H230764   1.279   2.417  11.301  0.0358  0.0933  1.5363
 3117TIP3   OH230765   2.279   0.191   4.414 -0.1333 -0.4200 -0.3331
 3117TIP3    H130766   2.306   0.119   4.471 -1.5639 -0.6820  0.0513
 3117TIP3    H230767   2.229   0.249   4.471  0.7346  0.7450 -0.7140
 3118TIP3   OH230768   0.627   2.874   0.538  0.2472 -0.1908 -0.7555
 3118TIP3    H130769   0.718   2.850   0.555  0.7208 -0.5994 -3.4114
 3118TIP3    H230770   0.585   2.792   0.513 -1.4952 -0.4282  2.4619
 3119TIP3   OH230771   4.976   5.495  14.058 -0.3669 -0.1765  0.0943
 3119TIP3    H130772   5.004   5.405  14.070 -2.1081 -1.3384 -3.2468
 3119TIP3    H230773   5.025   5.525  13.981 -0.0233  1.6709  0.9878
 3120TIP3   OH230774   5.609   5.595   1.805 -0.2596  0.5464  0.6541
 3120TIP3    H130775   5.578   5.563   1.890 -1.6516 -1.9638 -0.6809
 3120TIP3    H230776   5.555   5.672   1.787 -0.0995  0.9781  1.9224
 3121TIP3   OH230777   2.972   2.240  16.864  0.4015 -0.2155  0.6437
 3121TIP3    H130778   2.893   2.283  16.832  0.7907 -1.0225 -1.6014
 3121TIP3    H230779   2.948   2.147  16.870  1.5521 -0.7330 -1.6473
 3122TIP3   OH230780   0.563   5.506   2.164 -0.1804 -0.0478 -0.2742
 3122TIP3    H130781   0.515   5.586   2.146 -1.0369  0.0008  1.9130
 3122TIP3    H230782   0.625   5.530   2.233 -0.4113 -1.2165  0.3707
 3123TIP3   OH230783   2.424   5.856  14.374  0.0946 -0.8741  0.2156
 3123TIP3    H130784   2.473   5.793  14.427 -0.2760 -0.1486  1.4563
 3123TIP3    H230785   2.335   5.819  14.370  0.3684 -1.4744 -0.8496
 3124TIP3   OH230786   2.715   3.224   0.090 -0.2647  0.2068  0.2026
 3124TIP3    H130787   2.629   3.251   0.123 -0.5634 -0.0405 -0.3582
 3124TIP3    H230788   2.708   3.129   0.079 -0.4689  0.3898 -1.3975
 3125TIP3   OH230789   2.803   0.542  13.652 -0.0728  0.6683  0.1858
 3125TIP3    H130790   2.879   0.577  13.605 -0.6011  0.7200 -0.6510
 3125TIP3    H230791   2.753   0.496  13.585 -0.5722  0.2796  0.8166
 3126TIP3   OH230792   5.363   0.245   4.321 -0.5773 -0.0410  0.0713
 3126TIP3    H130793   5.455   0.258   4.342 -1.0408 -0.2565  2.4549
 3126TIP3    H230794   5.334   0.329   4.284 -0.2818  1.3286  2.7540
 3127TIP3   OH230795   4.538   1.879   1.574  0.6460 -0.2592  0.4810
 3127TIP3    H130796   4.521   1.809   1.512  1.2393 -1.1308  1.2708
 3127TIP3    H230797   4.587   1.944   1.524  1.2872 -1.0327  0.0902
 3128TIP3   OH230798   0.975   0.217   5.847  0.3849 -0.1973  0.4405
 3128TIP3    H130799   1.030   0.173   5.911 -1.3846  0.8173  2.8119
 3128TIP3    H230800   0.901   0.158   5.834  0.1111  0.1597  0.3436
 3129TIP3   OH230801   2.402   5.868  11.988 -0.1564  0.0103 -0.7209
 3129TIP3    H130802   2.402   5.838  12.079 -1.3023 -0.8570 -0.9958
 3129TIP3    H230803   2.344   5.807  11.942 -1.2145  1.6435 -1.6394
 3130TIP3   OH230804   1.295   5.486  14.089 -0.0498 -0.2505 -0.1586
 3130TIP3    H130805   1.350   5.536  14.028  2.2918 -1.1279  1.0882
 3130TIP3    H230806   1.234   5.439  14.033  0.1864  1.0744 -1.6101
 3131TIP3   OH230807   5.035   0.541  16.365  0.0335 -0.7625  0.3382
 3131TIP3    H130808   4.974   0.489  16.312 -0.0787 -1.1527  0.8519
 3131TIP3    H230809   4.991   0.552  16.449  0.3930 -0.4928  0.4940
 3132TIP3   OH230810   6.792   0.826  14.052  0.2638 -0.2129  0.1536
 3132TIP3    H130811   6.798   0.803  13.960 -1.7092 -0.6244  0.0736
 3132TIP3    H230812   6.777   0.742  14.097  1.9245 -0.1212  0.9726
 3133TIP3   OH230813   6.513   2.268   1.646 -0.2491 -0.4236  0.8099
 3133TIP3    H130814   6.559   2.237   1.567  0.2295  1.0572  0.4720
 3133TIP3    H230815   6.454   2.336   1.613  1.4891  1.7594  1.9325
 3134TIP3   OH230816   1.860   1.548  16.178  0.0902 -0.1905  0.3744
 3134TIP3    H130817   1.945   1.517  16.148  1.5734 -0.2348  4.0925
 3134TIP3    H230818   1.809   1.468  16.192 -0.9457 -0.1426 -2.4687
 3135TIP3   OH230819   0.494   4.368   4.425 -0.3716  0.0833  0.3300
 3135TIP3    H130820   0.534   4.452   4.402  1.2268 -1.1548 -1.7606
 3135TIP3    H230821   0.561   4.323   4.476 -0.9673 -0.2082  0.8744
 3136TIP3   OH230822   5.581   6.046  16.083 -0.4278  0.2398 -0.5014
 3136TIP3    H130823   5.497   6.090  16.070 -1.4982 -1.9393 -1.3738
 3136TIP3    H230824   5.593   5.992  16.005  0.6466 -1.2436  0.6164
 3137TIP3   OH230825   2.521   4.093  15.948  0.6132 -0.1106 -0.3006
 3137TIP3    H130826   2.500   4.063  16.037  0.3269 -0.5823 -0.5266
 3137TIP3    H230827   2.480   4.029  15.890  1.9242 -0.5599 -0.7677
 3138TIP3   OH230828   0.350   2.460   5.181 -0.2263  0.3147  0.2365
 3138TIP3    H130829   0.285   2.392   5.197  1.3681 -1.4345 -0.3282
 3138TIP3    H230830   0.431   2.425   5.217  1.0370  1.0991 -1.6848
 3139TIP3   OH230831   5.845   3.967  11.937 -0.0055  0.0180  0.3384
 3139TIP3    H130832   5.808   4.045  11.897 -0.3443  0.1600  0.9142
 3139TIP3    H230833   5.775   3.934  11.994  1.0130  0.7245  2.0537
 3140TIP3   OH230834   6.480   0.788   1.247 -0.0222 -0.1964  0.2872
 3140TIP3    H130835   6.562   0.791   1.295  0.9035 -0.5815 -1.1837
 3140TIP3    H230836   6.425   0.727   1.295  0.5025  0.1642  1.3644
 3141TIP3   OH230837   4.171   0.830   0.748  0.3190 -0.1542 -0.0652
 3141TIP3    H130838   4.132   0.808   0.663 -1.3543 -0.5224  0.7746
 3141TIP3    H230839   4.097   0.849   0.805  1.4593  1.4166  0.9879
 3142TIP3   OH230840   6.499   0.030  16.062 -0.6482 -0.8084  1.0904
 3142TIP3    H130841   6.454   0.108  16.096  1.2601  2.0704 -2.3069
 3142TIP3    H230842   6.462   0.017  15.974  2.1511 -0.8411 -0.1909
 3143TIP3   OH230843   0.735   1.733   5.525  0.4878  0.2330  0.4118
 3143TIP3    H130844   0.653   1.782   5.536 -0.6429 -0.9659 -1.9206
 3143TIP3    H230845   0.797   1.777   5.583 -1.1028  2.7923  0.3409
 3144TIP3   OH230846   3.928   3.467   1.982 -0.6802  0.3548  0.0857
 3144TIP3    H130847   3.879   3.418   2.048 -0.5797  0.9008  0.5709
 3144TIP3    H230848   3.894   3.556   1.989  0.4080  0.7536  0.4714
 3145TIP3   OH230849   3.456   4.348  12.560 -0.0390  0.3500 -0.8174
 3145TIP3    H130850   3.530   4.401  12.528  0.9375 -1.3019 -1.4287
 3145TIP3    H230851   3.459   4.268  12.507 -0.6737 -0.8753  0.8940
 3146TIP3   OH230852   6.021   6.274   0.675  0.3129 -0.1259 -0.3736
 3146TIP3    H130853   6.101   6.225   0.694  0.4313  0.1518 -0.1425
 3146TIP3    H230854   5.951   6.218   0.706  0.3514 -0.8130 -1.4795
 3147TIP3   OH230855   0.436   4.225  15.358  0.0099 -0.6237 -0.0208
 3147TIP3    H130856   0.349   4.250  15.391  1.6977  1.2534  3.6375
 3147TIP3    H230857   0.458   4.147  15.409  0.4048 -1.2639 -1.1433
 3148TIP3   OH230858   2.873   6.322  12.240  0.7511 -0.2524  0.5232
 3148TIP3    H130859   2.834   6.295  12.323 -1.1902  0.9303  0.0526
 3148TIP3    H230860   2.893   6.240  12.195 -3.0655 -1.0674 -0.0107
 3149TIP3   OH230861   3.867   4.067  15.083 -0.4592  0.2977  0.9086
 3149TIP3    H130862   3.942   4.035  15.034 -0.5129  1.5351 -0.0403
 3149TIP3    H230863   3.805   3.994  15.085 -0.2526  0.0707 -0.4516
 3150TIP3   OH230864   4.891   6.216   3.067 -0.2551  0.5528  0.0004
 3150TIP3    H130865   4.953   6.158   3.022  0.6976 -0.4402  2.4259
 3150TIP3    H230866   4.820   6.157   3.095 -0.3761  0.9565  0.5616
 3151TIP3   OH230867   3.660   5.160  17.003  0.8368 -0.1550 -0.1116
 3151TIP3    H130868   3.605   5.232  17.034  0.4480 -0.0265 -1.0711
 3151TIP3    H230869   3.659   5.096  17.075  0.6082  0.4777  0.4565
 3152TIP3   OH230870   2.321   4.921   2.453 -0.3297  1.1829  0.0281
 3152TIP3    H130871   2.361   4.876   2.528  0.6154  1.8516 -0.0471
 3152TIP3    H230872   2.266   4.989   2.492 -0.4676  1.0128  0.1275
 3153TIP3   OH230873   3.240   2.901  11.493 -0.0675  0.2412 -0.1092
 3153TIP3    H130874   3.242   2.848  11.572 -1.8388  0.0028 -0.1736
 3153TIP3    H230875   3.332   2.917  11.472  0.4658 -1.0336  1.0846
 3154TIP3   OH230876   5.250   4.481  13.168 -0.6525  0.1838 -0.4007
 3154TIP3    H130877   5.164   4.505  13.134 -0.6581  0.0562 -0.4782
 3154TIP3    H230878   5.310   4.501  13.096 -0.5792  0.5441 -0.2457
 3155TIP3   OH230879   1.482   3.175  16.418  0.0829  0.2377 -0.5885
 3155TIP3    H130880   1.516   3.126  16.493 -1.8344 -1.6466 -0.8274
 3155TIP3    H230881   1.486   3.112  16.345 -2.5158  0.3266 -0.9081
 3156TIP3   OH230882   3.412   3.372  10.661  0.8011 -0.3872 -0.0366
 3156TIP3    H130883   3.337   3.321  10.631  0.5383 -1.0790  1.6570
 3156TIP3    H230884   3.374   3.445  10.708  1.1963  0.5671 -1.1622
 3157TIP3   OH230885   1.524   4.676   3.310  0.1614 -0.5698 -0.7445
 3157TIP3    H130886   1.431   4.655   3.311  0.4797 -2.2835  1.6611
 3157TIP3    H230887   1.556   4.635   3.229 -0.8027 -1.9949 -0.4523
 3158TIP3   OH230888   5.046   6.288   1.341  0.2772 -0.2241  0.4322
 3158TIP3    H130889   4.956   6.297   1.372  0.0814 -1.3449  0.2373
 3158TIP3    H230890   5.069   6.197   1.360  1.0792 -0.1771 -0.2535
 3159TIP3   OH230891   6.506   4.198  16.562  0.0762  0.3325  0.3240
 3159TIP3    H130892   6.537   4.251  16.488 -0.5929 -0.4923 -0.5742
 3159TIP3    H230893   6.578   4.200  16.625 -0.3914  3.3439  0.9294
 3160TIP3   OH230894   5.268   5.997  10.765 -0.3402 -1.0342  0.0789
 3160TIP3    H130895   5.338   6.000  10.830  0.3314 -1.1943 -0.6169
 3160TIP3    H230896   5.267   5.907  10.734 -0.8588 -1.0328  0.0928
 3161TIP3   OH230897   3.365   4.732   4.692 -0.4061  0.7939 -0.6786
 3161TIP3    H130898   3.384   4.825   4.705 -0.7323  1.0667 -1.9928
 3161TIP3    H230899   3.281   4.731   4.647 -0.4330 -0.1542 -0.6225
 3162TIP3   OH230900   0.676   5.591   2.404  0.0634  0.6553 -0.0636
 3162TIP3    H130901   0.626   5.551   2.476  1.4633  0.3625  0.7921
 3162TIP3    H230902   0.732   5.655   2.447  0.9330  0.4699 -0.8931
 3163TIP3   OH230903   4.398   6.422   0.633 -0.0398  0.0354 -0.0339
 3163TIP3    H130904   4.385   6.328   0.643 -1.1818  0.1985  0.1819
 3163TIP3    H230905   4.488   6.431   0.601  0.2636 -1.0865  0.4710
 3164TIP3   OH230906   1.578   0.456   1.616 -0.4229 -0.5999 -0.9331
 3164TIP3    H130907   1.626   0.382   1.654  1.1925  0.6600 -0.4023
 3164TIP3    H230908   1.558   0.428   1.527  2.4687 -0.7800 -1.6368
 3165TIP3   OH230909   0.282   2.282   1.211  0.2247 -0.0729 -0.1907
 3165TIP3    H130910   0.231   2.274   1.292 -1.1968 -0.4075 -1.0896
 3165TIP3    H230911   0.361   2.231   1.228 -0.0715 -0.1868  0.9646
 3166TIP3   OH230912   5.773   2.090  16.886  0.0567  0.3251 -0.4028
 3166TIP3    H130913   5.723   2.018  16.847  0.3150 -0.6213  0.9285
 3166TIP3    H230914   5.835   2.115  16.818 -0.4281 -0.3245 -1.1085
 3167TIP3   OH230915   0.143   6.774   1.794 -0.0438 -0.0047  0.5791
 3167TIP3    H130916   0.212   6.770   1.728  0.4498  0.2980  1.0662
 3167TIP3    H230917   0.062   6.778   1.744  0.2492 -0.9639 -0.0065
 3168TIP3   OH230918   6.665   0.506  13.707 -0.3927 -0.0221 -0.1455
 3168TIP3    H130919   6.580   0.522  13.665  0.1255  0.5751 -1.0034
 3168TIP3    H230920   6.659   0.416  13.740 -1.5338  0.1876  0.2438
 3169TIP3   OH230921   3.152   0.932  11.937 -0.3860 -0.4483 -0.4094
 3169TIP3    H130922   3.240   0.945  11.972  0.1846 -0.5689 -1.7253
 3169TIP3    H230923   3.139   0.838  11.939  0.0481 -0.5383 -1.4186
 3170TIP3   OH230924   2.296   1.699  16.162 -0.2215 -0.0719 -0.1634
 3170TIP3    H130925   2.253   1.663  16.239 -0.2115 -0.2930 -0.2605
 3170TIP3    H230926   2.346   1.625  16.126  0.2294  0.1782 -0.0558
 3171TIP3   OH230927   2.548   2.692   6.429  0.3315 -0.6128  0.4920
 3171TIP3    H130928   2.628   2.718   6.384 -0.5820  1.1774 -0.1845
 3171TIP3    H230929   2.511   2.774   6.461 -0.5988 -1.5429  1.9041
 3172TIP3   OH230930   1.716   6.226  12.090  0.0479  0.0712  0.3335
 3172TIP3    H130931   1.690   6.149  12.039  2.5877 -0.4821 -0.2692
 3172TIP3    H230932   1.668   6.298  12.050 -1.7188 -1.0417  0.3481
 3173TIP3   OH230933   3.515   5.200  12.223 -0.1253  0.2351 -0.4572
 3173TIP3    H130934   3.472   5.286  12.223 -0.3378  0.2686  2.9440
 3173TIP3    H230935   3.558   5.195  12.138 -1.4017  3.0184 -1.4001
 3174TIP3   OH230936   3.920   1.356   1.978  0.2547 -0.3797 -0.1414
 3174TIP3    H130937   3.825   1.351   1.974  0.0840  2.2258 -2.9388
 3174TIP3    H230938   3.938   1.411   2.055 -0.6865  1.2145 -1.0206
 3175TIP3   OH230939   3.466   3.854  11.757  0.3766  0.0610  0.2139
 3175TIP3    H130940   3.402   3.826  11.823 -0.6285  1.5164 -0.1018
 3175TIP3    H230941   3.550   3.821  11.789 -0.6002 -2.8140  0.1395
 3176TIP3   OH230942   2.918   2.136   0.888  0.7149 -0.2204 -0.4284
 3176TIP3    H130943   2.907   2.231   0.894 -1.4401 -0.3752 -1.0120
 3176TIP3    H230944   2.972   2.113   0.963 -0.1748  1.2862  0.7283
 3177TIP3   OH230945   1.023   4.677  11.282  0.0640 -0.2626  0.4736
 3177TIP3    H130946   1.114   4.707  11.279 -0.3894  1.1794  0.5547
 3177TIP3    H230947   0.991   4.709  11.366 -0.7682 -0.0155  0.0659
 3178TIP3   OH230948   1.153   3.770  16.963  0.2317  0.4274 -0.7399
 3178TIP3    H130949   1.236   3.724  16.946 -0.5063 -0.2820 -2.6953
 3178TIP3    H230950   1.153   3.843  16.902 -0.2844  0.8406 -0.2529
 3179TIP3   OH230951   2.976   5.650   5.707 -0.4323 -0.3929 -0.6204
 3179TIP3    H130952   3.068   5.651   5.734  0.0226  1.3508 -2.0797
 3179TIP3    H230953   2.973   5.589   5.633  0.1755  1.6166 -2.3886
 3180TIP3   OH230954   2.132   2.976   2.205 -0.5502  0.2346 -0.5684
 3180TIP3    H130955   2.081   3.029   2.266  0.8220 -0.1949  1.0407
 3180TIP3    H230956   2.070   2.912   2.170 -0.8350 -1.5644  2.8144
 3181TIP3   OH230957   2.304   2.688   6.184  0.4390  0.8164  0.1238
 3181TIP3    H130958   2.309   2.780   6.161  1.4386  0.3699 -1.6062
 3181TIP3    H230959   2.340   2.684   6.273 -2.0233  2.3894  1.2780
 3182TIP3   OH230960   5.060   5.165   1.823 -0.4290  0.0610 -0.3223
 3182TIP3    H130961   5.155   5.164   1.809 -0.5379  0.4615 -1.1540
 3182TIP3    H230962   5.046   5.240   1.882 -0.2343  0.0373 -0.2429
 3183TIP3   OH230963   4.370   1.226   1.156  0.2566  0.0902 -0.3600
 3183TIP3    H130964   4.372   1.315   1.192  3.0400 -0.1564  0.2800
 3183TIP3    H230965   4.357   1.170   1.232 -1.0381 -0.1140 -0.7109
 3184TIP3   OH230966   5.524   5.559   2.067  0.9435 -0.4778 -0.1149
 3184TIP3    H130967   5.459   5.491   2.047  0.7976 -0.1399 -0.8355
 3184TIP3    H230968   5.472   5.638   2.083  1.1627 -0.1862 -0.7725
 3185TIP3   OH230969   4.989   0.635  11.327 -0.4751 -0.5944  0.0832
 3185TIP3    H130970   5.057   0.701  11.313  0.2593 -1.8359 -3.1694
 3185TIP3    H230971   4.907   0.684  11.324  0.0553  0.3211 -2.0340
 3186TIP3   OH230972   1.392   5.171  10.945  0.3323  0.2544  0.2683
 3186TIP3    H130973   1.443   5.136  11.018  0.1276 -2.0224 -0.5870
 3186TIP3    H230974   1.301   5.171  10.976  0.4094  0.7347  0.5070
 3187TIP3   OH230975   3.750   5.996   5.517  0.8464 -0.6713  0.0391
 3187TIP3    H130976   3.672   5.993   5.572  0.4354 -0.7474 -0.5368
 3187TIP3    H230977   3.763   6.089   5.498 -1.1414 -0.8274 -2.6684
 3188TIP3   OH230978   6.698   3.450  12.029  0.0977 -0.4529 -0.0275
 3188TIP3    H130979   6.647   3.387  12.079 -0.4179 -1.1225 -1.3425
 3188TIP3    H230980   6.746   3.396  11.966  1.9249  0.2229  0.7182
 3189TIP3   OH230981   0.513   1.304   4.223 -0.4393 -0.4871 -0.2709
 3189TIP3    H130982   0.510   1.208   4.227 -1.6366 -0.4741 -0.3553
 3189TIP3    H230983   0.534   1.331   4.312  0.7628 -0.8382 -0.4303
 3190TIP3   OH230984   3.898   3.302  11.394 -0.5697 -0.0501  0.2471
 3190TIP3    H130985   3.875   3.268  11.308  0.2287 -0.5374  0.2225
 3190TIP3    H230986   3.993   3.303  11.396 -0.5462  1.6636  0.4640
 3191TIP3   OH230987   2.244   0.189   6.492  0.0684 -0.4879  0.6826
 3191TIP3    H130988   2.158   0.214   6.526  0.0849 -0.9716  1.0926
 3191TIP3    H230989   2.267   0.110   6.540 -0.8987 -2.5265 -1.9658
 3192TIP3   OH230990   3.150   6.733   3.361  0.8474  0.2269  0.7163
 3192TIP3    H130991   3.170   6.780   3.280  0.5470 -0.4735  0.2314
 3192TIP3    H230992   3.189   6.647   3.349 -0.9859 -0.6197  0.4270
 3193TIP3   OH230993   0.448   0.398   2.423 -0.3771  0.4367  0.6103
 3193TIP3    H130994   0.412   0.340   2.357  1.7124 -1.8123  1.2823
 3193TIP3    H230995   0.543   0.384   2.417  0.1920  3.4928  1.1418
 3194TIP3   OH230996   4.633   0.803   3.077 -0.2587  0.0266 -0.2320
 3194TIP3    H130997   4.604   0.735   3.016 -0.9808  0.1048  0.0148
 3194TIP3    H230998   4.697   0.854   3.027 -1.2406  0.4174 -1.1050
 3195TIP3   OH230999   1.359   1.724   5.022 -0.3911 -0.5676 -0.1247
 3195TIP3    H131000   1.316   1.649   5.063 -1.3185 -0.5878 -1.1032
 3195TIP3    H231001   1.313   1.801   5.057 -0.3448 -0.5217 -0.1649
 3196TIP3   OH231002   1.657   2.818  14.743  0.6803  0.4633  0.1346
 3196TIP3    H131003   1.609   2.765  14.806 -0.4281 -0.7136 -1.6405
 3196TIP3    H231004   1.598   2.890  14.721  1.4549  1.4405  1.1385
 3197TIP3   OH231005   3.311   4.221  14.210 -0.2794 -0.2581 -0.4514
 3197TIP3    H131006   3.318   4.301  14.261 -1.4264  0.2281 -0.9942
 3197TIP3    H231007   3.323   4.250  14.119  3.3997 -1.3394 -0.4649
 3198TIP3   OH231008   4.920   2.868  15.517  0.1585  0.3510  0.2228
 3198TIP3    H131009   4.983   2.823  15.573 -0.1404  0.7224  0.8790
 3198TIP3    H231010   4.966   2.883  15.435  0.6614 -0.0686  0.4247
 3199TIP3   OH231011   3.825   3.420  12.993  0.5796 -0.3869 -0.5424
 3199TIP3    H131012   3.800   3.329  12.981 -0.7777 -0.3037  1.1828
 3199TIP3    H231013   3.920   3.419  13.004  0.3688 -1.8662  1.5551
 3200TIP3   OH231014   6.777   6.125   1.313  0.6414  0.6355  0.3040
 3200TIP3    H131015   6.736   6.159   1.392 -2.3332  0.5795 -1.0679
 3200TIP3    H231016   6.768   6.195   1.249 -0.1173 -0.4977 -0.8932
 3201TIP3   OH231017   1.623   6.127   1.003  0.2548 -0.3083 -0.0980
 3201TIP3    H131018   1.653   6.218   0.999 -0.3210 -0.0873  0.3158
 3201TIP3    H231019   1.536   6.133   1.043  1.1483 -1.2369  2.1430
 3202TIP3   OH231020   5.369   0.231  11.255 -0.1791  0.0848 -0.6295
 3202TIP3    H131021   5.324   0.185  11.184 -1.2125 -0.1317  0.1260
 3202TIP3    H231022   5.456   0.249  11.221  0.1021 -1.9879 -1.1640
 3203TIP3   OH231023   6.698   2.013  15.404 -0.7181  0.2508 -0.4100
 3203TIP3    H131024   6.755   2.028  15.479 -0.0786 -0.0868 -0.8134
 3203TIP3    H231025   6.610   2.008  15.440 -0.7094  2.4871  0.0371
 3204TIP3   OH231026   6.808   4.460   1.061 -0.6207  0.2902  0.8179
 3204TIP3    H131027   6.754   4.535   1.035 -0.0275 -0.0337 -1.6200
 3204TIP3    H231028   6.746   4.387   1.069 -1.0692  0.8110  2.2262
 3205TIP3   OH231029   0.204   5.027  11.817 -0.0170  0.0602  0.0617
 3205TIP3    H131030   0.181   5.118  11.836 -1.1786  0.1897 -1.7548
 3205TIP3    H231031   0.273   5.033  11.751  0.5292 -0.3946  0.5772
 3206TIP3   OH231032   4.171   0.978  12.509 -0.5953 -0.2114  0.1350
 3206TIP3    H131033   4.189   1.050  12.450 -1.3505  1.6483  2.0491
 3206TIP3    H231034   4.211   0.902  12.467  2.0290  1.6497 -1.0068
 3207TIP3   OH231035   0.871   2.639   0.845  0.1247  0.0735 -0.0503
 3207TIP3    H131036   0.796   2.580   0.858 -0.1272  0.5890  0.8988
 3207TIP3    H231037   0.850   2.687   0.764 -1.8770  2.1039  1.5516
 3208TIP3   OH231038   2.613   0.280   0.767 -0.2567  0.0557 -0.1689
 3208TIP3    H131039   2.570   0.206   0.811 -1.6893  0.4516 -0.8638
 3208TIP3    H231040   2.601   0.263   0.674  0.5051  0.5320 -0.3580
 3209TIP3   OH231041   5.193   1.213  15.159  0.0835  0.3018  0.6643
 3209TIP3    H131042   5.202   1.170  15.244  1.1012  0.2560  0.5451
 3209TIP3    H231043   5.111   1.180  15.124  0.4384 -0.9135  0.9322
 3210TIP3   OH231044   5.637   4.184  16.313  0.4249  0.0004 -0.7569
 3210TIP3    H131045   5.705   4.189  16.380  0.8207  0.4149 -1.1776
 3210TIP3    H231046   5.555   4.182  16.362  0.6876  0.7707 -0.2591
 3211TIP3   OH231047   1.888   6.166   5.496  0.1802  0.3819  0.1233
 3211TIP3    H131048   1.877   6.236   5.432 -1.9848  0.4481  0.5156
 3211TIP3    H231049   1.884   6.211   5.581 -0.7373 -0.1413  0.3669
 3212TIP3   OH231050   5.339   3.657   3.137 -0.4390 -0.0884 -0.1037
 3212TIP3    H131051   5.396   3.599   3.188  0.2226  0.9204  0.3228
 3212TIP3    H231052   5.284   3.597   3.085 -0.5169 -1.1117  1.1193
 3213TIP3   OH231053   4.992   4.579   3.854  0.1679  0.0717  0.5394
 3213TIP3    H131054   4.942   4.498   3.861 -1.4602  0.7509 -1.7189
 3213TIP3    H231055   5.046   4.567   3.776 -1.8744  1.8893 -1.3239
 3214TIP3   OH231056   4.729   4.928   5.842 -0.6354 -0.4624 -0.1228
 3214TIP3    H131057   4.708   4.859   5.906 -0.5737  0.4516  0.9135
 3214TIP3    H231058   4.737   5.007   5.895 -1.6079  0.5271 -1.3911
 3215TIP3   OH231059   0.098   6.383  16.046  0.0024 -0.2141 -0.3252
 3215TIP3    H131060   0.013   6.381  16.090  0.0398 -0.9769 -0.2704
 3215TIP3    H231061   0.091   6.454  15.983 -0.4775  0.0983  0.0698
 3216TIP3   OH231062   4.945   1.384  17.049 -0.0822 -0.1950  0.3304
 3216TIP3    H131063   4.941   1.467  17.096  0.9373 -0.7190  1.3676
 3216TIP3    H231064   4.988   1.324  17.109  3.0299 -0.4241 -1.8945
 3217TIP3   OH231065   3.891   2.924   0.886  0.0100  0.0584  0.1673
 3217TIP3    H131066   3.845   2.849   0.849  0.4280  0.1936 -0.6532
 3217TIP3    H231067   3.975   2.888   0.916 -0.7152 -0.2518  1.9515
 3218TIP3   OH231068   6.236   4.586  15.354 -0.2823  0.0212  0.0474
 3218TIP3    H131069   6.268   4.496  15.368  1.1397  0.7703  2.0454
 3218TIP3    H231070   6.286   4.618  15.279 -0.8037 -0.8344 -0.6849
 3219TIP3   OH231071   0.461   6.282   3.428 -0.3250  0.4020  0.5660
 3219TIP3    H131072   0.468   6.364   3.477 -1.2374  0.9324 -0.1338
 3219TIP3    H231073   0.502   6.216   3.484 -0.6118  1.1274  1.6674
 3220TIP3   OH231074   4.508   1.567  10.428 -0.3767 -0.0426 -0.1831
 3220TIP3    H131075   4.601   1.543  10.429 -0.0631  1.1519 -0.0890
 3220TIP3    H231076   4.465   1.492  10.385  0.6890 -0.3899 -0.6796
 3221TIP3   OH231077   2.244   4.361   3.612 -0.1088 -0.1077 -0.8877
 3221TIP3    H131078   2.162   4.329   3.648  0.6585 -0.0716  0.9982
 3221TIP3    H231079   2.239   4.456   3.622  0.5373 -0.1654  0.1631
 3222TIP3   OH231080   3.734   3.940   4.783 -0.6425 -0.3856  0.0839
 3222TIP3    H131081   3.762   4.011   4.726  0.0920 -0.1803  0.6895
 3222TIP3    H231082   3.670   3.979   4.842  0.4220  0.0150  1.0089
 3223TIP3   OH231083   3.525   5.527   3.233  0.1894  0.2818 -0.1853
 3223TIP3    H131084   3.476   5.601   3.198 -0.3801  0.3500  0.7299
 3223TIP3    H231085   3.611   5.532   3.191  0.6656  2.3016  0.9235
 3224TIP3   OH231086   3.989   4.449  11.344 -0.3882 -0.0431 -0.4899
 3224TIP3    H131087   3.897   4.445  11.318 -0.9349 -1.0951  1.4033
 3224TIP3    H231088   3.997   4.531  11.394  0.0358  0.6756 -1.6963
 3225TIP3   OH231089   1.004   0.984   1.002 -0.2875 -0.3022 -0.1630
 3225TIP3    H131090   1.069   0.954   0.938 -0.6320 -0.1594 -0.5912
 3225TIP3    H231091   0.937   1.028   0.949 -0.0571  0.7590  0.4010
 3226TIP3   OH231092   5.867   6.477   5.432 -0.1367  0.1799  0.3086
 3226TIP3    H131093   5.939   6.434   5.480  0.0947 -0.6587 -0.7483
 3226TIP3    H231094   5.823   6.405   5.386 -1.8640  0.6326  1.1587
 3227TIP3   OH231095   0.108   3.083  16.482  0.0163  0.5556  0.3896
 3227TIP3    H131096   0.103   3.113  16.573 -2.7882  2.3765 -0.2467
 3227TIP3    H231097   0.017   3.067  16.457  0.8259 -1.3482 -1.7059
 3228TIP3   OH231098   3.169   6.635  16.472  0.3551 -0.3697 -0.6751
 3228TIP3    H131099   3.134   6.684  16.546 -0.6131 -0.3785 -1.1051
 3228TIP3    H231100   3.093   6.622  16.414  0.7687 -1.6421 -0.9646
 3229TIP3   OH231101   4.721   5.899  14.734  0.4536 -0.2728 -0.0886
 3229TIP3    H131102   4.796   5.840  14.728  1.0474  0.2312  1.7086
 3229TIP3    H231103   4.747   5.977  14.686  0.7689 -0.4206 -0.1600
 3230TIP3   OH231104   4.539   1.016  11.367  0.1225  0.2858  0.3503
 3230TIP3    H131105   4.596   0.961  11.315 -0.9095 -1.6740  1.1906
 3230TIP3    H231106   4.524   0.967  11.448 -1.7526  1.2514  0.6715
 3231TIP3   OH231107   5.601   6.072   3.306  0.8171 -0.1326  0.2064
 3231TIP3    H131108   5.589   5.993   3.358  0.2415  1.0597  1.9590
 3231TIP3    H231109   5.521   6.078   3.253  0.4671 -0.2490  0.7205
 3232TIP3   OH231110   0.784   0.432   0.297 -0.3853 -0.4581 -0.3436
 3232TIP3    H131111   0.783   0.354   0.242  0.1731  0.9182 -2.4262
 3232TIP3    H231112   0.708   0.483   0.268 -0.9596 -0.3312  1.2401
 3233TIP3   OH231113   2.954   3.637  11.269 -0.2216 -0.1731  0.4412
 3233TIP3    H131114   2.946   3.549  11.232 -1.0379  0.0144  0.1578
 3233TIP3    H231115   2.864   3.667  11.282  0.0443  0.4739  0.9014
 3234TIP3   OH231116   2.951   3.964  16.791  0.0573  0.1832 -0.3942
 3234TIP3    H131117   3.042   3.952  16.766  0.1475  0.8205 -0.4056
 3234TIP3    H231118   2.933   3.895  16.854  0.7088  0.3775  0.0094
 3235TIP3   OH231119   3.338   1.429  11.933  0.2945 -0.1734 -0.2294
 3235TIP3    H131120   3.266   1.432  11.870  0.2071  0.3321 -0.1096
 3235TIP3    H231121   3.409   1.383  11.888  0.0123 -0.3761 -0.4654
 3236TIP3   OH231122   6.629   5.499   3.243  0.5274 -0.1237  0.8456
 3236TIP3    H131123   6.652   5.550   3.166 -0.6655 -3.2830 -1.8210
 3236TIP3    H231124   6.708   5.449   3.263  0.4829 -0.1310  1.0050
 3237TIP3   OH231125   5.175   1.190   3.261 -0.3375  0.1441  0.0017
 3237TIP3    H131126   5.136   1.170   3.176 -1.1002 -1.6277  0.7267
 3237TIP3    H231127   5.131   1.270   3.289 -1.2036 -0.1103 -0.5856
 3238TIP3   OH231128   1.474   4.805  13.198  0.0584  0.3868  0.6975
 3238TIP3    H131129   1.412   4.863  13.152  0.0786 -0.6421 -0.7046
 3238TIP3    H231130   1.418   4.741  13.243  0.0603 -0.3766 -0.3450
 3239TIP3   OH231131   1.860   5.471  15.468 -0.0599 -0.3168  0.0770
 3239TIP3    H131132   1.868   5.494  15.375  0.9915  0.8477  0.4226
 3239TIP3    H231133   1.945   5.492  15.505 -1.2428  1.8815  1.8387
 3240TIP3   OH231134   2.515   1.612  13.567  0.0792  0.2184 -0.1805
 3240TIP3    H131135   2.435   1.633  13.615  0.0738  0.1582 -0.1625
 3240TIP3    H231136   2.579   1.677  13.597 -0.0851  0.5449 -0.5229
 3241TIP3   OH231137   0.362   2.769  16.143  0.3608  0.1108 -0.1966
 3241TIP3    H131138   0.303   2.797  16.213  1.7372  0.9240  0.6777
 3241TIP3    H231139   0.319   2.692  16.105 -1.4356  0.9084  0.1369
 3242TIP3   OH231140   3.124   2.049  16.406  0.1903 -0.1370 -0.4101
 3242TIP3    H131141   3.037   2.090  16.405 -1.2014 -2.8551  0.4114
 3242TIP3    H231142   3.119   1.983  16.337  0.2153 -2.8257  1.9926
 3243TIP3   OH231143   1.907   3.454  16.609  0.3392 -0.4022  0.4539
 3243TIP3    H131144   1.898   3.465  16.704  0.7712  1.1496  0.3435
 3243TIP3    H231145   1.829   3.403  16.584 -0.1067 -0.2973  1.5499
 3244TIP3   OH231146   4.933   6.604  15.585 -0.0478 -0.8263  0.1221
 3244TIP3    H131147   4.993   6.669  15.548 -0.5627 -0.9115 -0.9017
 3244TIP3    H231148   4.959   6.597  15.677 -1.3657  2.4607  0.8831
 3245TIP3   OH231149   5.977   6.416   5.897  0.8129  0.4124  0.2871
 3245TIP3    H131150   6.002   6.481   5.964  1.0197 -0.1630  0.7741
 3245TIP3    H231151   6.013   6.334   5.929 -1.7282 -0.4841  1.0579
 3246TIP3   OH231152   6.103   4.286   0.613  0.4364  0.4454  0.6717
 3246TIP3    H131153   6.014   4.251   0.607  1.0880 -1.3317  0.8713
 3246TIP3    H231154   6.098   4.371   0.568 -1.0682 -0.1880 -0.4586
 3247TIP3   OH231155   1.580   6.218  16.520  0.1237 -0.2433 -0.1646
 3247TIP3    H131156   1.629   6.195  16.599  0.2597  1.3222  0.2509
 3247TIP3    H231157   1.646   6.217  16.450  0.1019 -1.1617 -0.1824
 3248TIP3   OH231158   3.116   2.462  12.423  0.1175 -0.1056 -0.1195
 3248TIP3    H131159   3.116   2.486  12.330  1.7243 -0.3669 -0.2047
 3248TIP3    H231160   3.103   2.545  12.469 -1.9793 -0.1309 -0.5747
 3249TIP3   OH231161   2.696   2.508  15.834  0.4080 -0.2001  0.2496
 3249TIP3    H131162   2.742   2.432  15.797  0.7384  0.6877 -1.2973
 3249TIP3    H231163   2.716   2.579  15.772  1.2776  1.5135  2.3604
 3250TIP3   OH231164   6.366   4.607  11.772 -0.1584 -0.3342  0.1340
 3250TIP3    H131165   6.445   4.661  11.767 -0.0128 -0.5415  0.1927
 3250TIP3    H231166   6.294   4.670  11.772  0.0408 -0.0695  1.4128
 3251TIP3   OH231167   4.712   1.841  14.991 -0.0363 -0.4257  0.4391
 3251TIP3    H131168   4.791   1.848  15.044  0.4831  1.6322 -0.5186
 3251TIP3    H231169   4.744   1.814  14.905 -0.3413  0.4591  0.0361
 3252TIP3   OH231170   3.487   5.703   5.032  0.1600  0.1982  0.4407
 3252TIP3    H131171   3.450   5.637   5.091  0.7771 -0.7539 -0.2082
 3252TIP3    H231172   3.490   5.783   5.085 -1.8421  0.0704  0.8407
 3253TIP3   OH231173   0.492   4.609   1.570 -0.3800 -0.6519  0.0275
 3253TIP3    H131174   0.502   4.599   1.665 -0.0447  3.1489  0.5617
 3253TIP3    H231175   0.399   4.600   1.554 -0.6929  0.4421  1.0740
 3254TIP3   OH231176   3.303   3.409  15.640  0.3819 -0.2259  0.0772
 3254TIP3    H131177   3.315   3.316  15.620 -1.0712 -0.9564  2.3090
 3254TIP3    H231178   3.246   3.442  15.570 -0.8082 -1.5481  0.3949
 3255TIP3   OH231179   6.740   0.844   6.000  0.0057  0.2990  0.8307
 3255TIP3    H131180   6.756   0.835   6.094  0.2118 -0.3740  0.7380
 3255TIP3    H231181   6.659   0.896   5.994 -1.5752 -1.9402  1.4590
 3256TIP3   OH231182   3.214   3.811   4.705 -0.2598  0.1743  0.1265
 3256TIP3    H131183   3.234   3.761   4.784 -2.2903 -1.3508 -0.2348
 3256TIP3    H231184   3.135   3.861   4.727 -2.0105 -1.7211 -1.3909
 3257TIP3   OH231185   4.482   4.128   2.513 -0.1125 -0.1321  0.5677
 3257TIP3    H131186   4.439   4.043   2.521 -0.0719 -0.0168  2.3078
 3257TIP3    H231187   4.568   4.109   2.475 -0.6429 -0.6729 -0.3991
 3258TIP3   OH231188   1.827   2.913  16.902  0.0165 -0.3428 -0.5217
 3258TIP3    H131189   1.864   2.880  16.821  1.2385 -0.5122  0.0858
 3258TIP3    H231190   1.783   2.995  16.877 -0.4390 -0.8775 -1.5042
 3259TIP3   OH231191   4.220   5.527  16.428  0.2429 -0.1923  0.2062
 3259TIP3    H131192   4.251   5.481  16.506 -0.2957  1.5524  1.5067
 3259TIP3    H231193   4.125   5.522  16.434  0.1646  1.1719  0.4677
 3260TIP3   OH231194   0.786   3.339   1.060  0.6472 -0.0782  0.0362
 3260TIP3    H131195   0.747   3.367   1.143  1.2565 -2.4335  1.2046
 3260TIP3    H231196   0.859   3.283   1.086  0.5692 -1.2595 -2.0892
 3261TIP3   OH231197   0.527   3.472   2.549  0.5034  0.2030 -0.8964
 3261TIP3    H131198   0.452   3.532   2.545  1.0298  1.1387  1.4455
 3261TIP3    H231199   0.597   3.524   2.590  2.0467 -1.0298 -1.8756
 3262TIP3   OH231200   5.030   4.428  12.869  0.3026 -0.0454  0.0763
 3262TIP3    H131201   5.028   4.460  12.959  0.2261  0.2774 -0.0380
 3262TIP3    H231202   5.116   4.389  12.859  0.5940  0.5861  0.0679
 3263TIP3   OH231203   6.135   0.569  13.364 -0.2996  0.1387 -0.2666
 3263TIP3    H131204   6.176   0.652  13.388 -0.8585  0.8785 -1.7918
 3263TIP3    H231205   6.079   0.589  13.290  0.9922 -1.9503 -1.9234
 3264TIP3   OH231206   6.070   3.524  14.347 -0.5519  0.3470 -0.4653
 3264TIP3    H131207   6.157   3.485  14.340 -1.5198 -1.5807 -3.1853
 3264TIP3    H231208   6.088   3.617  14.363  1.9298 -0.1936  0.4953
 3265TIP3   OH231209   6.473   0.582  13.551 -0.7940  0.2309  0.1474
 3265TIP3    H131210   6.470   0.670  13.514  0.8751 -0.1240 -0.9151
 3265TIP3    H231211   6.431   0.527  13.485 -1.4602  0.1481  0.6270
 3266TIP3   OH231212   3.564   4.374  16.436  0.4963 -0.7869  0.4408
 3266TIP3    H131213   3.608   4.318  16.371 -1.0845 -1.0895 -0.4062
 3266TIP3    H231214   3.636   4.418  16.481  1.6633 -0.6602 -1.4421
 3267TIP3   OH231215   2.673   4.039   5.134  0.3445  0.1459  0.6917
 3267TIP3    H131216   2.760   4.035   5.094  1.1370  1.6213  2.1505
 3267TIP3    H231217   2.614   4.062   5.061  0.4495 -4.3654 -1.1379
 3268TIP3   OH231218   4.006   5.899  13.592  0.4575 -0.0665 -0.5257
 3268TIP3    H131219   4.040   5.852  13.516  1.4444 -2.0562  1.0592
 3268TIP3    H231220   4.021   5.840  13.665 -2.7245  0.7242  0.9060
 3269TIP3   OH231221   4.104   6.669   1.109  0.2724  0.2403 -0.0339
 3269TIP3    H131222   4.018   6.628   1.115  0.1690  0.5793  0.8822
 3269TIP3    H231223   4.165   6.595   1.100 -0.1561  0.0309 -1.5175
 3270TIP3   OH231224   1.920   6.548  16.484 -0.1574 -0.2230  0.2854
 3270TIP3    H131225   2.010   6.575  16.503 -0.0464 -1.2136  1.2172
 3270TIP3    H231226   1.908   6.570  16.391  1.7479 -1.9360 -0.4487
 3271TIP3   OH231227   3.611   6.645   2.798 -0.1393  0.5070 -0.1636
 3271TIP3    H131228   3.647   6.724   2.758  0.7785  0.2629  0.1515
 3271TIP3    H231229   3.659   6.573   2.755  1.1217  0.2478  1.5632
 3272TIP3   OH231230   1.808   4.666   0.861 -0.5789 -0.2894 -0.0699
 3272TIP3    H131231   1.841   4.620   0.938 -0.5789  0.0999  0.1613
 3272TIP3    H231232   1.878   4.726   0.836 -0.5865 -0.3993 -0.3632
 3273TIP3   OH231233   4.648   4.063  12.803 -0.5776 -0.1235  0.1200
 3273TIP3    H131234   4.650   4.097  12.892  1.8498 -0.7689  0.3870
 3273TIP3    H231235   4.567   4.012  12.799 -1.3352  0.9035  1.5447
 3274TIP3   OH231236   3.407   4.486   2.374 -0.5633 -0.6869 -0.1149
 3274TIP3    H131237   3.405   4.571   2.419  2.2129  1.3912 -3.4646
 3274TIP3    H231238   3.321   4.447   2.393 -1.7906  2.5972  1.9733
 3275TIP3   OH231239   6.386   5.709  13.634  0.4243 -0.3028  0.0714
 3275TIP3    H131240   6.373   5.740  13.544  0.5428 -1.0905 -0.2203
 3275TIP3    H231241   6.474   5.741  13.657  0.1282  0.4782  0.1578
 3276TIP3   OH231242   1.008   0.091  16.555  0.5530 -0.0961 -0.4393
 3276TIP3    H131243   1.049   0.149  16.618  1.6646 -1.3292  0.0356
 3276TIP3    H231244   0.914   0.106  16.565  0.6444 -0.7136  1.9940
 3277TIP3   OH231245   0.964   4.981  11.256 -0.0576  0.1810 -0.0153
 3277TIP3    H131246   0.939   4.902  11.207  0.1722  0.1488 -0.0839
 3277TIP3    H231247   0.966   4.953  11.347  1.7732 -0.3749 -0.1861
 3278TIP3   OH231248   1.782   0.248  15.082  0.3133  0.2807  0.1077
 3278TIP3    H131249   1.871   0.239  15.048 -0.2064 -0.0299 -1.2486
 3278TIP3    H231250   1.773   0.177  15.145  0.2615 -1.2319 -1.5276
 3279TIP3   OH231251   1.614   4.330  12.241  0.4749 -0.7101 -0.0436
 3279TIP3    H131252   1.527   4.358  12.270  0.6242 -0.2487 -0.0459
 3279TIP3    H231253   1.611   4.234  12.248  0.2411 -0.6509  0.7329
 3280TIP3   OH231254   4.515   2.689  17.019  0.0226 -0.1734 -0.1377
 3280TIP3    H131255   4.498   2.727  16.933  0.2866  1.6330  0.5543
 3280TIP3    H231256   4.591   2.632  17.006  0.5838  0.7239 -0.9416
 3281TIP3   OH231257   0.528   1.029   4.281  0.4934  0.2190  0.4821
 3281TIP3    H131258   0.580   0.974   4.222  0.8679  1.0886 -0.0216
 3281TIP3    H231259   0.529   0.983   4.364  3.1883  0.7830  0.8701
 3282TIP3   OH231260   3.069   4.929  12.962 -0.0804 -0.4011  0.1791
 3282TIP3    H131261   3.014   5.007  12.952  1.4733  0.5731 -1.4108
 3282TIP3    H231262   3.134   4.955  13.027 -0.0919 -0.7067  0.3135
 3283TIP3   OH231263   5.340   2.565   0.146  0.1892  0.5647  0.0534
 3283TIP3    H131264   5.367   2.533   0.060  0.1160 -1.4628  0.7160
 3283TIP3    H231265   5.253   2.527   0.159 -0.0191  1.2752  0.8153
 3284TIP3   OH231266   4.641   2.225  16.934  0.2561 -0.3061  0.5367
 3284TIP3    H131267   4.591   2.265  17.005  0.8545 -1.9665  1.9703
 3284TIP3    H231268   4.577   2.207  16.865 -0.3821  1.0814  0.7417
 3285TIP3   OH231269   4.254   1.628   6.024 -0.4171  0.0314 -0.2437
 3285TIP3    H131270   4.198   1.627   5.946 -1.0017 -0.1833  0.1694
 3285TIP3    H231271   4.240   1.715   6.062  0.6953  0.5354 -0.9568
 3286TIP3   OH231272   3.837   4.045   0.921 -0.0431  0.0686  1.1289
 3286TIP3    H131273   3.913   4.056   0.863  0.5487 -0.9380  1.6970
 3286TIP3    H231274   3.846   4.114   0.987 -1.2808  1.9222 -0.4913
 3287TIP3   OH231275   2.885   2.222  16.371  0.3066  0.8836 -0.6758
 3287TIP3    H131276   2.823   2.262  16.431  0.6799 -0.0743  0.3920
 3287TIP3    H231277   2.834   2.200  16.293 -0.7925 -0.2470  0.3364
 3288TIP3   OH231278   4.914   0.387   6.355 -0.1185 -0.1202  0.3977
 3288TIP3    H131279   4.974   0.418   6.423  2.9937  0.4541 -2.3510
 3288TIP3    H231280   4.881   0.468   6.315  0.7442 -0.3839 -0.8796
 3289TIP3   OH231281   1.055   6.503  16.841  0.4144  0.1405  0.1257
 3289TIP3    H131282   1.075   6.474  16.930  0.1454  0.1296  0.1829
 3289TIP3    H231283   1.000   6.434  16.805 -1.6867  1.3254  0.8387
 3290TIP3   OH231284   1.638   5.738   1.477 -0.0334 -0.4704  0.4589
 3290TIP3    H131285   1.594   5.708   1.557 -0.3574  1.1414  0.9302
 3290TIP3    H231286   1.729   5.751   1.503  0.5402 -2.7230 -0.2269
 3291TIP3   OH231287   0.002   0.202  12.836 -0.6723  0.5545  0.7485
 3291TIP3    H131288   0.046   0.129  12.880 -0.2598  0.3973  0.1038
 3291TIP3    H231289   0.017   0.277  12.893  2.5144  1.0346 -0.5240
 3292TIP3   OH231290   0.127   6.518   0.008 -0.6881  0.3757  0.3936
 3292TIP3    H131291   0.037   6.490  -0.009 -1.2862  2.1907  0.3880
 3292TIP3    H231292   0.151   6.472   0.088 -1.4879 -0.4123  0.1982
 3293TIP3   OH231293   0.046   5.196   0.709 -0.2922  0.4261  0.2894
 3293TIP3    H131294   0.027   5.282   0.747 -0.9552  0.3042  0.2335
 3293TIP3    H231295  -0.006   5.134   0.759 -0.9373  0.2296 -0.6027
 3294TIP3   OH231296   6.384   1.448  16.777 -0.1239  0.1659  0.3759
 3294TIP3    H131297   6.369   1.516  16.711 -0.9796  0.2926  0.6857
 3294TIP3    H231298   6.478   1.430  16.772 -0.1989  0.0230 -1.0184
 3295TIP3   OH231299   1.785   0.276  14.655  0.1704  0.3752  0.2128
 3295TIP3    H131300   1.732   0.234  14.586 -0.8126  1.1409  0.4723
 3295TIP3    H231301   1.851   0.210  14.678  0.6719  0.1745 -1.6055
 3296TIP3   OH231302   6.189   1.627  13.061 -0.1074 -0.3408  0.1984
 3296TIP3    H131303   6.234   1.657  12.982  0.4391 -1.4729  0.0710
 3296TIP3    H231304   6.157   1.708  13.102 -0.5780  0.2508 -1.2689
 3297TIP3   OH231305   6.335   1.146  12.704  0.4948  0.4046 -0.4664
 3297TIP3    H131306   6.333   1.135  12.609  1.0068  0.7815 -0.5244
 3297TIP3    H231307   6.414   1.101  12.733  1.6625  2.3090 -0.5144
 3298TIP3   OH231308   0.561   5.726  15.598 -0.2554  0.6023 -0.2092
 3298TIP3    H131309   0.639   5.673  15.611 -0.7656 -0.4839 -1.3795
 3298TIP3    H231310   0.488   5.665  15.610 -0.9076  1.3612 -0.1839
 3299TIP3   OH231311   4.215   5.374  10.412  0.2394  0.3799  0.5564
 3299TIP3    H131312   4.170   5.298  10.449  1.1041  0.3116  1.4987
 3299TIP3    H231313   4.147   5.421  10.363  0.0491 -1.9234 -1.5612
 3300TIP3   OH231314   2.790   5.014  12.655 -0.4929  0.0500 -0.1816
 3300TIP3    H131315   2.841   5.089  12.625  0.4243 -0.7583 -0.6809
 3300TIP3    H231316   2.709   5.019  12.605  0.0175  0.0890 -1.0090
 3301TIP3   OH231317   1.008   2.887  11.657  0.1520 -0.3924  0.1102
 3301TIP3    H131318   1.095   2.849  11.670  0.4292  0.2470  0.1484
 3301TIP3    H231319   0.958   2.818  11.613  1.0346 -0.3305 -1.0418
 3302TIP3   OH231320   3.736   3.217   5.529  0.8961  0.1524  0.7413
 3302TIP3    H131321   3.721   3.294   5.473  0.5646 -0.0623  0.5324
 3302TIP3    H231322   3.680   3.149   5.492 -0.1469  0.3043  1.9805
 3303TIP3   OH231323   0.931   4.989  13.341 -0.4710 -0.0196  0.1637
 3303TIP3    H131324   0.943   5.063  13.281 -1.0569 -1.0156 -1.2363
 3303TIP3    H231325   0.859   4.939  13.303  0.4564 -1.7716  0.5874
 3304TIP3   OH231326   3.348   1.815   3.134 -0.1438 -0.1383 -0.2438
 3304TIP3    H131327   3.393   1.830   3.217 -0.1539 -0.0107 -0.2614
 3304TIP3    H231328   3.257   1.840   3.150 -0.0411  0.3702 -0.4352
 3305TIP3   OH231329   4.323   6.678  16.424 -0.1877 -0.3660  0.5356
 3305TIP3    H131330   4.296   6.734  16.497 -0.2549  1.6173 -0.9084
 3305TIP3    H231331   4.373   6.737  16.367  2.1535 -2.4844  0.2436
 3306TIP3   OH231332   5.210   0.264   3.954  0.4035 -0.1248 -0.3096
 3306TIP3    H131333   5.284   0.324   3.969 -0.4505  0.6929  0.7695
 3306TIP3    H231334   5.251   0.179   3.941  1.5630  0.3792 -0.1044
 3307TIP3   OH231335   0.212   0.420   5.983  0.8093 -0.1604  0.1258
 3307TIP3    H131336   0.297   0.395   5.948 -0.2708 -3.1756 -0.6359
 3307TIP3    H231337   0.157   0.435   5.906 -0.0775 -1.1329  0.5423
 3308TIP3   OH231338   2.993   4.353  12.200  0.2967 -0.2458  0.4276
 3308TIP3    H131339   2.906   4.314  12.197  0.2295 -0.0109 -1.1564
 3308TIP3    H231340   3.051   4.284  12.168  0.6544 -0.2618  1.0921
 3309TIP3   OH231341   1.649   2.342  11.383 -0.3720  0.0694  0.6914
 3309TIP3    H131342   1.658   2.289  11.304 -0.6919  0.8359  0.1261
 3309TIP3    H231343   1.679   2.429  11.357 -0.3323  0.2951  1.4610
 3310TIP3   OH231344   2.179   3.238  14.278  0.2672  0.8217 -0.3579
 3310TIP3    H131345   2.089   3.253  14.248  0.2261  1.1639 -0.0647
 3310TIP3    H231346   2.172   3.162  14.336  0.2576  0.5062 -0.7639
 3311TIP3   OH231347   3.407   5.894   5.890 -0.0185  0.2446  0.5175
 3311TIP3    H131348   3.492   5.857   5.867 -0.2394 -0.3719  0.6617
 3311TIP3    H231349   3.412   5.909   5.984 -0.6316 -1.3630  0.8414
 3312TIP3   OH231350   5.958   5.088  12.576  0.9790 -0.5542 -0.3541
 3312TIP3    H131351   6.032   5.137  12.612 -0.4590  2.3551 -1.0187
 3312TIP3    H231352   5.919   5.044  12.652  1.6374  0.3275  0.5146
 3313TIP3   OH231353   2.432   0.075   6.102  0.3738 -0.0788  0.0727
 3313TIP3    H131354   2.502   0.017   6.072 -2.3119 -3.7890  0.1926
 3313TIP3    H231355   2.380   0.091   6.023  0.2889  1.0642  0.3419
 3314TIP3   OH231356   4.919   5.285   5.253 -0.2152  0.3411 -0.0624
 3314TIP3    H131357   5.009   5.314   5.270  1.0287 -3.2709  0.1819
 3314TIP3    H231358   4.894   5.333   5.173  2.1466  0.9660 -0.5086
 3315TIP3   OH231359   5.787   1.811  13.072  0.2296  0.4896  0.1584
 3315TIP3    H131360   5.838   1.740  13.031 -1.2156 -0.9015  0.6707
 3315TIP3    H231361   5.771   1.779  13.161 -1.1001  1.1242  0.1580
 3316TIP3   OH231362   0.527   4.689  13.483  0.0914  0.7639  0.5655
 3316TIP3    H131363   0.544   4.631  13.409 -1.3644  0.5465  0.3668
 3316TIP3    H231364   0.431   4.697  13.485  0.0750  0.5009  2.6199
 3317TIP3   OH231365   4.720   6.642  15.946  0.2413 -0.2502 -0.2210
 3317TIP3    H131366   4.793   6.658  16.006  1.0059  0.3108 -1.2728
 3317TIP3    H231367   4.685   6.729  15.927 -0.2798 -0.4634 -0.2616
 3318TIP3   OH231368   5.130   1.130  15.714  0.0997  0.1671 -0.3013
 3318TIP3    H131369   5.062   1.140  15.781  0.3403  0.1063 -0.0434
 3318TIP3    H231370   5.109   1.196  15.648 -0.5044 -0.1986 -0.4777
 3319TIP3   OH231371   0.199   6.795   0.855  0.0465  0.3647 -0.9460
 3319TIP3    H131372   0.224   6.884   0.881 -2.1888  1.3145 -1.8035
 3319TIP3    H231373   0.239   6.739   0.922  0.5307  2.0917  0.3009
 3320TIP3   OH231374   5.702   1.067   2.461 -0.5422 -0.3339  0.4806
 3320TIP3    H131375   5.728   1.156   2.437 -1.5085 -0.4547 -1.1343
 3320TIP3    H231376   5.784   1.024   2.487  0.5094  0.0430 -1.9835
 3321TIP3   OH231377   1.213   5.303   5.966 -0.4272 -0.3134 -0.3772
 3321TIP3    H131378   1.180   5.393   5.956 -0.4749 -0.4274 -1.3399
 3321TIP3    H231379   1.277   5.309   6.036 -0.2031  0.5430 -0.6429
 3322TIP3   OH231380   5.111   4.349  13.991  1.0045 -0.1097  0.0912
 3322TIP3    H131381   5.137   4.346  14.083 -2.7215  0.3762  1.3269
 3322TIP3    H231382   5.130   4.439  13.964 -1.1266  0.9225  1.6459
 3323TIP3   OH231383   0.893   2.701  12.266 -0.1079 -0.1570  0.3070
 3323TIP3    H131384   0.851   2.689  12.351  0.3181  0.2300  0.5746
 3323TIP3    H231385   0.830   2.666  12.203  0.1172 -1.6439  0.8734
 3324TIP3   OH231386   5.315   3.292   1.912 -0.0951  0.4498 -0.3518
 3324TIP3    H131387   5.317   3.209   1.961 -0.2413 -0.4971 -1.8694
 3324TIP3    H231388   5.256   3.348   1.962 -1.9863 -1.2273 -0.5665
 3325TIP3   OH231389   0.038   3.127  12.722 -0.1357 -0.0885  0.0477
 3325TIP3    H131390  -0.002   3.096  12.803  0.6035  1.1348  0.9090
 3325TIP3    H231391  -0.034   3.168  12.674 -0.3413  0.2410  0.6296
 3326TIP3   OH231392   4.561   3.622   0.377 -0.3103  0.2922 -0.0289
 3326TIP3    H131393   4.527   3.535   0.355  0.0471 -0.1803  1.1941
 3326TIP3    H231394   4.622   3.643   0.307 -0.7822 -0.2174 -0.6047
 3327TIP3   OH231395   2.803   3.861   0.448  0.2539  0.3142 -0.1320
 3327TIP3    H131396   2.796   3.780   0.499  2.1577 -0.0729 -0.4052
 3327TIP3    H231397   2.786   3.834   0.358 -0.1394  0.4403 -0.1006
 3328TIP3   OH231398   6.539   1.664   0.934 -0.4605 -0.4553  0.0702
 3328TIP3    H131399   6.597   1.724   0.981  0.1531 -0.3950 -0.7432
 3328TIP3    H231400   6.573   1.577   0.955 -0.4633 -0.4503  0.0957
 3329TIP3   OH231401   2.277   0.172   5.660 -0.2297  0.0455  0.6710
 3329TIP3    H131402   2.266   0.174   5.755  0.2946  2.7664  0.7497
 3329TIP3    H231403   2.190   0.151   5.626 -0.3087 -1.4854  1.7159
 3330TIP3   OH231404   4.006   0.605  11.914 -0.1329 -0.4504 -0.3834
 3330TIP3    H131405   3.974   0.524  11.876 -1.0755 -1.2803  1.9937
 3330TIP3    H231406   3.947   0.673  11.882 -1.2579 -1.2071  0.0471
 3331TIP3   OH231407   1.976   0.529  14.667  0.0736 -0.3437  0.8084
 3331TIP3    H131408   1.906   0.482  14.711 -0.9902  0.2484 -0.2186
 3331TIP3    H231409   1.944   0.619  14.658  1.0751  0.0059  0.5864
 3332TIP3   OH231410   2.422   3.944   5.386  0.0013  0.0810 -0.1782
 3332TIP3    H131411   2.350   3.928   5.325 -0.2936 -2.4982  0.7218
 3332TIP3    H231412   2.406   3.884   5.459  2.7828 -0.2555  0.2832
 3333TIP3   OH231413   4.416   4.116  15.254  0.6802  0.3283 -0.2726
 3333TIP3    H131414   4.339   4.085  15.300 -0.2857  2.1401 -0.5613
 3333TIP3    H231415   4.478   4.044  15.259 -0.0419 -0.2128  2.2769
 3334TIP3   OH231416   5.538   3.081   5.522 -0.1183  0.1309 -0.4533
 3334TIP3    H131417   5.455   3.087   5.568  0.0875  0.4041 -0.1158
 3334TIP3    H231418   5.577   3.000   5.554  0.4462  0.7873  0.5674
 3335TIP3   OH231419   5.363   1.285   0.542  0.3930  0.0288  0.4361
 3335TIP3    H131420   5.291   1.301   0.603 -0.1025  2.3323 -0.6347
 3335TIP3    H231421   5.348   1.196   0.509 -1.6752  0.2669  0.6258
 3336TIP3   OH231422   5.495   5.367   4.517 -0.1650  0.8989  0.2656
 3336TIP3    H131423   5.563   5.422   4.556  0.7432 -0.8861  1.3231
 3336TIP3    H231424   5.517   5.278   4.544 -3.0614  0.2431  0.9120
 3337TIP3   OH231425   4.735   4.545  11.549  0.9929 -0.1415  0.6040
 3337TIP3    H131426   4.667   4.595  11.594  1.3313  1.5786 -0.6949
 3337TIP3    H231427   4.716   4.555  11.456  1.1923 -2.3464  0.2620
 3338TIP3   OH231428   0.818   2.237  11.350 -0.2678 -0.4606 -0.5679
 3338TIP3    H131429   0.887   2.279  11.402 -1.1719  1.5624 -0.9055
 3338TIP3    H231430   0.810   2.150  11.388  0.4728  0.2588  1.3880
 3339TIP3   OH231431   0.626   2.383  12.481  0.2407 -0.0951  0.0288
 3339TIP3    H131432   0.579   2.316  12.530  1.3494 -1.5965 -0.8353
 3339TIP3    H231433   0.706   2.339  12.452  0.5120  1.2892 -1.5000
 3340TIP3   OH231434   0.832   2.585  10.909  0.4708  0.2079 -0.6297
 3340TIP3    H131435   0.858   2.654  10.848 -0.2496  1.5784  0.5675
 3340TIP3    H231436   0.737   2.593  10.916  0.4571 -0.4338  0.0925
 3341TIP3   OH231437   2.992   2.307   6.137  0.0523  0.5911  0.2453
 3341TIP3    H131438   2.945   2.376   6.091  1.6565  1.5168 -0.0572
 3341TIP3    H231439   2.991   2.233   6.075 -1.0031  0.5701  0.2618
 3342TIP3   OH231440   2.080   0.755  11.358 -0.1021  1.0002 -0.0111
 3342TIP3    H131441   2.084   0.808  11.437 -1.2825  0.8577  0.1493
 3342TIP3    H231442   2.111   0.814  11.289 -0.8370  1.7140  0.2604
 3343TIP3   OH231443   3.454   0.050   4.195 -0.2490  0.3845 -0.7459
 3343TIP3    H131444   3.501  -0.031   4.211  0.3665  1.0424  0.9811
 3343TIP3    H231445   3.476   0.073   4.105  2.3364  0.3800 -0.1904
 3344TIP3   OH231446   0.636   4.720  12.035  0.4921  0.2477  0.0400
 3344TIP3    H131447   0.685   4.694  12.113  1.1108  0.7815 -0.1554
 3344TIP3    H231448   0.625   4.814  12.044  0.8315  0.3643 -0.6526
 3345TIP3   OH231449   0.466   1.388   3.312 -0.1808 -0.1602 -0.1687
 3345TIP3    H131450   0.533   1.385   3.244 -0.0642 -0.8908 -0.0289
 3345TIP3    H231451   0.435   1.298   3.320 -2.0409  0.3470 -1.0648
 3346TIP3   OH231452   5.318   3.971   3.661  0.1291  0.1043 -0.6442
 3346TIP3    H131453   5.305   4.065   3.666  1.2020  0.2866 -0.9757
 3346TIP3    H231454   5.266   3.936   3.734  0.0975  0.9852 -0.2262
 3347TIP3   OH231455   2.515   4.866  12.596 -0.1621 -0.3529 -0.2492
 3347TIP3    H131456   2.485   4.892  12.683  0.7516 -1.5108  0.4463
 3347TIP3    H231457   2.577   4.795  12.613 -0.5087 -1.0798 -1.8972
 3348TIP3   OH231458   4.345   2.323   2.561 -0.4367 -0.9507  0.3930
 3348TIP3    H131459   4.424   2.376   2.574 -0.1426 -1.1609 -0.4813
 3348TIP3    H231460   4.317   2.300   2.650 -0.2866  0.2404  0.7692
 3349TIP3   OH231461   5.496   4.951   3.218 -0.2129  0.3037 -0.5660
 3349TIP3    H131462   5.458   4.884   3.161 -0.9992 -0.1802  0.5052
 3349TIP3    H231463   5.433   5.023   3.214 -0.1799  0.3396 -0.4497
 3350TIP3   OH231464   0.234   1.126   1.150 -0.0647  0.1019  0.6153
 3350TIP3    H131465   0.291   1.201   1.137  0.7740 -0.1853  2.3604
 3350TIP3    H231466   0.198   1.137   1.238  1.4160 -2.3654  1.6437
 3351TIP3   OH231467   0.663   2.645  12.413 -0.4021  0.1034  0.0393
 3351TIP3    H131468   0.660   2.571  12.473  0.8203  1.2652  1.6491
 3351TIP3    H231469   0.605   2.621  12.341 -1.1075 -1.8033  1.1786
 3352TIP3   OH231470   4.123   3.565   1.317 -0.0217 -0.2720  0.1760
 3352TIP3    H131471   4.083   3.488   1.356  0.9111 -1.1963 -0.6321
 3352TIP3    H231472   4.161   3.534   1.235 -0.3803  1.2356 -0.6096
 3353TIP3   OH231473   4.208   3.564   0.830  0.3057  0.1783 -0.4151
 3353TIP3    H131474   4.165   3.480   0.845 -1.4424  1.0123 -0.4242
 3353TIP3    H231475   4.214   3.572   0.735  3.4696 -1.3070 -0.4507
 3354TIP3   OH231476   1.353   5.408  13.730  0.0153 -0.1377  0.0978
 3354TIP3    H131477   1.414   5.432  13.799  1.5602 -2.3395 -0.4066
 3354TIP3    H231478   1.267   5.406  13.772  0.5830  0.8746  1.3475
 3355TIP3   OH231479   3.616   0.353  16.834  0.7063  0.1155  0.5270
 3355TIP3    H131480   3.707   0.377  16.819  0.6085  0.5591  0.6260
 3355TIP3    H231481   3.609   0.345  16.930  1.1032 -1.7957  0.4293
 3356TIP3   OH231482   5.954   0.093   4.481  0.1780 -0.1851  0.2755
 3356TIP3    H131483   5.988   0.106   4.569  2.3111  0.0361 -0.5306
 3356TIP3    H231484   5.954   0.180   4.441  0.8242 -0.5159 -0.4700
 3357TIP3   OH231485   5.077   3.295  15.660  0.8188 -0.0296 -0.9398
 3357TIP3    H131486   5.025   3.273  15.582 -0.5457 -0.0663 -0.0541
 3357TIP3    H231487   5.134   3.219  15.673 -2.4130 -2.3999  0.9000
 3358TIP3   OH231488   2.203   3.693  12.307  0.0998 -0.0104 -0.3533
 3358TIP3    H131489   2.118   3.698  12.351  0.0667  3.6553 -0.5648
 3358TIP3    H231490   2.182   3.706  12.214  0.7977 -0.0998 -0.5293
 3359TIP3   OH231491   4.591   5.828   2.853 -0.2690 -0.6060 -0.1289
 3359TIP3    H131492   4.543   5.874   2.784 -0.3223  0.2002  0.4238
 3359TIP3    H231493   4.537   5.752   2.873  0.3327 -1.5171 -1.7823
 3360TIP3   OH231494   5.979   3.867   2.169  0.0557  1.1733 -0.0425
 3360TIP3    H131495   5.948   3.833   2.254 -0.9439 -0.2765 -0.9353
 3360TIP3    H231496   6.043   3.803   2.140  0.5421  1.7734 -0.3058
 3361TIP3   OH231497   4.868   6.276  16.623 -0.0606  0.3543  0.4506
 3361TIP3    H131498   4.816   6.344  16.667 -2.1638 -0.3858 -0.7376
 3361TIP3    H231499   4.916   6.322  16.555 -0.2180  0.8853  0.6926
 3362TIP3   OH231500   5.513   1.843  14.111 -0.1344 -0.1881  0.3403
 3362TIP3    H131501   5.600   1.807  14.126 -0.2190 -0.1538  0.9299
 3362TIP3    H231502   5.496   1.898  14.187 -0.6226 -0.1011  0.1732
 3363TIP3   OH231503   0.023   6.232   4.996  0.2073 -0.2643  0.0934
 3363TIP3    H131504   0.098   6.249   5.053  0.4713  1.0389 -0.6059
 3363TIP3    H231505  -0.053   6.241   5.054  0.5741 -2.7845  1.0871
 3364TIP3   OH231506   6.437   1.826  14.978  0.0996  0.5869  0.2989
 3364TIP3    H131507   6.445   1.916  14.946  0.2409  1.0870  1.6680
 3364TIP3    H231508   6.437   1.835  15.073 -1.0974 -0.7627  0.4629
 3365TIP3   OH231509   2.271   3.943  15.822  0.2588  0.3219 -0.0669
 3365TIP3    H131510   2.257   4.031  15.786 -0.8115 -0.5387 -1.8941
 3365TIP3    H231511   2.347   3.909  15.774  0.0501 -0.1212 -0.0849
 3366TIP3   OH231512   5.865   4.906   5.686  0.1290 -0.0199  0.1109
 3366TIP3    H131513   5.864   4.925   5.780  1.2501  0.9480 -0.0500
 3366TIP3    H231514   5.930   4.966   5.650 -1.2458  0.5547 -1.5051
 3367TIP3   OH231515   0.678   2.905  10.517  0.1121  0.0795 -0.2685
 3367TIP3    H131516   0.618   2.906  10.443  0.7754  1.1246 -0.8130
 3367TIP3    H231517   0.692   2.812  10.536 -0.7425 -0.1825 -0.8783
 3368TIP3   OH231518   5.514   0.550  17.080 -0.3597  0.0676  0.4365
 3368TIP3    H131519   5.587   0.604  17.110  0.5459 -0.2066 -1.1327
 3368TIP3    H231520   5.556   0.476  17.036 -1.5658  0.0080 -0.6730
 3369TIP3   OH231521   2.109   0.662  13.637  0.6857  0.2444 -0.0940
 3369TIP3    H131522   2.116   0.655  13.732 -1.0262 -0.7819 -0.0110
 3369TIP3    H231523   2.079   0.752  13.621 -0.8089 -0.1227  0.4845
 3370TIP3   OH231524   2.710   4.434  13.212 -0.2602  0.3763  0.0921
 3370TIP3    H131525   2.675   4.350  13.182  0.3127  0.3989 -0.6547
 3370TIP3    H231526   2.703   4.491  13.136  0.5916  0.6259  0.1971
 3371TIP3   OH231527   4.115   1.758   5.198 -0.2260 -0.1631  0.9490
 3371TIP3    H131528   4.183   1.796   5.253  0.4045 -0.1450  0.1885
 3371TIP3    H231529   4.140   1.666   5.190  2.5966  0.6794 -3.2468
 3372TIP3   OH231530   5.836   5.730  12.717 -0.4052  0.0613 -0.2504
 3372TIP3    H131531   5.870   5.715  12.629 -1.4451  0.5261 -0.7502
 3372TIP3    H231532   5.744   5.703  12.713 -1.0025  1.8513  0.1411
 3373TIP3   OH231533   6.492   4.046   4.862  0.0480 -0.4544  0.6379
 3373TIP3    H131534   6.471   4.137   4.843  1.2711  0.1765  2.0882
 3373TIP3    H231535   6.530   4.012   4.782 -0.3640  0.3256  0.1014
 3374TIP3   OH231536   1.630   4.373   0.388  0.4315  0.2222  0.3174
 3374TIP3    H131537   1.546   4.371   0.434  0.5782  0.8427  0.6255
 3374TIP3    H231538   1.684   4.433   0.439  0.4923  1.1882 -0.8490
 3375TIP3   OH231539   6.654   5.545  11.051 -0.3550  0.3281 -0.3327
 3375TIP3    H131540   6.714   5.581  11.116 -1.2474  2.1048 -0.4262
 3375TIP3    H231541   6.703   5.473  11.010  0.2405 -0.8057  2.2026
 3376TIP3   OH231542   5.746   2.197   0.263 -0.8553 -0.0622  0.1362
 3376TIP3    H131543   5.794   2.276   0.239  0.1190 -0.6113  0.2520
 3376TIP3    H231544   5.658   2.228   0.284 -0.3524  1.0615  0.6566
 3377TIP3   OH231545   0.167   4.665  11.911 -0.3516  0.3040  0.3829
 3377TIP3    H131546   0.130   4.700  11.830 -0.9106 -3.1190 -1.0093
 3377TIP3    H231547   0.248   4.714  11.924  0.5143  0.0548 -3.0970
 3378TIP3   OH231548   2.272   3.347  15.350  0.0959 -0.1623  0.0137
 3378TIP3    H131549   2.236   3.374  15.434 -0.1220 -1.8329  0.4785
 3378TIP3    H231550   2.196   3.324  15.297  0.2945 -0.1808 -0.2673
 3379TIP3   OH231551   5.558   0.153   3.946  0.1518 -0.0344 -0.3126
 3379TIP3    H131552   5.590   0.090   3.881  0.4678 -0.5155  0.2908
 3379TIP3    H231553   5.463   0.151   3.938  0.2273  1.1978 -1.9419
 3380TIP3   OH231554   1.843   6.746   6.152 -0.2159 -0.0611 -0.1143
 3380TIP3    H131555   1.861   6.808   6.222  1.0773  1.0896 -1.3739
 3380TIP3    H231556   1.856   6.660   6.191 -1.8253  0.4436  1.6192
 3381TIP3   OH231557   1.572   0.709   3.382  0.8115  0.2642  0.2472
 3381TIP3    H131558   1.605   0.783   3.331 -1.1326  1.2989  0.3736
 3381TIP3    H231559   1.491   0.742   3.421 -0.4000 -2.0906 -0.0987
 3382TIP3   OH231560   1.622   4.822   1.679 -0.0354  0.0352  0.1789
 3382TIP3    H131561   1.631   4.911   1.714  0.0589  0.5096 -1.0049
 3382TIP3    H231562   1.693   4.773   1.719 -0.1962  0.4417  0.9830
 3383TIP3   OH231563   1.453   2.849   1.765  0.3592 -0.4964  0.3775
 3383TIP3    H131564   1.431   2.929   1.717  0.0589 -1.8648 -1.8738
 3383TIP3    H231565   1.476   2.880   1.853 -0.9926  1.9285 -0.0320
 3384TIP3   OH231566   1.739   3.210   1.980 -0.2925  0.2137 -0.0262
 3384TIP3    H131567   1.745   3.277   1.911 -1.8858  0.3813 -0.0314
 3384TIP3    H231568   1.652   3.222   2.018 -0.3865 -1.4879  0.3744
 3385TIP3   OH231569   4.629   4.931   1.036  0.2106 -0.4501  0.8459
 3385TIP3    H131570   4.589   4.844   1.034  0.7466 -0.7423  2.0059
 3385TIP3    H231571   4.580   4.978   1.104 -0.5389  0.4076 -0.2544
 3386TIP3   OH231572   6.060   0.439   1.807  0.3972 -0.5397  0.5397
 3386TIP3    H131573   5.969   0.467   1.804  0.3217 -0.8410 -0.2745
 3386TIP3    H231574   6.058   0.348   1.777  0.9878 -0.4779  0.3052
 3387TIP3   OH231575   3.653   3.678  10.682  0.7589 -0.2040 -0.1918
 3387TIP3    H131576   3.695   3.670  10.597  1.1933 -0.3887  0.0350
 3387TIP3    H231577   3.644   3.773  10.696 -0.6017 -0.1802 -1.0517
 3388TIP3   OH231578   5.128   6.253  16.762  0.1494 -0.5792 -0.1499
 3388TIP3    H131579   5.145   6.347  16.762  1.6980 -0.8116 -1.6007
 3388TIP3    H231580   5.033   6.245  16.747  0.1713  0.7369 -1.0848
 3389TIP3   OH231581   1.766   4.463   4.399  0.4366 -0.1991  0.4057
 3389TIP3    H131582   1.778   4.438   4.308 -2.8956  0.4926 -0.3483
 3389TIP3    H231583   1.716   4.545   4.395 -1.2355 -0.9955  2.8250
 3390TIP3   OH231584   5.765   6.180   5.919  0.2683 -0.1494 -0.5255
 3390TIP3    H131585   5.777   6.263   5.966  1.5525 -1.0201  0.7962
 3390TIP3    H231586   5.798   6.114   5.980  0.0424 -1.5582 -1.8759
 3391TIP3   OH231587   4.312   2.989   0.799 -0.5985 -0.0843 -0.4480
 3391TIP3    H131588   4.322   2.919   0.864  2.0766  0.1559 -0.4864
 3391TIP3    H231589   4.276   2.945   0.722 -1.9323 -0.7562  0.5195
 3392TIP3   OH231590   3.719   5.867  15.512  0.3459  0.2686  0.1691
 3392TIP3    H131591   3.800   5.907  15.545  0.2657  0.6294 -0.0699
 3392TIP3    H231592   3.749   5.800  15.451  0.4515  0.9626 -0.5556
 3393TIP3   OH231593   1.960   6.039  10.931 -0.0357  0.3038 -0.1962
 3393TIP3    H131594   1.996   5.993  10.855 -0.1924 -1.5760  0.8063
 3393TIP3    H231595   1.980   5.982  11.005 -0.7691  1.6058  1.0482
 3394TIP3   OH231596   1.540   4.621   4.109  0.4003 -0.0442 -0.4014
 3394TIP3    H131597   1.531   4.637   4.015 -0.6328 -0.5013 -0.3902
 3394TIP3    H231598   1.527   4.527   4.119  2.2703 -0.3149  0.0213
 3395TIP3   OH231599   0.223   4.449   3.857 -0.0274 -0.4524 -0.2644
 3395TIP3    H131600   0.164   4.412   3.791 -0.9156  1.5011 -0.6415
 3395TIP3    H231601   0.301   4.472   3.808 -0.0459 -0.4891 -0.3119
 3396TIP3   OH231602   6.115   1.866   2.181  0.1732  0.1898 -0.0031
 3396TIP3    H131603   6.061   1.924   2.235  1.1880  1.5436 -0.3856
 3396TIP3    H231604   6.183   1.923   2.146  1.8841 -1.4535  0.4933
 3397TIP3   OH231605   1.335   4.545   5.066 -0.0717 -0.6525 -0.3387
 3397TIP3    H131606   1.281   4.565   4.990  0.5099 -1.7450 -1.0794
 3397TIP3    H231607   1.404   4.487   5.031  0.7251 -0.4474  0.8457
 3398TIP3   OH231608   4.629   2.737   4.894  1.0335  0.4907  0.2224
 3398TIP3    H131609   4.673   2.653   4.905 -0.6560 -0.4562 -0.0788
 3398TIP3    H231610   4.548   2.717   4.848 -0.8119  1.8634  2.6395
 3399TIP3   OH231611   3.091   4.424  11.396  0.6578  0.2004 -0.0292
 3399TIP3    H131612   3.094   4.501  11.453 -0.9783 -0.6371  1.2955
 3399TIP3    H231613   3.082   4.460  11.308  0.4884  1.5308  0.5090
 3400TIP3   OH231614   1.894   4.341   3.029 -0.1292  0.3730  0.0977
 3400TIP3    H131615   1.915   4.353   3.122 -1.2674  0.6545  0.3352
 3400TIP3    H231616   1.803   4.367   3.022 -0.9390 -2.3240 -0.5665
 3401TIP3   OH231617   0.278   5.523  15.327  0.2203  0.4805 -0.0230
 3401TIP3    H131618   0.363   5.525  15.372  0.3137  2.6993 -0.2310
 3401TIP3    H231619   0.299   5.539  15.235 -0.4903  1.9940  0.0608
 3402TIP3   OH231620   1.354   1.139   3.438 -0.3508  0.2843 -0.0397
 3402TIP3    H131621   1.265   1.104   3.433 -0.0504 -0.7395  1.2884
 3402TIP3    H231622   1.351   1.203   3.509 -0.1716  0.7311 -0.4299
 3403TIP3   OH231623   5.590   3.297   1.580 -0.5177  0.0419 -0.0951
 3403TIP3    H131624   5.519   3.238   1.605 -0.5832  0.5381  0.9203
 3403TIP3    H231625   5.661   3.239   1.552 -0.2459 -0.5740  1.7760
 3404TIP3   OH231626   6.202   5.683   0.321 -0.0277 -0.5565  0.4911
 3404TIP3    H131627   6.267   5.626   0.280  0.1831 -0.6833  0.9905
 3404TIP3    H231628   6.226   5.683   0.414  0.8894  1.5189  0.3164
 3405TIP3   OH231629   2.713   1.413  12.038 -0.5474 -0.4957 -0.6711
 3405TIP3    H131630   2.645   1.364  11.993 -1.6242  0.0163  0.3555
 3405TIP3    H231631   2.666   1.483  12.084  0.7635  0.4313 -0.6823
 3406TIP3   OH231632   4.684   3.558   2.386 -0.0028 -0.1729 -0.3184
 3406TIP3    H131633   4.602   3.563   2.337 -0.3311 -1.5637  0.0302
 3406TIP3    H231634   4.753   3.571   2.321 -0.4796  0.0417 -0.7862
 3407TIP3   OH231635   1.682   2.538   1.298 -0.2752  0.3476 -0.3458
 3407TIP3    H131636   1.704   2.617   1.248 -0.4065  0.3534 -0.3943
 3407TIP3    H231637   1.758   2.481   1.287 -0.4791  0.1747 -0.9111
 3408TIP3   OH231638   0.037   2.502   2.569  0.3366  0.1764  0.9051
 3408TIP3    H131639   0.087   2.432   2.526  1.7810  1.6117  0.1258
 3408TIP3    H231640  -0.047   2.502   2.525  1.0551  0.2519 -0.5094
 3409TIP3   OH231641   0.606   2.057  11.253 -0.3674 -0.1604 -0.1193
 3409TIP3    H131642   0.516   2.077  11.280 -0.0031  1.1242  0.2153
 3409TIP3    H231643   0.651   2.142  11.255  0.0745 -0.1995 -3.3142
 3410TIP3   OH231644   6.116   0.384  15.693 -0.4919 -0.0698  0.1134
 3410TIP3    H131645   6.069   0.468  15.694 -1.7923 -0.7460 -1.3317
 3410TIP3    H231646   6.208   0.409  15.705 -0.6481  1.7329 -1.8100
 3411TIP3   OH231647   3.916   6.450  14.534  0.6331  0.2294 -0.8655
 3411TIP3    H131648   3.887   6.360  14.516 -1.0107 -0.0021  2.2267
 3411TIP3    H231649   3.974   6.441  14.610  0.3265  1.7600 -0.4285
 3412TIP3   OH231650   1.375   0.523  13.813  0.4247  0.1040 -0.4346
 3412TIP3    H131651   1.415   0.528  13.899  0.0048 -0.0373 -0.2275
 3412TIP3    H231652   1.439   0.477  13.759  0.5904 -0.0177 -0.1354
 3413TIP3   OH231653   6.091   4.070  10.390  0.4540 -0.0644  0.4796
 3413TIP3    H131654   6.177   4.041  10.359 -0.3510 -1.0353 -0.9474
 3413TIP3    H231655   6.066   4.005  10.455 -0.0255 -0.8908 -0.5131
 3414TIP3   OH231656   3.894   6.356   6.414  0.5832  0.3391  0.5520
 3414TIP3    H131657   3.890   6.345   6.509 -1.1117  1.6265  0.6821
 3414TIP3    H231658   3.882   6.267   6.379  0.9179 -0.1021  1.5126
 3415TIP3   OH231659   5.940   2.456  10.756  0.1502  0.4098 -0.6217
 3415TIP3    H131660   5.908   2.366  10.746  1.0803  0.2273 -2.2808
 3415TIP3    H231661   5.939   2.491  10.667  0.0826  1.9659 -0.0338
 3416TIP3   OH231662   3.509   1.984   4.529 -0.3983 -0.4427 -0.3914
 3416TIP3    H131663   3.486   2.068   4.490 -0.4160  0.4806  1.5202
 3416TIP3    H231664   3.554   1.937   4.458 -1.3266  0.7221 -1.8250
 3417TIP3   OH231665   3.334   0.749  15.635  0.1131  0.1557 -0.0863
 3417TIP3    H131666   3.303   0.835  15.606 -0.3671  0.7098  1.9246
 3417TIP3    H231667   3.329   0.694  15.557 -2.8402  1.0791 -0.6802
 3418TIP3   OH231668   2.967   4.282   1.171 -0.0556  0.5673  0.5675
 3418TIP3    H131669   2.977   4.332   1.090 -0.2211 -0.2370  0.0389
 3418TIP3    H231670   2.872   4.280   1.186 -0.0730  0.1165  0.3974
 3419TIP3   OH231671   3.617   2.816  16.769  0.1813 -0.1129 -0.6953
 3419TIP3    H131672   3.576   2.729  16.769  0.9869 -0.5285 -2.2957
 3419TIP3    H231673   3.587   2.856  16.850 -0.7237 -1.6459 -0.2241
 3420TIP3   OH231674   6.727   6.790   0.503 -0.1098  0.2626 -0.7248
 3420TIP3    H131675   6.750   6.883   0.493  0.1014  0.1899 -0.9432
 3420TIP3    H231676   6.633   6.790   0.520  0.1059  0.5890  0.5585
 3421TIP3   OH231677   0.096   3.644   0.422  0.1334  0.2474  0.2714
 3421TIP3    H131678   0.038   3.656   0.347  1.1564  0.3868 -0.5319
 3421TIP3    H231679   0.059   3.698   0.491 -0.7883  0.1802 -0.1596
 3422TIP3   OH231680   6.541   3.747  14.782 -0.0483  0.0105 -0.1019
 3422TIP3    H131681   6.589   3.710  14.856 -0.9636 -0.9526  0.0462
 3422TIP3    H231682   6.541   3.676  14.717 -2.3016 -0.5359  0.3841
 3423TIP3   OH231683   4.680   1.734   3.289 -0.4909 -0.1378 -0.1090
 3423TIP3    H131684   4.655   1.709   3.200  0.8913 -0.1787 -0.5047
 3423TIP3    H231685   4.743   1.805   3.277 -1.0557  0.5576  0.8807
 3424TIP3   OH231686   6.597   3.363   0.386 -0.3319  0.7182  0.2046
 3424TIP3    H131687   6.605   3.364   0.482 -2.7821 -1.2301  0.5280
 3424TIP3    H231688   6.526   3.424   0.367 -0.5948  0.2747 -0.2656
 3425TIP3   OH231689   2.451   3.788  12.670  0.0854 -0.1700 -0.8020
 3425TIP3    H131690   2.425   3.749  12.587  0.2564  0.5610 -1.2091
 3425TIP3    H231691   2.449   3.882  12.654  1.6023 -0.0413 -0.4543
 3426TIP3   OH231692   6.467   2.376  11.607  0.1097 -0.8483  0.0074
 3426TIP3    H131693   6.465   2.291  11.651  0.3760 -0.7329  0.2417
 3426TIP3    H231694   6.541   2.370  11.546 -0.0230 -0.8708 -0.1547
 3427TIP3   OH231695   4.738   6.716  14.137 -0.5907  0.1406  0.1635
 3427TIP3    H131696   4.705   6.791  14.087 -5.1625 -2.1807 -0.9304
 3427TIP3    H231697   4.666   6.694  14.197  0.9692 -2.7171  1.1614
 3428TIP3   OH231698   2.211   4.577   1.153 -0.7568 -0.1696 -0.3424
 3428TIP3    H131699   2.203   4.634   1.077  2.0819 -0.9109 -1.3245
 3428TIP3    H231700   2.216   4.638   1.228 -1.6158  0.6463 -0.9209
 3429TIP3   OH231701   1.458   1.389  13.846  0.0230  0.6163  0.1739
 3429TIP3    H131702   1.394   1.457  13.826 -0.3199  0.3198  0.2620
 3429TIP3    H231703   1.517   1.430  13.910 -0.1314  0.8594  0.1636
 3430TIP3   OH231704   3.183   6.206  14.550 -0.0057 -0.2827 -0.1179
 3430TIP3    H131705   3.170   6.124  14.504  0.5069 -0.8420  0.7121
 3430TIP3    H231706   3.249   6.252  14.498  1.7435 -1.5793  0.8565
 3431TIP3   OH231707   2.115   6.451  12.270 -0.4910  0.0861 -0.2274
 3431TIP3    H131708   2.198   6.465  12.225 -0.8713  0.1393 -0.9341
 3431TIP3    H231709   2.135   6.462  12.363  0.0430  1.3613 -0.4662
 3432TIP3   OH231710   5.399   2.215  15.374  0.2947 -0.0027  0.2074
 3432TIP3    H131711   5.442   2.181  15.295  1.4908  0.6675  0.5485
 3432TIP3    H231712   5.454   2.287  15.402 -1.1556  0.9997  0.5936
 3433TIP3   OH231713   1.710   1.485  15.220 -0.5592  0.1470  0.1211
 3433TIP3    H131714   1.774   1.475  15.292 -0.6971  0.9794  0.3637
 3433TIP3    H231715   1.715   1.402  15.173 -0.8574 -0.6266  1.4137
 3434TIP3   OH231716   6.618   4.456  14.716 -0.2439  0.4356  0.4038
 3434TIP3    H131717   6.622   4.362  14.735  0.4764  0.5345  0.7548
 3434TIP3    H231718   6.583   4.494  14.796 -2.0542  0.3170 -0.2780
 3435TIP3   OH231719   3.632   5.957   4.557 -0.1020 -0.6123  0.7057
 3435TIP3    H131720   3.566   5.921   4.498  1.2335 -1.2523 -0.4432
 3435TIP3    H231721   3.611   6.050   4.563 -0.5452 -0.6307 -0.4067
 3436TIP3   OH231722   3.125   2.217  10.808 -0.3126  0.8967  0.2099
 3436TIP3    H131723   3.189   2.205  10.739 -1.6026 -0.8242 -0.7694
 3436TIP3    H231724   3.048   2.254  10.764 -1.6446 -1.4883  0.3569
 3437TIP3   OH231725   4.622   4.710   1.986 -0.2933  0.1867 -0.3931
 3437TIP3    H131726   4.566   4.634   2.003 -0.0379  0.5812  2.9407
 3437TIP3    H231727   4.709   4.682   2.013  0.4617  0.7289 -2.1209
 3438TIP3   OH231728   1.848   1.598  12.717  1.5411 -0.1270 -0.3104
 3438TIP3    H131729   1.758   1.570  12.700  1.1020  0.9277  0.1650
 3438TIP3    H231730   1.850   1.690  12.689  3.0385 -0.6679 -2.2092
 3439TIP3   OH231731   1.667   3.390   1.597 -0.1739 -0.0526 -0.6283
 3439TIP3    H131732   1.717   3.370   1.677 -0.4075  2.8745  0.3727
 3439TIP3    H231733   1.733   3.413   1.532 -0.0626  0.6601 -0.2764
 3440TIP3   OH231734   2.747   2.307  10.757 -0.1799 -0.4956 -0.3255
 3440TIP3    H131735   2.800   2.310  10.677 -3.3529  1.0216 -2.6096
 3440TIP3    H231736   2.678   2.244  10.737  0.4302 -2.1918  2.4113
 3441TIP3   OH231737   1.474   1.463  15.066 -0.0733  0.2018 -0.1142
 3441TIP3    H131738   1.471   1.390  15.004  0.9657  0.7357 -0.8171
 3441TIP3    H231739   1.557   1.454  15.111  1.3266  2.3277 -2.0119
 3442TIP3   OH231740   5.503   3.038   1.490  0.6212 -0.1731 -1.0898
 3442TIP3    H131741   5.596   3.057   1.500  0.4679 -0.7267  2.1613
 3442TIP3    H231742   5.496   2.944   1.502 -0.2969 -0.3373 -2.5823
 3443TIP3   OH231743   0.817   0.631  12.906 -0.5949 -0.1187 -0.6938
 3443TIP3    H131744   0.794   0.555  12.960 -1.4806  1.2071  0.8684
 3443TIP3    H231745   0.852   0.695  12.968  1.0010  0.4479 -2.1092
 3444TIP3   OH231746   2.701   5.307  11.811 -0.3296 -0.1140 -0.3993
 3444TIP3    H131747   2.786   5.264  11.808  0.7225  1.7089  0.7747
 3444TIP3    H231748   2.642   5.241  11.847  1.0530 -0.8023  0.7095
 3445TIP3   OH231749   3.239   6.537  13.757  0.1380  0.1972  0.5808
 3445TIP3    H131750   3.153   6.505  13.730  0.4747  0.4515 -0.8717
 3445TIP3    H231751   3.301   6.480  13.713  0.7275  0.6424  0.8143
 3446TIP3   OH231752   1.624   1.919   0.220  0.7671  0.5575  0.0477
 3446TIP3    H131753   1.601   1.970   0.297  1.6596  0.2551  0.5378
 3446TIP3    H231754   1.710   1.952   0.194  2.1754 -1.7516  1.3930
 3447TIP3   OH231755   4.332   3.079  15.664 -0.6227  0.3086 -0.3966
 3447TIP3    H131756   4.324   3.060  15.571  1.0594 -0.9424 -0.3399
 3447TIP3    H231757   4.257   3.035  15.704 -2.1290  2.0006 -1.2439
 3448TIP3   OH231758   0.242   5.083  12.485  0.1554 -0.4041 -0.4080
 3448TIP3    H131759   0.149   5.107  12.483  0.2768  0.4066  1.7860
 3448TIP3    H231760   0.242   4.989  12.505 -0.1920 -0.0432  1.3946
 3449TIP3   OH231761   5.273   3.596  12.770 -0.4717 -0.2720 -0.3145
 3449TIP3    H131762   5.288   3.591  12.676 -0.1104  1.0461 -0.3357
 3449TIP3    H231763   5.177   3.601  12.779 -0.4617  0.8057 -0.6864
 3450TIP3   OH231764   0.748   4.857  16.936  0.7151  0.3714  0.8020
 3450TIP3    H131765   0.670   4.897  16.976  0.9914 -0.0996  1.8337
 3450TIP3    H231766   0.773   4.919  16.868 -1.7393 -0.4194 -0.9748
 3451TIP3   OH231767   1.180   0.467   1.718  0.3328  0.8069 -0.1958
 3451TIP3    H131768   1.205   0.439   1.630  1.5698  1.3314 -0.0359
 3451TIP3    H231769   1.254   0.520   1.748 -0.1472  0.7766  1.0960
 3452TIP3   OH231770   4.311   2.724   3.642  0.5505  0.2628  0.3102
 3452TIP3    H131771   4.250   2.653   3.664 -1.0275  2.0276  2.1092
 3452TIP3    H231772   4.398   2.685   3.651 -0.2784 -1.7197  0.1252
 3453TIP3   OH231773   5.727   4.009   3.453  0.4957 -0.2569  0.1673
 3453TIP3    H131774   5.762   3.966   3.532  1.5989 -0.2849 -0.3219
 3453TIP3    H231775   5.708   3.936   3.394  0.5032 -0.1841  0.0767
 3454TIP3   OH231776   2.338   4.824   1.057  0.2706 -0.1722 -0.1882
 3454TIP3    H131777   2.306   4.913   1.046 -1.7534 -0.9091 -0.7159
 3454TIP3    H231778   2.412   4.832   1.118 -0.4691  1.7430  0.5327
 3455TIP3   OH231779   1.849   6.695   6.790  0.1119 -0.0725  0.1518
 3455TIP3    H131780   1.911   6.761   6.822  1.9770 -2.6101  2.3191
 3455TIP3    H231781   1.854   6.700   6.695  0.2818  2.7266  0.2408
 3456TIP3   OH231782   2.407   3.224   5.455 -0.2902 -0.4711 -0.1140
 3456TIP3    H131783   2.414   3.317   5.433  1.0162 -0.4312  0.4094
 3456TIP3    H231784   2.312   3.208   5.458 -0.5360  0.7766 -0.4543
 3457TIP3   OH231785   1.276   6.700  14.283  0.4856 -0.2478 -0.1910
 3457TIP3    H131786   1.208   6.639  14.256 -0.4924  0.2941  0.9384
 3457TIP3    H231787   1.285   6.686  14.377  1.0095  0.6024 -0.1003
 3458TIP3   OH231788   3.878   5.212   3.059  0.5920  0.3136  0.3385
 3458TIP3    H131789   3.856   5.121   3.041 -2.0339  0.7480  1.0218
 3458TIP3    H231790   3.904   5.213   3.151 -0.8076  0.4482  0.7500
 3459TIP3   OH231791   0.874   3.042  12.446  0.1881 -0.0553 -0.2564
 3459TIP3    H131792   0.833   3.013  12.365 -0.4324 -1.6911  0.5970
 3459TIP3    H231793   0.814   3.014  12.515  2.0177 -1.2335  0.9453
 3460TIP3   OH231794   0.420   6.600   0.638 -0.1859 -0.0100  0.9588
 3460TIP3    H131795   0.487   6.612   0.571 -1.2814  1.0082 -0.0024
 3460TIP3    H231796   0.342   6.573   0.590 -0.4578 -1.3320  2.0680
 3461TIP3   OH231797   5.744   0.313  12.123  0.9995  0.0940 -0.2104
 3461TIP3    H131798   5.750   0.298  12.029  0.8351  1.0534 -0.3819
 3461TIP3    H231799   5.772   0.404  12.135 -2.2707  1.1737  0.2341
 3462TIP3   OH231800   0.412   4.462  16.393  0.1298  0.2891  0.4392
 3462TIP3    H131801   0.506   4.448  16.399  0.2984  1.1605 -0.0096
 3462TIP3    H231802   0.394   4.530  16.458 -0.4837 -1.1205  1.7810
 3463TIP3   OH231803   1.992   4.110   3.865 -0.2976 -0.2642 -0.9033
 3463TIP3    H131804   1.941   4.068   3.795 -2.1015  1.0615 -0.4720
 3463TIP3    H231805   1.965   4.202   3.861  0.8065  0.1490  0.4855
 3464TIP3   OH231806   2.606   5.481  16.784 -0.0570 -0.5436  1.0146
 3464TIP3    H131807   2.678   5.466  16.723 -0.5228 -1.1817  0.6046
 3464TIP3    H231808   2.594   5.396  16.827 -2.1646 -1.2053 -0.6926
 3465TIP3   OH231809   5.854   6.074  14.693 -0.2860 -0.0028 -0.1115
 3465TIP3    H131810   5.937   6.091  14.738 -0.4088  1.1828 -0.2940
 3465TIP3    H231811   5.798   6.147  14.719 -0.7022  0.1443 -1.3572
 3466TIP3   OH231812   4.966   1.070   4.379  0.0652  1.3142 -0.3450
 3466TIP3    H131813   5.026   1.086   4.452  1.3891  0.1234 -1.1287
 3466TIP3    H231814   4.972   1.149   4.326  0.6945  1.3370 -0.2494
 3467TIP3   OH231815   6.627   3.536   3.271  0.2549  0.2937  0.7399
 3467TIP3    H131816   6.545   3.496   3.242 -0.6836  1.6078  1.4808
 3467TIP3    H231817   6.672   3.466   3.319 -0.3109 -0.5039  0.1437
 3468TIP3   OH231818   3.105   2.006  13.910 -0.2189  0.3812 -0.0458
 3468TIP3    H131819   3.066   1.968  13.832  2.1019 -0.2425 -0.9868
 3468TIP3    H231820   3.132   2.094  13.883 -1.0896  0.8906  0.6606
 3469TIP3   OH231821   2.231   4.860   5.194  0.3807 -0.3134  0.5229
 3469TIP3    H131822   2.186   4.782   5.163  0.9030 -1.2694  2.0110
 3469TIP3    H231823   2.324   4.838   5.188  0.6225  0.9873 -0.9305
 3470TIP3   OH231824   1.165   1.196  16.361  0.1428  0.4763 -0.2405
 3470TIP3    H131825   1.206   1.221  16.279  2.1901  1.1119  0.8919
 3470TIP3    H231826   1.237   1.157  16.413 -0.8923  0.7805  1.5116
 3471TIP3   OH231827   0.856   0.794  10.961 -0.6865 -0.0258 -0.2312
 3471TIP3    H131828   0.848   0.700  10.943 -1.5878 -0.0052  0.0035
 3471TIP3    H231829   0.797   0.809  11.035  1.2285  0.2955  1.3166
 3472TIP3   OH231830   0.124   5.734  13.222 -0.0990 -0.3740  0.1889
 3472TIP3    H131831   0.121   5.729  13.318  0.6466 -0.6900  0.2029
 3472TIP3    H231832   0.092   5.822  13.201 -1.3042 -0.6753  0.6609
 3473TIP3   OH231833   1.317   3.049   3.420  0.0476 -0.4162 -0.2828
 3473TIP3    H131834   1.299   2.957   3.439  1.6776 -0.7297 -0.1071
 3473TIP3    H231835   1.406   3.050   3.385 -0.4973  0.9360 -1.7714
 3474TIP3   OH231836   5.923   0.695  10.484  0.0103 -0.6497 -0.4766
 3474TIP3    H131837   5.932   0.604  10.455  0.1132 -0.3124 -1.5719
 3474TIP3    H231838   5.829   0.705  10.499  0.3109 -1.9297  3.2417
 3475TIP3   OH231839   0.100   2.885   3.321 -0.1357  0.1079  0.0090
 3475TIP3    H131840   0.145   2.804   3.299 -0.1027  0.1910 -0.2310
 3475TIP3    H231841   0.102   2.888   3.417 -0.4729 -0.3630  0.0360
 3476TIP3   OH231842   1.175   5.783  15.943  0.6082 -0.5673  0.1834
 3476TIP3    H131843   1.227   5.760  15.867  0.0227  0.4660 -0.5456
 3476TIP3    H231844   1.086   5.757  15.920  0.1101  1.3579 -0.2445
 3477TIP3   OH231845   1.787   4.227   0.198 -0.1223 -0.1393  0.1754
 3477TIP3    H131846   1.746   4.254   0.280  0.3906  0.8542  0.1128
 3477TIP3    H231847   1.770   4.299   0.137  1.3416  0.1077  0.0207
 3478TIP3   OH231848   6.324   1.078  11.758  0.1429  0.1358  0.5052
 3478TIP3    H131849   6.264   1.004  11.765  0.7348 -0.4660 -0.4830
 3478TIP3    H231850   6.353   1.076  11.666 -1.2022  2.6639 -0.0452
 3479TIP3   OH231851   4.989   6.579  12.701 -0.3049 -0.0306  0.2222
 3479TIP3    H131852   5.074   6.546  12.669 -0.0250  0.4674  0.4433
 3479TIP3    H231853   4.932   6.502  12.701  0.4567 -0.6119  1.1532
 3480TIP3   OH231854   6.077   5.209   5.030  0.1365 -0.1749 -0.2522
 3480TIP3    H131855   6.160   5.228   5.074  0.5154 -0.6507 -0.7561
 3480TIP3    H231856   6.013   5.203   5.101  0.6431 -0.4157  0.1917
 3481TIP3   OH231857   2.920   5.691  16.378 -0.5848  0.0044  0.5604
 3481TIP3    H131858   3.003   5.648  16.395 -0.9605 -0.9625  0.0105
 3481TIP3    H231859   2.934   5.739  16.296 -1.1203 -1.7935 -0.6642
 3482TIP3   OH231860   4.105   3.500  16.443  0.5508  0.1128 -0.5198
 3482TIP3    H131861   4.181   3.462  16.487  1.0329  1.1302 -0.4438
 3482TIP3    H231862   4.121   3.595  16.445 -1.0946  0.4102  0.1986
 3483TIP3   OH231863   4.064   1.644   3.253 -0.0702  0.3988  0.6239
 3483TIP3    H131864   4.121   1.665   3.327  0.5543  0.1830  0.2106
 3483TIP3    H231865   3.999   1.714   3.252  0.0018  0.4758  1.2927
 3484TIP3   OH231866   5.268   4.581  15.654  0.2237  0.0353  0.1848
 3484TIP3    H131867   5.323   4.643  15.606  1.0151 -0.4431  0.4715
 3484TIP3    H231868   5.208   4.636  15.704  1.3570  0.5922  0.9576
 3485TIP3   OH231869   4.524   0.158  15.402 -0.2494  0.2070 -0.2760
 3485TIP3    H131870   4.568   0.150  15.317  1.2412 -0.0949  0.4923
 3485TIP3    H231871   4.466   0.082  15.407  3.0213 -2.4676  0.8289
 3486TIP3   OH231872   6.037   2.120   0.123  0.1484  0.3450 -0.0227
 3486TIP3    H131873   6.124   2.161   0.131  0.1808  0.1652  0.5750
 3486TIP3    H231874   5.991   2.175   0.059 -0.3316  2.2338  1.8334
 3487TIP3   OH231875   6.486   1.788  11.358  0.3033  0.1456 -0.4007
 3487TIP3    H131876   6.500   1.761  11.449 -2.2069 -0.4038 -0.1155
 3487TIP3    H231877   6.472   1.882  11.363  0.2879  0.1351 -0.2340
 3488TIP3   OH231878   1.453   3.342  12.219 -0.5885  0.4795  0.3456
 3488TIP3    H131879   1.359   3.359  12.215 -1.1544 -2.4385 -2.1517
 3488TIP3    H231880   1.464   3.285  12.295 -0.8893  0.4868  0.3949
 3489TIP3   OH231881   6.508   0.047  13.922  0.3729  0.7676  0.0667
 3489TIP3    H131882   6.541   0.127  13.963 -0.1503  0.6656  0.7175
 3489TIP3    H231883   6.433   0.022  13.977  0.5789 -0.2038 -0.0886
 3490TIP3   OH231884   4.740   4.451  16.097  0.2243  0.0393  0.5738
 3490TIP3    H131885   4.749   4.502  16.178  0.9856  0.1517  0.4183
 3490TIP3    H231886   4.826   4.455  16.055 -0.6505  1.5720 -1.1998
 3491TIP3   OH231887   3.450   5.616   2.954  0.3308  0.5590  0.2146
 3491TIP3    H131888   3.488   5.546   3.007 -2.0871 -0.4146  0.7745
 3491TIP3    H231889   3.376   5.647   3.005 -1.2157  0.5794 -1.9293
 3492TIP3   OH231890   4.090   2.863  12.943 -0.2082  0.0920  0.1143
 3492TIP3    H131891   4.118   2.772  12.953  0.8934  0.4749  0.6485
 3492TIP3    H231892   4.006   2.857  12.898 -1.3023 -1.3148  2.1835
 3493TIP3   OH231893   5.789   1.870  12.604 -0.5599  0.0399  0.2086
 3493TIP3    H131894   5.818   1.795  12.552 -0.0033  0.2895  0.1507
 3493TIP3    H231895   5.731   1.833  12.670 -0.7641 -0.3621 -0.1925
 3494TIP3   OH231896   0.174   5.328  11.864 -0.0696  0.1702  0.8373
 3494TIP3    H131897   0.249   5.383  11.843  0.5033  0.0030  2.3165
 3494TIP3    H231898   0.113   5.343  11.792  1.9680 -0.8758 -1.2350
 3495TIP3   OH231899   4.569   4.089   4.466  0.2638 -0.5129 -0.1667
 3495TIP3    H131900   4.508   4.044   4.407 -0.0111  0.3452 -0.5595
 3495TIP3    H231901   4.652   4.089   4.419 -0.5843  2.7002 -1.9612
 3496TIP3   OH231902   1.527   0.227  13.819 -0.0348  0.0797  0.0623
 3496TIP3    H131903   1.515   0.166  13.746 -1.8906 -1.9811  1.9136
 3496TIP3    H231904   1.444   0.275  13.824  0.9541  1.9315 -0.5947
 3497TIP3   OH231905   1.361   2.743  16.132  0.1204  0.1089 -0.3197
 3497TIP3    H131906   1.446   2.700  16.146 -0.5203 -1.2404 -0.4106
 3497TIP3    H231907   1.364   2.819  16.189  0.3268 -1.4576  1.9168
 3498TIP3   OH231908   2.225   1.342  11.432  0.1906 -0.1485 -0.0870
 3498TIP3    H131909   2.183   1.428  11.421 -1.9370 -0.9464  1.2535
 3498TIP3    H231910   2.199   1.292  11.354  1.6150  0.4166 -0.9820
 3499TIP3   OH231911   0.187   2.697   3.086  0.4465 -0.1929  0.1691
 3499TIP3    H131912   0.256   2.761   3.075  0.6850 -0.0790  2.0213
 3499TIP3    H231913   0.111   2.735   3.042  0.9159  0.7708  0.1797
 3500TIP3   OH231914   3.335   5.387   0.394  0.5131  0.0790  0.0181
 3500TIP3    H131915   3.269   5.422   0.334  0.5627  1.4184  0.7059
 3500TIP3    H231916   3.418   5.420   0.360  0.8019 -1.1840 -0.5541
 3501TIP3   OH231917   6.262   2.258  10.309  0.0093  0.0693  0.1007
 3501TIP3    H131918   6.344   2.210  10.296 -0.7014 -1.4080  0.7412
 3501TIP3    H231919   6.288   2.349  10.317  1.5446 -0.3209 -0.1214
 3502TIP3   OH231920   6.649   1.135   1.052 -0.2214  0.2416 -0.3185
 3502TIP3    H131921   6.660   1.152   1.146  1.3192 -1.9064 -0.0256
 3502TIP3    H231922   6.566   1.177   1.030 -0.4718  1.0958  1.9147
 3503TIP3   OH231923   2.181   6.656  16.491 -0.1597 -0.5103 -0.4982
 3503TIP3    H131924   2.164   6.734  16.545  1.4285 -0.6083  0.1982
 3503TIP3    H231925   2.270   6.630  16.515 -0.8149 -2.8068 -0.4027
 3504TIP3   OH231926   3.244   3.525   1.759 -0.2752  0.0747 -0.2116
 3504TIP3    H131927   3.155   3.510   1.730 -0.3180 -1.2759  0.5332
 3504TIP3    H231928   3.299   3.480   1.695 -0.2451 -0.6877  0.3272
 3505TIP3   OH231929   5.575   2.233  16.629  0.1624  0.3579  0.3800
 3505TIP3    H131930   5.661   2.209  16.594  0.3964  0.0172  1.1478
 3505TIP3    H231931   5.521   2.155  16.615 -0.1678  0.7522 -0.5561
 3506TIP3   OH231932   1.030   1.653   3.892 -0.0040  0.5168  0.4015
 3506TIP3    H131933   1.117   1.633   3.927 -0.7753 -2.0791  1.0374
 3506TIP3    H231934   0.970   1.623   3.960 -1.4622 -0.4539 -1.2447
 3507TIP3   OH231935   4.631   5.558   0.835 -0.0619  0.1165  0.1248
 3507TIP3    H131936   4.579   5.582   0.759  1.7830  0.1631 -1.2018
 3507TIP3    H231937   4.675   5.639   0.860 -1.7067  0.4568  2.1988
 3508TIP3   OH231938   1.904   1.668   4.081  0.6540 -0.1098  0.0026
 3508TIP3    H131939   1.970   1.681   4.013 -0.5484  1.6429 -0.9163
 3508TIP3    H231940   1.907   1.574   4.100 -0.4065 -1.1482 -4.0170
 3509TIP3   OH231941   2.799   3.982  11.450  0.0956  0.3872 -0.3770
 3509TIP3    H131942   2.764   3.915  11.391 -0.3110  1.7416 -1.7406
 3509TIP3    H231943   2.847   3.933  11.517  0.0344 -1.2412 -1.4772
 3510TIP3   OH231944   5.305   1.832  11.355 -0.4246 -0.8024 -0.0161
 3510TIP3    H131945   5.319   1.925  11.340  2.8480 -1.2211 -0.2491
 3510TIP3    H231946   5.319   1.820  11.449 -1.9495 -0.9547  0.2235
 3511TIP3   OH231947   1.381   5.635   3.386  0.2927  0.4958  0.4489
 3511TIP3    H131948   1.476   5.637   3.396  0.6084  1.5970 -2.0288
 3511TIP3    H231949   1.347   5.669   3.470  1.9661 -1.1379  1.8699
 3512TIP3   OH231950   4.606   6.408   4.839 -0.0039 -0.2439  0.5544
 3512TIP3    H131951   4.643   6.420   4.927  0.4036 -0.1064  0.3684
 3512TIP3    H231952   4.651   6.331   4.805  1.3202  0.8781 -0.2943
 3513TIP3   OH231953   5.208   2.086   3.508 -0.5257 -0.4830 -0.3806
 3513TIP3    H131954   5.224   2.046   3.423 -2.1504  0.2714 -1.0881
 3513TIP3    H231955   5.155   2.163   3.489  0.0918  0.3890  1.2167
 3514TIP3   OH231956   4.012   3.608   5.533 -0.6199 -0.3508  1.0484
 3514TIP3    H131957   3.968   3.607   5.449 -0.3063  0.2036  0.8706
 3514TIP3    H231958   3.986   3.527   5.576 -1.0090 -0.4947  0.5364
 3515TIP3   OH231959   2.866   0.247   1.968  0.5430  0.3066 -0.5493
 3515TIP3    H131960   2.941   0.195   1.998 -0.6388 -1.3132 -0.2843
 3515TIP3    H231961   2.833   0.199   1.892  0.8525  2.0146 -1.8489
 3516TIP3   OH231962   5.632   4.542   1.332  0.0496  0.1674 -0.5139
 3516TIP3    H131963   5.657   4.557   1.423 -1.2370  2.0929 -0.4279
 3516TIP3    H231964   5.656   4.450   1.316  0.0047 -0.3349  1.8593
 3517TIP3   OH231965   3.050   4.873   1.952  0.1694 -0.5744  0.4269
 3517TIP3    H131966   3.102   4.794   1.970  0.3494 -0.1097  2.1302
 3517TIP3    H231967   3.103   4.944   1.988 -1.3136 -0.0149  1.6055
 3518TIP3   OH231968   5.908   5.167  15.330  0.0087 -0.7699  0.2570
 3518TIP3    H131969   5.889   5.248  15.284  1.4380 -0.6248 -0.1429
 3518TIP3    H231970   5.951   5.195  15.411  3.1365 -1.0887 -1.1393
 3519TIP3   OH231971   4.357   0.707  15.252 -0.2505 -0.2439  0.3241
 3519TIP3    H131972   4.371   0.616  15.226 -0.4170 -0.2274  0.1723
 3519TIP3    H231973   4.358   0.705  15.348  0.9137 -0.2212  0.3296
 3520TIP3   OH231974   4.667   6.117   5.436  0.2022  0.4300 -0.6174
 3520TIP3    H131975   4.596   6.066   5.474  0.7080 -0.8030 -1.2924
 3520TIP3    H231976   4.730   6.129   5.507 -0.5145  1.2465 -0.1079
 3521TIP3   OH231977   0.579   4.313   1.689  0.0507 -0.0260 -0.0686
 3521TIP3    H131978   0.549   4.374   1.757  0.3347 -1.8334  1.7890
 3521TIP3    H231979   0.665   4.347   1.663  0.3443  0.2408  1.1679
 3522TIP3   OH231980   4.764   5.296  14.338 -0.2451  0.4868  0.1203
 3522TIP3    H131981   4.834   5.289  14.272  0.5508  0.1481  0.9813
 3522TIP3    H231982   4.795   5.243  14.411 -1.2539  0.6317  0.6635
 3523TIP3   OH231983   5.256   1.720  14.220 -0.1967 -0.4420 -0.2303
 3523TIP3    H131984   5.234   1.629  14.200 -0.0966 -0.6144  0.4180
 3523TIP3    H231985   5.348   1.729  14.195 -0.3145 -0.4131 -0.6489
 3524TIP3   OH231986   3.343   0.533   1.057  0.2144  0.2624 -0.3731
 3524TIP3    H131987   3.365   0.595   0.987  1.2049 -1.1413 -1.3850
 3524TIP3    H231988   3.392   0.453   1.034  2.0058  0.2384  2.8272
 3525TIP3   OH231989   3.102   2.725  15.180 -0.0595  0.3566 -0.7602
 3525TIP3    H131990   3.075   2.807  15.221  1.2392  0.1009  0.6852
 3525TIP3    H231991   3.073   2.733  15.089 -0.1006  2.3336 -0.6095
 3526TIP3   OH231992   1.019   1.906  13.419  0.4096  0.4094 -0.0618
 3526TIP3    H131993   1.020   1.997  13.388  0.0924  0.2287 -0.6145
 3526TIP3    H231994   0.951   1.904  13.486  2.3555  1.2426  2.0620
 3527TIP3   OH231995   5.374   4.353  10.568  0.0312 -0.3267  0.5175
 3527TIP3    H131996   5.377   4.329  10.475  0.1826 -1.3827  0.7790
 3527TIP3    H231997   5.346   4.444  10.569 -0.5078 -0.4720 -0.5428
 3528TIP3   OH231998   3.969   4.832   2.673 -0.5641  0.8152 -0.1810
 3528TIP3    H131999   4.019   4.891   2.617  1.3190  0.5630  1.1643
 3528TIP3    H232000   3.901   4.887   2.712  0.8211  2.0089  0.6276
 3529TIP3   OH232001   0.791   1.003   0.444  0.4534 -0.6198  0.4300
 3529TIP3    H132002   0.795   0.910   0.420  2.2358 -0.7868  1.1950
 3529TIP3    H232003   0.798   1.050   0.361  1.0872 -1.1840  0.1499
 3530TIP3   OH232004   4.547   1.390  13.364  0.6575 -0.4472  0.8358
 3530TIP3    H132005   4.521   1.445  13.291 -0.3004 -0.9006  0.8183
 3530TIP3    H232006   4.501   1.307  13.349  1.9339 -1.2007  0.9447
 3531TIP3   OH232007   1.768   3.378  15.158 -0.0394 -0.3241 -0.2893
 3531TIP3    H132008   1.742   3.288  15.178  1.3433 -0.7537 -0.3194
 3531TIP3    H232009   1.740   3.392  15.068 -2.3665  0.1282  0.4106
 3532TIP3   OH232010   6.437   2.954   5.400  0.1546  0.0796 -0.3612
 3532TIP3    H132011   6.446   3.048   5.409 -0.8138  0.3228 -1.6805
 3532TIP3    H232012   6.469   2.919   5.484  0.1372  1.5784  0.3054
 3533TIP3   OH232013   4.232   1.089   2.279  0.1956 -0.0228  0.4012
 3533TIP3    H132014   4.147   1.102   2.322 -0.3603  0.3262 -0.7653
 3533TIP3    H232015   4.232   1.154   2.208  0.2956 -1.7900 -1.2787
 3534TIP3   OH232016   1.646   5.202  14.722  0.5744  0.3152  0.0414
 3534TIP3    H132017   1.607   5.153  14.650 -1.5438  1.2513  0.4659
 3534TIP3    H232018   1.679   5.283  14.682 -1.0705  1.0738  0.1430
 3535TIP3   OH232019   6.207   6.089  15.389  0.2935  0.1856  0.0388
 3535TIP3    H132020   6.233   6.181  15.378  0.0615  0.1611 -0.7978
 3535TIP3    H232021   6.135   6.077  15.326 -0.6456 -0.1846  1.1491
 3536TIP3   OH232022   0.357   2.834   3.760  0.4679  0.6489  0.1346
 3536TIP3    H132023   0.321   2.746   3.758  1.2295  0.3362 -0.4266
 3536TIP3    H232024   0.392   2.844   3.849  0.7935  0.2034  0.0603
 3537TIP3   OH232025   2.850   5.008  14.157  0.4221  0.3272 -0.0071
 3537TIP3    H132026   2.853   4.933  14.097  0.3798  0.0055  0.3874
 3537TIP3    H232027   2.905   4.982  14.231 -0.3081  0.3188  0.5411
 3538TIP3   OH232028   2.484   3.055   0.434  0.3403  0.4738  0.2725
 3538TIP3    H132029   2.406   3.008   0.405 -1.5964  1.9758  2.6392
 3538TIP3    H232030   2.485   3.134   0.381 -0.5699  1.0823  1.1322
 3539TIP3   OH232031   5.863   5.592   3.377 -0.0197  0.0803 -0.6111
 3539TIP3    H132032   5.899   5.522   3.432 -1.9911 -2.3338 -2.1643
 3539TIP3    H232033   5.879   5.562   3.287 -2.5227  0.6259 -1.3312
 3540TIP3   OH232034   2.006   2.549   4.295  0.1932 -0.5789  0.4151
 3540TIP3    H132035   1.937   2.501   4.342 -0.6461 -1.4934 -1.6481
 3540TIP3    H232036   1.962   2.627   4.261  0.9107  0.3139  1.4389
 3541TIP3   OH232037   3.485   2.040  10.298 -0.2420 -0.9380  0.0160
 3541TIP3    H132038   3.523   2.041  10.210 -0.0759 -2.2825  0.0546
 3541TIP3    H232039   3.560   2.056  10.355 -0.3741  0.0848 -0.0768
 3542TIP3   OH232040   3.552   5.673  11.406  0.6501 -0.3654  0.4711
 3542TIP3    H132041   3.587   5.672  11.495  0.5499 -1.4490  0.5081
 3542TIP3    H232042   3.580   5.589  11.368 -0.2755 -0.4132 -0.1378
 3543TIP3   OH232043   4.849   0.146   1.902  0.4908 -0.1397 -0.5983
 3543TIP3    H132044   4.832   0.058   1.868  0.7285  0.0530 -1.2316
 3543TIP3    H232045   4.911   0.131   1.973  0.0423 -0.5430 -0.2826
 3544TIP3   OH232046   6.130   1.448   1.662  0.1020  0.2079 -0.2639
 3544TIP3    H132047   6.112   1.532   1.705 -1.9705 -0.2915 -0.0588
 3544TIP3    H232048   6.046   1.403   1.661  1.5529 -2.8833  1.7303
 3545TIP3   OH232049   0.175   2.507  13.853  0.7126 -0.3229  0.5548
 3545TIP3    H132050   0.212   2.591  13.824 -0.8769  0.5114  0.8565
 3545TIP3    H232051   0.095   2.496  13.802  1.1548 -1.9440  0.1352
 3546TIP3   OH232052   2.625   6.365   5.304 -0.3433 -0.2635  0.1086
 3546TIP3    H132053   2.564   6.367   5.378  1.5935 -0.1347  1.7964
 3546TIP3    H232054   2.626   6.455   5.271 -1.1571 -0.3013 -0.0363
 3547TIP3   OH232055   5.039   3.979   3.186  0.0639  0.8362  0.0190
 3547TIP3    H132056   4.980   3.905   3.168  0.7332  0.4318 -0.5791
 3547TIP3    H232057   4.980   4.052   3.205 -0.6566  0.5836 -1.1072
 3548TIP3   OH232058   6.387   2.929  11.872  0.5751  0.0581 -0.4581
 3548TIP3    H132059   6.408   2.856  11.930  0.7271  0.1320 -0.4200
 3548TIP3    H232060   6.469   2.949  11.827  0.5566  0.2627 -0.4046
 3549TIP3   OH232061   0.423   2.993   0.743  0.7575  0.0138  0.1211
 3549TIP3    H132062   0.463   2.954   0.665 -1.2196  0.4171 -1.1655
 3549TIP3    H232063   0.498   3.023   0.796  2.2935 -3.3958  0.1312
 3550TIP3   OH232064   3.027   3.590  16.131  0.1015  0.2081 -0.1088
 3550TIP3    H132065   2.995   3.519  16.187  0.6254 -1.1119 -1.4187
 3550TIP3    H232066   2.962   3.659  16.140 -1.3343 -1.0926 -0.0847
 3551TIP3   OH232067   0.578   4.996  14.746 -0.0616 -0.1984 -0.2990
 3551TIP3    H132068   0.578   5.027  14.656 -2.1797 -0.6738 -0.5281
 3551TIP3    H232069   0.561   5.075  14.799 -0.7748 -0.2211 -0.4882
 3552TIP3   OH232070   5.819   2.056  13.265  0.3123  0.3333 -0.2634
 3552TIP3    H132071   5.777   2.116  13.204  0.2582 -0.8015 -1.3820
 3552TIP3    H232072   5.758   1.983  13.275  0.5781  0.2202  0.6911
 3553TIP3   OH232073   4.556   2.274  11.907  0.0779  0.5889  0.1249
 3553TIP3    H132074   4.529   2.262  11.816  0.5525  0.0535  0.0505
 3553TIP3    H232075   4.537   2.190  11.949 -1.2663  1.2183  0.8208
 3554TIP3   OH232076   3.030   6.793   3.822  0.7132 -0.3865  0.3337
 3554TIP3    H132077   3.005   6.812   3.913 -1.6374 -0.7030 -0.1694
 3554TIP3    H232078   3.012   6.875   3.775  0.0403 -0.8160 -0.1638
 3555TIP3   OH232079   6.393   5.223   3.966 -0.4575 -0.0617  0.0337
 3555TIP3    H132080   6.443   5.241   3.886 -3.4782 -0.6049 -2.1770
 3555TIP3    H232081   6.423   5.136   3.993  0.1747 -0.1653 -0.9153
 3556TIP3   OH232082   0.896   1.664   4.441  0.1092  0.7590 -0.2019
 3556TIP3    H132083   0.833   1.725   4.402  0.7956  4.3619  3.6793
 3556TIP3    H232084   0.980   1.708   4.433  1.3080 -1.4229 -0.3710
 3557TIP3   OH232085   4.647   4.019  14.421  0.6266 -0.2241 -0.5286
 3557TIP3    H132086   4.565   4.056  14.453 -0.3984 -1.5695 -1.5253
 3557TIP3    H232087   4.682   3.970  14.495 -0.6274 -1.4967 -0.7342
 3558TIP3   OH232088   1.546   6.809   6.487 -0.3586 -0.5359  0.0488
 3558TIP3    H132089   1.609   6.869   6.527  0.2244 -0.0228 -1.5802
 3558TIP3    H232090   1.586   6.722   6.497  0.3979 -0.2648 -0.5713
 3559TIP3   OH232091   3.405   2.363  12.190 -0.8250 -0.2036  0.3509
 3559TIP3    H132092   3.493   2.395  12.173 -0.9367 -0.0399  0.0665
 3559TIP3    H232093   3.379   2.405  12.272 -1.7305  2.0853 -0.9924
 3560TIP3   OH232094   4.123   0.569   0.142 -0.1623  0.2590 -0.4020
 3560TIP3    H132095   4.205   0.554   0.190 -0.6707  1.8666  1.0566
 3560TIP3    H232096   4.148   0.560   0.050  2.1078  2.4896 -0.1102
 3561TIP3   OH232097   1.219   0.236   2.170  0.0052  0.2205 -0.1245
 3561TIP3    H132098   1.186   0.252   2.082  0.2043  2.7996  0.2128
 3561TIP3    H232099   1.148   0.266   2.228  0.6329  0.3774  0.5862
 3562TIP3   OH232100   6.044   2.700   4.934 -0.0771  0.9979 -0.0992
 3562TIP3    H132101   5.953   2.725   4.919 -0.1257  0.8107 -0.1185
 3562TIP3    H232102   6.094   2.781   4.921 -0.3108  1.2675  0.6025
 3563TIP3   OH232103   0.605   1.155  16.929 -0.0791  0.5237 -0.3610
 3563TIP3    H132104   0.609   1.126  17.020  1.0094  0.6041 -0.3647
 3563TIP3    H232105   0.697   1.156  16.900 -0.2717  1.8473 -1.0289
 3564TIP3   OH232106   6.030   2.954   3.443 -0.5324 -0.4441 -0.4709
 3564TIP3    H132107   6.068   2.875   3.484 -0.8569  0.2000  1.1433
 3564TIP3    H232108   5.936   2.948   3.462 -0.5259  0.4406 -0.1239
 3565TIP3   OH232109   4.380   5.707   2.031  0.6559  0.0603 -0.0632
 3565TIP3    H132110   4.455   5.746   1.986  0.2097  0.6980 -0.2756
 3565TIP3    H232111   4.335   5.657   1.964  0.2427  0.6437 -0.2340
 3566TIP3   OH232112   3.714   0.851  15.049 -0.0350  0.1115 -0.1442
 3566TIP3    H132113   3.639   0.824  14.996  0.2323  0.6576 -0.8031
 3566TIP3    H232114   3.790   0.825  14.999  0.2495 -1.3555  0.9806
 3567TIP3   OH232115   2.409   4.761  16.067 -0.3288  0.7404  0.3117
 3567TIP3    H132116   2.428   4.854  16.077  0.7792  0.4205  1.4360
 3567TIP3    H232117   2.465   4.733  15.994 -0.5752  0.9214  0.0517
 3568TIP3   OH232118   2.918   5.711   1.751 -0.5578 -0.0946  0.8169
 3568TIP3    H132119   2.939   5.698   1.659  0.6931  2.9032  0.5747
 3568TIP3    H232120   2.943   5.629   1.793 -0.0286 -1.1037 -1.3332
 3569TIP3   OH232121   5.870   6.064   0.711 -0.2877 -0.6395  0.3047
 3569TIP3    H132122   5.799   6.105   0.662  1.8945  2.3318 -0.6255
 3569TIP3    H232123   5.912   6.006   0.648 -0.5620 -0.7476  0.2167
 3570TIP3   OH232124   0.130   3.999   2.464 -0.2384  0.0615 -0.0254
 3570TIP3    H132125   0.146   4.036   2.550 -0.8563  1.8552 -0.6294
 3570TIP3    H232126   0.177   4.058   2.404 -2.1695  0.5775 -1.1158
 3571TIP3   OH232127   0.479   3.677  14.683 -0.0722 -0.4873 -0.5036
 3571TIP3    H132128   0.439   3.591  14.671 -0.0625 -0.9205  2.0905
 3571TIP3    H232129   0.425   3.736  14.630 -1.6972 -1.6803 -0.2494
 3572TIP3   OH232130   2.648   3.557   3.830  0.8878  0.0403  0.8412
 3572TIP3    H132131   2.586   3.596   3.769  1.7634  2.2912  1.2852
 3572TIP3    H232132   2.734   3.586   3.800  1.3445  1.2960  3.1209
 3573TIP3   OH232133   1.729   1.896  14.396  0.1023 -0.6159  0.0533
 3573TIP3    H132134   1.766   1.916  14.483 -0.4241  0.5920  0.0132
 3573TIP3    H232135   1.760   1.808  14.377  0.5103 -0.7661  1.3266
 3574TIP3   OH232136   0.463   6.647  12.630 -0.1757  0.0437 -0.2340
 3574TIP3    H132137   0.425   6.679  12.548 -0.9403  0.1578  0.1594
 3574TIP3    H232138   0.391   6.602  12.674  0.4159 -0.6381  0.0587
 3575TIP3   OH232139   1.093   4.231   3.479  0.7119  0.2045  0.4076
 3575TIP3    H132140   1.025   4.297   3.481  0.5888  0.0672  0.8198
 3575TIP3    H232141   1.123   4.230   3.388  0.6813  0.7884  0.3881
 3576TIP3   OH232142   5.811   6.315  13.311  0.5866  0.6507 -0.5140
 3576TIP3    H132143   5.875   6.257  13.352 -0.4690 -0.8263 -0.8623
 3576TIP3    H232144   5.819   6.398  13.358  1.0531 -0.2643  1.0699
 3577TIP3   OH232145   4.042   2.172  10.492 -0.0628  0.1279 -0.4376
 3577TIP3    H132146   3.979   2.183  10.421 -1.3744  2.4192  0.9563
 3577TIP3    H232147   4.002   2.109  10.551  0.3375 -0.6213 -0.9427
 3578TIP3   OH232148   5.582   1.560  15.516 -0.0164 -0.2352 -0.3338
 3578TIP3    H132149   5.638   1.484  15.531  1.3461  0.7803  0.0412
 3578TIP3    H232150   5.566   1.561  15.422 -0.6475 -1.3666 -0.2455
 3579TIP3   OH232151   5.351   6.690  13.184  0.5033  0.6817 -0.0010
 3579TIP3    H132152   5.384   6.666  13.097  0.0713  1.6797 -0.4617
 3579TIP3    H232153   5.294   6.618  13.209 -1.4153  1.5059 -1.6985
 3580TIP3   OH232154   6.116   3.702   5.958 -0.4966 -0.3661 -0.0760
 3580TIP3    H132155   6.111   3.750   6.041  1.1206 -0.4142  0.0774
 3580TIP3    H232156   6.103   3.769   5.891 -0.7742 -0.1447  0.1960
 3581TIP3   OH232157   0.839   5.718   4.036 -0.0292 -0.1545  0.1858
 3581TIP3    H132158   0.847   5.650   3.969  0.3944 -0.7558  0.8291
 3581TIP3    H232159   0.829   5.670   4.118 -0.2963  0.5667  0.5867
 3582TIP3   OH232160   3.936   6.701   0.076  0.4653  0.2184 -0.4590
 3582TIP3    H132161   3.977   6.643   0.141 -0.9336 -2.0833 -1.4828
 3582TIP3    H232162   3.842   6.685   0.086  0.1725  0.3088 -2.5603
 3583TIP3   OH232163   6.538   2.600   6.308  0.3504 -0.3285  0.9017
 3583TIP3    H132164   6.568   2.683   6.273  1.1352 -0.5931  0.9374
 3583TIP3    H232165   6.604   2.575   6.372 -0.1578 -0.7205  1.2891
 3584TIP3   OH232166   2.634   3.441   3.444 -0.3286  0.4528 -0.2515
 3584TIP3    H132167   2.555   3.416   3.492  0.4746  0.3472  1.0512
 3584TIP3    H232168   2.619   3.532   3.418 -1.4208  0.0260 -1.1807
 3585TIP3   OH232169   4.022   3.407  13.569 -0.0917  0.6924  0.3364
 3585TIP3    H132170   4.092   3.460  13.608 -0.8617  0.2142  2.5036
 3585TIP3    H232171   4.054   3.317  13.574  0.6085  0.7412 -2.0291
 3586TIP3   OH232172   3.480   1.043  11.925 -0.0743 -0.0759  0.3067
 3586TIP3    H132173   3.543   1.058  11.996  0.3954  1.8214 -0.4316
 3586TIP3    H232174   3.478   0.948  11.914  2.0483 -0.2459  0.9239
 3587TIP3   OH232175   1.319   6.172  13.521 -0.3147  0.5629 -0.0555
 3587TIP3    H132176   1.238   6.159  13.571 -0.7737  0.3464 -0.8443
 3587TIP3    H232177   1.298   6.242  13.458 -0.5981 -0.9755 -1.7435
 3588TIP3   OH232178   1.370   5.679  13.850  0.1253  0.4965  0.4985
 3588TIP3    H132179   1.386   5.758  13.902 -0.6421  0.6630  0.4924
 3588TIP3    H232180   1.288   5.697  13.803 -0.0605 -0.3092  0.5010
 3589TIP3   OH232181   5.011   1.635  10.384 -0.2005 -0.2126  0.2641
 3589TIP3    H132182   4.973   1.550  10.408 -1.9363  1.0342  2.2161
 3589TIP3    H232183   5.105   1.617  10.376 -0.3306 -2.0519  1.9746
 3590TIP3   OH232184   0.942   2.171   2.375  0.0954  0.5741  0.1272
 3590TIP3    H132185   0.984   2.242   2.326  1.4425 -0.0230  0.3784
 3590TIP3    H232186   1.008   2.102   2.380 -0.6521 -0.1038  1.2034
 3591TIP3   OH232187   3.854   6.349   3.348  0.0140  0.0858  0.5067
 3591TIP3    H132188   3.900   6.285   3.402 -0.4041 -0.1940  0.5437
 3591TIP3    H232189   3.887   6.434   3.377  0.7893 -0.1222  0.2559
 3592TIP3   OH232190   5.257   4.845   4.271  0.2971  0.6771 -0.1910
 3592TIP3    H132191   5.205   4.914   4.229 -0.1203  1.1263  1.0058
 3592TIP3    H232192   5.226   4.764   4.231  0.9672  1.1744 -1.8065
 3593TIP3   OH232193   1.419   3.115  11.989  0.6972 -0.3123  0.2455
 3593TIP3    H132194   1.347   3.174  12.011 -2.0321 -2.1273 -2.7990
 3593TIP3    H232195   1.380   3.027  11.994  2.9434 -1.4495 -0.7224
 3594TIP3   OH232196   6.449   6.752   2.901 -0.3178 -0.2747  0.3887
 3594TIP3    H132197   6.388   6.695   2.948  0.6933 -0.2636  1.7727
 3594TIP3    H232198   6.443   6.836   2.947  1.3823 -0.5306  1.1322
 3595TIP3   OH232199   6.561   1.552   2.186 -0.1227 -0.4642  0.0280
 3595TIP3    H132200   6.563   1.641   2.153  1.9796 -0.2042  0.7410
 3595TIP3    H232201   6.520   1.559   2.272  1.3162  0.0804  0.7002
 3596TIP3   OH232202   6.585   3.674   1.590 -0.9366 -0.4992 -0.1825
 3596TIP3    H132203   6.581   3.662   1.495  2.2352 -1.3289 -0.3326
 3596TIP3    H232204   6.586   3.585   1.625  1.5804 -0.3874  0.2610
 3597TIP3   OH232205   6.163   2.508   3.930  0.6520  0.0052  0.2811
 3597TIP3    H132206   6.191   2.574   3.993 -0.7245  1.0255 -0.1215
 3597TIP3    H232207   6.244   2.480   3.887  1.2609  1.5182  0.3834
 3598TIP3   OH232208   3.738   3.573  10.306 -0.1528 -0.0175 -0.1380
 3598TIP3    H132209   3.812   3.547  10.251  0.1689 -0.1498  0.3515
 3598TIP3    H232210   3.712   3.492  10.351  0.0305  0.2357  0.4277
 3599TIP3   OH232211   2.634   2.004  11.630 -0.5810 -0.2440  0.4525
 3599TIP3    H132212   2.581   2.081  11.650 -0.6975 -0.3379  0.5044
 3599TIP3    H232213   2.719   2.039  11.604 -0.8747 -0.0671 -0.3046
 3600TIP3   OH232214   0.163   2.034   0.857  0.3867 -0.4775  0.2908
 3600TIP3    H132215   0.211   1.959   0.893 -1.1214 -1.8616 -0.4447
 3600TIP3    H232216   0.173   2.025   0.763  1.0409  0.8759  0.2096
 3601TIP3   OH232217   6.246   1.730   5.532 -0.0009  0.0978 -0.1807
 3601TIP3    H132218   6.226   1.819   5.559 -1.6121  0.1035 -1.2260
 3601TIP3    H232219   6.163   1.683   5.541  0.7083 -1.1855 -0.0890
 3602TIP3   OH232220   1.675   4.424  14.554  0.0410 -0.3662 -0.2844
 3602TIP3    H132221   1.642   4.343  14.513 -2.0418  0.0601  0.4663
 3602TIP3    H232222   1.638   4.423  14.642 -0.6916  1.7927 -0.5280
 3603TIP3   OH232223   4.326   3.254  16.398  0.5151 -0.3296  0.3391
 3603TIP3    H132224   4.372   3.210  16.327  1.2842  0.0809  0.5746
 3603TIP3    H232225   4.234   3.231  16.385  0.7986 -1.2816 -0.0485
 3604TIP3   OH232226   5.562   1.039   5.403  0.4770 -0.0695 -0.4028
 3604TIP3    H132227   5.554   0.965   5.343  0.5803 -1.3002  1.0500
 3604TIP3    H232228   5.478   1.085   5.395  0.7254  0.1700 -1.9358
 3605TIP3   OH232229   2.784   2.531   6.269 -0.6119 -0.6452  0.2757
 3605TIP3    H132230   2.732   2.450   6.269  0.3076 -1.2603  1.4875
 3605TIP3    H232231   2.849   2.518   6.338 -1.6678  1.9387  1.8903
 3606TIP3   OH232232   0.928   4.269  13.983  0.0231  0.6753  0.2938
 3606TIP3    H132233   0.889   4.255  14.070  3.0005  1.9752  1.9631
 3606TIP3    H232234   0.983   4.346  13.993  2.7223 -0.7895 -1.9542
 3607TIP3   OH232235   0.997   5.848   5.122 -0.3279  0.7575  0.0619
 3607TIP3    H132236   1.072   5.790   5.127  0.3959  0.9210 -4.5894
 3607TIP3    H232237   0.921   5.792   5.138  0.6097 -0.1829  1.2809
 3608TIP3   OH232238   6.439   4.801   5.621  0.3090  0.2888 -0.5388
 3608TIP3    H132239   6.477   4.889   5.616 -0.0263  0.3767 -2.9498
 3608TIP3    H232240   6.512   4.742   5.605  0.1976  0.2507 -0.9274
 3609TIP3   OH232241   5.245   6.462  12.654 -0.3001 -0.5200 -0.0272
 3609TIP3    H132242   5.214   6.372  12.645 -0.7502 -0.6925  2.3704
 3609TIP3    H232243   5.319   6.469  12.594  1.3964 -3.3358  1.5266
 3610TIP3   OH232244   1.992   6.758   1.063  0.0185 -0.2239 -0.3528
 3610TIP3    H132245   1.988   6.854   1.054  1.0132 -0.2912 -1.8940
 3610TIP3    H232246   1.943   6.725   0.988 -2.3729 -0.9841  1.4440
 3611TIP3   OH232247   6.601   3.571   5.818  0.0484  0.6002 -0.0292
 3611TIP3    H132248   6.650   3.636   5.868 -0.4557 -0.1064  1.4386
 3611TIP3    H232249   6.509   3.596   5.829 -0.1660 -0.4138  0.7012
 3612TIP3   OH232250   4.177   3.326   1.933 -0.2782 -0.1023 -0.3258
 3612TIP3    H132251   4.158   3.364   1.847  0.4363 -0.1415 -0.5004
 3612TIP3    H232252   4.114   3.369   1.992 -0.3881  0.3475 -0.7608
 3613TIP3   OH232253   3.938   4.872   0.150  0.5696 -0.0434 -0.4360
 3613TIP3    H132254   3.960   4.919   0.070  1.0803 -1.1060 -0.9388
 3613TIP3    H232255   4.005   4.898   0.213  0.4948  0.3548 -0.5149
 3614TIP3   OH232256   2.718   3.176  12.190 -0.1249  0.3128 -0.3168
 3614TIP3    H132257   2.795   3.225  12.163  0.4970  0.0785  0.9635
 3614TIP3    H232258   2.652   3.242  12.209  0.4170  0.6125  0.5339
 3615TIP3   OH232259   1.298   5.131   4.436 -0.2360  0.3476  0.3352
 3615TIP3    H132260   1.263   5.109   4.522  0.1009 -1.3231  0.0822
 3615TIP3    H232261   1.393   5.133   4.449 -0.2310  1.0264  0.2021
 3616TIP3   OH232262   4.650   1.674   3.700  0.2839  0.0387 -0.1075
 3616TIP3    H132263   4.570   1.622   3.701  0.0056  0.4345 -0.8561
 3616TIP3    H232264   4.689   1.660   3.786  0.2603 -1.4644 -0.3177
 3617TIP3   OH232265   3.958   2.461   1.290  0.9743 -0.6960 -0.2027
 3617TIP3    H132266   3.864   2.474   1.281  1.0114 -1.2968 -1.7236
 3617TIP3    H232267   3.974   2.469   1.384 -0.3823  0.7135 -0.0465
 3618TIP3   OH232268   0.550   5.444   0.800  0.1107 -0.0898 -0.8544
 3618TIP3    H132269   0.526   5.537   0.803 -0.3153 -0.1712  3.2823
 3618TIP3    H232270   0.467   5.398   0.789  0.0009 -0.0252 -0.3207
 3619TIP3   OH232271   4.658   2.315   5.949 -0.0869 -0.2071  0.0837
 3619TIP3    H132272   4.728   2.324   6.014  0.0131  1.2502 -0.1912
 3619TIP3    H232273   4.691   2.361   5.872 -0.7695 -0.7481 -0.5470
 3620TIP3   OH232274   3.520   5.631  12.017 -0.1816  0.4477  0.3227
 3620TIP3    H132275   3.435   5.661  11.984 -0.7570 -0.0624  1.2909
 3620TIP3    H232276   3.521   5.537  11.998  1.3876  0.8842 -2.2203
 3621TIP3   OH232277   6.432   2.582  10.858  0.4353  0.6216 -0.1530
 3621TIP3    H132278   6.367   2.644  10.825 -1.3878 -1.5607 -0.8974
 3621TIP3    H232279   6.431   2.595  10.953  1.0389  2.5385 -0.3623
 3622TIP3   OH232280   2.618   2.811   5.453 -0.7079 -0.3251  0.1795
 3622TIP3    H132281   2.711   2.828   5.466 -0.9891 -0.7198  3.5101
 3622TIP3    H232282   2.576   2.897   5.459 -0.6084 -0.1594 -1.2215
 3623TIP3   OH232283   4.514   1.241   2.132 -0.0411  0.6781 -0.1494
 3623TIP3    H132284   4.510   1.336   2.141  0.2819  0.6485  0.3465
 3623TIP3    H232285   4.600   1.224   2.096  0.6715  0.4637  1.5388
 3624TIP3   OH232286   5.133   0.992  14.205 -0.1171  0.0278  0.0111
 3624TIP3    H132287   5.086   1.076  14.196  1.3884  0.7264 -2.4626
 3624TIP3    H232288   5.092   0.950  14.280 -1.7541  2.4548  0.6227
 3625TIP3   OH232289   0.295   2.667  13.653 -0.0525 -0.2585 -0.4012
 3625TIP3    H132290   0.344   2.606  13.598  2.5896 -0.8612  2.3097
 3625TIP3    H232291   0.363   2.726  13.688 -1.5530  0.2148  1.9461
 3626TIP3   OH232292   3.512   4.279  13.670  0.3354  0.0284 -0.1301
 3626TIP3    H132293   3.580   4.290  13.604 -0.5766  3.6189 -0.6759
 3626TIP3    H232294   3.548   4.323  13.748 -0.9419  1.2257 -0.1776
 3627TIP3   OH232295   6.765   0.733  13.798 -0.1662 -0.0533 -0.1495
 3627TIP3    H132296   6.708   0.661  13.772  2.2603 -2.2721  0.2396
 3627TIP3    H232297   6.775   0.786  13.718  1.1257 -2.4549 -1.6798
 3628TIP3   OH232298   0.253   3.130  16.232  0.2702  0.0494 -0.4966
 3628TIP3    H132299   0.163   3.128  16.199  0.1235  1.7892 -0.3145
 3628TIP3    H232300   0.243   3.119  16.327  0.4808 -2.1694 -0.6728
 3629TIP3   OH232301   5.569   4.572  15.361 -0.1541  0.1027 -0.1617
 3629TIP3    H132302   5.529   4.591  15.277 -1.5185  0.3944  0.5213
 3629TIP3    H232303   5.533   4.638  15.420  2.6049  1.4471  0.1857
 3630TIP3   OH232304   0.559   4.238  12.029  0.1085  0.3049  0.7604
 3630TIP3    H132305   0.622   4.264  11.961  0.7624 -2.6719  0.0877
 3630TIP3    H232306   0.600   4.266  12.111  1.0076  0.8225  0.1559
 3631TIP3   OH232307   2.363   6.707   3.073 -0.4477  0.1637 -0.5422
 3631TIP3    H132308   2.348   6.619   3.038 -1.7734  0.2102 -0.1715
 3631TIP3    H232309   2.383   6.692   3.166 -1.5137  0.2825 -0.2814
 3632TIP3   OH232310   6.265   5.684  11.139  0.2371 -0.3439  0.1901
 3632TIP3    H132311   6.195   5.619  11.149  0.4682 -0.8422 -1.2035
 3632TIP3    H232312   6.316   5.653  11.064 -0.3285  2.0297 -1.2769
 3633TIP3   OH232313   2.267   6.259  15.311  0.1597 -0.2889 -0.4606
 3633TIP3    H132314   2.323   6.337  15.305 -0.9014  0.5099 -0.4056
 3633TIP3    H232315   2.232   6.261  15.400 -2.5887  1.1862 -1.4377
 3634TIP3   OH232316   1.423   6.762   0.709  0.5480  0.1282 -0.3457
 3634TIP3    H132317   1.436   6.823   0.636  0.0471  0.3338 -0.2649
 3634TIP3    H232318   1.465   6.805   0.784  0.9686 -0.0342 -0.4867
 3635TIP3   OH232319   2.493   1.529   0.311 -0.0104 -0.3455 -0.0730
 3635TIP3    H132320   2.572   1.553   0.358 -0.3130 -0.3119  0.4354
 3635TIP3    H232321   2.512   1.442   0.274  0.0868 -0.5644  0.4780
 3636TIP3   OH232322   1.880   6.370   2.650 -0.2212 -0.2132 -0.5791
 3636TIP3    H132323   1.970   6.401   2.637 -0.1286  0.7376  1.7140
 3636TIP3    H232324   1.828   6.450   2.653 -0.8271 -0.6184  0.0506
 3637TIP3   OH232325   6.091   3.011   4.266  0.1133  0.4608 -0.0165
 3637TIP3    H132326   6.179   2.974   4.265  0.4795  1.2635  1.1335
 3637TIP3    H232327   6.067   3.014   4.359 -0.6306  1.3946 -0.2220
 3638TIP3   OH232328   0.625   1.358  14.284  0.7441  0.3960  0.5637
 3638TIP3    H132329   0.583   1.410  14.215  1.4358  0.5019  0.2139
 3638TIP3    H232330   0.555   1.341  14.347 -0.0716 -0.3187 -0.5107
 3639TIP3   OH232331   0.788   5.695  14.194  0.2201 -0.7739  0.0400
 3639TIP3    H132332   0.859   5.635  14.169  1.8842  0.7492  0.8477
 3639TIP3    H232333   0.806   5.714  14.286 -2.1616 -1.4869  0.7177
 3640TIP3   OH232334   3.036   5.170  12.613  0.0080  0.0760  0.1914
 3640TIP3    H132335   3.111   5.120  12.644 -0.1582 -0.1402  0.2501
 3640TIP3    H232336   3.068   5.217  12.536  0.6643  1.2596  1.1351
 3641TIP3   OH232337   2.100   1.566  10.624  0.0024  0.0364  0.1015
 3641TIP3    H132338   2.022   1.524  10.588 -0.7054  1.2493  0.1534
 3641TIP3    H232339   2.162   1.566  10.551 -1.0498  1.5352 -0.8666
 3642TIP3   OH232340   1.515   2.144  12.642 -0.1031  0.3920 -0.5640
 3642TIP3    H132341   1.517   2.071  12.703  0.1475  0.9110  0.0618
 3642TIP3    H232342   1.523   2.222  12.697 -0.5291  0.9025 -1.1988
 3643TIP3   OH232343   5.232   0.679  16.631  0.0402 -0.3496 -0.0162
 3643TIP3    H132344   5.196   0.760  16.595  0.7806 -0.1691 -0.3832
 3643TIP3    H232345   5.158   0.618  16.632 -0.9263  0.7621  1.7235
 3644TIP3   OH232346   5.345   5.358   5.915  0.3261 -0.2579  0.7282
 3644TIP3    H132347   5.383   5.341   5.829  2.5764  1.1262  1.3870
 3644TIP3    H232348   5.304   5.275   5.940  1.4829 -1.3130 -0.7428
 3645TIP3   OH232349   0.568   5.882  13.662 -0.2186 -0.2994 -0.8477
 3645TIP3    H132350   0.532   5.808  13.712 -1.1603  0.8885  0.2994
 3645TIP3    H232351   0.553   5.859  13.571 -0.3049 -1.6182 -0.5226
 3646TIP3   OH232352   2.787   3.957   5.462 -0.1297 -0.0073 -0.1239
 3646TIP3    H132353   2.876   3.968   5.431 -0.0964  0.2603  0.0624
 3646TIP3    H232354   2.784   4.006   5.544  0.2167 -1.9145  1.0897
 3647TIP3   OH232355   2.501   2.259  16.019 -0.6528  0.2752  0.6934
 3647TIP3    H132356   2.536   2.315  15.950 -0.1944 -0.0283  0.6732
 3647TIP3    H232357   2.413   2.293  16.036 -1.1982 -0.2890 -0.7994
 3648TIP3   OH232358   6.340   5.470  16.508  0.6367 -0.3958  0.0827
 3648TIP3    H132359   6.434   5.467  16.490  0.2276  0.6189 -2.7120
 3648TIP3    H232360   6.300   5.496  16.425 -2.3552 -3.2178  0.4017
 3649TIP3   OH232361   5.527   4.962   5.798  0.1704 -0.5477  0.2620
 3649TIP3    H132362   5.449   5.015   5.784  0.7907  0.0033 -1.3760
 3649TIP3    H232363   5.495   4.884   5.844 -1.2245 -0.0696  0.1614
 3650TIP3   OH232364   1.686   1.623   4.407 -0.0021 -0.3980  0.1686
 3650TIP3    H132365   1.664   1.670   4.326  2.6199 -0.2444 -0.5646
 3650TIP3    H232366   1.750   1.557   4.379  0.9173 -0.3953  2.1014
 3651TIP3   OH232367   0.093   4.814  11.686 -0.0380 -0.1307  0.3058
 3651TIP3    H132368   0.042   4.845  11.612  0.9623  1.4124  0.2168
 3651TIP3    H232369   0.115   4.894  11.735  1.7450 -0.7893  0.6591
 3652TIP3   OH232370   5.152   5.790   2.534  0.2325  0.0591  0.6348
 3652TIP3    H132371   5.132   5.744   2.452  2.8944  0.7657 -0.5493
 3652TIP3    H232372   5.204   5.728   2.584  2.2172  0.9904 -0.1442
 3653TIP3   OH232373   5.903   3.314  16.108  0.5270  0.3276 -0.6771
 3653TIP3    H132374   5.808   3.321  16.121  0.4359  1.4781 -1.7694
 3653TIP3    H232375   5.913   3.235  16.055  0.1343  0.4855 -0.9933
 3654TIP3   OH232376   3.477   4.135  10.892 -0.1714 -0.0059  0.3560
 3654TIP3    H132377   3.494   4.220  10.931  0.8160  1.0668 -2.2252
 3654TIP3    H232378   3.382   4.122  10.903 -0.2839  1.2451  1.0643
 3655TIP3   OH232379   4.794   6.471  11.097  0.0857 -0.1286  0.0021
 3655TIP3    H132380   4.843   6.537  11.049 -0.9561 -0.7084 -2.0086
 3655TIP3    H232381   4.832   6.388  11.069  1.5759 -0.4616  2.7144
 3656TIP3   OH232382   1.330   2.566   5.516 -0.2250 -0.5429 -0.0638
 3656TIP3    H132383   1.266   2.537   5.581  0.9207  2.0529  2.4404
 3656TIP3    H232384   1.392   2.493   5.509 -0.2416 -0.8054  2.0183
 3657TIP3   OH232385   2.632   5.813   2.114 -0.2829  0.2038  0.3050
 3657TIP3    H132386   2.631   5.828   2.019  1.4982  0.9702  0.3698
 3657TIP3    H232387   2.718   5.844   2.142 -1.3219  1.3660  2.4245
 3658TIP3   OH232388   6.050   2.817   5.614 -0.2360 -0.6095  0.3079
 3658TIP3    H132389   6.050   2.739   5.669  0.5694 -1.5426 -0.9519
 3658TIP3    H232390   6.133   2.860   5.634 -1.5027  1.0750  2.4526
 3659TIP3   OH232391   4.379   4.303   5.296 -0.4899  0.4551 -0.6702
 3659TIP3    H132392   4.314   4.319   5.364  0.7038 -1.4700  1.0340
 3659TIP3    H232393   4.343   4.229   5.246  0.1709 -0.3793  0.0549
 3660TIP3   OH232394   3.620   0.745  14.206  0.3035 -0.1173 -0.2660
 3660TIP3    H132395   3.573   0.667  14.176  0.2989 -1.4624  2.7802
 3660TIP3    H232396   3.701   0.745  14.155 -0.5423 -0.9772 -1.6848
 3661TIP3   OH232397   2.886   2.579  15.015  0.3586 -0.1129 -0.5039
 3661TIP3    H132398   2.945   2.523  14.964 -0.9178 -0.8393 -1.2339
 3661TIP3    H232399   2.888   2.663  14.970 -0.1791 -0.5304 -1.3430
 3662TIP3   OH232400   2.100   1.879  11.349 -0.1660  0.2411  0.1787
 3662TIP3    H132401   2.105   1.844  11.261 -2.0082 -0.3547  0.2722
 3662TIP3    H232402   2.127   1.971  11.341 -2.2649  0.7783 -1.3963
 3663TIP3   OH232403   0.589   6.737  14.589 -0.2893  0.9541  0.1777
 3663TIP3    H132404   0.657   6.796  14.557 -0.4163  0.8180 -0.3357
 3663TIP3    H232405   0.533   6.720  14.513  0.5752 -1.0107 -0.0717
 3664TIP3   OH232406   2.500   2.522  13.218  0.5576  0.1506 -0.0120
 3664TIP3    H132407   2.487   2.486  13.306  1.4056  3.5525  1.6552
 3664TIP3    H232408   2.470   2.612  13.224 -0.3147  0.2284 -3.5849
 3665TIP3   OH232409   5.406   5.353   5.649  0.1255  0.2113 -0.0705
 3665TIP3    H132410   5.428   5.282   5.589 -2.4103 -1.5457  0.8779
 3665TIP3    H232411   5.407   5.432   5.595  2.7175 -0.4871 -1.2425
 3666TIP3   OH232412   0.113   3.115   4.336 -0.2639  0.2896 -0.3416
 3666TIP3    H132413   0.115   3.082   4.426  1.2214  1.0298 -0.0839
 3666TIP3    H232414   0.166   3.194   4.337 -0.5108  0.5122 -1.8057
 3667TIP3   OH232415   3.527   4.223   3.087 -0.0462  0.3491 -0.1444
 3667TIP3    H132416   3.532   4.181   3.002 -0.7684  1.1306 -0.5845
 3667TIP3    H232417   3.443   4.268   3.087  0.2797  0.9838  0.6918
 3668TIP3   OH232418   2.171   2.527  12.348  0.1574  0.5689 -0.5475
 3668TIP3    H132419   2.194   2.604  12.295 -0.5855  0.6046 -0.8209
 3668TIP3    H232420   2.076   2.523  12.345  0.1678 -0.0805 -0.1269
 3669TIP3   OH232421   1.892   1.373  15.625 -0.0637 -0.2224 -0.0574
 3669TIP3    H132422   1.891   1.427  15.545 -1.0867  0.3635  0.3401
 3669TIP3    H232423   1.917   1.434  15.695 -0.1713 -0.5138  0.2356
 3670TIP3   OH232424   2.019   3.481  13.344  0.0023  0.2161 -0.1399
 3670TIP3    H132425   1.964   3.512  13.272  1.1455  1.3515 -0.5563
 3670TIP3    H232426   1.963   3.488  13.422 -0.4728  1.2534 -0.5676
 3671TIP3   OH232427   4.926   0.260  12.894  0.2689  0.4185  0.5946
 3671TIP3    H132428   4.940   0.179  12.845  0.7386  0.3240  0.8792
 3671TIP3    H232429   4.847   0.298  12.855 -0.4391 -0.5876  0.9983
 3672TIP3   OH232430   5.769   5.201   0.958  0.2133  0.4493  0.0309
 3672TIP3    H132431   5.779   5.294   0.976  0.9265 -0.0920  2.9741
 3672TIP3    H232432   5.805   5.189   0.871 -0.1402  2.9367 -0.5305
 3673TIP3   OH232433   3.652   5.812  16.185 -0.1093  0.6284  0.4891
 3673TIP3    H132434   3.624   5.880  16.124 -1.8672  0.8339  1.4803
 3673TIP3    H232435   3.663   5.734  16.130 -0.4435  1.1090 -0.2777
 3674TIP3   OH232436   4.181   2.837  10.680  0.2388 -0.0124 -0.0424
 3674TIP3    H132437   4.138   2.819  10.596  0.3741  0.2783 -0.1734
 3674TIP3    H232438   4.228   2.919  10.666  0.6567 -0.2164  0.1709
 3675TIP3   OH232439   5.234   3.951   2.946 -0.1889  0.3655 -0.0651
 3675TIP3    H132440   5.159   3.992   2.989  0.0289  1.4807 -0.6818
 3675TIP3    H232441   5.227   3.979   2.855  0.9954  0.5474 -0.1221
 3676TIP3   OH232442   4.625   5.911   4.349  0.7489 -0.7415 -0.2899
 3676TIP3    H132443   4.584   5.830   4.318 -1.5052 -0.1442  0.9490
 3676TIP3    H232444   4.651   5.892   4.439 -0.8861  0.2194  0.4218
 3677TIP3   OH232445   2.699   0.600  13.925  0.0287 -0.2399 -0.0636
 3677TIP3    H132446   2.736   0.601  13.837  1.7352 -0.4057  0.6006
 3677TIP3    H232447   2.675   0.691  13.942 -0.4477 -0.2291 -0.7314
 3678TIP3   OH232448   0.177   6.768  16.329 -0.1988 -0.0085  0.0650
 3678TIP3    H132449   0.096   6.791  16.284 -0.1729 -1.6293 -0.8896
 3678TIP3    H232450   0.168   6.805  16.416 -2.0723 -0.3635  0.0553
 3679TIP3   OH232451   0.919   6.014  14.418 -0.4679  0.1456  0.0439
 3679TIP3    H132452   0.918   6.104  14.450 -0.8169 -0.2456  1.1962
 3679TIP3    H232453   0.939   6.021  14.325 -2.0744  1.5208 -0.2370
 3680TIP3   OH232454   6.795   2.539   5.316 -0.2625 -0.1691 -0.5164
 3680TIP3    H132455   6.707   2.518   5.345  0.6646 -2.4299  0.9567
 3680TIP3    H232456   6.844   2.553   5.397  1.1156 -0.7677 -1.2061
 3681TIP3   OH232457   0.334   2.763  15.476  0.5366 -0.4710 -0.1685
 3681TIP3    H132458   0.318   2.808  15.559  0.7437 -0.6298 -0.0422
 3681TIP3    H232459   0.262   2.699  15.470 -0.4094  0.6289 -0.8895
 3682TIP3   OH232460   6.493   5.796   4.597 -0.7901  0.5693 -0.3935
 3682TIP3    H132461   6.549   5.721   4.575  0.1219  0.3949  2.1318
 3682TIP3    H232462   6.509   5.859   4.527  0.9518 -0.3342 -0.8824
 3683TIP3   OH232463   6.276   0.019  14.479 -0.4485 -0.4813 -0.0925
 3683TIP3    H132464   6.318   0.084  14.535 -3.2827  2.4999 -1.1592
 3683TIP3    H232465   6.349  -0.028  14.438  1.8396  2.8119 -0.1664
 3684TIP3   OH232466   1.940   1.305  13.086  0.3350 -0.3653 -0.3775
 3684TIP3    H132467   1.905   1.279  13.171 -1.3847 -1.9237 -1.4749
 3684TIP3    H232468   1.962   1.397  13.096  0.1332 -0.4925  1.7139
 3685TIP3   OH232469   0.866   4.520  16.148 -0.1159  0.4194  0.0630
 3685TIP3    H132470   0.798   4.550  16.208 -0.2147 -0.2319  0.2887
 3685TIP3    H232471   0.932   4.481  16.205 -0.3711 -0.5181 -0.2666
 3686TIP3   OH232472   0.556   6.742   4.578  0.5637 -0.6610  0.2744
 3686TIP3    H132473   0.607   6.676   4.625 -0.2972 -1.6651 -0.1499
 3686TIP3    H232474   0.491   6.772   4.641 -1.1418 -2.6263 -0.4409
 3687TIP3   OH232475   3.428   1.028  11.257  0.6593  0.3722 -0.2677
 3687TIP3    H132476   3.336   1.020  11.232  0.4298 -0.6691  0.8286
 3687TIP3    H232477   3.448   1.121  11.244 -0.3719  0.5069 -1.0747
 3688TIP3   OH232478   4.455   5.359  10.790  0.3026 -0.0149 -0.6041
 3688TIP3    H132479   4.373   5.405  10.773  0.1982  0.2445  0.5121
 3688TIP3    H232480   4.451   5.281  10.734 -0.8258 -0.1290 -0.3953
 3689TIP3   OH232481   3.220   0.299  13.993  0.2018  0.3309  0.4619
 3689TIP3    H132482   3.199   0.219  13.944  0.3510 -0.4816  1.6804
 3689TIP3    H232483   3.303   0.328  13.957  1.2732 -1.3313  1.4711
 3690TIP3   OH232484   1.549   4.865   4.820  0.6391  0.1191  0.0851
 3690TIP3    H132485   1.560   4.855   4.914  0.8132  1.7601  0.2738
 3690TIP3    H232486   1.591   4.949   4.800 -3.6888  2.3676 -0.6219
 3691TIP3   OH232487   1.256   6.779  16.482 -0.2117 -0.1024 -0.4251
 3691TIP3    H132488   1.285   6.764  16.572  1.1835  1.0148 -0.6515
 3691TIP3    H232489   1.177   6.833  16.491 -1.1824 -1.5464  0.1479
 3692TIP3   OH232490   1.548   3.254   5.267  0.2880 -0.8991  0.2896
 3692TIP3    H132491   1.567   3.247   5.361 -1.7878  0.8803  0.9349
 3692TIP3    H232492   1.462   3.295   5.263  1.0310  0.6815 -2.4318
 3693TIP3   OH232493   6.270   4.135  11.513 -0.1283 -0.1963  0.6419
 3693TIP3    H132494   6.181   4.100  11.509 -1.0855  2.1356 -0.3072
 3693TIP3    H232495   6.261   4.218  11.562  1.9170 -0.9019  2.3783
 3694TIP3   OH232496   1.090   4.088  12.502 -0.1950  0.5289 -0.4570
 3694TIP3    H132497   1.053   4.089  12.414 -1.5132  0.6781  0.0757
 3694TIP3    H232498   1.136   4.172  12.509 -0.2671  0.6127 -0.9323
 3695TIP3   OH232499   1.285   2.939  13.935  0.2255  0.1230  0.2712
 3695TIP3    H132500   1.355   3.004  13.937  0.8048 -0.4077 -1.5354
 3695TIP3    H232501   1.206   2.990  13.917  0.7899  0.2925 -1.9598
 3696TIP3   OH232502   2.595   3.487   2.842  0.7219 -0.1044  0.4720
 3696TIP3    H132503   2.515   3.442   2.814  0.5802  1.0425 -1.1264
 3696TIP3    H232504   2.630   3.527   2.762  0.3886  3.2942  1.8199
 3697TIP3   OH232505   3.377   5.692  13.913  0.2943  0.1478 -0.1718
 3697TIP3    H132506   3.464   5.671  13.879  0.2141  0.9046 -0.8577
 3697TIP3    H232507   3.317   5.647  13.854  0.1862  0.4404 -0.2814
 3698TIP3   OH232508   0.802   1.065   1.577  0.4101  0.1238  0.0965
 3698TIP3    H132509   0.717   1.082   1.618 -0.3296 -0.2200 -1.2200
 3698TIP3    H232510   0.837   1.152   1.557 -0.8679  0.2692 -1.7198
 3699TIP3   OH232511   1.361   3.865   6.054  0.0113  0.1671 -0.6216
 3699TIP3    H132512   1.390   3.929   6.118  1.4392 -0.8592 -0.1751
 3699TIP3    H232513   1.269   3.886   6.038 -0.1139  1.0608  1.0290
 3700TIP3   OH232514   5.697   4.823  13.936  0.2402 -0.2760  0.1959
 3700TIP3    H132515   5.783   4.780  13.932 -0.4740 -1.7271 -0.2333
 3700TIP3    H232516   5.636   4.753  13.956 -0.8303  0.7961  0.8213
 3701TIP3   OH232517   3.202   2.905  12.451  0.0402  0.3773 -0.2086
 3701TIP3    H132518   3.159   2.982  12.487 -0.3391 -0.1452  0.4871
 3701TIP3    H232519   3.144   2.876  12.380 -1.5051 -1.0440  1.5000
 3702TIP3   OH232520   2.768   0.338  15.502  0.5795  0.1576 -0.2126
 3702TIP3    H132521   2.860   0.315  15.496  0.1131 -2.4980  1.3475
 3702TIP3    H232522   2.723   0.271  15.450 -0.6161 -0.0440  1.0283
 3703TIP3   OH232523   1.462   6.049   5.405  0.2756 -0.4737 -0.1942
 3703TIP3    H132524   1.436   6.033   5.496  0.4328  1.7022  0.2830
 3703TIP3    H232525   1.382   6.032   5.355 -0.0444 -0.8955  0.4441
 3704TIP3   OH232526   0.274   2.971   4.716 -0.0584  0.4416  0.7235
 3704TIP3    H132527   0.335   2.917   4.767 -1.4182 -0.6653  1.2310
 3704TIP3    H232528   0.326   3.001   4.641  2.0073  2.1630  2.7237
 3705TIP3   OH232529   4.505   0.297  16.063 -0.0420 -0.5412  0.3978
 3705TIP3    H132530   4.520   0.354  15.988  1.3955  0.0165  1.0820
 3705TIP3    H232531   4.442   0.344  16.117  0.0780 -0.2469  0.2821
 3706TIP3   OH232532   4.059   6.402   6.191  0.1284 -0.4154 -0.3694
 3706TIP3    H132533   3.976   6.381   6.234 -0.7031 -0.2020 -1.8068
 3706TIP3    H232534   4.121   6.414   6.263 -1.4177  0.8520  0.8073
 3707TIP3   OH232535   0.341   4.015  15.158 -0.1222 -0.0049  0.1359
 3707TIP3    H132536   0.395   4.094  15.166 -0.3314 -0.0753  3.4485
 3707TIP3    H232537   0.395   3.946  15.195 -0.9287 -0.9320 -0.3911
 3708TIP3   OH232538   6.585   3.035   3.093 -0.2847 -0.4368  0.2967
 3708TIP3    H132539   6.618   3.119   3.059 -1.7101  0.3330  0.6983
 3708TIP3    H232540   6.642   3.014   3.166 -0.2908  0.5435  0.5973
 3709TIP3   OH232541   0.886   5.022  16.756  0.5577  0.0158 -0.4964
 3709TIP3    H132542   0.844   5.077  16.690  1.3136  2.0082  0.5919
 3709TIP3    H232543   0.974   5.006  16.721  0.1520 -1.0467 -1.0791
 3710TIP3   OH232544   2.096   6.393  17.044  0.4015  0.3004  0.3614
 3710TIP3    H132545   2.160   6.456  17.014 -0.5537  0.9887 -0.2941
 3710TIP3    H232546   2.031   6.389  16.974 -1.1974  0.9640  1.7317
 3711TIP3   OH232547   1.055   5.933  16.364 -0.4327 -0.4098  0.2882
 3711TIP3    H132548   1.033   5.840  16.362  1.0054 -0.8842  2.8185
 3711TIP3    H232549   1.143   5.937  16.401  0.1491  1.9132 -1.1042
 3712TIP3   OH232550   6.762   2.461   4.675  0.1652  0.2072  0.1041
 3712TIP3    H132551   6.750   2.515   4.596 -0.7295 -0.2129 -0.0542
 3712TIP3    H232552   6.855   2.437   4.672 -0.0734 -0.6554 -1.3836
 3713TIP3   OH232553   3.095   6.491  15.402 -0.1939 -0.0549  0.0427
 3713TIP3    H132554   3.063   6.438  15.330 -1.4409  0.0810  0.4793
 3713TIP3    H232555   3.120   6.428  15.470 -0.3071 -0.1370  0.0081
 3714TIP3   OH232556   4.741   2.563   2.852  0.5740  0.1676 -0.3607
 3714TIP3    H132557   4.668   2.546   2.912  0.5806 -0.3982 -0.5091
 3714TIP3    H232558   4.702   2.615   2.781  0.1702 -0.6414 -0.7464
 3715TIP3   OH232559   0.910   2.333  14.767  0.3694  0.0896  0.6786
 3715TIP3    H132560   0.839   2.295  14.715  0.0083  1.1024  0.4116
 3715TIP3    H232561   0.918   2.274  14.842 -1.4777  0.5123  1.2763
 3716TIP3   OH232562   3.890   0.979   5.614 -0.0055 -0.4049 -0.2421
 3716TIP3    H132563   3.887   0.894   5.659  3.1542 -0.4807  0.0563
 3716TIP3    H232564   3.898   1.043   5.685  2.3685 -0.3186 -0.5102
 3717TIP3   OH232565   1.526   4.694   0.822  0.2586  0.0003 -0.6514
 3717TIP3    H132566   1.508   4.786   0.804  1.0139  0.2156 -0.3408
 3717TIP3    H232567   1.617   4.692   0.851  1.4098 -1.2711 -3.9441
 3718TIP3   OH232568   1.120   3.749  11.215 -0.4009  0.3412 -0.5151
 3718TIP3    H132569   1.141   3.808  11.143 -1.9079  1.5024 -0.0523
 3718TIP3    H232570   1.055   3.690  11.179  0.5208 -0.5703 -0.7408
 3719TIP3   OH232571   0.207   6.325  15.175  0.2537 -0.6370  0.4118
 3719TIP3    H132572   0.137   6.390  15.171 -0.5943 -1.4886  0.9239
 3719TIP3    H232573   0.168   6.251  15.223  1.2151 -1.4852 -0.0843
 3720TIP3   OH232574   6.293   2.430  14.591 -0.6309  0.3937 -0.3232
 3720TIP3    H132575   6.265   2.401  14.504 -0.8272  0.8257 -0.4082
 3720TIP3    H232576   6.377   2.386  14.605 -1.6813 -1.5413  0.2569
 3721TIP3   OH232577   2.280   0.303   5.425 -0.1558 -0.5964 -0.4431
 3721TIP3    H132578   2.307   0.234   5.486  0.7455  0.0628 -0.0833
 3721TIP3    H232579   2.357   0.319   5.371 -0.5818 -0.3628 -0.9856
 3722TIP3   OH232580   2.125   1.750   4.514 -0.1243 -0.1265  0.2371
 3722TIP3    H132581   2.190   1.692   4.473 -0.7503 -0.9323  0.3560
 3722TIP3    H232582   2.059   1.764   4.447 -1.3443 -1.7518  1.0360
 3723TIP3   OH232583   6.359   1.443  11.448  0.8197  0.6849  0.2455
 3723TIP3    H132584   6.306   1.521  11.465  0.7899  0.7222 -0.0227
 3723TIP3    H232585   6.344   1.422  11.356  0.6082  0.1987  0.3834
 3724TIP3   OH232586   3.081   6.364   4.148  0.2499 -0.4029 -0.3404
 3724TIP3    H132587   3.058   6.449   4.184 -0.1500 -0.2340 -0.9696
 3724TIP3    H232588   3.164   6.341   4.189 -0.5314 -0.5557  1.2410
 3725TIP3   OH232589   2.792   3.154  15.779 -0.3947 -0.1901 -0.5479
 3725TIP3    H132590   2.745   3.083  15.822 -0.2582 -1.6800 -2.6838
 3725TIP3    H232591   2.788   3.227  15.841 -0.2458 -2.1314  1.8741
 3726TIP3   OH232592   5.151   5.527   0.930  0.0706 -0.2869 -0.1155
 3726TIP3    H132593   5.168   5.541   1.023 -1.2011  1.9951 -0.1712
 3726TIP3    H232594   5.057   5.543   0.919  0.0949 -0.9762 -1.7382
 3727TIP3   OH232595   0.270   4.613  12.668  0.4449 -1.2202  0.0813
 3727TIP3    H132596   0.176   4.628  12.677  0.4327  0.8607 -2.3317
 3727TIP3    H232597   0.310   4.695  12.695  1.3173 -0.9624 -1.8695
 3728TIP3   OH232598   2.358   0.639   0.753 -0.8965  0.5203  0.5398
 3728TIP3    H132599   2.371   0.547   0.778 -0.8479  0.4192  0.1624
 3728TIP3    H232600   2.382   0.689   0.830  1.8278  0.3567 -0.1217
 3729TIP3   OH232601   0.247   2.205   2.183 -0.2600  0.0690 -0.2593
 3729TIP3    H132602   0.260   2.272   2.116 -0.1006  1.2691  0.9317
 3729TIP3    H232603   0.164   2.163   2.158 -1.4184  2.0434  0.0177
 3730TIP3   OH232604   1.401   6.470   2.457 -0.0708  0.6586 -0.2733
 3730TIP3    H132605   1.450   6.551   2.470 -1.3009  1.7669 -2.0530
 3730TIP3    H232606   1.330   6.475   2.522  1.9844 -0.9268  2.2710
 3731TIP3   OH232607   4.228   0.957  11.560 -0.0216 -0.5213 -0.2809
 3731TIP3    H132608   4.214   0.871  11.521 -1.0812 -0.3021 -0.4094
 3731TIP3    H232609   4.142   0.999  11.557  0.4462  0.4751 -0.0528
 3732TIP3   OH232610   2.784   5.557  17.077 -0.4048  0.3339  0.2188
 3732TIP3    H132611   2.831   5.638  17.063 -0.0180  0.3875  1.6956
 3732TIP3    H232612   2.705   5.565  17.023  0.7722  0.6578 -1.5050
 3733TIP3   OH232613   1.041   3.631  12.129 -0.1918  1.1381 -0.3983
 3733TIP3    H132614   0.949   3.608  12.143 -0.1669  0.3640 -1.4201
 3733TIP3    H232615   1.065   3.587  12.048  1.3335  0.5990  0.3019
 3734TIP3   OH232616   3.381   2.183   4.407 -0.0314 -0.6068 -0.4479
 3734TIP3    H132617   3.360   2.249   4.341  4.6254  1.0608 -0.5867
 3734TIP3    H232618   3.354   2.222   4.490 -2.1034 -0.9320 -0.9129
 3735TIP3   OH232619   2.691   2.141  13.254 -0.3229 -0.7644  0.0907
 3735TIP3    H132620   2.726   2.192  13.327 -1.3650 -0.4726  0.4109
 3735TIP3    H232621   2.673   2.055  13.291  0.2534 -0.9851 -0.1308
 3736TIP3   OH232622   1.901   0.477   3.451 -0.4134 -0.1971  0.2392
 3736TIP3    H132623   1.809   0.452   3.447 -0.7421 -0.0243  3.7189
 3736TIP3    H232624   1.901   0.571   3.432 -0.8919 -0.2477 -0.0327
 3737TIP3   OH232625   5.982   3.760   4.724 -0.1562  0.8337  0.3359
 3737TIP3    H132626   6.016   3.693   4.664 -0.0203  0.2832  1.0188
 3737TIP3    H232627   6.040   3.756   4.800  0.8833  2.8566 -0.2621
 3738TIP3   OH232628   3.213   1.137  16.613  0.3059  0.0442 -0.1396
 3738TIP3    H132629   3.127   1.110  16.582 -0.0401  2.1936 -1.2570
 3738TIP3    H232630   3.196   1.189  16.691  0.6905 -0.4071  0.2510
 3739TIP3   OH232631   3.925   6.097   1.727 -0.3872 -0.7197 -0.0428
 3739TIP3    H132632   3.845   6.076   1.678 -0.4733  0.3592 -0.3880
 3739TIP3    H232633   3.893   6.134   1.809 -0.2589  0.1489 -0.3721
 3740TIP3   OH232634   1.839   2.667   0.350  0.1601 -0.0423  0.1054
 3740TIP3    H132635   1.878   2.694   0.267 -1.1203 -0.1483 -0.5503
 3740TIP3    H232636   1.784   2.741   0.377 -1.6760 -1.0961 -0.6168
 3741TIP3   OH232637   1.234   6.454  15.852  0.0038 -0.4706  0.0908
 3741TIP3    H132638   1.200   6.384  15.797 -1.8823  0.4120  0.0827
 3741TIP3    H232639   1.325   6.466  15.822 -0.5820 -0.8540 -1.9794
 3742TIP3   OH232640   1.725   6.223   2.834  0.2335 -0.0616 -0.0899
 3742TIP3    H132641   1.717   6.136   2.796 -0.8413  0.4100 -1.0071
 3742TIP3    H232642   1.781   6.271   2.772  0.7149 -0.0559  0.3435
 3743TIP3   OH232643   4.819   3.092  16.323  0.4771 -0.4387  0.1479
 3743TIP3    H132644   4.891   3.142  16.363 -0.7999  1.1622  0.5516
 3743TIP3    H232645   4.858   3.008  16.301  1.7237 -0.8266  3.2541
 3744TIP3   OH232646   5.011   1.809   2.458 -0.5606 -0.5118  0.3722
 3744TIP3    H132647   4.980   1.826   2.369  0.9281 -0.8588 -0.2407
 3744TIP3    H232648   4.987   1.718   2.475  2.7386 -1.8680 -1.3350
 3745TIP3   OH232649   2.390   0.809  14.369  0.1438  0.1154  0.6712
 3745TIP3    H132650   2.464   0.750  14.355  0.2513  0.1261  1.1777
 3745TIP3    H232651   2.315   0.750  14.380 -0.2443  0.1182 -1.4464
 3746TIP3   OH232652   4.444   4.839  10.637 -0.2841  0.2989 -0.3900
 3746TIP3    H132653   4.447   4.928  10.603  0.5226  0.0972 -0.8871
 3746TIP3    H232654   4.404   4.847  10.724 -0.8252  1.0465 -0.7032
 3747TIP3   OH232655   1.958   6.567  11.762  0.5321  0.1446  0.2869
 3747TIP3    H132656   1.940   6.473  11.768  0.2836  0.1032 -0.8958
 3747TIP3    H232657   2.041   6.573  11.714  0.0047  0.5456 -0.6077
 3748TIP3   OH232658   3.095   5.355   4.286 -0.1567 -0.5638 -0.2726
 3748TIP3    H132659   3.030   5.347   4.355 -0.0635  0.0244 -0.1185
 3748TIP3    H232660   3.045   5.385   4.209 -0.0177  0.2135 -0.0655
 3749TIP3   OH232661   4.210   1.714  16.477 -0.0464  0.1956  0.1070
 3749TIP3    H132662   4.289   1.721  16.531  0.4815 -0.9119 -0.4957
 3749TIP3    H232663   4.142   1.684  16.538  0.0606  0.8464  0.5577
 3750TIP3   OH232664   2.232   4.358   5.307  1.0146  0.1881  0.0254
 3750TIP3    H132665   2.264   4.317   5.227 -0.6741 -2.9268  0.7793
 3750TIP3    H232666   2.147   4.396   5.283  0.6972 -0.3863  0.2223
 3751TIP3   OH232667   1.362   5.495  14.374  0.1888  0.4888  0.3697
 3751TIP3    H132668   1.305   5.480  14.299  0.1405 -1.3277  0.7226
 3751TIP3    H232669   1.431   5.552  14.342 -1.0922  1.6612 -0.4138
 3752TIP3   OH232670   6.045   5.434   1.051 -0.0161  0.4310  0.1824
 3752TIP3    H132671   6.034   5.368   1.119  0.3944 -1.0390 -1.1014
 3752TIP3    H232672   5.959   5.442   1.011 -0.0211  0.5193  0.2118
 3753TIP3   OH232673   0.945   0.217  13.259 -0.0486  0.0104  0.5910
 3753TIP3    H132674   0.996   0.297  13.268 -0.6987  0.5585 -0.4269
 3753TIP3    H232675   0.895   0.212  13.341  1.3817 -0.3816  1.4698
 3754TIP3   OH232676   5.421   6.221  14.594 -0.2073  0.3059 -0.1070
 3754TIP3    H132677   5.485   6.235  14.664  0.5883  0.2597 -0.8034
 3754TIP3    H232678   5.455   6.273  14.521 -1.0650  0.4086 -0.4381
 3755TIP3   OH232679   3.656   1.403   0.086  0.2087  0.6254  0.1499
 3755TIP3    H132680   3.616   1.447   0.161 -0.5342 -1.1403  0.8510
 3755TIP3    H232681   3.668   1.313   0.115 -1.4701 -0.4864 -2.2958
 3756TIP3   OH232682   5.110   2.005  14.174 -0.3723  0.1750 -0.1311
 3756TIP3    H132683   5.169   2.051  14.234 -0.5377 -0.1770  0.3041
 3756TIP3    H232684   5.120   1.913  14.195 -1.0930  0.1117 -0.0370
 3757TIP3   OH232685   1.459   2.972  11.763  0.0387 -0.4631  0.0266
 3757TIP3    H132686   1.464   3.025  11.843  0.5027  1.0448 -0.9491
 3757TIP3    H232687   1.469   3.036  11.692 -0.6205 -1.7299 -1.2460
 3758TIP3   OH232688   4.772   4.416  16.989  0.2736 -0.1160 -0.2274
 3758TIP3    H132689   4.804   4.326  17.000  0.4726  0.0506  0.6810
 3758TIP3    H232690   4.828   4.454  16.922 -0.3789 -0.9348 -1.2670
 3759TIP3   OH232691   4.897   6.414  15.897  0.4475 -0.3607  1.0017
 3759TIP3    H132692   4.862   6.497  15.930  0.5123 -0.5094  1.4491
 3759TIP3    H232693   4.826   6.351  15.910 -0.2956 -0.0185 -1.0250
 3760TIP3   OH232694   5.258   0.075   5.496 -0.0743  0.3673  0.2365
 3760TIP3    H132695   5.318   0.117   5.559  0.0700 -0.3008  0.5494
 3760TIP3    H232696   5.242   0.143   5.430  0.6145  0.7324  0.4285
 3761TIP3   OH232697   3.492   3.581   4.675 -0.1838  0.3709  0.3619
 3761TIP3    H132698   3.578   3.541   4.685 -0.1174  0.7521  1.5199
 3761TIP3    H232699   3.498   3.634   4.596  0.3793 -0.2483 -0.0186
 3762TIP3   OH232700   1.809   6.004  13.022  0.5568  0.1455  0.4212
 3762TIP3    H132701   1.715   5.995  13.005  0.7155 -1.6629  0.2077
 3762TIP3    H232702   1.814   6.049  13.106 -0.5584 -0.8745  1.0752
 3763TIP3   OH232703   1.770   2.426   4.450  0.0180 -0.1097 -0.2577
 3763TIP3    H132704   1.768   2.406   4.357  1.4066  0.8979 -0.5287
 3763TIP3    H232705   1.710   2.362   4.489 -1.8042  0.4409 -1.9827
 3764TIP3   OH232706   2.165   0.689  12.793  0.1480  0.4462  0.1726
 3764TIP3    H132707   2.216   0.623  12.748 -1.1594 -1.0774  0.8336
 3764TIP3    H232708   2.211   0.702  12.876 -0.2050 -0.5124  0.5312
 3765TIP3   OH232709   3.141   5.567  16.994  0.3616  0.3986  0.0323
 3765TIP3    H132710   3.214   5.627  17.008  0.4309  0.3631 -0.1810
 3765TIP3    H232711   3.079   5.617  16.941 -0.2371  0.7960  1.0670
 3766TIP3   OH232712   6.453   5.555  10.883  0.6205 -0.0292  0.0455
 3766TIP3    H132713   6.526   5.537  10.942  0.2129  0.5528  0.7502
 3766TIP3    H232714   6.399   5.476  10.887  1.5073 -0.7011 -0.9465
 3767TIP3   OH232715   0.527   4.240  12.475  0.3393 -0.7816  0.2434
 3767TIP3    H132716   0.445   4.235  12.523  0.3295 -1.0638  0.1978
 3767TIP3    H232717   0.525   4.166  12.414  0.3353 -0.4105 -0.2187
 3768TIP3   OH232718   6.292   3.945  15.642  0.1015 -0.3423  0.3360
 3768TIP3    H132719   6.230   3.886  15.686  0.2798  1.2173  2.8415
 3768TIP3    H232720   6.240   3.989  15.575 -1.0003 -0.4938  1.0732
 3769TIP3   OH232721   5.132   1.050   4.903 -0.5473 -0.2729 -0.2926
 3769TIP3    H132722   5.055   1.092   4.943 -0.8784 -0.6141 -0.5711
 3769TIP3    H232723   5.099   0.968   4.868 -0.4197  0.3377 -1.9099
 3770TIP3   OH232724   4.607   3.468  15.036  0.1186 -0.0053  0.9129
 3770TIP3    H132725   4.560   3.386  15.054 -0.0058  0.0247  0.7227
 3770TIP3    H232726   4.693   3.440  15.007  0.7660 -0.0558  2.7226
 3771TIP3   OH232727   3.242   6.247  11.504 -0.1783  0.2479 -0.0388
 3771TIP3    H132728   3.333   6.268  11.482 -0.0766  1.4124  1.4036
 3771TIP3    H232729   3.211   6.322  11.554 -1.1915 -1.1489  1.5244
 3772TIP3   OH232730   3.894   0.262   3.762  0.2707  0.4523 -0.0292
 3772TIP3    H132731   3.962   0.255   3.694 -0.5828  1.0452 -0.9707
 3772TIP3    H232732   3.899   0.353   3.791  0.9450  0.0858  1.0740
 3773TIP3   OH232733   5.469   5.648  15.406 -0.2948 -0.0250  0.0621
 3773TIP3    H132734   5.409   5.701  15.353 -0.2373  0.9952  0.9815
 3773TIP3    H232735   5.443   5.558  15.388  0.6793  0.1731 -2.8439
 3774TIP3   OH232736   2.449   3.720  16.314  0.3119 -0.0529 -0.8237
 3774TIP3    H132737   2.494   3.637  16.328 -0.0253  0.0827  1.4351
 3774TIP3    H232738   2.361   3.696  16.286 -0.6602 -0.6371  2.4102
 3775TIP3   OH232739   4.323   3.671  11.735 -0.4131  0.1046  0.3589
 3775TIP3    H132740   4.336   3.590  11.783  3.1272 -0.7146 -1.5919
 3775TIP3    H232741   4.329   3.740  11.802 -1.4257 -1.0989  1.7586
 3776TIP3   OH232742   1.093   6.005   4.158  0.1722  0.2669 -0.3016
 3776TIP3    H132743   1.000   5.987   4.174 -0.3771  2.3422 -0.8524
 3776TIP3    H232744   1.135   5.997   4.243 -0.6279 -0.0535  0.0668
 3777TIP3   OH232745   5.425   3.052  14.332 -0.8504 -0.1402 -0.9914
 3777TIP3    H132746   5.350   3.079  14.278 -1.0903  2.5971  0.5546
 3777TIP3    H232747   5.492   3.118  14.314 -0.3848 -0.0615  0.8813
 3778TIP3   OH232748   2.899   2.681  12.794 -0.0095 -0.6131 -0.4029
 3778TIP3    H132749   2.852   2.602  12.766 -1.8197  0.4932 -0.6675
 3778TIP3    H232750   2.930   2.720  12.712 -1.3276  0.2308 -0.5349
 3779TIP3   OH232751   4.367   6.589  11.720 -0.0218  0.6559  0.1617
 3779TIP3    H132752   4.285   6.624  11.683  1.1820  2.8802 -0.5810
 3779TIP3    H232753   4.400   6.660  11.775  1.6136 -0.0500  0.1294
 3780TIP3   OH232754   3.689   3.847  11.921 -0.2501 -0.0929  0.4574
 3780TIP3    H132755   3.759   3.911  11.930  0.9445 -1.2843  0.0464
 3780TIP3    H232756   3.733   3.767  11.893 -1.7570 -0.9517  0.4046
 3781TIP3   OH232757   0.830   4.943   1.396  0.0106 -0.1976 -0.4850
 3781TIP3    H132758   0.743   4.918   1.427  0.6380 -1.5807  0.3004
 3781TIP3    H232759   0.858   5.012   1.457 -0.2073 -0.3446 -0.2140
 3782TIP3   OH232760   0.748   4.746  13.999  0.0712 -0.0128  0.0715
 3782TIP3    H132761   0.706   4.783  13.922  1.6609  0.7018 -0.4874
 3782TIP3    H232762   0.790   4.820  14.042 -1.6903 -0.1750  2.3045
 3783TIP3   OH232763   4.894   4.737  13.301 -0.5754 -0.3811 -0.2657
 3783TIP3    H132764   4.831   4.784  13.355 -1.9484 -1.4788 -0.8718
 3783TIP3    H232765   4.930   4.803  13.242 -1.6525  0.1500 -0.3507
 3784TIP3   OH232766   3.017   4.377  16.417 -0.0096  0.2065  0.1335
 3784TIP3    H132767   3.093   4.371  16.476  1.5882  0.2030 -1.8116
 3784TIP3    H232768   3.041   4.446  16.355 -0.9758 -0.7488 -1.3686
 3785TIP3   OH232769   6.526   4.454   6.474  0.6199  0.1821 -0.3994
 3785TIP3    H132770   6.595   4.389   6.487 -0.4274 -0.9802 -0.4524
 3785TIP3    H232771   6.455   4.406   6.433 -0.1618  1.3967 -0.5353
 3786TIP3   OH232772   1.959   3.884  15.979  0.1340  0.3524  0.4597
 3786TIP3    H132773   1.959   3.813  16.043  1.6691  1.1883  1.4351
 3786TIP3    H232774   1.949   3.963  16.031 -0.9552  0.9265 -0.5644
 3787TIP3   OH232775   0.832   1.531   4.096  0.4192  0.5217 -0.2354
 3787TIP3    H132776   0.796   1.444   4.083 -0.6558  0.8242  0.5579
 3787TIP3    H232777   0.763   1.591   4.065  1.5538  1.1033 -1.7622
 3788TIP3   OH232778   0.809   1.657  13.877  0.5616 -0.3517 -0.1548
 3788TIP3    H132779   0.790   1.688  13.966 -1.2396 -0.8814 -0.3172
 3788TIP3    H232780   0.757   1.578  13.868  1.3237 -0.7374 -1.4397
 3789TIP3   OH232781   1.687   2.246  11.118  0.5090 -0.1435 -0.3814
 3789TIP3    H132782   1.728   2.322  11.076 -1.4982  0.9034 -0.5627
 3789TIP3    H232783   1.615   2.223  11.059  1.0947 -2.2318 -0.3292
 3790TIP3   OH232784   4.043   2.838  14.889  0.3202  0.6254  0.7354
 3790TIP3    H132785   3.959   2.883  14.883 -0.2506 -0.2630  1.8036
 3790TIP3    H232786   4.100   2.900  14.936  1.1796  2.4215 -2.3478
 3791TIP3   OH232787   1.336   0.930  16.075  0.3570  0.1227 -0.0090
 3791TIP3    H132788   1.345   1.025  16.067 -0.8057  0.2032 -0.5729
 3791TIP3    H232789   1.242   0.917  16.090  0.3893 -0.9815 -0.6912
 3792TIP3   OH232790   6.034   1.314   3.287  0.2198  0.1775 -0.5915
 3792TIP3    H132791   6.063   1.227   3.315 -0.8770 -0.4929 -1.4581
 3792TIP3    H232792   6.006   1.302   3.196  1.5641  1.7914 -1.2766
 3793TIP3   OH232793   1.984   3.433  14.499 -0.5918 -0.3001 -0.5532
 3793TIP3    H132794   2.066   3.473  14.471 -0.0373  0.4148  1.8355
 3793TIP3    H232795   1.916   3.497  14.476 -0.2979 -0.2150 -1.1787
 3794TIP3   OH232796   6.621   2.933  13.214  0.1475 -0.1033 -0.1943
 3794TIP3    H132797   6.655   3.022  13.210 -0.6552  0.1801 -2.0953
 3794TIP3    H232798   6.686   2.884  13.264 -0.0155  1.7690  2.0095
 3795TIP3   OH232799   0.289   3.316   5.194  0.1697  0.3885 -0.4663
 3795TIP3    H132800   0.217   3.257   5.213  2.1324 -2.2743 -0.7489
 3795TIP3    H232801   0.339   3.272   5.126  1.2011  2.9055 -1.4478
 3796TIP3   OH232802   0.620   3.978  12.570 -0.0121  0.5149 -0.5232
 3796TIP3    H132803   0.695   4.013  12.618 -0.4181  0.5666  0.0771
 3796TIP3    H232804   0.651   3.973  12.479  0.7566  0.4174 -0.2648
 3797TIP3   OH232805   5.653   5.055  15.370 -0.1307  0.0715 -0.4791
 3797TIP3    H132806   5.614   5.091  15.289  0.3825 -0.6359 -1.0553
 3797TIP3    H232807   5.742   5.090  15.371 -0.0694 -0.0904 -0.3227
 3798TIP3   OH232808   3.671   4.267  13.081 -0.0148  0.0585 -0.4842
 3798TIP3    H132809   3.704   4.283  13.169  0.0481  1.7596 -0.7853
 3798TIP3    H232810   3.602   4.332  13.069 -0.9462 -1.0228 -1.2149
 3799TIP3   OH232811   1.157   2.125  14.271 -0.0648  0.6362  0.0313
 3799TIP3    H132812   1.095   2.133  14.344 -1.0068  1.6437 -0.8511
 3799TIP3    H232813   1.128   2.190  14.207 -0.4215 -1.5098 -2.1171
 3800TIP3   OH232814   2.368   2.023  12.246  0.2148 -0.5855 -0.1872
 3800TIP3    H132815   2.346   2.116  12.243  0.0398 -0.6454 -0.9347
 3800TIP3    H232816   2.437   2.017  12.313 -1.3632 -0.2683  1.5403
 3801TIP3   OH232817   3.370   1.321   5.612  0.1843 -0.2866  0.1747
 3801TIP3    H132818   3.368   1.404   5.566  3.8420 -0.8660 -1.4053
 3801TIP3    H232819   3.343   1.256   5.547  2.5492 -0.7983 -0.4007
 3802TIP3   OH232820   5.295   2.860  12.483  0.0258  0.5077 -0.4109
 3802TIP3    H132821   5.312   2.816  12.400 -1.0533  0.4745 -0.6355
 3802TIP3    H232822   5.375   2.849  12.533  0.0239 -1.1638 -0.7109
 3803TIP3   OH232823   1.194   2.006  14.571 -0.2026 -0.2395  0.0401
 3803TIP3    H132824   1.220   2.066  14.640  1.0099 -0.9792  0.2565
 3803TIP3    H232825   1.120   2.048  14.529  1.3600  2.0074 -0.6251
 3804TIP3   OH232826   0.136   3.978  12.830 -0.7249  0.6073 -0.4165
 3804TIP3    H132827   0.162   3.908  12.889 -1.8759 -0.3003 -0.9465
 3804TIP3    H232828   0.204   3.980  12.763 -0.5414  0.1736 -0.2441
 3805TIP3   OH232829   2.281   0.786   4.496 -0.4736 -0.2698  0.2154
 3805TIP3    H132830   2.273   0.872   4.454 -0.2535 -0.6353 -0.6007
 3805TIP3    H232831   2.264   0.802   4.588  0.7934  0.8675  0.2807
 3806TIP3   OH232832   0.872   4.131  12.301  0.3301 -0.0913 -0.3206
 3806TIP3    H132833   0.883   4.037  12.314  2.4293  0.3095  1.4908
 3806TIP3    H232834   0.911   4.149  12.216  0.4697 -0.7799 -0.4035
 3807TIP3   OH232835   2.092   2.362   3.011  1.2967  0.0382  0.1072
 3807TIP3    H132836   2.107   2.346   3.104 -0.6026 -0.4238  0.3739
 3807TIP3    H232837   2.059   2.279   2.978 -1.3658  1.1205 -0.1858
 3808TIP3   OH232838   3.640   1.617   6.024  0.4865  0.1614 -0.2498
 3808TIP3    H132839   3.634   1.594   5.931  0.9113  1.7693 -0.7224
 3808TIP3    H232840   3.607   1.541   6.070 -0.7026 -0.3081 -1.7709
 3809TIP3   OH232841   2.304   4.164   5.729  0.2895  0.2512 -0.1127
 3809TIP3    H132842   2.383   4.114   5.709  1.6178  1.9812  0.4918
 3809TIP3    H232843   2.306   4.176   5.824 -0.1773  1.1332 -0.1983
 3810TIP3   OH232844   6.273   4.939   2.229  0.2940 -0.0461  0.2669
 3810TIP3    H132845   6.209   4.874   2.257  3.3378 -3.5408 -0.1412
 3810TIP3    H232846   6.349   4.923   2.285  0.4282  5.2628  2.1972
 3811TIP3   OH232847   3.494   1.142   6.032 -0.1011  0.1478  0.0776
 3811TIP3    H132848   3.435   1.084   6.081 -0.7919  0.3847 -0.4591
 3811TIP3    H232849   3.509   1.216   6.092 -0.4452  0.1400  0.1804
 3812TIP3   OH232850   3.938   1.405  16.492  0.4574 -0.1191 -0.4988
 3812TIP3    H132851   3.971   1.332  16.544 -0.1245 -0.9803 -1.2985
 3812TIP3    H232852   3.866   1.368  16.441 -1.1064  1.4409  0.4497
 3813TIP3   OH232853   0.593   3.141  14.995 -0.6634  0.7467 -0.2397
 3813TIP3    H132854   0.594   3.203  15.068 -0.6622  0.0812  0.3386
 3813TIP3    H232855   0.507   3.151  14.954 -0.7488  0.9650 -0.0032
 3814TIP3   OH232856   2.042   6.419   3.802  0.0459  0.2462  0.3901
 3814TIP3    H132857   2.081   6.365   3.733 -0.0196  1.7431 -0.8924
 3814TIP3    H232858   2.091   6.397   3.881  0.1281 -1.5263 -0.1130
 3815TIP3   OH232859   0.937   1.746   5.832 -0.0273  0.0176 -0.0150
 3815TIP3    H132860   0.856   1.795   5.838 -1.0104 -1.3535 -1.2820
 3815TIP3    H232861   0.963   1.730   5.923 -1.1900  0.4594  0.4067
 3816TIP3   OH232862   5.994   3.541   0.628 -0.7756  0.2305 -0.3602
 3816TIP3    H132863   5.917   3.491   0.656  0.2958 -0.5879  1.2826
 3816TIP3    H232864   5.960   3.630   0.615 -2.5964 -0.7116 -2.7784
 3817TIP3   OH232865   5.322   1.394  13.376  0.4649 -0.3853 -0.0763
 3817TIP3    H132866   5.391   1.382  13.310  1.4080 -0.0915  0.8242
 3817TIP3    H232867   5.354   1.345  13.452 -0.3017 -0.1818  0.3802
 3818TIP3   OH232868   1.968   4.173   0.707  0.1409  0.0824  0.3973
 3818TIP3    H132869   2.002   4.194   0.620 -0.2558  0.7724  0.4031
 3818TIP3    H232870   1.920   4.252   0.734 -2.8207 -1.3540 -0.2525
 3819TIP3   OH232871   5.091   4.405   0.094  0.2802  0.3443  0.4375
 3819TIP3    H132872   5.075   4.439   0.006  2.0887  0.1182 -0.0126
 3819TIP3    H232873   5.139   4.324   0.081 -0.7881 -0.5264  1.6204
 3820TIP3   OH232874   4.809   0.162   0.490 -0.0706 -0.0325  0.3945
 3820TIP3    H132875   4.850   0.249   0.494 -0.3762  0.1052  0.6597
 3820TIP3    H232876   4.723   0.175   0.531 -0.7568 -0.1051 -0.9856
 3821TIP3   OH232877   4.895   4.812   0.637  0.4475 -0.4635 -0.1298
 3821TIP3    H132878   4.885   4.870   0.713  1.1003 -0.8400  0.2552
 3821TIP3    H232879   4.897   4.872   0.562 -0.4465 -0.1028  0.1169
 3822TIP3   OH232880   0.499   2.118   1.295 -0.0735  0.2221 -0.1001
 3822TIP3    H132881   0.513   2.211   1.314  1.3931  0.1606 -0.7699
 3822TIP3    H232882   0.582   2.088   1.260 -1.1270 -0.8954 -1.7592
 3823TIP3   OH232883   0.793   1.021   5.451 -0.1437 -0.0095 -0.5782
 3823TIP3    H132884   0.747   0.973   5.383 -0.7163  1.0713 -0.9669
 3823TIP3    H232885   0.791   1.112   5.423 -0.7848  0.5395  1.0852
 3824TIP3   OH232886   4.564   3.909  15.289 -0.3386 -0.1233 -0.8547
 3824TIP3    H132887   4.594   3.869  15.371  3.2261  0.5175 -1.7047
 3824TIP3    H232888   4.522   3.837  15.242  0.4034 -1.3204  0.2282
 3825TIP3   OH232889   1.587   3.288  13.562 -0.3775  0.3025  0.1459
 3825TIP3    H132890   1.629   3.264  13.644 -1.6135  0.2599  0.7967
 3825TIP3    H232891   1.621   3.375  13.542  1.5685 -0.5289 -0.4691
 3826TIP3   OH232892   6.060   0.498   5.435 -0.4584  0.3160 -0.0033
 3826TIP3    H132893   6.124   0.569   5.442 -0.6988  0.4781  0.5682
 3826TIP3    H232894   6.081   0.456   5.351  0.9581 -0.1882  0.5659
 3827TIP3   OH232895   2.196   5.507   5.062  0.2912 -0.6615  0.4247
 3827TIP3    H132896   2.160   5.470   5.143 -1.4388 -0.9855 -0.4570
 3827TIP3    H232897   2.137   5.477   4.993  0.3568  1.5484 -0.6713
 3828TIP3   OH232898   4.587   3.267  12.368 -0.0604 -0.4117  0.0861
 3828TIP3    H132899   4.500   3.262  12.328  1.0251 -2.1483 -2.2533
 3828TIP3    H232900   4.633   3.334  12.317  0.2763 -0.1063  0.7710
 3829TIP3   OH232901   3.214   0.605  15.839 -0.0154  0.4944 -0.9922
 3829TIP3    H132902   3.264   0.640  15.765  0.6675 -1.2634 -1.4062
 3829TIP3    H232903   3.206   0.512  15.820  0.2078 -0.0075  1.1814
 3830TIP3   OH232904   1.296   0.466   1.463  0.4954 -0.3576 -0.4363
 3830TIP3    H132905   1.355   0.518   1.408  0.5414 -0.2603 -0.2945
 3830TIP3    H232906   1.330   0.377   1.455 -0.4836 -0.6383 -1.8883
 3831TIP3   OH232907   5.126   1.666   1.585  0.3160 -0.3645  0.0423
 3831TIP3    H132908   5.083   1.615   1.654  1.9801  0.1583  1.5420
 3831TIP3    H232909   5.159   1.601   1.524  2.2552 -1.1925  1.8399
 3832TIP3   OH232910   0.001   0.936   1.501  0.4454  0.0663  0.3892
 3832TIP3    H132911  -0.036   0.894   1.424  0.4101  2.4819 -1.0247
 3832TIP3    H232912  -0.071   0.940   1.564  0.0604 -0.6564  0.0042
 3833TIP3   OH232913   6.185   3.857  16.460 -0.0852  0.2216 -0.4291
 3833TIP3    H132914   6.098   3.826  16.434 -0.3450  0.7989 -0.2622
 3833TIP3    H232915   6.224   3.783  16.506 -0.2073 -0.2917 -1.1297
 3834TIP3   OH232916   4.540   0.114   4.447 -0.4884  0.7845  0.0180
 3834TIP3    H132917   4.576   0.046   4.505 -0.6993 -1.1167 -1.9407
 3834TIP3    H232918   4.453   0.132   4.483 -0.0664  0.7367  1.1162
 3835TIP3   OH232919   0.665   0.215  11.924 -0.6502 -0.8308 -0.0553
 3835TIP3    H132920   0.684   0.220  11.830  0.4482 -1.4073  0.1126
 3835TIP3    H232921   0.677   0.122  11.945 -2.0140 -0.9085  0.4433
 3836TIP3   OH232922   4.562   1.964   5.265  0.0330 -0.1851 -0.0998
 3836TIP3    H132923   4.625   2.032   5.288 -0.0389  0.2422 -1.0906
 3836TIP3    H232924   4.558   1.968   5.169 -0.9458 -0.7145 -0.0876
 3837TIP3   OH232925   4.565   1.248  15.458  0.1064  0.2701  0.2311
 3837TIP3    H132926   4.584   1.325  15.405 -0.7905 -0.1672 -0.7823
 3837TIP3    H232927   4.478   1.220  15.429  0.3169 -0.9936  0.7270
 3838TIP3   OH232928   4.019   6.152   1.471  0.3135 -0.6453  0.1186
 3838TIP3    H132929   3.990   6.151   1.562 -0.5636  1.5516 -0.0640
 3838TIP3    H232930   3.939   6.139   1.420  0.6100 -0.6765 -0.3507
 3839TIP3   OH232931   2.531   4.771  16.677 -0.5685 -0.1844 -0.2582
 3839TIP3    H132932   2.465   4.757  16.609  1.9105  2.1805 -3.5309
 3839TIP3    H232933   2.535   4.866  16.686  0.4410 -0.3856  1.9244
 3840TIP3   OH232934   5.233   4.992   0.814  0.2340  0.1673  0.1586
 3840TIP3    H132935   5.279   5.041   0.882 -1.3891 -0.1402  1.5578
 3840TIP3    H232936   5.277   4.907   0.812  0.0509  0.0354  1.1541
 3841TIP3   OH232937   5.077   4.254   1.689 -0.7114  0.1854  0.4900
 3841TIP3    H132938   5.033   4.299   1.762  0.3411  0.7594  0.8031
 3841TIP3    H232939   5.037   4.291   1.611 -2.0715 -0.6586  0.7584
 3842TIP3   OH232940   6.032   4.285  16.708 -0.1052  0.0753  0.9845
 3842TIP3    H132941   6.091   4.210  16.706 -2.4205 -1.8548  1.3601
 3842TIP3    H232942   6.087   4.357  16.741  2.3453 -1.2268  0.0291
 3843TIP3   OH232943   3.137   1.247  12.979 -0.0189 -0.4551 -0.4471
 3843TIP3    H132944   3.204   1.211  13.037 -0.8350 -0.9851  0.1821
 3843TIP3    H232945   3.152   1.203  12.896  0.9917  0.1152 -0.5970
 3844TIP3   OH232946   3.372   4.268  16.977 -0.5693 -0.5624 -0.0004
 3844TIP3    H132947   3.316   4.191  16.990  0.4369 -1.4100 -0.4420
 3844TIP3    H232948   3.458   4.230  16.958  0.4122  0.6785  1.7355
 3845TIP3   OH232949   5.394   1.653  10.682  0.0359  0.0320  0.1542
 3845TIP3    H132950   5.461   1.720  10.668 -0.0956  0.0066 -0.6667
 3845TIP3    H232951   5.314   1.690  10.643 -0.1572 -0.3888  0.1452
 3846TIP3   OH232952   1.382   1.513   2.585  0.2172 -0.5965  0.6021
 3846TIP3    H132953   1.335   1.472   2.657  0.3116  0.0292  1.0261
 3846TIP3    H232954   1.464   1.543   2.624  1.0051 -1.6890 -0.1241
 3847TIP3   OH232955   0.542   5.765  14.414  0.0037 -0.0619 -0.2030
 3847TIP3    H132956   0.463   5.814  14.437 -0.0059 -1.1488  2.4291
 3847TIP3    H232957   0.612   5.807  14.465  0.4233 -1.3026  0.2868
 3848TIP3   OH232958   5.969   0.787  15.118 -0.0100 -0.2110 -1.2174
 3848TIP3    H132959   6.052   0.763  15.076  1.5388 -0.2141  1.5785
 3848TIP3    H232960   5.920   0.705  15.121  0.6397 -0.6196 -1.3412
 3849TIP3   OH232961   3.269   0.321   3.379  0.6283 -0.0723  0.2642
 3849TIP3    H132962   3.193   0.367   3.415  0.3261 -1.1160  1.0131
 3849TIP3    H232963   3.323   0.300   3.456  0.5856 -1.2572 -0.0216
 3850TIP3   OH232964   2.361   4.582   0.678  0.8373  0.3885 -0.6350
 3850TIP3    H132965   2.301   4.590   0.604 -0.1518  1.8039  0.2841
 3850TIP3    H232966   2.396   4.493   0.670  0.1485  0.2308 -2.3298
 3851TIP3   OH232967   0.999   5.207   6.104 -0.1479 -0.5947  0.2489
 3851TIP3    H132968   1.047   5.249   6.033  0.5824  2.9006  2.5555
 3851TIP3    H232969   1.058   5.139   6.136  0.3106 -0.9253 -1.2067
 3852TIP3   OH232970   1.970   4.007   0.278  0.5143  0.3100 -0.1639
 3852TIP3    H132971   2.023   4.053   0.343 -0.2282 -0.6236  1.1719
 3852TIP3    H232972   1.882   4.043   0.289  0.6648  1.2189 -1.7367
 3853TIP3   OH232973   5.915   6.791   3.264  0.4664  0.3828  0.0033
 3853TIP3    H132974   5.962   6.734   3.203 -1.2542 -0.8388 -0.2713
 3853TIP3    H232975   5.880   6.731   3.330 -1.0487  1.1574 -0.0528
 3854TIP3   OH232976   5.175   4.529   5.493  0.3448  0.5983  0.1659
 3854TIP3    H132977   5.248   4.536   5.555  2.1279  1.7005 -1.9012
 3854TIP3    H232978   5.207   4.574   5.414 -1.8769 -0.5600 -1.4897
 3855TIP3   OH232979   0.883   5.169  15.817 -0.3454 -0.5958  0.3611
 3855TIP3    H132980   0.829   5.109  15.765  2.7271 -0.5856 -3.3204
 3855TIP3    H232981   0.888   5.248  15.763  4.4357 -1.1888 -0.4734
 3856TIP3   OH232982   1.081   4.787   1.390 -0.1445  0.0667  0.4540
 3856TIP3    H132983   1.004   4.843   1.378 -0.4863 -0.3919  0.5027
 3856TIP3    H232984   1.055   4.723   1.456 -0.2747 -1.0831 -0.6795
 3857TIP3   OH232985   0.101   3.679  12.392  0.1633  0.1929  0.1950
 3857TIP3    H132986   0.169   3.680  12.459 -0.1039 -1.8581  0.5872
 3857TIP3    H232987   0.019   3.687  12.440  0.0217  0.0142 -0.0134
 3858TIP3   OH232988   2.078   1.370  14.973  0.4747  0.1350 -0.0050
 3858TIP3    H132989   2.107   1.287  14.934  0.9591  0.5058 -0.4467
 3858TIP3    H232990   2.069   1.351  15.066 -0.9160 -0.8331 -0.2914
 3859TIP3   OH232991   2.579   0.055   3.485  0.1320  0.7652  0.2588
 3859TIP3    H132992   2.552   0.027   3.573 -0.2629 -0.6277 -0.2784
 3859TIP3    H232993   2.670   0.080   3.495 -0.0039  0.9404  1.1388
 3860TIP3   OH232994   2.716   0.403   4.995 -0.0311  0.2136 -0.2629
 3860TIP3    H132995   2.708   0.351   4.915 -0.3068 -0.2938  0.0867
 3860TIP3    H232996   2.804   0.384   5.027 -0.1353 -0.0614 -0.1291
 3861TIP3   OH232997   1.826   2.732  10.249  0.2204  0.5744 -0.0142
 3861TIP3    H132998   1.782   2.771  10.325  1.2647 -1.8693  1.9939
 3861TIP3    H232999   1.799   2.640  10.251  0.3388  0.3969 -2.6473
 3862TIP3   OH233000   4.511   5.896   1.387  0.7244  0.8362  0.1267
 3862TIP3    H133001   4.520   5.809   1.348 -0.0008  0.9821 -0.3820
 3862TIP3    H233002   4.561   5.954   1.329  1.3118  0.7473  0.5348
 3863TIP3   OH233003   4.962   1.722   5.853 -0.3809 -0.1435 -0.4635
 3863TIP3    H133004   4.997   1.658   5.915 -0.7981  1.5154  1.5852
 3863TIP3    H233005   5.037   1.778   5.832 -0.3065 -0.5358 -1.2862
 3864TIP3   OH233006   6.011   3.095   4.825  0.3871 -0.4570  0.5384
 3864TIP3    H133007   6.097   3.053   4.826  1.2087  1.1364  1.7488
 3864TIP3    H233008   5.979   3.086   4.914  0.6061  1.4597  0.8378
 3865TIP3   OH233009   2.434   1.120   0.942  0.1463 -0.1840 -0.1616
 3865TIP3    H133010   2.338   1.125   0.948  0.0407 -1.7016 -0.2183
 3865TIP3    H233011   2.460   1.070   1.019  0.5078 -3.0433 -1.9770
 3866TIP3   OH233012   5.309   4.970  16.026 -0.1794 -0.1639 -0.2607
 3866TIP3    H133013   5.390   4.920  16.011  0.3405  0.5867 -0.0343
 3866TIP3    H233014   5.329   5.025  16.101 -2.4586 -3.2354  2.8865
 3867TIP3   OH233015   1.342   5.683  12.668  0.3990  0.1453  0.2693
 3867TIP3    H133016   1.402   5.677  12.594  1.2175  2.9398  0.6058
 3867TIP3    H233017   1.356   5.771  12.704 -1.3477 -0.4174  2.5750
 3868TIP3   OH233018   2.558   3.199   5.230  0.3434  0.4931  0.1755
 3868TIP3    H133019   2.525   3.171   5.315 -1.5203 -0.8159 -0.8898
 3868TIP3    H233020   2.571   3.117   5.182  0.9622  1.2218 -0.9343
 3869TIP3   OH233021   4.263   0.520  16.966  0.1854  0.0815  0.0847
 3869TIP3    H133022   4.187   0.567  16.933 -0.3361 -1.7722 -1.5452
 3869TIP3    H233023   4.244   0.428  16.948  2.7468 -0.4670 -0.2459
 3870TIP3   OH233024   0.381   5.854   2.634 -0.4108 -0.7547 -0.8285
 3870TIP3    H133025   0.428   5.875   2.554 -0.1218 -0.3602 -0.5621
 3870TIP3    H233026   0.342   5.769   2.618  0.2457 -1.0026 -1.1254
 3871TIP3   OH233027   2.150   1.030   2.546 -0.1768 -0.0509  0.3473
 3871TIP3    H133028   2.223   1.088   2.564 -0.5803  0.7603 -0.5215
 3871TIP3    H233029   2.073   1.076   2.581 -0.3409 -0.6690  0.8196
 3872TIP3   OH233030   0.560   6.020  11.992 -0.3575  0.0236 -0.1093
 3872TIP3    H133031   0.546   6.101  11.943 -1.1906  0.1787  0.3618
 3872TIP3    H233032   0.573   5.953  11.925  1.1092  0.6624 -0.4939
 3873TIP3   OH233033   3.043   2.442  13.925 -0.1427  0.0803  0.0026
 3873TIP3    H133034   3.041   2.537  13.932  0.1661  0.1245 -0.4469
 3873TIP3    H233035   3.044   2.411  14.015 -1.1584  0.4816  0.1657
 3874TIP3   OH233036   4.694   5.738   0.422 -0.2788 -0.2775 -0.3619
 3874TIP3    H133037   4.610   5.769   0.456 -0.8504 -3.4671  1.5124
 3874TIP3    H233038   4.676   5.716   0.330 -1.5176 -0.8808  0.0104
 3875TIP3   OH233039   2.163   3.908   5.254  0.3894  0.0108  0.2583
 3875TIP3    H133040   2.120   3.823   5.246  2.0752 -0.8670  0.1001
 3875TIP3    H233041   2.098   3.964   5.297 -1.4971 -0.7681 -1.4102
 3876TIP3   OH233042   1.259   4.327  11.818 -0.5924 -0.3899  0.5393
 3876TIP3    H133043   1.283   4.256  11.760 -0.9556  0.1204 -0.2559
 3876TIP3    H233044   1.163   4.321  11.825 -0.9564  1.4934 -1.5792
 3877TIP3   OH233045   1.963   5.931  11.417  0.3674 -0.0885  0.8490
 3877TIP3    H133046   1.901   5.935  11.345 -0.4020  0.5677  1.5365
 3877TIP3    H233047   1.946   6.009  11.469  2.7553  0.9060  0.2689
 3878TIP3   OH233048   6.430   0.910  10.737 -0.2415  0.1384 -0.3846
 3878TIP3    H133049   6.523   0.929  10.748 -0.2934  0.2367 -0.1254
 3878TIP3    H233050   6.420   0.897  10.643  0.2020 -0.7232 -0.3295
 3879TIP3   OH233051   6.218   3.753   2.184 -0.0214 -0.3146 -0.6230
 3879TIP3    H133052   6.277   3.809   2.234 -1.7993  1.9998 -0.9406
 3879TIP3    H233053   6.182   3.693   2.249  0.3172  0.3478  0.1969
 3880TIP3   OH233054   3.242   1.851   5.191 -0.0340 -0.2515  0.1914
 3880TIP3    H133055   3.208   1.839   5.279 -1.3494 -1.9294 -0.4905
 3880TIP3    H233056   3.169   1.892   5.143 -0.2670 -1.6461 -0.6994
 3881TIP3   OH233057   2.042   3.110   5.176 -0.1764  0.3719  0.1109
 3881TIP3    H133058   1.954   3.128   5.211 -0.2459  0.1340  0.0601
 3881TIP3    H233059   2.027   3.047   5.106  0.0919 -0.0600  0.4418
 3882TIP3   OH233060   5.852   5.885  16.032 -0.0746 -0.3350 -0.0386
 3882TIP3    H133061   5.786   5.915  15.971 -1.3113 -0.7368  1.0569
 3882TIP3    H233062   5.883   5.802  15.994 -1.2422 -0.8764  0.1406
 3883TIP3   OH233063   0.771   6.155   3.119  0.2629  0.1766 -0.5223
 3883TIP3    H133064   0.759   6.248   3.138  0.3253  0.0601  0.0995
 3883TIP3    H233065   0.862   6.149   3.087  0.6970  0.1528  0.6592
 3884TIP3   OH233066   1.968   3.248   4.452 -0.2398 -0.1631  0.5036
 3884TIP3    H133067   1.894   3.190   4.469  0.1566 -0.2647  2.0481
 3884TIP3    H233068   2.041   3.208   4.500  1.3011 -1.0174 -2.3344
 3885TIP3   OH233069   3.377   4.385  11.370 -0.2056 -0.0270  0.0956
 3885TIP3    H133070   3.396   4.298  11.335 -2.4098 -0.4049 -0.3400
 3885TIP3    H233071   3.281   4.388  11.374 -0.1305  1.7489  1.7442
 3886TIP3   OH233072   1.679   0.291  16.245  0.1748  0.3979 -0.3962
 3886TIP3    H133073   1.699   0.213  16.194  1.2065 -0.2326  0.8999
 3886TIP3    H233074   1.653   0.356  16.180  2.0933 -0.1483 -1.8150
 3887TIP3   OH233075   4.853   0.086   6.065 -0.1954 -0.1714 -0.4888
 3887TIP3    H133076   4.827   0.039   6.144  1.3669  0.1013  0.2340
 3887TIP3    H233077   4.918   0.029   6.023 -1.2946 -0.4878 -1.7977
 3888TIP3   OH233078   6.080   2.259   5.647 -0.1824 -0.5152  0.2723
 3888TIP3    H133079   6.120   2.339   5.612 -2.9235  0.7205 -0.3165
 3888TIP3    H233080   6.088   2.267   5.742  0.2835  0.0496  0.1884
 3889TIP3   OH233081   1.828   0.689  11.455 -0.6576  0.3086 -0.0547
 3889TIP3    H133082   1.887   0.703  11.381 -0.7222 -0.6449 -0.2979
 3889TIP3    H233083   1.818   0.776  11.494  0.4127  0.5999 -0.3780
 3890TIP3   OH233084   6.305   4.140  14.559  0.0052  0.5016 -0.2810
 3890TIP3    H133085   6.289   4.214  14.501 -1.1828 -0.6239 -1.4381
 3890TIP3    H233086   6.218   4.112  14.586  0.2934 -1.6844 -1.4544
 3891TIP3   OH233087   1.251   2.582   4.877 -0.7301  0.3065  0.1103
 3891TIP3    H133088   1.288   2.582   4.965 -0.8729 -2.3059  0.2436
 3891TIP3    H233089   1.222   2.492   4.863 -0.3472  0.5435 -2.7628
 3892TIP3   OH233090   4.300   0.511  15.562  0.0268  0.3046 -0.0283
 3892TIP3    H133091   4.386   0.470  15.547  0.1043  1.0232 -1.7052
 3892TIP3    H233092   4.319   0.604  15.572 -0.4289  0.2942  1.1196
 3893TIP3   OH233093   5.996   3.923  14.642  0.5604 -0.5499 -0.6048
 3893TIP3    H133094   5.971   3.831  14.635 -2.4997  0.2103 -0.8887
 3893TIP3    H233095   5.991   3.956  14.553  0.8626  0.0815 -0.3921
 3894TIP3   OH233096   4.758   4.922  14.113  0.8987 -0.3554  0.5263
 3894TIP3    H133097   4.700   4.873  14.055  1.2240 -0.1628  0.0365
 3894TIP3    H233098   4.844   4.913  14.073  0.9379  0.7490  0.3542
 3895TIP3   OH233099   6.472   2.835  14.923 -0.0545  0.3183 -0.0245
 3895TIP3    H133100   6.459   2.928  14.945 -0.2394  0.3620 -0.3198
 3895TIP3    H233101   6.384   2.800  14.915  0.0068 -0.1267  1.0926
 3896TIP3   OH233102   5.882   4.322   4.430  0.1317 -0.3632  0.1968
 3896TIP3    H133103   5.835   4.238   4.431 -0.8005  0.1231  1.9264
 3896TIP3    H233104   5.906   4.337   4.522  1.8473  0.4395 -0.3433
 3897TIP3   OH233105   4.795   6.752  12.042  0.3239  0.1909  0.7746
 3897TIP3    H133106   4.842   6.674  12.072 -0.4902  0.3325  2.5605
 3897TIP3    H233107   4.713   6.751  12.091 -0.6540  1.0447 -0.7712
 3898TIP3   OH233108   6.513   3.423  12.321  0.0941  0.1298  0.3528
 3898TIP3    H133109   6.507   3.479  12.243  0.4621 -0.1514  0.1206
 3898TIP3    H233110   6.553   3.479  12.388 -1.1467  0.6864  0.6475
 3899TIP3   OH233111   1.404   2.485   4.290 -0.3136 -0.3562  0.4395
 3899TIP3    H133112   1.380   2.498   4.381 -0.8013 -0.6348  0.3522
 3899TIP3    H233113   1.360   2.557   4.243  1.6137  1.0531  0.6678
 3900TIP3   OH233114   5.215   1.042  11.072 -0.4070  0.0834 -0.3042
 3900TIP3    H133115   5.167   1.114  11.113 -1.1047  0.1356 -1.1811
 3900TIP3    H233116   5.234   1.073  10.983 -1.3587 -1.0646 -0.9494
 3901TIP3   OH233117   1.229   0.294   5.719 -0.0810 -0.0847  0.1267
 3901TIP3    H133118   1.230   0.225   5.653  0.1421  0.9809 -1.0138
 3901TIP3    H233119   1.145   0.282   5.764 -0.1979 -0.8767 -0.2788
 3902TIP3   OH233120   1.421   5.488  12.818 -0.3555 -1.2750 -0.3032
 3902TIP3    H133121   1.366   5.540  12.759 -0.8966  0.3857  1.5718
 3902TIP3    H233122   1.375   5.405  12.827 -1.1107 -0.9378 -0.9329
 3903TIP3   OH233123   1.933   3.769   0.856 -0.4977 -0.5527  0.7105
 3903TIP3    H133124   2.009   3.735   0.808 -0.6770 -1.2529  0.9019
 3903TIP3    H233125   1.858   3.744   0.803 -0.6275 -0.3163  0.7812
 3904TIP3   OH233126   4.731   6.674   6.162  0.6032  0.0806  0.6851
 3904TIP3    H133127   4.765   6.586   6.146  1.0687  0.5368 -1.1170
 3904TIP3    H233128   4.667   6.688   6.092  1.2409  1.5152  0.3585
 3905TIP3   OH233129   6.161   4.450   4.462  0.2806 -0.1244 -0.2077
 3905TIP3    H133130   6.140   4.512   4.532  2.0627  1.2285 -0.8017
 3905TIP3    H233131   6.076   4.430   4.422 -0.4856  0.9426  0.8054
 3906TIP3   OH233132   2.890   5.116  11.662 -0.1186 -0.3777  0.4544
 3906TIP3    H133133   2.985   5.113  11.675 -0.1512  1.6173  1.4914
 3906TIP3    H233134   2.878   5.097  11.569  1.3497 -0.0170  0.1750
 3907TIP3   OH233135   0.576   0.090   2.144  0.7358  0.3137 -0.1817
 3907TIP3    H133136   0.601   0.017   2.087 -1.7257  0.5789 -1.7401
 3907TIP3    H233137   0.600   0.061   2.232  0.3559 -2.1324 -0.8250
 3908TIP3   OH233138   1.742   5.003   4.488 -0.2612 -0.3128 -0.1754
 3908TIP3    H133139   1.776   4.946   4.419  1.3912 -2.1432  1.9832
 3908TIP3    H233140   1.818   5.053   4.517 -0.8377  0.1674  0.5247
 3909TIP3   OH233141   2.238   2.807   0.904  0.0166  0.6261  0.3388
 3909TIP3    H133142   2.242   2.712   0.913 -0.6770  0.5095 -0.4950
 3909TIP3    H233143   2.267   2.840   0.989  2.6600 -0.2731 -0.1366
 3910TIP3   OH233144   0.054   2.909   1.835  0.3490 -0.2789  0.2777
 3910TIP3    H133145  -0.036   2.878   1.851  0.2090 -0.7472 -1.2459
 3910TIP3    H233146   0.059   2.916   1.740  1.5124  1.0549  0.4264
 3911TIP3   OH233147   5.569   5.081  15.878 -0.5681  0.1661  0.2272
 3911TIP3    H133148   5.561   5.161  15.930  2.1957  0.4222  0.4271
 3911TIP3    H233149   5.554   5.010  15.940 -0.8006  0.5033  0.5610
 3912TIP3   OH233150   0.291   0.452   3.279  0.2035  0.0306 -0.2579
 3912TIP3    H133151   0.200   0.468   3.305  0.6811 -0.0607  1.5777
 3912TIP3    H233152   0.284   0.399   3.200 -1.3381  0.9298 -0.7759
 3913TIP3   OH233153   6.344   6.726   1.428 -0.5011 -0.4876  0.3319
 3913TIP3    H133154   6.301   6.641   1.425 -0.8680 -0.2897 -2.1996
 3913TIP3    H233155   6.418   6.717   1.367  0.0773  0.6833  0.8388
 3914TIP3   OH233156   6.467   3.984  15.344  0.6116 -0.0320  0.0627
 3914TIP3    H133157   6.527   3.961  15.273 -0.6437  0.3118 -1.1427
 3914TIP3    H233158   6.380   3.969  15.308 -0.1263  1.9566  0.8755
 3915TIP3   OH233159   5.824   0.778  14.021  0.0042 -0.5067  0.4093
 3915TIP3    H133160   5.874   0.795  13.940  2.0058  0.1007  1.6811
 3915TIP3    H233161   5.757   0.715  13.995  0.2466  0.0714 -1.8374
 3916TIP3   OH233162   3.276   6.536   6.518 -0.0366  0.0949  0.2459
 3916TIP3    H133163   3.271   6.593   6.441  1.7295  1.8631  1.3199
 3916TIP3    H233164   3.348   6.574   6.570 -1.8502 -0.3524  3.2908
 3917TIP3   OH233165   2.719   1.012   4.912 -0.6132  0.6522  0.8008
 3917TIP3    H133166   2.623   1.007   4.908 -0.6745  1.2985  1.3172
 3917TIP3    H233167   2.737   1.091   4.963  0.2399  2.0490 -1.5149
 3918TIP3   OH233168   0.207   2.390   5.592 -0.5328  0.7657  0.1725
 3918TIP3    H133169   0.114   2.374   5.608 -0.4431 -1.6711 -1.2374
 3918TIP3    H233170   0.209   2.476   5.550 -2.0569  1.1610  0.8234
 3919TIP3   OH233171   3.922   5.096  16.520 -0.0301 -0.1821  0.0371
 3919TIP3    H133172   3.854   5.037  16.487 -2.4785  2.1354  0.5472
 3919TIP3    H233173   3.953   5.053  16.600 -1.1182 -1.1919 -0.0432
 3920TIP3   OH233174   3.073   4.049  16.071 -0.1709 -0.1607 -0.1065
 3920TIP3    H133175   3.128   4.018  16.000 -0.9587 -0.1137 -0.7477
 3920TIP3    H233176   2.984   4.046  16.036 -0.3855  1.8220  0.1523
 3921TIP3   OH233177   6.183   6.682  11.208 -0.0103  0.2813 -0.2457
 3921TIP3    H133178   6.149   6.770  11.197  0.6200  0.3607 -1.7320
 3921TIP3    H233179   6.267   6.682  11.162  0.3237 -0.9090  0.3080
 3922TIP3   OH233180   2.252   5.577   2.310 -0.1342  0.1197  0.7297
 3922TIP3    H133181   2.338   5.616   2.328  0.8292 -1.4986 -0.1556
 3922TIP3    H233182   2.206   5.644   2.259  0.7818  0.8177  0.7768
 3923TIP3   OH233183   1.304   1.420  12.611 -0.1898  0.3767 -0.2495
 3923TIP3    H133184   1.252   1.490  12.572 -1.7280  0.1347  1.2481
 3923TIP3    H233185   1.257   1.397  12.691  2.5556  0.5460  1.5440
 3924TIP3   OH233186   3.928   2.100   3.633 -0.3883  0.5720 -0.1925
 3924TIP3    H133187   3.958   2.022   3.585 -1.8249 -0.8361  1.0946
 3924TIP3    H233188   3.890   2.156   3.566 -1.1204 -0.7372 -0.9183
 3925TIP3   OH233189   2.110   1.235  15.499 -0.4938 -0.0465  0.2929
 3925TIP3    H133190   2.025   1.246  15.543 -0.7615  1.8114 -0.5551
 3925TIP3    H233191   2.168   1.297  15.543  0.5903 -1.5956  1.1353
 3926TIP3   OH233192   2.920   0.912  11.825  0.2283 -0.0195  0.4355
 3926TIP3    H133193   3.003   0.941  11.861 -0.8478  1.9874  1.4130
 3926TIP3    H233194   2.894   0.839  11.881  0.9631 -0.1835  0.5742
 3927TIP3   OH233195   3.441   1.780  14.930 -0.4531  0.1659  0.1099
 3927TIP3    H133196   3.508   1.780  14.999 -0.7971 -1.3224  0.4912
 3927TIP3    H233197   3.485   1.739  14.855 -0.6576  0.0315  0.0644
 3928TIP3   OH233198   3.104   6.094   2.783 -0.4980  0.1845  0.1207
 3928TIP3    H133199   3.193   6.069   2.759 -0.1252 -2.1893  3.3772
 3928TIP3    H233200   3.048   6.036   2.730  0.0151 -0.5033  0.3234
 3929TIP3   OH233201   4.347   4.703   0.861 -0.0951 -0.0114 -0.6365
 3929TIP3    H133202   4.339   4.796   0.839  1.4401 -0.0056 -1.2725
 3929TIP3    H233203   4.410   4.700   0.932  0.0382 -0.5884 -0.7687
 3930TIP3   OH233204   1.926   4.261   5.728 -0.6807  0.4536 -0.2623
 3930TIP3    H133205   1.855   4.320   5.703  1.0002  2.1404 -1.2680
 3930TIP3    H233206   1.991   4.269   5.659  1.0147 -0.1606  1.1692
 3931TIP3   OH233207   3.419   2.626  15.472 -0.1354 -0.1900 -0.1386
 3931TIP3    H133208   3.478   2.555  15.445  0.6451  0.0603  0.8321
 3931TIP3    H233209   3.399   2.673  15.392  2.0605  0.5170 -0.3457
 3932TIP3   OH233210   5.572   2.890   4.193 -0.1887  0.3941  0.2369
 3932TIP3    H133211   5.531   2.819   4.243  2.2582  0.2291  2.1716
 3932TIP3    H233212   5.647   2.849   4.150 -0.3941  1.2622 -1.0114
 3933TIP3   OH233213   1.895   4.916   1.503 -0.0752  0.2575  0.0463
 3933TIP3    H133214   1.874   4.830   1.466 -1.8343  0.7617 -0.2242
 3933TIP3    H233215   1.926   4.898   1.592  1.6999 -0.7828 -0.7375
 3934TIP3   OH233216   4.555   6.065   4.029 -0.2383 -0.8470 -0.4369
 3934TIP3    H133217   4.477   6.012   4.015 -2.1661  1.1355  1.7643
 3934TIP3    H233218   4.535   6.149   3.988  1.3003 -0.6790 -0.9089
 3935TIP3   OH233219   2.185   4.162  12.415  0.1181 -0.3027  0.0243
 3935TIP3    H133220   2.197   4.134  12.324 -4.8751  0.5373 -1.1768
 3935TIP3    H233221   2.190   4.257  12.411 -1.6044 -0.1764  0.2363
 3936TIP3   OH233222   2.271   3.499  11.058 -0.1570 -0.5124 -0.4172
 3936TIP3    H133223   2.205   3.432  11.042 -1.1639  0.5248 -0.7346
 3936TIP3    H233224   2.302   3.524  10.971 -0.5339  0.1513 -0.3654
 3937TIP3   OH233225   6.320   0.211  10.951 -0.8478 -0.2931  0.2220
 3937TIP3    H133226   6.409   0.217  10.986 -0.4434 -0.7140 -0.6981
 3937TIP3    H233227   6.330   0.233  10.859 -1.8180  0.3409  0.2659
 3938TIP3   OH233228   4.071   4.972  16.231 -0.1509 -0.3244  0.0460
 3938TIP3    H133229   4.021   5.031  16.174  0.1248 -0.2024 -0.0714
 3938TIP3    H233230   4.020   4.891  16.232 -2.5481  1.0057  3.1212
 3939TIP3   OH233231   4.903   2.814   0.487  0.3155  0.5832  0.4799
 3939TIP3    H133232   4.922   2.882   0.551  2.3546 -0.4752  1.1002
 3939TIP3    H233233   4.809   2.821   0.470  0.4536  3.5082  0.5153
 3940TIP3   OH233234   6.714   1.633  13.038 -0.7383 -0.0663 -0.9281
 3940TIP3    H133235   6.772   1.709  13.048 -2.0836  1.1161 -1.7192
 3940TIP3    H233236   6.773   1.561  13.015  0.3036  1.5200 -3.7064
 3941TIP3   OH233237   0.853   1.870  14.970  0.1147 -0.1192  0.0627
 3941TIP3    H133238   0.866   1.816  15.048 -0.1478  0.0061  0.1969
 3941TIP3    H233239   0.762   1.900  14.977 -0.2275 -0.9119 -0.8009
 3942TIP3   OH233240   3.168   0.721  11.599  0.0527 -0.3639  0.3605
 3942TIP3    H133241   3.255   0.756  11.620  0.0077  0.5320 -0.8030
 3942TIP3    H233242   3.133   0.783  11.535 -0.1941 -2.3271 -1.5115
 3943TIP3   OH233243   0.294   6.643   1.071  0.3977 -0.3285 -0.3933
 3943TIP3    H133244   0.244   6.561   1.072 -1.8739  0.9649  1.6644
 3943TIP3    H233245   0.354   6.635   1.145  1.1963 -0.6698 -1.0606
 3944TIP3   OH233246   6.734   2.276   4.960  0.1773  0.0744  0.2673
 3944TIP3    H133247   6.732   2.200   4.902  0.2261  0.4513 -0.2355
 3944TIP3    H233248   6.806   2.329   4.927  0.3536  0.1772  0.8206
 3945TIP3   OH233249   2.368   2.437  15.029  0.7389 -0.0382  0.7401
 3945TIP3    H133250   2.443   2.487  15.061  1.3040  0.4038 -1.1442
 3945TIP3    H233251   2.298   2.501  15.021 -0.1755 -0.6072  3.3132
 3946TIP3   OH233252   2.387   1.470  16.041  0.7437  0.4103 -0.1032
 3946TIP3    H133253   2.378   1.376  16.024 -3.0292  0.6164 -0.3037
 3946TIP3    H233254   2.481   1.487  16.036  1.4200 -2.9315 -2.2651
 3947TIP3   OH233255   5.471   2.232   1.427 -0.5507 -0.3341 -0.1310
 3947TIP3    H133256   5.387   2.190   1.412 -0.1659 -0.8606 -0.8638
 3947TIP3    H233257   5.465   2.267   1.516 -2.2226  1.2580 -0.7950
 3948TIP3   OH233258   4.828   5.592  11.296  0.0262 -0.6459  0.7668
 3948TIP3    H133259   4.859   5.666  11.348  0.7396 -1.1929  1.1345
 3948TIP3    H233260   4.884   5.519  11.322  1.3027 -0.6516 -1.6869
 3949TIP3   OH233261   3.791   2.725   4.695  0.1240  0.1025  0.6706
 3949TIP3    H133262   3.785   2.703   4.602  0.2542  1.2484  0.3834
 3949TIP3    H233263   3.884   2.722   4.715  0.2239  1.2017  0.4176
 3950TIP3   OH233264   0.834   2.453   5.619  0.1339  0.3354  0.7603
 3950TIP3    H133265   0.817   2.511   5.545 -0.3960  1.6249  1.8430
 3950TIP3    H233266   0.799   2.500   5.694  0.9275 -0.8000  1.8823
 3951TIP3   OH233267   5.360   1.731   1.743  0.0012 -0.3738  0.4969
 3951TIP3    H133268   5.272   1.743   1.709  0.0528 -0.1014  0.4625
 3951TIP3    H233269   5.351   1.662   1.809 -0.2325 -0.3630  0.4748
 3952TIP3   OH233270   5.932   1.561   0.549  0.2844  0.3922  0.4230
 3952TIP3    H133271   6.014   1.513   0.557  1.0999  1.9121  1.8694
 3952TIP3    H233272   5.954   1.637   0.495 -1.4924 -1.7040 -3.7927
 3953TIP3   OH233273   5.184   2.028   4.383  0.1796 -0.4446 -0.1368
 3953TIP3    H133274   5.152   1.960   4.324 -0.4425 -1.5907  1.4454
 3953TIP3    H233275   5.258   1.988   4.428  0.7427  0.4626 -0.2152
 3954TIP3   OH233276   6.497   3.917   1.207 -0.2725  0.2840 -0.5351
 3954TIP3    H133277   6.588   3.947   1.213 -0.0587 -0.2878 -0.8959
 3954TIP3    H233278   6.502   3.822   1.214 -1.2158  0.3754  3.8236
 3955TIP3   OH233279   3.844   1.545  11.111  0.3074  0.0786 -0.1505
 3955TIP3    H133280   3.805   1.540  11.199 -2.8274 -0.7038 -1.4463
 3955TIP3    H233281   3.848   1.639  11.093  0.9558  0.2513  0.7841
 3956TIP3   OH233282   0.580   2.136   3.992 -0.4806  0.2226 -0.1370
 3956TIP3    H133283   0.598   2.052   3.949  1.6101  0.6542 -0.1892
 3956TIP3    H233284   0.538   2.112   4.074 -0.8547 -0.8166 -0.6142
 3957TIP3   OH233285   4.958   4.819  12.689  0.3490  1.0172  0.3599
 3957TIP3    H133286   4.940   4.895  12.743 -1.9126  0.1166  0.9805
 3957TIP3    H233287   4.875   4.799  12.647  0.8440 -1.1506  0.2803
 3958TIP3   OH233288   0.134   5.062  11.348  0.3149 -0.1765  0.2834
 3958TIP3    H133289   0.194   5.016  11.288 -0.1654  0.1163 -0.4404
 3958TIP3    H233290   0.190   5.093  11.419  0.4828 -2.9682  1.5071
 3959TIP3   OH233291   0.133   3.939  14.049  0.5889 -0.2836 -0.1425
 3959TIP3    H133292   0.129   3.947  13.954  1.0261  0.1166 -0.1297
 3959TIP3    H233293   0.090   3.856  14.068 -2.4265  1.0360 -0.4610
 3960TIP3   OH233294   2.004   3.400   6.552 -0.0693 -0.2736  0.1367
 3960TIP3    H133295   2.004   3.495   6.564 -2.1120 -0.3729  1.3744
 3960TIP3    H233296   1.933   3.384   6.490 -0.6187 -1.0572  0.9475
 3961TIP3   OH233297   3.744   6.787  12.379  0.0444  0.5641  0.1691
 3961TIP3    H133298   3.711   6.765  12.292 -1.0718 -0.5769  0.8267
 3961TIP3    H233299   3.763   6.880  12.376  0.0784  0.5252 -1.3016
 3962TIP3   OH233300   2.033   1.318  16.651 -0.4045  0.0582 -0.7382
 3962TIP3    H133301   2.023   1.259  16.726 -2.2423  2.8924  1.4476
 3962TIP3    H233302   2.114   1.288  16.609 -0.1151 -2.6755  1.4054
 3963TIP3   OH233303   2.932   5.162  16.900 -0.0668 -0.4008  0.1265
 3963TIP3    H133304   2.877   5.109  16.957  0.2548 -2.7154 -1.5435
 3963TIP3    H233305   3.007   5.187  16.955 -0.1015 -1.9481  0.9405
 3964TIP3   OH233306   0.193   1.492  12.621  0.4484  0.4604  0.0382
 3964TIP3    H133307   0.218   1.518  12.709 -0.3532 -0.5057  0.5760
 3964TIP3    H233308   0.132   1.559  12.592 -0.2407  0.1474  0.7200
 3965TIP3   OH233309   2.461   5.907   1.021  0.2447  0.1351 -0.1582
 3965TIP3    H133310   2.419   5.977   1.072  1.0658  0.8685 -0.4659
 3965TIP3    H233311   2.554   5.929   1.022  0.2930  0.1592 -1.9482
 3966TIP3   OH233312   0.546   3.788   2.446  0.3829  0.0424 -0.3487
 3966TIP3    H133313   0.470   3.750   2.490 -0.4135  1.7929 -0.1158
 3966TIP3    H233314   0.509   3.844   2.377  1.3969  1.2679  0.0530
 3967TIP3   OH233315   1.831   6.463   4.906 -0.4889 -0.3435 -0.4493
 3967TIP3    H133316   1.866   6.546   4.939 -2.2375 -0.4211  1.8827
 3967TIP3    H233317   1.745   6.485   4.872 -1.1134 -1.1964  0.5059
 3968TIP3   OH233318   6.186   2.440   2.994  0.3887  0.3823 -0.2183
 3968TIP3    H133319   6.232   2.519   2.967 -0.8047  1.1308 -0.1007
 3968TIP3    H233320   6.099   2.469   3.019 -0.0471 -0.9567 -0.0688
 3969TIP3   OH233321   0.285   2.377  12.775  0.8236  0.5051 -0.0776
 3969TIP3    H133322   0.361   2.423  12.811  1.0100  1.5635 -1.7004
 3969TIP3    H233323   0.310   2.357  12.684 -0.8969  1.0468 -0.7035
 3970TIP3   OH233324   0.260   0.136  11.998  0.0783  0.2959 -0.6461
 3970TIP3    H133325   0.274   0.074  11.927  0.2776  0.8667 -1.1163
 3970TIP3    H233326   0.191   0.194  11.967 -0.8222 -0.2905  0.1997
 3971TIP3   OH233327   6.300   1.842   0.022 -0.2827 -0.5406  0.0349
 3971TIP3    H133328   6.385   1.886   0.020 -0.1535 -0.8117 -0.5272
 3971TIP3    H233329   6.240   1.909   0.056 -0.0625  0.0436 -0.6870
 3972TIP3   OH233330   1.688   2.205   4.127  0.3793 -0.9199 -0.2158
 3972TIP3    H133331   1.781   2.213   4.146  0.1620  1.6621  0.0827
 3972TIP3    H233332   1.652   2.162   4.205  0.8781  1.1842  1.2801
 3973TIP3   OH233333   3.034   1.184  13.809  0.1830  0.5565  0.0086
 3973TIP3    H133334   3.090   1.122  13.855  1.2801 -0.0269 -2.0061
 3973TIP3    H233335   2.945   1.154  13.826  0.6888 -1.6859 -1.0451
 3974TIP3   OH233336   0.426   3.082  12.707  0.1866  0.2668  0.0194
 3974TIP3    H133337   0.380   3.059  12.788 -1.0411  0.3741 -0.6224
 3974TIP3    H233338   0.510   3.038  12.715 -0.7808 -1.6532  0.3633
 3975TIP3   OH233339   3.837   2.177   1.228  0.0988  0.0315  0.2636
 3975TIP3    H133340   3.744   2.193   1.244 -0.1240 -0.4414 -0.4850
 3975TIP3    H233341   3.863   2.116   1.297 -0.3316 -0.4020  0.0503
 3976TIP3   OH233342   0.545   6.320   3.875  0.1512 -0.7669  0.0393
 3976TIP3    H133343   0.571   6.341   3.785 -2.3522  2.1557 -0.1341
 3976TIP3    H233344   0.475   6.256   3.866  0.5919 -1.2544  0.0055
 3977TIP3   OH233345   0.660   4.522   1.075  0.0233  0.2361  0.2572
 3977TIP3    H133346   0.736   4.571   1.107  0.4868  0.0775 -0.5675
 3977TIP3    H233347   0.631   4.470   1.150 -0.1155  1.3180  0.9758
 3978TIP3   OH233348   1.252   1.685  14.782 -0.1861 -0.1119  0.0321
 3978TIP3    H133349   1.242   1.590  14.778  0.8130 -0.2564  0.5958
 3978TIP3    H233350   1.237   1.707  14.874  0.4244  0.1642  0.0709
 3979TIP3   OH233351   4.918   2.063   1.716 -0.3672 -0.2374 -0.1083
 3979TIP3    H133352   4.827   2.039   1.697  0.0235 -0.4082 -1.9683
 3979TIP3    H233353   4.911   2.151   1.753 -1.3728 -0.8507  1.2715
 3980TIP3   OH233354   5.995   3.084  11.038 -0.5530 -0.4517  0.9353
 3980TIP3    H133355   6.015   3.170  11.002 -1.5940 -1.2897 -1.8670
 3980TIP3    H233356   5.904   3.090  11.067 -0.1541 -0.2096  2.2273
 3981TIP3   OH233357   3.582   3.950  16.250  0.0740  0.5316 -0.4355
 3981TIP3    H133358   3.538   3.895  16.184 -1.2574  2.3829 -1.1653
 3981TIP3    H233359   3.603   4.031  16.204  1.7648  0.7759  0.6842
 3982TIP3   OH233360   6.189   2.640   2.076  0.0947 -0.2275 -0.1561
 3982TIP3    H133361   6.162   2.612   1.989 -0.3519  0.8393 -0.3772
 3982TIP3    H233362   6.274   2.682   2.063  0.5736 -1.0866  0.1119
 3983TIP3   OH233363   3.890   3.820   1.295  0.3149 -0.1540 -0.1360
 3983TIP3    H133364   3.871   3.744   1.239  0.2987 -1.0387  1.0372
 3983TIP3    H233365   3.850   3.893   1.249  1.2175 -0.6575 -1.8309
 3984TIP3   OH233366   4.160   5.400  12.038 -0.9468 -0.1846  0.0138
 3984TIP3    H133367   4.097   5.455  12.085 -1.4571 -0.5611 -0.2180
 3984TIP3    H233368   4.107   5.332  11.998 -0.3871 -0.5017 -0.2004
 3985TIP3   OH233369   0.801   3.032  14.593  0.0964 -0.0149  0.3403
 3985TIP3    H133370   0.737   2.986  14.647 -1.1031  0.8654 -0.2796
 3985TIP3    H233371   0.855   3.082  14.655 -0.4210 -0.0342  0.8070
 3986TIP3   OH233372   0.738   5.343   2.944 -0.3759  0.3635 -0.2700
 3986TIP3    H133373   0.821   5.306   2.914 -1.1391 -1.5690 -0.1639
 3986TIP3    H233374   0.764   5.416   3.000  1.2279  0.2372 -0.7815
 3987TIP3   OH233375   3.251   3.181  14.825  0.6080  0.1162  0.4037
 3987TIP3    H133376   3.337   3.186  14.868  0.7207  1.5399  0.0626
 3987TIP3    H233377   3.206   3.260  14.854 -0.3839 -0.3404  0.1207
 3988TIP3   OH233378   4.419   4.126  12.140  0.3200  0.4116 -0.5411
 3988TIP3    H133379   4.341   4.177  12.119 -0.3246 -0.4793 -0.3534
 3988TIP3    H233380   4.460   4.109  12.055 -1.4133 -1.8069 -1.0185
 3989TIP3   OH233381   6.758   6.551   5.305 -0.0729  0.1966  0.3161
 3989TIP3    H133382   6.754   6.468   5.352 -0.2638 -1.0388 -1.7978
 3989TIP3    H233383   6.794   6.613   5.369  1.9521 -1.9256  1.3669
 3990TIP3   OH233384   1.106   4.353   4.829  0.2124  0.3602  0.1214
 3990TIP3    H133385   1.090   4.447   4.819  0.9823  0.5824  0.8783
 3990TIP3    H233386   1.082   4.335   4.920 -0.9713 -0.4118 -0.3122
 3991TIP3   OH233387   6.149   4.610   0.559 -0.5600  0.2240 -0.2552
 3991TIP3    H133388   6.069   4.662   0.551 -0.2616  0.8299  0.5804
 3991TIP3    H233389   6.202   4.635   0.483  0.4964  2.8124  1.2038
 3992TIP3   OH233390   6.461   4.726   2.610  0.2381  0.2783 -0.0883
 3992TIP3    H133391   6.504   4.789   2.668 -0.1034  1.4796 -1.1011
 3992TIP3    H233392   6.499   4.641   2.635  0.9082  0.9029  1.1153
 3993TIP3   OH233393   4.101   4.580  12.865 -0.1707 -0.6701 -0.2082
 3993TIP3    H133394   4.104   4.638  12.941  0.2628 -1.4607  0.3916
 3993TIP3    H233395   4.179   4.604  12.814 -0.9179  0.4581 -0.8816
 3994TIP3   OH233396   5.921   4.119  15.054 -0.1366 -0.1044 -0.5122
 3994TIP3    H133397   5.847   4.062  15.031 -1.5438  1.1229  0.7893
 3994TIP3    H233398   5.915   4.129  15.149  0.5870  1.4905 -0.6051
 3995TIP3   OH233399   2.374   4.909  11.929  0.7188  0.3566 -0.2285
 3995TIP3    H133400   2.342   4.836  11.982  0.2126 -0.3917 -1.5264
 3995TIP3    H233401   2.463   4.885  11.906  1.0804  0.8705  0.5946
 3996TIP3   OH233402   1.418   4.510   2.623  0.2622  0.0069 -0.0976
 3996TIP3    H133403   1.387   4.568   2.692 -0.4977  0.0418 -0.4656
 3996TIP3    H233404   1.514   4.515   2.629  0.2026  0.4797  0.5506
 3997TIP3   OH233405   0.737   2.680   1.755 -0.1585  0.0764  0.3893
 3997TIP3    H133406   0.643   2.673   1.775 -0.4207 -0.0559 -0.8064
 3997TIP3    H233407   0.740   2.689   1.660  1.1994 -3.0052  0.0370
 3998TIP3   OH233408   6.107   2.735   3.582 -0.4957 -0.2283  0.1358
 3998TIP3    H133409   6.061   2.678   3.644 -0.4207  0.0568  0.4549
 3998TIP3    H233410   6.198   2.732   3.610 -0.7053  1.1728  1.0378
 3999TIP3   OH233411   3.636   6.549   5.445  0.3284 -0.2686  0.7653
 3999TIP3    H133412   3.707   6.501   5.402 -0.8790 -0.8176 -0.7033
 3999TIP3    H233413   3.592   6.483   5.499  0.1224 -0.2353  0.6354
 4000TIP3   OH233414   5.826   2.160  14.199  0.4076 -0.2670 -0.0730
 4000TIP3    H133415   5.859   2.199  14.117  1.0510  2.1915  1.2347
 4000TIP3    H233416   5.895   2.100  14.226  0.7837 -0.1294 -0.6980
 4001TIP3   OH233417   4.912   5.830  15.642 -0.6378  0.3015 -0.1289
 4001TIP3    H133418   4.827   5.859  15.674 -0.2599  2.2997 -0.7900
 4001TIP3    H233419   4.974   5.859  15.709 -0.2496  1.0331 -0.7903
 4002TIP3   OH233420   6.463   4.032   3.432 -0.1387  0.3299  0.0128
 4002TIP3    H133421   6.406   3.992   3.367 -3.0673  1.7652  1.4796
 4002TIP3    H233422   6.456   4.126   3.416 -0.2852  0.6691  1.7897
 4003TIP3   OH233423   3.994   4.277   5.668 -0.2233  0.3408 -0.3079
 4003TIP3    H133424   3.952   4.196   5.696 -0.6444  1.3502  2.2057
 4003TIP3    H233425   4.013   4.324   5.749  0.4192  2.5728 -1.6585
 4004TIP3   OH233426   6.115   0.027  12.288  0.9875 -0.5104 -0.0532
 4004TIP3    H133427   6.172   0.074  12.227  0.8705  0.4922  0.5716
 4004TIP3    H233428   6.172   0.000  12.359  0.9722 -0.9394 -0.2029
 4005TIP3   OH233429   5.121   6.003   6.006  0.2611  0.4580 -0.4677
 4005TIP3    H133430   5.067   6.050   6.070  1.7027  0.7482  0.5769
 4005TIP3    H233431   5.071   5.923   5.986  0.1339 -0.0484  1.6595
 4006TIP3   OH233432   3.644   3.188  15.820 -0.0068  0.6909  0.8507
 4006TIP3    H133433   3.586   3.148  15.755  0.8437 -0.9251  1.0123
 4006TIP3    H233434   3.724   3.135  15.815  1.6667  3.0924  0.3219
 4007TIP3   OH233435   2.181   0.769   5.502  0.0608  0.1454  0.2019
 4007TIP3    H133436   2.259   0.806   5.460 -0.9895  0.3239 -1.6831
 4007TIP3    H233437   2.209   0.683   5.533  0.9464  0.0986 -0.6806
 4008TIP3   OH233438   1.128   5.301   3.801  0.4031  0.3208 -0.3026
 4008TIP3    H133439   1.111   5.242   3.728 -0.1194  0.5322 -0.3514
 4008TIP3    H233440   1.088   5.259   3.877 -0.4056  0.8471 -0.4300
 4009TIP3   OH233441   2.323   5.456  13.315  0.3561 -0.1486 -0.0357
 4009TIP3    H133442   2.330   5.541  13.358 -0.1337 -0.3309  0.4166
 4009TIP3    H233443   2.280   5.474  13.231  0.4110  0.0738 -0.0139
 4010TIP3   OH233444   4.359   4.458   1.296  0.4276  0.5220  0.1092
 4010TIP3    H133445   4.369   4.391   1.228 -0.4590 -0.2827  0.7568
 4010TIP3    H233446   4.280   4.506   1.270  1.4201  1.7834 -0.7150
 4011TIP3   OH233447   5.493   4.763  15.576  0.0467  0.0523  0.6773
 4011TIP3    H133448   5.580   4.793  15.548 -0.0027 -1.0195 -0.7331
 4011TIP3    H233449   5.454   4.839  15.618  0.0823  1.8851 -2.3216
 4012TIP3   OH233450   6.685   3.797  11.378  0.0414 -0.5171 -0.6426
 4012TIP3    H133451   6.609   3.748  11.346 -0.7301  0.1763  0.0846
 4012TIP3    H233452   6.660   3.824  11.466  1.5675 -1.1904  0.0260
 4013TIP3   OH233453   0.053   3.033  15.473  0.1739  0.3998  0.3929
 4013TIP3    H133454   0.064   3.056  15.380 -0.8136 -0.2378  0.0951
 4013TIP3    H233455  -0.018   3.090  15.503  1.1084  1.2636  1.0295
 4014TIP3   OH233456   2.893   5.721   1.062 -0.5482  0.2785 -0.3413
 4014TIP3    H133457   2.939   5.705   0.979 -1.7135  0.7535 -1.1017
 4014TIP3    H233458   2.955   5.693   1.129 -0.0117 -1.1911 -1.3970
 4015TIP3   OH233459   5.740   3.476  15.913  0.6475  0.3714 -0.2997
 4015TIP3    H133460   5.711   3.558  15.952  0.0921  0.2432 -0.4292
 4015TIP3    H233461   5.832   3.468  15.938  0.8035  1.2068 -0.5784
 4016TIP3   OH233462   0.275   5.391   4.445  0.0734  0.0680  0.3463
 4016TIP3    H133463   0.204   5.442   4.485  0.8459  1.0928  0.4672
 4016TIP3    H233464   0.243   5.301   4.444 -0.5828  0.2550  1.8768
 4017TIP3   OH233465   1.242   3.502   0.341 -0.4419 -0.1434 -0.4482
 4017TIP3    H133466   1.278   3.533   0.258  1.0300 -0.7725 -0.0810
 4017TIP3    H233467   1.225   3.582   0.391  1.5650  0.2074 -0.2201
 4018TIP3   OH233468   5.533   0.592  14.811 -0.3005  0.1864 -0.0172
 4018TIP3    H133469   5.491   0.522  14.763 -0.7672  0.6798 -0.3392
 4018TIP3    H233470   5.461   0.641  14.851 -0.0773  1.2551 -0.8703
 4019TIP3   OH233471   3.024   5.040  15.780  0.3187 -0.1464 -0.5601
 4019TIP3    H133472   3.100   5.096  15.793  0.0085  0.1620 -0.0446
 4019TIP3    H233473   2.990   5.025  15.869  0.1261 -0.7655 -0.7334
 4020TIP3   OH233474   0.809   1.564   5.298 -0.2322 -0.8049  0.3561
 4020TIP3    H133475   0.757   1.607   5.366  0.5043 -1.7275  1.5500
 4020TIP3    H233476   0.768   1.478   5.288 -1.0315 -0.2871 -1.2261
 4021TIP3   OH233477   1.259   0.748  15.885  0.3450 -0.4685 -0.1852
 4021TIP3    H133478   1.309   0.755  15.804 -0.7130 -0.7670 -0.8942
 4021TIP3    H233479   1.296   0.814  15.943  0.7332  0.1528 -1.1286
 4022TIP3   OH233480   4.221   1.303   0.920 -0.0568  0.0143 -0.2051
 4022TIP3    H133481   4.276   1.290   0.997  1.3460  0.0973 -1.1451
 4022TIP3    H233482   4.233   1.395   0.896 -1.5929  0.3666  0.2666
 4023TIP3   OH233483   5.314   1.336  15.877  0.1775 -0.2003 -0.6610
 4023TIP3    H133484   5.347   1.426  15.880 -0.4117  0.0063  0.1133
 4023TIP3    H233485   5.364   1.294  15.807  2.1911  0.0359  0.5564
 4024TIP3   OH233486   5.819   2.018  15.794 -0.6009 -0.1670  0.4498
 4024TIP3    H133487   5.737   2.039  15.750  0.6971  2.0399 -1.1239
 4024TIP3    H233488   5.812   2.062  15.879 -0.3858  1.6025 -0.4016
 4025TIP3   OH233489   3.018   6.724   2.664  0.4600 -0.4684  0.0664
 4025TIP3    H133490   3.048   6.635   2.679  1.0904  0.0241  1.8723
 4025TIP3    H233491   2.922   6.717   2.664  0.4800 -0.9987  1.3098
 4026TIP3   OH233492   6.557   4.224   2.966  0.2444 -0.3898  0.0996
 4026TIP3    H133493   6.573   4.135   2.998 -0.4211 -0.7018 -0.4192
 4026TIP3    H233494   6.596   4.225   2.878 -1.1159 -0.6657 -0.5318
 4027TIP3   OH233495   6.045   2.075  15.504  0.5042 -0.2990 -0.5396
 4027TIP3    H133496   5.954   2.051  15.485  0.2408 -1.1529  1.4862
 4027TIP3    H233497   6.092   1.992  15.503  1.1247  0.0553 -0.8895
 4028TIP3   OH233498   0.609   4.134   1.052  0.0084  0.4685  0.9829
 4028TIP3    H133499   0.693   4.166   1.086  1.3634 -2.2506  0.4380
 4028TIP3    H233500   0.620   4.133   0.957 -0.0630 -1.3110  0.9703
 4029TIP3   OH233501   5.183   5.589  13.178  0.5149  0.3913  0.0455
 4029TIP3    H133502   5.142   5.547  13.103 -0.2755  1.0313  0.1057
 4029TIP3    H233503   5.132   5.557  13.253  1.2609 -0.1968  0.3099
 4030TIP3   OH233504   1.189   4.275  13.539 -0.6743  0.4844 -0.1409
 4030TIP3    H133505   1.256   4.212  13.513  0.2540  0.9685  0.9708
 4030TIP3    H233506   1.228   4.322  13.612 -1.0072  2.8963 -1.4189
 4031TIP3   OH233507   2.038   5.956   4.394 -1.0093  0.1842 -0.1067
 4031TIP3    H133508   2.040   6.047   4.364 -0.1710 -0.2148 -1.3599
 4031TIP3    H233509   2.040   5.904   4.313  2.3389 -0.9442  0.5227
 4032TIP3   OH233510   2.881   5.401  13.969 -0.1886  0.2111 -0.2112
 4032TIP3    H133511   2.911   5.360  14.050  2.2090 -0.3025 -1.2698
 4032TIP3    H233512   2.818   5.339  13.932 -1.0896  0.3188  1.0634
 4033TIP3   OH233513   6.522   6.452  11.980 -0.2206  0.1063  0.1211
 4033TIP3    H133514   6.516   6.490  11.892  0.8167 -0.0350 -0.0235
 4033TIP3    H233515   6.505   6.358  11.966 -2.4315  0.4073  0.4300
 4034TIP3   OH233516   4.062   4.197   3.958  0.7556  0.0876  0.3218
 4034TIP3    H133517   4.056   4.105   3.931  2.1570 -0.8197  2.7040
 4034TIP3    H233518   4.076   4.245   3.877 -0.3561 -1.7474 -1.0377
 4035TIP3   OH233519   0.122   6.663   3.802  0.8369  0.2110 -0.2593
 4035TIP3    H133520   0.067   6.643   3.878  0.9972  0.5491 -0.0501
 4035TIP3    H233521   0.104   6.593   3.740  1.3613 -0.5705  0.4405
 4036TIP3   OH233522   5.818   5.064  13.836  0.5289  0.5048  0.2595
 4036TIP3    H133523   5.762   5.004  13.886  2.1514 -0.8642  0.5200
 4036TIP3    H233524   5.852   5.125  13.901  1.7143 -0.5547  0.6686
 4037TIP3   OH233525   5.497   1.407  16.772  0.5134 -0.1243 -0.5725
 4037TIP3    H133526   5.454   1.374  16.850  0.5570  0.3186 -0.3530
 4037TIP3    H233527   5.549   1.333  16.739  1.0501 -0.1147  0.2208
 4038TIP3   OH233528   4.415   6.083   1.690 -0.7830  0.0746  0.1792
 4038TIP3    H133529   4.479   6.023   1.652 -1.1821 -2.3978  2.9980
 4038TIP3    H233530   4.465   6.138   1.749 -0.9194 -0.3824  0.7373
 4039TIP3   OH233531   6.502   4.320   0.819  0.7963 -0.3694  0.2452
 4039TIP3    H133532   6.412   4.351   0.827  0.1532 -1.7503 -0.9443
 4039TIP3    H233533   6.542   4.337   0.904 -1.1122 -1.2439  1.3858
 4040TIP3   OH233534   4.835   3.941   4.319 -0.1987  0.6079  0.3026
 4040TIP3    H133535   4.871   3.958   4.406  1.7776  0.0685 -0.3583
 4040TIP3    H233536   4.799   3.852   4.325  0.3084  0.4103  0.4600
 4041TIP3   OH233537   3.011   0.360   5.061 -0.2667 -0.7232 -0.4255
 4041TIP3    H133538   2.983   0.423   5.128 -1.5479 -0.3666 -1.2481
 4041TIP3    H233539   3.106   0.371   5.056 -0.5728  2.6188 -1.8777
 4042TIP3   OH233540   5.668   6.062   1.007 -0.1325  0.1300 -0.4223
 4042TIP3    H133541   5.619   5.980   0.999  1.2426 -0.6729 -0.9167
 4042TIP3    H233542   5.659   6.104   0.921  1.0179 -0.6083 -0.9294
 4043TIP3   OH233543   6.009   4.492   1.980 -0.4688  0.3558  0.1409
 4043TIP3    H133544   5.938   4.429   1.994 -0.5672  0.6785  1.1661
 4043TIP3    H233545   6.085   4.452   2.022 -1.1583  2.0918  3.2788
 4044TIP3   OH233546   2.335   3.061  16.657 -0.0770 -0.4491  0.6384
 4044TIP3    H133547   2.422   3.099  16.644  0.9168 -2.5145  0.8694
 4044TIP3    H233548   2.318   3.072  16.751 -2.1848  4.0252  0.0195
 4045TIP3   OH233549   6.619   4.059  14.356 -0.1826  0.4119  0.1420
 4045TIP3    H133550   6.608   3.994  14.426  1.1174  0.3097  0.2665
 4045TIP3    H233551   6.705   4.040  14.319 -0.0735  1.6523 -0.2595
 4046TIP3   OH233552   0.057   2.984  12.327  0.0257  0.2149 -0.3330
 4046TIP3    H133553  -0.031   2.950  12.341  0.9768 -1.4347  2.2966
 4046TIP3    H233554   0.071   2.978  12.232 -2.3667 -0.2165 -0.7046
 4047TIP3   OH233555   1.070   3.522  13.489  0.0699 -0.1518  0.8152
 4047TIP3    H133556   1.128   3.449  13.468  0.9348  0.1342  2.1204
 4047TIP3    H233557   0.989   3.502  13.441  1.6207  0.1156 -2.1132
 4048TIP3   OH233558   0.263   0.175   4.355  0.3528 -0.0748 -0.0852
 4048TIP3    H133559   0.299   0.231   4.286 -0.0086  0.5199  0.2016
 4048TIP3    H233560   0.174   0.206   4.368 -0.3292 -1.5942 -0.8578
 4049TIP3   OH233561   5.084   5.717  15.095  0.3873  0.5534  0.3441
 4049TIP3    H133562   5.116   5.803  15.069 -0.0158  0.7596  0.5324
 4049TIP3    H233563   5.024   5.691  15.026 -0.6043  1.0573  0.9994
 4050TIP3   OH233564   3.736   4.137  14.819  0.0823 -0.5808  0.1884
 4050TIP3    H133565   3.646   4.156  14.846 -0.1355 -0.6060 -0.4935
 4050TIP3    H233566   3.790   4.171  14.890 -0.3407  1.6313 -0.4747
 4051TIP3   OH233567   3.626   2.847   2.770  0.3400 -0.0543 -0.0958
 4051TIP3    H133568   3.570   2.905   2.717  1.0552  0.9923  0.2667
 4051TIP3    H233569   3.565   2.786   2.810 -0.4006  0.2044 -0.7920
 4052TIP3   OH233570   6.469   1.296  15.488  0.4686 -0.3422  0.0263
 4052TIP3    H133571   6.381   1.265  15.469 -0.0735  1.4041 -0.3965
 4052TIP3    H233572   6.512   1.301  15.403  0.8693 -0.7949  0.1923
 4053TIP3   OH233573   2.118   3.713   0.642 -0.5616  0.0096  0.1901
 4053TIP3    H133574   2.183   3.760   0.590 -0.7965  1.9341  1.5093
 4053TIP3    H233575   2.035   3.727   0.597 -0.5562  0.4773  0.3215
 4054TIP3   OH233576   0.377   1.285   1.530 -0.2540 -0.1675  0.4289
 4054TIP3    H133577   0.293   1.258   1.493 -1.5742  1.4712  2.0412
 4054TIP3    H233578   0.397   1.367   1.484 -1.4219  1.3608  2.4250
 4055TIP3   OH233579   2.543   6.163  16.082  0.0353  0.9996  0.0318
 4055TIP3    H133580   2.591   6.162  16.164  2.0885 -0.0849 -1.1116
 4055TIP3    H233581   2.559   6.251  16.046 -0.5283  1.3315  0.5702
 4056TIP3   OH233582   2.696   6.605  16.719 -0.8064 -0.0095 -0.2615
 4056TIP3    H133583   2.744   6.678  16.682 -1.3315  0.9015  0.7969
 4056TIP3    H233584   2.717   6.607  16.812 -2.1780 -0.1152  0.0776
 4057TIP3   OH233585   1.949   3.168  14.531 -0.2339 -0.4144  0.0645
 4057TIP3    H133586   1.961   3.255  14.494  0.5209 -0.7869 -0.5893
 4057TIP3    H233587   1.874   3.177  14.590  0.0338  0.7486  0.2512
 4058TIP3   OH233588   5.170   1.602  13.507  0.0658 -0.2382  0.0642
 4058TIP3    H133589   5.128   1.565  13.585 -0.0074 -0.2431  0.0216
 4058TIP3    H233590   5.233   1.535  13.480 -0.9383 -0.8805 -0.7504
 4059TIP3   OH233591   4.309   6.772   4.676  0.5796 -0.7304  0.2831
 4059TIP3    H133592   4.267   6.839   4.622  0.9651  0.5911  1.5586
 4059TIP3    H233593   4.370   6.729   4.617 -0.8230 -1.0693 -0.9788
 4060TIP3   OH233594   1.501   0.136   4.829  0.1716 -0.3017  0.2750
 4060TIP3    H133595   1.422   0.092   4.799  0.3081 -1.9707  2.1239
 4060TIP3    H233596   1.567   0.118   4.762  0.6958 -4.5359  1.6646
 4061TIP3   OH233597   3.010   3.494   0.202 -0.3156  0.1785  0.2797
 4061TIP3    H133598   3.006   3.479   0.296 -2.0884  1.7921  0.5293
 4061TIP3    H233599   3.048   3.582   0.194  0.9988 -0.4472 -0.5959
 4062TIP3   OH233600   3.652   5.311  15.850 -0.3443 -0.0932  0.0487
 4062TIP3    H133601   3.746   5.315  15.870 -0.1928 -0.6178 -0.5323
 4062TIP3    H233602   3.616   5.253  15.918 -0.0403 -0.8476 -0.4153
 4063TIP3   OH233603   3.107   5.574  14.038  0.4394 -0.1058 -0.1047
 4063TIP3    H133604   3.026   5.538  14.002  0.1668  1.1263 -0.8061
 4063TIP3    H233605   3.173   5.556  13.971  0.7317 -1.0024  0.4127
 4064TIP3   OH233606   5.827   3.136  12.668  0.0666  0.1891 -0.1562
 4064TIP3    H133607   5.797   3.224  12.649 -1.4911  0.0800  1.5154
 4064TIP3    H233608   5.749   3.090  12.700  1.5811 -0.6446  2.6934
 4065TIP3   OH233609   2.119   5.158  16.921 -0.6753 -0.1676  0.2043
 4065TIP3    H133610   2.188   5.154  16.987 -0.9834  0.8376  0.5954
 4065TIP3    H233611   2.161   5.196  16.844 -0.7720  0.3543  0.4113
 4066TIP3   OH233612   4.818   1.465   1.011 -0.1256 -0.0142  0.5672
 4066TIP3    H133613   4.856   1.510   0.936 -0.4352 -0.3623  0.1904
 4066TIP3    H233614   4.884   1.401   1.037 -0.5339 -0.8010 -0.2531
 4067TIP3   OH233615   6.389   2.854   2.010  0.1762  0.4564  0.3548
 4067TIP3    H133616   6.418   2.926   2.067 -0.4803  0.7314  0.3480
 4067TIP3    H233617   6.315   2.890   1.962 -0.6129 -0.4495  0.8621
 4068TIP3   OH233618   3.407   4.995   4.778 -0.2094 -0.2277 -0.2725
 4068TIP3    H133619   3.488   4.951   4.804  0.1923  1.0548  0.8083
 4068TIP3    H233620   3.395   5.063   4.845 -1.5219  0.3978 -1.1053
 4069TIP3   OH233621   1.334   6.354  11.351  0.1804  0.4217 -0.3539
 4069TIP3    H133622   1.287   6.275  11.325  1.2738  0.2065 -1.7697
 4069TIP3    H233623   1.425   6.337  11.327  0.4890  1.9817 -0.3752
 4070TIP3   OH233624   3.689   0.228  11.968 -0.4378  0.0129  0.2159
 4070TIP3    H133625   3.754   0.172  11.924  0.3634 -0.5995  2.0715
 4070TIP3    H233626   3.608   0.177  11.966 -0.4332  0.0281 -0.5878
 4071TIP3   OH233627   1.985   1.805   5.273 -0.0131 -0.5994  0.1893
 4071TIP3    H133628   2.071   1.776   5.244  0.3714 -0.5946  1.2894
 4071TIP3    H233629   1.965   1.880   5.216 -0.3459 -2.0137 -1.6398
 4072TIP3   OH233630   1.894   1.057  12.488  0.5651 -0.9262 -0.5521
 4072TIP3    H133631   1.887   1.138  12.438  0.5746 -1.0392 -0.7352
 4072TIP3    H233632   1.988   1.048  12.504  0.9814 -2.6047 -3.3482
 4073TIP3   OH233633   1.033   6.661  14.599 -0.2660  0.0843  0.1692
 4073TIP3    H133634   0.981   6.672  14.519  0.7753 -0.7434 -0.6548
 4073TIP3    H233635   0.982   6.705  14.667 -0.8496  1.4406 -1.0769
 4074TIP3   OH233636   2.852   4.812  13.654  0.4792  0.9369  0.0234
 4074TIP3    H133637   2.888   4.891  13.694  0.0142  0.8476  0.6326
 4074TIP3    H233638   2.763   4.806  13.689  0.9670 -0.6302  1.1091
 4075TIP3   OH233639   0.928   3.544  15.957  0.1963  0.6067  0.2758
 4075TIP3    H133640   0.855   3.484  15.944  1.3535 -0.9599  0.7161
 4075TIP3    H233641   0.906   3.621  15.905  0.2201 -1.5310 -3.1776
 4076TIP3   OH233642   1.958   6.568  14.043 -0.5794  0.4873  0.0638
 4076TIP3    H133643   2.004   6.486  14.060 -0.3822  0.5534 -0.1425
 4076TIP3    H233644   2.019   6.637  14.070 -0.2001  0.5971 -0.9970
 4077TIP3   OH233645   2.458   2.741  16.985  0.2849 -0.2461 -0.0458
 4077TIP3    H133646   2.445   2.734  16.890 -0.6024 -1.4635  0.1454
 4077TIP3    H233647   2.537   2.689  17.002  0.2377 -0.3263 -0.0730
 4078TIP3   OH233648   6.442   5.209   3.633 -0.5039 -0.2929 -0.6369
 4078TIP3    H133649   6.500   5.133   3.640 -1.4905 -0.9069  1.9863
 4078TIP3    H233650   6.361   5.174   3.597 -0.6759 -0.3242 -0.2238
 4079TIP3   OH233651   3.972   6.371  16.961 -0.3842 -0.2214  0.1578
 4079TIP3    H133652   3.960   6.309  16.890  2.2365 -0.6619  0.0150
 4079TIP3    H233653   3.995   6.453  16.918 -1.9391  0.4068  0.4351
 4080TIP3   OH233654   4.966   6.693  16.073 -0.3238 -0.4668 -0.0305
 4080TIP3    H133655   5.056   6.680  16.043  0.3649  0.2495  1.5804
 4080TIP3    H233656   4.973   6.758  16.143 -2.0755 -0.5567  0.2878
 4081TIP3   OH233657   3.739   3.888  13.203  0.7257  0.3227  0.3836
 4081TIP3    H133658   3.684   3.910  13.278  0.4957 -0.6504  0.5077
 4081TIP3    H233659   3.690   3.918  13.127 -1.0956 -2.5021  0.3054
 4082TIP3   OH233660   0.521   6.467  13.684  0.1237 -0.9889  0.1563
 4082TIP3    H133661   0.428   6.465  13.710 -0.1136 -0.6418 -0.6358
 4082TIP3    H233662   0.550   6.555  13.710  0.1161 -0.9450  0.0148
 4083TIP3   OH233663   5.185   0.821   4.422 -0.2739  0.3928 -0.5056
 4083TIP3    H133664   5.101   0.866   4.427 -1.1662 -1.1832 -0.4418
 4083TIP3    H233665   5.162   0.730   4.401  1.4445  0.0182 -0.9554
 4084TIP3   OH233666   2.080   0.430   4.199 -0.5802  0.1625  0.2414
 4084TIP3    H133667   2.058   0.437   4.106  2.3677  0.9204 -0.5070
 4084TIP3    H233668   2.172   0.402   4.200 -0.1728  1.2788  2.8857
 4085TIP3   OH233669   5.185   3.573   0.756  0.6014  0.2862  0.3510
 4085TIP3    H133670   5.153   3.484   0.767  0.7179  0.3341  1.0938
 4085TIP3    H233671   5.107   3.625   0.738  0.0697  0.5863  3.1929
 4086TIP3   OH233672   5.173   6.157  13.301  1.1192  0.1887 -0.3613
 4086TIP3    H133673   5.252   6.117  13.265  1.8140 -1.9062  3.0443
 4086TIP3    H233674   5.101   6.112  13.256  1.8255  0.2608 -1.6213
 4087TIP3   OH233675   5.744   0.027  15.275 -0.6015  0.1080 -0.2420
 4087TIP3    H133676   5.699   0.051  15.194 -2.6152 -2.6826 -0.1042
 4087TIP3    H233677   5.726  -0.066  15.285  1.3845 -0.0945  2.3568
 4088TIP3   OH233678   3.958   4.447   3.067  0.1955  0.3243  0.5449
 4088TIP3    H133679   3.969   4.522   3.126  2.3610  0.3216  0.2300
 4088TIP3    H233680   4.002   4.375   3.111  1.1575  0.1236 -0.6904
 4089TIP3   OH233681   5.277   1.497  11.829  0.0657  0.1323  0.4537
 4089TIP3    H133682   5.358   1.549  11.825  1.3050 -1.6549  1.0637
 4089TIP3    H233683   5.285   1.433  11.759 -0.1373 -0.9500  1.3770
 4090TIP3   OH233684   2.518   1.005  10.403  0.1005  0.1181  0.7565
 4090TIP3    H133685   2.490   0.935  10.343  2.1434  1.4762 -1.9948
 4090TIP3    H233686   2.567   0.960  10.471 -0.7693 -1.3472  0.4655
 4091TIP3   OH233687   5.043   6.773  15.230 -0.5561  0.3611  0.1751
 4091TIP3    H133688   5.102   6.699  15.245 -2.8246 -1.2554  1.6374
 4091TIP3    H233689   5.013   6.762  15.140 -0.1422  0.0760  0.0680
 4092TIP3   OH233690   1.666   3.710   5.516 -0.1256 -0.5191 -0.1399
 4092TIP3    H133691   1.578   3.707   5.554 -1.2643 -0.2269 -2.5671
 4092TIP3    H233692   1.704   3.625   5.537 -0.3226 -0.0842  2.2879
 4093TIP3   OH233693   3.696   0.872  14.725  0.0543 -0.0122 -0.7090
 4093TIP3    H133694   3.727   0.783  14.712 -0.4225 -0.0464 -1.7524
 4093TIP3    H233695   3.775   0.926  14.722  0.2065 -0.2704 -1.4645
 4094TIP3   OH233696   3.838   2.623   4.434  0.5971 -0.0486 -0.5925
 4094TIP3    H133697   3.826   2.684   4.361 -0.8052  2.9425  1.9070
 4094TIP3    H233698   3.770   2.557   4.422 -1.1580  1.7157 -0.8057
 4095TIP3   OH233699   6.685   5.373  14.184 -0.4218 -0.1013  0.0101
 4095TIP3    H133700   6.671   5.468  14.181 -0.5173 -0.1154  0.0427
 4095TIP3    H233701   6.603   5.336  14.152 -0.7981 -0.2108  1.0681
 4096TIP3   OH233702   0.516   2.196   3.568  0.3360  0.7388  0.4722
 4096TIP3    H133703   0.536   2.273   3.516  2.6378 -0.8658 -1.2583
 4096TIP3    H233704   0.602   2.164   3.597 -0.4468 -1.5380  0.5240
 4097TIP3   OH233705   5.878   0.197  12.333 -0.3146  0.4927  0.3289
 4097TIP3    H133706   5.830   0.229  12.257  0.4425  0.5812 -0.1137
 4097TIP3    H233707   5.955   0.154  12.297 -0.1453  0.1971  1.0290
 4098TIP3   OH233708   6.724   1.255   2.489 -0.2714 -0.0119 -0.0622
 4098TIP3    H133709   6.638   1.213   2.494 -1.0985  1.3063 -1.9735
 4098TIP3    H233710   6.781   1.190   2.448 -0.1592 -1.0856  1.6777
 4099TIP3   OH233711   1.660   4.046  12.938 -0.2212 -0.1476  0.2148
 4099TIP3    H133712   1.747   4.023  12.908  0.6514  0.8392  1.8412
 4099TIP3    H233713   1.607   3.967  12.921  0.7325 -0.4502 -1.5873
 4100TIP3   OH233714   4.360   4.675  14.103  0.1461 -0.1677  0.0067
 4100TIP3    H133715   4.353   4.586  14.070 -0.5023 -0.0390 -0.2267
 4100TIP3    H233716   4.313   4.728  14.038  0.7387  0.3771  0.0099
 4101TIP3   OH233717   0.835   6.751  12.382 -0.0137 -0.4005  0.6991
 4101TIP3    H133718   0.928   6.728  12.383  0.2741  0.7293  1.3247
 4101TIP3    H233719   0.832   6.840  12.416 -1.4639 -0.9281  2.0740
 4102TIP3   OH233720   1.704   0.345  16.918  0.1568 -0.5208 -0.1814
 4102TIP3    H133721   1.745   0.268  16.956 -0.2237 -0.4655  0.3517
 4102TIP3    H233722   1.654   0.383  16.990  0.9319  0.6453 -0.2312
 4103TIP3   OH233723   6.199   5.011   4.211  0.4440  0.0753 -0.5839
 4103TIP3    H133724   6.149   5.012   4.130 -0.0550 -1.0443 -0.2974
 4103TIP3    H233725   6.175   5.093   4.254 -0.0239  0.2269 -1.1184
 4104TIP3   OH233726   3.800   0.065  13.515  0.5606 -0.4464  0.5373
 4104TIP3    H133727   3.886   0.024  13.522  0.6811 -1.2289 -3.4565
 4104TIP3    H233728   3.738  -0.008  13.509 -0.2660  0.1030  1.8951
 4105TIP3   OH233729   1.593   2.257   1.379  0.6519  0.2609 -0.3668
 4105TIP3    H133730   1.634   2.343   1.370  0.0228  0.6507  0.3930
 4105TIP3    H233731   1.597   2.220   1.291 -0.3470  1.6579 -1.0429
 4106TIP3   OH233732   1.427   2.310  13.698 -0.3614 -0.0253  0.6084
 4106TIP3    H133733   1.446   2.387  13.645  0.4238  0.2213  1.2447
 4106TIP3    H233734   1.334   2.292  13.681 -0.9931  1.9909  1.6429
 4107TIP3   OH233735   1.132   1.180  14.392 -0.3910  0.2044 -0.3256
 4107TIP3    H133736   1.169   1.178  14.304 -1.3834 -1.0540 -0.7450
 4107TIP3    H233737   1.195   1.230  14.444  1.5118 -1.1887 -1.1775
 4108TIP3   OH233738   4.477   6.139  13.749 -0.2558 -0.1528  0.4029
 4108TIP3    H133739   4.397   6.127  13.697 -0.1769  0.1659  0.2030
 4108TIP3    H233740   4.449   6.127  13.839 -1.0370  2.1967  0.5629
 4109TIP3   OH233741   3.285   5.499   0.640 -0.0753 -0.5715  0.1418
 4109TIP3    H133742   3.217   5.457   0.693 -0.0656 -1.0358 -0.2096
 4109TIP3    H233743   3.288   5.448   0.559 -0.7419  0.6935 -0.7132
 4110TIP3   OH233744   2.550   2.103  13.587 -0.6927  0.6071 -0.0608
 4110TIP3    H133745   2.587   2.017  13.608  0.9236  0.7511 -2.0590
 4110TIP3    H233746   2.456   2.086  13.575 -0.1297 -1.3800 -2.5104
 4111TIP3   OH233747   4.928   5.518  12.142  0.2833  0.3442 -0.1814
 4111TIP3    H133748   4.898   5.573  12.070  1.2398 -0.6861 -1.4238
 4111TIP3    H233749   5.016   5.489  12.115  0.3153 -0.7478  1.0009
 4112TIP3   OH233750   1.170   6.312  15.623 -0.3022 -0.3647  1.0751
 4112TIP3    H133751   1.107   6.359  15.569  0.3010 -2.1641 -1.3345
 4112TIP3    H233752   1.147   6.220  15.613  1.8090 -0.9636  1.3076
 4113TIP3   OH233753   5.722   2.737  11.463  0.0548 -0.3114 -0.0039
 4113TIP3    H133754   5.754   2.713  11.376 -0.8891  0.4336 -0.5680
 4113TIP3    H233755   5.644   2.789  11.447 -1.1752 -1.6310  1.3381
 4114TIP3   OH233756   1.827   1.381   2.770  0.5309 -0.0112 -0.1986
 4114TIP3    H133757   1.851   1.402   2.860  0.6214  1.5189 -0.5599
 4114TIP3    H233758   1.907   1.393   2.720 -0.1455  1.9271 -0.9040
 4115TIP3   OH233759   4.578   4.548   5.714  0.5829  0.4787  0.3326
 4115TIP3    H133760   4.549   4.459   5.697  2.1584  0.3015 -1.8429
 4115TIP3    H233761   4.648   4.540   5.778  0.5196  0.1905  0.3639
 4116TIP3   OH233762   5.959   3.716  16.033 -0.5150 -0.4317 -0.3210
 4116TIP3    H133763   5.941   3.737  15.942  1.0009 -0.6652 -0.6995
 4116TIP3    H233764   6.045   3.754  16.051 -0.5046 -0.9282  0.8217
 4117TIP3   OH233765   3.858   2.828  10.698  0.5512  0.0320 -0.6598
 4117TIP3    H133766   3.845   2.768  10.625  2.6870 -0.2923 -0.8642
 4117TIP3    H233767   3.869   2.914  10.657 -4.0212  1.0108 -0.2838
 4118TIP3   OH233768   2.804   2.371   4.454 -0.5015 -0.2643  0.0200
 4118TIP3    H133769   2.795   2.340   4.364 -1.9689  0.4744 -0.1288
 4118TIP3    H233770   2.756   2.454   4.455 -2.0762 -1.1277  1.8923
 4119TIP3   OH233771   3.287   0.770  11.337  0.2431  0.2368  0.4501
 4119TIP3    H133772   3.208   0.738  11.293  0.4673 -1.5393  1.2585
 4119TIP3    H233773   3.320   0.839  11.279 -1.1482  0.0870 -0.5785
 4120TIP3   OH233774   6.738   1.425  15.426 -0.4482  0.1403 -0.1167
 4120TIP3    H133775   6.746   1.330  15.420 -1.9420  0.0828 -2.0591
 4120TIP3    H233776   6.820   1.458  15.390  0.5364 -0.3619  1.5498
 4121TIP3   OH233777   0.945   0.191   1.551 -0.2248 -0.6007  0.6409
 4121TIP3    H133778   0.943   0.273   1.501 -0.4933 -1.1814 -0.3435
 4121TIP3    H233779   1.033   0.156   1.536 -0.6291 -1.2812 -0.3266
 4122TIP3   OH233780   3.513   3.525   4.231  0.2265 -0.3494 -0.6931
 4122TIP3    H133781   3.466   3.516   4.148 -2.2691  1.4574  0.3800
 4122TIP3    H233782   3.497   3.442   4.276 -1.8830  0.1029 -0.4787
 4123TIP3   OH233783   1.079   1.784  12.526 -0.7133 -0.2935  0.8292
 4123TIP3    H133784   1.092   1.692  12.502  0.5807 -0.2456  1.2272
 4123TIP3    H233785   1.127   1.793  12.609  0.8595  1.1829 -0.1792
 4124TIP3   OH233786   4.290   3.906  14.999  0.1633  0.1196 -0.1432
 4124TIP3    H133787   4.310   3.994  15.030  0.7618  0.9019 -2.5104
 4124TIP3    H233788   4.374   3.861  14.997 -0.1265 -0.5148  0.9648
 4125TIP3   OH233789   2.872   3.575   2.875 -0.5063 -0.4262 -0.0332
 4125TIP3    H133790   2.787   3.541   2.846 -1.6134  0.1011  2.3891
 4125TIP3    H233791   2.851   3.651   2.928  1.5481  0.0943  0.1195
 4126TIP3   OH233792   3.773   0.604  14.689  0.2640  0.6491 -0.3750
 4126TIP3    H133793   3.851   0.566  14.728  0.9472  1.6318 -0.7567
 4126TIP3    H233794   3.778   0.582  14.596 -0.8087 -0.7593 -0.1326
 4127TIP3   OH233795   6.176   5.855  16.590  0.0039 -0.2590  0.0677
 4127TIP3    H133796   6.125   5.776  16.574 -1.1506  0.8076 -1.9481
 4127TIP3    H233797   6.260   5.823  16.623 -0.7723 -2.2581  0.2558
 4128TIP3   OH233798   6.062   2.821  12.792 -0.3664  0.2774 -0.1454
 4128TIP3    H133799   6.111   2.811  12.710  0.0291  2.6180 -0.2523
 4128TIP3    H233800   5.980   2.774  12.777 -0.0125  0.0972 -1.6250
 4129TIP3   OH233801   3.209   5.218  12.354  0.2074  0.3446  0.5081
 4129TIP3    H133802   3.263   5.142  12.376  1.0786  0.4610 -1.0827
 4129TIP3    H233803   3.272   5.289  12.342 -0.5537  1.2141  1.4324
 4130TIP3   OH233804   3.172   3.167  12.473 -0.2957  0.2467 -0.7965
 4130TIP3    H133805   3.243   3.194  12.414  2.0032  0.5712  1.8924
 4130TIP3    H233806   3.151   3.247  12.523  0.6191 -0.8153  1.4298
 4131TIP3   OH233807   5.908   0.706   0.827 -0.0714  0.2953  0.3047
 4131TIP3    H133808   5.973   0.638   0.809  0.2398  0.6430  0.1109
 4131TIP3    H233809   5.909   0.762   0.749  0.1599  0.9107  0.7447
 4132TIP3   OH233810   3.038   0.636  13.538  0.1824 -0.4511 -0.2446
 4132TIP3    H133811   2.978   0.695  13.492 -0.7004  0.6859  2.1847
 4132TIP3    H233812   3.107   0.693  13.571  0.4867 -1.1355  0.3177
 4133TIP3   OH233813   3.047   3.657   3.072 -0.4381  0.4645  0.4421
 4133TIP3    H133814   3.085   3.596   3.136 -0.1391 -1.2984 -1.3011
 4133TIP3    H233815   3.004   3.600   3.008 -1.4973  2.1935 -0.4433
 4134TIP3   OH233816   2.593   3.610   1.670  0.3268 -0.4569  0.0072
 4134TIP3    H133817   2.506   3.613   1.711  0.2835 -2.6469  0.2009
 4134TIP3    H233818   2.576   3.616   1.576  0.1519  1.1389  0.1203
 4135TIP3   OH233819   6.749   1.041  12.795 -0.1289  0.1235  0.5751
 4135TIP3    H133820   6.745   1.133  12.823  1.2957 -0.0116  1.3269
 4135TIP3    H233821   6.828   1.036  12.742 -0.3189 -0.6283  0.3569
 4136TIP3   OH233822   2.007   4.687  10.814 -0.3273  0.0174 -0.0337
 4136TIP3    H133823   1.916   4.715  10.818 -0.7005 -1.2346  1.2601
 4136TIP3    H233824   2.019   4.656  10.724 -1.5254 -0.8590  0.0866
 4137TIP3   OH233825   3.898   4.377  14.019 -0.4765 -0.0322 -0.2286
 4137TIP3    H133826   3.992   4.367  14.034 -0.4142 -0.2631 -0.7416
 4137TIP3    H233827   3.875   4.458  14.065  0.3158  0.9475 -1.4970
 4138TIP3   OH233828   4.162   2.907   5.296  0.2816  0.0972  0.4094
 4138TIP3    H133829   4.238   2.937   5.348  0.5047  0.6387 -0.2091
 4138TIP3    H233830   4.087   2.923   5.353  0.7074 -1.6536  1.5610
 4139TIP3   OH233831   5.365   2.058  11.555 -0.3364 -0.2472 -0.2981
 4139TIP3    H133832   5.397   2.115  11.625  1.9143  1.1440 -2.2883
 4139TIP3    H233833   5.407   1.974  11.571  0.2943  0.1103 -0.0474
 4140TIP3   OH233834   3.435   4.714   3.551 -0.4240 -0.1443 -0.6862
 4140TIP3    H133835   3.428   4.658   3.628 -0.7806 -0.4536 -0.9416
 4140TIP3    H233836   3.529   4.727   3.540 -0.3745 -0.0092 -0.1395
 4141TIP3   OH233837   6.649   5.390   5.873 -0.5559  0.6775 -0.7373
 4141TIP3    H133838   6.619   5.461   5.930  0.6232  0.9206 -0.3958
 4141TIP3    H233839   6.691   5.328   5.932 -2.3164 -0.7750 -0.9098
 4142TIP3   OH233840   1.447   0.662  15.157 -0.0213 -0.4518  0.6296
 4142TIP3    H133841   1.489   0.580  15.130  2.2224  0.6890  0.3944
 4142TIP3    H233842   1.408   0.696  15.077 -2.1776 -1.8727  0.9888
 4143TIP3   OH233843   4.291   2.269  11.859 -0.1571 -0.1480 -0.0576
 4143TIP3    H133844   4.360   2.303  11.916  0.9368 -0.8729 -0.9079
 4143TIP3    H233845   4.234   2.344  11.844 -0.1559  0.2057  1.5026
 4144TIP3   OH233846   4.250   0.856   2.059 -0.5359  0.6193 -0.2594
 4144TIP3    H133847   4.222   0.935   2.106  0.3988  0.7778  0.0502
 4144TIP3    H233848   4.168   0.812   2.036 -1.0560  1.3790  0.0739
 4145TIP3   OH233849   2.585   6.280  14.896 -1.0486  0.0339 -0.8822
 4145TIP3    H133850   2.574   6.232  14.814  0.2962 -1.6281 -0.1296
 4145TIP3    H233851   2.529   6.234  14.959  0.3591 -0.6974 -0.1187
 4146TIP3   OH233852   3.431   0.019  12.760 -0.7451 -0.1266  0.4534
 4146TIP3    H133853   3.383   0.051  12.684  0.7706 -0.2076 -0.5890
 4146TIP3    H233854   3.519  -0.001  12.726 -0.8985 -3.1836  1.5046
 4147TIP3   OH233855   2.535   5.303   2.531 -0.2682  0.1640 -0.1809
 4147TIP3    H133856   2.455   5.330   2.487 -0.3640 -0.1888 -0.2290
 4147TIP3    H233857   2.563   5.225   2.484  1.0560  1.2474 -1.2702
 4148TIP3   OH233858   1.687   2.717   3.798 -0.6015 -0.2565  0.3742
 4148TIP3    H133859   1.625   2.682   3.862 -0.0223 -2.2901 -0.1035
 4148TIP3    H233860   1.634   2.732   3.719 -0.6593 -1.2007  0.2226
 4149TIP3   OH233861   5.896   1.194  17.049  0.2037 -0.3799 -0.1632
 4149TIP3    H133862   5.885   1.178  17.143 -0.1306 -1.7117 -0.4043
 4149TIP3    H233863   5.942   1.277  17.044 -0.2685 -0.0125  1.1705
 4150TIP3   OH233864   1.292   2.050   2.604  0.9135  0.6318 -0.2397
 4150TIP3    H133865   1.209   2.027   2.561  0.5536  0.7447  0.3741
 4150TIP3    H233866   1.298   1.988   2.677  1.3176  0.6923 -0.2231
 4151TIP3   OH233867   6.632   4.506   3.882 -0.1126  0.5778  0.8103
 4151TIP3    H133868   6.624   4.544   3.794  1.1020 -0.0915  0.3971
 4151TIP3    H233869   6.542   4.503   3.914 -0.4780  1.7322 -0.0139
 4152TIP3   OH233870   3.620   1.034   4.576 -0.3001 -0.0112  0.0520
 4152TIP3    H133871   3.612   1.017   4.482 -0.7795  0.9196 -0.0851
 4152TIP3    H233872   3.713   1.019   4.596 -0.1555 -0.0010 -0.6084
 4153TIP3   OH233873   4.065   1.918   0.305  0.5512  0.0802 -0.3982
 4153TIP3    H133874   4.043   1.977   0.232 -2.5674  0.1789  0.4739
 4153TIP3    H233875   4.069   1.831   0.265  1.1647  0.3921 -1.0381
 4154TIP3   OH233876   0.795   5.602  12.966 -0.0299  0.5200  0.7128
 4154TIP3    H133877   0.797   5.516  12.925  1.5160  0.8011  0.1232
 4154TIP3    H233878   0.724   5.597  13.030 -0.7244 -0.7985 -0.1175
 4155TIP3   OH233879   3.509   1.273  11.385 -0.6081 -0.5866 -0.2401
 4155TIP3    H133880   3.596   1.256  11.349 -0.8751 -3.4085  0.2349
 4155TIP3    H233881   3.524   1.341  11.452  1.3101 -1.3425  0.1661
 4156TIP3   OH233882   0.601   2.550  16.545 -0.5596 -0.7527  0.6282
 4156TIP3    H133883   0.599   2.498  16.464  1.3460 -2.4846  1.6071
 4156TIP3    H233884   0.646   2.631  16.521  0.2304 -1.3622 -0.0107
 4157TIP3   OH233885   3.984   4.595  13.806  0.1398  0.0653 -0.0624
 4157TIP3    H133886   4.000   4.577  13.713 -1.7822 -0.1530 -0.3889
 4157TIP3    H233887   3.986   4.509  13.847  0.2477  0.0829 -0.0305
 4158TIP3   OH233888   4.179   6.790  11.696 -0.5977  0.0732  0.4136
 4158TIP3    H133889   4.091   6.823  11.676 -1.1735 -0.6949  1.5304
 4158TIP3    H233890   4.221   6.862  11.742 -0.9279  0.1779  0.5582
 4159TIP3   OH233891   0.559   2.330   6.025  0.2286 -0.0240  0.0899
 4159TIP3    H133892   0.648   2.362   6.011  0.0537  0.5475  0.2573
 4159TIP3    H233893   0.537   2.284   5.944 -0.7163  3.0876 -1.6056
 4160TIP3   OH233894   3.084   2.451  11.374 -0.3004  0.0383  0.1308
 4160TIP3    H133895   3.119   2.533  11.339 -0.4399  1.0095  2.1222
 4160TIP3    H233896   3.151   2.386  11.351  0.5432  0.9825 -0.1928
 4161TIP3   OH233897   5.034   1.814  16.645 -0.2667  0.4826  0.1214
 4161TIP3    H133898   5.036   1.909  16.651  0.2961  0.4481  0.5208
 4161TIP3    H233899   4.950   1.795  16.604  0.1034  1.2052 -1.0307
 4162TIP3   OH233900   5.076   3.604   2.287 -0.7060 -0.5242  0.1843
 4162TIP3    H133901   5.091   3.692   2.252 -0.9831 -0.2881  0.6464
 4162TIP3    H233902   4.991   3.578   2.253 -1.0063 -0.2672  0.7233
 4163TIP3   OH233903   6.681   5.853  16.306 -0.2543  0.5961 -0.1587
 4163TIP3    H133904   6.723   5.934  16.278 -2.0923  2.1602  1.3089
 4163TIP3    H233905   6.676   5.860  16.402  0.6585 -1.8666  0.1561
 4164TIP3   OH233906   0.012   3.526   6.071 -0.2455 -0.3180 -0.7493
 4164TIP3    H133907  -0.009   3.591   6.004 -1.0232 -1.3486 -1.5596
 4164TIP3    H233908  -0.072   3.484   6.090 -0.0661  0.0816  1.0321
 4165TIP3   OH233909   2.687   1.447   2.247  0.3565  0.2635 -0.0880
 4165TIP3    H133910   2.699   1.541   2.234  2.0747  0.0845 -0.0929
 4165TIP3    H233911   2.715   1.432   2.337 -0.5178 -0.1608  0.1165
 4166TIP3   OH233912   0.189   1.511   5.441  0.9748  0.3992  0.2236
 4166TIP3    H133913   0.105   1.487   5.481  0.1734  0.3668 -1.4052
 4166TIP3    H233914   0.254   1.466   5.494 -0.2248 -2.0371 -0.2188
 4167TIP3   OH233915   2.795   2.835  11.558  0.4798 -0.0849  0.0106
 4167TIP3    H133916   2.855   2.797  11.623 -0.0516 -1.1431 -0.0895
 4167TIP3    H233917   2.841   2.823  11.474 -0.6923 -2.8849 -0.3568
 4168TIP3   OH233918   4.764   4.620  10.991 -0.4041  0.1420 -0.0321
 4168TIP3    H133919   4.813   4.700  10.974  2.2092 -1.3909 -0.1856
 4168TIP3    H233920   4.740   4.588  10.903 -0.2533  0.0421 -0.0359
 4169TIP3   OH233921   5.233   4.130   5.946  0.1994 -0.1191 -0.2162
 4169TIP3    H133922   5.285   4.055   5.974 -0.1336 -0.6738 -1.0604
 4169TIP3    H233923   5.229   4.123   5.851 -1.9628 -0.4570 -0.1486
 4170TIP3   OH233924   3.332   6.736   2.382  0.2395  0.2442  0.4008
 4170TIP3    H133925   3.408   6.751   2.325 -0.1348  3.3184  0.5160
 4170TIP3    H233926   3.300   6.650   2.356  2.4381 -0.1994 -1.2132
 4171TIP3   OH233927   6.188   1.692   4.459  0.1532 -0.0695 -0.1371
 4171TIP3    H133928   6.247   1.720   4.389 -0.7341  1.8670 -0.1617
 4171TIP3    H233929   6.188   1.764   4.522  0.1508 -1.3406  1.3892
 4172TIP3   OH233930   6.108   0.700   2.188 -0.4212  0.2081  0.2166
 4172TIP3    H133931   6.066   0.619   2.215  0.5789 -0.3808  0.0407
 4172TIP3    H233932   6.170   0.674   2.120 -1.4408  1.3858 -1.2402
 4173TIP3   OH233933   0.648   6.471   1.523 -0.5496  0.3417 -0.3167
 4173TIP3    H133934   0.663   6.389   1.475 -1.5889 -0.9978  1.5334
 4173TIP3    H233935   0.736   6.503   1.542 -0.1129 -0.7118 -0.4812
 4174TIP3   OH233936   0.745   3.133   5.182 -0.1269  0.5222 -0.5444
 4174TIP3    H133937   0.714   3.190   5.252 -2.5993  1.8871 -2.5552
 4174TIP3    H233938   0.673   3.071   5.167  0.6374 -0.1898 -1.3954
 4175TIP3   OH233939   4.563   0.317  11.105 -0.7104  0.2163  0.0604
 4175TIP3    H133940   4.485   0.350  11.151 -1.0765 -2.3237  1.4247
 4175TIP3    H233941   4.610   0.267  11.171 -0.5817 -2.5322 -1.9475
 4176TIP3   OH233942   0.122   2.442   4.923  0.2883 -0.2553 -0.3810
 4176TIP3    H133943   0.096   2.524   4.965  0.0458 -1.5388  2.1714
 4176TIP3    H233944   0.176   2.469   4.849  0.9120  2.1874  0.8616
 4177TIP3   OH233945   3.430   6.465   0.824  0.0190 -0.1830  0.4408
 4177TIP3    H133946   3.423   6.405   0.749  0.6442  1.9165 -1.4055
 4177TIP3    H233947   3.520   6.496   0.822 -0.4508  1.2941  0.9344
 4178TIP3   OH233948   0.580   1.013   1.022  0.5099 -0.1833  0.8043
 4178TIP3    H133949   0.621   0.938   0.978  0.8523 -0.5015  1.6390
 4178TIP3    H233950   0.565   0.983   1.112 -0.0808  0.4852  0.9421
 4179TIP3   OH233951   1.184   3.289  12.017  0.1129 -0.2213 -0.7907
 4179TIP3    H133952   1.150   3.200  12.011 -0.7480  0.0219  0.1805
 4179TIP3    H233953   1.108   3.345  11.999 -0.0923  0.3328  1.4859
 4180TIP3   OH233954   3.534   0.036   2.229  0.4650  0.5024 -0.2602
 4180TIP3    H133955   3.565   0.010   2.142  1.2325  0.1201  0.1194
 4180TIP3    H233956   3.558   0.129   2.235  0.7490  0.4347 -0.3156
 4181TIP3   OH233957   0.312   1.421  15.554 -0.6950 -0.4848  0.9141
 4181TIP3    H133958   0.229   1.391  15.517 -2.1639  1.0062  2.8021
 4181TIP3    H233959   0.378   1.362  15.517 -2.3250 -0.6466 -2.0371
 4182TIP3   OH233960   5.684   6.677   1.182  0.3317 -0.2363  0.5775
 4182TIP3    H133961   5.641   6.745   1.129 -0.4590 -1.1686 -0.0204
 4182TIP3    H233962   5.616   6.648   1.243  0.7114 -0.3804  0.9369
 4183TIP3   OH233963   4.770   0.592   1.980 -0.2610  0.3814  0.0624
 4183TIP3    H133964   4.786   0.580   2.073 -0.4687 -1.0412 -0.0631
 4183TIP3    H233965   4.690   0.542   1.963 -0.2739  0.6978 -0.8587
 4184TIP3   OH233966   2.121   2.270  16.426 -0.7899 -0.5481  0.4203
 4184TIP3    H133967   2.041   2.311  16.459 -0.8636 -1.0975  0.9429
 4184TIP3    H233968   2.096   2.237  16.339 -0.2795  1.8674 -0.7161
 4185TIP3   OH233969   3.967   3.370  14.426  0.5142 -0.2801  0.4785
 4185TIP3    H133970   3.989   3.445  14.483  0.3568 -0.4677  0.7904
 4185TIP3    H233971   3.967   3.407  14.338 -0.2243  0.2520  0.6862
 4186TIP3   OH233972   3.339   2.086   5.447 -0.0549  0.2022  0.8970
 4186TIP3    H133973   3.343   2.052   5.536 -1.4672  0.1623  0.9693
 4186TIP3    H233974   3.281   2.026   5.401  0.8680  0.0694 -0.1338
 4187TIP3   OH233975   1.063   5.372  12.267  0.6411  0.0714  0.0840
 4187TIP3    H133976   1.025   5.431  12.202  1.1660  0.0024 -0.2954
 4187TIP3    H233977   1.017   5.393  12.348  0.6874  0.8648 -0.0851
 4188TIP3   OH233978   2.023   2.363   4.629  0.0443 -0.2766 -0.1721
 4188TIP3    H133979   2.033   2.282   4.579 -1.6630 -0.5863 -0.0532
 4188TIP3    H233980   1.929   2.375   4.638  0.2657  0.0749  2.4816
 4189TIP3   OH233981   1.947   2.567   2.881  0.6596 -0.0113 -0.6737
 4189TIP3    H133982   2.021   2.515   2.913  2.3416  0.5380 -3.3498
 4189TIP3    H233983   1.987   2.631   2.822 -1.5861  2.8386  0.6818
 4190TIP3   OH233984   4.240   5.869   1.460  0.4557 -0.0823  0.2700
 4190TIP3    H133985   4.246   5.853   1.555  0.4913 -1.4865  0.0553
 4190TIP3    H233986   4.326   5.900   1.435 -0.3003  3.1373  1.1283
 4191TIP3   OH233987   0.034   3.731  11.730 -0.7298 -0.2141  0.2214
 4191TIP3    H133988   0.079   3.647  11.724 -1.5655 -0.6226 -0.5438
 4191TIP3    H233989   0.105   3.796  11.731 -0.1002 -0.7771 -2.0521
 4192TIP3   OH233990   3.818   0.865   0.663 -0.8079  0.3538 -0.1534
 4192TIP3    H133991   3.821   0.774   0.693 -0.0459 -0.4265 -2.4243
 4192TIP3    H233992   3.726   0.882   0.645 -1.3023  0.8591  2.4613
 4193TIP3   OH233993   3.946   5.911   5.861  0.5358  0.6057 -0.4104
 4193TIP3    H133994   3.951   5.821   5.829  0.8824  0.2450  0.6085
 4193TIP3    H233995   3.861   5.943   5.831  0.0603 -0.3362 -0.1005
 4194TIP3   OH233996   5.580   5.717   4.391  0.1233 -0.0454  1.3945
 4194TIP3    H133997   5.551   5.795   4.344  2.9948  1.7416  2.3457
 4194TIP3    H233998   5.500   5.681   4.430 -1.5736  1.2380 -0.6935
 4195TIP3   OH233999   0.049   6.602  12.985  0.1492  0.4123 -0.2713
 4195TIP3    H134000   0.019   6.555  12.907 -0.4757  0.9609 -0.3728
 4195TIP3    H234001   0.088   6.683  12.951  1.0465  0.0619 -0.0872
 4196TIP3   OH234002   6.513   6.749  11.425  0.4004 -0.2209 -0.1282
 4196TIP3    H134003   6.581   6.748  11.357  0.3444  0.2144 -0.1882
 4196TIP3    H234004   6.489   6.656  11.435  0.6370 -0.3222 -0.4708
 4197TIP3   OH234005   6.609   1.543   1.551  0.4375 -0.1910 -0.3166
 4197TIP3    H134006   6.528   1.492   1.559 -0.8156  1.4815 -1.6880
 4197TIP3    H234007   6.637   1.531   1.461  0.9499  0.3649 -0.2392
 4198TIP3   OH234008   5.572   2.154  13.385  0.0910  0.4084  0.4013
 4198TIP3    H134009   5.515   2.100  13.331  0.3897 -0.1092  0.5978
 4198TIP3    H234010   5.542   2.244  13.370  0.6875  0.3678 -1.2699
 4199TIP3   OH234011   1.477   4.737  16.989  0.0743  0.3769 -0.7707
 4199TIP3    H134012   1.407   4.760  17.051  0.4032 -1.0911  0.1732
 4199TIP3    H234013   1.461   4.795  16.913 -0.7020  1.7667  0.4026
 4200TIP3   OH234014   0.447   6.472   0.093 -0.1511  0.1236 -0.5338
 4200TIP3    H134015   0.387   6.416   0.141  0.7097 -0.8189 -0.5173
 4200TIP3    H234016   0.420   6.561   0.114 -0.7955 -0.2839  0.3978
 4201TIP3   OH234017   2.959   5.923   6.257 -0.0628 -0.3093 -0.2964
 4201TIP3    H134018   2.963   6.003   6.310  1.5312 -0.0006 -0.8046
 4201TIP3    H234019   3.022   5.864   6.298  0.2797 -0.5236 -1.1014
 4202TIP3   OH234020   5.283   1.702   0.529  0.2361 -0.4047 -0.2214
 4202TIP3    H134021   5.204   1.753   0.510  0.9472  0.9171  0.2771
 4202TIP3    H234022   5.254   1.611   0.522 -1.3154  0.0451 -0.1278
 4203TIP3   OH234023   1.040   2.227   4.132  0.4092  0.5815  0.0224
 4203TIP3    H134024   1.070   2.145   4.093 -0.8200 -0.6389  1.4829
 4203TIP3    H234025   0.954   2.243   4.092  0.2742  0.6796  0.3431
 4204TIP3   OH234026   6.277   5.892  13.014  0.2833  0.0164  0.0892
 4204TIP3    H134027   6.182   5.899  13.021  0.2304 -1.5933  1.9661
 4204TIP3    H234028   6.310   5.975  13.049 -0.3271  2.1657 -3.8041
 4205TIP3   OH234029   0.159   1.667  11.418  0.4564  0.4486 -0.3704
 4205TIP3    H134030   0.071   1.697  11.391 -0.9376 -1.1322  2.0449
 4205TIP3    H234031   0.199   1.745  11.457  0.6617  1.4957 -2.5115
 4206TIP3   OH234032   5.494   4.968  14.348  0.1925  0.1525 -0.3831
 4206TIP3    H134033   5.486   4.987  14.441  0.2338  1.5571 -0.6472
 4206TIP3    H234034   5.404   4.952  14.319 -0.0712  1.6518 -0.4689
 4207TIP3   OH234035   3.383   6.564   3.588 -0.3822  0.2136  1.1707
 4207TIP3    H134036   3.295   6.543   3.557  0.1819 -0.5173 -0.0202
 4207TIP3    H234037   3.401   6.651   3.553 -0.7734  0.5471  1.7728
 4208TIP3   OH234038   0.287   3.796  14.927  0.0532 -0.4991 -0.2231
 4208TIP3    H134039   0.361   3.844  14.889 -0.0615  1.6207  1.9770
 4208TIP3    H234040   0.326   3.744  14.997 -0.3937 -0.1449  0.2950
 4209TIP3   OH234041   0.625   0.332  15.910  0.2858  0.7131  0.4258
 4209TIP3    H134042   0.569   0.341  15.988 -0.8551  0.2802 -0.3209
 4209TIP3    H234043   0.690   0.402  15.920 -1.5697  2.5602  0.3679
 4210TIP3   OH234044   1.505   3.785   2.274 -0.3956  0.0632 -0.3509
 4210TIP3    H134045   1.450   3.847   2.227 -0.8733  1.3851  1.8139
 4210TIP3    H234046   1.445   3.743   2.337  0.5683 -0.2098  0.4096
 4211TIP3   OH234047   2.093   1.086   4.974  0.3487  0.0503  0.0774
 4211TIP3    H134048   2.102   1.053   4.885  1.0607 -1.2017  0.5932
 4211TIP3    H234049   2.057   1.174   4.963 -0.8032 -0.5584 -1.3822
 4212TIP3   OH234050   3.399   1.084   2.974  0.2564 -0.5077 -0.3201
 4212TIP3    H134051   3.313   1.120   2.953  0.5735 -0.4883 -1.6639
 4212TIP3    H234052   3.396   0.993   2.944  0.2772 -0.9066  0.8385
 4213TIP3   OH234053   1.827   3.094  15.441  0.7801 -0.0034  0.1317
 4213TIP3    H134054   1.784   3.015  15.411  0.2669  0.0420  0.7276
 4213TIP3    H234055   1.920   3.072  15.445  0.4046 -1.5540  3.1130
 4214TIP3   OH234056   1.546   2.622  14.896  0.8892  0.4220  0.0692
 4214TIP3    H134057   1.474   2.575  14.938 -0.0110  1.1582 -0.6075
 4214TIP3    H234058   1.624   2.571  14.918  0.2074 -0.2291  1.0617
 4215TIP3   OH234059   2.153   5.601   1.932 -0.1535 -0.5474 -0.6034
 4215TIP3    H134060   2.169   5.520   1.981  1.8028 -0.7048 -1.4414
 4215TIP3    H234061   2.057   5.608   1.930 -0.3427 -1.6874  1.3257
 4216TIP3   OH234062   6.032   1.732   3.583  0.2468  0.0825  0.3912
 4216TIP3    H134063   6.118   1.770   3.602 -0.3537  2.5800 -1.5182
 4216TIP3    H234064   6.049   1.671   3.511  0.3553  0.9242 -0.3025
 4217TIP3   OH234065   3.466   3.753  11.505  0.1625 -0.2812  0.2551
 4217TIP3    H134066   3.380   3.712  11.513 -0.6872  1.5071  1.0113
 4217TIP3    H234067   3.481   3.794  11.591  2.0176 -0.9539  0.3102
 4218TIP3   OH234068   5.245   1.719  13.893 -0.2288 -0.4022 -0.2678
 4218TIP3    H134069   5.172   1.665  13.922  0.1305 -0.4788  0.5438
 4218TIP3    H234070   5.292   1.741  13.974  0.7234 -0.4785 -0.7819
 4219TIP3   OH234071   3.664   2.905   4.859 -0.3694 -0.1287 -0.1727
 4219TIP3    H134072   3.616   2.860   4.928 -0.9623  0.6941 -0.0382
 4219TIP3    H234073   3.716   2.836   4.817 -1.4542 -0.9834 -0.1477
 4220TIP3   OH234074   5.237   3.936   5.127 -0.0628 -0.3199  0.1411
 4220TIP3    H134075   5.201   3.990   5.056 -0.8859 -2.4420 -1.1826
 4220TIP3    H234076   5.167   3.934   5.193 -1.5288 -2.4182 -1.3302
 4221TIP3   OH234077   6.807   6.799   0.018  0.2791  0.7498  0.4078
 4221TIP3    H134078   6.725   6.772  -0.022  0.6363 -0.5459  0.5004
 4221TIP3    H234079   6.818   6.739   0.092  1.7272  0.3390 -0.1144
 4222TIP3   OH234080   6.669   0.746  16.559 -0.3823 -0.4159 -0.5566
 4222TIP3    H134081   6.737   0.813  16.562 -0.8201  0.0583 -0.9666
 4222TIP3    H234082   6.693   0.685  16.628 -1.7998  1.9516  2.2908
 4223TIP3   OH234083   0.317   3.722  13.568  0.1253  0.0718 -0.5737
 4223TIP3    H134084   0.400   3.765  13.586  0.1362  0.5743 -1.7406
 4223TIP3    H234085   0.258   3.755  13.636  0.8191 -0.1639  0.1594
 4224TIP3   OH234086   4.993   5.167   0.385 -0.4296  0.6228 -0.2280
 4224TIP3    H134087   5.064   5.153   0.447 -0.5528 -2.1200 -0.6163
 4224TIP3    H234088   5.037   5.176   0.300 -0.4799 -1.0113 -0.4590
 4225TIP3   OH234089   1.151   3.199   1.448  0.0617 -0.4100  0.2877
 4225TIP3    H134090   1.089   3.245   1.392  0.8575 -1.8839 -1.9629
 4225TIP3    H234091   1.237   3.228   1.417  0.6920  2.2716  3.9080
 4226TIP3   OH234092   4.119   2.747   3.239 -0.7117  0.1254 -0.3297
 4226TIP3    H134093   4.062   2.796   3.298 -0.0056  0.3535  0.1872
 4226TIP3    H234094   4.088   2.768   3.151 -0.9294  0.8687 -0.0815
 4227TIP3   OH234095   0.486   1.525   1.043 -0.0135  0.0603 -0.7806
 4227TIP3    H134096   0.519   1.435   1.049  0.9287  0.4398 -0.1119
 4227TIP3    H234097   0.456   1.546   1.131 -1.2828  0.0253 -1.1848
 4228TIP3   OH234098   1.053   1.223   2.843 -0.2672  0.4099 -0.1526
 4228TIP3    H134099   1.029   1.315   2.834 -4.5800 -0.4648  0.4460
 4228TIP3    H234100   0.999   1.177   2.779 -1.1359 -2.0266  2.1598
 4229TIP3   OH234101   2.568   3.890  16.526 -0.6066 -0.0399  0.7919
 4229TIP3    H134102   2.495   3.928  16.477 -1.2167 -1.0487  0.8804
 4229TIP3    H234103   2.569   3.798  16.498 -0.7026 -0.5434  2.3434
 4230TIP3   OH234104   3.096   2.601   4.746 -0.1271  0.1680  0.4114
 4230TIP3    H134105   3.029   2.642   4.691 -0.1156  1.1023  1.0719
 4230TIP3    H234106   3.068   2.510   4.753 -0.9455  0.3793  0.0943
 4231TIP3   OH234107   4.892   1.621   4.444 -0.3030 -0.1951 -0.4006
 4231TIP3    H134108   4.926   1.683   4.379  0.1934  0.7708  0.7457
 4231TIP3    H234109   4.963   1.611   4.507 -1.9920  1.7599  1.9987
 4232TIP3   OH234110   4.103   2.769  11.852 -0.8321  0.1431  0.0806
 4232TIP3    H134111   4.138   2.858  11.848  0.3160 -0.1629  1.9002
 4232TIP3    H234112   4.009   2.781  11.861 -0.6927  1.1792  0.2859
 4233TIP3   OH234113   4.386   0.243  15.749 -0.3114 -0.1157 -0.0686
 4233TIP3    H134114   4.389   0.328  15.793 -2.3136  0.4323 -0.8924
 4233TIP3    H234115   4.445   0.252  15.674 -0.5599  0.5481 -0.1797
 4234TIP3   OH234116   1.285   1.312   4.808  0.0380  0.1908 -0.1921
 4234TIP3    H134117   1.289   1.367   4.886 -1.8555  0.0596  0.0492
 4234TIP3    H234118   1.263   1.372   4.737  0.8649  0.1697 -0.4800
 4235TIP3   OH234119   1.485   5.124  16.928 -0.6898 -0.6089 -0.1829
 4235TIP3    H134120   1.433   5.150  17.004  0.0943 -1.8362  0.8057
 4235TIP3    H234121   1.463   5.189  16.861 -1.1650  0.7024  1.1831
 4236TIP3   OH234122   0.222   3.235   1.618 -0.2673  0.5243 -0.2610
 4236TIP3    H134123   0.192   3.168   1.557 -0.2302 -0.3191  0.6305
 4236TIP3    H234124   0.238   3.189   1.700 -1.3336  1.8116  0.7186
 4237TIP3   OH234125   2.102   3.434  12.549 -0.0248  0.1436 -0.3575
 4237TIP3    H134126   2.104   3.488  12.628 -0.3860 -0.4366  0.0532
 4237TIP3    H234127   2.014   3.445  12.514  0.4171  1.1577 -1.2310
 4238TIP3   OH234128   5.429   5.468  13.892 -0.1443 -0.0274 -0.0997
 4238TIP3    H134129   5.522   5.449  13.881  0.2250  1.3859  0.3031
 4238TIP3    H234130   5.427   5.561  13.916 -1.5572 -0.3882  1.3231
 4239TIP3   OH234131   5.636   6.223  13.119 -0.0595 -0.0536 -0.7665
 4239TIP3    H134132   5.570   6.284  13.153 -0.3622 -0.5392 -0.4649
 4239TIP3    H234133   5.699   6.212  13.190  0.6658  0.8461 -1.2552
 4240TIP3   OH234134   2.726   6.213  15.826  0.4669  0.1464 -0.0695
 4240TIP3    H134135   2.751   6.301  15.800 -1.6829  0.7991 -0.0791
 4240TIP3    H234136   2.741   6.159  15.748 -1.4853  1.1912 -1.2266
 4241TIP3   OH234137   5.466   4.192  13.990 -0.4753  0.4928 -0.1912
 4241TIP3    H134138   5.519   4.151  14.059 -0.4561  1.0937  0.1673
 4241TIP3    H234139   5.526   4.251  13.945 -0.4659  0.0281 -0.7904
 4242TIP3   OH234140   2.433   5.209  11.261 -0.1586  0.1325  0.3925
 4242TIP3    H134141   2.495   5.193  11.190 -0.8965 -1.5856  0.0984
 4242TIP3    H234142   2.487   5.207  11.340  0.0358 -2.8133  0.2848
 4243TIP3   OH234143   4.770   2.798  13.014 -0.1110 -0.3378  0.3342
 4243TIP3    H134144   4.695   2.853  12.993  0.4790  0.8654  1.2373
 4243TIP3    H234145   4.735   2.709  13.019 -1.7377  0.3399  1.9455
 4244TIP3   OH234146   0.978   3.105  16.265  0.0008  0.6769  0.4902
 4244TIP3    H134147   0.918   3.179  16.278 -1.9147 -0.4364 -1.4534
 4244TIP3    H234148   1.039   3.136  16.198 -0.7185  0.5562 -0.2291
 4245TIP3   OH234149   2.728   0.594  11.007 -0.4637  0.1572  0.2980
 4245TIP3    H134150   2.706   0.661  10.943 -0.2415  0.8770  0.9609
 4245TIP3    H234151   2.823   0.582  10.997 -0.9661 -2.8673 -2.4866
 4246TIP3   OH234152   4.152   3.113  12.837 -0.3281  0.4546 -0.4906
 4246TIP3    H134153   4.130   3.020  12.842  0.0405  0.3847 -0.0784
 4246TIP3    H234154   4.219   3.118  12.769  0.6608  0.2068  0.4267
 4247TIP3   OH234155   4.256   3.058  12.468  0.0176 -0.2070  0.1566
 4247TIP3    H134156   4.213   3.014  12.395  1.1691 -2.0886  0.5328
 4247TIP3    H234157   4.232   3.150  12.459  0.9197 -0.1632 -3.2060
 4248TIP3   OH234158   0.967   0.339  12.586  0.2463  0.1269  0.3497
 4248TIP3    H134159   0.926   0.287  12.517  1.9637  0.9614 -1.3843
 4248TIP3    H234160   1.059   0.311  12.585  0.5571  1.0411  1.4764
 4249TIP3   OH234161   4.003   3.195   5.415 -0.1890  0.2718  0.5203
 4249TIP3    H134162   4.067   3.224   5.480  0.4777  1.1148 -0.4928
 4249TIP3    H234163   3.918   3.211   5.457  0.1713  2.7074  0.4678
 4250TIP3   OH234164   0.113   5.921   3.958 -0.1893  0.3706  0.2575
 4250TIP3    H134165   0.117   5.888   3.868 -0.0357  0.8832  0.0657
 4250TIP3    H234166   0.026   5.960   3.966 -0.8836 -1.2568  0.9231
 4251TIP3   OH234167   3.122   4.569   5.188  0.2246 -0.0068  0.5716
 4251TIP3    H134168   3.027   4.567   5.176  0.0991 -0.1989  1.4918
 4251TIP3    H234169   3.153   4.636   5.127 -0.2676 -1.3047 -1.1773
 4252TIP3   OH234170   5.372   6.634   5.407 -0.8826  0.1133  0.3953
 4252TIP3    H134171   5.439   6.675   5.352  0.0216 -0.9025  0.7054
 4252TIP3    H234172   5.300   6.697   5.407 -0.2426  0.8886 -0.5759
 4253TIP3   OH234173   3.668   4.643   2.685  0.0451  0.3451 -0.4599
 4253TIP3    H134174   3.607   4.716   2.690 -1.6364 -0.9910 -0.3885
 4253TIP3    H234175   3.667   4.605   2.773  0.3661 -0.1592 -0.6650
 4254TIP3   OH234176   1.037   2.372   1.840 -0.4927  0.0716  0.2584
 4254TIP3    H134177   1.014   2.442   1.779  0.9293  3.0696  2.8781
 4254TIP3    H234178   0.983   2.298   1.812 -3.2747  2.6177 -1.7981
 4255TIP3   OH234179   6.041   5.076   2.789 -0.3646 -0.2688 -0.0514
 4255TIP3    H134180   6.115   5.035   2.834  0.4509  0.1488 -0.9728
 4255TIP3    H234181   6.035   5.163   2.828  0.4168  0.1357 -0.8101
 4256TIP3   OH234182   2.740   5.028   0.671  0.5352 -0.1478 -0.5308
 4256TIP3    H134183   2.815   5.009   0.615 -0.0018 -0.9029 -1.0200
 4256TIP3    H234184   2.703   5.109   0.637  1.7729  0.8400  0.4127
 4257TIP3   OH234185   3.273   6.528   5.790 -0.2336  0.3204 -0.1126
 4257TIP3    H134186   3.235   6.525   5.878 -0.0433 -1.1447 -0.0553
 4257TIP3    H234187   3.198   6.545   5.733 -0.8152 -1.3682  0.1052
 4258TIP3   OH234188   1.181   5.284   3.080 -0.7133  0.2587  0.0027
 4258TIP3    H134189   1.121   5.311   3.151 -2.1123  0.5451 -1.2452
 4258TIP3    H234190   1.253   5.347   3.086 -1.3170  0.9285  0.5300
 4259TIP3   OH234191   6.290   5.553   6.357 -0.2121  0.2520 -0.1423
 4259TIP3    H134192   6.287   5.637   6.401  1.1025  0.3381 -0.1782
 4259TIP3    H234193   6.373   5.514   6.384 -1.7195 -2.0214  1.6236
 4260TIP3   OH234194   1.124   2.328   4.503 -0.5500  0.0113 -0.6323
 4260TIP3    H134195   1.155   2.413   4.534  2.5032 -1.4315  0.7130
 4260TIP3    H234196   1.203   2.273   4.502 -2.6162 -3.2041 -0.1032
 4261TIP3   OH234197   4.907   6.329  13.968 -0.5098 -0.1364  0.3329
 4261TIP3    H134198   4.970   6.399  13.952 -2.6039  2.4260  2.3528
 4261TIP3    H234199   4.856   6.324  13.888  0.9157 -0.8063 -0.5627
 4262TIP3   OH234200   2.228   1.432  13.843  0.1778  0.0048 -0.1105
 4262TIP3    H134201   2.245   1.481  13.923 -0.7699 -0.6286  0.5030
 4262TIP3    H234202   2.161   1.368  13.868  1.1468 -1.3866 -0.9614
 4263TIP3   OH234203   3.520   2.929  14.471  0.6568  0.0087 -0.2795
 4263TIP3    H134204   3.521   3.017  14.434 -1.1622 -0.6604 -2.0940
 4263TIP3    H234205   3.431   2.917  14.503  1.6866 -0.1146  2.8918
 4264TIP3   OH234206   3.943   6.545  16.285  0.3099 -0.0476  0.5493
 4264TIP3    H134207   3.920   6.562  16.376 -0.5890  0.6443  0.2147
 4264TIP3    H234208   3.925   6.628  16.241 -1.4725 -1.0390 -0.6712
 4265TIP3   OH234209   0.793   0.484   0.851 -0.5656 -1.0628 -0.0105
 4265TIP3    H134210   0.734   0.482   0.776 -1.2709  0.8385  0.4240
 4265TIP3    H234211   0.841   0.567   0.842  1.1507 -1.9777  0.3211
 4266TIP3   OH234212   5.124   5.967   4.628 -0.4476 -0.3770 -0.1742
 4266TIP3    H134213   5.199   5.941   4.574 -0.2797  2.5113 -1.5696
 4266TIP3    H234214   5.160   6.029   4.691 -1.5279  0.8124 -0.6583
 4267TIP3   OH234215   1.825   0.521  12.899 -0.4019 -0.5294  0.3744
 4267TIP3    H134216   1.769   0.487  12.969 -2.0245 -0.1356 -0.6835
 4267TIP3    H234217   1.818   0.616  12.908 -0.3593 -0.4799 -0.1294
 4268TIP3   OH234218   6.432   5.706   2.548  0.4626  0.0127 -0.3030
 4268TIP3    H134219   6.428   5.630   2.490  2.2001  0.0912 -0.5694
 4268TIP3    H234220   6.520   5.741   2.535  0.5839  0.5622  1.7385
 4269TIP3   OH234221   5.579   6.685   3.249  0.0292  0.1465  0.0807
 4269TIP3    H134222   5.588   6.778   3.270 -1.0180  0.1368  0.6633
 4269TIP3    H234223   5.495   6.679   3.202  0.2520 -0.4547 -0.2518
 4270TIP3   OH234224   1.725   4.788  12.007 -0.1070 -0.2298  0.0654
 4270TIP3    H134225   1.712   4.693  12.009 -0.1996 -0.2077  1.3050
 4270TIP3    H234226   1.694   4.818  12.092  0.8537  0.7859  0.0823
 4271TIP3   OH234227   2.599   0.663   3.041  0.3836  0.1393  0.4309
 4271TIP3    H134228   2.569   0.701   2.959 -0.0110 -2.6885 -0.8708
 4271TIP3    H234229   2.560   0.717   3.109 -0.0126  2.0361 -1.2192
 4272TIP3   OH234230   3.060   0.106  13.036  0.4274 -0.2361  0.4352
 4272TIP3    H134231   3.037   0.142  13.122 -0.6229  0.3631 -0.0752
 4272TIP3    H234232   3.055   0.181  12.977 -1.7461 -1.1531 -0.6477
 4273TIP3   OH234233   3.224   0.506   0.041 -0.8115 -0.3457 -0.3866
 4273TIP3    H134234   3.285   0.453  -0.010 -1.2056  0.3126 -1.5817
 4273TIP3    H234235   3.181   0.444   0.100 -0.4999 -1.1651 -1.0106
 4274TIP3   OH234236   3.389   1.431  11.170  0.5631  0.1735 -0.6029
 4274TIP3    H134237   3.403   1.396  11.259 -1.1499 -1.1952 -0.7944
 4274TIP3    H234238   3.435   1.370  11.113 -1.2152 -1.0555 -0.8344
 4275TIP3   OH234239   5.180   4.230  13.102 -0.2184 -0.0248 -0.5242
 4275TIP3    H134240   5.208   4.316  13.135 -0.6277 -0.0203 -0.1810
 4275TIP3    H234241   5.200   4.232  13.009  3.3115 -0.9153  0.0555
 4276TIP3   OH234242   6.648   4.720   2.234 -0.3172  0.6151  0.0136
 4276TIP3    H134243   6.733   4.727   2.277 -0.7027 -2.0329  1.4192
 4276TIP3    H234244   6.668   4.705   2.142  0.6146  2.5039 -0.1469
 4277TIP3   OH234245   0.934   3.655   1.457 -0.3714  0.4687  0.9961
 4277TIP3    H134246   0.852   3.703   1.447 -0.0732  0.5945 -1.8229
 4277TIP3    H234247   0.966   3.644   1.367  1.8757 -1.0203  1.8863
 4278TIP3   OH234248   4.582   6.292  14.534 -0.6481  0.4034  0.0249
 4278TIP3    H134249   4.654   6.355  14.529 -1.2273  1.0386 -0.5433
 4278TIP3    H234250   4.611   6.219  14.479  0.4352 -0.2848  1.4407
 4279TIP3   OH234251   5.926   5.096  14.701 -0.7706  0.2339 -0.0292
 4279TIP3    H134252   5.860   5.027  14.709 -1.4369  0.4027 -3.1294
 4279TIP3    H234253   6.004   5.052  14.667 -0.2379  0.5666  0.7197
 4280TIP3   OH234254   5.030   2.470   4.289 -0.1670  0.2882 -0.4550
 4280TIP3    H134255   5.092   2.411   4.246 -0.1352 -0.7631  0.9398
 4280TIP3    H234256   4.986   2.516   4.218 -0.3795 -1.6284 -1.6303
 4281TIP3   OH234257   2.465   4.096   4.367  0.4569 -0.2886 -0.1691
 4281TIP3    H134258   2.462   4.053   4.453 -1.3825 -0.2098 -0.1561
 4281TIP3    H234259   2.374   4.118   4.348  1.2151  3.4281 -0.2888
 4282TIP3   OH234260   6.719   5.286   4.516  0.0406  0.4289  0.1335
 4282TIP3    H134261   6.761   5.201   4.507 -0.0690  0.3704  0.1725
 4282TIP3    H234262   6.633   5.267   4.553  0.3476  0.6323  0.9793
 4283TIP3   OH234263   3.690   4.736  13.143  0.5529 -0.0033 -0.8233
 4283TIP3    H134264   3.671   4.827  13.163  1.7474 -0.0882  0.8850
 4283TIP3    H234265   3.721   4.737  13.053 -0.8129  1.0509 -1.3149
 4284TIP3   OH234266   3.818   1.668   5.727  0.1915  0.6270 -0.3111
 4284TIP3    H134267   3.737   1.718   5.726 -0.2198  0.1088  1.7934
 4284TIP3    H234268   3.791   1.577   5.712  0.5852  0.6495 -1.1979
 4285TIP3   OH234269   2.878   4.221  13.898  0.1566  0.2811  0.7322
 4285TIP3    H134270   2.899   4.263  13.982  1.5263  0.1078  0.4958
 4285TIP3    H234271   2.821   4.284  13.854  1.7823  1.7312  0.5845
 4286TIP3   OH234272   5.536   2.726  16.356 -0.1806  0.2287 -0.5295
 4286TIP3    H134273   5.503   2.716  16.267  2.4165  0.5195 -1.5994
 4286TIP3    H234274   5.586   2.646  16.372  2.6367  1.7896 -0.9058
 4287TIP3   OH234275   1.014   1.078   6.081 -0.2931 -0.0902 -1.0263
 4287TIP3    H134276   0.944   1.122   6.033 -0.2078  3.0912  1.3713
 4287TIP3    H234277   1.092   1.129   6.061 -0.1910  1.1180  1.9291
 4288TIP3   OH234278   1.290   0.457  15.503 -0.4674 -0.0509 -0.0685
 4288TIP3    H134279   1.299   0.434  15.596 -2.3032  0.0139  0.1630
 4288TIP3    H234280   1.204   0.423  15.478 -0.7537  1.4497 -1.2826
 4289TIP3   OH234281   6.414   5.166   3.322  0.5379  0.0003 -0.0920
 4289TIP3    H134282   6.381   5.096   3.378 -1.5340  0.4570 -0.6600
 4289TIP3    H234283   6.508   5.171   3.342  0.6276 -2.5094  0.3661
 4290TIP3   OH234284   5.342   2.201  14.844 -0.2718 -0.0736  0.8688
 4290TIP3    H134285   5.363   2.258  14.769 -0.0497  0.9273  1.6780
 4290TIP3    H234286   5.360   2.255  14.921 -0.9049 -0.9528  1.6471
 4291TIP3   OH234287   5.881   0.239   1.173 -0.2038  0.0091 -0.4077
 4291TIP3    H134288   5.891   0.146   1.190  1.6301  0.3914  0.9585
 4291TIP3    H234289   5.915   0.282   1.252 -1.4815  1.8419 -0.7736
 4292TIP3   OH234290   4.623   4.009   3.181  0.0985 -0.0264  0.2087
 4292TIP3    H134291   4.658   4.058   3.107 -1.5217  0.7415 -0.0905
 4292TIP3    H234292   4.543   3.969   3.148 -0.5135  0.1104  1.4444
 4293TIP3   OH234293   0.886   6.476  12.840 -0.4609  0.5849  0.3232
 4293TIP3    H134294   0.973   6.486  12.801 -0.4926  0.4836  0.2268
 4293TIP3    H234295   0.826   6.489  12.767 -0.4945 -1.8188 -0.1561
 4294TIP3   OH234296   1.956   0.942   0.279 -0.6648  0.2290 -0.3301
 4294TIP3    H134297   1.930   0.938   0.372 -1.6963  1.0294 -0.5753
 4294TIP3    H234298   1.939   0.854   0.247  0.6771 -0.3638  0.4721
 4295TIP3   OH234299   3.205   2.699   2.652 -0.2140 -0.2047  0.0809
 4295TIP3    H134300   3.110   2.691   2.661 -0.1844 -1.9049 -0.7217
 4295TIP3    H234301   3.219   2.792   2.632 -1.6678  0.1345  0.4930
 4296TIP3   OH234302   3.337   6.057  11.944  0.3956  0.3942 -0.2295
 4296TIP3    H134303   3.433   6.064  11.946  0.2808  2.6604  1.6249
 4296TIP3    H234304   3.314   6.038  12.035 -0.8732 -2.6028 -1.0582
 4297TIP3   OH234305   2.821   5.056  15.345 -0.0315 -0.0601 -0.4184
 4297TIP3    H134306   2.915   5.071  15.328 -0.1816  0.4706 -0.8198
 4297TIP3    H234307   2.794   5.132  15.397 -0.2556 -0.1771 -0.3643
 4298TIP3   OH234308   4.962   6.469   3.185 -0.0276 -0.2863 -0.6659
 4298TIP3    H134309   4.928   6.380   3.175  0.8442 -0.7899  0.5127
 4298TIP3    H234310   4.908   6.522   3.128 -1.1654 -1.4299 -0.7076
 4299TIP3   OH234311   6.006   4.208  12.617  0.3762 -0.4999  0.8209
 4299TIP3    H134312   6.085   4.157  12.631 -0.1863 -1.3929  0.7958
 4299TIP3    H234313   5.973   4.226  12.705  0.6434 -0.0679  0.8332
 4300TIP3   OH234314   4.306   4.353  11.953  0.3168 -0.8621  0.3358
 4300TIP3    H134315   4.311   4.444  11.924  1.3264  0.1142  3.1985
 4300TIP3    H234316   4.213   4.331  11.945  0.1508  0.1860 -1.0057
 4301TIP3   OH234317   0.939   5.227   4.825 -1.0420 -0.0215  0.3272
 4301TIP3    H134318   0.900   5.194   4.744 -1.8157  0.5242  0.4657
 4301TIP3    H234319   0.939   5.153   4.885 -1.0014 -0.2720  0.0156
 4302TIP3   OH234320   6.253   6.358   2.227  0.1990 -0.1387 -0.1885
 4302TIP3    H134321   6.206   6.302   2.289  0.5999 -0.3791 -0.1039
 4302TIP3    H234322   6.327   6.392   2.277 -0.4914  1.1284  0.0189
 4303TIP3   OH234323   5.545   6.480  13.238 -0.5543  0.6907 -0.0634
 4303TIP3    H134324   5.487   6.556  13.241  0.4157  1.4722 -0.4698
 4303TIP3    H234325   5.584   6.483  13.151 -1.9727 -1.4342 -0.8559
 4304TIP3   OH234326   1.687   5.721  15.314 -0.1677 -0.3281  0.0060
 4304TIP3    H134327   1.722   5.751  15.399 -1.2628 -1.1294  0.7607
 4304TIP3    H234328   1.765   5.706  15.261  0.5045  1.9924  0.1996
 4305TIP3   OH234329   5.622   0.570  16.575  0.7114  0.2894  0.1308
 4305TIP3    H134330   5.619   0.659  16.540  2.3506  0.4898  0.4406
 4305TIP3    H234331   5.666   0.518  16.507  2.3491  0.3305  1.1101
 4306TIP3   OH234332   5.727   2.944   4.570  0.7867 -0.2672  0.5030
 4306TIP3    H134333   5.679   3.003   4.512  3.5239  1.4890 -0.1540
 4306TIP3    H234334   5.678   2.946   4.652 -1.9615 -1.0971 -0.9780
 4307TIP3   OH234335   4.315   4.189  11.032 -0.2891 -0.0498 -0.1005
 4307TIP3    H134336   4.393   4.243  11.019 -1.4756  2.1096  1.1949
 4307TIP3    H234337   4.256   4.214  10.961 -0.8108  0.2985  0.4508
 4308TIP3   OH234338   2.756   3.162  14.822 -0.0747 -0.8288 -0.0768
 4308TIP3    H134339   2.698   3.102  14.776 -0.6483 -1.3285  1.2370
 4308TIP3    H234340   2.739   3.248  14.782 -2.4070 -0.7942  0.8551
 4309TIP3   OH234341   1.905   4.940  10.944  0.1977 -0.8356  0.2681
 4309TIP3    H134342   1.861   4.856  10.936  1.5480 -1.6394  0.9818
 4309TIP3    H234343   1.963   4.930  11.019  1.3205  0.2981 -0.4128
 4310TIP3   OH234344   0.547   3.018   5.517 -0.0325 -0.3092 -0.2752
 4310TIP3    H134345   0.634   2.977   5.517 -0.1447 -0.5756  0.6313
 4310TIP3    H234346   0.564   3.112   5.523  0.2110 -0.2499 -1.5844
 4311TIP3   OH234347   0.014   1.256   4.175  0.2401 -0.5656  0.4502
 4311TIP3    H134348   0.000   1.246   4.081 -0.8587 -1.0317  0.6433
 4311TIP3    H234349   0.090   1.314   4.182  0.9494 -1.3018 -0.7217
 4312TIP3   OH234350   2.527   0.287   3.164  0.0830 -0.4623 -0.2504
 4312TIP3    H134351   2.610   0.335   3.171  0.1932 -0.8140  0.9773
 4312TIP3    H234352   2.495   0.309   3.077 -0.2400  2.4846  0.5000
 4313TIP3   OH234353   3.656   6.793   0.402  0.0105  0.5336 -0.9316
 4313TIP3    H134354   3.737   6.747   0.426 -0.1499 -0.0104 -1.4285
 4313TIP3    H234355   3.635   6.844   0.480  0.7738  0.5989 -0.7543
 4314TIP3   OH234356   4.745   0.008  10.777 -0.3730 -1.2030 -0.0774
 4314TIP3    H134357   4.686  -0.052  10.731 -2.2608  0.6759 -0.2617
 4314TIP3    H234358   4.811   0.032  10.711 -2.3337  0.5006 -1.5547
 4315TIP3   OH234359   5.213   1.141  10.806  0.6617 -0.0340 -0.1494
 4315TIP3    H134360   5.234   1.232  10.785 -0.8098  0.4686  0.4606
 4315TIP3    H234361   5.295   1.094  10.792  1.9837  1.6843  1.3824
 4316TIP3   OH234362   4.133   5.137   4.378  0.5369 -0.5322 -0.3728
 4316TIP3    H134363   4.207   5.198   4.375 -1.3466  1.8844 -0.4873
 4316TIP3    H234364   4.076   5.171   4.446 -1.0970 -1.5784 -1.1569
 4317TIP3   OH234365   2.012   0.698   4.522  0.1236 -0.0573  0.6668
 4317TIP3    H134366   2.099   0.725   4.491 -0.1127 -1.3086 -1.2620
 4317TIP3    H234367   1.973   0.653   4.447 -1.9982  0.0040  1.6756
 4318TIP3   OH234368   1.102   5.112   1.057 -0.1499  0.0279 -0.3379
 4318TIP3    H134369   1.152   5.073   0.985  0.1543 -1.5612  0.6804
 4318TIP3    H234370   1.168   5.156   1.111  0.0640 -1.2323  0.4761
 4319TIP3   OH234371   2.004   1.521  10.871  0.2533 -0.0977  0.0101
 4319TIP3    H134372   2.014   1.426  10.873 -0.9679 -0.2371 -0.1564
 4319TIP3    H234373   2.038   1.546  10.785  1.6716 -0.2253  0.4996
 4320TIP3   OH234374   0.771   4.315  15.984 -0.2208 -0.1043  0.2704
 4320TIP3    H134375   0.803   4.398  16.020  0.9432 -0.4880  0.1648
 4320TIP3    H234376   0.698   4.291  16.041 -2.0814  2.0805 -1.0145
 4321TIP3   OH234377   0.743   6.289   5.328  0.0895 -0.1967 -0.7019
 4321TIP3    H134378   0.826   6.263   5.288  0.9475  1.3948 -0.0449
 4321TIP3    H234379   0.747   6.252   5.416 -0.3171 -0.8891 -0.9690
 4322TIP3   OH234380   0.751   2.376  16.835 -0.0643  0.0329  0.0060
 4322TIP3    H134381   0.755   2.470  16.849  1.4219 -0.2853  2.1781
 4322TIP3    H234382   0.766   2.365  16.741  3.0480  1.8665  0.1571
 4323TIP3   OH234383   5.993   2.086  12.615  0.9457 -0.7011  0.3715
 4323TIP3    H134384   6.008   2.121  12.527  0.7740 -0.8508  0.2830
 4323TIP3    H234385   5.954   2.000  12.601 -0.7815 -0.0091  0.5826
 4324TIP3   OH234386   2.861   3.509  11.054  0.1321  0.6486 -0.3877
 4324TIP3    H134387   2.947   3.527  11.015  0.3814  1.1165  0.3721
 4324TIP3    H234388   2.809   3.586  11.033 -0.5498 -0.2046 -2.0346
 4325TIP3   OH234389   2.726   2.150  12.972 -0.5606  0.0090 -0.3515
 4325TIP3    H134390   2.698   2.242  12.963  1.2824  0.6769  0.3977
 4325TIP3    H234391   2.723   2.134  13.066  1.2967  0.0397 -0.2650
 4326TIP3   OH234392   4.204   5.439   2.289 -0.6383 -0.1909  0.0851
 4326TIP3    H134393   4.284   5.489   2.269 -0.3947 -0.5135  0.2380
 4326TIP3    H234394   4.138   5.506   2.308  0.1045  0.0640  1.9406
 4327TIP3   OH234395   2.973   5.484   1.891 -0.2068  0.1586 -0.1579
 4327TIP3    H134396   3.008   5.418   1.831 -1.0463  1.3985 -2.1146
 4327TIP3    H234397   2.920   5.434   1.953  2.2949 -1.3840  0.8852
 4328TIP3   OH234398   4.311   4.144   0.182 -0.6056  0.0277 -0.7366
 4328TIP3    H134399   4.319   4.188   0.266  0.4957 -0.7119 -0.4219
 4328TIP3    H234400   4.321   4.214   0.117 -1.8805  0.6627 -0.2686
 4329TIP3   OH234401   3.566   1.627  16.767 -0.3852 -0.4159  0.4718
 4329TIP3    H134402   3.626   1.599  16.836 -0.9070  1.5426  1.8031
 4329TIP3    H234403   3.497   1.561  16.766  0.8478 -1.7388  0.1359
 4330TIP3   OH234404   2.727   4.799  14.568  0.0841 -0.4395  0.5414
 4330TIP3    H134405   2.726   4.802  14.664  0.1367  0.0688  0.5315
 4330TIP3    H234406   2.820   4.796  14.546  0.3038  2.7805  0.4606
 4331TIP3   OH234407   4.204   1.327   6.432 -0.0770 -0.0935  0.2828
 4331TIP3    H134408   4.253   1.247   6.452 -0.6809 -0.4709  0.2928
 4331TIP3    H234409   4.268   1.385   6.391  0.5324 -0.3176  0.9031
 4332TIP3   OH234410   4.033   2.786   3.506  0.3130 -0.2417 -0.0501
 4332TIP3    H134411   4.119   2.746   3.494  0.2663 -0.9605  1.8442
 4332TIP3    H234412   3.972   2.713   3.511 -0.3799  0.2504 -0.8684
 4333TIP3   OH234413   4.921   0.773   4.544 -0.3406 -0.0800 -0.0216
 4333TIP3    H134414   4.878   0.807   4.466  0.0305  0.1248 -0.1401
 4333TIP3    H234415   4.854   0.720   4.588 -1.0347  1.0796  0.3513
 4334TIP3   OH234416   5.370   1.179   2.163  0.2558  0.3726  0.1614
 4334TIP3    H134417   5.407   1.264   2.187 -0.4567  0.9998 -0.8931
 4334TIP3    H234418   5.314   1.157   2.237  0.2847  0.9250  0.3573
 4335TIP3   OH234419   3.629   0.916  13.060  0.0902  0.5577 -0.2493
 4335TIP3    H134420   3.666   0.977  12.996  1.0055 -0.5208 -0.7784
 4335TIP3    H234421   3.663   0.947  13.144 -1.5516  2.3056 -0.1485
 4336TIP3   OH234422   2.340   1.066  12.710  0.7597 -0.8354  0.1793
 4336TIP3    H134423   2.399   1.029  12.643  1.0665 -0.2273  0.1065
 4336TIP3    H234424   2.367   1.023  12.791  1.2026 -0.6792  0.1182
 4337TIP3   OH234425   6.562   2.562   6.023 -0.0134 -0.1432 -0.8197
 4337TIP3    H134426   6.541   2.643   6.068 -0.3150 -1.6463  1.9702
 4337TIP3    H234427   6.522   2.493   6.077  2.1306 -2.3162 -1.7956
 4338TIP3   OH234428   0.954   1.965   1.207  0.2874 -0.0473 -0.2059
 4338TIP3    H134429   0.895   1.932   1.275  0.1749  0.2667 -0.1495
 4338TIP3    H234430   0.979   1.887   1.157 -0.5629 -0.1189 -0.5378
 4339TIP3   OH234431   2.927   5.099  11.051  0.0323 -0.8808  0.3839
 4339TIP3    H134432   2.942   5.072  11.141  0.2935 -2.6710 -0.1591
 4339TIP3    H234433   2.973   5.033  10.998 -0.8228 -0.3595 -1.0650
 4340TIP3   OH234434   3.091   2.015  14.420  0.5540 -0.0204  0.5578
 4340TIP3    H134435   3.107   1.920  14.423  2.4401  0.1854 -0.9235
 4340TIP3    H234436   3.066   2.032  14.329 -2.7199  0.5713  1.4485
 4341TIP3   OH234437   5.902   2.832  15.866 -0.2613 -0.1086 -0.2902
 4341TIP3    H134438   5.872   2.744  15.889  0.5559 -0.4770 -0.6012
 4341TIP3    H234439   5.830   2.889  15.891 -0.7808 -0.8624 -0.0347
 4342TIP3   OH234440   4.029   5.228   0.309  0.3459  0.2373 -0.0149
 4342TIP3    H134441   4.068   5.237   0.396  0.3543 -2.0705  0.2596
 4342TIP3    H234442   4.098   5.259   0.249  0.3603  1.7955  0.7490
 4343TIP3   OH234443   1.352   1.647   3.901  0.0531  0.6073 -0.6639
 4343TIP3    H134444   1.405   1.726   3.899  1.9728 -0.4539  2.1914
 4343TIP3    H234445   1.402   1.583   3.850  1.5814 -0.3107  1.7955
 4344TIP3   OH234446   5.528   6.576   2.436 -0.0070 -0.5158  0.0961
 4344TIP3    H134447   5.506   6.595   2.344  0.9326 -0.5372 -0.1405
 4344TIP3    H234448   5.622   6.561   2.435  0.1434  0.2966  1.2121
 4345TIP3   OH234449   2.131   1.617   3.608 -0.1349 -0.0682  0.2168
 4345TIP3    H134450   2.223   1.592   3.613 -0.1168 -0.2746 -0.8354
 4345TIP3    H234451   2.087   1.538   3.576 -0.3169  0.7204 -1.5938
 4346TIP3   OH234452   1.016   6.514  13.091 -0.0574  0.0681 -0.3363
 4346TIP3    H134453   0.983   6.466  13.016  0.4426  0.0317 -0.5412
 4346TIP3    H234454   0.943   6.517  13.153 -0.9484  1.3067 -1.3884
 4347TIP3   OH234455   6.205   0.601  12.259 -0.5913 -0.1640 -0.3854
 4347TIP3    H134456   6.137   0.536  12.280  0.0364 -0.8619 -0.4824
 4347TIP3    H234457   6.238   0.629  12.344 -1.9255  1.2117 -0.2696
 4348TIP3   OH234458   3.635   5.790  12.520 -0.9793 -0.0072 -0.0695
 4348TIP3    H134459   3.659   5.697  12.510  2.4854  0.8037 -0.7063
 4348TIP3    H234460   3.627   5.822  12.430  3.1737  1.3252 -0.1829
 4349TIP3   OH234461   2.202   0.183   5.918 -0.2876  0.4538  1.0886
 4349TIP3    H134462   2.124   0.159   5.968 -0.0749  0.0672  1.2339
 4349TIP3    H234463   2.174   0.259   5.867 -0.6727  0.5027  1.3635
 4350TIP3   OH234464   2.005   2.486  13.006 -0.0288  0.3113  0.0597
 4350TIP3    H134465   2.098   2.465  12.998  0.3004  1.4217  0.7107
 4350TIP3    H234466   1.992   2.498  13.100 -0.2061  2.7155 -0.2048
 4351TIP3   OH234467   3.192   5.968  16.031  0.2001  0.0737  0.5217
 4351TIP3    H134468   3.142   6.037  15.987  0.6597  1.4858  2.1105
 4351TIP3    H234469   3.283   5.993  16.016  0.4936 -1.7625 -1.2371
 4352TIP3   OH234470   0.660   0.763   0.920 -0.0199  0.4511 -0.2911
 4352TIP3    H134471   0.667   0.687   0.977 -1.4818  0.2448 -0.3612
 4352TIP3    H234472   0.742   0.764   0.871  0.3427 -0.6191  0.2683
 4353TIP3   OH234473   5.695   4.087   2.367 -0.2239 -0.1041  0.1830
 4353TIP3    H134474   5.687   4.015   2.429  2.2550  0.1013  0.8642
 4353TIP3    H234475   5.608   4.095   2.327 -1.0997 -2.1151  1.5386
 4354TIP3   OH234476   6.075   1.683  16.597 -0.3715  0.7690  0.2985
 4354TIP3    H134477   6.017   1.645  16.531 -1.1863 -1.0785  1.9531
 4354TIP3    H234478   6.163   1.672  16.562 -0.8734  1.5776 -1.2765
 4355TIP3   OH234479   5.007   0.143   0.996  0.1308 -0.2064 -0.4904
 4355TIP3    H134480   4.946   0.069   0.993 -1.3565  0.9696 -2.8741
 4355TIP3    H234481   5.033   0.156   0.905 -1.5191  3.5730 -0.5979
 4356TIP3   OH234482   3.875   3.372   6.368 -0.4471 -0.0245 -1.0364
 4356TIP3    H134483   3.864   3.315   6.291 -2.9761 -1.4965  0.2650
 4356TIP3    H234484   3.912   3.314   6.435 -1.1780  0.3647 -0.2738
 4357TIP3   OH234485   5.502   0.159  11.939  0.0881  0.0060 -0.4065
 4357TIP3    H134486   5.443   0.142  11.867 -1.1952  0.9347  0.3872
 4357TIP3    H234487   5.569   0.218  11.902 -0.7592  0.7684 -0.7572
 4358TIP3   OH234488   1.460   3.914   2.017 -0.1813  0.0354 -0.2730
 4358TIP3    H134489   1.527   3.906   1.949 -0.5042 -0.3718 -0.5464
 4358TIP3    H234490   1.480   3.997   2.060  0.8488 -0.3583  0.0275
 4359TIP3   OH234491   5.125   6.618  15.805 -0.4592 -0.3314 -0.2570
 4359TIP3    H134492   5.180   6.622  15.883  1.8036  2.5871 -1.8081
 4359TIP3    H234493   5.185   6.590  15.735 -1.6381  0.0967 -1.4770
 4360TIP3   OH234494   5.251   4.680  14.959  0.5179 -0.5590 -0.1428
 4360TIP3    H134495   5.262   4.744  14.888 -0.9305 -1.6165 -1.3945
 4360TIP3    H234496   5.309   4.712  15.028  0.8028  1.3992 -1.1800
 4361TIP3   OH234497   2.690   1.789   3.709  0.4013 -0.2695  0.1500
 4361TIP3    H134498   2.709   1.866   3.762 -0.4061  0.9869 -1.3213
 4361TIP3    H234499   2.623   1.818   3.648  0.5769 -1.9579 -0.8956
 4362TIP3   OH234500   6.313   3.807   3.745 -0.6088 -0.2410 -0.1337
 4362TIP3    H134501   6.377   3.850   3.802 -0.1103  0.2380 -1.0204
 4362TIP3    H234502   6.366   3.770   3.674 -1.4015  1.2589 -1.5712
 4363TIP3   OH234503   1.597   5.833  12.707 -0.0067  0.4066 -0.4526
 4363TIP3    H134504   1.543   5.799  12.778 -3.4784  1.7432 -2.2313
 4363TIP3    H234505   1.594   5.928  12.716  1.9537  0.5479 -0.7685
 4364TIP3   OH234506   5.389   3.226  12.170 -0.2654  0.1582  0.0301
 4364TIP3    H134507   5.436   3.175  12.236 -0.1074  2.7848  2.1007
 4364TIP3    H234508   5.446   3.224  12.093  0.4286 -1.4729  0.5441
 4365TIP3   OH234509   6.073   0.244   0.923 -0.3409 -0.2691  0.1200
 4365TIP3    H134510   6.040   0.244   1.013 -0.7242  0.7034 -0.0044
 4365TIP3    H234511   6.047   0.159   0.889 -2.5534  0.3238  0.1297
 4366TIP3   OH234512   4.298   3.536   5.029  0.2539 -0.2280  0.4380
 4366TIP3    H134513   4.213   3.527   5.073  0.2121  1.4890  0.7797
 4366TIP3    H234514   4.342   3.453   5.045 -1.1791 -0.9776  0.6502
 4367TIP3   OH234515   3.910   0.069  12.783  1.6870  0.3160  0.2978
 4367TIP3    H134516   3.893   0.139  12.720  1.2873 -0.1711 -0.1423
 4367TIP3    H234517   3.907   0.113  12.868 -0.1856  0.5701  0.1393
 4368TIP3   OH234518   4.280   3.513   4.081  0.2578  0.2847 -0.0099
 4368TIP3    H134519   4.303   3.570   4.155 -1.0877 -1.1813  1.6285
 4368TIP3    H234520   4.326   3.552   4.006  1.2398  2.1606  1.4585
 4369TIP3   OH234521   2.134   1.478   3.336  0.0637  0.5263 -0.1417
 4369TIP3    H134522   2.096   1.414   3.276 -0.4969  0.5053  0.2342
 4369TIP3    H234523   2.117   1.443   3.423  1.8474 -0.0132  0.0413
 4370TIP3   OH234524   4.588   3.884   2.073  0.7161  0.3519 -0.2410
 4370TIP3    H134525   4.536   3.946   2.124  0.9328 -1.0175  1.7609
 4370TIP3    H234526   4.679   3.905   2.094  0.8060 -0.3341  0.0931
 4371TIP3   OH234527   5.233   5.855  12.909 -0.2443 -0.0481  0.4430
 4371TIP3    H134528   5.288   5.858  12.987 -0.1892  0.3982  0.3875
 4371TIP3    H234529   5.294   5.833  12.838  0.3532  2.8291 -0.0359
 4372TIP3   OH234530   0.782   2.836   3.075 -0.0116 -0.0060  0.3513
 4372TIP3    H134531   0.850   2.770   3.088  1.2696  1.0686 -0.7053
 4372TIP3    H234532   0.738   2.810   2.994  0.9415  0.7809 -0.4378
 4373TIP3   OH234533   2.117   4.639  15.786 -0.4339  0.2141 -0.4945
 4373TIP3    H134534   2.034   4.671  15.751 -0.7239  0.2012  0.1715
 4373TIP3    H234535   2.183   4.676  15.728 -0.9839 -1.4929 -2.3619
 4374TIP3   OH234536   4.492   2.232  12.225 -0.5393 -0.3606  0.5123
 4374TIP3    H134537   4.404   2.267  12.211 -0.5901 -1.1457 -1.4532
 4374TIP3    H234538   4.536   2.299  12.277 -1.1758  1.8140 -1.5378
 4375TIP3   OH234539   2.821   4.560   5.085  0.1371  0.2392 -0.1747
 4375TIP3    H134540   2.835   4.561   4.991  2.6812 -0.5010  0.1143
 4375TIP3    H234541   2.787   4.472   5.103 -0.5743  0.4598 -0.3971
 4376TIP3   OH234542   2.656   6.514  11.515 -0.1541  0.2282 -0.2627
 4376TIP3    H134543   2.566   6.490  11.493 -0.2554 -0.0033  0.3885
 4376TIP3    H234544   2.658   6.609  11.506  0.1537  0.0660 -2.5223
 4377TIP3   OH234545   1.240   5.140  12.283  0.3009 -0.3494 -0.3415
 4377TIP3    H134546   1.181   5.213  12.267 -0.2124 -0.9695 -1.3667
 4377TIP3    H234547   1.301   5.141  12.209  0.8500 -0.4277  0.1016
 4378TIP3   OH234548   6.391   0.746   0.691 -0.6022 -0.1257  0.0869
 4378TIP3    H134549   6.431   0.778   0.772 -0.2745 -0.1625 -0.0586
 4378TIP3    H234550   6.378   0.652   0.705  0.3128 -0.3139 -0.2461
 4379TIP3   OH234551   3.520   0.768  11.959  0.3253  0.0728 -0.1543
 4379TIP3    H134552   3.599   0.732  11.999  0.4754 -1.1673 -1.4873
 4379TIP3    H234553   3.508   0.717  11.879 -1.7811  0.2963 -0.0402
 4380TIP3   OH234554   6.221   2.943  10.246 -0.7473  0.2352 -0.4856
 4380TIP3    H134555   6.249   2.994  10.170 -0.9566  0.8006 -0.1885
 4380TIP3    H234556   6.299   2.892  10.270  0.2859  2.2118  0.6786
 4381TIP3   OH234557   0.064   3.679   4.930  0.1994 -0.3137  0.0510
 4381TIP3    H134558   0.006   3.752   4.953  0.4462 -0.1368  0.1204
 4381TIP3    H234559   0.136   3.685   4.993  0.9623  0.2638 -0.8398
 4382TIP3   OH234560   1.314   0.383  15.769  0.1326 -0.3167 -0.3233
 4382TIP3    H134561   1.298   0.375  15.863  0.5145  0.9764 -0.1224
 4382TIP3    H234562   1.406   0.358  15.759 -0.8059 -4.0361 -0.9278
 4383TIP3   OH234563   0.264   0.003   6.607  0.5773 -0.1276  0.1427
 4383TIP3    H134564   0.276  -0.079   6.558  1.1746 -0.5409  0.9550
 4383TIP3    H234565   0.169   0.009   6.620  0.4632 -0.2988 -0.5764
 4384TIP3   OH234566   5.293   3.355  11.749 -0.7982  0.3857 -0.0045
 4384TIP3    H134567   5.225   3.311  11.698  1.0194 -0.8774 -1.5137
 4384TIP3    H234568   5.295   3.444  11.715 -2.5783  0.8671  1.0425
 4385TIP3   OH234569   3.476   3.015  12.268 -0.1035  0.3569  0.3477
 4385TIP3    H134570   3.544   2.957  12.305 -0.0769 -0.6582 -1.1709
 4385TIP3    H234571   3.524   3.094  12.242  0.6009 -0.4494 -0.9407
 4386TIP3   OH234572   3.579   5.530  11.693  0.4600 -0.1279  0.4803
 4386TIP3    H134573   3.503   5.527  11.752  1.5126  0.4550  1.9431
 4386TIP3    H234574   3.574   5.449  11.643 -0.4812 -0.6506  1.3740
 4387TIP3   OH234575   0.481   2.101  13.215  0.0383 -0.7850 -0.0670
 4387TIP3    H134576   0.388   2.083  13.203 -0.2800  0.6041  0.1188
 4387TIP3    H234577   0.515   2.113  13.127 -0.6087  1.5764 -0.0513
 4388TIP3   OH234578   2.799   4.915   5.174  0.1221 -0.2085  0.2837
 4388TIP3    H134579   2.800   4.948   5.264 -1.7705 -0.2896  0.3783
 4388TIP3    H234580   2.884   4.872   5.163  0.3941 -0.1894  2.0291
 4389TIP3   OH234581   2.683   5.010   3.780 -0.2086  0.2538  0.3759
 4389TIP3    H134582   2.630   4.933   3.797 -0.6215 -0.0365 -1.9480
 4389TIP3    H234583   2.621   5.082   3.774 -0.3027  0.0701 -1.3935
 4390TIP3   OH234584   1.013   2.345  14.144  0.7210  0.0268  0.1849
 4390TIP3    H134585   1.057   2.360  14.060  0.4757 -0.1994  0.0156
 4390TIP3    H234586   0.983   2.432  14.171 -0.9124 -0.1521 -0.9176
 4391TIP3   OH234587   6.162   3.783  12.969  0.0635 -0.1729  0.3736
 4391TIP3    H134588   6.087   3.780  13.028  0.0515 -1.5552  0.3178
 4391TIP3    H234589   6.127   3.754  12.885  0.7840 -1.4741  0.5040
 4392TIP3   OH234590   5.063   4.630   1.314  0.2361 -0.7998  0.4339
 4392TIP3    H134591   5.094   4.664   1.397  1.3161  1.6958 -0.8999
 4392TIP3    H234592   4.967   4.633   1.320  0.2693  2.2415  0.5511
 4393TIP3   OH234593   4.756   0.009   2.630 -0.0911 -0.1673  0.2979
 4393TIP3    H134594   4.766  -0.086   2.625  1.2655 -0.3929  3.8520
 4393TIP3    H234595   4.681   0.022   2.688  1.8125  0.6913  2.7630
 4394TIP3   OH234596   5.187   4.125  11.099  0.3401  0.3436  0.1315
 4394TIP3    H134597   5.243   4.181  11.045  0.6135 -0.1458 -0.0954
 4394TIP3    H234598   5.105   4.119  11.049  1.3352 -1.9489 -1.4165
 4395TIP3   OH234599   4.002   3.574   2.995  0.3604  0.0110 -0.3708
 4395TIP3    H134600   3.992   3.580   2.900  1.9260 -0.9375 -0.6451
 4395TIP3    H234601   3.977   3.484   3.016 -2.0435  0.7982  0.4723
 4396TIP3   OH234602   1.426   0.233  16.424 -0.0675 -0.2304  0.4522
 4396TIP3    H134603   1.438   0.145  16.458  0.2856 -0.7819 -1.0360
 4396TIP3    H234604   1.507   0.251  16.376 -0.4955  0.5558  0.0065
 4397TIP3   OH234605   0.462   3.896  11.955  0.1232 -0.8962 -0.0019
 4397TIP3    H134606   0.378   3.853  11.968 -0.6405  0.5697  0.0750
 4397TIP3    H234607   0.443   3.970  11.897  0.8965  0.7184  1.6655
 4398TIP3   OH234608   2.886   6.451   1.886 -0.5530  0.4505 -0.2088
 4398TIP3    H134609   2.930   6.408   1.812  0.3331  1.0546 -0.0485
 4398TIP3    H234610   2.800   6.410   1.889  0.7483 -2.5797  0.9921
 4399TIP3   OH234611   2.867   6.437   0.901  0.1166 -0.4369  0.3000
 4399TIP3    H134612   2.957   6.408   0.889 -0.0985 -1.9754  1.9607
 4399TIP3    H234613   2.814   6.367   0.863 -0.4037  0.3419 -0.4375
 4400TIP3   OH234614   4.214   6.244   3.144  0.2803 -0.1929 -0.0456
 4400TIP3    H134615   4.173   6.275   3.063 -0.1876 -0.0623  0.2343
 4400TIP3    H234616   4.235   6.324   3.193 -0.8194 -0.2924  0.6233
 4401TIP3   OH234617   3.251   2.297  15.450 -0.4552 -0.0387 -0.8884
 4401TIP3    H134618   3.307   2.277  15.375 -1.8478 -1.0625 -1.7019
 4401TIP3    H234619   3.169   2.328  15.412 -0.2925  2.0576  0.2827
 4402TIP3   OH234620   5.564   2.886  14.975  0.6009  0.3793  0.0214
 4402TIP3    H134621   5.622   2.811  14.959 -1.0388 -1.1078  0.6201
 4402TIP3    H234622   5.585   2.948  14.906  1.9980 -0.6509 -0.5322
 4403TIP3   OH234623   1.024   2.536   1.530 -0.5569 -0.2113  0.1476
 4403TIP3    H134624   0.958   2.473   1.561 -2.4586  1.8426  0.5079
 4403TIP3    H234625   1.035   2.596   1.604  0.2378  0.6392 -0.6470
 4404TIP3   OH234626   3.135   0.300  14.250 -0.1105 -0.1940  0.1680
 4404TIP3    H134627   3.222   0.317  14.285 -0.2132  2.7900 -0.7567
 4404TIP3    H234628   3.148   0.288  14.156 -0.6092 -0.8882  0.1736
 4405TIP3   OH234629   4.063   1.085   1.152 -0.0416 -0.1815 -0.1464
 4405TIP3    H134630   4.138   1.029   1.137  1.6331  1.9682 -0.3734
 4405TIP3    H234631   4.087   1.138   1.228  0.1244  2.6952 -2.0179
 4406TIP3   OH234632   3.813   0.658  13.512  0.0937  0.3527 -0.1566
 4406TIP3    H134633   3.854   0.602  13.578 -1.1850  0.9473  1.2047
 4406TIP3    H234634   3.872   0.733  13.503  1.5466 -0.8819 -1.6012
 4407TIP3   OH234635   4.648   6.058   3.067 -0.8408  0.0521  0.4637
 4407TIP3    H134636   4.635   5.984   3.008 -0.5816 -0.6899  1.3188
 4407TIP3    H234637   4.592   6.128   3.031  0.2186  0.0318 -1.3380
 4408TIP3   OH234638   2.325   3.009   1.958  0.0644  0.0336  0.3207
 4408TIP3    H134639   2.296   3.081   1.901 -0.5850 -0.7722 -0.3921
 4408TIP3    H234640   2.262   3.007   2.029 -0.2868 -0.2347  0.0026
 4409TIP3   OH234641   6.247   2.090  12.743 -0.2939  0.3835 -0.5557
 4409TIP3    H134642   6.238   2.162  12.806  0.0683  0.5003 -0.6345
 4409TIP3    H234643   6.165   2.091  12.693 -0.2240  0.8492 -0.6677
 4410TIP3   OH234644   4.431   3.875   1.845  0.3411 -0.0138  0.5854
 4410TIP3    H134645   4.492   3.914   1.782  2.1463 -0.6140  1.8641
 4410TIP3    H234646   4.488   3.842   1.915 -1.5388  0.1266  2.2606
 4411TIP3   OH234647   2.692   6.197   6.553  0.2873  0.6107  0.3810
 4411TIP3    H134648   2.699   6.202   6.648  0.3898 -0.0470  0.4072
 4411TIP3    H234649   2.617   6.253   6.532  0.2836  0.7842  0.8404
 4412TIP3   OH234650   3.887   2.915  15.182 -0.1484  0.8613 -0.1090
 4412TIP3    H134651   3.795   2.888  15.175  0.6502 -1.8368 -2.0617
 4412TIP3    H234652   3.896   2.950  15.270 -2.3167 -2.0547  1.4162
 4413TIP3   OH234653   3.312   3.730   1.361 -0.1383  0.4351 -0.0507
 4413TIP3    H134654   3.225   3.694   1.347 -0.3820  0.8142  0.4398
 4413TIP3    H234655   3.320   3.801   1.297  0.6328 -0.9248 -1.5386
 4414TIP3   OH234656   0.068   4.992   3.864  0.4364  0.5347  0.5817
 4414TIP3    H134657   0.055   4.898   3.848  0.6280  0.6612 -0.4041
 4414TIP3    H234658   0.162   5.001   3.880  0.8012  0.8067 -1.4225
 4415TIP3   OH234659   6.227   3.560   3.262  0.5234  0.2401  0.2630
 4415TIP3    H134660   6.148   3.518   3.296  0.8853 -1.0238 -0.3831
 4415TIP3    H234661   6.244   3.632   3.322 -0.3997 -0.2578  1.1441
 4416TIP3   OH234662   4.288   0.091  13.023  0.1395 -0.4820 -0.0906
 4416TIP3    H134663   4.241   0.163  13.064  0.4283  1.3902 -2.7606
 4416TIP3    H234664   4.223   0.021  13.014 -0.6742  0.1342  0.8391
 4417TIP3   OH234665   4.970   1.097  16.192  0.2437 -0.7696  0.3300
 4417TIP3    H134666   4.968   1.119  16.285  0.9344  0.4295  0.0950
 4417TIP3    H234667   5.038   1.155  16.156 -1.1266 -0.0399 -1.1945
 4418TIP3   OH234668   2.731   1.951   3.386 -0.7439  0.1178  0.2411
 4418TIP3    H134669   2.784   1.886   3.433 -1.4468  0.7414  1.9996
 4418TIP3    H234670   2.794   2.018   3.359 -0.3811  0.0354  0.8514
 4419TIP3   OH234671   2.890   0.523   0.276  0.4065 -0.4776  0.6862
 4419TIP3    H134672   2.817   0.493   0.330  0.0062  0.1022  0.4738
 4419TIP3    H234673   2.862   0.607   0.241  0.1409 -1.3683 -1.4134
 4420TIP3   OH234674   0.361   2.663  14.035 -0.2116  0.3673 -0.3795
 4420TIP3    H134675   0.371   2.615  14.118  1.4804  0.3007 -0.5937
 4420TIP3    H234676   0.308   2.605  13.980  0.9208 -0.8056 -0.2662
 4421TIP3   OH234677   6.541   2.941   5.818 -0.7970 -0.4817 -0.2196
 4421TIP3    H134678   6.543   2.859   5.768 -0.6879 -0.1821 -0.7202
 4421TIP3    H234679   6.600   2.999   5.770 -1.0457 -0.0373  0.0062
 4422TIP3   OH234680   4.793   2.488   2.020  0.5269  0.3657 -0.2429
 4422TIP3    H134681   4.880   2.523   2.039  0.2186  1.7620 -1.2636
 4422TIP3    H234682   4.738   2.522   2.091  1.2094 -2.6341  1.9254
 4423TIP3   OH234683   6.578   6.100  16.589  0.7652 -0.1002  0.7347
 4423TIP3    H134684   6.530   6.056  16.519 -0.1746 -0.4107  1.5635
 4423TIP3    H234685   6.647   6.038  16.613  0.0957 -0.6749  1.1780
 4424TIP3   OH234686   2.439   6.656   3.324  0.3167 -0.2012 -0.8074
 4424TIP3    H134687   2.520   6.638   3.371  0.3447 -0.8169 -1.0759
 4424TIP3    H234688   2.376   6.679   3.393  0.4283 -0.8347 -0.4835
 4425TIP3   OH234689   3.408   2.959   2.630  0.2135  0.5964 -0.2745
 4425TIP3    H134690   3.356   2.955   2.549  2.1331 -0.5523 -1.5276
 4425TIP3    H234691   3.345   2.985   2.697 -1.7412  0.2918 -1.8800
 4426TIP3   OH234692   2.356   5.010  12.415  0.5287  0.3863  0.6309
 4426TIP3    H134693   2.263   5.012  12.439  1.1447  1.3037  3.2730
 4426TIP3    H234694   2.394   4.945  12.474  1.5480 -0.2202 -0.6428
 4427TIP3   OH234695   5.518   3.259   0.772 -0.6263 -0.7490 -0.0356
 4427TIP3    H134696   5.465   3.184   0.747 -1.0919 -0.2677 -0.5381
 4427TIP3    H234697   5.535   3.247   0.865 -2.8681 -0.1839  0.5102
 4428TIP3   OH234698   6.112   3.827  11.760  0.2448  0.2968 -0.1697
 4428TIP3    H134699   6.187   3.796  11.811 -0.4786  1.6534  1.8443
 4428TIP3    H234700   6.129   3.919  11.745 -1.6862  1.0580  1.7425
 4429TIP3   OH234701   3.554   5.193  15.593 -0.3510  0.4520  0.2113
 4429TIP3    H134702   3.576   5.102  15.574  1.0807  1.1953 -2.0665
 4429TIP3    H234703   3.597   5.212  15.676  0.8866 -0.4356 -0.2090
 4430TIP3   OH234704   4.144   0.667   5.323  0.1389  0.8206  0.4837
 4430TIP3    H134705   4.237   0.683   5.309 -0.4138  2.7525 -1.4972
 4430TIP3    H234706   4.118   0.732   5.389  0.0342  0.8781  0.3869
 4431TIP3   OH234707   1.656   6.691  13.186 -0.0437 -0.1719 -0.7875
 4431TIP3    H134708   1.738   6.659  13.224  0.2415  0.6546 -0.6850
 4431TIP3    H234709   1.635   6.627  13.118  0.2258 -0.8639 -0.2447
 4432TIP3   OH234710   1.454   3.481   3.185  0.1069 -0.2164 -0.4863
 4432TIP3    H134711   1.399   3.493   3.262 -0.3131  1.2331 -0.9872
 4432TIP3    H234712   1.417   3.540   3.119 -1.2676 -3.3056 -2.7711
 4433TIP3   OH234713   1.748   0.089   4.342  0.1296  0.9393 -0.0015
 4433TIP3    H134714   1.834   0.132   4.342  0.0843  1.0314 -0.3926
 4433TIP3    H234715   1.753   0.027   4.269  1.4766 -2.3014  2.5578
 4434TIP3   OH234716   4.898   2.636  11.781 -0.3757  0.1827  0.4283
 4434TIP3    H134717   4.854   2.659  11.700 -0.6158 -0.9217  0.2301
 4434TIP3    H234718   4.830   2.599  11.837  0.2025 -1.2216  0.2503
 4435TIP3   OH234719   3.925   5.581   4.677  0.2006  0.3276 -0.1005
 4435TIP3    H134720   4.003   5.637   4.677  0.6845 -0.3279  1.0793
 4435TIP3    H234721   3.873   5.613   4.750  0.2727 -0.4648  0.3077
 4436TIP3   OH234722   1.582   0.271  11.271  0.2536 -0.1958  0.1394
 4436TIP3    H134723   1.504   0.227  11.237 -0.7645  1.0002  0.8238
 4436TIP3    H234724   1.576   0.259  11.366 -0.4989  2.0215  0.4316
 4437TIP3   OH234725   0.451   0.287  11.248  0.3313  0.0789  0.2870
 4437TIP3    H134726   0.411   0.374  11.237  2.1394  0.8630 -0.4104
 4437TIP3    H234727   0.429   0.240  11.168 -1.1809 -0.3777  0.9253
 4438TIP3   OH234728   0.163   6.059   4.202 -0.0747  0.5935  0.4312
 4438TIP3    H134729   0.157   6.000   4.127  3.5027 -0.3646  0.7233
 4438TIP3    H234730   0.133   6.006   4.276 -0.3815  0.3896  0.1620
 4439TIP3   OH234731   0.530   1.904  13.991 -0.1496  0.4259 -0.0665
 4439TIP3    H134732   0.467   1.891  13.921 -0.8664 -0.4400  0.7097
 4439TIP3    H234733   0.550   1.998  13.989 -1.1599  0.6357 -0.5791
 4440TIP3   OH234734   6.362   5.083   2.679  0.1268 -0.4297  0.0274
 4440TIP3    H134735   6.394   5.079   2.769 -1.7288 -2.6695  0.6685
 4440TIP3    H234736   6.288   5.144   2.682 -0.2730 -0.9149  0.1550
 4441TIP3   OH234737   1.270   5.513   1.098  0.1485 -0.1548 -0.3479
 4441TIP3    H134738   1.247   5.537   1.187 -0.7922 -0.2466 -0.5523
 4441TIP3    H234739   1.190   5.474   1.062  0.8404 -1.1236 -0.8830
 4442TIP3   OH234740   2.179   6.755   1.327 -0.0420  0.2688  0.4551
 4442TIP3    H134741   2.105   6.734   1.384 -1.4976  1.6435 -0.8124
 4442TIP3    H234742   2.174   6.850   1.314  0.1423  0.0259 -1.9755
 4443TIP3   OH234743   0.527   2.795   4.002  0.5339  0.0265  0.2746
 4443TIP3    H134744   0.565   2.845   4.074  1.0751  1.1539 -0.7723
 4443TIP3    H234745   0.468   2.733   4.045 -0.4424  1.7964  1.5901
 4444TIP3   OH234746   1.891   3.730   0.502 -0.4542 -0.0909  0.6656
 4444TIP3    H134747   1.817   3.672   0.484  1.1366 -2.7331  1.9104
 4444TIP3    H234748   1.855   3.818   0.499 -3.5163 -1.2435  0.7461
 4445TIP3   OH234749   0.819   3.745  13.305  0.1374 -0.9101 -0.1413
 4445TIP3    H134750   0.840   3.702  13.222  1.5748  1.3241 -1.0518
 4445TIP3    H234751   0.904   3.764  13.344 -0.4925 -0.5883  1.1045
 4446TIP3   OH234752   2.738   6.208  12.490  0.8022 -0.1759  0.3458
 4446TIP3    H134753   2.755   6.129  12.542  0.0852  0.4728  1.6322
 4446TIP3    H234754   2.645   6.201  12.466  1.0204 -0.2606 -0.5124
 4447TIP3   OH234755   2.277   5.218   1.269 -0.3578 -0.3472  0.1188
 4447TIP3    H134756   2.332   5.242   1.343 -1.6170 -0.0938  1.0173
 4447TIP3    H234757   2.189   5.212   1.306 -0.8763 -1.1733 -1.1697
 4448TIP3   OH234758   3.675   1.482  14.071  0.1987  0.8898 -0.6166
 4448TIP3    H134759   3.670   1.509  14.163  0.0464  0.3792 -0.4729
 4448TIP3    H234760   3.587   1.451  14.050  0.3381  0.6305 -0.8187
 4449TIP3   OH234761   6.125   4.049   3.800 -0.0001 -0.6374  0.3264
 4449TIP3    H134762   6.213   4.079   3.775  0.0306 -0.4790  0.6244
 4449TIP3    H234763   6.132   4.027   3.893  0.2398 -2.5425 -0.1017
 4450TIP3   OH234764   3.030   6.182  16.037 -0.2087 -0.7792 -0.2611
 4450TIP3    H134765   2.966   6.141  15.979 -1.5209  0.1735  0.4861
 4450TIP3    H234766   3.000   6.272  16.049 -0.7941 -1.2797  2.9777
 4451TIP3   OH234767   3.780   1.457  16.164 -0.3054  0.2046  0.6303
 4451TIP3    H134768   3.875   1.471  16.167 -0.3185  0.2343  0.9886
 4451TIP3    H234769   3.763   1.424  16.076 -0.0544  0.8673  0.3308
 4452TIP3   OH234770   6.210   0.646   4.257 -0.3296 -0.0857 -0.1202
 4452TIP3    H134771   6.171   0.718   4.207  0.7831  0.2166 -0.6012
 4452TIP3    H234772   6.209   0.572   4.198 -1.2763 -0.4224  0.3001
 4453TIP3   OH234773   5.123   6.063   1.089  0.4989 -0.0253 -0.3756
 4453TIP3    H134774   5.095   6.122   1.020 -2.0385  1.8466  1.9914
 4453TIP3    H234775   5.146   6.120   1.162 -0.0943 -1.8899  1.3725
 4454TIP3   OH234776   3.353   3.870  13.732 -0.2472  0.0726 -0.4700
 4454TIP3    H134777   3.392   3.909  13.654  1.0053 -0.1526  0.0236
 4454TIP3    H234778   3.387   3.922  13.805 -0.0046 -0.7787  0.0504
 4455TIP3   OH234779   5.370   3.241  14.845 -0.7916  0.1351 -0.1012
 4455TIP3    H134780   5.383   3.170  14.909  4.3808  1.5546  0.8735
 4455TIP3    H234781   5.406   3.206  14.764 -0.7793  0.6827 -0.3327
 4456TIP3   OH234782   4.924   2.249  13.421  0.0635  0.8153 -0.1020
 4456TIP3    H134783   4.878   2.169  13.446  2.1972 -0.7333 -0.8364
 4456TIP3    H234784   4.994   2.258  13.486  0.9903  1.0157 -1.1017
 4457TIP3   OH234785   4.995   3.111  12.689  0.3413 -0.3159 -0.2642
 4457TIP3    H134786   4.958   3.178  12.632 -0.9345  0.4631  1.3943
 4457TIP3    H234787   4.997   3.152  12.776  1.9949 -1.5343  0.3206
 4458TIP3   OH234788   3.589   5.905   5.272 -0.1652  0.0671  0.0907
 4458TIP3    H134789   3.544   5.989   5.287  0.4917  0.5190 -0.3805
 4458TIP3    H234790   3.639   5.890   5.352  1.9106  1.5606 -0.8245
 4459TIP3   OH234791   5.149   2.607  11.981  0.6673  0.0192 -0.0339
 4459TIP3    H134792   5.197   2.685  12.005  1.6024 -0.6172  0.2091
 4459TIP3    H234793   5.070   2.640  11.937  0.0076  1.1406  1.8965
 4460TIP3   OH234794   5.139   3.702  14.852  0.4190  0.3772  0.4255
 4460TIP3    H134795   5.222   3.687  14.898  1.5745  2.9720 -0.5677
 4460TIP3    H234796   5.154   3.669  14.763 -0.8302 -2.0916  1.0577
 4461TIP3   OH234797   2.953   3.021  11.841  0.1642 -0.1764  0.3729
 4461TIP3    H134798   2.949   2.927  11.819 -2.0413  0.1327 -0.8574
 4461TIP3    H234799   2.997   3.061  11.765 -2.4349  0.1993 -1.0432
 4462TIP3   OH234800   1.092   1.346  12.813  0.1928  0.1328 -0.0745
 4462TIP3    H134801   1.135   1.369  12.895  0.1692 -0.2824  0.0596
 4462TIP3    H234802   1.035   1.272  12.836  0.9156 -0.6295 -0.6576
 4463TIP3   OH234803   5.775   3.167   3.565  0.1547 -0.1715  0.2272
 4463TIP3    H134804   5.768   3.256   3.598 -1.6593 -0.0992 -0.2439
 4463TIP3    H234805   5.841   3.126   3.621  0.4915  1.2542  0.9138
 4464TIP3   OH234806   0.142   5.667   5.883  0.9207 -0.0002 -0.3640
 4464TIP3    H134807   0.209   5.646   5.948 -1.3888 -0.7794  1.9054
 4464TIP3    H234808   0.147   5.762   5.874  1.7990  0.0311  0.3227
 4465TIP3   OH234809   1.085   3.427  14.983 -0.9396  0.2160  0.3009
 4465TIP3    H134810   1.067   3.516  14.954  0.9812  0.8584  0.9711
 4465TIP3    H234811   1.179   3.417  14.975 -0.4070 -0.1176  4.6166
 4466TIP3   OH234812   6.459   2.143   1.073  0.4400 -0.0351 -0.2875
 4466TIP3    H134813   6.523   2.141   1.002  0.9986 -1.1293  0.2198
 4466TIP3    H234814   6.511   2.167   1.150  0.6336 -2.5327  0.4534
 4467TIP3   OH234815   3.000   3.273   5.465 -0.2903  0.1677  0.4391
 4467TIP3    H134816   2.916   3.230   5.445 -0.2170  0.8045 -1.4596
 4467TIP3    H234817   3.020   3.323   5.386  2.2712 -0.5725  0.5396
 4468TIP3   OH234818   1.743   6.780  12.887  0.6670 -0.7760 -0.2610
 4468TIP3    H134819   1.705   6.693  12.902 -0.5604  0.0025  1.4086
 4468TIP3    H234820   1.828   6.777  12.932 -1.2869  0.2332  3.9914
 4469TIP3   OH234821   1.087   2.621   6.503 -0.3673 -0.0925 -0.2312
 4469TIP3    H134822   1.006   2.657   6.466  0.1163  1.0188 -0.2130
 4469TIP3    H234823   1.059   2.538   6.542 -1.3153 -0.2001 -1.0741
 4470TIP3   OH234824   4.281   4.914  13.554 -0.0996 -0.0836  0.3879
 4470TIP3    H134825   4.352   4.948  13.608  1.0457 -0.7282 -0.6569
 4470TIP3    H234826   4.237   4.993  13.520  1.8309  0.4262 -1.1309
 4471TIP3   OH234827   3.413   5.051  11.098  0.3359  0.1762 -0.3980
 4471TIP3    H134828   3.350   4.981  11.113  0.3411  0.4646  1.1622
 4471TIP3    H234829   3.401   5.075  11.006 -1.7661  0.1618 -0.1794
 4472TIP3   OH234830   2.684   1.092  16.000 -0.0113 -0.1476  0.4536
 4472TIP3    H134831   2.730   1.132  15.927 -2.2996  0.6413 -0.6777
 4472TIP3    H234832   2.733   1.119  16.077  1.6119  0.2738 -0.6699
 4473TIP3   OH234833   5.131   3.052  16.274 -0.4592  0.3122 -0.3297
 4473TIP3    H134834   5.210   3.016  16.231  0.2292  0.1489  1.0222
 4473TIP3    H234835   5.089   2.976  16.313 -0.6725  0.5564 -0.0834
 4474TIP3   OH234836   1.072   3.704   0.922 -0.2657 -0.2475 -0.3429
 4474TIP3    H134837   1.159   3.703   0.881 -0.0649  0.6463  0.0354
 4474TIP3    H234838   1.045   3.796   0.919 -1.5994 -0.6324 -1.2543
 4475TIP3   OH234839   0.179   3.355  12.714 -0.4760 -0.3031  0.5012
 4475TIP3    H134840   0.123   3.289  12.754 -1.9617  2.1973  2.7886
 4475TIP3    H234841   0.119   3.416  12.671  0.7487  0.4873 -0.1675
 4476TIP3   OH234842   4.030   2.155  12.600  0.1035 -0.6495  0.2877
 4476TIP3    H134843   4.001   2.159  12.509  0.5229 -1.6018  0.0900
 4476TIP3    H234844   3.951   2.138  12.650  0.1473 -2.4402 -0.1649
 4477TIP3   OH234845   5.297   4.216   3.761 -0.3807  0.0468 -0.5760
 4477TIP3    H134846   5.331   4.275   3.827 -0.4034  0.2383 -0.7344
 4477TIP3    H234847   5.202   4.226   3.767 -0.6605 -2.7817  2.0230
 4478TIP3   OH234848   2.275   1.677   3.007 -0.7044  0.9384  0.3152
 4478TIP3    H134849   2.241   1.591   2.982  0.9644 -0.0351  1.2183
 4478TIP3    H234850   2.247   1.735   2.937 -0.0251 -0.7774 -1.4649
 4479TIP3   OH234851   1.064   3.788  13.444 -0.2942 -0.0641 -0.3364
 4479TIP3    H134852   1.082   3.698  13.473 -0.4543  1.0945  3.9449
 4479TIP3    H234853   1.072   3.841  13.523  0.9457  3.9573 -2.8702
 4480TIP3   OH234854   0.318   6.747  13.387  0.1234 -0.0808  0.0437
 4480TIP3    H134855   0.273   6.832  13.381 -0.4654 -0.4637 -1.0744
 4480TIP3    H234856   0.383   6.760  13.457  0.2285  1.3790 -0.2867
 4481TIP3   OH234857   4.750   0.671  12.039 -0.4348  0.0462  0.2031
 4481TIP3    H134858   4.812   0.602  12.064 -1.5063 -0.8331  0.4907
 4481TIP3    H234859   4.665   0.640  12.068 -1.3661  0.2331 -2.0547
 4482TIP3   OH234860   3.450   6.549   4.841  0.2260 -0.0446  0.0883
 4482TIP3    H134861   3.377   6.532   4.901  0.2376  0.8918  0.3814
 4482TIP3    H234862   3.506   6.611   4.888  0.1776  0.7902 -0.9248
 4483TIP3   OH234863   1.201   2.271   4.887  0.4355 -0.0472 -0.4235
 4483TIP3    H134864   1.152   2.277   4.969 -1.3372 -1.7516 -1.2846
 4483TIP3    H234865   1.261   2.198   4.901  0.5008  0.0014 -0.4547
 4484TIP3   OH234866   0.916   3.411   3.604  0.2965 -0.2188  0.1278
 4484TIP3    H134867   0.824   3.430   3.582  0.5565  0.6628 -0.2260
 4484TIP3    H234868   0.946   3.355   3.533  0.9432  2.0869 -1.5235
 4485TIP3   OH234869   0.039   6.642  15.994  0.4442 -0.2910  0.0949
 4485TIP3    H134870   0.030   6.687  16.078 -0.9025 -0.0117 -0.1814
 4485TIP3    H234871  -0.026   6.684  15.938 -0.5842 -2.3152 -0.2862
 4486TIP3   OH234872   4.395   4.972   0.787  0.2068  0.3251 -0.2843
 4486TIP3    H134873   4.382   4.978   0.692 -0.6311  0.2753 -0.1768
 4486TIP3    H234874   4.415   5.061   0.814  1.8758  0.1166 -0.6944
 4487TIP3   OH234875   3.009   4.503  14.754  0.2440 -0.4616 -0.0378
 4487TIP3    H134876   2.966   4.428  14.713  0.0920 -0.1897 -0.3783
 4487TIP3    H234877   2.949   4.529  14.824  0.0294 -0.3098 -0.2780
 4488TIP3   OH234878   1.929   3.841  11.795 -0.2990  0.3115  0.5350
 4488TIP3    H134879   1.844   3.807  11.767 -0.8422  1.7358  0.3554
 4488TIP3    H234880   1.915   3.935  11.805  1.0196  0.4408  1.4321
 4489TIP3   OH234881   5.057   0.580   4.916 -0.5718  0.1103  0.3636
 4489TIP3    H134882   5.076   0.561   4.824 -2.5324 -2.0316  0.3288
 4489TIP3    H234883   5.031   0.672   4.916 -1.0543  0.0134 -1.3362
 4490TIP3   OH234884   6.650   0.607   2.419 -0.3836  0.3449 -0.0173
 4490TIP3    H134885   6.627   0.593   2.327 -0.3591  0.3971 -0.0315
 4490TIP3    H234886   6.605   0.537   2.466 -0.5257  0.4121 -0.0519
 4491TIP3   OH234887   3.387   0.811   2.840 -0.0677 -0.0623  0.0691
 4491TIP3    H134888   3.322   0.828   2.772  0.4507  0.8495 -0.2207
 4491TIP3    H234889   3.451   0.754   2.798 -0.7302 -1.0899  0.4015
 4492TIP3   OH234890   1.912   0.248  11.377  0.2204  0.9412  0.2247
 4492TIP3    H134891   1.856   0.227  11.451  0.0859 -0.2489 -0.2014
 4492TIP3    H234892   1.910   0.170  11.322  2.4304  0.7975  0.2738
 4493TIP3   OH234893   5.526   1.989  13.046  0.0725 -0.5064 -0.6067
 4493TIP3    H134894   5.488   1.982  12.958  0.9760  2.6319 -1.3599
 4493TIP3    H234895   5.611   1.944  13.039  0.7669  0.9129 -1.8192
 4494TIP3   OH234896   5.925   1.549  13.023  1.0420 -0.8185  0.1185
 4494TIP3    H134897   6.020   1.554  13.015  1.3130 -2.6914  1.4695
 4494TIP3    H234898   5.910   1.498  13.102 -1.1368  1.6042  1.4221
 4495TIP3   OH234899   4.931   6.607   5.322  0.2726  0.2470  0.1519
 4495TIP3    H134900   4.974   6.633   5.404 -0.9511  0.1169  0.8533
 4495TIP3    H234901   4.844   6.577   5.348  0.3276 -1.0669 -1.0578
 4496TIP3   OH234902   3.292   3.273   2.666 -1.0390 -0.1632 -0.0454
 4496TIP3    H134903   3.365   3.326   2.697 -1.5939 -0.4719  1.9363
 4496TIP3    H234904   3.286   3.292   2.572 -0.2025  2.0265  0.2933
 4497TIP3   OH234905   4.205   3.556   3.221  0.0029 -0.2187 -0.6795
 4497TIP3    H134906   4.153   3.593   3.150 -1.3624 -1.2602 -0.2723
 4497TIP3    H234907   4.250   3.482   3.182  1.0856  0.5791 -0.9892
 4498TIP3   OH234908   4.074   0.367   1.149 -0.1385  0.6382 -0.1952
 4498TIP3    H134909   4.074   0.451   1.196  2.0803  1.2283 -1.1028
 4498TIP3    H234910   4.155   0.324   1.177 -1.1727 -1.1873  0.1475
 4499TIP3   OH234911   2.786   2.229   2.127 -0.4294  0.8677  0.1358
 4499TIP3    H134912   2.766   2.184   2.209  1.3202 -0.1678  0.0429
 4499TIP3    H234913   2.715   2.202   2.068 -1.7724  1.7273  1.2955
 4500TIP3   OH234914   4.391   4.367  14.895  0.7422  0.1830  0.1088
 4500TIP3    H134915   4.330   4.347  14.967  0.8530  0.5302  0.3011
 4500TIP3    H234916   4.466   4.309  14.912  0.3057 -0.5336 -0.3526
 4501TIP3   OH234917   5.430   2.842   5.995 -0.0354 -0.7710 -0.6576
 4501TIP3    H134918   5.461   2.932   6.002 -0.3094 -0.5991 -1.5415
 4501TIP3    H234919   5.337   2.850   5.972 -0.5964 -1.2782  1.2407
 4502TIP3   OH234920   6.365   0.210  15.576  0.0796 -0.3634  0.4911
 4502TIP3    H134921   6.457   0.191  15.556  0.3975  0.1357  1.4581
 4502TIP3    H234922   6.365   0.243  15.665 -0.9494  0.4209  0.2218
 4503TIP3   OH234923   0.780   2.474  11.210 -0.5351  0.4595 -0.0496
 4503TIP3    H134924   0.863   2.488  11.164 -0.7176  1.8842  0.0232
 4503TIP3    H234925   0.786   2.385  11.244  0.1526 -0.1537 -1.7007
 4504TIP3   OH234926   2.764   6.460   0.300 -0.3716 -0.5831 -0.4285
 4504TIP3    H134927   2.709   6.467   0.378 -0.2242  0.0103 -0.3781
 4504TIP3    H234928   2.797   6.548   0.285  3.2379 -1.4238  1.4569
 4505TIP3   OH234929   5.177   1.874   5.873  0.3252  0.4595  0.5522
 4505TIP3    H134930   5.264   1.895   5.839  1.1106 -2.1838  0.7393
 4505TIP3    H234931   5.183   1.889   5.967  0.4781  0.5479  0.5286
 4506TIP3   OH234932   2.842   6.621   3.713 -0.0309 -0.2371  0.5137
 4506TIP3    H134933   2.904   6.668   3.769  1.8484 -1.2389 -0.6223
 4506TIP3    H234934   2.874   6.634   3.624 -3.1874  1.6709 -0.5264
 4507TIP3   OH234935   5.026   2.493  15.753  0.1443  0.5140 -0.2492
 4507TIP3    H134936   5.071   2.426  15.805  1.8181 -0.4480 -2.7287
 4507TIP3    H234937   5.009   2.564  15.815  2.3445 -0.3775  1.5344
 4508TIP3   OH234938   3.176   0.788   3.097 -0.7068  0.6508 -0.2022
 4508TIP3    H134939   3.243   0.778   3.029 -1.5975  0.8704 -1.1391
 4508TIP3    H234940   3.223   0.778   3.179  0.5213  1.0578 -0.8395
 4509TIP3   OH234941   4.363   2.680  16.563  0.0488  0.3700 -0.2844
 4509TIP3    H134942   4.282   2.723  16.537  0.2735  0.9548 -0.0461
 4509TIP3    H234943   4.339   2.588  16.577 -0.7254  0.6767  0.5001
 4510TIP3   OH234944   3.697   5.408   1.571  0.0154 -0.1888  0.6752
 4510TIP3    H134945   3.726   5.494   1.602  0.9521 -0.3392  0.2416
 4510TIP3    H234946   3.708   5.411   1.476 -2.0117 -0.0410  0.3957
 4511TIP3   OH234947   2.859   3.115   3.136 -0.5105 -0.0832  0.0415
 4511TIP3    H134948   2.806   3.165   3.073 -0.0472  0.9146  0.4237
 4511TIP3    H234949   2.840   3.023   3.116  0.6386  0.1331 -2.4899
 4512TIP3   OH234950   5.179   0.629   2.039  0.1632  0.0971 -0.1508
 4512TIP3    H134951   5.097   0.618   1.991  0.4277 -0.3078 -0.5074
 4512TIP3    H234952   5.218   0.542   2.043  0.4530  0.2374  0.2480
 4513TIP3   OH234953   0.148   5.704   0.903 -0.2251  0.2016  0.3425
 4513TIP3    H134954   0.135   5.690   0.997 -1.5274  0.0521  0.1553
 4513TIP3    H234955   0.201   5.783   0.898 -0.2251  0.2681  1.2067
 4514TIP3   OH234956   6.102   2.107   1.915  0.3447  0.4421  0.0539
 4514TIP3    H134957   6.075   2.115   1.824  1.3954 -0.9112 -0.4063
 4514TIP3    H234958   6.021   2.091   1.963  0.0193 -1.3910 -1.0116
 4515TIP3   OH234959   2.827   0.490   1.924 -0.7021 -0.1810 -0.0573
 4515TIP3    H134960   2.848   0.400   1.949 -0.1727  0.1663  0.8081
 4515TIP3    H234961   2.784   0.483   1.839 -0.0197 -1.1943 -0.3321
 4516TIP3   OH234962   6.507   4.446   5.757  0.2866 -0.0350  0.0768
 4516TIP3    H134963   6.472   4.492   5.681  0.0627 -0.3791 -0.0312
 4516TIP3    H234964   6.545   4.515   5.812 -1.4395  0.4795  0.6804
 4517TIP3   OH234965   0.419   1.364   5.137  0.4922  0.1525 -0.3572
 4517TIP3    H134966   0.453   1.274   5.137  0.9893  0.3181  0.8749
 4517TIP3    H234967   0.444   1.399   5.052  1.5848 -0.4133 -0.2945
 4518TIP3   OH234968   4.483   6.735  14.840 -0.6131  0.5641 -0.5342
 4518TIP3    H134969   4.530   6.777  14.912  1.1827  0.1170 -1.3882
 4518TIP3    H234970   4.489   6.797  14.768 -0.4815  0.0986 -0.9322
 4519TIP3   OH234971   3.193   4.023   4.173  1.1678  0.0782  0.1340
 4519TIP3    H134972   3.218   3.945   4.123 -2.4948 -0.4954 -1.1069
 4519TIP3    H234973   3.125   3.991   4.234  0.8741  1.9826  0.8756
 4520TIP3   OH234974   3.742   1.735  12.671  0.3559 -0.4085  0.0824
 4520TIP3    H134975   3.740   1.659  12.612  0.6476 -0.3320 -0.0250
 4520TIP3    H234976   3.768   1.808  12.616  0.0490 -0.2238  0.1811
 4521TIP3   OH234977   4.809   4.527   4.490 -0.1444  0.0951  0.5095
 4521TIP3    H134978   4.772   4.614   4.474 -0.5820 -0.3779 -1.2736
 4521TIP3    H234979   4.889   4.544   4.540  0.1327  1.5848 -0.3602
 4522TIP3   OH234980   2.633   5.613  11.327  0.2856  0.5619  0.1677
 4522TIP3    H134981   2.644   5.631  11.234  3.2366 -1.3612  0.0108
 4522TIP3    H234982   2.560   5.551  11.332  0.7336 -0.0824 -0.9999
 4523TIP3   OH234983   5.783   0.410  15.608  0.0216  0.2862 -0.2147
 4523TIP3    H134984   5.796   0.500  15.578  0.1040  0.0874 -0.7780
 4523TIP3    H234985   5.731   0.369  15.540  0.0044 -0.1029  0.0305
 4524TIP3   OH234986   4.169   4.367   5.469 -0.0077 -0.3854  0.6031
 4524TIP3    H134987   4.113   4.327   5.536 -0.5398 -1.5344 -0.4815
 4524TIP3    H234988   4.108   4.393   5.399  0.6106  0.1004  0.2300
 4525TIP3   OH234989   1.720   6.341  12.974 -0.7981  0.0483 -0.0959
 4525TIP3    H134990   1.667   6.420  12.979 -1.4589 -0.4525  1.0117
 4525TIP3    H234991   1.663   6.271  13.006 -0.5268 -1.0493 -1.8569
 4526TIP3   OH234992   1.167   5.284  14.273  0.3902 -0.2219 -0.3833
 4526TIP3    H134993   1.200   5.229  14.344  0.4359 -0.6101 -0.7022
 4526TIP3    H234994   1.228   5.269  14.201  1.4716  1.6000  0.0608
 4527TIP3   OH234995   6.373   4.207   0.272  0.5324  0.0501 -0.2721
 4527TIP3    H134996   6.421   4.290   0.281 -1.3217  1.1582 -0.0564
 4527TIP3    H234997   6.415   4.163   0.198  1.1637  1.4674 -0.8055
 4528TIP3   OH234998   1.529   0.765   5.095 -0.5815  0.0072  0.2092
 4528TIP3    H134999   1.458   0.760   5.159  1.2088 -0.3958  2.2609
 4528TIP3    H235000   1.609   0.757   5.146  0.9807  0.0647 -2.0568
 4529TIP3   OH235001   0.602   2.879  13.256 -0.6744 -0.3471 -0.2139
 4529TIP3    H135002   0.632   2.961  13.216 -2.3734  0.2992 -0.2593
 4529TIP3    H235003   0.680   2.841  13.296  0.0578  1.5545  0.2648
 4530TIP3   OH235004   3.957   4.059  13.162  0.4277 -0.1203 -0.1445
 4530TIP3    H135005   3.896   3.996  13.200 -0.9253  1.0935 -0.2306
 4530TIP3    H235006   3.902   4.119  13.112  1.7861  0.5350 -0.9171
 4531TIP3   OH235007   4.761   0.536   5.157  0.0406  0.1078 -0.4260
 4531TIP3    H135008   4.678   0.528   5.203  0.1432  1.7133  0.0679
 4531TIP3    H235009   4.737   0.534   5.064 -0.2428 -2.2571 -0.3646
 4532TIP3   OH235010   6.675   5.896   5.026  0.3075 -0.2891 -0.2963
 4532TIP3    H135011   6.723   5.978   5.030  1.1522 -0.7806  0.1143
 4532TIP3    H235012   6.582   5.921   5.030  0.5663  0.6093  0.3021
 4533TIP3   OH235013   6.193   5.730   1.811  0.0949  0.3620 -0.0304
 4533TIP3    H135014   6.125   5.776   1.760 -0.2777 -0.7446 -0.5703
 4533TIP3    H235015   6.146   5.658   1.852  0.8646 -0.1420 -0.0305
 4534TIP3   OH235016   3.563   5.273  14.867  0.0770  0.5500  0.1961
 4534TIP3    H135017   3.576   5.365  14.893  2.5374  0.3292  0.0452
 4534TIP3    H235018   3.624   5.224  14.922  1.3637 -0.5555 -2.0452
 4535TIP3   OH235019   0.954   2.272   2.955  0.5069 -0.3811 -0.3765
 4535TIP3    H135020   1.028   2.254   3.014 -0.0515  0.5510  0.6317
 4535TIP3    H235021   0.924   2.185   2.927 -0.6557 -1.0256  2.5197
 4536TIP3   OH235022   2.763   6.796   2.726  0.7017  0.4107 -0.2929
 4536TIP3    H135023   2.764   6.867   2.662  0.6792  1.5880  0.9661
 4536TIP3    H235024   2.692   6.818   2.785  0.2796 -1.0160 -0.2311
 4537TIP3   OH235025   3.034   6.572   2.159 -0.2152  0.0233 -0.0022
 4537TIP3    H135026   3.036   6.489   2.111  1.9701 -0.3352  0.6179
 4537TIP3    H235027   3.115   6.616   2.133 -1.1689  1.8426 -0.0530
 4538TIP3   OH235028   3.172   5.857   3.336  0.0997 -0.0429  0.0107
 4538TIP3    H135029   3.147   5.891   3.422  0.8623  0.1698  0.1574
 4538TIP3    H235030   3.247   5.800   3.353  0.5708  0.3818 -0.5557
 4539TIP3   OH235031   4.410   3.292   3.502 -0.2947  0.3510  0.1406
 4539TIP3    H135032   4.318   3.283   3.479 -0.5693  2.0182  0.4429
 4539TIP3    H235033   4.452   3.319   3.420 -0.4622  1.6924  0.4812
 4540TIP3   OH235034   4.454   5.548   4.746 -0.2946 -0.8822 -0.6051
 4540TIP3    H135035   4.506   5.628   4.734 -0.2827 -1.0269 -1.6998
 4540TIP3    H235036   4.509   5.491   4.799 -0.5690  0.0654  0.7383
 4541TIP3   OH235037   2.613   5.724  14.527 -0.1204 -0.6294 -0.4128
 4541TIP3    H135038   2.675   5.696  14.460 -0.8233 -1.3869 -0.7637
 4541TIP3    H235039   2.654   5.699  14.609  0.8507  0.5019 -0.5188
 4542TIP3   OH235040   5.463   4.766   2.990 -0.2582  0.0377 -0.1185
 4542TIP3    H135041   5.543   4.782   2.940 -0.7102 -0.1602 -0.9212
 4542TIP3    H235042   5.444   4.673   2.975 -1.1756  0.3167 -0.7412
 4543TIP3   OH235043   0.360   5.390   6.233  0.1310 -0.1269  0.6763
 4543TIP3    H135044   0.423   5.329   6.271  0.7524 -1.3393 -2.0449
 4543TIP3    H235045   0.303   5.335   6.180  0.6617  1.5429 -1.8225
 4544TIP3   OH235046   1.178   2.203   3.064 -0.3331 -0.9074 -0.2178
 4544TIP3    H135047   1.197   2.206   2.971  0.5386 -1.4550 -0.0706
 4544TIP3    H235048   1.261   2.177   3.105 -0.5012  0.0463  0.7789
 4545TIP3   OH235049   3.446   5.035  14.017 -0.0120  0.1961  0.2187
 4545TIP3    H135050   3.445   5.025  13.922  0.7127 -0.1500  0.2438
 4545TIP3    H235051   3.538   5.027  14.042  0.2318  3.3615  0.6616
 4546TIP3   OH235052   1.495   0.360   4.540 -0.2955 -0.3175  0.0847
 4546TIP3    H135053   1.553   0.432   4.565 -0.3455 -0.1343 -0.3116
 4546TIP3    H235054   1.407   0.399   4.541 -0.5169 -0.8106  1.5112
 4547TIP3   OH235055   0.190   5.673  16.037  0.4796  0.4059 -0.3174
 4547TIP3    H135056   0.097   5.653  16.026  0.6384 -0.0201 -1.0075
 4547TIP3    H235057   0.212   5.727  15.961  1.2609 -1.2516 -1.3199
 4548TIP3   OH235058   4.430   2.460  15.244 -0.3298 -0.1176 -0.0902
 4548TIP3    H135059   4.411   2.522  15.315  0.7411  0.8368 -0.6025
 4548TIP3    H235060   4.444   2.376  15.289 -0.2039  0.3495  0.7746
 4549TIP3   OH235061   2.361   0.679  16.364 -0.3988  0.0310  0.1671
 4549TIP3    H135062   2.392   0.630  16.440  2.7046  1.2602 -0.1453
 4549TIP3    H235063   2.326   0.760  16.400 -3.0657 -1.1852  0.4964
 4550TIP3   OH235064   0.208   4.841   0.588  0.6938 -0.4285  0.1011
 4550TIP3    H135065   0.199   4.892   0.508  0.6064 -2.0708 -0.9894
 4550TIP3    H235066   0.119   4.812   0.609  0.8882 -1.1085  0.0194
 4551TIP3   OH235067   0.601   0.327  16.823  0.3146 -0.0188  0.0577
 4551TIP3    H135068   0.600   0.410  16.871  2.0297 -0.4074  0.8264
 4551TIP3    H235069   0.632   0.263  16.887  1.4708 -0.7842 -1.2135
 4552TIP3   OH235070   3.459   2.423  16.934  0.6088 -0.1169 -0.1436
 4552TIP3    H135071   3.430   2.492  16.875 -2.0891  0.2119  1.4018
 4552TIP3    H235072   3.482   2.350  16.877 -1.3183  0.3975 -1.6691
 4553TIP3   OH235073   1.698   0.309  12.228  0.3358 -0.2562  0.1199
 4553TIP3    H135074   1.766   0.309  12.161  0.3068 -3.4266 -0.0520
 4553TIP3    H235075   1.686   0.402  12.249  2.8038  0.6126 -1.7203
 4554TIP3   OH235076   5.990   4.385  11.506  0.2251 -0.1777  0.1756
 4554TIP3    H135077   5.989   4.299  11.547  0.1688  0.2039  1.0074
 4554TIP3    H235078   6.009   4.368  11.414  0.7531 -1.0349  0.4307
 4555TIP3   OH235079   0.854   5.484   3.157 -0.1728 -0.2573  0.5534
 4555TIP3    H135080   0.888   5.571   3.136  0.5789 -0.4853  0.7727
 4555TIP3    H235081   0.840   5.486   3.251 -2.9257  0.5547  0.2216
 4556TIP3   OH235082   0.527   3.342   2.154  0.1154  0.1675  0.1951
 4556TIP3    H135083   0.494   3.344   2.064  0.1105 -0.6029  0.1785
 4556TIP3    H235084   0.490   3.421   2.194 -0.5864  0.0610 -0.2278
 4557TIP3   OH235085   6.306   4.730  11.109 -0.0374  0.1562  0.0507
 4557TIP3    H135086   6.215   4.741  11.137  0.0428 -0.0428  0.3925
 4557TIP3    H235087   6.308   4.644  11.067 -0.0133  0.1741  0.0152
 4558TIP3   OH235088   0.312   6.723   4.281 -0.0083 -0.0553 -0.3340
 4558TIP3    H135089   0.299   6.811   4.315 -0.9536 -0.6721  1.0002
 4558TIP3    H235090   0.269   6.723   4.196 -1.3416  0.3631  0.3142
 4559TIP3   OH235091   5.491   0.381  12.386 -0.1785  0.6021  0.4273
 4559TIP3    H135092   5.421   0.440  12.413 -0.5042  0.2098  0.4519
 4559TIP3    H235093   5.466   0.351  12.299 -0.2976  0.0738  0.6381
 4560TIP3   OH235094   3.805   3.792  14.884  0.3824 -0.4112 -0.6973
 4560TIP3    H135095   3.713   3.774  14.904  0.0498  1.0789 -0.8046
 4560TIP3    H235096   3.808   3.806  14.790  0.7145 -0.3650 -0.6831
 4561TIP3   OH235097   6.161   0.104   1.346  0.4682  0.3352  0.0914
 4561TIP3    H135098   6.211   0.044   1.401 -1.0298  1.1871  2.5507
 4561TIP3    H235099   6.130   0.050   1.274 -0.4590 -1.8082  1.9537
 4562TIP3   OH235100   5.422   6.782   2.880  0.0258 -0.0841  0.0161
 4562TIP3    H135101   5.444   6.804   2.789 -2.0031  0.6353 -0.3647
 4562TIP3    H235102   5.475   6.841   2.933  0.4376  0.2490 -0.7519
 4563TIP3   OH235103   2.127   2.594  15.004  0.4381  0.2423  0.3015
 4563TIP3    H135104   2.063   2.557  14.943  1.2017 -0.4974 -0.0601
 4563TIP3    H235105   2.148   2.680  14.968 -0.3346  0.4939  0.4203
 4564TIP3   OH235106   4.143   5.194   2.181  0.4943 -0.1734  0.1806
 4564TIP3    H135107   4.180   5.275   2.216  0.9916 -0.3926  0.1598
 4564TIP3    H235108   4.121   5.216   2.090 -2.3022  0.9010  0.9927
 4565TIP3   OH235109   6.017   1.268   3.858  0.5056 -0.0115 -0.3980
 4565TIP3    H135110   5.973   1.342   3.816 -0.3052  0.4611  1.1892
 4565TIP3    H235111   5.958   1.193   3.843  0.0052  0.2459  0.2199
 4566TIP3   OH235112   6.763   0.040  16.170 -0.1813  0.3922 -0.5554
 4566TIP3    H135113   6.677   0.024  16.132 -0.0887  1.5117 -1.2927
 4566TIP3    H235114   6.768   0.135  16.179  0.0920  0.2191  1.6383
 4567TIP3   OH235115   6.187   1.519   3.387  0.1104 -0.1861 -0.0415
 4567TIP3    H135116   6.119   1.468   3.343 -1.1630  0.1175  1.4786
 4567TIP3    H235117   6.214   1.464   3.461  1.3397 -0.1835 -0.4762
 4568TIP3   OH235118   3.202   1.855  15.467  0.3314  0.0270 -0.6131
 4568TIP3    H135119   3.216   1.903  15.386 -0.2500  1.9557  0.3644
 4568TIP3    H235120   3.270   1.888  15.526  0.1562 -0.6422 -0.0201
 4569TIP3   OH235121   4.809   6.297  11.661 -0.3114 -0.5037  0.6368
 4569TIP3    H135122   4.841   6.212  11.691 -1.7416 -0.3978  2.6206
 4569TIP3    H235123   4.784   6.343  11.740  0.6142  1.9035 -0.3714
 4570TIP3   OH235124   6.210   4.428  14.360  0.0510  0.1213 -0.0304
 4570TIP3    H135125   6.273   4.388  14.301 -1.2589  0.0056 -1.4056
 4570TIP3    H235126   6.234   4.520  14.363  0.0422  0.1529 -0.8753
 4571TIP3   OH235127   3.717   2.699   5.173  0.2807  0.1885 -0.0366
 4571TIP3    H135128   3.703   2.660   5.259  1.2156  0.3403  0.1929
 4571TIP3    H235129   3.629   2.706   5.135 -0.3014  1.3573  1.4404
 4572TIP3   OH235130   1.496   2.513   2.037  0.4179 -0.4039 -0.3166
 4572TIP3    H135131   1.535   2.446   1.982  1.1493  0.9967 -1.5910
 4572TIP3    H235132   1.562   2.583   2.041 -0.8651  0.8635 -0.2808
 4573TIP3   OH235133   2.725   6.608   2.054  0.7075 -0.1016  0.3971
 4573TIP3    H135134   2.800   6.560   2.020  0.3109  0.4239 -1.2978
 4573TIP3    H235135   2.689   6.551   2.123  3.2557  0.1296  2.0559
 4574TIP3   OH235136   0.709   3.508   1.618  0.0091  0.1604  0.2069
 4574TIP3    H135137   0.615   3.522   1.630  0.0230  1.1368 -0.6267
 4574TIP3    H235138   0.742   3.593   1.590  0.6386 -0.8098 -2.3200
 4575TIP3   OH235139   0.504   4.749  16.452 -0.7115 -0.1023  0.2344
 4575TIP3    H135140   0.502   4.813  16.523  0.1515  0.6483 -0.3965
 4575TIP3    H235141   0.579   4.693  16.472 -1.3385 -0.8070  0.6720
 4576TIP3   OH235142   0.002   6.793   2.594  0.2738 -0.2403 -0.1133
 4576TIP3    H135143   0.088   6.778   2.553  0.1187 -1.0405 -0.1766
 4576TIP3    H235144  -0.002   6.887   2.609 -0.0652  0.2502 -2.8263
 4577TIP3   OH235145   5.244   0.379  16.485  0.4976 -0.2603 -0.1764
 4577TIP3    H135146   5.224   0.419  16.570  2.4466  1.7818 -0.5924
 4577TIP3    H235147   5.179   0.416  16.425  0.5590  0.1280 -0.0085
 4578TIP3   OH235148   3.924   5.069   2.312 -0.3860  0.3239  0.7501
 4578TIP3    H135149   3.982   5.109   2.247 -1.6878  1.0567  0.0015
 4578TIP3    H235150   3.912   4.979   2.281  0.4557  0.1167  0.9992
 4579TIP3   OH235151   0.961   0.826  15.381  0.5309 -0.1120  0.6754
 4579TIP3    H135152   1.023   0.794  15.316 -1.2764  0.2202 -1.2996
 4579TIP3    H235153   1.002   0.904  15.417  0.4698  1.3022 -2.0638
 4580TIP3   OH235154   3.942   3.216  14.682  0.3189 -0.2056  0.1415
 4580TIP3    H135155   3.971   3.243  14.595  0.0066 -1.0731 -0.2494
 4580TIP3    H235156   3.892   3.135  14.666  2.5028 -1.8910  1.4015
 4581TIP3   OH235157   5.413   5.040   2.211  0.3444 -0.2065  0.1783
 4581TIP3    H135158   5.409   5.130   2.180 -1.0846 -0.1809  0.3608
 4581TIP3    H235159   5.443   5.047   2.302  0.5646  0.0605  0.0841
 4582TIP3   OH235160   4.402   5.644   0.701 -0.6457 -0.1733  0.1927
 4582TIP3    H135161   4.373   5.685   0.619  0.9948  1.5636  0.3893
 4582TIP3    H235162   4.389   5.712   0.767 -0.6674 -1.0700  1.1284
 4583TIP3   OH235163   2.222   2.525   0.283  0.2643  0.4917  0.4778
 4583TIP3    H135164   2.288   2.488   0.340  0.9019 -1.0527 -1.1654
 4583TIP3    H235165   2.145   2.469   0.297  0.7070 -0.4823 -0.7754
 4584TIP3   OH235166   4.377   1.488   6.264  0.5225 -0.6221 -0.7373
 4584TIP3    H135167   4.311   1.518   6.201  0.7064 -0.1300 -0.6964
 4584TIP3    H235168   4.421   1.568   6.292 -2.0359 -0.2506  2.9048
 4585TIP3   OH235169   2.215   1.281  16.232 -0.4905 -0.8007 -0.6435
 4585TIP3    H135170   2.231   1.233  16.151 -0.5032 -3.1929  0.6865
 4585TIP3    H235171   2.189   1.214  16.295  2.7526  0.3550  2.2623
 4586TIP3   OH235172   5.900   3.510  16.347 -0.3485 -0.1148 -0.1384
 4586TIP3    H135173   5.874   3.456  16.422 -1.7999 -0.2355 -0.6838
 4586TIP3    H235174   5.865   3.463  16.271  2.0624 -0.5864 -1.0477
 4587TIP3   OH235175   4.734   2.138  12.963 -0.2331  0.2855  0.0806
 4587TIP3    H135176   4.744   2.093  13.047  0.4335 -1.4853 -0.8839
 4587TIP3    H235177   4.720   2.067  12.900 -0.9252  1.5861 -1.2790
 4588TIP3   OH235178   1.629   6.016   6.413  0.4692  0.0617 -0.0064
 4588TIP3    H135179   1.696   6.012   6.344  1.9946 -0.1357  1.4244
 4588TIP3    H235180   1.678   6.005   6.494 -1.1310  1.4049  1.2025
 4589TIP3   OH235181   4.900   5.786  13.321  0.2882  0.1003  0.0291
 4589TIP3    H135182   4.912   5.823  13.408  0.4509 -0.3128  0.1828
 4589TIP3    H235183   4.920   5.693  13.330 -0.1036 -0.0310 -0.3594
 4590TIP3   OH235184   0.805   3.106  15.916 -0.6775  0.2283  0.0092
 4590TIP3    H135185   0.877   3.104  15.978 -0.2320  1.9006 -0.4060
 4590TIP3    H235186   0.785   3.014  15.898  0.2035 -0.2542  1.4318
 4591TIP3   OH235187   3.615   2.803  12.030 -0.0328 -0.2859  0.9961
 4591TIP3    H135188   3.574   2.785  11.946  1.2167 -2.8411  0.8275
 4591TIP3    H235189   3.545   2.839  12.084 -1.2494 -0.0754 -0.6640
 4592TIP3   OH235190   3.454   5.209   1.450  1.0025 -0.0368 -0.3060
 4592TIP3    H135191   3.419   5.202   1.539 -1.0220 -2.2774 -1.1708
 4592TIP3    H235192   3.510   5.132   1.440  2.7234  1.1741 -0.4233
 4593TIP3   OH235193   0.381   2.756   0.879 -0.5445 -0.0840 -0.0632
 4593TIP3    H135194   0.381   2.834   0.823 -4.6335 -0.1433 -0.4737
 4593TIP3    H235195   0.358   2.684   0.820  4.5084 -2.1564 -0.0083
 4594TIP3   OH235196   0.822   1.197  14.943  0.1808  0.0173  0.7615
 4594TIP3    H135197   0.765   1.219  14.870 -0.1553 -2.0082  0.3605
 4594TIP3    H235198   0.762   1.176  15.015  0.5054  2.0449  1.7165
 4595TIP3   OH235199   4.073   1.907   3.481  0.7988 -1.1147  0.3555
 4595TIP3    H135200   4.140   1.840   3.497  1.2444 -0.6411  0.5274
 4595TIP3    H235201   4.012   1.867   3.420  1.5824 -1.3413 -0.2879
 4596TIP3   OH235202   2.343   5.332   0.552 -0.2289  0.0463 -0.2480
 4596TIP3    H135203   2.273   5.269   0.539 -1.3124  1.2335 -0.3451
 4596TIP3    H235204   2.348   5.344   0.646 -1.8865  1.7756 -0.3144
 4597TIP3   OH235205   5.512   1.314  14.756 -0.4155 -0.2157 -0.4202
 4597TIP3    H135206   5.439   1.266  14.797  0.6382 -0.9404  0.6991
 4597TIP3    H235207   5.573   1.245  14.729 -1.7077  0.0809 -4.7629
 4598TIP3   OH235208   6.769   4.616   1.487 -0.5508  0.1955  0.5804
 4598TIP3    H135209   6.787   4.633   1.394 -1.8888 -0.9497  0.0812
 4598TIP3    H235210   6.802   4.694   1.532  1.6361  0.0758 -0.6546
 4599TIP3   OH235211   4.664   1.401   1.597 -0.4574  0.7351  0.0041
 4599TIP3    H135212   4.756   1.379   1.609 -0.3083  2.5227  2.7745
 4599TIP3    H235213   4.659   1.430   1.505  0.9948 -2.2967 -1.1824
 4600TIP3   OH235214   4.540   3.946  14.050 -0.3197 -0.2542  0.2950
 4600TIP3    H135215   4.496   3.996  13.980  1.7015  1.8860  0.4500
 4600TIP3    H235216   4.469   3.925  14.111 -1.9313 -1.0961 -1.7162
 4601TIP3   OH235217   4.425   5.051   2.984 -0.1911  0.2540  0.0360
 4601TIP3    H135218   4.451   5.061   2.893 -1.5938  2.1601 -0.2002
 4601TIP3    H235219   4.395   4.960   2.991  1.4697 -0.4016 -0.9572
 4602TIP3   OH235220   0.320   1.233  14.198  0.0021  0.1572 -0.8925
 4602TIP3    H135221   0.360   1.315  14.169 -1.3218  1.9967  1.9714
 4602TIP3    H235222   0.319   1.240  14.293 -0.0805 -3.3155 -0.5222
 4603TIP3   OH235223   6.489   3.902   0.472 -0.2396  0.0351 -0.3256
 4603TIP3    H135224   6.460   3.819   0.436 -0.1346 -0.7057  1.2014
 4603TIP3    H235225   6.409   3.943   0.505 -0.0089 -0.6764  1.2422
 4604TIP3   OH235226   2.363   2.721  16.737  0.1134 -0.4789 -0.1349
 4604TIP3    H135227   2.355   2.800  16.683  0.2986  0.2293  0.8568
 4604TIP3    H235228   2.277   2.680  16.731 -0.7048  0.9468  1.0539
 4605TIP3   OH235229   2.810   2.241   0.224 -0.4432 -0.3164 -0.8193
 4605TIP3    H135230   2.901   2.261   0.248 -1.1868  0.6057  1.5215
 4605TIP3    H235231   2.814   2.152   0.189  1.4149 -0.1242 -1.2137
 4606TIP3   OH235232   1.004   5.672  16.372  0.5612  0.2807  0.3118
 4606TIP3    H135233   0.956   5.627  16.302 -0.8785  1.6228  0.3835
 4606TIP3    H235234   1.096   5.659  16.350  0.2135 -2.0794 -0.0376
 4607TIP3   OH235235   6.725   1.774   2.002 -0.0539  0.5366  0.0189
 4607TIP3    H135236   6.735   1.834   2.076 -0.4497  1.4912 -0.6821
 4607TIP3    H235237   6.643   1.800   1.962  0.9229  1.1167 -1.7064
 4608TIP3   OH235238   5.605   5.687   5.639  0.2818  0.0707  0.3306
 4608TIP3    H135239   5.591   5.771   5.682 -1.5305  0.0300 -0.1048
 4608TIP3    H235240   5.559   5.624   5.694 -0.4464 -0.2563 -0.6136
 4609TIP3   OH235241   1.696   5.851   3.030 -0.3686  0.4331 -0.4477
 4609TIP3    H135242   1.721   5.892   2.947 -0.0361  0.4283 -0.3511
 4609TIP3    H235243   1.634   5.783   3.005  0.4598 -0.2113 -0.7994
 4610TIP3   OH235244   6.443   3.170   1.858 -0.3469  0.0366 -0.1771
 4610TIP3    H135245   6.489   3.099   1.814 -1.0592 -0.1708 -0.6087
 4610TIP3    H235246   6.358   3.174   1.814 -0.6432  0.5744  0.4311
 4611TIP3   OH235247   5.690   6.726  14.938 -0.3783  0.4467 -0.2241
 4611TIP3    H135248   5.692   6.662  14.867 -2.3036 -0.3621  0.3787
 4611TIP3    H235249   5.768   6.707  14.989  0.2009 -0.0030 -1.2340
 4612TIP3   OH235250   4.334   0.535   1.678  0.7150 -0.1522  0.3632
 4612TIP3    H135251   4.368   0.451   1.707 -2.0290 -2.3089 -1.9885
 4612TIP3    H235252   4.243   0.536   1.708  0.2530  1.2689 -0.9305
 4613TIP3   OH235253   5.244   3.484  15.820  0.0006  0.0479  0.0242
 4613TIP3    H135254   5.328   3.458  15.783 -0.6437 -1.0715 -0.7192
 4613TIP3    H235255   5.183   3.415  15.792 -0.8532 -0.0094  1.8577
 4614TIP3   OH235256   3.298   2.291  11.710 -0.0783 -0.1728  0.4216
 4614TIP3    H135257   3.272   2.214  11.660 -1.8953  0.1239  0.8324
 4614TIP3    H235258   3.297   2.262  11.802  1.1515 -0.1543  0.4565
 4615TIP3   OH235259   1.090   6.109  12.519  0.2183 -0.4118  0.4439
 4615TIP3    H135260   1.017   6.133  12.461  0.7995 -1.4201 -0.7489
 4615TIP3    H235261   1.050   6.051  12.584 -0.5143  1.0220  1.3418
 4616TIP3   OH235262   1.932   2.845   1.157 -0.2327  0.1330  0.3871
 4616TIP3    H135263   1.909   2.789   1.082 -0.9720  2.1172 -0.9399
 4616TIP3    H235264   1.915   2.934   1.126  2.9933  1.3180  1.6518
 4617TIP3   OH235265   4.764   1.818   6.337 -0.4353  0.0720  0.2949
 4617TIP3    H135266   4.821   1.751   6.376 -0.1387  1.1936  1.8744
 4617TIP3    H235267   4.819   1.896   6.332 -1.2530  0.6409 -0.0051
 4618TIP3   OH235268   3.344   1.823   3.675 -0.1502  0.2292 -0.1973
 4618TIP3    H135269   3.410   1.887   3.647 -2.0564  1.6572 -1.7020
 4618TIP3    H235270   3.374   1.794   3.761  1.5345  2.0867 -0.0818
 4619TIP3   OH235271   3.115   0.136   5.218 -0.2406  0.3625 -0.7354
 4619TIP3    H135272   3.059   0.204   5.254  0.1199 -0.3745  1.3716
 4619TIP3    H235273   3.192   0.136   5.275  0.6765 -0.4456 -1.9343
 4620TIP3   OH235274   4.472   1.297  11.477 -0.5746 -0.0626 -0.0915
 4620TIP3    H135275   4.547   1.322  11.423  0.2535  0.1790  1.1382
 4620TIP3    H235276   4.473   1.201  11.476  1.5034 -0.1544  2.1773
 4621TIP3   OH235277   3.883   4.129  14.261  0.2675  0.3979  0.1156
 4621TIP3    H135278   3.978   4.130  14.256  0.4845  1.5884  2.5494
 4621TIP3    H235279   3.860   4.036  14.266  1.4169  0.1249  0.6626
 4622TIP3   OH235280   1.511   5.922   5.685 -0.3349 -0.0922 -0.4017
 4622TIP3    H135281   1.520   5.835   5.648 -0.8711 -0.1317 -0.4560
 4622TIP3    H235282   1.569   5.923   5.761 -0.6469 -0.6379 -0.1546
 4623TIP3   OH235283   5.338   3.944   4.793  0.3320 -0.2206  0.6881
 4623TIP3    H135284   5.270   3.997   4.835 -1.0855 -2.9804  2.1688
 4623TIP3    H235285   5.383   3.900   4.865  1.5024 -0.9788 -0.4453
 4624TIP3   OH235286   3.366   3.513  12.269 -0.2814  0.1345  0.0807
 4624TIP3    H135287   3.334   3.522  12.179  0.9752  0.7819 -0.3244
 4624TIP3    H235288   3.343   3.424  12.294 -1.5155  0.2669 -0.5285
 4625TIP3   OH235289   5.066   2.156   0.228  0.4822 -0.5154 -0.1308
 4625TIP3    H135290   5.007   2.131   0.299 -1.2797  1.2267 -0.8810
 4625TIP3    H235291   5.008   2.173   0.154  1.7353  2.5037 -0.5582
 4626TIP3   OH235292   6.542   5.451   1.917  0.9786  0.1698 -0.1866
 4626TIP3    H135293   6.570   5.363   1.942  2.5231 -0.6259 -3.9193
 4626TIP3    H235294   6.474   5.436   1.850  0.9017  1.8086 -0.5134
 4627TIP3   OH235295   0.384   1.544   1.341  0.2717  0.2248 -0.3331
 4627TIP3    H135296   0.348   1.615   1.394 -1.3202 -3.1203  3.6281
 4627TIP3    H235297   0.325   1.537   1.266 -0.3316  2.1586 -0.0781
 4628TIP3   OH235298   1.134   1.057   3.690 -0.6031 -0.0691  0.3039
 4628TIP3    H135299   1.075   1.105   3.748 -0.1914 -1.1389  1.6776
 4628TIP3    H235300   1.108   1.083   3.602 -0.7519  2.1958  0.9713
 4629TIP3   OH235301   1.658   5.183   2.014 -0.0644 -0.5221  0.1895
 4629TIP3    H135302   1.592   5.115   2.017  0.4371 -1.0676 -0.7157
 4629TIP3    H235303   1.624   5.252   2.071 -1.3678 -0.8145 -0.2003
 4630TIP3   OH235304   5.813   6.546   2.469  0.0137 -0.1871 -0.3961
 4630TIP3    H135305   5.839   6.618   2.412 -0.0556  0.0023 -0.1893
 4630TIP3    H235306   5.893   6.524   2.518 -0.6256  1.6521  1.6180
 4631TIP3   OH235307   2.144   5.898  11.120 -0.5400 -0.7547 -0.2186
 4631TIP3    H135308   2.125   5.910  11.213 -1.6028 -0.7370 -0.4324
 4631TIP3    H235309   2.238   5.877  11.118 -0.6650 -1.5492  0.9227
 4632TIP3   OH235310   1.919   6.080   2.572  0.4884  0.3656 -0.5319
 4632TIP3    H135311   1.913   6.169   2.538 -0.6351  0.9681  1.0981
 4632TIP3    H235312   2.010   6.055   2.559  0.7753  1.6685 -1.2099
 4633TIP3   OH235313   2.761   0.726   5.093  0.1588 -0.3076 -0.0563
 4633TIP3    H135314   2.775   0.733   4.998 -1.6947 -1.1466 -0.4341
 4633TIP3    H235315   2.676   0.768   5.108  0.3208 -0.3984  1.1986
 4634TIP3   OH235316   5.101   4.590  16.570  0.0629  0.3068  0.4944
 4634TIP3    H135317   5.078   4.661  16.630 -1.2774  1.1938 -0.9825
 4634TIP3    H235318   5.076   4.622  16.483  1.1640 -1.2514 -0.4627
 4635TIP3   OH235319   6.660   4.870  12.653 -0.2700 -0.2526  0.3150
 4635TIP3    H135320   6.630   4.956  12.683 -0.8895 -0.6984  1.0188
 4635TIP3    H235321   6.591   4.810  12.682 -0.7345 -0.7727 -1.6795
 4636TIP3   OH235322   0.698   4.394  14.417 -0.0298  0.3050  0.1957
 4636TIP3    H135323   0.702   4.459  14.347 -3.6002 -0.6261 -1.0531
 4636TIP3    H235324   0.607   4.395  14.447  0.7154 -1.3437  2.9349
 4637TIP3   OH235325   1.769   4.510  16.111  0.1162  0.0646 -0.2419
 4637TIP3    H135326   1.822   4.541  16.038  0.0357  0.4098 -0.1554
 4637TIP3    H235327   1.732   4.427  16.081  1.6170 -0.7794  0.1010
 4638TIP3   OH235328   2.074   1.008  14.823 -0.1265  0.2664 -0.3049
 4638TIP3    H135329   2.011   1.068  14.783 -0.9637 -0.5604 -0.2607
 4638TIP3    H235330   2.159   1.038  14.791 -0.7102  0.0742 -2.1179
 4639TIP3   OH235331   3.721   2.401   1.578 -0.0450  0.0358  0.4041
 4639TIP3    H135332   3.742   2.348   1.655 -2.0477 -0.7363  0.4618
 4639TIP3    H235333   3.708   2.489   1.613  1.5129  0.2449  0.5543
 4640TIP3   OH235334   1.490   2.963   2.015  0.0185  0.3350 -0.3834
 4640TIP3    H135335   1.403   2.933   2.043 -0.9571  1.2200 -2.2396
 4640TIP3    H235336   1.487   3.058   2.029  0.7433  0.3603 -0.3781
 4641TIP3   OH235337   3.141   2.403   4.361 -0.6289  0.3782 -0.2076
 4641TIP3    H135338   3.155   2.455   4.441  2.2872  0.3503 -0.5709
 4641TIP3    H235339   3.103   2.321   4.392  0.6352  0.2908  1.2288
 4642TIP3   OH235340   3.170   4.465   4.900 -0.3318 -0.3557 -0.2245
 4642TIP3    H135341   3.232   4.403   4.939  0.8008  0.1645 -1.1379
 4642TIP3    H235342   3.210   4.551   4.914 -1.0941  0.0293 -0.3860
 4643TIP3   OH235343   5.276   1.505   3.885 -0.0393  0.3021  0.8890
 4643TIP3    H135344   5.222   1.457   3.823  0.2779  0.8746  0.1482
 4643TIP3    H235345   5.228   1.500   3.968 -0.3754 -0.6276  0.6433
 4644TIP3   OH235346   0.225   0.521   0.518  0.3862  0.2755  0.6372
 4644TIP3    H135347   0.238   0.616   0.529  0.9778  0.5456 -1.6699
 4644TIP3    H235348   0.131   0.508   0.528  0.0225  1.4551 -0.8186
 4645TIP3   OH235349   6.054   1.509   5.882  0.2590  1.0154 -0.5378
 4645TIP3    H135350   6.096   1.582   5.928  1.7177  0.3433 -0.7243
 4645TIP3    H235351   6.122   1.442   5.877 -0.9890 -0.2915 -0.5494
 4646TIP3   OH235352   3.628   5.084   5.918 -0.3996 -0.4703 -0.1641
 4646TIP3    H135353   3.541   5.046   5.920 -0.4339 -0.3870  1.5388
 4646TIP3    H235354   3.629   5.147   5.990  0.7006  0.3782 -0.8786
 4647TIP3   OH235355   0.974   3.657  14.467 -0.1912 -0.4384  0.5131
 4647TIP3    H135356   1.049   3.711  14.493 -0.7307 -0.3853  2.0999
 4647TIP3    H235357   1.002   3.567  14.484 -0.5231 -0.4085  1.2631
 4648TIP3   OH235358   6.663   6.028   1.042 -0.3177 -0.2187 -0.1846
 4648TIP3    H135359   6.648   5.941   1.005 -1.6240  0.6383 -1.7990
 4648TIP3    H235360   6.684   6.011   1.134 -2.9406 -2.1363  0.1820
 4649TIP3   OH235361   5.513   6.132   1.534 -0.1815 -0.1019  0.5482
 4649TIP3    H135362   5.606   6.155   1.529 -0.5233  1.3858  0.6015
 4649TIP3    H235363   5.498   6.082   1.454  0.8104 -0.9592  0.8747
 4650TIP3   OH235364   6.410   4.222  12.017  0.2290  0.4526 -0.2438
 4650TIP3    H135365   6.364   4.217  12.101  0.6854 -0.4219 -0.0422
 4650TIP3    H235366   6.501   4.202  12.037  0.0011 -1.9007 -1.2272
 4651TIP3   OH235367   2.410   2.706  12.173 -0.1708 -0.0625  0.1305
 4651TIP3    H135368   2.455   2.784  12.140 -0.9643  0.3895  0.1015
 4651TIP3    H235369   2.318   2.721  12.154 -0.2454 -1.4074 -0.6636
 4652TIP3   OH235370   3.200   2.578  15.624  0.1588 -0.3059  0.1825
 4652TIP3    H135371   3.250   2.541  15.697  0.3468 -0.6161 -0.1023
 4652TIP3    H235372   3.250   2.554  15.546  1.2676  2.0680  0.0838
 4653TIP3   OH235373   4.857   2.546  15.543  0.2849  0.0456  0.0726
 4653TIP3    H135374   4.934   2.560  15.598  0.8247  2.6315 -1.1748
 4653TIP3    H235375   4.785   2.587  15.592  0.4209  0.7337 -0.2799
 4654TIP3   OH235376   3.620   2.611  14.889  0.4941 -0.1487  0.2225
 4654TIP3    H135377   3.606   2.661  14.809  1.1357  0.3668  0.4250
 4654TIP3    H235378   3.594   2.671  14.959 -0.2526 -0.6674  0.3963
 4655TIP3   OH235379   1.168   1.568  12.398  0.5217  0.5946 -0.4090
 4655TIP3    H135380   1.169   1.613  12.314  1.8576  0.7007 -0.3537
 4655TIP3    H235381   1.237   1.502  12.391  0.2917  0.2504  0.4129
 4656TIP3   OH235382   6.548   3.878  13.009  0.4745  0.1663 -0.2159
 4656TIP3    H135383   6.509   3.962  13.032  2.1684  0.8912  0.1804
 4656TIP3    H235384   6.559   3.882  12.914  0.8402  0.5369 -0.1620
 4657TIP3   OH235385   0.735   1.793  15.446 -0.4046 -0.1449 -0.5502
 4657TIP3    H135386   0.716   1.717  15.500  0.6336 -0.8708 -1.1682
 4657TIP3    H235387   0.791   1.849  15.501 -0.7716 -0.0533 -0.2680
 4658TIP3   OH235388   3.989   1.090  15.110 -0.2079  0.6261  0.2172
 4658TIP3    H135389   4.043   1.163  15.079  0.1783  0.3457  0.2142
 4658TIP3    H235390   3.905   1.129  15.133 -0.4320  0.8756 -0.9832
 4659TIP3   OH235391   0.330   0.092   4.622  0.1867 -0.3011 -0.2864
 4659TIP3    H135392   0.293   0.078   4.535  0.6027  0.4051 -0.5833
 4659TIP3    H235393   0.254   0.097   4.681 -0.0625 -1.8389 -0.4336
 4660TIP3   OH235394   2.721   1.342   5.389  0.3921 -0.1635  0.1811
 4660TIP3    H135395   2.635   1.357   5.430  0.8607  0.3884  0.9863
 4660TIP3    H235396   2.780   1.401   5.435  1.4067 -1.2615  0.3261
 4661TIP3   OH235397   2.031   3.195   4.828 -0.3183 -0.3496  0.5935
 4661TIP3    H135398   1.985   3.121   4.867 -1.7433  0.2049  0.0253
 4661TIP3    H235399   2.078   3.158   4.754  0.6607 -1.0236  1.5158
 4662TIP3   OH235400   4.365   4.073   2.162 -0.0465  0.2259  0.1706
 4662TIP3    H135401   4.293   4.015   2.137  0.2631 -0.1394  0.1140
 4662TIP3    H235402   4.323   4.144   2.210 -0.1250 -1.8181  3.4540
 4663TIP3   OH235403   6.720   2.961  11.856 -0.9301 -0.4829  0.5416
 4663TIP3    H135404   6.771   3.037  11.885 -1.2485 -0.7858  1.9696
 4663TIP3    H235405   6.771   2.924  11.784  0.0406  0.1695  0.8753
 4664TIP3   OH235406   6.572   0.392  15.209 -0.2562  0.4900 -0.2352
 4664TIP3    H135407   6.598   0.440  15.131  0.3729 -0.9586 -0.9568
 4664TIP3    H235408   6.538   0.309  15.176  0.6528 -0.4448  1.0511
 4665TIP3   OH235409   3.627   6.772   6.259 -0.3372 -0.5617 -0.4479
 4665TIP3    H135410   3.576   6.846   6.228 -0.7935 -0.6621  0.0290
 4665TIP3    H235411   3.578   6.695   6.229 -1.0514 -0.6604  0.8834
 4666TIP3   OH235412   2.263   6.289  13.453  0.6524 -0.1115 -0.1580
 4666TIP3    H135413   2.263   6.208  13.502 -2.4189  0.2889  0.7308
 4666TIP3    H235414   2.355   6.314  13.446  1.5387 -2.7548  0.9822
 4667TIP3   OH235415   0.017   5.819  15.183 -0.2684 -0.4642  0.2503
 4667TIP3    H135416   0.070   5.756  15.134 -0.1307 -2.0973  2.3753
 4667TIP3    H235417  -0.048   5.766  15.229 -0.4692  0.9924  1.7387
 4668TIP3   OH235418   1.830   4.331  13.171  0.2792  0.1761 -0.0543
 4668TIP3    H135419   1.828   4.341  13.076  2.7573  0.5309 -0.1224
 4668TIP3    H235420   1.817   4.420  13.205  0.9283  0.2959 -0.1113
 4669TIP3   OH235421   5.559   3.486   4.261  0.1390  0.6477 -0.4341
 4669TIP3    H135422   5.592   3.452   4.344 -1.7228 -0.8427 -0.2449
 4669TIP3    H235423   5.524   3.409   4.216  2.1317  1.1735 -3.1781
 4670TIP3   OH235424   2.858   0.126   5.028  0.5472  0.9384 -0.3196
 4670TIP3    H135425   2.928   0.189   5.047  0.6532  0.7659 -0.1337
 4670TIP3    H235426   2.846   0.132   4.933  0.8824  0.8992 -0.3685
 4671TIP3   OH235427   1.890   3.355   1.421  0.4954  0.4273 -0.3980
 4671TIP3    H135428   1.978   3.394   1.421  0.1286  1.3556 -1.9064
 4671TIP3    H235429   1.903   3.267   1.384  0.7591  0.6864 -0.9391
 4672TIP3   OH235430   0.309   4.652   0.778  0.1331 -0.2997  0.4228
 4672TIP3    H135431   0.294   4.716   0.709 -0.8601 -2.2778 -1.3416
 4672TIP3    H235432   0.258   4.683   0.852  0.7630  1.5961  0.1085
 4673TIP3   OH235433   6.418   5.535  14.951  0.3097 -0.2996 -0.5324
 4673TIP3    H135434   6.324   5.516  14.963  0.1475  0.9024  0.2684
 4673TIP3    H235435   6.426   5.628  14.973  2.0887 -0.9319  1.9486
 4674TIP3   OH235436   4.215   5.662  14.428 -0.3416  0.3820  0.0697
 4674TIP3    H135437   4.170   5.632  14.508  0.5014 -1.6700 -0.1652
 4674TIP3    H235438   4.295   5.703  14.459 -1.0986  1.6981  0.3577
 4675TIP3   OH235439   6.586   0.988  14.161  0.4787  0.4578 -0.2352
 4675TIP3    H135440   6.634   0.931  14.221 -0.5305 -1.2059 -0.9247
 4675TIP3    H235441   6.624   0.971  14.075  0.4939  1.2091 -0.3825
 4676TIP3   OH235442   3.253   2.512  11.910 -0.0845  0.0026 -0.6405
 4676TIP3    H135443   3.330   2.456  11.915  0.3616  0.6800  0.3510
 4676TIP3    H235444   3.179   2.452  11.916  0.3548 -0.6257 -1.3148
 4677TIP3   OH235445   2.758   3.528  17.008  0.4911 -0.1499  0.8523
 4677TIP3    H135446   2.743   3.433  17.009 -0.5784 -0.0738 -1.8376
 4677TIP3    H235447   2.720   3.559  17.090 -1.7787 -1.7263  0.4778
 4678TIP3   OH235448   3.563   3.356  16.203  0.6165  0.1609 -0.1521
 4678TIP3    H135449   3.514   3.309  16.136 -0.7181 -0.9112  1.5035
 4678TIP3    H235450   3.621   3.291  16.241 -0.1254  0.1967  1.1037
 4679TIP3   OH235451   4.579   0.154   1.970  0.3132  0.4320 -0.5241
 4679TIP3    H135452   4.656   0.123   1.923 -0.3889 -1.3293 -0.5747
 4679TIP3    H235453   4.540   0.075   2.007  0.2206  1.6082  2.1205
 4680TIP3   OH235454   5.656   0.877   0.804  0.2737  0.7368 -0.3158
 4680TIP3    H135455   5.689   0.799   0.847 -2.7213 -0.6034 -0.1675
 4680TIP3    H235456   5.647   0.851   0.712 -0.2823  1.0383 -0.3533
 4681TIP3   OH235457   6.010   1.263  15.276  0.2754 -0.6942  0.0546
 4681TIP3    H135458   6.028   1.327  15.344 -0.4504 -0.4568  0.0326
 4681TIP3    H235459   5.979   1.186  15.322 -0.3180 -0.4971 -0.0063
 4682TIP3   OH235460   2.006   3.999  14.535 -0.2363 -0.4974 -0.3018
 4682TIP3    H135461   2.088   4.040  14.561  0.5249 -0.7810 -2.0879
 4682TIP3    H235462   1.944   4.071  14.527  0.0828 -0.1657  0.1804
 4683TIP3   OH235463   0.261   5.028   5.888  0.0730  0.8602  0.3883
 4683TIP3    H135464   0.279   5.001   5.797  2.8813  3.5440  0.0079
 4683TIP3    H235465   0.235   4.947   5.931  0.9698 -0.9919 -2.2568
 4684TIP3   OH235466   5.924   0.995  13.503 -0.2857 -0.8422  0.0616
 4684TIP3    H135467   5.899   0.919  13.451 -0.0499 -0.6924 -0.2722
 4684TIP3    H235468   5.884   1.070  13.458 -2.3076 -0.9425  1.5320
 4685TIP3   OH235469   3.453   1.870  16.686  0.5699 -0.0491  0.6863
 4685TIP3    H135470   3.497   1.787  16.706 -0.5794 -0.7368  0.4792
 4685TIP3    H235471   3.513   1.937  16.718  2.4280 -0.8667 -0.8064
 4686TIP3   OH235472   0.616   2.804   4.288 -0.2040 -0.0463 -0.4872
 4686TIP3    H135473   0.663   2.885   4.271  0.0097 -0.0596  0.0172
 4686TIP3    H235474   0.528   2.832   4.313 -0.0632  0.0459 -0.0820
 4687TIP3   OH235475   6.506   4.721   3.165 -0.6330  0.1712  0.2183
 4687TIP3    H135476   6.528   4.627   3.165 -1.0907  0.0069 -1.7709
 4687TIP3    H235477   6.410   4.722   3.170 -0.6789  0.4767 -0.5752
 4688TIP3   OH235478   5.923   0.159  13.670 -0.4756  0.2910  0.1420
 4688TIP3    H135479   5.940   0.237  13.617 -1.2705  1.0144  0.9164
 4688TIP3    H235480   5.828   0.145  13.662 -0.1232 -1.7505 -1.5244
 4689TIP3   OH235481   0.637   2.940  14.818 -0.0167 -0.3027  0.1186
 4689TIP3    H135482   0.621   3.005  14.887  1.3332  0.2170 -0.0210
 4689TIP3    H235483   0.569   2.874  14.831 -1.9034  1.4852 -0.1880
 4690TIP3   OH235484   4.675   5.367   2.235 -0.8519  0.2729  0.2053
 4690TIP3    H135485   4.754   5.414   2.263  1.3417 -1.4817 -2.4688
 4690TIP3    H235486   4.611   5.436   2.217  0.8158  1.9517  0.3301
 4691TIP3   OH235487   6.741   0.222   2.003  0.2572 -0.4010  0.3122
 4691TIP3    H135488   6.772   0.150   2.058  0.1468 -1.3341 -0.8199
 4691TIP3    H235489   6.803   0.292   2.019  0.6520 -0.9089  1.0697
 4692TIP3   OH235490   4.111   2.989   3.102  0.1650 -0.2523 -0.6470
 4692TIP3    H135491   4.193   3.037   3.096 -0.7579  1.4205 -0.2570
 4692TIP3    H235492   4.053   3.045   3.153 -0.5010 -2.4551  1.1686
 4693TIP3   OH235493   5.668   1.264  12.159  0.4193  0.5195  0.5032
 4693TIP3    H135494   5.611   1.259  12.236 -0.4062 -2.0465 -0.1558
 4693TIP3    H235495   5.747   1.218  12.185 -0.4809 -1.8121 -0.5538
 4694TIP3   OH235496   6.060   4.724  14.530  0.2662  0.1866  0.1838
 4694TIP3    H135497   6.129   4.790  14.522 -0.2237  0.8881  1.5087
 4694TIP3    H235498   6.101   4.643  14.499  0.7348  1.1598 -1.8926
 4695TIP3   OH235499   1.164   2.871   3.177  0.1317  0.1957  0.6353
 4695TIP3    H135500   1.253   2.845   3.198  0.4406 -1.4510 -2.2628
 4695TIP3    H235501   1.171   2.965   3.156  1.5769 -0.2422 -1.1080
 4696TIP3   OH235502   0.452   2.170  15.694 -0.1498  0.3046 -0.1904
 4696TIP3    H135503   0.437   2.081  15.725  0.0356 -0.4165 -2.0948
 4696TIP3    H235504   0.541   2.170  15.660 -0.3567  1.0497 -0.7676
 4697TIP3   OH235505   1.494   4.238   3.819  0.1302  0.1159  0.1611
 4697TIP3    H135506   1.417   4.198   3.778  1.6422 -1.6083 -1.1873
 4697TIP3    H235507   1.460   4.314   3.867 -2.1168  0.6450 -2.0845
 4698TIP3   OH235508   6.535   3.681   4.299 -0.1395 -0.3345 -0.3203
 4698TIP3    H135509   6.591   3.756   4.276  0.3403 -0.7480 -0.5261
 4698TIP3    H235510   6.453   3.720   4.328  0.4914  0.3236  0.6622
 4699TIP3   OH235511   3.921   3.008  12.278  0.2053  0.7888  0.2571
 4699TIP3    H135512   4.003   3.045  12.245  1.0249  0.2514  1.6199
 4699TIP3    H235513   3.861   3.015  12.204  1.1804  2.1050 -0.4633
 4700TIP3   OH235514   6.092   0.167   1.806 -0.1930 -0.3771 -0.0703
 4700TIP3    H135515   6.165   0.116   1.773 -0.5005 -1.1641  0.4530
 4700TIP3    H235516   6.047   0.109   1.867 -1.0527  0.2152 -0.1187
 4701TIP3   OH235517   3.711   6.183  10.951 -0.3356 -0.3099  0.5409
 4701TIP3    H135518   3.642   6.206  10.888 -0.6235 -1.0341  0.5745
 4701TIP3    H235519   3.793   6.200  10.905 -0.5382  0.1549  0.3472
 4702TIP3   OH235520   0.686   2.601   1.208 -0.3186 -0.2865  0.1177
 4702TIP3    H135521   0.706   2.692   1.227 -2.0115  0.2036 -0.2956
 4702TIP3    H235522   0.771   2.561   1.188  0.2380  1.7644 -2.0546
 4703TIP3   OH235523   4.121   1.227  13.467 -0.0729 -0.1010  0.5461
 4703TIP3    H135524   4.178   1.209  13.542  1.5625 -0.9643 -0.8425
 4703TIP3    H235525   4.068   1.147  13.459  0.7451 -0.6022 -0.0410
 4704TIP3   OH235526   2.786   0.769   3.558 -0.1686  0.1142  0.4306
 4704TIP3    H135527   2.708   0.765   3.613  0.2023 -2.7652  0.8659
 4704TIP3    H235528   2.858   0.784   3.618 -0.0721 -0.2532  0.4109
 4705TIP3   OH235529   5.192   3.669  16.583  0.6371 -0.1080 -0.4085
 4705TIP3    H135530   5.130   3.640  16.516 -1.2796 -0.5016  1.4189
 4705TIP3    H235531   5.228   3.588  16.619 -0.3038 -0.0427  0.7393
 4706TIP3   OH235532   4.336   0.058   3.918 -0.1780 -0.3089  0.0275
 4706TIP3    H135533   4.285   0.074   3.997 -1.1526  0.0961 -0.6580
 4706TIP3    H235534   4.420   0.101   3.934 -1.0838  1.5354  0.0684
 4707TIP3   OH235535   5.029   1.344   4.767  0.0493 -0.1788 -0.4746
 4707TIP3    H135536   4.955   1.345   4.706  1.5394 -1.4329 -2.3951
 4707TIP3    H235537   5.002   1.283   4.835 -1.6264  1.2181  0.2202
 4708TIP3   OH235538   6.258   4.085   4.307 -0.3293 -0.0968 -0.2118
 4708TIP3    H135539   6.296   4.118   4.389 -5.0457  0.5760  2.0215
 4708TIP3    H235540   6.264   4.159   4.246 -0.3158  0.8017  0.8544
 4709TIP3   OH235541   0.634   4.498   4.679 -0.0990  0.6739 -0.3673
 4709TIP3    H135542   0.585   4.416   4.677 -0.1726  0.7283 -2.1430
 4709TIP3    H235543   0.712   4.481   4.627  0.8256  1.1957  0.7881
 4710TIP3   OH235544   5.284   2.470   3.269  0.3701  0.0915 -0.1861
 4710TIP3    H135545   5.334   2.389   3.262  0.2509 -0.3568  2.8142
 4710TIP3    H235546   5.215   2.462   3.203  1.4490 -1.3722 -1.1909
 4711TIP3   OH235547   1.876   6.526   5.923 -0.1307  0.1648  0.7108
 4711TIP3    H135548   1.830   6.517   6.006  0.2468  2.9658  1.3407
 4711TIP3    H235549   1.812   6.569   5.865 -0.6276 -2.3424 -0.7710
 4712TIP3   OH235550   3.687   0.012  12.652  0.4047  0.1357  0.2116
 4712TIP3    H135551   3.769   0.023  12.701  0.1334  0.7073  0.5406
 4712TIP3    H235552   3.715  -0.011  12.564  0.9410  0.8899  0.1723
 4713TIP3   OH235553   5.690   4.156  13.558  0.6788  0.0305 -0.4502
 4713TIP3    H135554   5.674   4.236  13.507  0.4649  0.2800  0.0087
 4713TIP3    H235555   5.786   4.148  13.560  0.7707  1.0827  0.7335
 4714TIP3   OH235556   6.369   1.478  16.024  0.7443 -0.5126 -0.0641
 4714TIP3    H135557   6.367   1.573  16.025  0.8532 -0.5146  0.3813
 4714TIP3    H235558   6.281   1.452  16.051  1.1747 -0.5359  1.4098
 4715TIP3   OH235559   5.155   3.074  12.255  0.3448 -0.0192  0.3767
 4715TIP3    H135560   5.188   3.098  12.342  0.7898 -1.7893  0.7393
 4715TIP3    H235561   5.228   3.028  12.214 -0.1816 -0.0165 -0.5946
 4716TIP3   OH235562   5.586   3.207   1.207  0.0944 -0.3559  0.0394
 4716TIP3    H135563   5.598   3.298   1.237  2.7098 -0.5915 -0.1034
 4716TIP3    H235564   5.569   3.158   1.288 -0.5877  0.1134  0.1968
 4717TIP3   OH235565   6.054   0.824   1.854 -0.6333 -0.4397  0.1549
 4717TIP3    H135566   6.010   0.763   1.794 -0.1679  0.2722 -0.9491
 4717TIP3    H235567   6.106   0.768   1.911  1.0635 -1.0424 -1.8715
 4718TIP3   OH235568   4.992   2.273  12.907  0.4772  0.0274 -0.2546
 4718TIP3    H135569   4.939   2.193  12.913  0.3418  0.0853 -0.6816
 4718TIP3    H235570   4.964   2.325  12.983  1.1742 -0.6864  0.5154
 4719TIP3   OH235571   5.558   0.417   2.406 -0.1414  0.5721  0.6124
 4719TIP3    H135572   5.487   0.398   2.345 -0.5250 -1.4238  1.6079
 4719TIP3    H235573   5.518   0.411   2.493  1.4311 -1.8428  1.2556
 4720TIP3   OH235574   1.074   6.164   3.659 -0.5533  0.3818  0.2237
 4720TIP3    H135575   1.015   6.091   3.679  1.0013 -1.4546 -1.4586
 4720TIP3    H235576   1.158   6.138   3.696 -0.3724  2.2926  1.3071
 4721TIP3   OH235577   5.725   6.795  16.429 -0.2929 -0.1544 -0.0461
 4721TIP3    H135578   5.818   6.819  16.430 -0.0884 -0.9086  1.1312
 4721TIP3    H235579   5.713   6.750  16.346  1.0445 -2.2871  0.8342
 4722TIP3   OH235580   3.655   0.792  11.555 -0.1848  0.1216 -0.4135
 4722TIP3    H135581   3.696   0.707  11.572 -0.8025 -0.1270 -0.1308
 4722TIP3    H235582   3.664   0.803  11.460  2.6757  1.2093 -0.1233
 4723TIP3   OH235583   6.806   1.901   6.129 -0.5490 -0.6872 -0.2334
 4723TIP3    H135584   6.888   1.855   6.150 -0.0601  0.1010 -0.3938
 4723TIP3    H235585   6.797   1.968   6.196 -1.7489 -1.5788  0.5478
 4724TIP3   OH235586   1.866   1.583   3.742 -0.7047 -0.2589 -1.1325
 4724TIP3    H135587   1.955   1.596   3.711 -0.1803 -1.7587 -0.3686
 4724TIP3    H235588   1.857   1.488   3.750 -1.9777 -0.0807 -0.0984
 4725TIP3   OH235589   1.479   0.096   2.928 -0.5674 -0.1110 -0.2623
 4725TIP3    H135590   1.459   0.190   2.919 -0.9633 -0.1245  0.4410
 4725TIP3    H235591   1.504   0.085   3.020  1.4721 -0.3402 -0.7984
 4726TIP3   OH235592   1.243   0.615   2.408 -0.1483 -0.0502  0.1623
 4726TIP3    H135593   1.203   0.617   2.321 -0.5371  1.0612  0.3534
 4726TIP3    H235594   1.177   0.575   2.464 -0.5079  0.6348  0.2347
 4727TIP3   OH235595   4.616   0.397  15.205 -0.6509 -0.9487 -0.4150
 4727TIP3    H135596   4.523   0.383  15.219 -0.5871 -1.3400 -0.3789
 4727TIP3    H235597   4.621   0.445  15.122 -1.0121  1.0147  0.6163
 4728TIP3   OH235598   2.208   4.423  15.961 -0.0966  0.6502  0.6102
 4728TIP3    H135599   2.267   4.460  16.026 -1.0713  0.4493  1.6611
 4728TIP3    H235600   2.193   4.493  15.898  2.0904  0.3557 -0.2954
 4729TIP3   OH235601   1.266   2.410  16.638 -0.0303  0.2334 -0.1088
 4729TIP3    H135602   1.180   2.376  16.662 -0.4564  1.7645  0.7082
 4729TIP3    H235603   1.285   2.475  16.706  1.2745  0.7127 -0.9063
 4730TIP3   OH235604   4.520   5.847  13.675  0.5614  0.5393 -0.5461
 4730TIP3    H135605   4.510   5.938  13.702  0.7239  0.0654  1.2194
 4730TIP3    H235606   4.502   5.848  13.581  2.6616  2.7413 -1.0461
 4731TIP3   OH235607   4.603   2.452   2.553  0.7900 -0.1532 -0.1518
 4731TIP3    H135608   4.586   2.491   2.467  0.7169  0.3422  0.0871
 4731TIP3    H235609   4.624   2.526   2.609 -0.1385 -0.3684  0.5043
 4732TIP3   OH235610   5.526   5.845  11.054 -0.0805  0.0336  0.3387
 4732TIP3    H135611   5.453   5.893  11.092  0.1387  0.5224  0.1526
 4732TIP3    H235612   5.541   5.772  11.114  2.2436  2.4306  2.9348
 4733TIP3   OH235613   6.427   3.638   3.530 -0.0174 -0.2857  0.2348
 4733TIP3    H135614   6.397   3.557   3.572  0.5912 -0.2945  0.6662
 4733TIP3    H235615   6.482   3.609   3.458 -1.6088 -0.2841 -1.0317
 4734TIP3   OH235616   4.632   0.039  15.017  0.1363 -0.0113 -0.6036
 4734TIP3    H135617   4.701   0.031  15.084 -0.9465  0.6517  0.6427
 4734TIP3    H235618   4.636   0.130  14.989 -0.8439  0.2921  0.1909
 4735TIP3   OH235619   4.400   5.664  11.347 -0.5313 -0.2232  0.2231
 4735TIP3    H135620   4.383   5.729  11.279  2.2868  0.0053 -0.3755
 4735TIP3    H235621   4.376   5.708  11.429 -1.0806  0.6047 -0.3688
 4736TIP3   OH235622   2.477   6.583  13.090  0.5046  0.3290 -0.3518
 4736TIP3    H135623   2.485   6.618  13.179  1.0242 -0.9628  0.1344
 4736TIP3    H235624   2.485   6.489  13.101 -1.5412 -0.0565 -1.5245
 4737TIP3   OH235625   5.460   6.689  15.086  0.3874 -0.1896 -0.6793
 4737TIP3    H135626   5.536   6.700  15.030 -0.1060  2.6501 -0.9237
 4737TIP3    H235627   5.387   6.677  15.025  0.1615  0.6304 -0.5759
 4738TIP3   OH235628   5.460   0.496   5.138 -0.1886  0.3337 -0.3149
 4738TIP3    H135629   5.385   0.544   5.104  0.3178 -0.9984 -3.7389
 4738TIP3    H235630   5.424   0.413   5.169 -0.1910 -0.3887 -2.1444
 4739TIP3   OH235631   2.239   2.187  16.658  0.8544 -0.4132 -0.3915
 4739TIP3    H135632   2.199   2.205  16.573  0.2714  0.3563  0.0285
 4739TIP3    H235633   2.268   2.273  16.690 -1.2906 -0.2383  1.3224
 4740TIP3   OH235634   2.712   1.817   0.234  0.4065  0.4703 -0.3976
 4740TIP3    H135635   2.687   1.764   0.309  0.9259  0.7729 -0.0012
 4740TIP3    H235636   2.800   1.848   0.255 -0.9940  4.1616  0.9221
 4741TIP3   OH235637   1.636   5.547  11.580 -0.0999 -0.1422 -0.4973
 4741TIP3    H135638   1.591   5.505  11.507 -0.4758 -0.5615 -0.0361
 4741TIP3    H235639   1.704   5.485  11.606 -0.4704 -0.3493  0.0026
 4742TIP3   OH235640   4.543   3.231  10.713  0.6593 -0.1400  0.3613
 4742TIP3    H135641   4.612   3.258  10.651 -0.8353  1.0877 -0.8583
 4742TIP3    H235642   4.516   3.312  10.756  1.6366 -0.9688  2.6984
 4743TIP3   OH235643   0.872   2.172   1.773 -0.2807 -0.6041 -0.3443
 4743TIP3    H135644   0.879   2.077   1.767  0.5831 -0.4852 -1.6512
 4743TIP3    H235645   0.829   2.188   1.857 -2.3111 -2.2082 -1.0050
 4744TIP3   OH235646   2.441   2.125  12.811 -0.0663  0.1055 -0.6504
 4744TIP3    H135647   2.377   2.152  12.746 -0.3615 -1.6572 -1.1452
 4744TIP3    H235648   2.523   2.163  12.781 -0.8538  2.5819  0.1128
 4745TIP3   OH235649   3.405   2.686   2.856 -0.2774 -0.3722 -0.2634
 4745TIP3    H135650   3.347   2.745   2.904  0.7437 -0.3956  1.0463
 4745TIP3    H235651   3.356   2.663   2.777 -1.5986  0.4505  0.2918
 4746TIP3   OH235652   5.222   0.954  12.863  0.3861  0.5227 -0.0940
 4746TIP3    H135653   5.216   1.037  12.816  1.6351  1.5397  1.4274
 4746TIP3    H235654   5.140   0.947  12.911  1.2663  2.2619  1.8265
 4747TIP3   OH235655   2.402   0.871  11.990 -0.8148  0.5713 -0.1575
 4747TIP3    H135656   2.489   0.897  11.961 -0.4095  0.4911  0.9534
 4747TIP3    H235657   2.391   0.783  11.955  0.1459  0.0136  0.8579
 4748TIP3   OH235658   4.859   1.959   0.695 -0.0678 -0.1279  0.1632
 4748TIP3    H135659   4.801   1.932   0.766  0.8590 -1.4344  0.4455
 4748TIP3    H235660   4.946   1.965   0.734  0.4731 -0.9263 -0.8438
 4749TIP3   OH235661   0.509   4.151  14.585 -0.1047 -0.2718  0.2765
 4749TIP3    H135662   0.513   4.147  14.681 -0.3157 -0.3704  0.2818
 4749TIP3    H235663   0.500   4.245  14.566  1.9560 -0.0404  0.2653
 4750TIP3   OH235664   0.207   5.606  13.464  0.5646 -0.1518  0.0037
 4750TIP3    H135665   0.180   5.656  13.541  1.4687 -0.2353  0.3834
 4750TIP3    H235666   0.158   5.525  13.470  1.5159 -0.6745  1.1697
 4751TIP3   OH235667   4.845   2.053  15.391  0.4041 -1.1184  0.5462
 4751TIP3    H135668   4.902   2.017  15.323  1.5511 -1.0947  1.4461
 4751TIP3    H235669   4.893   2.037  15.472 -0.7767 -0.8557  1.3213
 4752TIP3   OH235670   5.932   1.557   4.435  0.2616 -0.6521 -0.0209
 4752TIP3    H135671   6.009   1.611   4.449 -0.3359  0.9248 -2.1284
 4752TIP3    H235672   5.859   1.612   4.464 -0.6215  1.1244 -4.6554
 4753TIP3   OH235673   3.576   1.888   0.019  0.1342 -0.5488 -0.5245
 4753TIP3    H135674   3.540   1.800   0.019  0.2761 -0.6079 -0.4433
 4753TIP3    H235675   3.502   1.945   0.039  0.1252 -0.6839 -0.1609
 4754TIP3   OH235676   5.601   1.652  10.395 -0.3513  0.4992 -0.1650
 4754TIP3    H135677   5.688   1.614  10.403 -1.4696 -2.2248  0.5008
 4754TIP3    H235678   5.602   1.728  10.454  1.2329 -0.1696  0.7365
 4755TIP3   OH235679   0.640   5.741  12.476 -0.2408  0.1238  0.0407
 4755TIP3    H135680   0.545   5.743  12.469 -0.3681 -0.1762  1.4246
 4755TIP3    H235681   0.670   5.821  12.432 -1.3580  2.0880  2.6630
 4756TIP3   OH235682   6.382   5.546   4.285  0.3805 -0.4220  0.7519
 4756TIP3    H135683   6.429   5.611   4.232 -0.8515 -0.1173  0.0030
 4756TIP3    H235684   6.377   5.469   4.229 -0.6781 -0.1936  0.5083
 4757TIP3   OH235685   5.088   3.429   1.432 -0.2441 -0.1901  0.0587
 4757TIP3    H135686   5.057   3.339   1.442  0.8633 -0.4558  1.2234
 4757TIP3    H235687   5.166   3.435   1.487 -0.6273  1.6538  0.4834
 4758TIP3   OH235688   5.782   4.628  11.968  0.1857  0.0718  0.3268
 4758TIP3    H135689   5.734   4.557  11.925  1.5642 -0.5307 -0.2778
 4758TIP3    H235690   5.872   4.596  11.974  0.3089  0.6213  2.6124
 4759TIP3   OH235691   4.932   4.332   0.770 -0.2613 -0.2360 -0.2350
 4759TIP3    H135692   4.846   4.367   0.791 -1.1259 -2.8826  1.0671
 4759TIP3    H235693   4.993   4.400   0.799 -1.7971  0.1407  2.4942
 4760TIP3   OH235694   6.220   1.828  14.810 -0.0150 -0.3473 -0.0522
 4760TIP3    H135695   6.233   1.917  14.775 -2.7451  0.9102  1.7544
 4760TIP3    H235696   6.301   1.809  14.857  0.9552  0.7937 -1.1503
 4761TIP3   OH235697   5.449   1.770   3.313  0.3284  0.2608 -0.6778
 4761TIP3    H135698   5.446   1.798   3.405  1.0036  0.8662 -0.8336
 4761TIP3    H235699   5.533   1.725   3.305 -0.1077 -0.5561 -0.7971
 4762TIP3   OH235700   2.018   1.544  13.069  0.0850 -0.2035  0.5976
 4762TIP3    H135701   1.991   1.593  13.148 -0.3248 -0.2950  0.5159
 4762TIP3    H235702   2.026   1.611  13.001 -0.4002 -0.2376  0.5055
 4763TIP3   OH235703   5.693   2.073   2.271 -0.4389 -0.3324  0.3303
 4763TIP3    H135704   5.679   2.167   2.259 -0.6615 -0.7142 -3.7693
 4763TIP3    H235705   5.786   2.060   2.250 -1.1527 -1.2886 -2.8374
 4764TIP3   OH235706   0.067   0.131  14.011 -0.2563 -0.0713  0.3040
 4764TIP3    H135707   0.126   0.104  13.941 -0.0061 -1.2093  0.9316
 4764TIP3    H235708   0.076   0.226  14.014 -0.8433  0.0841 -1.6925
 4765TIP3   OH235709   0.046   4.011  11.258 -0.3076  0.7194 -0.3518
 4765TIP3    H135710   0.108   3.973  11.197  1.3606  1.5772  0.7242
 4765TIP3    H235711  -0.015   3.940  11.278  1.6746 -0.9105  0.2959
 4766TIP3   OH235712   5.470   5.507   4.858  0.3750 -0.2279  0.3104
 4766TIP3    H135713   5.383   5.493   4.822  0.4252 -0.3098  0.2203
 4766TIP3    H235714   5.529   5.475   4.791  0.4935  0.3722  0.1175
 4767TIP3   OH235715   3.068   6.176  10.937 -0.1121  0.0611 -0.0915
 4767TIP3    H135716   3.047   6.201  11.027  0.4672  1.9567 -0.4397
 4767TIP3    H235717   3.146   6.228  10.915  0.1730 -0.8954 -1.4578
 4768TIP3   OH235718   6.235   4.827  13.993 -0.6429  0.0409 -0.3381
 4768TIP3    H135719   6.291   4.751  13.977 -0.6534 -0.3947  1.5112
 4768TIP3    H235720   6.220   4.864  13.906  1.1111 -0.8156 -1.0522
 4769TIP3   OH235721   5.136   4.584   3.171 -0.0703  0.2930 -0.1514
 4769TIP3    H135722   5.224   4.557   3.144 -0.0941 -2.2581  1.8897
 4769TIP3    H235723   5.080   4.562   3.097  0.5257 -1.8224 -0.0544
 4770TIP3   OH235724   3.136   2.653   1.667 -0.3316 -0.8674 -0.1484
 4770TIP3    H135725   3.142   2.646   1.762 -0.1035  0.0890 -0.0772
 4770TIP3    H235726   3.198   2.589   1.634 -0.3614 -1.1560  0.3521
 4771TIP3   OH235727   1.897   2.003   5.106 -0.2482 -0.0735 -0.0956
 4771TIP3    H135728   1.918   1.956   5.025  0.3109  2.3925 -1.4668
 4771TIP3    H235729   1.809   2.036   5.092 -0.2928  0.0489  0.4772
 4772TIP3   OH235730   4.213   4.967   3.373 -0.0816 -0.1778  0.0441
 4772TIP3    H135731   4.287   4.972   3.435 -0.9639  1.2260  1.0524
 4772TIP3    H235732   4.159   5.042   3.396 -0.8853 -0.1213 -1.9140
 4773TIP3   OH235733   5.237   2.102   1.365 -0.6024 -0.2167  0.2700
 4773TIP3    H135734   5.210   2.172   1.305 -0.1078 -0.8116 -0.6857
 4773TIP3    H235735   5.189   2.025   1.335 -1.3646 -0.2324  1.4987
 4774TIP3   OH235736   2.229   4.187   4.236  0.1083 -0.2809  0.1334
 4774TIP3    H135737   2.142   4.155   4.217 -0.1209  0.0279  0.6251
 4774TIP3    H235738   2.266   4.210   4.151 -0.0493 -1.0067 -0.1363
 4775TIP3   OH235739   3.269   4.013  17.018  0.0068 -0.2955 -0.3546
 4775TIP3    H135740   3.356   3.982  17.044 -0.6606  0.0067  2.5847
 4775TIP3    H235741   3.228   4.041  17.100 -2.0307  1.7423 -1.9448
 4776TIP3   OH235742   5.656   6.502   0.011 -0.3773 -0.3056 -0.6593
 4776TIP3    H135743   5.567   6.504   0.048 -0.2958 -1.8004 -0.3103
 4776TIP3    H235744   5.664   6.584  -0.037 -1.3851  0.5712  0.6028
 4777TIP3   OH235745   2.882   4.807   2.304  0.5413 -0.4773 -0.5463
 4777TIP3    H135746   2.965   4.761   2.307  0.9597  0.3122  0.7565
 4777TIP3    H235747   2.851   4.807   2.394 -1.1901 -1.2887 -1.0908
 4778TIP3   OH235748   0.613   4.762  13.737 -0.1173 -0.3530 -0.0394
 4778TIP3    H135749   0.557   4.737  13.663 -0.4867  0.8793 -0.1928
 4778TIP3    H235750   0.701   4.767  13.700 -0.4304  1.2166 -0.6664
 4779TIP3   OH235751   1.452   0.982   0.471 -0.4851  0.3574 -0.1608
 4779TIP3    H135752   1.443   0.911   0.408  0.8926  0.9489 -1.0773
 4779TIP3    H235753   1.435   0.941   0.556  0.8181 -1.2189 -0.6001
 4780TIP3   OH235754   4.451   1.232   1.765 -0.5434  0.0076 -0.1354
 4780TIP3    H135755   4.434   1.236   1.671 -2.1642  1.8747  0.1821
 4780TIP3    H235756   4.418   1.146   1.791  0.9786 -1.0296 -1.4028
 4781TIP3   OH235757   2.049   6.399   5.289 -0.1884  0.4289 -0.7391
 4781TIP3    H135758   2.046   6.355   5.203  1.2490  0.1740 -0.6848
 4781TIP3    H235759   2.078   6.488   5.269 -0.8464  0.6804 -0.6063
 4782TIP3   OH235760   5.525   2.214   2.004  0.7129 -0.3271 -0.1993
 4782TIP3    H135761   5.584   2.289   2.001 -1.6284  1.6004 -0.9522
 4782TIP3    H235762   5.544   2.165   1.924  0.5557  0.8702 -0.9878
 4783TIP3   OH235763   3.607   6.738  15.636 -0.3239  0.2712  0.5177
 4783TIP3    H135764   3.589   6.699  15.721 -1.3890  1.3228  0.8059
 4783TIP3    H235765   3.679   6.687  15.600 -0.9695 -1.2506  1.3185
 4784TIP3   OH235766   6.702   5.101   3.388 -0.3218  0.1104  0.6967
 4784TIP3    H135767   6.730   5.084   3.477  1.0179  3.6558  1.1342
 4784TIP3    H235768   6.756   5.175   3.360  2.0081 -3.0027 -4.4718
 4785TIP3   OH235769   4.521   4.990   1.284  0.3524  0.1838  0.0375
 4785TIP3    H135770   4.495   4.955   1.370  1.4275 -0.8274 -0.0243
 4785TIP3    H235771   4.565   5.073   1.304  0.4592  0.0304  0.4475
 4786TIP3   OH235772   2.014   0.528   6.704  0.3686  0.3147 -0.2019
 4786TIP3    H135773   2.011   0.623   6.716 -2.6201  0.1353  1.2711
 4786TIP3    H235774   2.031   0.516   6.611  1.0819  2.2507 -0.3692
 4787TIP3   OH235775   1.335   0.335   0.325  0.7430  0.3132  0.2967
 4787TIP3    H135776   1.243   0.346   0.301  0.8535  0.4365 -0.0682
 4787TIP3    H235777   1.362   0.422   0.353  0.7192  0.2517  0.5147
 4788TIP3   OH235778   4.815   6.328  12.771 -0.0027  0.0867  0.1368
 4788TIP3    H135779   4.759   6.255  12.796  0.9120 -0.5187  0.4863
 4788TIP3    H235780   4.864   6.295  12.695  0.0365  0.5152 -0.0227
 4789TIP3   OH235781   3.644   1.073  12.816  0.6505  0.4625 -0.1220
 4789TIP3    H135782   3.632   1.133  12.742  1.2058  1.1365  0.3182
 4789TIP3    H235783   3.725   1.026  12.795  0.7674  0.6002  0.0162
 4790TIP3   OH235784   0.598   4.224   6.167  0.4525  0.4985 -0.0675
 4790TIP3    H135785   0.668   4.214   6.103  1.4898 -0.2072  1.1321
 4790TIP3    H235786   0.636   4.279   6.236 -0.4126  0.6966  0.2694
 4791TIP3   OH235787   3.542   6.330  15.264 -0.2967 -0.2301  0.1777
 4791TIP3    H135788   3.617   6.382  15.235  0.5234 -0.6943  1.3953
 4791TIP3    H235789   3.578   6.243  15.281 -0.9129 -0.2378  1.5877
 4792TIP3   OH235790   1.301   5.908  16.986 -0.8163 -0.0547  0.0048
 4792TIP3    H135791   1.298   6.003  16.987  0.4468  0.0849 -1.8378
 4792TIP3    H235792   1.307   5.886  16.892  2.0017 -1.7404  0.4602
 4793TIP3   OH235793   5.697   4.453   2.845  0.1852 -0.0846 -0.0751
 4793TIP3    H135794   5.745   4.477   2.766  0.6399 -2.2077 -0.4952
 4793TIP3    H235795   5.746   4.380   2.882  0.1881  1.0833  2.4123
 4794TIP3   OH235796   2.675   4.016  11.043 -0.2059 -0.7302 -0.1176
 4794TIP3    H135797   2.679   3.921  11.042  1.1703 -0.7008  0.6666
 4794TIP3    H235798   2.652   4.039  11.133 -1.3567 -0.3187 -0.4927
 4795TIP3   OH235799   6.297   4.677  16.306 -0.1892  0.7294  0.0733
 4795TIP3    H135800   6.231   4.736  16.269 -1.8561  0.4554  2.3639
 4795TIP3    H235801   6.257   4.590  16.299  1.2120  0.1436 -1.0884
 4796TIP3   OH235802   3.962   3.788  13.849  0.1261 -0.9593  0.0995
 4796TIP3    H135803   3.893   3.854  13.858  1.5465  0.6887 -0.7035
 4796TIP3    H235804   4.021   3.804  13.923 -0.0936 -2.1117  0.5577
 4797TIP3   OH235805   0.391   4.596   6.026  0.0930  0.4293  0.3569
 4797TIP3    H135806   0.458   4.617   6.091  0.3021  1.6310 -0.2276
 4797TIP3    H235807   0.325   4.665   6.036 -0.5417 -0.1412  0.2028
 4798TIP3   OH235808   2.669   6.600  13.562 -0.1647 -0.0994 -0.0710
 4798TIP3    H135809   2.662   6.651  13.643 -0.8917 -0.0915 -0.1355
 4798TIP3    H235810   2.760   6.609  13.536  0.2383 -0.6124  1.0887
 4799TIP3   OH235811   0.217   0.520   2.964 -0.1866 -0.5024  0.2428
 4799TIP3    H135812   0.226   0.427   2.943 -1.2701 -0.8824  1.3439
 4799TIP3    H235813   0.288   0.563   2.915  0.5049 -1.9353 -0.0590
 4800TIP3   OH235814   3.753   6.206  13.898 -0.4107  0.0367  0.4203
 4800TIP3    H135815   3.678   6.247  13.941 -0.0523  2.3122 -1.0226
 4800TIP3    H235816   3.714   6.143  13.837 -1.2683  1.7528 -0.9000
 4801TIP3   OH235817   6.629   1.967   3.482 -0.0784 -0.5697 -0.4376
 4801TIP3    H135818   6.680   1.966   3.401 -0.2790  0.8679 -0.6110
 4801TIP3    H235819   6.683   2.017   3.543 -1.3352  1.1704 -0.6841
 4802TIP3   OH235820   1.974   5.214  15.835 -0.4832 -0.0749  0.0106
 4802TIP3    H135821   1.901   5.255  15.883 -0.0090  1.5693 -0.6335
 4802TIP3    H235822   2.013   5.155  15.900 -0.1887  1.6888  1.5313
 4803TIP3   OH235823   4.387   6.685   4.196 -0.3704  0.0602  0.0946
 4803TIP3    H135824   4.412   6.626   4.125 -0.4295 -1.1297  1.0219
 4803TIP3    H235825   4.358   6.627   4.267 -0.7967  1.2192  0.9196
 4804TIP3   OH235826   1.282   2.656   6.249  0.4341  0.2144 -0.1520
 4804TIP3    H135827   1.254   2.684   6.336 -0.2102  0.4824 -0.4366
 4804TIP3    H235828   1.340   2.726   6.218 -1.8237  1.7408 -1.2017
 4805TIP3   OH235829   5.489   2.707   0.629 -0.0532 -0.1295 -0.1023
 4805TIP3    H135830   5.424   2.695   0.699 -0.6280 -0.9101 -0.7441
 4805TIP3    H235831   5.443   2.680   0.549  0.3997  1.2712 -0.8849
 4806TIP3   OH235832   2.256   1.354   5.348  0.3437  0.1828  0.3441
 4806TIP3    H135833   2.208   1.317   5.422 -0.2307 -1.0018 -0.5801
 4806TIP3    H235834   2.189   1.380   5.286  0.8449 -0.0526 -0.3104
 4807TIP3   OH235835   5.778   3.694   0.408  0.2784 -0.8253  0.0858
 4807TIP3    H135836   5.747   3.649   0.487 -1.6833  0.0110 -0.1496
 4807TIP3    H235837   5.837   3.631   0.366 -1.6092 -2.8447  0.2645
 4808TIP3   OH235838   5.045   2.998   0.059 -0.4688 -0.2732  0.5769
 4808TIP3    H135839   5.061   2.980   0.151  0.5056 -0.9170  0.3035
 4808TIP3    H235840   5.011   2.916   0.024  0.9416 -0.6428 -0.0111
 4809TIP3   OH235841   6.452   0.311   5.603 -1.0272  0.2658  0.3025
 4809TIP3    H135842   6.434   0.336   5.512  1.1534  0.0462 -0.2545
 4809TIP3    H235843   6.468   0.394   5.648  0.7815  0.2503 -0.2446
 4810TIP3   OH235844   2.595   0.848  13.921  0.2394 -0.0832  0.2016
 4810TIP3    H135845   2.520   0.885  13.967  0.8731  1.4790  0.0415
 4810TIP3    H235846   2.580   0.871  13.829 -0.0883 -1.5466 -0.1245
 4811TIP3   OH235847   0.777   1.849   0.448 -0.6064 -0.0502 -0.1741
 4811TIP3    H135848   0.705   1.911   0.458  0.2100  1.1102 -1.2702
 4811TIP3    H235849   0.755   1.800   0.368 -0.3975  0.0218 -0.2771
 4812TIP3   OH235850   2.135   6.522  14.424 -0.5980  0.6311  0.1506
 4812TIP3    H135851   2.164   6.492  14.510 -1.4126  0.9264  0.5386
 4812TIP3    H235852   2.165   6.613  14.419  2.2530 -0.2482 -1.1976
 4813TIP3   OH235853   4.104   1.173   4.041  0.1863  0.0488  0.1277
 4813TIP3    H135854   4.137   1.127   3.964  1.5395  1.8914 -0.4604
 4813TIP3    H235855   4.012   1.191   4.021  0.4812  0.3492 -0.9884
 4814TIP3   OH235856   5.712   1.534  12.126 -0.2360  0.8620  0.1244
 4814TIP3    H135857   5.641   1.588  12.092 -1.2772 -1.7172 -2.1365
 4814TIP3    H235858   5.673   1.448  12.140  1.7212  0.1806  2.0588
 4815TIP3   OH235859   5.007   6.071  13.688 -0.1381 -0.7508  0.0226
 4815TIP3    H135860   5.068   6.116  13.747  0.2247  0.5584 -1.2937
 4815TIP3    H235861   4.962   6.141  13.641  0.1002 -1.7169 -1.7523
 4816TIP3   OH235862   6.755   2.695   5.877  0.4800  0.2400 -0.2734
 4816TIP3    H135863   6.829   2.649   5.914  0.1886 -0.4723 -0.5655
 4816TIP3    H235864   6.680   2.666   5.929  0.2508  0.1571 -0.6499
 4817TIP3   OH235865   4.597   4.693  11.937 -0.2204  0.3107 -0.6292
 4817TIP3    H135866   4.575   4.714  11.846  1.4121  0.5504 -0.9990
 4817TIP3    H235867   4.543   4.617  11.957 -2.7891  1.9208 -0.8033
 4818TIP3   OH235868   3.095   4.854   1.297  0.0120 -0.5985  0.0130
 4818TIP3    H135869   3.188   4.871   1.288 -0.4409  2.4385  0.1727
 4818TIP3    H235870   3.089   4.782   1.360  2.1805  1.1801  2.4052
 4819TIP3   OH235871   1.511   0.642   4.178 -0.0785 -0.4262  0.1187
 4819TIP3    H135872   1.506   0.703   4.252 -0.0488 -0.8359  0.4664
 4819TIP3    H235873   1.459   0.567   4.206 -1.2654  0.0031 -0.8645
 4820TIP3   OH235874   6.539   0.336  12.990 -0.2551 -0.7089 -0.6827
 4820TIP3    H135875   6.483   0.330  13.068  1.3174 -1.0206  0.4610
 4820TIP3    H235876   6.503   0.411  12.941 -0.9053 -0.1129  0.6462
 4821TIP3   OH235877   0.427   1.804  11.503 -0.4207 -0.1527  0.3714
 4821TIP3    H135878   0.467   1.818  11.589 -1.0517 -0.7895  0.7708
 4821TIP3    H235879   0.492   1.752  11.455 -0.0626  0.2156  0.4414
 4822TIP3   OH235880   0.831   6.682  11.655  0.6958  1.1239  0.7984
 4822TIP3    H135881   0.908   6.676  11.598  2.2083  1.7297  2.6692
 4822TIP3    H235882   0.801   6.772  11.645 -0.6695  0.5302 -0.9542
 4823TIP3   OH235883   1.182   2.862  15.714 -0.3530 -0.2383 -0.3812
 4823TIP3    H135884   1.218   2.835  15.630  0.0547  0.2293 -0.3674
 4823TIP3    H235885   1.186   2.958  15.712 -2.5957 -0.1114 -0.7945
 4824TIP3   OH235886   0.123   0.884   5.661 -0.0479  0.4527 -0.1043
 4824TIP3    H135887   0.111   0.796   5.697 -1.3565  0.1450 -1.2187
 4824TIP3    H235888   0.106   0.942   5.734 -1.4206 -0.1909  0.1236
 4825TIP3   OH235889   3.346   0.901   6.549  0.4628  0.4016  0.6613
 4825TIP3    H135890   3.341   0.894   6.644 -0.8797 -0.6379  0.5408
 4825TIP3    H235891   3.301   0.823   6.516  0.8930  0.7392 -0.8286
 4826TIP3   OH235892   4.462   3.321   5.063  0.6180  0.0358  0.1229
 4826TIP3    H135893   4.499   3.319   5.151  2.4033  1.6838 -0.5016
 4826TIP3    H235894   4.509   3.253   5.015  1.5524  0.8642 -0.1796
 4827TIP3   OH235895   1.146   0.506   3.792  0.4255  0.1133 -0.8836
 4827TIP3    H135896   1.061   0.484   3.753  1.5109 -0.9208 -2.8852
 4827TIP3    H235897   1.147   0.601   3.797 -1.0335  0.1223 -0.3282
 4828TIP3   OH235898   1.174   0.682  13.745  0.3941  0.4767 -0.0236
 4828TIP3    H135899   1.253   0.635  13.773  0.2769  1.1144  1.4660
 4828TIP3    H235900   1.203   0.772  13.734  0.2714  0.3758 -1.3734
 4829TIP3   OH235901   0.029   2.585   3.369 -0.0027  0.4286  0.3233
 4829TIP3    H135902   0.123   2.605   3.369  0.2529 -0.4487 -2.3195
 4829TIP3    H235903   0.009   2.564   3.460  1.8721  2.6892  1.3539
 4830TIP3   OH235904   4.134   6.346  13.985 -0.2778  0.7564  0.0075
 4830TIP3    H135905   4.064   6.307  14.037  0.1679  1.9665  1.6153
 4830TIP3    H235906   4.093   6.421  13.941 -0.2334  0.8692  0.1553
 4831TIP3   OH235907   5.634   6.605  10.812  0.0062 -0.3956 -0.1610
 4831TIP3    H135908   5.681   6.614  10.729 -0.5302  1.5095 -0.2981
 4831TIP3    H235909   5.556   6.554  10.789 -0.7232  1.0803 -1.1117
 4832TIP3   OH235910   6.719   0.217   3.234  0.1503  0.0801 -0.6014
 4832TIP3    H135911   6.791   0.208   3.296 -0.2294 -0.8651 -0.2764
 4832TIP3    H235912   6.680   0.302   3.253 -0.5300 -0.5717  1.0936
 4833TIP3   OH235913   3.382   2.495  11.527  0.2360 -0.3827  0.4231
 4833TIP3    H135914   3.370   2.464  11.437  0.2461  1.1453 -0.1291
 4833TIP3    H235915   3.353   2.422  11.581 -0.0817 -1.2101 -0.8224
 4834TIP3   OH235916   2.932   1.419   5.572 -0.3170  0.2422 -0.3443
 4834TIP3    H135917   2.905   1.328   5.570  1.5944 -0.3714  0.1640
 4834TIP3    H235918   2.879   1.458   5.641  0.2682 -0.9944  0.8473
 4835TIP3   OH235919   1.935   1.896  13.466  0.4010 -0.0531 -0.0366
 4835TIP3    H135920   1.994   1.965  13.437  0.0117  0.1018 -0.4747
 4835TIP3    H235921   1.852   1.942  13.484  0.4408 -0.2491  0.6714
 4836TIP3   OH235922   5.500   5.902   2.701 -0.0669 -0.1300 -0.1968
 4836TIP3    H135923   5.580   5.892   2.752  0.6626  0.0256 -1.2789
 4836TIP3    H235924   5.518   5.857   2.619 -0.8397  0.4896 -0.7231
 4837TIP3   OH235925   6.652   0.961   5.283 -0.0957  0.8777 -0.0624
 4837TIP3    H135926   6.710   1.003   5.348 -1.3479  2.5389  0.0643
 4837TIP3    H235927   6.614   1.035   5.235 -1.8937 -0.1576 -0.3058
 4838TIP3   OH235928   1.731   0.771   4.086  0.4399  0.0788  0.0354
 4838TIP3    H135929   1.724   0.799   3.994 -0.1979  0.6363  0.2505
 4838TIP3    H235930   1.641   0.759   4.115  0.5656  1.3566  1.0292
 4839TIP3   OH235931   2.252   2.301  13.977 -1.0662  0.2980  0.1758
 4839TIP3    H135932   2.187   2.255  13.923 -2.7075  2.9484 -0.3472
 4839TIP3    H235933   2.203   2.376  14.013  1.3185  1.4718  1.1607
 4840TIP3   OH235934   0.912   1.082   1.249  0.3142 -0.3192 -0.3596
 4840TIP3    H135935   0.939   1.004   1.296 -0.7070 -1.3491 -1.4121
 4840TIP3    H235936   0.932   1.064   1.158  1.0574  1.1019 -0.5045
 4841TIP3   OH235937   6.041   0.283  15.442  0.3028 -0.2037  0.1304
 4841TIP3    H135938   6.090   0.323  15.514  0.7700 -0.4664 -0.0377
 4841TIP3    H235939   5.952   0.316  15.453  1.1210  2.9135 -1.4197
 4842TIP3   OH235940   2.882   0.461   1.478 -0.5200 -0.2409 -0.2270
 4842TIP3    H135941   2.911   0.542   1.520 -0.0650  0.2404 -1.4003
 4842TIP3    H235942   2.801   0.438   1.523 -1.1107  1.3337 -0.3891
 4843TIP3   OH235943   1.620   1.174  13.971  0.2122 -0.3625 -0.3633
 4843TIP3    H135944   1.526   1.192  13.981  0.2951 -0.0727 -0.1380
 4843TIP3    H235945   1.653   1.247  13.920  0.4524 -0.1156  0.1464
 4844TIP3   OH235946   2.029   5.484   2.694  0.3379  0.3815 -0.7416
 4844TIP3    H135947   1.975   5.417   2.737 -0.6901  1.8204  0.2948
 4844TIP3    H235948   2.110   5.485   2.744  0.5217 -0.3579 -1.0144
 4845TIP3   OH235949   1.379   2.084  13.326 -0.3647 -0.1501 -0.2899
 4845TIP3    H135950   1.380   2.017  13.257  1.9846  0.0374 -0.4976
 4845TIP3    H235951   1.344   2.162  13.283 -2.2376 -0.9367 -0.2917
 4846TIP3   OH235952   1.343   2.118  15.710 -0.1308  0.2436 -0.7357
 4846TIP3    H135953   1.432   2.115  15.673  0.4671 -1.0045  0.6882
 4846TIP3    H235954   1.353   2.082  15.798 -2.3423 -1.4329 -1.0970
 4847TIP3   OH235955   2.469   5.693   1.412 -0.0831 -1.0682 -0.2812
 4847TIP3    H135956   2.422   5.755   1.468  0.1695 -2.3173  1.3847
 4847TIP3    H235957   2.406   5.670   1.344 -0.3950  0.5128 -0.5670
 4848TIP3   OH235958   5.467   0.009  10.123  0.2140  0.2246 -0.1870
 4848TIP3    H135959   5.559  -0.018  10.128  0.4030  0.6391 -1.0937
 4848TIP3    H235960   5.467   0.100  10.154  0.4095  0.7851 -1.7130
 4849TIP3   OH235961   6.093   2.625  14.491  0.1427  0.4101  0.4887
 4849TIP3    H135962   6.079   2.530  14.499  0.6962  0.2777 -0.0143
 4849TIP3    H235963   6.033   2.652  14.421 -0.9147  0.6567  1.4684
 4850TIP3   OH235964   1.341   2.740  13.121 -0.1248 -0.1068 -0.3204
 4850TIP3    H135965   1.383   2.822  13.149 -2.5159  1.0454  0.1717
 4850TIP3    H235966   1.382   2.720  13.037  2.3724  0.0986  0.7392
 4851TIP3   OH235967   4.194   2.904  13.468 -0.3781  0.3646 -0.5318
 4851TIP3    H135968   4.141   2.919  13.547  1.2674 -0.2158  0.7325
 4851TIP3    H235969   4.149   2.834  13.422 -1.4544  0.8181 -0.2075
 4852TIP3   OH235970   2.825   5.439   2.605  0.1484 -0.2755 -0.0705
 4852TIP3    H135971   2.755   5.375   2.605 -0.5644  0.4821  0.3692
 4852TIP3    H235972   2.889   5.405   2.668 -0.2294 -0.5409  0.1704
 4853TIP3   OH235973   0.434   1.309   2.420  0.3445 -0.3153 -0.5070
 4853TIP3    H135974   0.431   1.393   2.465 -3.3771  0.8095 -2.4818
 4853TIP3    H235975   0.527   1.294   2.402  1.1557  3.2281  0.1627
 4854TIP3   OH235976   2.698   1.647   5.416  0.0543 -0.1485  0.1476
 4854TIP3    H135977   2.687   1.710   5.345 -1.2748  0.6859  1.0352
 4854TIP3    H235978   2.783   1.670   5.455 -0.2245  0.8725  0.2039
 4855TIP3   OH235979   6.462   3.413   1.979 -0.0348 -0.1953 -0.7893
 4855TIP3    H135980   6.426   3.474   1.914 -1.6055 -0.4680 -0.2284
 4855TIP3    H235981   6.442   3.326   1.944 -3.7104 -0.4247  1.3376
 4856TIP3   OH235982   0.635   2.270  11.627  0.0830  0.3958 -0.0185
 4856TIP3    H135983   0.702   2.212  11.665 -0.5216  0.0488  0.5265
 4856TIP3    H235984   0.622   2.338  11.692 -0.1719  0.4077 -0.0834
 4857TIP3   OH235985   3.081   1.010   2.638  0.0010 -0.4801 -0.3328
 4857TIP3    H135986   3.109   0.919   2.627  3.5196  0.4807 -0.6536
 4857TIP3    H235987   3.162   1.058   2.655 -1.7246  2.6254 -0.0993
 4858TIP3   OH235988   5.534   3.648  16.478  0.4696  0.7249  0.6303
 4858TIP3    H135989   5.576   3.729  16.448 -0.3746  1.1890  0.6672
 4858TIP3    H235990   5.455   3.640  16.424  1.4496 -1.0449 -0.6341
 4859TIP3   OH235991   5.820   1.757  14.390  0.5360  0.2491  0.1045
 4859TIP3    H135992   5.763   1.821  14.433 -0.0788 -0.0302 -0.2890
 4859TIP3    H235993   5.762   1.709  14.331  1.1619 -0.1026 -0.2310
 4860TIP3   OH235994   4.588   0.518  12.472  0.0641 -0.3578  0.2920
 4860TIP3    H135995   4.548   0.581  12.411 -0.2906 -0.0315  0.8460
 4860TIP3    H235996   4.682   0.531  12.462  0.2518 -2.9052 -2.9203
 4861TIP3   OH235997   4.108   1.583  15.662  0.3146  0.0187 -0.4752
 4861TIP3    H135998   4.022   1.622  15.644  1.1154  2.3040  0.3578
 4861TIP3    H235999   4.107   1.500  15.613 -1.4664  1.0663 -2.3874
 4862TIP3   OH236000   3.597   6.262   2.508 -0.0737 -0.3584 -0.5427
 4862TIP3    H136001   3.592   6.257   2.412  0.4063 -0.6306 -0.5597
 4862TIP3    H236002   3.677   6.214   2.530  0.3145  0.4959 -0.0674
 4863TIP3   OH236003   3.323   6.273   5.996  0.3009 -0.3948  0.2266
 4863TIP3    H136004   3.293   6.219   6.069 -0.8134  1.7063  1.4267
 4863TIP3    H236005   3.275   6.355   6.006  0.9729  0.3886 -2.2372
 4864TIP3   OH236006   6.100   6.212  15.912 -0.1706 -1.0403  0.9173
 4864TIP3    H136007   6.007   6.196  15.928 -0.6960 -0.4236 -1.2030
 4864TIP3    H236008   6.115   6.301  15.943 -0.1480 -1.3378  1.7676
 4865TIP3   OH236009   5.449   5.631   6.083  0.5196 -0.2933  0.2561
 4865TIP3    H136010   5.513   5.703   6.079 -1.6059  1.7515  0.9350
 4865TIP3    H236011   5.477   5.578   6.158  1.7373  0.2087  0.1783
 4866TIP3   OH236012   6.591   6.545  13.146  0.0143  0.2973  0.3617
 4866TIP3    H136013   6.552   6.470  13.102  0.1342 -0.6729  1.8290
 4866TIP3    H236014   6.675   6.512  13.179  0.9016  1.5980 -0.4995
 4867TIP3   OH236015   5.410   6.142  12.705  0.2940 -0.1499 -0.0401
 4867TIP3    H136016   5.425   6.075  12.638 -0.3596  0.6591 -1.0255
 4867TIP3    H236017   5.316   6.137  12.722  0.2304  0.5821 -0.1814
 4868TIP3   OH236018   5.141   0.202   2.668 -0.0279 -0.2518 -0.0976
 4868TIP3    H136019   5.184   0.171   2.589  0.9448  1.2845 -0.2047
 4868TIP3    H236020   5.073   0.262   2.637 -0.2159 -0.3061  0.1995
 4869TIP3   OH236021   4.387   0.993   0.668  0.0211 -0.1032 -0.4695
 4869TIP3    H136022   4.356   1.083   0.656  0.3469 -0.0063 -0.6118
 4869TIP3    H236023   4.328   0.955   0.733  0.5519  0.5642  0.4356
 4870TIP3   OH236024   4.627   0.891   6.085 -0.8086 -0.3010 -0.1051
 4870TIP3    H136025   4.569   0.867   6.158 -1.9238  0.6541 -0.6372
 4870TIP3    H236026   4.575   0.872   6.007 -0.1586 -0.0059 -0.6152
 4871TIP3   OH236027   6.702   5.099  16.491 -0.6171 -0.2494  0.6304
 4871TIP3    H136028   6.728   5.152  16.416 -2.1692  1.3098  1.1305
 4871TIP3    H236029   6.676   5.015  16.453 -2.5040  0.8954 -0.7830
 4872TIP3   OH236030   5.936   1.174   0.251 -0.4005  0.0500 -0.0739
 4872TIP3    H136031   5.928   1.141   0.340  1.3943 -0.2699  0.0043
 4872TIP3    H236032   5.958   1.267   0.261  1.6293 -0.3883 -0.0949
 4873TIP3   OH236033   4.080   2.236   3.797 -0.2359 -0.0652  0.8232
 4873TIP3    H136034   4.009   2.216   3.736 -1.7374  0.4121  2.3374
 4873TIP3    H236035   4.099   2.153   3.840 -0.0997 -0.1188  0.6627
 4874TIP3   OH236036   6.569   4.792   2.873 -0.3015  0.0556 -1.0272
 4874TIP3    H136037   6.665   4.795   2.863 -0.0988 -0.7843  0.4197
 4874TIP3    H236038   6.555   4.764   2.963 -1.9305 -0.0772 -1.2889
 4875TIP3   OH236039   2.627   4.656  13.877 -0.1401 -0.0546 -0.0784
 4875TIP3    H136040   2.579   4.705  13.811 -0.6864  0.5203  0.7271
 4875TIP3    H236041   2.579   4.671  13.959  1.3308  0.4703  0.7417
 4876TIP3   OH236042   1.484   6.066  16.145 -0.0208 -0.7832  0.1894
 4876TIP3    H136043   1.422   6.034  16.211 -0.9781  1.8994  0.7115
 4876TIP3    H236044   1.570   6.056  16.186 -0.5173 -0.1362  1.4472
 4877TIP3   OH236045   1.035   1.768  16.009  0.3452 -0.0823 -0.4143
 4877TIP3    H136046   0.948   1.789  16.042  0.3968  1.0272 -0.9470
 4877TIP3    H236047   1.094   1.828  16.055  0.6191  0.3347 -1.3069
 4878TIP3   OH236048   6.011   0.432  12.365  0.4636  0.4926  0.0696
 4878TIP3    H136049   5.960   0.352  12.378 -0.6563  1.3346  1.0701
 4878TIP3    H236050   5.992   0.486  12.442 -0.7317  2.7399 -1.6724
 4879TIP3   OH236051   0.625   0.323   5.036 -0.6420  0.0056 -0.2592
 4879TIP3    H136052   0.566   0.291   4.967 -1.3911  1.0186 -0.1056
 4879TIP3    H236053   0.570   0.378   5.091  0.4086  0.8440 -0.0173
 4880TIP3   OH236054   4.694   0.524  16.875  0.1777 -0.4237 -0.4204
 4880TIP3    H136055   4.661   0.574  16.950 -0.6004  0.4437 -1.3110
 4880TIP3    H236056   4.760   0.466  16.912 -1.7240 -1.6343  1.3283
 4881TIP3   OH236057   4.280   3.684   4.306 -0.4782 -0.0226 -0.3846
 4881TIP3    H136058   4.359   3.641   4.338 -0.8335 -0.4498 -0.0450
 4881TIP3    H236059   4.208   3.628   4.339 -0.8789 -0.3517 -1.7351
 4882TIP3   OH236060   1.518   1.945  12.821  0.4106 -0.1414  0.1338
 4882TIP3    H136061   1.539   1.966  12.912  0.9987 -0.5739  0.1019
 4882TIP3    H236062   1.422   1.943  12.818  0.3693 -1.6833  1.1220
 4883TIP3   OH236063   3.931   0.212   0.415  0.3024  0.3613  0.3694
 4883TIP3    H136064   3.869   0.283   0.432 -1.5785 -1.3060  0.8915
 4883TIP3    H236065   3.922   0.195   0.321 -1.7657 -1.2936  0.7918
 4884TIP3   OH236066   5.236   4.169  11.386 -0.2688  0.3087 -0.0910
 4884TIP3    H136067   5.209   4.081  11.414  1.6371 -0.4463 -0.4841
 4884TIP3    H236068   5.242   4.163  11.290  0.3064  0.7198 -0.0901
 4885TIP3   OH236069   0.966   5.595  13.239 -0.2901 -0.1705  0.1081
 4885TIP3    H136070   0.972   5.681  13.198 -1.9368  0.3139  0.7907
 4885TIP3    H236071   0.873   5.586  13.262  0.0725 -1.6143  1.1578
 4886TIP3   OH236072   3.371   1.427  12.236 -0.2408 -0.1597 -0.1664
 4886TIP3    H136073   3.453   1.461  12.200  0.3534 -0.5511  0.7884
 4886TIP3    H236074   3.311   1.426  12.161  0.1583  1.5637 -0.5656
 4887TIP3   OH236075   5.057   5.456  12.390 -0.1367  0.6363  0.1625
 4887TIP3    H136076   5.012   5.381  12.429 -2.1882  1.8030  0.1887
 4887TIP3    H236077   5.000   5.483  12.318  0.8435  1.8052 -0.2041
 4888TIP3   OH236078   5.509   4.223   0.071  0.5861 -0.3570  0.3393
 4888TIP3    H136079   5.512   4.319   0.070  0.2647 -0.3388  0.8082
 4888TIP3    H236080   5.420   4.203   0.099 -0.0027 -0.7998 -1.6978
 4889TIP3   OH236081   6.105   3.290  10.912 -0.8302 -0.3570 -0.1965
 4889TIP3    H136082   6.097   3.294  10.817  2.4870 -2.8677 -0.7567
 4889TIP3    H236083   6.193   3.322  10.930 -1.1394 -0.6034  1.9832
 4890TIP3   OH236084   5.393   4.538  12.909 -0.0868 -0.4468 -0.2900
 4890TIP3    H136085   5.473   4.502  12.947 -0.3394 -0.7639 -0.0557
 4890TIP3    H236086   5.406   4.532  12.814  0.5041  0.2528 -0.2555
 4891TIP3   OH236087   3.655   4.647  13.595  0.1887  0.0484  0.0535
 4891TIP3    H136088   3.632   4.566  13.640  0.0452 -0.1237 -0.3246
 4891TIP3    H236089   3.587   4.658  13.529  0.2610  0.4283  0.0361
 4892TIP3   OH236090   3.941   4.695  11.037  0.0918 -0.1557 -0.3640
 4892TIP3    H136091   3.904   4.634  10.974  0.2455 -0.9260  0.2755
 4892TIP3    H236092   4.001   4.749  10.986 -1.2886  0.5842 -1.2633
 4893TIP3   OH236093   1.251   6.020   5.255 -0.3675  0.8880 -0.4345
 4893TIP3    H136094   1.239   5.927   5.236  0.1482  0.8930 -0.7995
 4893TIP3    H236095   1.162   6.056   5.254 -0.4813  0.6373 -1.5852
 4894TIP3   OH236096   0.038   3.941   1.306  0.2360  0.4228  0.5021
 4894TIP3    H136097   0.050   3.864   1.363 -0.5305  1.6724  2.4590
 4894TIP3    H236098  -0.013   4.002   1.359 -0.3622  1.7602 -1.5141
 4895TIP3   OH236099   3.793   0.142  14.326 -0.1581 -0.1498 -0.3936
 4895TIP3    H136100   3.885   0.166  14.313 -0.0392  0.2754  1.0311
 4895TIP3    H236101   3.796   0.060  14.374 -0.5329 -0.3317 -0.6740
 4896TIP3   OH236102   2.268   6.299   0.781 -0.7326 -0.0718 -0.0553
 4896TIP3    H136103   2.224   6.375   0.818  0.7620  0.4338  0.7808
 4896TIP3    H236104   2.235   6.225   0.831 -0.0881  0.3885  1.0981
 4897TIP3   OH236105   0.955   0.736   5.075 -0.3365 -0.6513 -0.1170
 4897TIP3    H136106   0.985   0.697   5.157 -0.5778  0.2316  0.4082
 4897TIP3    H236107   1.034   0.744   5.021 -0.3903 -2.5155 -0.5461
 4898TIP3   OH236108   2.419   5.876  11.091 -0.1194  0.2158  0.2114
 4898TIP3    H136109   2.470   5.810  11.045 -0.5524  0.1582 -0.1981
 4898TIP3    H236110   2.484   5.939  11.124  0.2635 -0.2384  0.3260
 4899TIP3   OH236111   6.615   5.688   5.381 -0.1016  0.1639 -0.3454
 4899TIP3    H136112   6.532   5.713   5.422 -0.6007 -1.2522 -0.4287
 4899TIP3    H236113   6.616   5.592   5.387  0.8700  0.0727 -1.6171
 4900TIP3   OH236114   3.126   0.165  13.787 -0.4536  0.3859  0.4696
 4900TIP3    H136115   3.031   0.178  13.792 -0.6867 -0.5990 -0.8651
 4900TIP3    H236116   3.151   0.203  13.704  0.3354  0.6326  0.8109
 4901TIP3   OH236117   4.470   2.056  14.007 -0.0330 -0.0212 -0.0058
 4901TIP3    H136118   4.459   2.068  13.913 -0.6765  0.3096  0.1070
 4901TIP3    H236119   4.482   1.961  14.018 -1.9827 -0.3399 -0.2434
 4902TIP3   OH236120   2.065   3.941   4.771 -0.0171 -0.0893  0.2146
 4902TIP3    H136121   2.008   3.888   4.714  1.0350 -1.5615  0.4702
 4902TIP3    H236122   2.012   4.017   4.794 -1.5196 -0.9246 -0.3537
 4903TIP3   OH236123   5.202   0.504  14.861 -0.2953  0.3444  0.1310
 4903TIP3    H136124   5.130   0.441  14.866 -1.6178  1.7702 -0.2346
 4903TIP3    H236125   5.252   0.490  14.942 -1.6382  0.0639  0.9381
 4904TIP3   OH236126   6.088   0.375  11.023 -0.4560  0.1072 -0.3728
 4904TIP3    H136127   6.028   0.334  10.962 -0.9005  0.3258 -0.0884
 4904TIP3    H236128   6.175   0.351  10.991 -0.6818  0.1671 -1.0499
 4905TIP3   OH236129   4.782   1.128  15.580  0.1469  0.2197  0.4372
 4905TIP3    H136130   4.701   1.162  15.541  0.6768  0.3623 -0.5712
 4905TIP3    H236131   4.770   1.033  15.582 -0.7711  0.3300  1.9787
 4906TIP3   OH236132   1.328   3.295   5.804 -0.0339 -0.7253 -0.1628
 4906TIP3    H136133   1.243   3.320   5.839 -0.3669 -0.4572 -1.1208
 4906TIP3    H236134   1.322   3.200   5.795 -0.1915 -0.7221 -0.1028
 4907TIP3   OH236135   2.708   3.611   2.627  0.4691  0.1365  0.2700
 4907TIP3    H136136   2.721   3.613   2.533  1.8292 -1.4118  0.3719
 4907TIP3    H236137   2.743   3.695   2.658 -0.4649  0.8745 -0.6211
 4908TIP3   OH236138   2.790   6.209   1.720 -0.2326 -0.1960  0.2161
 4908TIP3    H136139   2.748   6.194   1.635 -0.4418 -1.5185  0.5270
 4908TIP3    H236140   2.721   6.247   1.774 -0.9014 -1.7619  0.5333
 4909TIP3   OH236141   3.080   6.257   1.276  0.1183  0.3260 -0.4650
 4909TIP3    H136142   3.092   6.235   1.369 -1.2191 -0.6534 -0.4940
 4909TIP3    H236143   3.097   6.175   1.230  0.3344  0.6972 -1.0462
 4910TIP3   OH236144   6.007   5.762   5.041  0.5571  0.6005  0.0208
 4910TIP3    H136145   5.920   5.739   5.008  1.1325 -0.2368 -0.9744
 4910TIP3    H236146   6.060   5.684   5.027  1.7431  1.4433 -0.3592
 4911TIP3   OH236147   1.649   1.728   3.254  0.0013 -0.6837 -0.3996
 4911TIP3    H136148   1.593   1.708   3.328 -1.0635  0.0265 -0.9845
 4911TIP3    H236149   1.726   1.673   3.266 -0.8760 -1.7754  0.3544
 4912TIP3   OH236150   5.022   2.231   3.342  0.8954 -0.4709  0.4417
 4912TIP3    H136151   4.949   2.282   3.307  1.7739 -0.0499 -0.8425
 4912TIP3    H236152   5.049   2.174   3.270  0.9085 -1.6900  1.3753
 4913TIP3   OH236153   2.865   0.142  15.200 -0.1389 -0.2970 -0.1215
 4913TIP3    H136154   2.824   0.141  15.113 -2.7377  0.8123  0.9925
 4913TIP3    H236155   2.792   0.143  15.261  1.5959  0.4945  2.0744
 4914TIP3   OH236156   0.149   0.872  11.817  0.6501 -0.0723 -0.4746
 4914TIP3    H136157   0.193   0.828  11.889  0.5437  0.8270  0.1570
 4914TIP3    H236158   0.192   0.839  11.738  0.6200 -1.2292 -0.0165
 4915TIP3   OH236159   5.986   4.607   3.945 -0.6092 -0.4891 -0.0850
 4915TIP3    H136160   5.956   4.543   4.009  0.5814  0.0000  1.0004
 4915TIP3    H236161   5.929   4.683   3.957  0.0744 -0.1215  0.9299
 4916TIP3   OH236162   5.428   0.417  14.044  0.0626 -0.6526 -0.7306
 4916TIP3    H136163   5.458   0.343  13.991  1.5674 -0.5449 -0.0821
 4916TIP3    H236164   5.493   0.424  14.114 -0.9247  0.3009  0.1331
 4917TIP3   OH236165   6.753   3.295   3.366  0.5653  0.4359  0.0019
 4917TIP3    H136166   6.840   3.273   3.401  1.0197 -0.0111 -1.3603
 4917TIP3    H236167   6.700   3.217   3.384  1.2915 -0.5531 -1.8639
 4918TIP3   OH236168   1.259   4.101   1.503 -0.2076 -0.0876 -0.4038
 4918TIP3    H136169   1.279   4.047   1.427  0.0771  0.8067 -0.9818
 4918TIP3    H236170   1.171   4.074   1.529  0.8724 -2.6499  0.9346
 4919TIP3   OH236171   2.964   3.702  16.937  0.1533 -0.1886  0.1309
 4919TIP3    H136172   3.008   3.707  17.022  0.8002 -2.2586 -0.0146
 4919TIP3    H236173   2.887   3.648  16.954 -0.0376 -0.1126 -0.4792
 4920TIP3   OH236174   0.018   2.685  15.540 -0.4828  0.1220 -0.7382
 4920TIP3    H136175   0.075   2.635  15.483  0.7181  2.4988 -1.7928
 4920TIP3    H236176  -0.025   2.748  15.481 -4.4087 -1.5963 -0.0339
 4921TIP3   OH236177   1.335   6.496   5.034 -0.3205 -0.3324  1.0357
 4921TIP3    H136178   1.373   6.512   5.120  0.3428  1.5582  0.4417
 4921TIP3    H236179   1.409   6.464   4.981 -0.8923 -2.2745  1.3062
 4922TIP3   OH236180   5.847   4.313  15.972  0.0887 -0.2468  0.3654
 4922TIP3    H136181   5.816   4.227  15.999 -0.8591  0.0541  0.2877
 4922TIP3    H236182   5.903   4.342  16.043 -1.9021  0.2863  1.8025
 4923TIP3   OH236183   2.848   2.648  16.908 -0.1426  0.4803 -0.4578
 4923TIP3    H136184   2.875   2.725  16.958 -1.1385  0.5527  0.0040
 4923TIP3    H236185   2.825   2.682  16.822 -0.4561  0.6940 -0.2960
 4924TIP3   OH236186   2.908   3.082   1.498  0.2122  0.0071 -0.7634
 4924TIP3    H136187   2.959   3.095   1.418  0.6549  0.4143 -0.4229
 4924TIP3    H236188   2.953   3.011   1.543  0.1855  0.0300 -0.7013
 4925TIP3   OH236189   0.118   3.396   0.491  0.3487 -0.5620 -1.1110
 4925TIP3    H136190   0.083   3.482   0.471  0.4352 -0.2890 -0.1408
 4925TIP3    H236191   0.079   3.373   0.576  1.5315 -0.7998 -0.6205
 4926TIP3   OH236192   1.477   2.478   3.068  0.1952 -0.6306  0.5249
 4926TIP3    H136193   1.569   2.506   3.065  0.2596 -0.6668  1.8109
 4926TIP3    H236194   1.456   2.456   2.977  1.1995  0.1984  0.0671
 4927TIP3   OH236195   4.956   5.315   6.016 -0.1504 -0.0987 -1.0692
 4927TIP3    H136196   5.030   5.330   6.074  0.2688 -2.3613 -0.9270
 4927TIP3    H236197   4.916   5.402   6.004  2.4391  1.1712 -1.0885
 4928TIP3   OH236198   0.114   1.870  14.422 -0.2733 -0.1891  0.0131
 4928TIP3    H136199   0.128   1.882  14.328 -0.6378 -1.3437 -0.1981
 4928TIP3    H236200   0.085   1.779  14.431 -1.1504  0.1783  1.1392
 4929TIP3   OH236201   0.017   2.279  16.203 -0.6780 -0.2459 -0.6925
 4929TIP3    H136202  -0.003   2.363  16.162 -0.6609  0.8495  1.4171
 4929TIP3    H236203   0.111   2.283  16.223 -1.1144  0.3131  1.5713
 4930TIP3   OH236204   1.687   3.198  12.765 -0.7934 -0.1245  0.0372
 4930TIP3    H136205   1.678   3.220  12.857 -0.7967 -0.8573  0.2166
 4930TIP3    H236206   1.751   3.127  12.763  0.0076  0.5848 -0.6223
 4931TIP3   OH236207   4.385   4.042  13.845 -0.1397  0.4778 -0.1240
 4931TIP3    H136208   4.461   4.081  13.801  2.1336 -1.4356  1.8367
 4931TIP3    H236209   4.340   4.116  13.886  0.3716  1.7032 -1.6585
 4932TIP3   OH236210   4.513   1.972   0.165 -0.6653 -0.2190  0.0947
 4932TIP3    H136211   4.536   1.882   0.144  5.1114  0.6276  1.0593
 4932TIP3    H236212   4.525   1.979   0.259  0.1702  1.7353 -0.1019
 4933TIP3   OH236213   4.400   1.334  11.080  0.1552  0.5029 -0.3672
 4933TIP3    H136214   4.432   1.387  11.007 -1.7692  1.4867 -0.5439
 4933TIP3    H236215   4.430   1.380  11.158  1.7084 -0.2344 -0.4789
 4934TIP3   OH236216   2.052   6.246  15.139 -0.3067  0.2162  0.1987
 4934TIP3    H136217   2.091   6.199  15.065 -0.7379  0.1826 -0.0085
 4934TIP3    H236218   2.119   6.242  15.207 -0.2332 -0.4948  0.1007
 4935TIP3   OH236219   0.853   1.773  10.601  0.1123 -0.3983  0.0282
 4935TIP3    H136220   0.774   1.821  10.576  0.0632 -0.7163 -0.4502
 4935TIP3    H236221   0.892   1.746  10.518  2.0650  1.8439  0.1433
 4936TIP3   OH236222   0.791   0.290   3.535  0.6192  0.1361 -0.1730
 4936TIP3    H136223   0.854   0.236   3.582  0.1002 -0.0153  0.3712
 4936TIP3    H236224   0.706   0.253   3.559  0.3664 -0.9634 -2.4901
 4937TIP3   OH236225   4.269   1.220  16.082  0.1310  0.2495  0.2812
 4937TIP3    H136226   4.186   1.194  16.122 -0.4774 -0.2482 -1.2149
 4937TIP3    H236227   4.254   1.308  16.049 -0.1101 -0.1669 -0.7579
 4938TIP3   OH236228   6.469   3.081  15.036  0.0667 -0.6133 -0.3904
 4938TIP3    H136229   6.377   3.057  15.052  0.0637 -0.8900 -0.7951
 4938TIP3    H236230   6.507   3.088  15.124 -1.0355  2.4390 -0.0396
 4939TIP3   OH236231   0.474   1.100  13.532 -0.2013  0.0756 -0.0124
 4939TIP3    H136232   0.478   1.029  13.596  0.0252 -0.0627 -0.1798
 4939TIP3    H236233   0.381   1.118  13.522 -0.2155  0.4942  0.7897
 4940TIP3   OH236234   2.924   6.647  12.133  0.6332  0.0384  0.5707
 4940TIP3    H136235   2.906   6.639  12.227  1.1541  0.3069  0.7033
 4940TIP3    H236236   2.847   6.691  12.097 -0.2176 -1.3760  0.6095
 4941TIP3   OH236237   3.979   3.791  11.778  0.0931  0.1751 -0.1035
 4941TIP3    H136238   3.995   3.822  11.689  1.4963  0.8938  0.3669
 4941TIP3    H236239   4.013   3.861  11.834 -0.3806 -0.4529  0.9951
 4942TIP3   OH236240   2.142   0.355  15.289  0.2272 -0.7625 -0.3665
 4942TIP3    H136241   2.176   0.266  15.302 -1.4403 -1.1004  2.7706
 4942TIP3    H236242   2.081   0.367  15.361 -0.3950  2.5963 -1.3095
 4943TIP3   OH236243   2.891   4.800  13.179  0.1373 -0.3980 -0.2938
 4943TIP3    H136244   2.949   4.733  13.143  1.3871  0.2038  0.5552
 4943TIP3    H236245   2.941   4.841  13.249 -1.3139  0.1451  0.4826
 4944TIP3   OH236246   4.720   0.602   0.135  0.0403  0.2511 -0.4016
 4944TIP3    H136247   4.677   0.548   0.201 -1.0890 -0.9493 -2.0144
 4944TIP3    H236248   4.811   0.606   0.162  0.7863 -4.5141 -1.3170
 4945TIP3   OH236249   6.322   6.438   5.023  0.2050  0.2337 -0.6665
 4945TIP3    H136250   6.381   6.372   5.058 -0.0990 -0.4973 -1.5091
 4945TIP3    H236251   6.234   6.407   5.044  0.0182 -0.1912 -1.9935
 4946TIP3   OH236252   0.492   6.350   5.289  0.3284  0.1960 -0.1882
 4946TIP3    H136253   0.584   6.324   5.286  0.8501  1.6972  1.1716
 4946TIP3    H236254   0.465   6.353   5.197  1.4227 -0.9149 -0.5737
 4947TIP3   OH236255   0.943   3.175   2.627  0.4147 -0.2801 -0.1587
 4947TIP3    H136256   0.994   3.256   2.634 -0.4641  0.2701  0.0273
 4947TIP3    H236257   0.916   3.172   2.535  1.4519 -0.9931 -0.4479
 4948TIP3   OH236258   6.582   3.363   0.081  1.2687 -0.1718 -0.0210
 4948TIP3    H136259   6.590   3.307   0.158 -0.3815 -1.2438 -0.5660
 4948TIP3    H236260   6.492   3.397   0.086  1.6055  0.8680 -0.7427
 4949TIP3   OH236261   1.072   2.852  12.706 -0.1780 -0.1608  0.0527
 4949TIP3    H136262   1.132   2.803  12.650 -1.0023 -1.7620  0.5065
 4949TIP3    H236263   1.032   2.916  12.647 -0.3541 -1.2025 -0.9926
 4950TIP3   OH236264   0.512   0.413  12.941  0.3085  0.1597  0.1828
 4950TIP3    H136265   0.578   0.345  12.929  0.0371 -0.0704 -0.0108
 4950TIP3    H236266   0.537   0.481  12.878 -0.9395 -0.9149 -1.5940
 4951TIP3   OH236267   0.484   2.565   1.563 -0.2421 -0.6641 -0.1348
 4951TIP3    H136268   0.498   2.522   1.478  1.0414  0.4382 -0.5052
 4951TIP3    H236269   0.398   2.605   1.554 -0.6122 -1.4936 -0.4913
 4952TIP3   OH236270   3.124   6.493  12.567 -0.3371  0.3480  0.6426
 4952TIP3    H136271   3.169   6.438  12.503 -1.7603  0.3319 -0.3945
 4952TIP3    H236272   3.191   6.513  12.633  1.6434  1.5817 -1.5775
 4953TIP3   OH236273   4.332   2.000  15.932 -0.1155  0.0594  0.7427
 4953TIP3    H136274   4.427   1.992  15.922 -0.0338  1.0294  0.6780
 4953TIP3    H236275   4.319   2.016  16.026 -0.0425  1.9148  0.4762
 4954TIP3   OH236276   5.227   5.564   1.202  0.0993 -0.3018  0.2665
 4954TIP3    H136277   5.232   5.469   1.211  1.4713 -0.2501  0.3675
 4954TIP3    H236278   5.311   5.588   1.161  0.0917  0.9344  0.9248
 4955TIP3   OH236279   2.261   3.780  13.137 -0.3852  0.2095 -0.5016
 4955TIP3    H136280   2.223   3.751  13.054 -1.0350  1.7118 -0.7683
 4955TIP3    H236281   2.192   3.832  13.178  0.2312  0.1930  0.5867
 4956TIP3   OH236282   3.169   0.668   5.069 -0.2303 -0.1866 -0.1189
 4956TIP3    H136283   3.197   0.660   4.978 -3.3218  1.2091 -1.3709
 4956TIP3    H236284   3.194   0.757   5.094 -2.0941  0.5786 -0.7836
 4957TIP3   OH236285   2.363   5.387   4.540  0.5784 -0.0026  0.0868
 4957TIP3    H136286   2.428   5.456   4.523  1.4190 -1.0265 -0.9847
 4957TIP3    H236287   2.279   5.430   4.527  1.0142  1.3131  1.3503
 4958TIP3   OH236288   1.160   0.111  12.452 -0.0720  0.4748 -0.0621
 4958TIP3    H136289   1.129   0.058  12.525  0.3340  1.9626  1.2520
 4958TIP3    H236290   1.220   0.174  12.492 -1.6708  2.9096 -1.2962
 4959TIP3   OH236291   3.082   1.058   5.409  0.1259 -0.4174 -0.2217
 4959TIP3    H136292   3.081   1.133   5.349 -2.1354  0.3025  0.6048
 4959TIP3    H236293   3.006   1.006   5.383  0.6127 -1.4619  0.3946
 4960TIP3   OH236294   0.266   1.119  14.954 -0.1762  0.3953 -0.1425
 4960TIP3    H136295   0.194   1.167  14.995  0.0521  1.1393 -0.5866
 4960TIP3    H236296   0.344   1.168  14.980  0.2257 -0.6410  0.6789
 4961TIP3   OH236297   2.211   3.111  13.430  0.0420  0.0872 -0.1907
 4961TIP3    H136298   2.284   3.173  13.426  0.2564 -0.1385  0.1243
 4961TIP3    H236299   2.241   3.044  13.492 -1.3014  1.0913  1.6452
 4962TIP3   OH236300   2.875   3.103  15.081 -0.2779  0.1321 -0.2407
 4962TIP3    H136301   2.857   3.159  15.005  0.0664  0.6259  0.0368
 4962TIP3    H236302   2.789   3.071  15.108 -0.3600 -0.4800 -1.1545
 4963TIP3   OH236303   6.617   5.906   4.006 -0.0296  0.1883  0.0250
 4963TIP3    H136304   6.578   5.982   4.050  0.9385  0.7830 -0.1177
 4963TIP3    H236305   6.594   5.918   3.914  0.5071  0.5514 -0.0626
 4964TIP3   OH236306   3.871   5.606   3.359  0.2180 -0.2307  0.0899
 4964TIP3    H136307   3.821   5.548   3.302  0.0619 -1.8849  1.8162
 4964TIP3    H236308   3.841   5.694   3.337  0.5254 -0.7279 -2.6816
 4965TIP3   OH236309   3.415   4.174  16.014  0.6720  0.2264 -0.1331
 4965TIP3    H136310   3.392   4.244  15.952  1.8342  0.7110 -0.0446
 4965TIP3    H236311   3.373   4.096  15.978 -0.9014  1.0065 -0.0824
 4966TIP3   OH236312   4.687   2.304   3.961  0.0823 -0.1314 -0.1334
 4966TIP3    H136313   4.762   2.253   3.992 -2.0109 -2.5611  1.3258
 4966TIP3    H236314   4.663   2.360   4.034 -0.0311  0.0059 -0.2748
 4967TIP3   OH236315   2.061   0.122  14.782  0.1637 -0.0257 -0.0949
 4967TIP3    H136316   2.021   0.192  14.833 -0.0634 -0.2482  0.0340
 4967TIP3    H236317   2.090   0.059  14.847 -0.3397 -0.4228 -0.2500
 4968TIP3   OH236318   5.815   4.184  16.526 -0.0286  0.3938  1.1882
 4968TIP3    H136319   5.837   4.218  16.613  1.2400 -0.7551  1.3534
 4968TIP3    H236320   5.900   4.164  16.487 -0.6164  0.3464 -0.0979
 4969TIP3   OH236321   2.653   6.103   3.927  0.3918 -0.0673 -0.3697
 4969TIP3    H136322   2.565   6.139   3.912  1.4529  3.0161  0.1126
 4969TIP3    H236323   2.658   6.091   4.021  0.8314  0.8563 -0.2638
 4970TIP3   OH236324   6.785   3.850   2.863  0.5289 -0.3033  0.0877
 4970TIP3    H136325   6.739   3.889   2.937  0.6258  0.9720 -0.5046
 4970TIP3    H236326   6.716   3.811   2.810  0.0233  1.8435 -0.9425
 4971TIP3   OH236327   0.471   5.723   3.832  0.1420  0.5822  0.6186
 4971TIP3    H136328   0.485   5.802   3.884 -0.1419  1.4989 -0.6640
 4971TIP3    H236329   0.476   5.752   3.741 -0.8522 -0.7043  0.1161
 4972TIP3   OH236330   2.197   0.909   1.289  0.1587 -0.5783  0.3816
 4972TIP3    H136331   2.173   0.848   1.219  0.0982  0.2655 -0.3459
 4972TIP3    H236332   2.287   0.886   1.310  0.4521 -0.3322 -0.5410
 4973TIP3   OH236333   6.301   5.799  13.383 -0.6449 -0.1461 -0.7374
 4973TIP3    H136334   6.214   5.765  13.404 -1.1809  1.5139 -0.1331
 4973TIP3    H236335   6.295   5.893  13.399  1.9531 -0.2618  1.8362
 4974TIP3   OH236336   1.627   5.710   2.487  0.3004 -0.2762  0.3017
 4974TIP3    H136337   1.678   5.687   2.564  1.0108  0.7912  0.1806
 4974TIP3    H236338   1.631   5.806   2.483 -1.3276 -0.1900  0.0114
 4975TIP3   OH236339   6.046   0.072  15.973  0.0317  0.0631  0.0722
 4975TIP3    H136340   5.992   0.084  16.051  1.1923  0.0966  0.8849
 4975TIP3    H236341   5.995   0.113  15.903 -0.4616  1.1774  1.0392
 4976TIP3   OH236342   3.240   1.858   0.562  0.4846 -0.0229  0.6600
 4976TIP3    H136343   3.206   1.899   0.482  1.6371 -0.3038  0.0065
 4976TIP3    H236344   3.181   1.888   0.631  0.0595  1.0437 -0.1405
 4977TIP3   OH236345   3.157   3.114  13.372  0.3446 -0.4536 -0.0376
 4977TIP3    H136346   3.210   3.085  13.298 -3.4622 -0.7881 -2.9327
 4977TIP3    H236347   3.150   3.038  13.429  1.4843 -0.9055 -0.4799
 4978TIP3   OH236348   0.180   4.451   1.284  0.7996  0.4108  0.0278
 4978TIP3    H136349   0.222   4.502   1.214  0.9517  0.1071 -0.1065
 4978TIP3    H236350   0.087   4.469   1.274  0.6474 -0.9258 -1.3319
 4979TIP3   OH236351   1.019   0.331   5.181 -0.0473  0.3308  0.0843
 4979TIP3    H136352   1.022   0.237   5.202 -1.3613 -0.6012 -3.2956
 4979TIP3    H236353   0.963   0.368   5.249 -0.9275 -1.6714  0.5518
 4980TIP3   OH236354   4.701   5.951  16.497 -0.3587 -0.1658  0.3018
 4980TIP3    H136355   4.725   5.966  16.406 -2.1767 -2.5873 -0.7003
 4980TIP3    H236356   4.617   5.996  16.508  0.1854  0.6949  1.0096
 4981TIP3   OH236357   4.389   6.602  13.199 -0.9799 -0.4498 -0.3568
 4981TIP3    H136358   4.440   6.537  13.247 -0.0927  0.6559  0.2822
 4981TIP3    H236359   4.455   6.656  13.155 -1.7026 -0.1856 -1.1432
 4982TIP3   OH236360   2.372   1.880  12.665 -0.0569  0.3107  0.2052
 4982TIP3    H136361   2.413   1.941  12.728  0.2138  0.2178  0.1195
 4982TIP3    H236362   2.414   1.796  12.682  1.5994  0.7203 -1.5427
 4983TIP3   OH236363   4.691   2.836   1.408  0.0171 -0.0419 -0.5455
 4983TIP3    H136364   4.643   2.771   1.356  0.7402 -1.8886  0.9821
 4983TIP3    H236365   4.765   2.860   1.353 -0.6179  0.0098 -1.4028
 4984TIP3   OH236366   3.290   3.206   1.968  0.3492  0.1920 -0.5899
 4984TIP3    H136367   3.198   3.205   1.943  0.6675  1.2314 -1.9212
 4984TIP3    H236368   3.298   3.280   2.029  0.2055 -0.2821  0.0187
 4985TIP3   OH236369   4.373   2.357   2.006  0.5297 -0.3426  0.2130
 4985TIP3    H136370   4.390   2.450   2.019  0.0613 -0.0675 -1.0336
 4985TIP3    H236371   4.451   2.325   1.961 -0.0545 -0.1693 -0.9394
 4986TIP3   OH236372   2.513   4.130   4.956 -0.3125  0.3816  0.2046
 4986TIP3    H136373   2.437   4.128   5.013  0.0091  2.6033  0.8095
 4986TIP3    H236374   2.478   4.148   4.869 -0.5498  0.4162  0.3078
 4987TIP3   OH236375   0.797   2.089   2.600  0.9754 -0.3305  0.0218
 4987TIP3    H136376   0.802   2.179   2.629 -2.3067 -0.1824  0.5704
 4987TIP3    H236377   0.836   2.089   2.513  1.0271  1.6206  0.0116
 4988TIP3   OH236378   3.797   1.340   4.952  0.0602  0.1107 -0.0670
 4988TIP3    H136379   3.834   1.270   4.899  0.4619 -0.6123  1.1253
 4988TIP3    H236380   3.703   1.339   4.931 -0.0474 -1.2274  0.4030
 4989TIP3   OH236381   2.244   3.043   4.946 -0.6634  0.2665  0.3342
 4989TIP3    H136382   2.195   2.962   4.932 -0.9921  0.5937 -0.4905
 4989TIP3    H236383   2.178   3.112   4.939  0.2465  0.9978 -4.0042
 4990TIP3   OH236384   6.648   2.676   3.189 -0.9139  0.5438  0.2443
 4990TIP3    H136385   6.721   2.676   3.250 -0.3033  1.5342 -0.4619
 4990TIP3    H236386   6.681   2.720   3.111 -1.7122 -0.5547 -0.7685
 4991TIP3   OH236387   5.250   3.707  10.866 -0.0214 -0.1867  0.0571
 4991TIP3    H136388   5.173   3.763  10.862  0.3761  0.3005 -1.3118
 4991TIP3    H236389   5.323   3.767  10.876  0.3816 -0.4680 -1.0767
 4992TIP3   OH236390   0.514   5.918  16.385 -0.6155 -0.1434 -0.0575
 4992TIP3    H136391   0.512   5.976  16.461  1.0247 -0.8095  0.5285
 4992TIP3    H236392   0.565   5.966  16.320 -1.6411  0.2321 -0.6208
 4993TIP3   OH236393   2.989   5.770  13.807  0.0538  0.0484 -0.1485
 4993TIP3    H136394   2.998   5.830  13.882 -0.8181 -0.6928  0.5629
 4993TIP3    H236395   3.032   5.690  13.836  2.2534  0.6404 -1.5273
 4994TIP3   OH236396   0.761   2.616  11.436 -0.1502  0.1410 -0.0413
 4994TIP3    H136397   0.750   2.575  11.350 -0.9227  2.2298 -1.0012
 4994TIP3    H236398   0.678   2.601  11.480  0.0249 -0.3992  0.1126
 4995TIP3   OH236399   0.045   4.113   5.059 -0.5760 -0.3433  0.7417
 4995TIP3    H136400   0.128   4.141   5.098  0.0944 -1.7637  0.4327
 4995TIP3    H236401  -0.020   4.126   5.128  0.3279 -1.4100  1.8393
 4996TIP3   OH236402   2.665   4.469   1.091  0.0775 -0.0165 -0.3721
 4996TIP3    H136403   2.621   4.388   1.115 -0.7597  0.8615  1.1763
 4996TIP3    H236404   2.604   4.513   1.032  0.0716 -0.0378 -0.3814
 4997TIP3   OH236405   2.778   1.623  13.371  0.1847 -0.6414  0.0784
 4997TIP3    H136406   2.718   1.563  13.326 -1.5221 -0.3995  1.8667
 4997TIP3    H236407   2.726   1.658  13.444  1.5929  1.8564  0.0003
 4998TIP3   OH236408   6.294   4.997  14.901  0.0318 -0.3116  0.1559
 4998TIP3    H136409   6.342   4.924  14.861 -1.2281 -0.5674 -0.9764
 4998TIP3    H236410   6.330   5.075  14.860  0.3137 -0.4149  0.2076
 4999TIP3   OH236411   4.515   0.081   0.370 -0.1933 -0.1673 -0.2188
 4999TIP3    H136412   4.461   0.067   0.293 -0.5120  0.0059 -0.0320
 4999TIP3    H236413   4.506   0.001   0.421  0.4540 -0.5002 -0.6180
 5000TIP3   OH236414   1.926   1.813  16.135  0.4213 -0.5339  0.0405
 5000TIP3    H136415   1.883   1.833  16.052  0.2247 -2.0448 -0.2581
 5000TIP3    H236416   1.913   1.719  16.146  1.4426 -0.5590  1.2198
 5001TIP3   OH236417   3.989   0.481   5.469 -0.2311 -0.5216 -0.5688
 5001TIP3    H136418   4.028   0.546   5.411 -1.5315  1.9673  1.1597
 5001TIP3    H236419   4.061   0.451   5.524  0.2216  0.0763 -0.8313
 5002TIP3   OH236420   6.775   0.873  16.195  0.2360  0.2074 -0.3638
 5002TIP3    H136421   6.784   0.933  16.121 -2.5413  0.6292 -0.4618
 5002TIP3    H236422   6.696   0.824  16.176  1.5636 -2.4658  0.4920
 5003TIP3   OH236423   0.438   0.877   4.548 -0.3192 -0.3558  0.3932
 5003TIP3    H136424   0.371   0.937   4.515 -0.8890 -2.9055 -3.7936
 5003TIP3    H236425   0.404   0.848   4.633 -3.2207  0.5138 -0.3522
 5004TIP3   OH236426   6.235   4.460   3.873 -0.3248 -0.0401 -0.1526
 5004TIP3    H136427   6.169   4.402   3.834 -1.4339  0.6863  0.5986
 5004TIP3    H236428   6.226   4.543   3.825  1.4228 -0.4862 -1.3903
 5005TIP3   OH236429   6.499   3.694  17.077  0.2328 -0.2461  0.0391
 5005TIP3    H136430   6.424   3.746  17.106 -0.1512 -0.2414 -0.9175
 5005TIP3    H236431   6.492   3.693  16.982  0.4738 -1.6717  0.0067
 5006TIP3   OH236432   1.993   6.081  10.313  0.1875  0.2607  0.3740
 5006TIP3    H136433   2.028   6.164  10.279  1.6110  0.7561  2.8154
 5006TIP3    H236434   1.969   6.101  10.403  0.3989 -1.9458  0.9654
 5007TIP3   OH236435   3.133   2.264   2.682  0.2440  0.0772  0.0824
 5007TIP3    H136436   3.140   2.188   2.623 -1.9242 -0.4644  0.4589
 5007TIP3    H236437   3.107   2.227   2.766 -0.4034  1.2107  0.3969
 5008TIP3   OH236438   0.995   0.809  16.552 -0.4861 -0.3130  0.1049
 5008TIP3    H136439   1.083   0.780  16.528 -0.9516 -1.3830 -0.3364
 5008TIP3    H236440   0.976   0.880  16.491 -0.2835 -0.6841 -0.3900
 5009TIP3   OH236441   3.462   1.759  12.942 -0.2695  0.1141  0.1600
 5009TIP3    H136442   3.466   1.853  12.926 -0.0483  0.0617 -0.0960
 5009TIP3    H236443   3.407   1.750  13.020 -0.4823  0.4389  0.0464
 5010TIP3   OH236444   3.525   6.575   5.191  0.6433  0.0909  0.7232
 5010TIP3    H136445   3.574   6.524   5.125 -1.8059 -2.8901  0.9818
 5010TIP3    H236446   3.569   6.555   5.274  1.1806  0.4086  0.5196
 5011TIP3   OH236447   4.702   1.978  11.770  0.1163 -0.3352 -0.2338
 5011TIP3    H136448   4.640   2.047  11.749 -0.2661  0.2664  2.4906
 5011TIP3    H236449   4.649   1.909  11.810  1.1833  0.9784  3.9642
 5012TIP3   OH236450   2.039   4.963   3.871 -0.3768  0.8779 -0.3703
 5012TIP3    H136451   2.118   4.919   3.903 -0.8462 -0.4561 -0.9689
 5012TIP3    H236452   1.995   4.994   3.950  0.5764  1.3714 -0.0144
 5013TIP3   OH236453   6.632   5.776   0.925 -0.0418  0.2953  0.5623
 5013TIP3    H136454   6.650   5.754   0.833  0.1792  1.5054  0.3061
 5013TIP3    H236455   6.680   5.709   0.975  0.4932  0.1000 -0.1896
 5014TIP3   OH236456   2.155   2.717  12.660 -0.2156 -0.0082  0.0431
 5014TIP3    H136457   2.238   2.751  12.695 -0.7912  1.4694  0.0398
 5014TIP3    H236458   2.158   2.739  12.567 -1.7168  2.4961  0.5099
 5015TIP3   OH236459   1.561   4.907  11.743 -0.4544 -0.1177  0.0540
 5015TIP3    H136460   1.629   4.867  11.796 -0.4318 -0.0176  0.1015
 5015TIP3    H236461   1.608   4.958  11.677 -0.4595  1.2706  1.0733
 5016TIP3   OH236462   5.029   5.954  16.654  0.1939 -0.7456  0.0918
 5016TIP3    H136463   5.043   6.015  16.581 -1.2742 -0.7046 -0.2029
 5016TIP3    H236464   5.109   5.959  16.706  0.7656  0.1747 -0.8375
 5017TIP3   OH236465   3.201   4.063  11.830  0.1147  1.0470 -0.0307
 5017TIP3    H136466   3.284   4.040  11.789 -1.1896 -1.8248 -1.3674
 5017TIP3    H236467   3.158   4.120  11.767  0.2831  0.9285 -0.2553
 5018TIP3   OH236468   3.583   3.453  11.711 -0.0021  0.1535 -0.4159
 5018TIP3    H136469   3.610   3.509  11.638 -0.0515  0.3777 -0.2634
 5018TIP3    H236470   3.660   3.398  11.729 -0.0933 -0.1117 -0.8305
 5019TIP3   OH236471   5.213   5.131   5.255 -0.2779 -0.3052 -0.2181
 5019TIP3    H136472   5.136   5.078   5.235 -0.1971 -0.0547 -1.2572
 5019TIP3    H236473   5.197   5.163   5.344 -1.3220 -0.3483 -0.3694
 5020TIP3   OH236474   3.621   2.246  15.708 -0.3098 -0.2109  0.3043
 5020TIP3    H136475   3.671   2.296  15.773  0.7849  1.4443 -1.7094
 5020TIP3    H236476   3.655   2.157  15.716  0.9684  0.2964  0.9301
 5021TIP3   OH236477   1.016   1.874   0.643 -0.2188 -0.1104 -0.3451
 5021TIP3    H136478   0.949   1.806   0.644  0.0085 -0.3470 -1.0445
 5021TIP3    H236479   1.015   1.908   0.554  2.4966 -2.0356 -1.2345
 5022TIP3   OH236480   6.773   4.546  12.643 -0.4364 -0.8103  0.4439
 5022TIP3    H136481   6.741   4.626  12.684 -0.8796 -1.0114  0.4963
 5022TIP3    H236482   6.702   4.519  12.584  0.1078 -0.6338 -0.3113
 5023TIP3   OH236483   1.053   2.527  13.232  0.0544 -0.7186 -0.2802
 5023TIP3    H136484   1.100   2.449  13.204  1.0854 -0.2346  0.0784
 5023TIP3    H236485   1.101   2.600  13.192  0.8268 -0.0896  1.6793
 5024TIP3   OH236486   4.006   5.472   5.323  0.0041 -0.0966 -0.1622
 5024TIP3    H136487   4.028   5.434   5.408  2.3080  0.7672 -0.3162
 5024TIP3    H236488   3.912   5.491   5.329  0.2378  0.6006  2.4654
 5025TIP3   OH236489   4.711   5.450   4.826  0.0726  0.3844 -0.6228
 5025TIP3    H136490   4.721   5.356   4.840 -0.1049  0.5406  0.6003
 5025TIP3    H236491   4.772   5.490   4.888 -1.3174  1.1196  0.3248
 5026TIP3   OH236492   0.285   2.692   3.407 -0.2663 -0.2923 -0.2424
 5026TIP3    H136493   0.377   2.675   3.389 -0.4104 -1.6271  0.2010
 5026TIP3    H236494   0.274   2.672   3.500 -0.4222  2.5220  0.4265
 5027TIP3   OH236495   0.988   5.742   0.834 -0.4150 -0.9448  0.0682
 5027TIP3    H136496   1.042   5.811   0.874 -1.5517 -0.3414  0.6107
 5027TIP3    H236497   0.921   5.723   0.900 -0.1301 -2.5683 -0.0889
 5028TIP3   OH236498   3.244   1.018  15.655 -0.1030  0.0379 -0.1518
 5028TIP3    H136499   3.243   1.113  15.664 -2.0320  0.0281  0.1795
 5028TIP3    H236500   3.206   1.002  15.568 -2.4109 -0.4352  0.8480
 5029TIP3   OH236501   5.468   5.498   2.404 -0.7116 -0.1356 -0.4162
 5029TIP3    H136502   5.547   5.480   2.354 -1.5732 -0.7668 -1.6152
 5029TIP3    H236503   5.451   5.418   2.454  0.1892  0.5191  1.0141
 5030TIP3   OH236504   1.776   0.856   4.574 -0.1038 -0.8323 -0.2009
 5030TIP3    H136505   1.854   0.810   4.541  1.3426  1.3999 -0.0945
 5030TIP3    H236506   1.749   0.913   4.503 -0.8492 -0.5942  0.2595
 5031TIP3   OH236507   3.876   4.500  15.595  0.4513 -0.4060 -0.1444
 5031TIP3    H136508   3.789   4.524  15.627  0.2887 -0.5267 -0.4857
 5031TIP3    H236509   3.933   4.505  15.672  0.7039  2.3389 -0.4188
 5032TIP3   OH236510   4.323   5.313   4.094 -0.5846 -0.0130 -0.4302
 5032TIP3    H136511   4.325   5.406   4.073  1.2736  0.1092  0.1360
 5032TIP3    H236512   4.318   5.310   4.189  0.8984 -0.4642 -0.3514
 5033TIP3   OH236513   6.184   5.479  16.744 -0.0417  0.0983  0.2485
 5033TIP3    H136514   6.245   5.514  16.679 -0.3882 -0.0498 -0.1605
 5033TIP3    H236515   6.100   5.518  16.721 -0.2360 -0.2389  0.3843
 5034TIP3   OH236516   1.693   2.898   4.073  0.3373  0.4456  0.0114
 5034TIP3    H136517   1.651   2.938   4.149 -0.9412  1.2175 -1.0549
 5034TIP3    H236518   1.627   2.901   4.004  1.4478 -0.2444 -1.1431
 5035TIP3   OH236519   1.710   5.631   1.040 -0.3162  0.3147 -0.2478
 5035TIP3    H136520   1.706   5.725   1.023  0.8821  0.4188 -0.0352
 5035TIP3    H236521   1.803   5.613   1.055 -0.5314 -0.9005 -0.2558
 5036TIP3   OH236522   0.807   4.778   4.039 -0.3986 -0.2564  0.1156
 5036TIP3    H136523   0.869   4.788   3.966  1.2465  1.1023  1.6250
 5036TIP3    H236524   0.727   4.822   4.009  0.5878  1.1706 -0.5173
 5037TIP3   OH236525   2.290   3.824  13.845  0.1809  0.0561 -0.1925
 5037TIP3    H136526   2.382   3.808  13.828  0.9337  1.8168  1.7552
 5037TIP3    H236527   2.257   3.867  13.766  1.3646  0.5230 -0.4492
 5038TIP3   OH236528   5.452   4.618  16.375  0.0693 -0.3681  0.1059
 5038TIP3    H136529   5.448   4.714  16.376  0.9870 -0.3083 -0.2055
 5038TIP3    H236530   5.539   4.598  16.410 -0.6054 -1.1425  1.4242
 5039TIP3   OH236531   1.386   4.729  11.897 -0.1611  0.0377  0.8321
 5039TIP3    H136532   1.353   4.775  11.975  0.0924 -0.6170  1.3340
 5039TIP3    H236533   1.420   4.799  11.841  1.1014  0.4227  2.0102
 5040TIP3   OH236534   0.519   3.983   5.562 -0.2967  0.6597 -0.1467
 5040TIP3    H136535   0.460   3.921   5.520  0.0118  0.4072 -0.2088
 5040TIP3    H236536   0.560   3.933   5.633 -0.4511  0.9456  0.1471
 5041TIP3   OH236537   0.623   5.395  11.664 -0.3723 -0.3006 -0.0321
 5041TIP3    H136538   0.545   5.445  11.689  0.5980  1.8290 -0.9491
 5041TIP3    H236539   0.599   5.304  11.679 -1.9234  0.4305  2.7064
 5042TIP3   OH236540   1.494   6.786   0.075 -0.2364  0.2732 -0.2603
 5042TIP3    H136541   1.541   6.730   0.137 -1.7418  0.3037  0.9915
 5042TIP3    H236542   1.419   6.819   0.125 -1.8132 -0.0874 -2.2414
 5043TIP3   OH236543   4.262   4.232  13.642 -0.3615  0.2683 -0.3868
 5043TIP3    H136544   4.222   4.235  13.556 -1.3023 -1.0243 -0.0280
 5043TIP3    H236545   4.200   4.181  13.695  1.5656 -1.4554  0.3020
 5044TIP3   OH236546   4.031   4.738  12.318  0.1903  0.4040 -0.2450
 5044TIP3    H136547   4.005   4.752  12.409  0.7647 -0.5741  0.0842
 5044TIP3    H236548   4.067   4.649  12.316 -1.3496 -0.2504 -1.7801
 5045TIP3   OH236549   0.098   0.073  16.851  0.1704  0.2903  0.2093
 5045TIP3    H136550   0.051   0.082  16.934 -0.8143  1.5560 -0.4392
 5045TIP3    H236551   0.190   0.086  16.875 -0.1374  1.1072  1.0625
 5046TIP3   OH236552   1.938   0.004  15.868 -0.2174  0.1001  0.1422
 5046TIP3    H136553   1.941   0.036  15.778 -0.6288  0.4922  0.2663
 5046TIP3    H236554   2.026  -0.030  15.884 -0.3461 -0.6340 -0.6458
 5047TIP3   OH236555   4.184   1.645  11.195 -0.6139 -0.3873  0.2772
 5047TIP3    H136556   4.153   1.588  11.265 -1.7226  0.3052  0.3709
 5047TIP3    H236557   4.112   1.706  11.180 -0.1954 -0.2117 -1.1338
 5048TIP3   OH236558   3.882   5.532  11.562  0.3185  0.3757  0.2839
 5048TIP3    H136559   3.805   5.576  11.597  0.5188 -0.1597  1.4813
 5048TIP3    H236560   3.947   5.602  11.550 -0.5781  0.9536 -1.5041
 5049TIP3   OH236561   0.126   0.416  17.013 -0.0100  0.6015 -0.8145
 5049TIP3    H136562   0.187   0.412  16.940  0.1233 -2.3706 -0.6843
 5049TIP3    H236563   0.140   0.502  17.052  0.8719  1.7482 -3.4284
 5050TIP3   OH236564   5.832   2.079   1.968  0.1276  0.1582  0.5351
 5050TIP3    H136565   5.758   2.028   1.935  0.6283 -1.1867  1.4230
 5050TIP3    H236566   5.795   2.129   2.042  0.0819 -0.4714  0.9454
 5051TIP3   OH236567   6.732   1.497  14.563 -0.2420  0.1341  0.0972
 5051TIP3    H136568   6.683   1.575  14.588 -1.1802 -0.8041  1.2831
 5051TIP3    H236569   6.674   1.452  14.502  0.2888  0.3288 -0.5665
 5052TIP3   OH236570   5.528   1.361   3.488 -0.5464  0.2175 -0.4619
 5052TIP3    H136571   5.448   1.322   3.522  0.0595 -0.8604 -0.2285
 5052TIP3    H236572   5.567   1.406   3.563 -0.3847 -0.1840 -0.3040
 5053TIP3   OH236573   0.171   1.242   4.828  0.0871 -0.0079  0.1201
 5053TIP3    H136574   0.203   1.163   4.870  1.0198 -0.1415 -0.7843
 5053TIP3    H236575   0.215   1.242   4.742  0.0713  1.4524  0.0893
 5054TIP3   OH236576   1.618   0.936  15.608 -0.1820 -0.6273 -0.1234
 5054TIP3    H136577   1.692   0.897  15.654  0.0483 -0.5220 -0.4041
 5054TIP3    H236578   1.653   1.015  15.568 -0.2241 -1.0419 -1.0005
 5055TIP3   OH236579   1.346   1.019   4.136  0.1237 -0.2663  0.4752
 5055TIP3    H136580   1.334   0.929   4.105  0.1049 -0.0721 -0.1037
 5055TIP3    H236581   1.320   1.074   4.061 -0.4876  0.2338  1.0315
 5056TIP3   OH236582   2.592   2.346   2.342  0.0523 -0.6922 -0.3026
 5056TIP3    H136583   2.572   2.432   2.304 -0.4345 -0.9436 -0.6185
 5056TIP3    H236584   2.530   2.287   2.301  0.3061 -1.1777  0.0113
 5057TIP3   OH236585   5.222   6.032   1.849  0.1485  0.1368  0.1907
 5057TIP3    H136586   5.304   6.076   1.825  0.4729 -0.6105 -0.1124
 5057TIP3    H236587   5.201   5.977   1.773 -1.1667  1.0537 -0.1322
 5058TIP3   OH236588   3.607   4.509   0.403  0.3094 -0.1373  0.0066
 5058TIP3    H136589   3.612   4.415   0.419 -1.3321 -0.2213  0.1484
 5058TIP3    H236590   3.694   4.542   0.427  0.8616 -1.5851  0.0797
 5059TIP3   OH236591   0.306   5.507   3.882 -0.1472  0.0470 -0.1062
 5059TIP3    H136592   0.256   5.494   3.963  0.1268  1.2234  0.2701
 5059TIP3    H236593   0.320   5.601   3.877  0.4598 -0.0826 -1.1643
 5060TIP3   OH236594   4.256   4.324  17.051  0.2295 -0.0513  0.0089
 5060TIP3    H136595   4.203   4.400  17.075 -3.5379 -1.9323 -1.5335
 5060TIP3    H236596   4.326   4.360  16.998 -1.6520  2.3700 -1.0463
 5061TIP3   OH236597   6.336   6.182   2.601  0.5172  0.3529 -0.2174
 5061TIP3    H136598   6.350   6.220   2.515  0.4785  0.5909 -0.1205
 5061TIP3    H236599   6.399   6.110   2.607  1.4654  1.1861  0.0830
 5062TIP3   OH236600   3.088   0.929   1.739 -0.0385  0.0005  0.7225
 5062TIP3    H136601   3.013   0.932   1.679  1.2835 -1.4820 -1.1007
 5062TIP3    H236602   3.137   1.009   1.720 -0.4282  0.3096  0.9801
 5063TIP3   OH236603   5.685   0.536   4.945 -0.0904 -0.4146  0.4912
 5063TIP3    H136604   5.607   0.505   4.991 -0.5981 -1.0490 -0.7442
 5063TIP3    H236605   5.676   0.501   4.857  0.1788  1.8609 -0.4955
 5064TIP3   OH236606   1.772   3.131  13.295  0.0168 -0.0507 -0.0484
 5064TIP3    H136607   1.713   3.201  13.267 -1.8615 -1.4302  0.2046
 5064TIP3    H236608   1.727   3.091  13.370  2.0114 -0.2468  1.1152
 5065TIP3   OH236609   6.486   3.428  15.206 -0.3105  0.4447 -0.1440
 5065TIP3    H136610   6.421   3.496  15.224 -0.8687  0.2615 -1.3325
 5065TIP3    H236611   6.434   3.354  15.172  0.4428  0.0068 -0.3736
 5066TIP3   OH236612   6.026   3.416  15.431  0.6746  0.6380 -0.3783
 5066TIP3    H136613   5.944   3.427  15.382  0.1762 -1.9899 -0.3008
 5066TIP3    H236614   6.086   3.373  15.370  1.1424  0.3076  0.2931
 5067TIP3   OH236615   2.802   6.059   3.692 -0.0057 -0.1157  0.6047
 5067TIP3    H136616   2.756   6.047   3.776 -0.1436  1.4327  0.7801
 5067TIP3    H236617   2.788   6.151   3.671 -2.3057 -1.0203 -2.5299
 5068TIP3   OH236618   0.706   2.321   4.380 -0.0395  0.0993  0.5617
 5068TIP3    H136619   0.635   2.377   4.349 -0.4907 -0.9188 -0.3014
 5068TIP3    H236620   0.785   2.358   4.341 -0.3714 -0.0586 -0.2656
 5069TIP3   OH236621   1.514   3.387   4.456 -0.4214 -0.9381 -0.1748
 5069TIP3    H136622   1.502   3.315   4.519 -0.7332 -0.3015  0.5095
 5069TIP3    H236623   1.513   3.466   4.510  1.6248 -0.4996 -0.7047
 5070TIP3   OH236624   6.578   3.269  13.119  0.4648 -0.3158  0.1835
 5070TIP3    H136625   6.553   3.272  13.211  0.1429 -0.3123  0.0945
 5070TIP3    H236626   6.499   3.291  13.071  0.4511 -0.9853 -0.1185
 5071TIP3   OH236627   5.960   5.394   2.475  0.6292  0.5368  0.0598
 5071TIP3    H136628   5.927   5.472   2.520  0.6562  0.1614  0.7458
 5071TIP3    H236629   5.887   5.332   2.479 -0.2527  1.2781 -2.4947
 5072TIP3   OH236630   0.292   0.427  11.884  0.6552  0.3347  0.0812
 5072TIP3    H136631   0.202   0.397  11.899  0.1407  2.1127  0.8590
 5072TIP3    H236632   0.346   0.349  11.896 -0.8374 -1.0279 -1.4418
 5073TIP3   OH236633   3.213   1.654   1.143  0.4573  0.3872  0.2028
 5073TIP3    H136634   3.295   1.609   1.162  1.2635  0.7507 -2.1347
 5073TIP3    H236635   3.228   1.744   1.169 -0.2035 -0.0364  2.2856
 5074TIP3   OH236636   1.582   6.019  14.744  0.3973  0.2178 -0.1008
 5074TIP3    H136637   1.669   5.980  14.748  1.2967  2.1805  1.1466
 5074TIP3    H236638   1.544   6.003  14.831 -0.3531 -0.2933 -0.5092
 5075TIP3   OH236639   1.794   0.060  16.087 -0.0135 -0.1024  0.2171
 5075TIP3    H136640   1.862   0.063  16.154 -0.5805  0.8777  0.7784
 5075TIP3    H236641   1.842   0.065  16.004  0.5568  2.2782  0.6250
 5076TIP3   OH236642   0.977   2.872  14.342 -0.2006  0.9444 -0.1554
 5076TIP3    H136643   0.956   2.933  14.413  0.6180  1.3509 -0.2432
 5076TIP3    H236644   1.042   2.813  14.380  0.6117  1.4678 -0.6862
 5077TIP3   OH236645   2.051   6.527  13.533  0.1374 -0.3250 -0.4046
 5077TIP3    H136646   2.097   6.609  13.552 -0.0044 -0.5583  1.0936
 5077TIP3    H236647   2.119   6.468  13.500  0.1952  0.4348 -1.7317
 5078TIP3   OH236648   2.136   4.721  11.432 -0.4233 -0.0331 -0.2974
 5078TIP3    H136649   2.173   4.687  11.513  0.3507  0.8812 -0.2421
 5078TIP3    H236650   2.043   4.733  11.450 -0.4198 -0.6766  0.1554
 5079TIP3   OH236651   6.108   5.784   5.577  0.1026 -0.3147 -0.1164
 5079TIP3    H136652   6.029   5.749   5.535 -0.7908 -0.7512  1.8113
 5079TIP3    H236653   6.094   5.878   5.581  0.6492 -0.1420 -1.6185
 5080TIP3   OH236654   0.774   3.005   0.270  0.1365 -0.4741 -0.4489
 5080TIP3    H136655   0.747   2.976   0.183  0.9600  0.6046 -1.0873
 5080TIP3    H236656   0.702   2.977   0.328 -1.3458  0.4465 -1.7601
 5081TIP3   OH236657   2.985   4.654  16.200 -0.2479 -0.3840 -0.1967
 5081TIP3    H136658   2.925   4.584  16.177  1.6250 -1.9447 -0.5293
 5081TIP3    H236659   2.972   4.666  16.295  0.0950 -1.8612  0.0545
 5082TIP3   OH236660   2.484   1.543  16.889  0.3967 -0.2033 -0.1724
 5082TIP3    H136661   2.553   1.521  16.826  0.8437 -2.8177  1.1019
 5082TIP3    H236662   2.528   1.600  16.953  0.6019  0.3992 -0.8291
 5083TIP3   OH236663   6.294   6.775  12.522 -0.1214 -0.1883  0.2171
 5083TIP3    H136664   6.376   6.793  12.569  1.1413  3.9015 -2.9682
 5083TIP3    H236665   6.311   6.694  12.474  1.8240  0.1750  0.2127
 5084TIP3   OH236666   2.787   2.807  12.089  0.1255 -0.3111  0.0036
 5084TIP3    H136667   2.764   2.883  12.036 -0.6525 -1.2767 -1.1142
 5084TIP3    H236668   2.726   2.739  12.060  0.6258 -1.2842  1.1527
 5085TIP3   OH236669   1.366   1.346  12.267  0.3055 -0.0687  0.2278
 5085TIP3    H136670   1.411   1.284  12.210  1.4971 -0.2493  1.3234
 5085TIP3    H236671   1.422   1.354  12.344 -1.1053  0.3754  1.2689
 5086TIP3   OH236672   2.099   4.115   3.463 -0.1212 -0.0983  0.0169
 5086TIP3    H136673   2.065   4.036   3.421 -0.8857  0.7679 -1.0655
 5086TIP3    H236674   2.173   4.085   3.515 -0.6349 -1.5800 -0.0708
 5087TIP3   OH236675   6.665   1.833   1.114 -0.0626  0.3178 -0.1855
 5087TIP3    H136676   6.688   1.816   1.206 -1.3875  0.3547  0.1659
 5087TIP3    H236677   6.734   1.891   1.083  3.1567 -3.3061 -0.6364
 5088TIP3   OH236678   4.479   2.520  11.645  0.1916  0.2841  0.2674
 5088TIP3    H136679   4.434   2.540  11.727  1.8820  0.9931  1.0746
 5088TIP3    H236680   4.409   2.495  11.585 -1.2863  1.4582  1.4038
 5089TIP3   OH236681   5.848   4.929  13.322  0.0379 -0.4304  0.0807
 5089TIP3    H136682   5.784   4.869  13.358  0.6335 -0.5616  0.9491
 5089TIP3    H236683   5.849   5.003  13.383  1.1792 -0.7357  0.4604
 5090TIP3   OH236684   5.280   0.350  12.017 -0.4778 -0.1805 -0.1717
 5090TIP3    H136685   5.254   0.280  12.076 -1.6673 -0.8887 -1.4690
 5090TIP3    H236686   5.358   0.318  11.973  0.0757  0.1121  0.5759
 5091TIP3   OH236687   2.450   4.795  14.739  0.3064  0.0311 -0.1980
 5091TIP3    H136688   2.459   4.712  14.693 -1.0568  0.3130 -1.0179
 5091TIP3    H236689   2.488   4.778  14.826  0.6986 -1.2179 -0.5880
 5092TIP3   OH236690   5.063   1.370  14.838  0.0147 -0.3475  0.5106
 5092TIP3    H136691   5.075   1.417  14.756  0.0854  2.5309  2.0423
 5092TIP3    H236692   5.146   1.323  14.852  0.3066 -0.1877 -0.6388
 5093TIP3   OH236693   4.998   6.081  15.333 -0.0708 -0.0621  0.1471
 5093TIP3    H136694   5.054   6.157  15.350 -0.4940  0.2554  0.1237
 5093TIP3    H236695   4.910   6.109  15.357 -0.6791  0.3393 -2.2486
 5094TIP3   OH236696   6.720   2.061  14.521  0.8163 -0.6033  0.2006
 5094TIP3    H136697   6.811   2.050  14.493  0.5964  0.9083 -1.2730
 5094TIP3    H236698   6.670   2.064  14.439 -0.5786 -1.3834  0.9865
 5095TIP3   OH236699   4.019   0.231   1.751 -0.1871  0.1715 -0.2118
 5095TIP3    H136700   4.102   0.186   1.766 -0.9889 -1.2393  0.2438
 5095TIP3    H236701   4.023   0.259   1.659  0.6271 -0.2361 -0.3126
 5096TIP3   OH236702   6.057   5.728  13.393  0.1636  0.1639  0.1373
 5096TIP3    H136703   5.970   5.701  13.362 -0.1809 -0.2140  1.4082
 5096TIP3    H236704   6.069   5.683  13.476  0.8869  1.4930  0.7854
 5097TIP3   OH236705   4.769   0.923  16.200  0.9849  0.2920 -0.1868
 5097TIP3    H136706   4.794   0.882  16.283  0.5442  0.7416  0.1724
 5097TIP3    H236707   4.845   0.976  16.177  1.0930  0.1984 -0.0514
 5098TIP3   OH236708   1.974   5.525   4.360  0.1004  0.5242 -0.3247
 5098TIP3    H136709   2.051   5.567   4.323 -0.3972  1.4514 -0.3535
 5098TIP3    H236710   1.939   5.591   4.421 -0.5119  0.0103 -0.1168
 5099TIP3   OH236711   0.972   1.479  15.368 -0.2805 -0.1140  0.1754
 5099TIP3    H136712   0.988   1.389  15.342 -1.4602  0.1614 -1.7117
 5099TIP3    H236713   1.057   1.522  15.362  0.1456 -0.9262  0.3493
 5100TIP3   OH236714   1.295   3.732   2.462  0.0873  0.3371  0.1140
 5100TIP3    H136715   1.232   3.727   2.390  1.4248 -2.4473 -1.0185
 5100TIP3    H236716   1.259   3.676   2.530 -0.0912  1.1771  0.7225
 5101TIP3   OH236717   6.512   2.159  10.310 -0.0282  0.2711  0.5588
 5101TIP3    H136718   6.477   2.073  10.286  0.3483 -0.5404  2.7121
 5101TIP3    H236719   6.549   2.146  10.397  2.1117  2.0829 -0.0126
 5102TIP3   OH236720   3.431   3.812   5.189 -0.9976 -0.1394 -0.5779
 5102TIP3    H136721   3.398   3.902   5.177  2.4604  1.3770  0.2324
 5102TIP3    H236722   3.418   3.795   5.282 -0.7430 -0.0679 -0.5289
 5103TIP3   OH236723   3.554   1.148  13.396  0.1474 -0.0526 -0.5761
 5103TIP3    H136724   3.625   1.139  13.333  0.8016  2.4965 -0.2793
 5103TIP3    H236725   3.583   1.098  13.472  1.5282  0.7524 -0.5466
 5104TIP3   OH236726   4.171   2.621  12.167 -0.1794 -0.4729 -0.1265
 5104TIP3    H136727   4.089   2.639  12.120  0.0300 -0.5467 -0.5272
 5104TIP3    H236728   4.174   2.686  12.236  0.0058  0.3094 -0.8553
 5105TIP3   OH236729   5.191   1.772  12.109 -0.5413  0.2227 -0.1916
 5105TIP3    H136730   5.138   1.692  12.110  1.8226 -1.5813  3.0858
 5105TIP3    H236731   5.230   1.774  12.022 -2.6649 -0.7243 -1.2208
 5106TIP3   OH236732   0.276   4.355   2.055  1.4908 -0.0782 -0.2686
 5106TIP3    H136733   0.202   4.404   2.021 -1.1184 -2.9476  0.7478
 5106TIP3    H236734   0.293   4.394   2.141 -0.6858 -0.9197  0.6325
 5107TIP3   OH236735   1.260   5.753  16.240 -0.4097 -0.2806  0.1425
 5107TIP3    H136736   1.253   5.667  16.198 -0.6918 -0.4708  0.5719
 5107TIP3    H236737   1.227   5.814  16.175 -1.1284 -0.6075  0.1878
 5108TIP3   OH236738   1.061   5.350   2.116 -0.4065 -0.6965  0.6427
 5108TIP3    H136739   1.033   5.262   2.088  0.3624 -0.8249  0.2160
 5108TIP3    H236740   1.062   5.401   2.035 -2.3776  0.1712  1.1172
 5109TIP3   OH236741   6.031   1.598  14.756 -0.0214  0.6822  0.1492
 5109TIP3    H136742   6.031   1.571  14.848 -0.7691  0.6574  0.1452
 5109TIP3    H236743   6.105   1.658  14.749  1.1184 -0.6396  0.3702
 5110TIP3   OH236744   6.055   3.677   6.331 -0.6027  0.1515  0.0446
 5110TIP3    H136745   6.075   3.694   6.423 -0.7266  0.7575 -0.0384
 5110TIP3    H236746   6.022   3.587   6.330 -0.5622  0.1267  0.5842
 5111TIP3   OH236747   6.723   0.083  14.522 -0.1013  0.5803  0.2732
 5111TIP3    H136748   6.689   0.000  14.557 -1.1792  1.1294  0.5688
 5111TIP3    H236749   6.704   0.079  14.429  0.3010  0.2901  0.1997
 5112TIP3   OH236750   0.258   2.742  12.256  0.4969 -0.0461  0.4281
 5112TIP3    H136751   0.273   2.773  12.166  0.6047  3.0193  1.3995
 5112TIP3    H236752   0.164   2.725  12.260  0.3957  0.3485 -0.1323
 5113TIP3   OH236753   3.092   0.627  11.194  0.0404 -0.1876 -0.0772
 5113TIP3    H136754   3.068   0.617  11.102  0.3594 -1.2448 -0.0634
 5113TIP3    H236755   3.034   0.567  11.241 -0.5790  0.8340  0.4959
 5114TIP3   OH236756   5.224   6.508   1.689 -0.3428  0.2086 -0.5375
 5114TIP3    H136757   5.226   6.415   1.668  0.2230 -0.6482  2.8041
 5114TIP3    H236758   5.305   6.543   1.651  0.8745 -1.3102  0.5280
 5115TIP3   OH236759   0.976   5.275   1.318 -0.2796  1.1856 -0.1342
 5115TIP3    H136760   1.057   5.233   1.288 -0.8998 -1.0116  1.0157
 5115TIP3    H236761   0.921   5.280   1.240 -0.7335 -1.6504 -0.1310
 5116TIP3   OH236762   4.004   1.463   4.137 -0.6550 -0.2666  0.1156
 5116TIP3    H136763   3.949   1.512   4.197 -1.2136  0.0846 -0.6747
 5116TIP3    H236764   4.071   1.423   4.193 -2.3984 -1.7371  1.2794
 5117TIP3   OH236765   5.956   3.900  12.334  0.5575 -0.0796  0.5304
 5117TIP3    H136766   6.013   3.953  12.279  1.2313  0.6193  1.8739
 5117TIP3    H236767   5.878   3.954  12.346  0.2863 -0.3537  0.0444
 5118TIP3   OH236768   0.873   1.217  13.709  0.1672 -0.0896  0.0862
 5118TIP3    H136769   0.965   1.191  13.711  0.4652  0.8252 -0.8561
 5118TIP3    H236770   0.840   1.197  13.796  0.3922 -3.4135 -0.4874
 5119TIP3   OH236771   3.063   2.910  16.502 -0.4918  0.0984  0.4685
 5119TIP3    H136772   3.008   2.985  16.521 -1.6116 -0.7300  0.5848
 5119TIP3    H236773   3.018   2.836  16.543  0.5254 -0.6552  0.2632
 5120TIP3   OH236774   5.602   2.424   3.425  0.2435  0.1236 -0.3479
 5120TIP3    H136775   5.561   2.359   3.482  2.3378  0.1466  1.3063
 5120TIP3    H236776   5.600   2.385   3.338  0.2496 -1.5845  0.3887
 5121TIP3   OH236777   2.860   6.778   0.856 -0.4660 -0.2305  0.3443
 5121TIP3    H136778   2.794   6.741   0.797 -0.4349 -0.0096  0.1715
 5121TIP3    H236779   2.810   6.808   0.932 -0.4925 -0.6238  0.4833
 5122TIP3   OH236780   5.878   2.979   1.742  0.0964 -0.4773  0.6949
 5122TIP3    H136781   5.839   2.932   1.816  0.5653 -1.7849  0.1513
 5122TIP3    H236782   5.972   2.969   1.754  0.1806 -0.5002  0.0473
 5123TIP3   OH236783   6.133   1.213  16.840  0.7066  0.5236  1.3062
 5123TIP3    H136784   6.125   1.305  16.813 -0.7041  0.5578  1.7744
 5123TIP3    H236785   6.049   1.174  16.817  2.0115 -1.2235 -0.8747
 5124TIP3   OH236786   1.646   5.464  10.937  0.7659  0.8045  0.1818
 5124TIP3    H136787   1.735   5.433  10.921  0.2496  0.0384 -1.4656
 5124TIP3    H236788   1.590   5.393  10.907 -0.4235  2.3551 -1.5342
 5125TIP3   OH236789   5.441   2.841   3.502 -0.2110 -0.2987 -0.1423
 5125TIP3    H136790   5.444   2.933   3.529  0.2388  0.2421 -1.8975
 5125TIP3    H236791   5.462   2.792   3.582 -2.9593  0.9341  1.4857
 5126TIP3   OH236792   4.073   1.605   5.825  0.2964  0.3385  0.7724
 5126TIP3    H136793   3.982   1.627   5.806 -0.1781 -2.3812 -0.6822
 5126TIP3    H236794   4.119   1.612   5.741  0.2109 -3.0659  0.2708
 5127TIP3   OH236795   2.816   6.014   1.003 -0.0401  0.1637 -0.0999
 5127TIP3    H136796   2.867   5.941   1.037  0.2112  0.5400  0.3524
 5127TIP3    H236797   2.815   6.078   1.075  0.7667  1.1164 -0.8977
 5128TIP3   OH236798   6.423   1.660  14.289  0.0859  0.6745  0.0306
 5128TIP3    H136799   6.451   1.666  14.380  0.6666 -0.7430 -0.0466
 5128TIP3    H236800   6.327   1.656  14.294  0.1098  0.7067  0.5688
 5129TIP3   OH236801   0.406   5.159  13.534 -0.2721 -0.3632  0.0776
 5129TIP3    H136802   0.383   5.070  13.561 -0.5936 -0.6214 -0.9931
 5129TIP3    H236803   0.481   5.149  13.476  0.0183  0.1136  0.3650
 5130TIP3   OH236804   1.757   6.417   4.506 -0.5400  0.3623 -0.1217
 5130TIP3    H136805   1.747   6.345   4.568 -0.0633 -0.9274 -1.4821
 5130TIP3    H236806   1.723   6.493   4.553 -0.6685 -0.6438  1.5231
 5131TIP3   OH236807   1.267   2.575  16.875 -0.2668  0.6547  0.0364
 5131TIP3    H136808   1.252   2.656  16.827  0.3434  0.7918  0.0656
 5131TIP3    H236809   1.193   2.569  16.936 -0.8359  0.6785 -0.6493
 5132TIP3   OH236810   2.833   2.754   4.961  0.4596 -0.7029 -0.5397
 5132TIP3    H136811   2.863   2.697   4.890  0.5389 -0.3769 -0.7690
 5132TIP3    H236812   2.867   2.841   4.938 -1.4964 -0.0969 -1.3443
 5133TIP3   OH236813   1.387   5.273   3.344  0.0469  0.3202  0.5732
 5133TIP3    H136814   1.432   5.351   3.312  0.8497 -0.5108 -0.3681
 5133TIP3    H236815   1.457   5.214   3.371 -0.5097 -0.5858  0.0856
 5134TIP3   OH236816   3.163   3.370   5.687  0.4772 -0.3467  0.3817
 5134TIP3    H136817   3.078   3.398   5.722  1.1583  3.0341 -0.3254
 5134TIP3    H236818   3.142   3.310   5.616 -1.2898 -0.2086  0.7501
 5135TIP3   OH236819   2.427   2.009   0.111  0.0020  0.1656 -0.6964
 5135TIP3    H136820   2.390   2.017   0.023 -0.4248  1.1677 -0.4343
 5135TIP3    H236821   2.373   1.942   0.153  0.1368 -0.2398 -1.1472
 5136TIP3   OH236822   1.491   4.779  13.847  0.3865  0.1606  0.0817
 5136TIP3    H136823   1.583   4.766  13.871  0.2617 -0.6544  0.1328
 5136TIP3    H236824   1.494   4.800  13.754  0.6906  1.0422  0.2829
 5137TIP3   OH236825   4.576   3.911  16.985 -0.5599  0.4877 -0.2152
 5137TIP3    H136826   4.520   3.951  16.919  0.4660  1.8997 -0.2728
 5137TIP3    H236827   4.624   3.843  16.938 -1.5896 -0.1800 -0.3427
 5138TIP3   OH236828   1.162   1.795   3.687  0.1442 -0.4447  0.1268
 5138TIP3    H136829   1.127   1.746   3.761 -2.2485  1.3699  0.3067
 5138TIP3    H236830   1.213   1.865   3.728 -0.2903 -0.0704  0.0264
 5139TIP3   OH236831   3.597   6.769  16.500  0.0132  0.2476  0.0392
 5139TIP3    H136832   3.597   6.807  16.412 -0.9844 -0.9405 -0.4925
 5139TIP3    H236833   3.636   6.837  16.555 -3.4012  2.8965 -0.4866
 5140TIP3   OH236834   0.353   4.016  12.684 -0.4710  0.6458 -0.3484
 5140TIP3    H136835   0.313   4.064  12.612 -0.7856 -1.0471 -1.3597
 5140TIP3    H236836   0.440   3.992  12.652 -0.8619 -0.7013 -0.4618
 5141TIP3   OH236837   6.774   2.814   2.936  0.3841  0.1193 -0.0277
 5141TIP3    H136838   6.721   2.836   2.859  0.0029  0.9925  0.4637
 5141TIP3    H236839   6.811   2.898   2.963  2.7390 -0.5916 -0.8433
 5142TIP3   OH236840   3.713   5.446   1.162 -0.5469 -0.0917  0.0430
 5142TIP3    H136841   3.764   5.499   1.223 -0.2040  0.7576 -0.9477
 5142TIP3    H236842   3.622   5.460   1.188 -0.4365  0.6941  0.0299
 5143TIP3   OH236843   5.978   2.389  15.401  1.2714 -0.0910 -0.1049
 5143TIP3    H136844   5.954   2.327  15.470 -0.4963  1.1787  0.4615
 5143TIP3    H236845   5.978   2.474  15.444  1.8075  0.5430 -1.3149
 5144TIP3   OH236846   5.368   5.229  14.401  0.0792 -0.4284  0.6832
 5144TIP3    H136847   5.398   5.212  14.490  0.0852 -1.6101  0.4829
 5144TIP3    H236848   5.274   5.211  14.404  0.1396 -0.8038  0.3819
 5145TIP3   OH236849   1.989   3.101  16.145 -0.3576 -0.3154  0.2302
 5145TIP3    H136850   1.984   3.018  16.193 -1.4992  0.4081  1.4504
 5145TIP3    H236851   1.900   3.115  16.113  0.2262 -0.3970 -1.4762
 5146TIP3   OH236852   3.712   4.134  14.033 -0.4929  0.1453  0.2023
 5146TIP3    H136853   3.681   4.073  14.100 -0.8759  0.9135  0.7467
 5146TIP3    H236854   3.768   4.195  14.081 -1.6093  1.3401  0.0631
 5147TIP3   OH236855   4.258   0.969  15.228  0.2145 -0.3492 -1.0649
 5147TIP3    H136856   4.164   0.990  15.228  0.1053 -0.7099  0.6505
 5147TIP3    H236857   4.260   0.873  15.232  0.6420 -0.3025 -0.0469
 5148TIP3   OH236858   5.243   3.247   0.302 -0.2345  0.7851 -0.0769
 5148TIP3    H136859   5.253   3.338   0.273 -0.5608  1.6436  2.2965
 5148TIP3    H236860   5.302   3.239   0.378 -0.8004 -0.7574  0.2357
 5149TIP3   OH236861   3.675   1.159   5.816 -0.3776  0.2013 -0.2055
 5149TIP3    H136862   3.633   1.091   5.763 -0.7275  1.4485 -1.5944
 5149TIP3    H236863   3.630   1.154   5.901 -1.2221 -0.5029 -0.6791
 5150TIP3   OH236864   2.675   3.979  10.492  0.1486 -0.3611  0.5111
 5150TIP3    H136865   2.700   3.896  10.533 -1.1613 -1.8028 -1.4333
 5150TIP3    H236866   2.757   4.028  10.485  1.4247 -2.5191 -0.5129
 5151TIP3   OH236867   1.320   5.626  15.132 -0.8048  0.2163  0.1906
 5151TIP3    H136868   1.328   5.659  15.043 -1.2484 -0.4277 -0.0913
 5151TIP3    H236869   1.406   5.588  15.151 -0.7175  0.3331  0.0352
 5152TIP3   OH236870   2.029   2.150  16.162  0.0202 -0.2316  0.0095
 5152TIP3    H136871   2.111   2.111  16.133 -1.3104 -3.3921  0.0899
 5152TIP3    H236872   1.969   2.138  16.088 -1.6135 -2.4144  1.5591
 5153TIP3   OH236873   5.973   3.626   2.659 -0.0263 -0.3207  0.2001
 5153TIP3    H136874   6.002   3.673   2.581  0.9737  0.6732  1.1349
 5153TIP3    H236875   5.883   3.600   2.639  0.5407 -0.9948 -1.6692
 5154TIP3   OH236876   6.020   6.320  15.100  0.3351 -0.4296  0.3402
 5154TIP3    H136877   6.062   6.370  15.030 -0.5562 -0.2544 -0.0837
 5154TIP3    H236878   6.089   6.262  15.133  1.2460  0.6911  0.4837
 5155TIP3   OH236879   4.575   5.731  14.328 -0.1340  0.3073  0.6371
 5155TIP3    H136880   4.629   5.724  14.250  1.0845 -0.6593  1.5340
 5155TIP3    H236881   4.547   5.822  14.330  2.0733  1.0438  0.5141
 5156TIP3   OH236882   2.539   5.261   0.168 -0.0425 -0.4641  0.3836
 5156TIP3    H136883   2.580   5.339   0.207 -1.0864 -0.1377  0.8600
 5156TIP3    H236884   2.573   5.189   0.220  0.0660 -0.2164  0.6626
 5157TIP3   OH236885   5.510   6.034  11.895  0.1588 -0.1389  0.1679
 5157TIP3    H136886   5.436   6.078  11.936 -0.2474 -0.9818  0.3464
 5157TIP3    H236887   5.472   5.985  11.822  0.3875 -1.3263  0.8269
 5158TIP3   OH236888   4.230   2.958  13.179 -0.1926  0.2151  0.5525
 5158TIP3    H136889   4.197   3.037  13.223 -1.3086  0.4704 -0.6905
 5158TIP3    H236890   4.200   2.966  13.089 -0.5894 -1.7910  0.4660
 5159TIP3   OH236891   3.237   0.017  14.207 -0.3451 -0.4391 -0.1702
 5159TIP3    H136892   3.302   0.010  14.277  0.6865 -1.1315 -1.1480
 5159TIP3    H236893   3.172   0.079  14.240  0.1930 -0.6353  1.3183
 5160TIP3   OH236894   4.745   4.927   3.970  0.2724  0.5078 -0.1938
 5160TIP3    H136895   4.663   4.969   3.995 -0.9778 -1.9455  0.0808
 5160TIP3    H236896   4.767   4.967   3.885 -2.2136 -0.0608 -1.2070
 5161TIP3   OH236897   3.889   5.659   2.335  0.4381  0.6170 -0.5389
 5161TIP3    H136898   3.897   5.652   2.430 -1.2654  1.6356 -0.2810
 5161TIP3    H236899   3.844   5.579   2.308  2.5054 -0.5268 -0.7589
 5162TIP3   OH236900   0.858   6.760  14.794  0.0989 -0.5696 -0.3401
 5162TIP3    H136901   0.765   6.748  14.780 -0.5036  2.5411  0.3049
 5162TIP3    H236902   0.874   6.720  14.880 -1.0241  0.2242  0.2721
 5163TIP3   OH236903   4.812   1.359   4.515 -0.5562  0.0634  0.4482
 5163TIP3    H136904   4.747   1.335   4.449  0.0097  2.3768 -1.0654
 5163TIP3    H236905   4.845   1.444   4.486  1.6726 -0.0862  2.2894
 5164TIP3   OH236906   4.398   0.048   4.913  0.0739  0.0996  0.4832
 5164TIP3    H136907   4.426   0.140   4.915 -0.3937  0.2322  1.4632
 5164TIP3    H236908   4.380   0.031   4.821 -0.2390  1.1237  0.3354
 5165TIP3   OH236909   4.647   2.161   0.570 -0.1567  0.6928 -0.2620
 5165TIP3    H136910   4.717   2.096   0.576 -0.1099  0.7383 -0.3187
 5165TIP3    H236911   4.638   2.195   0.659  0.1627  0.9703 -0.3341
 5166TIP3   OH236912   6.761   4.596   0.218 -0.1780  0.0015 -0.2214
 5166TIP3    H136913   6.846   4.621   0.182 -0.5367 -0.0674 -1.1450
 5166TIP3    H236914   6.760   4.501   0.213 -0.8565  0.0484 -1.5641
 5167TIP3   OH236915   5.144   6.414   5.090 -0.2484  0.2999 -0.3320
 5167TIP3    H136916   5.234   6.399   5.060 -0.7067 -0.6467 -1.3201
 5167TIP3    H236917   5.101   6.329   5.079 -1.2665  0.7375  0.1327
 5168TIP3   OH236918   6.258   0.436  11.986 -0.2388  0.1207  0.0991
 5168TIP3    H136919   6.353   0.437  11.974 -0.3477  2.2271 -1.0177
 5168TIP3    H236920   6.241   0.498  12.057 -0.7778 -0.5746  0.6012
 5169TIP3   OH236921   4.833   1.491   4.986 -0.0516  0.0965  0.4837
 5169TIP3    H136922   4.898   1.433   5.025  0.4990 -0.8950 -1.7226
 5169TIP3    H236923   4.801   1.442   4.910 -2.0779  1.3112  0.4927
 5170TIP3   OH236924   0.995   4.925   2.851 -0.2264  0.2872 -0.3934
 5170TIP3    H136925   1.088   4.913   2.833  0.0270  0.9039  0.4348
 5170TIP3    H236926   0.951   4.856   2.801  0.7364 -0.5123 -0.1672
 5171TIP3   OH236927   0.092   0.920   5.052  0.5993 -0.5057  0.3798
 5171TIP3    H136928   0.178   0.895   5.085  1.2411  0.3810 -0.5977
 5171TIP3    H236929   0.062   0.988   5.113  1.5494  0.7376 -0.4924
 5172TIP3   OH236930   4.886   2.291  16.827 -0.4294  0.3500  0.0097
 5172TIP3    H136931   4.798   2.268  16.855 -0.4209 -0.4854 -0.5903
 5172TIP3    H236932   4.924   2.337  16.902 -0.9123 -0.4939  0.7983
 5173TIP3   OH236933   5.682   5.964  13.788 -0.4423  0.1023 -0.8124
 5173TIP3    H136934   5.696   5.996  13.877 -0.8556  0.2254 -0.7914
 5173TIP3    H236935   5.597   5.920  13.791 -1.5490  2.0651 -1.6660
 5174TIP3   OH236936   5.213   5.436   1.999  0.0402  0.1903  0.0769
 5174TIP3    H136937   5.272   5.363   2.015  0.4344  0.6748  0.8886
 5174TIP3    H236938   5.131   5.412   2.041  0.1119  0.1399  0.1862
 5175TIP3   OH236939   4.832   3.940   0.773  0.1438 -0.3054  0.4180
 5175TIP3    H136940   4.769   3.988   0.719  1.0555 -0.2769 -0.6514
 5175TIP3    H236941   4.909   3.996   0.774  0.0862 -0.2267  1.9214
 5176TIP3   OH236942   0.764   3.022  16.551  0.2103 -0.2885  0.7743
 5176TIP3    H136943   0.675   3.052  16.531 -0.1385 -0.3749  2.1238
 5176TIP3    H236944   0.819   3.100  16.540  0.1288 -0.4418 -0.9407
 5177TIP3   OH236945   4.028   6.233   0.113 -0.1549 -0.2223 -0.4629
 5177TIP3    H136946   4.022   6.283   0.032 -0.3125 -0.8472 -0.8400
 5177TIP3    H236947   3.951   6.260   0.163  1.4048  2.3410  0.7547
 5178TIP3   OH236948   3.846   2.769  11.424  0.4187  0.0864  0.0504
 5178TIP3    H136949   3.763   2.739  11.462  0.0434 -0.6348 -1.2824
 5178TIP3    H236950   3.825   2.788  11.332  0.7927  3.7808  0.5560
 5179TIP3   OH236951   2.452   2.059   4.732 -0.4806  0.3914 -0.1892
 5179TIP3    H136952   2.395   1.994   4.692  1.5147 -1.9739  0.5687
 5179TIP3    H236953   2.529   2.061   4.675  1.0732 -0.7443  1.7303
 5180TIP3   OH236954   3.126   5.964  11.275  0.2033  0.1345 -0.5283
 5180TIP3    H136955   3.212   5.925  11.284 -0.1865 -0.9343 -1.2432
 5180TIP3    H236956   3.101   5.988  11.364  1.1300  0.2588 -0.2895
 5181TIP3   OH236957   3.395   5.608   1.545  0.1246  0.6130 -0.0891
 5181TIP3    H136958   3.387   5.559   1.627 -1.5164  1.0869  0.0597
 5181TIP3    H236959   3.399   5.541   1.477  2.3647  0.1857  0.3840
 5182TIP3   OH236960   5.612   5.286   5.996  0.5019 -0.2993 -0.6304
 5182TIP3    H136961   5.618   5.267   6.090  1.4519 -1.0242 -0.8295
 5182TIP3    H236962   5.525   5.325   5.986  0.3167 -0.3653  0.5211
 5183TIP3   OH236963   5.801   0.547   5.411  0.3517  0.4324  0.0865
 5183TIP3    H136964   5.817   0.548   5.317  0.0186 -2.4736 -0.1135
 5183TIP3    H236965   5.882   0.513   5.449  0.2581  0.9718  0.7981
 5184TIP3   OH236966   5.117   0.885   3.543 -0.5675 -0.6482  0.1353
 5184TIP3    H136967   5.112   0.795   3.512  1.5032 -0.7542 -0.0115
 5184TIP3    H236968   5.150   0.935   3.468  1.5358 -0.3794  1.1751
 5185TIP3   OH236969   6.700   0.722   5.123  0.3556 -0.2746  0.2753
 5185TIP3    H136970   6.680   0.780   5.197  0.1494  0.1349 -0.0940
 5185TIP3    H236971   6.780   0.759   5.085 -0.3462  0.3953 -0.5884
 5186TIP3   OH236972   4.983   6.125   3.750 -0.1491 -0.3255 -0.1725
 5186TIP3    H136973   5.002   6.206   3.702 -0.2461 -0.2838 -0.1409
 5186TIP3    H236974   4.922   6.152   3.819 -0.4018 -0.4781 -0.3367
 5187TIP3   OH236975   1.444   5.076  16.044 -0.0711 -0.0802 -0.5150
 5187TIP3    H136976   1.484   5.152  16.002  1.7791 -1.4789 -1.4592
 5187TIP3    H236977   1.374   5.112  16.097 -0.7875  2.0509 -2.7211
 5188TIP3   OH236978   1.926   0.748  15.447  0.5393 -0.1474 -0.3560
 5188TIP3    H136979   1.978   0.823  15.419  0.2965 -0.0147 -0.4560
 5188TIP3    H236980   1.838   0.766  15.414 -0.1405  0.7658  1.7790
 5189TIP3   OH236981   6.456   4.597   5.297  0.1145  0.7685  0.3814
 5189TIP3    H136982   6.410   4.680   5.302 -1.0925  0.0983  0.9738
 5189TIP3    H236983   6.478   4.586   5.204  0.9912  2.0958  0.4173
 5190TIP3   OH236984   4.271   2.652  14.884  0.4742 -0.0811 -0.2076
 5190TIP3    H136985   4.333   2.697  14.826  2.1655  0.4151  1.8505
 5190TIP3    H236986   4.201   2.716  14.898 -0.1417 -0.3297 -1.8940
 5191TIP3   OH236987   4.276   3.091  16.048 -0.4156 -0.4913  0.1877
 5191TIP3    H136988   4.291   3.089  16.143 -0.4034  0.6113  0.2270
 5191TIP3    H236989   4.311   3.008  16.016 -0.7418 -1.0356  1.1918
 5192TIP3   OH236990   3.335   3.003   3.917 -0.2039 -0.1350 -0.3029
 5192TIP3    H136991   3.379   2.929   3.958 -0.1654 -0.1206 -0.3174
 5192TIP3    H236992   3.272   2.963   3.857 -0.2953 -0.1552 -0.1932
 5193TIP3   OH236993   4.150   0.403  15.810 -0.1384  0.0682 -0.6031
 5193TIP3    H136994   4.169   0.367  15.724 -0.9481  1.3146 -1.3346
 5193TIP3    H236995   4.112   0.489  15.793 -1.2492 -0.0611  0.9590
 5194TIP3   OH236996   4.987   6.173   5.033  0.3806  0.1180 -0.4514
 5194TIP3    H136997   4.910   6.124   5.007  0.0071  1.0468 -1.1554
 5194TIP3    H236998   5.033   6.116   5.095 -1.1866 -0.1962  0.4649
 5195TIP3   OH236999   3.124   5.730   4.307 -0.0797  0.6356 -0.0862
 5195TIP3    H137000   3.190   5.672   4.268 -0.7822 -0.3905  0.2233
 5195TIP3    H237001   3.110   5.797   4.239  0.8776  0.5728 -0.3725
 5196TIP3   OH237002   1.889   1.190   0.593  0.1299  0.0584 -0.0202
 5196TIP3    H137003   1.848   1.113   0.553 -1.3872  0.0720  1.4281
 5196TIP3    H237004   1.983   1.172   0.589 -0.1341 -1.2279 -0.9480
 5197TIP3   OH237005   6.729   0.279  13.249  0.3314  0.3143 -0.0987
 5197TIP3    H137006   6.730   0.193  13.206 -1.7491 -0.6112  1.5316
 5197TIP3    H237007   6.735   0.342  13.177 -1.6581 -1.1650 -1.6754
 5198TIP3   OH237008   2.487   1.858  14.611 -0.3324  0.4078 -0.2879
 5198TIP3    H137009   2.486   1.891  14.701  0.2359  0.7127 -0.3861
 5198TIP3    H237010   2.501   1.763  14.620  0.7764  0.5759 -0.0741
 5199TIP3   OH237011   1.459   6.733  15.234 -0.7022  0.6316  0.2922
 5199TIP3    H137012   1.524   6.775  15.290  1.0748 -1.7811  0.2147
 5199TIP3    H237013   1.470   6.774  15.149  1.7544 -0.5846 -0.0651
 5200TIP3   OH237014   2.928   3.976  13.231 -0.0738  0.8740 -0.0011
 5200TIP3    H137015   2.910   4.005  13.142 -0.7497  3.9073  1.0071
 5200TIP3    H237016   2.852   4.004  13.282  0.7496  0.1355  1.7266
 5201TIP3   OH237017   5.198   2.782   4.278  0.6889 -0.4593  0.3970
 5201TIP3    H137018   5.248   2.734   4.344 -0.4019 -1.7185  0.3576
 5201TIP3    H237019   5.173   2.716   4.213 -1.5927 -0.0810  0.7838
 5202TIP3   OH237020   6.527   4.479  12.502 -0.0080 -0.2375 -0.5795
 5202TIP3    H137021   6.444   4.525  12.513 -0.0730  0.2558 -2.6696
 5202TIP3    H237022   6.540   4.475  12.407  2.8730  0.6546 -0.3367
 5203TIP3   OH237023   3.938   3.485  12.627 -0.3965 -0.0082 -0.2180
 5203TIP3    H137024   3.946   3.524  12.715 -0.2256  1.1116 -0.7135
 5203TIP3    H237025   3.848   3.453  12.623 -0.7196  0.8457  0.0087
 5204TIP3   OH237026   4.838   1.550  13.528 -0.4072 -0.2348  0.5236
 5204TIP3    H137027   4.745   1.561  13.547 -0.7361  0.0709 -1.1024
 5204TIP3    H237028   4.879   1.537  13.613 -2.1733 -2.2162  1.1367
 5205TIP3   OH237029   0.340   1.240  13.101  0.4057 -0.3648 -0.6629
 5205TIP3    H137030   0.383   1.181  13.164 -0.4334  0.3741  0.6567
 5205TIP3    H237031   0.412   1.289  13.061  0.9952 -1.2045 -0.6491
 5206TIP3   OH237032   1.487   2.304   3.978 -0.8704 -0.4911  0.2159
 5206TIP3    H137033   1.420   2.248   4.015 -0.8857  0.9533  2.6334
 5206TIP3    H237034   1.570   2.264   4.005 -0.8720  0.0507  1.0877
 5207TIP3   OH237035   3.554   1.671   5.186  0.5746 -0.4541 -0.2400
 5207TIP3    H137036   3.624   1.664   5.120  0.4268  1.5772 -0.6915
 5207TIP3    H237037   3.485   1.721   5.142 -1.2467 -2.4514  0.1757
 5208TIP3   OH237038   6.143   5.128  16.874 -0.5514 -0.2991 -0.1753
 5208TIP3    H137039   6.165   5.179  16.796  1.1184 -1.3098 -0.4108
 5208TIP3    H237040   6.057   5.091  16.854 -0.4453 -0.0054 -1.2595
 5209TIP3   OH237041   2.457   4.122  13.152  0.0031 -1.1292 -0.5500
 5209TIP3    H137042   2.386   4.083  13.203  0.3539 -0.1547  0.7505
 5209TIP3    H237043   2.455   4.075  13.069 -2.3795 -0.9045 -0.7050
 5210TIP3   OH237044   6.413   3.471   0.670  0.1898  0.1684 -0.1339
 5210TIP3    H137045   6.326   3.440   0.697  0.0978  1.1485  0.7787
 5210TIP3    H237046   6.396   3.530   0.597  0.0415  0.6492  0.2823
 5211TIP3   OH237047   1.288   4.590  13.333  0.4677 -0.5133 -0.1797
 5211TIP3    H137048   1.218   4.646  13.301  2.0329 -0.1626 -3.4465
 5211TIP3    H237049   1.252   4.502  13.330 -1.0136 -0.0479  2.0172
 5212TIP3   OH237050   5.404   0.994   2.506 -0.3716  0.4315  0.6214
 5212TIP3    H137051   5.417   0.904   2.534 -1.5736 -0.2197 -0.7792
 5212TIP3    H237052   5.490   1.023   2.475  0.1678  0.0101  1.6779
 5213TIP3   OH237053   3.410   5.138   0.266  0.5402 -0.0533  0.5116
 5213TIP3    H137054   3.504   5.119   0.261  0.3321 -1.0465  0.0315
 5213TIP3    H237055   3.402   5.208   0.330  1.3357 -2.0003  2.8752
 5214TIP3   OH237056   3.686   6.471  13.652 -0.1416 -0.2103 -0.5116
 5214TIP3    H137057   3.736   6.407  13.603 -0.6976 -2.1367  1.3020
 5214TIP3    H237058   3.617   6.421  13.695  0.6177  1.1617  2.6643
 5215TIP3   OH237059   3.387   1.574  13.657  0.3072 -0.0157 -0.4597
 5215TIP3    H137060   3.308   1.538  13.699 -0.7972  2.1106 -0.6136
 5215TIP3    H237061   3.376   1.555  13.564  0.5534 -0.7181 -0.3539
 5216TIP3   OH237062   0.557   0.083  12.728  0.4128  0.5303  0.3311
 5216TIP3    H137063   0.651   0.098  12.731  0.5628 -0.1688 -0.4675
 5216TIP3    H237064   0.548  -0.012  12.741 -0.4122  0.9897  4.1083
 5217TIP3   OH237065   2.601   6.579   5.653 -0.0157  0.8263 -0.1889
 5217TIP3    H137066   2.564   6.499   5.614  1.6767 -1.0485  1.8026
 5217TIP3    H237067   2.595   6.644   5.583  0.4060 -1.5872 -2.6711
 5218TIP3   OH237068   1.246   5.036  13.120  0.4467  0.0366 -0.1216
 5218TIP3    H137069   1.184   5.106  13.100 -0.3418 -0.2384  1.2455
 5218TIP3    H237070   1.319   5.080  13.163  0.0949  0.0677  0.4515
 5219TIP3   OH237071   3.366   0.127   5.359  0.4293  0.3399  0.1243
 5219TIP3    H137072   3.376   0.135   5.454 -1.3659  1.2072  0.2809
 5219TIP3    H237073   3.456   0.119   5.327  1.0135 -1.5036  1.9809
 5220TIP3   OH237074   0.544   4.585  16.730 -0.0731  0.2555  0.1040
 5220TIP3    H137075   0.518   4.677  16.740  1.7025  0.9336 -1.1443
 5220TIP3    H237076   0.639   4.586  16.725 -0.0655 -1.4992 -1.3381
 5221TIP3   OH237077   6.797   3.814  14.502  0.2966 -0.4312  0.0247
 5221TIP3    H137078   6.755   3.887  14.547  0.4234  0.6789 -1.5804
 5221TIP3    H237079   6.864   3.783  14.564  0.6207  1.1847  0.5201
 5222TIP3   OH237080   2.779   3.546  13.892 -0.2800 -0.2055  0.1897
 5222TIP3    H137081   2.699   3.578  13.934 -0.1364 -0.2778  0.5193
 5222TIP3    H237082   2.747   3.493  13.818 -0.5146  1.3813 -0.8901
 5223TIP3   OH237083   0.068   1.050  10.369 -0.0956  0.1452 -0.3255
 5223TIP3    H137084  -0.006   0.989  10.372 -0.8515  1.0433  1.7275
 5223TIP3    H237085   0.137   1.007  10.419 -1.0321  1.3347  2.1645
 5224TIP3   OH237086   2.387   5.421   1.124 -0.2059 -0.1953 -0.0386
 5224TIP3    H137087   2.474   5.440   1.160 -0.1585 -0.0761 -0.2142
 5224TIP3    H237088   2.357   5.345   1.173  0.5919 -1.1164 -0.9119
 5225TIP3   OH237089   4.534   1.481   2.688 -0.6372 -0.3123  0.1984
 5225TIP3    H137090   4.520   1.393   2.722 -0.6952  0.0125  1.0424
 5225TIP3    H237091   4.456   1.530   2.717 -1.3134 -0.3309 -1.5098
 5226TIP3   OH237092   5.702   2.351   0.549  0.3526 -0.1524  0.8611
 5226TIP3    H137093   5.784   2.398   0.530  1.2955 -1.3351  1.8393
 5226TIP3    H237094   5.654   2.353   0.466  1.5869  0.1783  0.1174
 5227TIP3   OH237095   5.670   3.578   2.599  0.0654  0.0775 -0.0464
 5227TIP3    H137096   5.606   3.530   2.652  1.2479 -0.4158  0.9624
 5227TIP3    H237097   5.617   3.617   2.529 -0.9552 -2.8284 -1.0546
 5228TIP3   OH237098   5.045   0.800   4.125  0.0030 -0.1393 -0.2780
 5228TIP3    H137099   5.042   0.718   4.173 -0.7021  0.7143  1.2135
 5228TIP3    H237100   5.137   0.812   4.102  0.3631 -0.5723  0.8766
 5229TIP3   OH237101   0.839   1.967  13.608  0.1605 -0.2400 -0.6641
 5229TIP3    H137102   0.807   1.982  13.696  0.3201  1.3303 -0.8508
 5229TIP3    H237103   0.760   1.962  13.554  0.1035  1.5930 -0.8178
 5230TIP3   OH237104   3.463   3.283   5.333  0.0938 -0.0554 -0.0420
 5230TIP3    H137105   3.551   3.289   5.296 -0.4411 -0.2925 -1.4151
 5230TIP3    H237106   3.430   3.372   5.330  0.4722  0.1372  1.0085
 5231TIP3   OH237107   6.494   3.635  16.243  0.1284  0.3374  0.4018
 5231TIP3    H137108   6.549   3.658  16.318 -2.1493  1.7428  1.7735
 5231TIP3    H237109   6.534   3.556  16.207  2.3234  0.6290  1.9874
 5232TIP3   OH237110   1.907   0.850  13.180  0.0952  0.0849  0.5923
 5232TIP3    H137111   1.848   0.890  13.244 -0.0279  0.3915  0.2904
 5232TIP3    H237112   1.984   0.907  13.181 -0.8577  1.5210 -1.2744
 5233TIP3   OH237113   0.503   4.809  12.930  0.2503  0.5408 -0.3908
 5233TIP3    H137114   0.593   4.841  12.929  0.2402  0.5596 -1.3880
 5233TIP3    H237115   0.461   4.859  13.000  1.2300 -0.1078  0.7112
 5234TIP3   OH237116   5.735   1.425   0.686  0.5305  0.0967 -0.2344
 5234TIP3    H137117   5.680   1.502   0.676  0.5429 -0.2263 -3.8393
 5234TIP3    H237118   5.816   1.446   0.640  1.7062 -1.0546  1.1938
 5235TIP3   OH237119   6.646   3.364   3.796 -0.6261  0.1957  0.4901
 5235TIP3    H137120   6.643   3.445   3.845  0.4302  0.1329  0.6762
 5235TIP3    H237121   6.707   3.308   3.844  1.0840  0.4262 -1.2745
 5236TIP3   OH237122   3.677   0.601   1.079 -0.1936 -0.4402  0.0970
 5236TIP3    H137123   3.711   0.625   0.993 -1.0802 -0.4023 -0.2534
 5236TIP3    H237124   3.712   0.513   1.094 -1.5321 -1.2497 -1.1678
 5237TIP3   OH237125   5.715   4.736  16.422  0.1401 -0.1858 -0.0437
 5237TIP3    H137126   5.709   4.678  16.346  1.6189  2.3448 -2.2573
 5237TIP3    H237127   5.779   4.694  16.479 -0.0648 -1.5400 -0.7696
 5238TIP3   OH237128   2.756   4.139  12.122  0.0835  0.0250  0.5779
 5238TIP3    H137129   2.807   4.119  12.043 -0.0346  0.8449  0.2825
 5238TIP3    H237130   2.676   4.088  12.112  0.4361 -0.5316  0.5804
 5239TIP3   OH237131   4.548   3.395  11.389  0.5798  0.2750 -0.2941
 5239TIP3    H137132   4.643   3.395  11.404  0.3568 -0.3195  1.3608
 5239TIP3    H237133   4.515   3.468  11.441 -0.1074 -1.0341  1.1840
 5240TIP3   OH237134   4.648   0.076   5.495 -0.1491  0.1928 -0.7070
 5240TIP3    H137135   4.557   0.102   5.503  0.0412  0.8880 -0.7243
 5240TIP3    H237136   4.677   0.063   5.585  0.3853  2.3307 -0.5201
 5241TIP3   OH237137   1.439   0.343  14.383  0.3457  0.1545  0.0864
 5241TIP3    H137138   1.434   0.272  14.447  1.6371 -1.2462 -1.2742
 5241TIP3    H237139   1.519   0.324  14.334  0.4172  2.2661 -0.6945
 5242TIP3   OH237140   3.210   2.064   2.516  0.2124 -0.6009  0.3414
 5242TIP3    H137141   3.269   1.989   2.516  2.5100  1.0952  0.1720
 5242TIP3    H237142   3.232   2.112   2.436  1.3779  2.0891  2.1391
 5243TIP3   OH237143   1.286   3.530  11.173  0.2648 -0.1306 -0.0660
 5243TIP3    H137144   1.278   3.543  11.079  0.0812 -1.0647 -0.1797
 5243TIP3    H237145   1.258   3.614  11.211 -0.9258 -0.1823 -0.7919
 5244TIP3   OH237146   1.731   0.399   0.565  0.5910 -0.8526 -0.2379
 5244TIP3    H137147   1.655   0.429   0.515 -0.4434 -0.3811  1.5212
 5244TIP3    H237148   1.788   0.358   0.500 -1.3134 -1.5380 -1.5707
 5245TIP3   OH237149   5.665   2.249  11.798 -0.2254  0.3633  0.2019
 5245TIP3    H137150   5.711   2.203  11.727 -1.3701 -0.8126  0.1722
 5245TIP3    H237151   5.603   2.305  11.752  0.0776  0.7452  0.2594
 5246TIP3   OH237152   0.993   4.201   5.716  0.5744  0.0192  0.0235
 5246TIP3    H137153   0.915   4.239   5.675  0.0620 -1.7906 -0.7587
 5246TIP3    H237154   1.053   4.187   5.643  1.0202 -0.0392  0.4008
 5247TIP3   OH237155   5.622   4.687  11.329  0.4253 -0.1420  0.0682
 5247TIP3    H137156   5.699   4.690  11.273 -0.5097  0.4841 -1.2415
 5247TIP3    H237157   5.622   4.598  11.365  0.5908 -0.8835 -1.6579
 5248TIP3   OH237158   6.275   0.832   6.041  0.0230  0.5080  0.6993
 5248TIP3    H137159   6.197   0.778   6.053  0.1408  0.5185  1.5176
 5248TIP3    H237160   6.310   0.845   6.129  0.6237  0.9908  0.3985
 5249TIP3   OH237161   5.094   1.636   0.098 -0.3447  0.3302  0.9115
 5249TIP3    H137162   5.188   1.620   0.107 -0.0612  2.0444  1.3653
 5249TIP3    H237163   5.086   1.731   0.098 -2.1067  0.2129  1.0116
 5250TIP3   OH237164   3.654   0.319   3.400  0.4040 -0.6189 -0.1136
 5250TIP3    H137165   3.724   0.254   3.411  1.2177  0.2802  0.1425
 5250TIP3    H237166   3.677   0.365   3.319  0.0995 -0.3291 -0.0369
 5251TIP3   OH237167   4.387   0.721   0.865  0.2454  0.0895  0.0856
 5251TIP3    H137168   4.436   0.691   0.789 -0.8122 -1.0156 -0.1862
 5251TIP3    H237169   4.307   0.759   0.830  0.2312  0.5457  0.5920
 5252TIP3   OH237170   6.689   5.946  12.752 -0.7702  0.4788  0.3461
 5252TIP3    H137171   6.771   5.938  12.704  0.4888  2.5473  1.9658
 5252TIP3    H237172   6.623   5.964  12.685  0.2547 -0.3425 -0.9063
 5253TIP3   OH237173   3.914   4.612   4.428 -0.4146  0.7027  0.5218
 5253TIP3    H137174   3.900   4.568   4.344  2.0783  0.1118  0.3473
 5253TIP3    H237175   3.965   4.690   4.405  0.6805  0.2964  1.5294
 5254TIP3   OH237176   0.683   0.894  15.919 -0.0864  0.0459 -0.7471
 5254TIP3    H137177   0.604   0.939  15.948 -0.9085 -1.9386  0.3276
 5254TIP3    H237178   0.755   0.949  15.952 -0.9941  1.2722 -0.7302
 5255TIP3   OH237179   4.549   2.898   3.818 -0.0323 -0.3618 -0.1740
 5255TIP3    H137180   4.534   2.934   3.730  1.4133  0.6363 -0.0422
 5255TIP3    H237181   4.466   2.911   3.864 -0.0602  1.3550 -0.6480
 5256TIP3   OH237182   2.365   2.766   3.707 -0.9875  0.3390  0.5357
 5256TIP3    H137183   2.420   2.793   3.633  0.4773 -1.4988  0.8678
 5256TIP3    H237184   2.293   2.718   3.667  0.1164 -1.1641  0.2878
 5257TIP3   OH237185   0.286   4.383   2.861 -0.2383  0.2506 -0.0951
 5257TIP3    H137186   0.297   4.336   2.944 -0.6342  2.7977  1.4990
 5257TIP3    H237187   0.361   4.441   2.856 -1.6865  2.2433  0.0396
 5258TIP3   OH237188   0.818   1.002  12.024  0.5107  0.7864  0.4567
 5258TIP3    H137189   0.773   0.938  11.968  0.9336  1.4320 -0.6522
 5258TIP3    H237190   0.868   0.949  12.086  0.8078  0.0443 -0.4061
 5259TIP3   OH237191   2.589   2.322   0.645 -0.0445  0.4697  0.4930
 5259TIP3    H137192   2.516   2.319   0.707 -0.2388 -0.7788  0.2259
 5259TIP3    H237193   2.607   2.230   0.624  0.5674  0.8340 -0.6717
 5260TIP3   OH237194   5.708   5.437   4.732 -0.4210 -0.2847 -0.4405
 5260TIP3    H137195   5.780   5.456   4.671  0.1703  0.7036  0.5349
 5260TIP3    H237196   5.734   5.357   4.777 -0.3274 -0.3888 -0.6778
 5261TIP3   OH237197   2.886   3.466  15.523  0.3112  0.2923  0.4899
 5261TIP3    H137198   2.820   3.536  15.527 -1.1659 -1.0721  1.2381
 5261TIP3    H237199   2.928   3.468  15.609 -0.3566 -0.2648  0.8494
 5262TIP3   OH237200   2.711   0.853  16.676  0.1773  0.5562  0.7108
 5262TIP3    H137201   2.710   0.945  16.650  0.6971  0.4180  0.1819
 5262TIP3    H237202   2.620   0.825  16.669  0.1617  0.7854 -0.0181
 5263TIP3   OH237203   0.631   0.339  12.172 -0.5693 -0.1291 -0.5313
 5263TIP3    H137204   0.646   0.296  12.088  0.6358 -2.7888  0.9428
 5263TIP3    H237205   0.538   0.325  12.189 -0.1683 -2.5271  0.0246
 5264TIP3   OH237206   4.139   0.202   3.592 -0.5379  0.6303  0.5253
 5264TIP3    H137207   4.140   0.120   3.641  1.9336  1.0530  1.3689
 5264TIP3    H237208   4.169   0.179   3.504 -1.5090  0.3875  0.2561
 5265TIP3   OH237209   1.045   4.492   2.076 -0.1285 -0.3417  0.3304
 5265TIP3    H137210   1.065   4.555   2.145  1.9930  0.4703 -0.9239
 5265TIP3    H237211   0.952   4.506   2.057 -0.3308  0.5664  1.8614
 5266TIP3   OH237212   1.860   4.012   1.799  0.0506 -0.1358  0.0059
 5266TIP3    H137213   1.832   3.998   1.890 -0.4193  0.6407 -0.0123
 5266TIP3    H237214   1.786   3.985   1.746 -0.2296  0.7872 -0.0868
 5267TIP3   OH237215   3.203   5.850  10.980  0.4293 -0.7234  0.2178
 5267TIP3    H137216   3.197   5.864  10.886 -0.9361  1.3786  0.5464
 5267TIP3    H237217   3.294   5.870  11.002  0.3962  0.1861 -0.4570
 5268TIP3   OH237218   0.711   0.014   4.077  0.1198  0.4284 -0.4976
 5268TIP3    H137219   0.759   0.015   3.994  1.1009  1.4263  0.0639
 5268TIP3    H237220   0.763   0.069   4.136 -1.6461  1.4772  0.1675
 5269TIP3   OH237221   3.001   2.027  14.703  0.0346 -0.1897 -0.0031
 5269TIP3    H137222   3.027   2.010  14.613 -0.9984  0.0939 -0.3757
 5269TIP3    H237223   2.910   1.997  14.708 -0.6226  1.7397  0.3382
 5270TIP3   OH237224   1.514   0.845  13.500 -0.1718  0.1020  0.2878
 5270TIP3    H137225   1.460   0.875  13.573  0.1216  0.3446  0.4067
 5270TIP3    H237226   1.455   0.791  13.447 -0.3839 -0.0742  0.7004
 5271TIP3   OH237227   4.256   3.017  11.738  0.2263 -0.2623  0.3002
 5271TIP3    H137228   4.236   3.106  11.707 -1.4225  0.8243  3.9296
 5271TIP3    H237229   4.222   2.960  11.669  0.1614  1.8798 -1.5673
 5272TIP3   OH237230   5.149   2.232  11.780  0.4789  0.4554 -0.0912
 5272TIP3    H137231   5.060   2.203  11.799  0.7136  0.9869  2.2017
 5272TIP3    H237232   5.137   2.316  11.736 -0.1757  0.7869  0.6839
 5273TIP3   OH237233   3.091   0.733   5.424  0.1438 -0.3965 -0.1417
 5273TIP3    H137234   3.161   0.671   5.404  0.0036 -0.4142 -0.5981
 5273TIP3    H237235   3.133   0.818   5.421  0.3856 -0.4751  0.7079
 5274TIP3   OH237236   4.656   3.332  12.645 -0.2313  0.7562  0.2449
 5274TIP3    H137237   4.627   3.285  12.567 -0.9171  1.1718  0.2428
 5274TIP3    H237238   4.628   3.277  12.718 -2.0163  1.6471  0.2859
 5275TIP3   OH237239   2.979   0.269   5.892 -0.0098  0.2598  0.4835
 5275TIP3    H137240   3.034   0.219   5.952 -0.7335 -1.5831 -0.3206
 5275TIP3    H237241   2.998   0.361   5.914  1.2264 -0.3261  2.1401
 5276TIP3   OH237242   2.613   3.298  12.847 -0.0920  0.1559 -0.2131
 5276TIP3    H137243   2.685   3.334  12.898 -0.2403 -0.5943  0.5461
 5276TIP3    H237244   2.637   3.316  12.756  0.3844  1.1177  0.0944
 5277TIP3   OH237245   3.196   2.750   4.973 -0.2287  0.1657 -0.2880
 5277TIP3    H137246   3.152   2.715   4.895 -0.0730  1.5567 -1.0338
 5277TIP3    H237247   3.125   2.787   5.026 -0.3104 -0.5912  0.1455
 5278TIP3   OH237248   6.535   3.942   4.614 -0.5628  0.0503 -0.3506
 5278TIP3    H137249   6.458   3.887   4.630 -0.7253 -0.5757 -2.9147
 5278TIP3    H237250   6.605   3.880   4.592  1.2916  0.4559  3.5173
 5279TIP3   OH237251   1.639   0.447   3.503 -0.2820  0.2654 -0.1644
 5279TIP3    H137252   1.559   0.404   3.530 -0.6944  0.8440 -0.4477
 5279TIP3    H237253   1.615   0.539   3.492  0.5302  0.5372  0.2245
 5280TIP3   OH237254   1.172   5.706   4.022  0.0878 -0.6350  0.0608
 5280TIP3    H137255   1.161   5.642   4.092 -0.1785 -1.2607 -0.5420
 5280TIP3    H237256   1.161   5.791   4.066 -1.7394 -1.0521  0.5094
 5281TIP3   OH237257   0.348   2.050  15.289 -0.2409  0.2394 -0.1007
 5281TIP3    H137258   0.309   2.035  15.376 -1.2187  0.9554 -0.3973
 5281TIP3    H237259   0.439   2.021  15.298 -0.4167  0.0049  1.0738
 5282TIP3   OH237260   3.326   5.788  14.806 -0.4007  0.1822 -0.4216
 5282TIP3    H137261   3.252   5.775  14.747 -1.3737 -1.0465  1.0088
 5282TIP3    H237262   3.365   5.702  14.815  1.2526  0.8014 -1.1242
 5283TIP3   OH237263   0.325   0.644  15.643  0.2720 -0.3636 -0.1429
 5283TIP3    H137264   0.345   0.623  15.552 -0.1772 -0.8255 -0.1411
 5283TIP3    H237265   0.374   0.580  15.694 -0.7016 -1.1221 -0.1197
 5284TIP3   OH237266   3.560   0.023   4.636  0.6655  0.3599 -0.9076
 5284TIP3    H137267   3.534   0.081   4.564 -0.5351 -0.4069 -1.1182
 5284TIP3    H237268   3.556  -0.065   4.599  0.6492  0.0029 -0.0721
 5285TIP3   OH237269   0.574   0.508   1.720 -0.3139  0.3448 -0.2640
 5285TIP3    H137270   0.561   0.556   1.638 -0.4216 -1.3059 -1.2482
 5285TIP3    H237271   0.656   0.460   1.706 -0.7235 -0.5294  0.2946
 5286TIP3   OH237272   0.734   4.231   2.943  0.1439 -0.1674  0.7257
 5286TIP3    H137273   0.695   4.172   3.008 -0.7675 -2.0799 -1.3965
 5286TIP3    H237274   0.726   4.183   2.860  1.3096  2.1106 -0.8027
 5287TIP3   OH237275   6.115   3.793   1.717 -0.0470 -0.6654 -0.0249
 5287TIP3    H137276   6.069   3.801   1.633 -0.4344  0.7178  0.2890
 5287TIP3    H237277   6.203   3.828   1.699 -0.5747  1.0194  0.4534
 5288TIP3   OH237278   2.991   5.488  12.038 -0.1699  0.4101  0.5160
 5288TIP3    H137279   2.987   5.563  11.979 -0.5752  1.0092  1.2870
 5288TIP3    H237280   3.015   5.525  12.123  0.4093 -0.4356  0.7370
 5289TIP3   OH237281   5.590   2.118   5.551  0.0085  0.4492 -0.0310
 5289TIP3    H137282   5.674   2.089   5.588 -1.5733 -2.3342  1.7882
 5289TIP3    H237283   5.570   2.053   5.484 -0.0127  2.0062 -1.5864
 5290TIP3   OH237284   3.761   0.908   2.693  0.2968  0.6964  0.6629
 5290TIP3    H137285   3.842   0.953   2.667 -0.6266  1.9115 -0.2000
 5290TIP3    H237286   3.768   0.898   2.788  1.6630  0.3476  0.5509
 5291TIP3   OH237287   4.602   2.905  11.614 -0.1595  0.5559 -0.6729
 5291TIP3    H137288   4.565   2.941  11.694 -2.1004  0.0321 -1.2771
 5291TIP3    H237289   4.610   2.980  11.555  0.8366  0.8587 -0.1820
 5292TIP3   OH237290   2.187   2.911  14.971  0.6745 -0.6106 -0.1902
 5292TIP3    H137291   2.120   2.936  14.908 -0.0367 -1.4913  0.2108
 5292TIP3    H237292   2.257   2.975  14.957 -0.8334  1.2618  0.3891
 5293TIP3   OH237293   6.760   2.792  15.292 -0.5911  0.5271 -0.1435
 5293TIP3    H137294   6.731   2.749  15.211  0.6318  1.0361 -0.8740
 5293TIP3    H237295   6.720   2.879  15.288 -0.4744  0.5763 -0.2279
 5294TIP3   OH237296   4.710   6.465   5.589  0.0009  0.8558  0.0759
 5294TIP3    H137297   4.635   6.502   5.637 -0.3079 -0.1584  0.3957
 5294TIP3    H237298   4.717   6.519   5.511 -1.7978  0.2851 -0.5271
 5295TIP3   OH237299   4.419   1.045   3.867 -0.5581  0.0639 -0.0972
 5295TIP3    H137300   4.397   1.134   3.896 -1.5990 -0.7686  1.8907
 5295TIP3    H237301   4.337   0.996   3.877  0.2461 -1.3494 -0.2136
 5296TIP3   OH237302   0.063   1.844  13.149 -0.1660 -0.1839  0.3869
 5296TIP3    H137303   0.115   1.923  13.164  1.5645 -0.6778 -2.3663
 5296TIP3    H237304   0.119   1.772  13.180  0.1456 -0.5899 -1.0259
 5297TIP3   OH237305   5.771   1.807   2.326  0.4092 -0.1430 -0.0358
 5297TIP3    H137306   5.826   1.798   2.404  0.0385 -0.0787  0.2327
 5297TIP3    H237307   5.775   1.901   2.306  0.5961 -0.1769 -0.1645
 5298TIP3   OH237308   5.367   4.934  13.492  0.4364 -0.1956 -0.2395
 5298TIP3    H137309   5.393   4.987  13.417  3.0024  0.8620  1.2425
 5298TIP3    H237310   5.434   4.952  13.558 -0.2108 -3.0830  1.3943
 5299TIP3   OH237311   4.709   4.776  10.707  0.2309 -0.4026 -0.1616
 5299TIP3    H137312   4.722   4.682  10.716  0.1022 -0.3672  0.4718
 5299TIP3    H237313   4.624   4.785  10.664  0.3919 -0.5816 -0.5135
 5300TIP3   OH237314   3.682   6.603  14.082  0.7041  0.1955  0.2528
 5300TIP3    H137315   3.698   6.584  14.175  3.7272  1.6035  0.1226
 5300TIP3    H237316   3.635   6.686  14.083  0.6375  0.1585  0.5095
 5301TIP3   OH237317   1.321   2.505  11.753  0.1207 -0.6154  0.4324
 5301TIP3    H137318   1.315   2.434  11.817  4.2813 -0.6624  1.0603
 5301TIP3    H237319   1.363   2.464  11.677  3.4292  1.1589  1.1285
 5302TIP3   OH237320   5.224   1.877  15.164 -0.3779 -0.1539  0.3737
 5302TIP3    H137321   5.230   1.784  15.182 -0.8360 -0.0580  1.0740
 5302TIP3    H237322   5.254   1.919  15.245  1.3168  0.3264 -0.4635
 5303TIP3   OH237323   1.715   6.694  14.152 -0.1177  0.4163  0.1728
 5303TIP3    H137324   1.802   6.670  14.122 -0.4006  0.1902 -0.4917
 5303TIP3    H237325   1.687   6.763  14.093 -1.1699 -0.8799 -0.9277
 5304TIP3   OH237326   0.850   5.345   5.190  0.1986  0.7125 -0.7600
 5304TIP3    H137327   0.888   5.432   5.179 -1.1560  1.4414  0.0823
 5304TIP3    H237328   0.756   5.360   5.194 -0.0638 -0.7998 -0.5960
 5305TIP3   OH237329   0.993   1.453   4.912  0.0955 -0.2306 -0.0731
 5305TIP3    H137330   0.993   1.525   4.848 -1.1362 -0.0067  0.1471
 5305TIP3    H237331   1.085   1.441   4.935  0.3499  1.1233 -0.3022
 5306TIP3   OH237332   0.923   0.218  14.957  0.0697  0.3731 -0.5379
 5306TIP3    H137333   0.923   0.123  14.967  0.7610  0.1380 -2.4499
 5306TIP3    H237334   0.855   0.235  14.891 -0.8299  1.3406  0.5815
 5307TIP3   OH237335   1.319   0.195  13.582  0.3874 -0.2868  0.7431
 5307TIP3    H137336   1.376   0.118  13.586  0.1554 -0.3984  2.0506
 5307TIP3    H237337   1.301   0.206  13.488  2.4710 -0.3058  0.2948
 5308TIP3   OH237338   0.569   4.460  13.769  0.3484  0.0457 -0.0810
 5308TIP3    H137339   0.591   4.521  13.840  0.0673 -0.2533  0.2754
 5308TIP3    H237340   0.625   4.384  13.785 -0.7127 -0.6106  0.6799
 5309TIP3   OH237341   0.817   3.397  11.667  0.1727  0.0159 -0.1654
 5309TIP3    H137342   0.739   3.410  11.722 -0.1997  2.0672 -1.0678
 5309TIP3    H237343   0.782   3.389  11.578  0.9393  0.0708 -0.4767
 5310TIP3   OH237344   3.400   3.954   1.551 -0.3083 -0.0554  0.0070
 5310TIP3    H137345   3.420   3.945   1.458  1.7494 -0.9845  0.4822
 5310TIP3    H237346   3.358   3.871   1.575  0.4048 -0.3740  0.1765
 5311TIP3   OH237347   4.466   6.109  16.488  0.2950  0.4628  0.3779
 5311TIP3    H137348   4.426   6.194  16.467  1.9025  0.8577 -1.3757
 5311TIP3    H237349   4.462   6.060  16.406  0.7315 -0.5830  0.9698
 5312TIP3   OH237350   1.251   1.049   4.777 -0.1567  0.2745 -0.1034
 5312TIP3    H137351   1.256   1.145   4.784  0.7318  0.1893  0.6921
 5312TIP3    H237352   1.342   1.021   4.766 -0.1232 -0.6024  1.9493
 5313TIP3   OH237353   0.805   2.891  16.220  0.3747  0.1986 -0.3696
 5313TIP3    H137354   0.858   2.826  16.174  1.3978  0.1181  0.8560
 5313TIP3    H237355   0.867   2.959  16.247 -0.0009 -0.1199  1.4901
 5314TIP3   OH237356   2.793   2.563   5.430 -0.2087  0.3812 -0.1302
 5314TIP3    H137357   2.793   2.602   5.342  0.1617  2.5118  0.7472
 5314TIP3    H237358   2.756   2.631   5.486  0.5145 -0.5410  1.5226
 5315TIP3   OH237359   6.683   0.411  16.924  1.2856  0.4402 -0.4690
 5315TIP3    H137360   6.770   0.392  16.958  0.8411  1.4598  1.3606
 5315TIP3    H237361   6.632   0.435  17.001 -0.9511 -1.2557 -1.3207
 5316TIP3   OH237362   4.900   6.578   5.789 -0.2113  0.1190  0.3998
 5316TIP3    H137363   4.811   6.612   5.793  0.8381  3.9041 -2.5612
 5316TIP3    H237364   4.948   6.626   5.855 -0.0122 -0.8628  0.9973
 5317TIP3   OH237365   3.002   0.694   3.991  0.2754 -0.4901 -0.6969
 5317TIP3    H137366   3.088   0.654   4.008  0.7791  0.6139 -0.5194
 5317TIP3    H237367   2.987   0.678   3.898  1.1547  0.1583 -0.9662
 5318TIP3   OH237368   5.544   5.668   4.045 -0.1886 -0.3048  0.3828
 5318TIP3    H137369   5.490   5.693   4.120  1.1458 -0.7231  1.5145
 5318TIP3    H237370   5.602   5.742   4.030 -0.9833  0.1235 -0.8064
 5319TIP3   OH237371   6.544   4.308  16.287 -0.1282  0.1900  0.1900
 5319TIP3    H137372   6.628   4.344  16.315  0.8581 -1.6035 -0.3054
 5319TIP3    H237373   6.561   4.274  16.199 -1.0942 -1.0825  0.4656
 5320TIP3   OH237374   4.536   3.200  16.578  0.2066  0.3161 -0.0742
 5320TIP3    H137375   4.564   3.289  16.601  0.7635  0.1472 -0.0725
 5320TIP3    H237376   4.473   3.212  16.507  1.7980  0.6370 -1.5168
 5321TIP3   OH237377   6.116   6.722   5.264  0.1070 -0.5783  0.1012
 5321TIP3    H137378   6.078   6.793   5.315  0.3664  0.9325 -1.6925
 5321TIP3    H237379   6.210   6.740   5.263  0.1432 -0.7625 -0.6027
 5322TIP3   OH237380   1.312   3.790   5.131 -0.0966  0.0664  0.2112
 5322TIP3    H137381   1.229   3.758   5.167 -0.0410  0.4074  0.6395
 5322TIP3    H237382   1.298   3.883   5.117  0.5013  0.3002  1.1073
 5323TIP3   OH237383   3.797   5.799   0.855 -0.2136 -0.0414  0.3714
 5323TIP3    H137384   3.808   5.801   0.760 -2.4535 -3.0757 -0.0986
 5323TIP3    H237385   3.882   5.770   0.889 -0.5003 -2.9585 -1.1582
 5324TIP3   OH237386   3.609   6.070  15.371 -0.3672  0.6099  0.1057
 5324TIP3    H137387   3.647   5.995  15.418  2.0581  2.4927  1.3442
 5324TIP3    H237388   3.522   6.039  15.344  0.3104 -2.4472  1.0100
 5325TIP3   OH237389   5.184   5.597   6.063  0.0440  0.1525 -0.0070
 5325TIP3    H137390   5.180   5.501   6.063 -0.6968  0.1584  1.5813
 5325TIP3    H237391   5.276   5.617   6.076 -0.1090 -0.4043  2.3233
 5326TIP3   OH237392   5.957   4.885   0.590 -0.1931 -0.3400  0.0540
 5326TIP3    H137393   5.928   4.974   0.571 -0.1050 -0.6660 -1.7864
 5326TIP3    H237394   5.934   4.835   0.512 -0.6057 -2.0401  1.1959
 5327TIP3   OH237395   4.842   6.680   1.085 -0.5621  0.7195 -0.3838
 5327TIP3    H137396   4.769   6.705   1.029 -2.0953  3.1780  2.4525
 5327TIP3    H237397   4.835   6.737   1.162  2.2803 -1.3566  1.6528
 5328TIP3   OH237398   1.165   6.218   5.001 -0.5228  0.5889 -0.3372
 5328TIP3    H137399   1.235   6.275   5.032 -0.7753  2.5042 -2.9649
 5328TIP3    H237400   1.209   6.136   4.977  0.3217  0.7299  0.6599
 5329TIP3   OH237401   5.518   6.201   4.661  0.1676  0.3297 -0.5467
 5329TIP3    H137402   5.463   6.180   4.736 -0.5186  0.3735 -1.0251
 5329TIP3    H237403   5.555   6.287   4.680 -0.0918  0.3877 -0.3107
 5330TIP3   OH237404   2.851   5.899  13.379 -0.3778  0.4677  0.3591
 5330TIP3    H137405   2.908   5.945  13.318  0.1228  1.5398  1.5785
 5330TIP3    H237406   2.764   5.933  13.361 -0.8610 -1.7385 -2.0430
 5331TIP3   OH237407   4.243   3.720  11.323 -0.5529  0.3019 -0.2533
 5331TIP3    H137408   4.248   3.779  11.248 -2.5712 -0.4798 -1.0811
 5331TIP3    H237409   4.278   3.770  11.396  2.2132  0.8291 -1.8147
 5332TIP3   OH237410   6.048   4.102   2.844  0.2525  0.2226  0.0055
 5332TIP3    H137411   6.060   4.012   2.875  0.5122  0.3299  0.2166
 5332TIP3    H237412   6.135   4.142   2.851  0.3566  0.2069 -0.9986
 5333TIP3   OH237413   0.381   3.451  15.335  1.0414  0.7615  0.0313
 5333TIP3    H137414   0.308   3.390  15.340  1.5863  0.1523  0.8407
 5333TIP3    H237415   0.372   3.493  15.249  1.2129 -1.1795 -0.9951
 5334TIP3   OH237416   5.202   4.889   3.921  0.1087 -0.2451 -0.5586
 5334TIP3    H137417   5.178   4.817   3.979  2.1422 -0.4187  0.1570
 5334TIP3    H237418   5.265   4.851   3.860 -0.4215  0.4424 -1.5619
 5335TIP3   OH237419   0.361   3.170  12.192 -1.0218  0.3065 -0.5802
 5335TIP3    H137420   0.317   3.086  12.201  0.1810 -0.1567  2.0115
 5335TIP3    H237421   0.375   3.200  12.282  2.5458  1.0906 -1.2341
 5336TIP3   OH237422   3.636   0.823  11.258 -0.2768  0.0293 -0.0160
 5336TIP3    H137423   3.560   0.876  11.284 -0.5474 -0.0377 -0.6503
 5336TIP3    H237424   3.659   0.856  11.172 -0.0958 -0.5101 -0.1755
 5337TIP3   OH237425   0.871   0.868  14.459 -0.3976 -0.0243  0.3973
 5337TIP3    H137426   0.927   0.790  14.454  0.0127  0.2700  0.2867
 5337TIP3    H237427   0.792   0.845  14.411 -0.4666 -0.5281  0.7449
 5338TIP3   OH237428   2.932   0.544   5.242  0.3780  0.5351 -0.1418
 5338TIP3    H137429   2.996   0.615   5.256 -0.8472  2.0234 -1.6498
 5338TIP3    H237430   2.864   0.584   5.188 -1.4232 -1.2427  0.6975
 5339TIP3   OH237431   6.597   6.397  14.880  0.0182  0.1812  0.7234
 5339TIP3    H137432   6.668   6.359  14.828 -0.6233  0.7483 -0.6471
 5339TIP3    H237433   6.525   6.407  14.817 -1.2253 -0.2293  2.0377
 5340TIP3   OH237434   3.174   5.090   0.502 -0.2232  0.0802  0.6599
 5340TIP3    H137435   3.236   5.144   0.453  1.5298 -0.7957  1.8121
 5340TIP3    H237436   3.218   5.005   0.511 -0.7245  0.0137  3.1706
 5341TIP3   OH237437   4.256   6.501   4.380  0.0141 -0.9258 -0.8161
 5341TIP3    H137438   4.302   6.506   4.464  3.5274  0.1926 -2.6390
 5341TIP3    H237439   4.285   6.419   4.341  0.1777 -0.3796 -1.8734
 5342TIP3   OH237440   4.336   1.231  13.302  0.7648 -0.3703  0.2658
 5342TIP3    H137441   4.268   1.229  13.370  2.0422  1.3283  1.6910
 5342TIP3    H237442   4.291   1.263  13.224 -0.4495 -1.0606  0.6449
 5343TIP3   OH237443   3.296   2.161   2.264 -0.0283 -0.0139 -0.6621
 5343TIP3    H137444   3.218   2.122   2.223  0.0359 -1.8522  0.8822
 5343TIP3    H237445   3.366   2.099   2.246  0.1460 -0.5278  1.5642
 5344TIP3   OH237446   0.551   3.015  10.843 -0.3487 -0.0091  0.1535
 5344TIP3    H137447   0.635   2.981  10.812 -0.8148 -0.5387 -0.5835
 5344TIP3    H237448   0.525   3.078  10.776 -0.0447  0.9697  0.9261
 5345TIP3   OH237449   2.758   0.549  14.861 -0.3851 -0.2631  0.3637
 5345TIP3    H137450   2.678   0.571  14.814  0.2391 -0.0599 -0.6492
 5345TIP3    H237451   2.824   0.538  14.792  1.2465  2.7863  1.2754
 5346TIP3   OH237452   3.406   0.488  16.695 -0.2137 -0.1738 -0.2734
 5346TIP3    H137453   3.379   0.432  16.622 -1.6217 -0.4886  0.4499
 5346TIP3    H237454   3.466   0.433  16.746 -0.5821 -0.5610 -0.2571
 5347TIP3   OH237455   6.436   4.351   1.446  0.2212  0.4911 -0.3558
 5347TIP3    H137456   6.425   4.395   1.530  2.0932  1.1012 -0.3821
 5347TIP3    H237457   6.418   4.259   1.464  1.6572  0.4439  0.9870
 5348TIP3   OH237458   2.527   2.396   5.710 -0.1930  0.5796 -0.2254
 5348TIP3    H137459   2.435   2.419   5.714  0.0859  1.5708  0.7226
 5348TIP3    H237460   2.557   2.399   5.801  0.4890 -0.9568 -0.3682
 5349TIP3   OH237461   0.148   2.298  11.342 -0.1184  0.2287 -0.1587
 5349TIP3    H137462   0.210   2.327  11.275 -1.1331 -0.1380 -1.2771
 5349TIP3    H237463   0.113   2.215  11.309  0.0056 -0.4168  1.2452
 5350TIP3   OH237464   4.915   1.113   5.432 -0.1603  0.1187  0.3637
 5350TIP3    H137465   4.914   1.196   5.480 -0.6977 -0.2416  0.9884
 5350TIP3    H237466   4.989   1.121   5.372 -0.0239  0.9295  0.6301
 5351TIP3   OH237467   0.316   1.940   1.364 -0.2296 -0.1166 -0.5258
 5351TIP3    H137468   0.378   2.007   1.336  1.0915 -0.9950  0.1895
 5351TIP3    H237469   0.262   1.924   1.287  0.1002  1.0348 -1.0123
 5352TIP3   OH237470   2.871   4.716  12.315  0.8939 -0.1707  0.0412
 5352TIP3    H137471   2.963   4.739  12.332  1.4353 -2.5055  0.5302
 5352TIP3    H237472   2.856   4.636  12.365 -1.0086 -0.6254 -1.1504
 5353TIP3   OH237473   3.471   4.495  11.966 -0.4982 -0.1449 -0.8504
 5353TIP3    H137474   3.430   4.446  12.037 -0.3853 -1.0857 -1.4149
 5353TIP3    H237475   3.485   4.430  11.897 -1.5420  0.9466 -2.1511
 5354TIP3   OH237476   5.655   3.586  14.479 -0.3670 -0.0531 -0.3656
 5354TIP3    H137477   5.743   3.575  14.517  0.3369 -0.2400 -1.9669
 5354TIP3    H237478   5.598   3.536  14.537  0.8506 -1.3578 -0.2209
 5355TIP3   OH237479   4.402   5.917  16.845  0.2259 -0.0123  0.4928
 5355TIP3    H137480   4.417   5.874  16.761  0.8778  0.2663  0.4677
 5355TIP3    H237481   4.387   5.844  16.906 -0.4753 -0.2089  0.1066
 5356TIP3   OH237482   2.575   4.834   0.415 -0.1477 -0.2212  0.1005
 5356TIP3    H137483   2.538   4.789   0.338 -0.0057 -1.4949  0.7526
 5356TIP3    H237484   2.589   4.765   0.479  1.1743  0.5860  0.7373
 5357TIP3   OH237485   3.347   2.343  15.721 -0.6525  0.0780  0.6735
 5357TIP3    H137486   3.328   2.326  15.629  0.6509  3.0254 -0.2445
 5357TIP3    H237487   3.420   2.285  15.741 -2.1380 -1.9841  0.5143
 5358TIP3   OH237488   5.854   4.554  11.199  0.0973  0.0281 -0.5713
 5358TIP3    H137489   5.820   4.545  11.111  1.5029 -2.5991 -0.9464
 5358TIP3    H237490   5.888   4.467  11.221 -1.2553  0.2241  3.0215
 5359TIP3   OH237491   4.336   3.143   1.420 -0.1559  0.5252  0.4914
 5359TIP3    H137492   4.325   3.237   1.414 -0.8551  0.6663  2.9491
 5359TIP3    H237493   4.266   3.107   1.365  1.3920  1.3384 -2.2017
 5360TIP3   OH237494   3.004   4.589  13.800  0.1144 -0.4885  0.0564
 5360TIP3    H137495   2.948   4.511  13.803  0.8251 -0.9835  1.4231
 5360TIP3    H237496   3.012   4.610  13.707 -1.9153 -0.6986 -0.2061
 5361TIP3   OH237497   0.653   0.358  10.945  0.6478 -0.2903 -0.1175
 5361TIP3    H137498   0.635   0.325  10.857 -0.8890  0.8184 -0.2693
 5361TIP3    H237499   0.573   0.405  10.970  1.8375  1.2707  1.0021
 5362TIP3   OH237500   6.582   2.070  16.576  0.3882  0.6696  0.0012
 5362TIP3    H137501   6.561   2.164  16.579 -0.2712  0.5113  0.6063
 5362TIP3    H237502   6.665   2.063  16.623 -0.8193  0.6459  2.3098
 5363TIP3   OH237503   3.612   6.025  15.742  0.0574  0.2197 -0.1287
 5363TIP3    H137504   3.586   5.961  15.675 -3.3274  1.5093 -0.2050
 5363TIP3    H237505   3.624   6.107  15.693 -0.9119  0.8115  0.5933
 5364TIP3   OH237506   6.485   1.116   2.358  0.4255  0.2243 -0.4824
 5364TIP3    H137507   6.519   1.121   2.269 -0.3059  0.8315 -0.7308
 5364TIP3    H237508   6.485   1.022   2.378 -0.1129  0.0164 -1.3992
 5365TIP3   OH237509   6.745   3.525   2.833 -0.0215  0.0316 -0.0152
 5365TIP3    H137510   6.765   3.462   2.764  1.5002  2.0574 -1.5465
 5365TIP3    H237511   6.700   3.596   2.788  1.7055  1.7582  0.8889
 5366TIP3   OH237512   2.389   6.104   1.170  0.6534 -0.0348 -0.0318
 5366TIP3    H137513   2.455   6.157   1.214 -0.5163 -0.3307  2.2355
 5366TIP3    H237514   2.307   6.129   1.212 -0.3909 -1.1906 -1.3054
 5367TIP3   OH237515   2.875   3.418   4.020 -0.1869  0.4537  0.1024
 5367TIP3    H137516   2.806   3.426   3.954  0.5447  1.4418 -0.5702
 5367TIP3    H237517   2.936   3.488   3.999  1.6310 -1.1035 -0.0417
 5368TIP3   OH237518   5.138   3.044  10.913 -0.3243 -0.1759 -0.1367
 5368TIP3    H137519   5.060   3.026  10.860  0.4311  0.5283 -1.5483
 5368TIP3    H237520   5.162   2.958  10.949 -1.6647 -0.4219  0.2069
 5369TIP3   OH237521   4.030   3.158  15.907  0.1059 -0.3878 -0.2744
 5369TIP3    H137522   3.972   3.105  15.962 -0.4125  0.0045 -0.4330
 5369TIP3    H237523   4.118   3.143  15.943 -0.3878  1.3224  1.9218
 5370TIP3   OH237524   3.961   4.996  15.859 -0.4518  0.1803  0.2650
 5370TIP3    H137525   3.898   4.925  15.868  0.0588 -0.2087  0.8792
 5370TIP3    H237526   4.046   4.953  15.851 -0.3389  0.6636 -1.7049
 5371TIP3   OH237527   6.766   4.683  12.192  0.6203  0.2260  0.0520
 5371TIP3    H137528   6.762   4.777  12.177  0.0556 -0.0549 -1.9236
 5371TIP3    H237529   6.835   4.652  12.133  0.5079 -0.6463  0.3616
 5372TIP3   OH237530   5.672   6.786   3.766  0.5961  0.0330  0.3981
 5372TIP3    H137531   5.722   6.798   3.685 -1.4694 -0.6578 -1.0624
 5372TIP3    H237532   5.706   6.705   3.804  0.9521 -0.1330 -0.2620
 5373TIP3   OH237533   2.263   0.550  14.179  0.7687 -0.1078  1.5740
 5373TIP3    H137534   2.344   0.524  14.137  0.4458 -0.2801  1.0493
 5373TIP3    H237535   2.262   0.503  14.262  0.7422 -0.8796  1.1503
 5374TIP3   OH237536   3.447   0.042  14.396  0.1295 -0.6633 -0.2337
 5374TIP3    H137537   3.426   0.134  14.384  2.9279 -0.0664 -1.4140
 5374TIP3    H237538   3.462   0.032  14.490 -0.9766 -0.1407  0.0099
 5375TIP3   OH237539   2.798   3.226   1.835 -0.1428 -0.0017  0.3797
 5375TIP3    H137540   2.884   3.251   1.803 -0.6450  0.9580 -0.2598
 5375TIP3    H237541   2.743   3.221   1.757 -0.5974 -0.9444  0.7408
 5376TIP3   OH237542   0.250   3.664   5.729  0.3411  0.4724 -0.2941
 5376TIP3    H137543   0.258   3.603   5.803 -1.6623  1.5563  0.9234
 5376TIP3    H237544   0.235   3.750   5.770  0.4133  1.3291 -1.9650
 5377TIP3   OH237545   1.382   3.866  13.664  0.2686 -0.2078  0.3539
 5377TIP3    H137546   1.373   3.877  13.569  0.2672 -1.0403  0.2449
 5377TIP3    H237547   1.477   3.860  13.677  0.2847  0.2498  0.4488
 5378TIP3   OH237548   5.949   1.159  11.956  0.1397  0.4223 -0.4325
 5378TIP3    H137549   5.945   1.230  12.020 -0.0050  0.0614 -0.0381
 5378TIP3    H237550   5.936   1.203  11.872  1.1702  1.0214 -0.3018
 5379TIP3   OH237551   3.818   5.255   0.970 -0.3812 -0.4063 -0.3107
 5379TIP3    H137552   3.758   5.324   0.998 -0.5017 -0.0647 -1.3814
 5379TIP3    H237553   3.891   5.261   1.031 -1.0539 -0.3099  0.5203
 5380TIP3   OH237554   2.181   3.135   4.561 -0.2730  0.0354 -0.3140
 5380TIP3    H137555   2.271   3.162   4.579  0.0394  0.3874 -2.2170
 5380TIP3    H237556   2.187   3.041   4.540 -0.4805 -0.1311  0.3438
 5381TIP3   OH237557   1.644   5.952   0.672  0.5593 -0.0971  0.2589
 5381TIP3    H137558   1.730   5.992   0.658  0.0951  1.3809  1.3405
 5381TIP3    H237559   1.638   5.883   0.606  1.3498  1.7734 -1.8978
 5382TIP3   OH237560   4.120   1.233  16.629  0.2857 -0.2366 -0.2380
 5382TIP3    H137561   4.106   1.143  16.660  1.6465 -0.8919 -1.3942
 5382TIP3    H237562   4.153   1.280  16.706  1.1143 -1.1603  0.0008
 5383TIP3   OH237563   3.871   1.681   1.355  0.1106 -0.0114 -0.1145
 5383TIP3    H137564   3.859   1.655   1.446 -0.8038  0.0644 -0.2100
 5383TIP3    H237565   3.909   1.768   1.360  1.2960 -0.5230  0.1925
 5384TIP3   OH237566   0.006   6.696  11.976 -0.4627 -0.0431 -0.1730
 5384TIP3    H137567   0.083   6.710  11.921  0.1625 -0.6071  0.5245
 5384TIP3    H237568   0.009   6.603  11.997 -1.0165  0.0495  0.3268
 5385TIP3   OH237569   4.413   4.799   5.758 -0.5501  0.6420 -0.2247
 5385TIP3    H137570   4.471   4.733   5.720 -0.5814  0.4561  0.0451
 5385TIP3    H237571   4.433   4.798   5.852 -2.6638 -1.1928  0.3014
 5386TIP3   OH237572   5.309   1.570   1.976  0.2828  0.3444 -0.2576
 5386TIP3    H137573   5.305   1.569   2.072  0.5197 -0.6086 -0.2461
 5386TIP3    H237574   5.304   1.478   1.951 -0.0480  0.6071 -1.1792
 5387TIP3   OH237575   6.396   0.807  15.861  0.1781 -0.0568 -0.0614
 5387TIP3    H137576   6.392   0.715  15.886 -3.3414  0.0590  0.2151
 5387TIP3    H237577   6.439   0.851  15.935 -1.0689 -1.0637  1.3030
 5388TIP3   OH237578   5.691   5.191   5.772  0.3529 -0.6265 -0.2771
 5388TIP3    H137579   5.639   5.113   5.753 -2.3330  0.8573  0.5088
 5388TIP3    H237580   5.652   5.227   5.852  2.0441  1.0998 -0.1566
 5389TIP3   OH237581   6.708   0.651  11.596 -0.1372  0.2075 -0.1128
 5389TIP3    H137582   6.614   0.656  11.578 -0.8744  1.7922  3.2078
 5389TIP3    H237583   6.748   0.710  11.533 -1.5815  0.6356 -0.6702
 5390TIP3   OH237584   4.599   2.230   0.841 -0.2483  0.3206 -0.1797
 5390TIP3    H137585   4.523   2.283   0.866 -1.4614 -1.5043  0.1627
 5390TIP3    H237586   4.586   2.146   0.885  0.8173 -0.8352 -1.9394
 5391TIP3   OH237587   2.484   6.232  17.017  0.0281  0.5313 -0.0513
 5391TIP3    H137588   2.481   6.277  16.933 -1.4041 -0.8488 -0.8080
 5391TIP3    H237589   2.497   6.301  17.081 -1.1057  1.9105 -1.2303
 5392TIP3   OH237590   4.059   6.192  11.247 -0.0052  0.2796  0.0289
 5392TIP3    H137591   4.130   6.209  11.309 -0.0538  0.5957  0.0009
 5392TIP3    H237592   3.986   6.163  11.302 -0.2764  1.2508  0.2057
 5393TIP3   OH237593   5.082   1.375  16.733 -0.0436  0.2067 -0.2801
 5393TIP3    H137594   5.153   1.347  16.790 -0.7815  0.4724  0.7860
 5393TIP3    H237595   5.104   1.465  16.710  0.4221 -0.0071 -0.6962
 5394TIP3   OH237596   0.550   3.082   5.966  0.2003 -0.1327 -0.2692
 5394TIP3    H137597   0.581   3.043   5.884  1.2773 -0.2573  0.1804
 5394TIP3    H237598   0.582   3.172   5.963 -2.7162  0.9771 -1.5391
 5395TIP3   OH237599   2.021   4.834  13.679 -0.3205  0.2676  0.1262
 5395TIP3    H137600   2.039   4.829  13.585 -0.2942 -1.2210  0.1860
 5395TIP3    H237601   1.932   4.871  13.684 -0.2309  0.5743 -0.4694
 5396TIP3   OH237602   2.256   4.303   1.185  0.2552 -0.3890  0.2107
 5396TIP3    H137603   2.296   4.283   1.269 -0.4816 -0.4580  0.5524
 5396TIP3    H237604   2.249   4.399   1.183 -1.8572 -0.4646  1.2664
 5397TIP3   OH237605   0.874   1.353  14.182 -0.4599  0.9670 -0.3960
 5397TIP3    H137606   0.781   1.345  14.200 -0.2187  0.6993  0.8215
 5397TIP3    H237607   0.905   1.418  14.245  0.3120  0.4799 -0.2572
 5398TIP3   OH237608   3.657   6.127   1.618  0.0476 -0.1030 -0.7022
 5398TIP3    H137609   3.658   6.208   1.567  0.8467  1.3483  1.4817
 5398TIP3    H237610   3.565   6.100   1.618 -0.7879  2.3942  0.8067
 5399TIP3   OH237611   4.975   0.042  16.300  0.4631 -0.4304  0.2150
 5399TIP3    H137612   4.927   0.125  16.302  0.4902 -0.4320  1.1147
 5399TIP3    H237613   5.059   0.063  16.342  0.7237 -0.7608 -0.1345
 5400TIP3   OH237614   5.203   5.218   1.497  0.2666 -0.8271  0.2289
 5400TIP3    H137615   5.239   5.276   1.429  1.9842 -0.8398  1.0617
 5400TIP3    H237616   5.109   5.218   1.481 -0.1222  3.6627  1.2620
 5401TIP3   OH237617   2.401   0.641  11.826 -0.0580  0.2467  0.2527
 5401TIP3    H137618   2.380   0.651  11.733  0.2112 -0.6045  0.0841
 5401TIP3    H237619   2.470   0.575  11.828  1.2122  1.5589  0.9401
 5402TIP3   OH237620   2.715   6.095  11.668  0.2592 -0.7858 -0.4925
 5402TIP3    H137621   2.659   6.041  11.613  1.0661  0.3698 -2.5649
 5402TIP3    H237622   2.724   6.045  11.749 -1.6362 -2.1904 -1.0650
 5403TIP3   OH237623   1.843   4.762  14.715 -0.2707  0.0666 -0.1360
 5403TIP3    H137624   1.753   4.729  14.711 -0.0110 -0.5348 -2.1024
 5403TIP3    H237625   1.840   4.831  14.781 -2.3858  0.6683 -0.7802
 5404TIP3   OH237626   3.676   4.189  14.561 -0.3191  0.2172 -0.1604
 5404TIP3    H137627   3.738   4.165  14.630 -0.6593 -1.3057 -0.3603
 5404TIP3    H237628   3.605   4.235  14.607 -0.8834 -1.4000  0.6296
 5405TIP3   OH237629   1.796   3.059   5.470 -0.6587  0.2146  0.0998
 5405TIP3    H137630   1.768   3.150   5.480  1.2201  0.7247  1.0894
 5405TIP3    H237631   1.882   3.055   5.511  0.4864 -1.4143 -2.1849
 5406TIP3   OH237632   0.335   5.266  15.639 -0.4577 -0.4047 -0.6107
 5406TIP3    H137633   0.371   5.202  15.578 -0.6350 -1.5124  0.3938
 5406TIP3    H237634   0.241   5.244  15.644 -0.4301 -0.3946  0.1072
 5407TIP3   OH237635   4.282   5.735  15.114  0.3239 -0.0335 -0.3526
 5407TIP3    H137636   4.252   5.746  15.024 -0.2316 -0.0266 -0.1713
 5407TIP3    H237637   4.371   5.771  15.114  0.0430  0.6872 -0.7142
 5408TIP3   OH237638   3.909   0.968  16.413  0.1261  0.5544  0.2357
 5408TIP3    H137639   3.955   1.032  16.359 -1.6084  1.6880  0.0245
 5408TIP3    H237640   3.817   0.981  16.393 -0.2903 -2.6175 -0.4289
 5409TIP3   OH237641   5.047   5.036  13.348 -1.1832  0.0770 -0.2681
 5409TIP3    H137642   5.099   4.980  13.291 -1.6353  0.6324 -1.2555
 5409TIP3    H237643   5.039   5.119  13.300 -1.3970  0.6397  0.6998
 5410TIP3   OH237644   4.691   3.582  10.565  0.2113  0.6077  0.4055
 5410TIP3    H137645   4.732   3.640  10.500 -0.4635  0.3468 -0.2556
 5410TIP3    H237646   4.653   3.642  10.630  0.2671  0.8806  0.1861
 5411TIP3   OH237647   1.444   6.224   5.174 -0.3116  0.4174 -0.0139
 5411TIP3    H137648   1.392   6.149   5.203 -0.2104 -0.0848 -1.0727
 5411TIP3    H237649   1.501   6.244   5.248 -1.4144  0.4340  0.8570
 5412TIP3   OH237650   3.739   2.807   2.089 -0.5083 -0.0495  0.2464
 5412TIP3    H137651   3.735   2.712   2.077 -2.0360 -0.4347  2.9328
 5412TIP3    H237652   3.726   2.843   2.001 -1.0657 -2.3249 -0.6662
 5413TIP3   OH237653   5.269   3.436  16.693 -0.2378 -0.0210 -0.2961
 5413TIP3    H137654   5.320   3.400  16.766 -0.3584 -1.8898 -1.0897
 5413TIP3    H237655   5.182   3.398  16.704 -0.2450 -0.3573 -1.4154
 5414TIP3   OH237656   5.376   2.019   0.375  0.2454 -0.0212  0.5964
 5414TIP3    H137657   5.441   1.995   0.309 -0.7998  0.2701 -0.5759
 5414TIP3    H237658   5.331   2.095   0.338  0.7951  1.2607  2.4413
 5415TIP3   OH237659   0.508   5.164   2.981 -0.2676  0.2883 -0.3147
 5415TIP3    H137660   0.591   5.200   2.950 -0.2511 -1.4223 -2.5263
 5415TIP3    H237661   0.441   5.206   2.927 -0.6696  0.3781  0.2481
 5416TIP3   OH237662   6.508   2.863  10.124  0.1387  0.0755  0.0564
 5416TIP3    H137663   6.568   2.808  10.074 -1.7040 -2.6583  0.5851
 5416TIP3    H237664   6.508   2.824  10.212 -0.2899  1.7755  0.8404
 5417TIP3   OH237665   5.920   3.769   2.434 -0.1085  0.1824  0.2739
 5417TIP3    H137666   5.826   3.750   2.440 -0.1335  0.6279  1.5411
 5417TIP3    H237667   5.932   3.849   2.485  1.0170 -0.0724  0.4407
 5418TIP3   OH237668   1.136   0.716   1.180 -0.2913 -0.2055 -0.3778
 5418TIP3    H137669   1.165   0.773   1.109  1.5668 -0.0523  0.4446
 5418TIP3    H237670   1.217   0.675   1.213 -1.4061 -2.2847 -0.0526
 5419TIP3   OH237671   2.051   5.982   0.536  0.3119 -0.3892 -0.5111
 5419TIP3    H137672   2.075   5.976   0.444 -1.0722 -1.3612 -0.8383
 5419TIP3    H237673   2.036   5.891   0.563 -2.3784  0.0545 -0.2297
 5420TIP3   OH237674   5.585   5.816   0.943  0.4497 -0.0229 -0.6824
 5420TIP3    H137675   5.555   5.789   0.856  0.2816  0.5801 -0.8188
 5420TIP3    H237676   5.533   5.764   1.004 -0.7602  0.8639 -0.9195
 5421TIP3   OH237677   4.864   0.353  13.651  0.5218 -0.3664  0.1791
 5421TIP3    H137678   4.773   0.331  13.672  0.5260  1.1874  2.1022
 5421TIP3    H237679   4.868   0.349  13.555 -1.0558 -2.2887  0.1259
 5422TIP3   OH237680   5.414   6.332  11.451  0.1317 -0.0921 -0.2264
 5422TIP3    H137681   5.464   6.253  11.430  1.6693 -0.7403  4.5578
 5422TIP3    H237682   5.481   6.396  11.474 -1.1874  1.3771 -0.3194
 5423TIP3   OH237683   1.872   1.608   5.962  0.0303 -0.1324 -0.3559
 5423TIP3    H137684   1.912   1.523   5.982  0.5847  0.2266  0.1022
 5423TIP3    H237685   1.945   1.670   5.966 -0.2335  0.2634 -1.4347
 5424TIP3   OH237686   6.808   3.760   5.299 -0.0599 -0.6351 -0.4479
 5424TIP3    H137687   6.806   3.740   5.392 -2.6573 -0.1487 -0.3017
 5424TIP3    H237688   6.751   3.693   5.259 -1.9747  1.2522 -1.0943
 5425TIP3   OH237689   3.012   2.818  12.265  0.1020  1.0523  0.2707
 5425TIP3    H137690   2.922   2.828  12.234 -0.7080  0.5830  2.3275
 5425TIP3    H237691   3.058   2.894  12.229 -0.6579  0.4341 -2.2178
 5426TIP3   OH237692   0.697   4.664   5.960  0.0567  0.3191 -0.4065
 5426TIP3    H137693   0.674   4.676   6.052  0.3201  1.6318 -0.4972
 5426TIP3    H237694   0.762   4.594   5.961 -1.0628 -0.7629  0.2301
 5427TIP3   OH237695   6.548   3.671  14.368 -0.2121 -0.1160 -0.0160
 5427TIP3    H137696   6.544   3.757  14.410  0.6237 -0.7098  1.3701
 5427TIP3    H237697   6.469   3.667  14.314 -1.3835  0.6898  1.5557
 5428TIP3   OH237698   3.651   0.315   0.411 -0.0280 -0.0101 -0.4335
 5428TIP3    H137699   3.668   0.275   0.497  2.8818 -0.6643 -1.2097
 5428TIP3    H237700   3.618   0.243   0.357 -0.7916  0.1533 -0.2083
 5429TIP3   OH237701   3.914   2.901   2.580  0.0934 -0.3567 -0.4365
 5429TIP3    H137702   3.822   2.901   2.555  0.3893  0.5351 -1.6111
 5429TIP3    H237703   3.913   2.892   2.676 -1.1856 -0.7395 -0.4727
 5430TIP3   OH237704   1.026   0.198  10.639  0.4112  0.4118  0.0020
 5430TIP3    H137705   0.951   0.150  10.675 -0.7252  1.1831 -1.2353
 5430TIP3    H237706   1.091   0.197  10.709 -0.4659 -0.9086  0.8523
 5431TIP3   OH237707   0.842   1.110  15.810 -0.1643  0.2928  0.6328
 5431TIP3    H137708   0.818   1.034  15.757  0.5432 -0.1038  0.8704
 5431TIP3    H237709   0.854   1.180  15.747  0.2488 -0.0670  0.3065
 5432TIP3   OH237710   3.028   0.126  14.497 -0.2660  0.3261  0.1701
 5432TIP3    H137711   3.051   0.043  14.455 -0.9561  0.3360 -0.2502
 5432TIP3    H237712   3.055   0.116  14.588  0.1481 -0.1585 -0.0030
 5433TIP3   OH237713   1.792   6.323   5.132  0.0164 -0.2059 -0.2961
 5433TIP3    H137714   1.808   6.384   5.061  3.1011 -0.7742 -0.1897
 5433TIP3    H237715   1.774   6.239   5.089  1.2567 -0.4102 -0.4334
 5434TIP3   OH237716   6.775   5.569   1.794  0.2609  0.0213  0.1407
 5434TIP3    H137717   6.683   5.543   1.800 -0.0879  1.3718  1.0195
 5434TIP3    H237718   6.783   5.607   1.707 -0.1936  0.4689  0.2830
 5435TIP3   OH237719   4.407   1.008  16.152  0.1673 -0.0198  0.0259
 5435TIP3    H137720   4.331   0.951  16.140 -0.2548  0.5179  0.1090
 5435TIP3    H237721   4.376   1.095  16.127 -0.0584  0.7385  2.6906
 5436TIP3   OH237722   6.774   5.959  16.834 -0.4870  0.0010 -0.7065
 5436TIP3    H137723   6.821   5.896  16.890  0.6896  0.7571 -0.8185
 5436TIP3    H237724   6.779   5.922  16.746  0.1222  0.2094 -0.7578
 5437TIP3   OH237725   0.847   2.002  11.532  0.0504  0.6412  0.5716
 5437TIP3    H137726   0.867   1.910  11.547 -1.0649  0.0801 -1.0627
 5437TIP3    H237727   0.835   2.039  11.620 -0.8595 -1.1131  1.2436
 5438TIP3   OH237728   1.705   3.547   3.332 -0.0466 -0.8028 -0.4087
 5438TIP3    H137729   1.647   3.598   3.389 -0.6458 -1.1114 -0.7392
 5438TIP3    H237730   1.655   3.533   3.252  1.3662  1.0718 -1.7422
 5439TIP3   OH237731   6.585   3.549   4.000 -0.2603  0.3310 -0.3532
 5439TIP3    H137732   6.652   3.512   4.057 -0.6948 -1.4133 -0.9002
 5439TIP3    H237733   6.573   3.638   4.031 -0.3718 -0.4946  2.1934
 5440TIP3   OH237734   5.336   2.510   3.530 -0.1344  0.3280  0.1925
 5440TIP3    H137735   5.358   2.421   3.555  2.1832  0.5156 -0.9256
 5440TIP3    H237736   5.332   2.508   3.434 -2.6672  0.9264  0.2058
 5441TIP3   OH237737   2.767   5.843  17.011  0.5785  0.1364  0.2184
 5441TIP3    H137738   2.779   5.936  16.991 -0.1573  0.2359  0.1965
 5441TIP3    H237739   2.700   5.814  16.949  0.9143 -0.4471  0.1236
 5442TIP3   OH237740   6.638   4.856  13.937  0.4404 -0.9322 -0.0198
 5442TIP3    H137741   6.584   4.927  13.970 -0.5129 -1.3477 -0.6403
 5442TIP3    H237742   6.577   4.798  13.892  1.5602 -0.6946 -1.9742
 5443TIP3   OH237743   0.656   3.392   3.492 -0.4764  0.2402 -0.3089
 5443TIP3    H137744   0.594   3.332   3.452  0.8275 -0.8729 -0.7106
 5443TIP3    H237745   0.645   3.474   3.443  0.3806 -0.7960 -2.3401
 5444TIP3   OH237746   5.581   3.086  10.197  0.3907  0.0024 -0.1866
 5444TIP3    H137747   5.495   3.075  10.156 -1.6586  0.9847  3.4744
 5444TIP3    H237748   5.615   3.166  10.158 -1.7695  1.2912  0.4058
 5445TIP3   OH237749   3.571   4.090  10.474 -0.0126 -0.5920 -0.3717
 5445TIP3    H137750   3.507   4.042  10.423 -1.1552 -0.4282  0.8383
 5445TIP3    H237751   3.636   4.119  10.411 -0.7903 -1.3196 -1.5378
 5446TIP3   OH237752   3.855   0.207  12.329  1.0362  0.1664  0.4153
 5446TIP3    H137753   3.893   0.236  12.246 -0.2407 -1.2356 -0.7044
 5446TIP3    H237754   3.774   0.258  12.337  0.4613 -0.6757  0.0889
 5447TIP3   OH237755   4.576   4.249  15.570  0.0159 -0.5621  0.0965
 5447TIP3    H137756   4.534   4.282  15.490  0.0912  0.6427  0.5409
 5447TIP3    H237757   4.535   4.164  15.585  0.8958 -1.4092 -1.9257
 5448TIP3   OH237758   2.680   3.456  11.826  0.0539 -0.0977 -0.2764
 5448TIP3    H137759   2.645   3.399  11.758 -0.5294  1.0860 -1.0087
 5448TIP3    H237760   2.762   3.416  11.853 -0.7180 -1.6899 -0.1967
 5449TIP3   OH237761   0.894   2.036  12.383 -0.0908 -0.7305  0.3611
 5449TIP3    H137762   0.801   2.041  12.362  0.0174 -0.2049 -0.0125
 5449TIP3    H237763   0.900   1.966  12.449 -0.7799 -0.5946  0.5778
 5450TIP3   OH237764   0.358   0.092  10.496  0.2237  0.1695 -0.0723
 5450TIP3    H137765   0.357   0.001  10.527  1.1812  0.0112 -0.4708
 5450TIP3    H237766   0.447   0.106  10.465 -0.5521  0.4167 -2.4313
 5451TIP3   OH237767   4.513   6.041   3.481  0.6785 -0.3537 -0.3680
 5451TIP3    H137768   4.501   5.991   3.400  1.0851  1.1853 -1.4333
 5451TIP3    H237769   4.596   6.009   3.517  0.9604 -0.4068 -1.0580
 5452TIP3   OH237770   2.853   1.760   2.870  0.1254 -0.4698 -0.1015
 5452TIP3    H137771   2.933   1.780   2.821  0.7511 -0.5463  0.8582
 5452TIP3    H237772   2.823   1.844   2.903  0.5291 -0.5823  0.5880
 5453TIP3   OH237773   6.712   3.886   0.316  0.6656 -0.4346  0.1487
 5453TIP3    H137774   6.629   3.899   0.362  0.5659  0.8387 -0.3626
 5453TIP3    H237775   6.700   3.802   0.271  0.2019 -0.9582  1.2096
 5454TIP3   OH237776   1.944   2.319  15.122 -0.5904  0.2909 -0.5064
 5454TIP3    H137777   1.902   2.234  15.109 -0.9784  0.7950 -3.4315
 5454TIP3    H237778   2.021   2.316  15.066  0.3347  1.2999  0.6575
 5455TIP3   OH237779   3.455   0.750   0.899 -0.5395  0.2466 -0.2763
 5455TIP3    H137780   3.464   0.838   0.864  0.7302  0.4264  0.4225
 5455TIP3    H237781   3.511   0.749   0.977 -0.4628 -1.1888 -0.3115
 5456TIP3   OH237782   5.916   3.224  13.217  0.1718  0.6587  0.2513
 5456TIP3    H137783   5.934   3.197  13.127  0.3651 -1.4872  0.8711
 5456TIP3    H237784   5.821   3.222  13.224  0.1113  1.5845 -0.0797
 5457TIP3   OH237785   0.243   4.664  15.701  0.5433  0.0127  0.2872
 5457TIP3    H137786   0.244   4.637  15.609  1.0520  0.4512  0.1565
 5457TIP3    H237787   0.157   4.706  15.712  1.2642  1.8576 -0.5794
 5458TIP3   OH237788   1.447   4.373  16.093 -0.0939  0.1232  0.2392
 5458TIP3    H137789   1.417   4.293  16.050  0.9510  0.0627 -0.4036
 5458TIP3    H237790   1.479   4.344  16.179 -0.1794 -0.0680  0.2070
 5459TIP3   OH237791   3.302   6.472   3.225 -0.4163  0.4924 -0.1707
 5459TIP3    H137792   3.303   6.378   3.239  0.1320  0.7087  1.4420
 5459TIP3    H237793   3.245   6.484   3.149  0.1572 -1.1784 -0.9106
 5460TIP3   OH237794   2.679   2.381  16.829  0.5374 -0.3460  0.4451
 5460TIP3    H137795   2.686   2.392  16.924 -0.0614  0.6530  0.3813
 5460TIP3    H237796   2.585   2.387  16.811  0.6142 -0.8761 -0.1792
 5461TIP3   OH237797   0.994   5.944   6.468  0.1979  0.5159 -0.2574
 5461TIP3    H137798   1.011   6.038   6.466  2.7100  0.1826  1.2779
 5461TIP3    H237799   0.940   5.931   6.547  1.6823  0.4961  0.8021
 5462TIP3   OH237800   1.612   4.773  12.241 -0.4852 -0.2910 -0.5022
 5462TIP3    H137801   1.543   4.833  12.269  0.3226  0.2816  0.3307
 5462TIP3    H237802   1.566   4.703  12.195 -1.7102 -0.4445  0.8964
 5463TIP3   OH237803   5.743   1.354   2.441  0.2301 -0.3396 -0.1672
 5463TIP3    H137804   5.745   1.425   2.505  1.4709 -0.3882 -0.1139
 5463TIP3    H237805   5.696   1.389   2.366  1.7316  0.9285 -0.5566
 5464TIP3   OH237806   3.665   1.076   3.834  0.0963  0.0278 -0.0461
 5464TIP3    H137807   3.714   0.993   3.834 -0.0786 -0.0798  0.9538
 5464TIP3    H237808   3.732   1.144   3.841  0.3030  0.0305 -1.6761
 5465TIP3   OH237809   3.760   5.218  12.057 -0.1645 -0.3301  0.5862
 5465TIP3    H137810   3.733   5.194  11.969  0.5132 -0.0934  0.3138
 5465TIP3    H237811   3.824   5.152  12.082 -2.1481 -1.8899  1.8825
 5466TIP3   OH237812   5.648   6.177  12.432  0.6161 -0.0769 -0.2701
 5466TIP3    H137813   5.625   6.211  12.345  1.6960 -1.4061 -1.1173
 5466TIP3    H237814   5.633   6.083  12.425  0.8037 -0.2104  0.9769
 5467TIP3   OH237815   2.131   4.289   5.575 -0.0710  0.7106 -0.1853
 5467TIP3    H137816   2.204   4.260   5.630  0.3831 -3.0630 -2.4270
 5467TIP3    H237817   2.173   4.338   5.503 -0.2595  2.0262  0.5575
 5468TIP3   OH237818   6.470   0.511   1.947 -0.3532 -0.0920 -0.0126
 5468TIP3    H137819   6.553   0.476   1.914 -0.6786 -1.1860  0.3078
 5468TIP3    H237820   6.432   0.440   1.998 -1.2263  0.5982  0.3222
 5469TIP3   OH237821   3.472   6.062   3.348 -0.3274  0.2413 -0.0354
 5469TIP3    H137822   3.524   6.010   3.410 -0.3336 -0.4281 -0.5877
 5469TIP3    H237823   3.500   6.152   3.364  0.1975  0.0033  0.4416
 5470TIP3   OH237824   6.404   3.371   3.612 -0.2477 -0.3273 -0.0956
 5470TIP3    H137825   6.477   3.325   3.654 -0.0707 -1.1751 -1.2783
 5470TIP3    H237826   6.389   3.323   3.530 -1.4487  0.4670 -0.3738
 5471TIP3   OH237827   1.829   2.263   0.989  0.0606 -0.2130 -0.1070
 5471TIP3    H137828   1.849   2.174   1.017  0.2323 -0.2214 -0.2496
 5471TIP3    H237829   1.906   2.290   0.939 -0.6263 -0.5485 -1.3840
 5472TIP3   OH237830   1.182   1.273  13.305  0.1981 -0.2873 -0.3901
 5472TIP3    H137831   1.255   1.220  13.337 -0.4747  0.1701  2.1874
 5472TIP3    H237832   1.103   1.224  13.331 -0.4105  0.9528  0.2129
 5473TIP3   OH237833   3.153   2.969   5.677 -0.2557  1.2632 -0.0191
 5473TIP3    H137834   3.175   2.993   5.587 -0.9092  2.2599  0.0738
 5473TIP3    H237835   3.229   2.918   5.707 -0.1594  0.6580 -1.2162
 5474TIP3   OH237836   2.821   2.671   1.815  0.0941 -0.3959 -0.8062
 5474TIP3    H137837   2.788   2.646   1.729  1.0333  0.4611 -1.4266
 5474TIP3    H237838   2.818   2.766   1.816  0.8225 -0.3663 -0.1923
 5475TIP3   OH237839   6.012   3.802  15.059  0.7621 -0.0154 -0.5371
 5475TIP3    H137840   5.972   3.721  15.027 -0.6011  1.1159 -1.8036
 5475TIP3    H237841   5.939   3.861  15.076  1.7178  0.9279  0.5306
 5476TIP3   OH237842   4.672   6.805  11.045  0.1352  0.0543  0.4343
 5476TIP3    H137843   4.720   6.880  11.080 -1.4099  1.6187 -0.6511
 5476TIP3    H237844   4.725   6.775  10.971  0.1286  0.9176  0.0688
 5477TIP3   OH237845   1.659   6.140  15.353 -0.6312  0.0064 -0.3306
 5477TIP3    H137846   1.614   6.179  15.278 -0.3915  1.5133  0.2826
 5477TIP3    H237847   1.607   6.167  15.429 -2.0813 -3.1781  0.0049
 5478TIP3   OH237848   1.206   0.237   3.312 -0.2885  0.3562 -0.6898
 5478TIP3    H137849   1.283   0.270   3.359 -0.8670 -2.4086  2.6556
 5478TIP3    H237850   1.134   0.291   3.344  0.0023  2.5268 -3.3437
 5479TIP3   OH237851   1.141   0.264   6.617  0.3716  0.1824 -0.1481
 5479TIP3    H137852   1.205   0.194   6.629  0.6302  0.5618  0.7396
 5479TIP3    H237853   1.069   0.223   6.570 -0.4112 -1.2418  2.1380
 5480TIP3   OH237854   3.771   4.138   2.249  0.3105 -0.0264  0.2759
 5480TIP3    H137855   3.760   4.231   2.228  1.2150 -0.2361 -1.2387
 5480TIP3    H237856   3.724   4.127   2.332 -2.2631  1.1705 -0.8799
 5481TIP3   OH237857   1.832   5.849   3.864 -0.6507 -0.3718  0.4237
 5481TIP3    H137858   1.828   5.843   3.769  0.1882  0.4385  0.3299
 5481TIP3    H237859   1.900   5.913   3.882 -0.3198 -1.0097  1.5868
 5482TIP3   OH237860   0.489   3.906  12.980 -0.0949 -0.1673  0.0153
 5482TIP3    H137861   0.438   3.863  12.911 -1.7475 -0.9539  1.6360
 5482TIP3    H237862   0.453   3.994  12.986  0.1102 -0.0704 -0.2048
 5483TIP3   OH237863   1.485   4.359   4.199  0.0426 -0.1391  0.2810
 5483TIP3    H137864   1.472   4.369   4.293  1.4556  2.2794  0.3006
 5483TIP3    H237865   1.549   4.288   4.191 -0.1861 -0.4537  1.1300
 5484TIP3   OH237866   5.510   0.055  11.419 -0.0323  0.0261 -0.1369
 5484TIP3    H137867   5.464   0.126  11.374 -1.3581 -0.5714  0.2280
 5484TIP3    H237868   5.457  -0.022  11.401  0.6524 -0.6238  0.5961
 5485TIP3   OH237869   4.455   1.550   3.117  0.2338 -0.7646  0.2028
 5485TIP3    H137870   4.500   1.632   3.094  0.2169 -0.4814  1.1637
 5485TIP3    H237871   4.485   1.530   3.205 -1.1361 -0.8401  0.6744
 5486TIP3   OH237872   3.974   1.491   3.479  0.2184  0.4768  0.2669
 5486TIP3    H137873   3.977   1.575   3.524 -0.0977  1.4130 -1.3720
 5486TIP3    H237874   4.066   1.467   3.468  0.3279 -0.7433  3.0069
 5487TIP3   OH237875   1.760   2.491  12.706 -0.2224 -0.0753 -0.3329
 5487TIP3    H137876   1.721   2.510  12.791 -1.6823 -0.8452 -0.7956
 5487TIP3    H237877   1.788   2.577  12.673 -4.1111  1.0950 -1.1571
 5488TIP3   OH237878   4.887   6.133   4.051  0.4771 -0.5133  0.3097
 5488TIP3    H137879   4.966   6.080   4.060  0.9566  0.0777 -0.3636
 5488TIP3    H237880   4.881   6.182   4.133 -0.0073 -1.6429  0.9649
 5489TIP3   OH237881   1.311   1.682   5.546  0.1378  1.0807  0.0264
 5489TIP3    H137882   1.370   1.744   5.503  2.4917  0.6487  2.4144
 5489TIP3    H237883   1.354   1.662   5.629 -1.2194 -2.6328 -0.0063
 5490TIP3   OH237884   2.507   0.261   5.772  0.7904 -0.3689  0.0307
 5490TIP3    H137885   2.579   0.241   5.712  0.8929 -4.7823  1.2140
 5490TIP3    H237886   2.430   0.221   5.731  0.1087 -0.2003  1.1080
 5491TIP3   OH237887   2.234   1.016  11.458 -0.2085  0.4504  0.1000
 5491TIP3    H137888   2.247   1.080  11.388  0.2798  0.0424 -0.1935
 5491TIP3    H237889   2.323   0.992  11.485 -0.3821  0.8824  1.1250
 5492TIP3   OH237890   2.426   3.543  12.130 -0.1669  0.9675  0.3779
 5492TIP3    H137891   2.419   3.637  12.112  0.4327  0.6733 -1.6921
 5492TIP3    H237892   2.501   3.534  12.188  1.1093  1.6249 -1.1112
 5493TIP3   OH237893   6.589   4.885   6.343  0.5568 -0.1444 -0.2838
 5493TIP3    H137894   6.527   4.843   6.282  1.7912 -0.8243 -1.1118
 5493TIP3    H237895   6.607   4.819   6.409  2.3659 -0.9186 -1.4895
 5494TIP3   OH237896   0.576   3.206  16.468  0.3327  0.0309 -0.7786
 5494TIP3    H137897   0.528   3.289  16.457 -0.1871 -0.1989 -0.3259
 5494TIP3    H237898   0.651   3.214  16.409  0.3749  0.8890 -0.6288
 5495TIP3   OH237899   6.598   6.791   4.811  0.0326  1.1363  0.2533
 5495TIP3    H137900   6.690   6.813   4.822  0.1636  0.4478  0.6180
 5495TIP3    H237901   6.595   6.695   4.821 -0.5423  1.0069 -0.9418
 5496TIP3   OH237902   2.360   6.440  15.769  0.0402 -0.0976 -0.0290
 5496TIP3    H137903   2.440   6.482  15.800  1.3337 -1.5089 -1.2890
 5496TIP3    H237904   2.362   6.353  15.810 -0.3254 -0.5009 -0.8519
 5497TIP3   OH237905   1.904   3.427  12.319 -0.0929 -0.1165 -0.3650
 5497TIP3    H137906   1.895   3.344  12.273  1.1358  0.8507 -2.4819
 5497TIP3    H237907   1.966   3.478  12.267 -0.3773  1.9449  1.1476
 5498TIP3   OH237908   6.489   6.500  11.716  0.7652  0.0191  0.0616
 5498TIP3    H137909   6.515   6.477  11.627 -2.4076  0.3234 -1.0657
 5498TIP3    H237910   6.454   6.589  11.709  0.7889  0.1911  1.6980
 5499TIP3   OH237911   4.426   1.462   3.690 -0.1031  1.1648 -0.0819
 5499TIP3    H137912   4.343   1.486   3.732 -0.6934 -0.6079 -0.1445
 5499TIP3    H237913   4.483   1.438   3.763 -0.3221  0.4424 -0.1423
 5500TIP3   OH237914   0.741   5.932   5.490 -0.0448 -0.3603  0.1762
 5500TIP3    H137915   0.682   5.873   5.537  1.2802 -1.9932 -0.1127
 5500TIP3    H237916   0.769   5.996   5.557 -0.1297 -1.1417  0.9826
 5501TIP3   OH237917   6.563   1.853  16.748  0.2654 -0.1157  0.1747
 5501TIP3    H137918   6.547   1.940  16.710  0.1746 -0.2618 -0.1269
 5501TIP3    H237919   6.482   1.832  16.793  0.3884  0.0770  0.4913
 5502TIP3   OH237920   3.245   0.345   1.827 -0.2772 -0.2763  0.3678
 5502TIP3    H137921   3.313   0.391   1.778  0.1488 -0.2604  0.9691
 5502TIP3    H237922   3.185   0.415   1.855  0.9455  0.0999  2.2161
 5503TIP3   OH237923   4.136   4.818  12.998 -0.0977 -0.5134 -0.5652
 5503TIP3    H137924   4.075   4.891  13.007 -0.1564 -0.6797  0.5378
 5503TIP3    H237925   4.221   4.859  12.983  0.0403 -0.1568  1.0222
 5504TIP3   OH237926   6.275   6.492   1.680 -0.1414  1.2565  0.4344
 5504TIP3    H137927   6.204   6.451   1.729  0.8701 -2.3934 -0.8409
 5504TIP3    H237928   6.235   6.514   1.595  0.0034 -0.1945 -0.0457
 5505TIP3   OH237929   3.999   6.238  13.749  0.3125  0.6323 -0.4521
 5505TIP3    H137930   3.914   6.238  13.793  0.8538  0.4973  0.6250
 5505TIP3    H237931   4.033   6.326  13.761  0.8656  0.3327  0.2032
 5506TIP3   OH237932   1.073   4.129   5.469 -0.7618  0.1051  0.0789
 5506TIP3    H137933   1.014   4.173   5.408 -2.0129 -0.5540  0.7858
 5506TIP3    H237934   1.160   4.142   5.431 -0.9551  3.7484  0.5719
 5507TIP3   OH237935   1.892   2.593   3.647  0.1264  0.2378  0.1529
 5507TIP3    H137936   1.807   2.600   3.690 -1.0683 -1.2663 -1.7910
 5507TIP3    H237937   1.904   2.678   3.604 -0.8464  0.1495 -0.3159
 5508TIP3   OH237938   0.268   4.791  12.276  0.0187  0.0053 -0.0364
 5508TIP3    H137939   0.260   4.851  12.202  0.0301  0.8819  0.6442
 5508TIP3    H237940   0.200   4.820  12.338  0.7935  0.0685  0.8077
 5509TIP3   OH237941   2.917   1.357  15.524 -0.3601 -0.1302 -0.1319
 5509TIP3    H137942   2.851   1.422  15.500 -0.1026  0.2811  0.2433
 5509TIP3    H237943   2.929   1.369  15.618  1.3196  0.8379 -0.4237
 5510TIP3   OH237944   1.204   2.134  15.018  0.5219  0.5808 -0.3062
 5510TIP3    H137945   1.248   2.067  14.965  1.3814  1.2386 -0.4520
 5510TIP3    H237946   1.240   2.123  15.105  0.0104  0.2917 -0.1272
 5511TIP3   OH237947   0.386   3.928  15.783  0.1413 -0.3514  0.2185
 5511TIP3    H137948   0.385   3.834  15.801  0.4531 -0.1481  1.3358
 5511TIP3    H237949   0.416   3.968  15.864  0.1499  0.7115 -0.2937
 5512TIP3   OH237950   6.033   2.224   0.418  0.1024 -0.1627  0.5972
 5512TIP3    H137951   6.116   2.184   0.441  0.2174 -0.6876 -0.6583
 5512TIP3    H237952   6.021   2.203   0.326 -0.6936  1.1995  0.3671
 5513TIP3   OH237953   0.294   0.800  11.620 -0.2092 -0.1085  0.1579
 5513TIP3    H137954   0.324   0.717  11.657 -1.2282 -1.3532 -1.6142
 5513TIP3    H237955   0.340   0.806  11.536  0.8548  1.8369  0.7992
 5514TIP3   OH237956   4.011   2.381   5.735 -0.4202 -0.1991 -0.2908
 5514TIP3    H137957   3.919   2.370   5.713 -0.5248  0.2901 -0.0989
 5514TIP3    H237958   4.014   2.457   5.793  0.0192 -0.6595  0.3020
 5515TIP3   OH237959   3.074   6.274  15.150 -0.5249 -0.0336  0.8284
 5515TIP3    H137960   3.122   6.211  15.097 -0.3490  1.4426 -0.8541
 5515TIP3    H237961   2.983   6.268  15.120 -0.4174  0.8404  0.2878
 5516TIP3   OH237962   3.847   2.810  16.410 -0.2415  0.2997  0.3609
 5516TIP3    H137963   3.785   2.749  16.452  0.4350 -0.1698  0.6900
 5516TIP3    H237964   3.806   2.896  16.421 -0.6453  0.0457  0.9343
 5517TIP3   OH237965   0.244   3.741   2.770 -0.2989  0.7702 -0.5677
 5517TIP3    H137966   0.171   3.770   2.824  1.1763  1.9465  0.9336
 5517TIP3    H237967   0.260   3.651   2.799  0.4841  1.3936  1.0663
 5518TIP3   OH237968   3.541   6.489   5.836  0.6848  0.3637 -0.3549
 5518TIP3    H137969   3.547   6.394   5.824  0.5686  0.5651 -2.4969
 5518TIP3    H237970   3.450   6.510   5.815  0.5979  0.9233  0.5311
 5519TIP3   OH237971   4.917   4.172  14.657  0.6180 -0.2118 -0.2655
 5519TIP3    H137972   4.891   4.242  14.716 -1.0657  0.0644 -1.2881
 5519TIP3    H237973   5.013   4.175  14.658  0.6036  0.8001  1.2173
 5520TIP3   OH237974   3.920   3.367  10.522  0.4596  0.3470 -0.1926
 5520TIP3    H137975   3.831   3.391  10.498  0.6019  1.2214  0.1173
 5520TIP3    H237976   3.974   3.439  10.491  1.2386 -0.7565 -1.5030
 5521TIP3   OH237977   4.441   1.646   5.069  0.5908 -0.1549 -0.0279
 5521TIP3    H137978   4.516   1.701   5.091  0.7025 -0.3516  0.0818
 5521TIP3    H237979   4.463   1.560   5.105  0.7185 -0.4509 -0.7961
 5522TIP3   OH237980   1.585   3.919   1.771  0.0684 -0.0870 -0.1687
 5522TIP3    H137981   1.547   4.006   1.763 -0.3077 -0.2394 -0.0707
 5522TIP3    H237982   1.538   3.866   1.707 -0.7708 -0.5718  0.8291
 5523TIP3   OH237983   3.950   0.888  14.884 -0.1581 -0.1579  0.2557
 5523TIP3    H137984   3.940   0.944  14.807  0.4019 -1.1768 -0.5811
 5523TIP3    H237985   4.026   0.923  14.930 -1.3010  1.2953  1.1076
 5524TIP3   OH237986   0.789   2.563   2.006  0.2270  0.1155 -0.4075
 5524TIP3    H137987   0.822   2.608   1.928  0.9028  0.7308  0.2251
 5524TIP3    H237988   0.762   2.633   2.065 -0.6810 -0.3552 -0.2391
 5525TIP3   OH237989   5.814   1.799   4.629  0.6211 -0.1136  0.4656
 5525TIP3    H137990   5.739   1.834   4.678 -0.5017 -1.4226 -0.2549
 5525TIP3    H237991   5.866   1.752   4.694 -0.7183 -1.6137  0.5006
 5526TIP3   OH237992   5.160   1.491  13.162 -0.1643  0.1818  0.6866
 5526TIP3    H137993   5.092   1.558  13.167 -1.2758 -0.9588  1.5110
 5526TIP3    H237994   5.176   1.467  13.253 -1.3564 -2.1678  0.3536
 5527TIP3   OH237995   2.500   1.776  16.343  0.8057 -0.2231 -0.0618
 5527TIP3    H137996   2.420   1.761  16.293  1.5295  3.3642 -2.6469
 5527TIP3    H237997   2.568   1.787  16.277  2.9046 -0.3284  1.9573
 5528TIP3   OH237998   5.033   5.696   2.150  0.2039 -0.1334  0.2728
 5528TIP3    H137999   5.056   5.638   2.222 -1.0609  1.6615  2.2617
 5528TIP3    H238000   4.947   5.666   2.120 -0.2855  0.4295  1.0603
 5529TIP3   OH238001   2.822   5.351   6.308 -0.0074 -0.1532  0.2095
 5529TIP3    H138002   2.883   5.424   6.302 -0.4830  0.1696 -1.5162
 5529TIP3    H238003   2.788   5.355   6.397  0.3260  1.4460  0.3048
 5530TIP3   OH238004   2.255   4.564   2.823  0.0166  0.0854 -0.3984
 5530TIP3    H138005   2.328   4.508   2.849  0.2549  0.8098  0.5151
 5530TIP3    H238006   2.278   4.595   2.735  0.8013  0.3034 -0.1188
 5531TIP3   OH238007   1.135   3.232  15.757 -0.4337 -0.2017  0.6929
 5531TIP3    H138008   1.056   3.238  15.703 -0.4440 -3.4408  0.1603
 5531TIP3    H238009   1.198   3.186  15.702  1.4036  1.0912  1.6224
 5532TIP3   OH238010   2.890   5.128   0.450 -0.1692 -0.0753  0.0148
 5532TIP3    H138011   2.983   5.106   0.457 -0.0293  0.5825  0.2632
 5532TIP3    H238012   2.884   5.219   0.479 -0.9720 -0.2779  0.5265
 5533TIP3   OH238013   4.806   1.043   0.032  0.0669  0.1318 -0.2057
 5533TIP3    H138014   4.897   1.040   0.061 -0.4186  0.2819  1.4580
 5533TIP3    H238015   4.759   0.987   0.094 -0.9549 -0.0647 -1.1249
 5534TIP3   OH238016   5.745   1.273   4.336 -0.0595  0.3200  0.1063
 5534TIP3    H138017   5.808   1.202   4.324  0.5022  0.9047 -0.5050
 5534TIP3    H238018   5.659   1.231   4.326  0.2726 -0.2487 -0.4236
 5535TIP3   OH238019   3.811   1.430   3.264 -0.4506  0.3712  0.0052
 5535TIP3    H138020   3.870   1.449   3.336 -0.6691  2.0034 -0.2202
 5535TIP3    H238021   3.834   1.494   3.196 -2.6670  1.2863  0.0457
 5536TIP3   OH238022   1.819   0.831   5.803  0.6542  0.2178  0.3321
 5536TIP3    H138023   1.819   0.923   5.828  0.7648  0.2872  0.0849
 5536TIP3    H238024   1.733   0.817   5.763  0.8388  0.3588 -0.1318
 5537TIP3   OH238025   4.181   5.347  16.077  0.3548  0.3830 -0.3727
 5537TIP3    H138026   4.234   5.418  16.114  0.2284  0.0953  0.3830
 5537TIP3    H238027   4.165   5.288  16.151  1.3059 -0.9569 -1.1959
 5538TIP3   OH238028   1.568   4.688  14.763 -0.4199 -0.0802 -0.0441
 5538TIP3    H138029   1.483   4.726  14.784  0.2574  1.6667 -0.3218
 5538TIP3    H238030   1.592   4.638  14.841 -1.5763 -0.4068  0.1219
 5539TIP3   OH238031   3.816   3.015  15.488 -0.2566 -0.2127  0.1225
 5539TIP3    H138032   3.814   3.035  15.582 -0.0474  0.7149 -0.0704
 5539TIP3    H238033   3.726   2.989  15.468 -0.3353 -0.2771  0.5489
 5540TIP3   OH238034   2.781   2.665  15.295 -0.4413  0.3527  0.4585
 5540TIP3    H138035   2.714   2.657  15.227 -1.2332 -1.6231  1.3813
 5540TIP3    H238036   2.864   2.662  15.247 -0.9915  0.3015 -0.5112
 5541TIP3   OH238037   6.762   0.319   2.331  0.3625  0.6014 -0.3716
 5541TIP3    H138038   6.672   0.314   2.363  0.4852 -1.7791 -0.2252
 5541TIP3    H238039   6.756   0.367   2.248 -1.0397  0.4370 -0.3824
 5542TIP3   OH238040   6.492   5.028   1.186 -0.0176  0.8796 -0.1362
 5542TIP3    H138041   6.413   4.988   1.221  0.7013  0.2486  0.8104
 5542TIP3    H238042   6.460   5.092   1.122 -1.2265 -0.4156 -0.8952
 5543TIP3   OH238043   5.123   3.363  14.365  0.2570  0.3452  0.3812
 5543TIP3    H138044   5.181   3.415  14.309  1.0630  0.2110  1.0873
 5543TIP3    H238045   5.150   3.273  14.351 -0.6307  0.1592 -0.2481
 5544TIP3   OH238046   6.306   0.815   4.498 -0.4924  0.7432 -0.2240
 5544TIP3    H138047   6.351   0.899   4.501 -0.9931  1.0797 -1.5006
 5544TIP3    H238048   6.341   0.771   4.420  0.8961 -0.9210  1.2369
 5545TIP3   OH238049   6.706   3.644  12.619  0.0528  0.3666 -0.3751
 5545TIP3    H138050   6.643   3.638  12.547 -2.5028 -1.0174  1.8296
 5545TIP3    H238051   6.681   3.724  12.666 -0.5405 -0.5026  0.8536
 5546TIP3   OH238052   5.139   6.229  15.945 -0.1266  0.4379 -0.2285
 5546TIP3    H138053   5.064   6.286  15.932  0.0197  0.5634 -0.5091
 5546TIP3    H238054   5.197   6.248  15.872 -0.0214  0.0214 -0.2549
 5547TIP3   OH238055   0.055   4.167   6.657  0.5696  0.2513 -0.3355
 5547TIP3    H138056   0.063   4.073   6.671  0.1524  0.1397 -0.8110
 5547TIP3    H238057   0.098   4.207   6.733  2.2153 -0.3114 -0.9289
 5548TIP3   OH238058   6.263   0.767   0.231 -0.3220  0.1442  0.1493
 5548TIP3    H138059   6.232   0.707   0.300 -0.5374  0.1600  0.0670
 5548TIP3    H238060   6.219   0.736   0.151 -0.1371  0.1768  0.0344
 5549TIP3   OH238061   4.552   6.599  17.065 -0.0441  0.6239 -0.4347
 5549TIP3    H138062   4.594   6.517  17.091 -1.3708 -0.0826 -0.4029
 5549TIP3    H238063   4.620   6.666  17.074  1.1658 -0.5337 -0.8350
 5550TIP3   OH238064   0.385   0.278   3.868  0.8406 -0.7959  0.8462
 5550TIP3    H138065   0.336   0.207   3.909 -0.7327 -0.5375 -0.4823
 5550TIP3    H238066   0.320   0.324   3.814  2.4893 -0.3105 -0.8483
 5551TIP3   OH238067   6.413   6.003   5.438  0.2293 -0.0766  0.5006
 5551TIP3    H138068   6.376   5.951   5.366  1.1801 -0.4987  0.3077
 5551TIP3    H238069   6.359   6.082   5.440  0.2898  0.0099 -0.7771
 5552TIP3   OH238070   6.609   6.662  13.697 -0.1395 -0.3043  0.9748
 5552TIP3    H138071   6.546   6.599  13.733  0.9612 -0.8035  2.1026
 5552TIP3    H238072   6.575   6.747  13.725 -0.8112 -0.4919  0.7618
 5553TIP3   OH238073   4.396   2.468  16.159  0.1413  0.0707  0.0088
 5553TIP3    H138074   4.350   2.385  16.142  0.3049 -0.5064  2.0786
 5553TIP3    H238075   4.374   2.523  16.084 -1.0132 -1.4089 -0.8109
 5554TIP3   OH238076   3.776   1.064  13.265  0.5219 -0.2542  0.3841
 5554TIP3    H138077   3.828   1.016  13.329  1.4465 -1.1847 -1.0119
 5554TIP3    H238078   3.840   1.116  13.216 -0.1832  0.5270  0.2741
 5555TIP3   OH238079   4.815   5.226   3.195  0.4551 -0.2569  0.5154
 5555TIP3    H138080   4.860   5.273   3.125  0.0727  0.2033  0.5707
 5555TIP3    H238081   4.723   5.247   3.182  0.3771 -0.1816  1.1426
 5556TIP3   OH238082   4.303   2.204  15.731 -0.1714 -0.0513 -0.2092
 5556TIP3    H138083   4.349   2.206  15.815 -0.0506  0.2920 -0.2811
 5556TIP3    H238084   4.213   2.180  15.753 -0.1638  0.1419  0.0275
 5557TIP3   OH238085   3.865   4.318  10.877  0.2225 -0.2890 -0.0140
 5557TIP3    H138086   3.838   4.264  10.803  0.0675  1.9258 -1.6849
 5557TIP3    H238087   3.960   4.308  10.881  0.5280  1.2822 -2.0335
 5558TIP3   OH238088   1.566   3.175  15.606  0.4590  0.8426  0.3665
 5558TIP3    H138089   1.543   3.268  15.615  1.4484  1.1304  0.0010
 5558TIP3    H238090   1.627   3.172  15.533  0.5124 -0.0889  0.4408
 5559TIP3   OH238091   0.064   5.456  16.601  0.3526 -0.4358  0.0593
 5559TIP3    H138092   0.071   5.437  16.507  3.6043 -1.5660  0.4199
 5559TIP3    H238093   0.117   5.534  16.614 -1.5148  0.7887  0.7821
 5560TIP3   OH238094   6.798   6.352   4.753 -0.1661  0.1739 -0.7797
 5560TIP3    H138095   6.821   6.306   4.672  1.8519  2.5548 -1.6942
 5560TIP3    H238096   6.831   6.296   4.823  0.7962 -0.5152 -1.7541
 5561TIP3   OH238097   4.136   4.482  12.303 -0.4143  0.1918 -0.2094
 5561TIP3    H138098   4.228   4.493  12.279 -0.6692  0.3126 -1.1724
 5561TIP3    H238099   4.103   4.419  12.239 -0.6981 -0.8472  0.9202
 5562TIP3   OH238100   4.263   1.707  13.712  0.8321 -0.0334  0.0513
 5562TIP3    H138101   4.173   1.724  13.741  0.0177 -2.1136 -1.1005
 5562TIP3    H238102   4.295   1.792  13.682 -1.7734  0.2724 -2.1687
 5563TIP3   OH238103   2.467   4.126  11.746 -0.2592 -0.1554  0.2722
 5563TIP3    H138104   2.529   4.197  11.734 -0.3801 -0.3080 -1.5585
 5563TIP3    H238105   2.384   4.161  11.713 -0.4530 -0.9149 -0.0781
 5564TIP3   OH238106   6.502   1.858   6.219  0.6655  0.2611  0.1168
 5564TIP3    H138107   6.407   1.863   6.227  0.6585 -0.9576  1.0910
 5564TIP3    H238108   6.529   1.948   6.201 -0.7157  0.5031 -0.8956
 5565TIP3   OH238109   3.097   4.404  13.378  0.3200 -0.5686 -0.6144
 5565TIP3    H138110   3.156   4.373  13.447 -0.8743 -1.9572 -0.1641
 5565TIP3    H238111   3.024   4.341  13.379 -0.4050  0.1994 -2.1995
 5566TIP3   OH238112   0.042   2.516   2.963  0.5352  0.5711  0.4776
 5566TIP3    H138113   0.127   2.538   3.002  0.2174  0.7740  1.0804
 5566TIP3    H238114  -0.002   2.601   2.954 -0.3874  0.2993  2.0652
 5567TIP3   OH238115   6.010   1.403  12.695 -0.0479  0.2483 -0.1192
 5567TIP3    H138116   5.977   1.389  12.606  2.0269 -0.9588 -0.7546
 5567TIP3    H238117   6.055   1.488  12.690  2.0298 -0.8416 -0.8955
 5568TIP3   OH238118   4.899   5.849   5.994 -0.4239  0.2577  0.1867
 5568TIP3    H138119   4.816   5.864   6.039 -0.0437  3.7948  0.0031
 5568TIP3    H238120   4.877   5.853   5.901 -0.7388 -4.1413 -0.1341
 5569TIP3   OH238121   1.249   1.115  15.187 -0.7886  0.3795 -1.0291
 5569TIP3    H138122   1.219   1.033  15.148 -0.2873 -0.2100 -0.1945
 5569TIP3    H238123   1.343   1.103  15.199 -0.6004  1.3103 -1.4524
 5570TIP3   OH238124   4.744   1.213   5.755 -0.2437 -0.1824 -0.8439
 5570TIP3    H138125   4.765   1.276   5.824 -2.0845 -1.1217  0.6731
 5570TIP3    H238126   4.716   1.267   5.681  1.2154  0.8346 -0.6994
 5571TIP3   OH238127   5.641   0.823   3.764  0.5102 -0.6406  0.0202
 5571TIP3    H138128   5.600   0.888   3.821  1.0984 -0.0840 -0.1741
 5571TIP3    H238129   5.619   0.852   3.675  0.8450 -0.6488 -0.0685
 5572TIP3   OH238130   5.059   0.801   5.282  0.4353 -0.7095 -0.3178
 5572TIP3    H138131   4.966   0.783   5.298  0.5887 -1.7603 -0.5112
 5572TIP3    H238132   5.094   0.825   5.367  0.2641 -1.6481  0.0313
 5573TIP3   OH238133   4.480   0.656  17.060  0.0577  0.0384  0.0800
 5573TIP3    H138134   4.395   0.615  17.040  0.4335 -0.2720 -0.9471
 5573TIP3    H238135   4.528   0.588  17.107 -0.5493  0.5027  1.4179
 5574TIP3   OH238136   4.853   4.987  10.344 -0.0434 -1.2497 -0.1907
 5574TIP3    H138137   4.879   4.917  10.404  1.1011 -1.4329 -0.8729
 5574TIP3    H238138   4.930   5.045  10.340 -0.8394 -0.1383  0.0826
 5575TIP3   OH238139   1.008   2.647  15.325  0.4444  0.2801 -0.1540
 5575TIP3    H138140   1.052   2.630  15.409 -1.0222  0.3492  0.6580
 5575TIP3    H238141   0.926   2.598  15.330  0.7123 -0.4198 -1.9297
 5576TIP3   OH238142   4.078   1.994  15.812  0.2902 -0.6021  0.0066
 5576TIP3    H138143   4.032   2.006  15.896 -1.6390 -0.4044 -1.0208
 5576TIP3    H238144   4.170   2.003  15.834 -0.2059  0.2192  1.9890
 5577TIP3   OH238145   1.817   3.556  14.206  0.1895 -0.4709 -0.0042
 5577TIP3    H138146   1.841   3.648  14.219 -0.4430  0.2057 -2.8895
 5577TIP3    H238147   1.791   3.551  14.114  0.8062 -3.6945 -0.1141
 5578TIP3   OH238148   5.813   5.435   5.008 -0.1016 -0.2966 -0.3478
 5578TIP3    H138149   5.780   5.517   4.972 -0.1106 -0.3326 -0.4230
 5578TIP3    H238150   5.739   5.399   5.057 -0.6498 -1.0561 -1.6576
 5579TIP3   OH238151   6.636   6.111  11.914 -0.4418 -0.0628 -0.6624
 5579TIP3    H138152   6.620   6.037  11.972 -0.5405  0.2555 -0.2748
 5579TIP3    H238153   6.548   6.144  11.894 -0.3908  0.0675 -0.6733
 5580TIP3   OH238154   1.798   6.215  16.348  0.1384 -0.0235 -0.1062
 5580TIP3    H138155   1.759   6.291  16.305  3.3173  2.2734  0.6902
 5580TIP3    H238156   1.863   6.183  16.286 -0.1227 -1.1812  0.1957
 5581TIP3   OH238157   3.323   2.605   1.179 -0.9598  0.4332 -0.2250
 5581TIP3    H138158   3.261   2.580   1.247  1.4495 -0.0233  1.9655
 5581TIP3    H238159   3.349   2.523   1.139 -0.3673  0.4050  0.2005
 5582TIP3   OH238160   0.789   0.283   5.566 -0.3840  0.0976 -0.3358
 5582TIP3    H138161   0.770   0.225   5.640  1.3486 -1.1416 -0.7749
 5582TIP3    H238162   0.793   0.224   5.490 -0.5935  1.1085 -1.1586
 5583TIP3   OH238163   2.136   6.260   3.303 -0.0673  0.5217  0.3315
 5583TIP3    H138164   2.231   6.273   3.307  0.2189 -1.2894  0.5469
 5583TIP3    H238165   2.114   6.275   3.211  0.3116  1.5731  0.4020
 5584TIP3   OH238166   0.997   0.857   1.369 -0.3656  0.3496 -0.5707
 5584TIP3    H138167   0.935   0.803   1.417 -0.6951 -0.3552 -1.7527
 5584TIP3    H238168   1.047   0.796   1.315 -0.5754  1.1694 -1.7493
 5585TIP3   OH238169   1.621   4.160   2.116 -0.2426  0.8539  0.2976
 5585TIP3    H138170   1.626   4.126   2.206 -1.7555 -0.6474 -0.1354
 5585TIP3    H238171   1.695   4.121   2.071  0.5253  1.6141  0.8692
 5586TIP3   OH238172   0.509   5.267   5.689  0.0680 -0.3578 -0.4369
 5586TIP3    H138173   0.452   5.327   5.736 -0.0088 -1.4504  0.9424
 5586TIP3    H238174   0.598   5.300   5.704 -0.0704  0.3927 -1.1845
 5587TIP3   OH238175   5.880   5.605   0.639 -0.3675  0.5059  0.1101
 5587TIP3    H138176   5.864   5.643   0.725  0.0936 -1.2663  1.0285
 5587TIP3    H238177   5.815   5.536   0.630 -0.3183  0.5688 -0.9095
 5588TIP3   OH238178   5.783   2.786   4.831 -0.4051 -0.2359 -0.3749
 5588TIP3    H138179   5.822   2.828   4.754  0.6935 -1.4534 -0.5232
 5588TIP3    H238180   5.738   2.857   4.877 -1.4240  0.4357 -2.3364
 5589TIP3   OH238181   3.564   3.718  14.785 -0.3518 -0.1766  0.6884
 5589TIP3    H138182   3.502   3.656  14.746  0.8831 -0.0492 -1.6186
 5589TIP3    H238183   3.530   3.804  14.761  0.5044 -0.0989 -0.2814
 5590TIP3   OH238184   4.323   4.087   3.531  0.2690 -0.0063  0.0026
 5590TIP3    H138185   4.300   3.997   3.557  2.2870 -0.3702  0.6734
 5590TIP3    H238186   4.322   4.137   3.612 -0.7589  0.6043 -0.3575
 5591TIP3   OH238187   3.851   3.753   1.974  0.1099  0.2162  0.2462
 5591TIP3    H138188   3.927   3.812   1.972 -1.1279  1.9032 -2.4848
 5591TIP3    H238189   3.776   3.812   1.980 -1.1133 -1.2049 -0.5894
 5592TIP3   OH238190   1.799   4.427  15.112 -0.3094 -0.2584  0.2485
 5592TIP3    H138191   1.781   4.503  15.057  1.5350  0.4123  0.5288
 5592TIP3    H238192   1.875   4.452  15.165 -0.5028 -1.8011  1.3285
 5593TIP3   OH238193   0.147   6.613  11.544  0.1258  0.1445  0.2204
 5593TIP3    H138194   0.206   6.539  11.529 -0.6956 -0.2060 -1.4591
 5593TIP3    H238195   0.191   6.688  11.504  0.2966  0.2784  0.6533
 5594TIP3   OH238196   4.535   1.897  16.940 -0.4915 -0.0782 -0.0291
 5594TIP3    H138197   4.515   1.958  17.010 -0.3423  0.8511 -0.7803
 5594TIP3    H238198   4.597   1.835  16.979 -0.3916  0.4436  0.6489
 5595TIP3   OH238199   3.116   1.520  11.779 -0.4459  0.3524  0.1968
 5595TIP3    H138200   3.022   1.527  11.791 -0.4964  1.7517 -0.8418
 5595TIP3    H238201   3.133   1.557  11.693  1.0740  0.2801  0.4298
 5596TIP3   OH238202   1.771   1.113  10.934 -0.2381  0.4464  0.4860
 5596TIP3    H138203   1.707   1.175  10.899 -2.6043 -1.7584  0.6424
 5596TIP3    H238204   1.844   1.116  10.872 -0.2291  3.3371  0.5148
 5597TIP3   OH238205   6.658   4.926  14.682  0.4101  0.5705  0.3573
 5597TIP3    H138206   6.679   4.972  14.601  1.2021  0.7451  0.6575
 5597TIP3    H238207   6.584   4.870  14.659 -0.6782  2.0843  0.0265
 5598TIP3   OH238208   4.430   0.804  14.993  0.6605 -0.4286 -0.3115
 5598TIP3    H138209   4.419   0.809  15.088  0.5396 -1.1964 -0.2796
 5598TIP3    H238210   4.370   0.870  14.958  1.1870  0.3081  0.1718
 5599TIP3   OH238211   3.260   6.266   3.497  0.1074  0.3243 -0.4536
 5599TIP3    H138212   3.351   6.249   3.471  0.3637  0.9630  0.0256
 5599TIP3    H238213   3.234   6.187   3.544  1.7418  1.6588  2.9719
 5600TIP3   OH238214   2.514   3.436  15.660 -0.3640  0.1283  0.5828
 5600TIP3    H138215   2.501   3.413  15.752 -0.4633 -0.5443  0.4083
 5600TIP3    H238216   2.452   3.506  15.644 -0.3557  0.2391  1.0263
 5601TIP3   OH238217   6.076   4.190   1.510  0.0845  0.1106 -0.4470
 5601TIP3    H138218   5.984   4.167   1.524  0.4651 -1.4344 -0.3080
 5601TIP3    H238219   6.119   4.170   1.593  0.7543 -0.3338 -0.8948
 5602TIP3   OH238220   5.348   5.522   5.419 -0.1263 -0.3901  0.6286
 5602TIP3    H138221   5.273   5.504   5.476 -0.2483 -0.4457  0.4502
 5602TIP3    H238222   5.336   5.464   5.345 -0.2082  0.0026  0.3295
 5603TIP3   OH238223   6.186   1.608  12.656  0.1453  0.5398 -0.1755
 5603TIP3    H138224   6.228   1.654  12.729  0.3186  0.4769 -0.2339
 5603TIP3    H238225   6.251   1.543  12.629  0.6878  1.5396 -1.3626
 5604TIP3   OH238226   2.295   5.964  12.541 -0.1506 -0.5668 -0.1372
 5604TIP3    H138227   2.382   5.926  12.553  0.1597  0.5497  1.6103
 5604TIP3    H238228   2.238   5.889  12.527  0.8723 -1.4590  0.3159
 5605TIP3   OH238229   3.747   2.663   1.690  0.6182 -0.4381  0.0381
 5605TIP3    H138230   3.805   2.738   1.700  1.1819 -0.6255 -1.6012
 5605TIP3    H238231   3.676   2.679   1.753  0.8499  1.3369 -0.1107
 5606TIP3   OH238232   3.398   5.023  13.680  0.2912  0.5343  0.1090
 5606TIP3    H138233   3.315   4.984  13.654 -0.5429  2.5075 -0.3056
 5606TIP3    H238234   3.448   5.028  13.599 -0.9886  3.5182 -0.5967
 5607TIP3   OH238235   0.759   6.236   0.223  0.3408 -0.4374  0.0645
 5607TIP3    H138236   0.679   6.210   0.269  0.5454 -2.9668 -0.8492
 5607TIP3    H238237   0.728   6.287   0.148 -0.5481 -2.0282 -0.7169
 5608TIP3   OH238238   5.065   4.094  14.213 -0.6696 -0.1483 -0.1473
 5608TIP3    H138239   5.121   4.124  14.141 -0.9981  0.0466 -0.3248
 5608TIP3    H238240   4.995   4.045  14.169 -1.6505  1.1506 -0.0892
 5609TIP3   OH238241   2.205   0.308  12.061 -0.3448  0.0577  0.1978
 5609TIP3    H138242   2.286   0.359  12.062 -1.3077  1.6366  1.0116
 5609TIP3    H238243   2.205   0.265  11.975  0.7315  1.0523 -0.3307
 5610TIP3   OH238244   0.534   6.180   5.602 -0.1737 -0.4663 -0.0724
 5610TIP3    H138245   0.506   6.130   5.526 -0.8046 -1.4106  0.7623
 5610TIP3    H238246   0.619   6.142   5.626 -0.8977 -1.5447  0.8844
 5611TIP3   OH238247   2.625   5.547   1.606 -0.3019 -0.2905 -0.5247
 5611TIP3    H138248   2.582   5.593   1.534  0.9208  2.5689  0.4543
 5611TIP3    H238249   2.570   5.565   1.682 -0.8490 -2.1618 -0.4303
 5612TIP3   OH238250   5.842   1.135   0.520 -0.0900  0.3964 -0.1002
 5612TIP3    H138251   5.913   1.107   0.577  1.3343  1.5183 -1.2684
 5612TIP3    H238252   5.782   1.060   0.519  0.6341 -0.2643  1.5466
 5613TIP3   OH238253   0.325   5.348  10.796 -0.1407  0.1981  0.1708
 5613TIP3    H138254   0.315   5.341  10.891  2.7903 -0.5880  0.5029
 5613TIP3    H238255   0.303   5.439  10.775  2.7274  1.4748  2.1950
 5614TIP3   OH238256   3.193   3.643  15.162 -0.0707  0.3405  0.1209
 5614TIP3    H138257   3.284   3.631  15.188 -0.2439 -0.3733  0.4444
 5614TIP3    H238258   3.197   3.659  15.067  0.2472 -2.5459 -0.4561
 5615TIP3   OH238259   4.541   0.914   4.164  0.2451 -0.2888 -0.5458
 5615TIP3    H138260   4.490   0.995   4.159  0.4073  0.0165  1.7543
 5615TIP3    H238261   4.632   0.943   4.167  0.3853 -0.6521 -1.1136
 5616TIP3   OH238262   6.105   1.141   4.530 -0.7452 -0.2368  0.3688
 5616TIP3    H138263   6.113   1.080   4.603 -2.3906  0.6203  1.3307
 5616TIP3    H238264   6.017   1.125   4.495 -1.3853  1.7890  0.8929
 5617TIP3   OH238265   5.092   3.594   4.141  0.2559 -0.6144 -0.6528
 5617TIP3    H138266   5.049   3.677   4.120  0.2806  0.0344  1.6406
 5617TIP3    H238267   5.168   3.618   4.193  2.3282 -1.8882 -2.8928
 5618TIP3   OH238268   2.813   3.772   4.815 -0.3515  0.3916  0.2990
 5618TIP3    H138269   2.831   3.702   4.753 -1.1769 -1.3025  1.8907
 5618TIP3    H238270   2.718   3.773   4.823 -0.5752  3.1777 -1.2460
 5619TIP3   OH238271   4.742   6.533  12.517  0.1244 -0.1088  0.6837
 5619TIP3    H138272   4.669   6.560  12.573  0.9454  0.3822  1.5396
 5619TIP3    H238273   4.700   6.494  12.440 -1.1285  2.8502 -0.2586
 5620TIP3   OH238274   2.425   3.392   5.109  0.0283 -0.1475 -0.7369
 5620TIP3    H138275   2.490   3.330   5.140  2.0394  1.3288 -1.7144
 5620TIP3    H238276   2.466   3.478   5.121 -1.7905  0.8754 -1.3246
 5621TIP3   OH238277   5.811   0.771   4.950 -0.5683  0.9577 -0.0123
 5621TIP3    H138278   5.761   0.691   4.967  0.4320  0.4529  0.7341
 5621TIP3    H238279   5.746   0.839   4.938 -1.4335  0.1678  0.1147
 5622TIP3   OH238280   4.178   1.919   1.736  0.2007 -0.1276  0.5557
 5622TIP3    H138281   4.111   1.855   1.760  1.2677 -1.6565 -0.3258
 5622TIP3    H238282   4.199   1.898   1.645  1.0643  1.0660  0.4527
 5623TIP3   OH238283   4.789   5.728   3.250  0.3590 -0.9796  0.4667
 5623TIP3    H138284   4.780   5.692   3.161  1.6340  1.8190 -0.9223
 5623TIP3    H238285   4.881   5.751   3.257  0.2170 -0.8844  2.4635
 5624TIP3   OH238286   5.812   5.071   6.513  0.1323 -0.1396 -0.0050
 5624TIP3    H138287   5.756   5.137   6.473  0.6592 -0.2784 -1.0045
 5624TIP3    H238288   5.763   4.989   6.504 -0.1257 -0.0356  0.4229
 5625TIP3   OH238289   4.068   3.946   0.462 -0.0218 -0.0448  0.0434
 5625TIP3    H138290   4.035   3.856   0.460 -0.8019  0.1595  1.8054
 5625TIP3    H238291   3.992   3.999   0.484  0.3784  1.1155 -1.2321
 5626TIP3   OH238292   5.598   2.023   4.316  0.5650  0.4848 -0.6231
 5626TIP3    H138293   5.536   1.994   4.383  0.0247  1.6184 -0.5961
 5626TIP3    H238294   5.678   2.044   4.364  1.1468 -1.3714 -0.7052
 5627TIP3   OH238295   1.506   2.122   6.353  0.1077  0.6064 -0.2976
 5627TIP3    H138296   1.569   2.096   6.421 -1.0451  1.6229  1.2437
 5627TIP3    H238297   1.557   2.175   6.293  0.8107  1.2190  0.7939
 5628TIP3   OH238298   4.441   1.654  15.448  0.3883 -0.0836  0.1270
 5628TIP3    H138299   4.450   1.714  15.373 -2.0045  0.0049 -0.1547
 5628TIP3    H238300   4.410   1.709  15.519  3.1155 -0.0755  1.4290
 5629TIP3   OH238301   1.161   5.173   5.113  0.5676  0.3039  0.3811
 5629TIP3    H138302   1.136   5.119   5.187  0.1916 -0.2938 -0.1666
 5629TIP3    H238303   1.201   5.112   5.051 -2.3150  0.0353 -1.4494
 5630TIP3   OH238304   6.703   3.414  11.304  0.0884 -0.5561  0.6360
 5630TIP3    H138305   6.743   3.467  11.236 -0.4763  0.6942  1.2399
 5630TIP3    H238306   6.643   3.356  11.258 -0.6972  0.6538  0.1071
 5631TIP3   OH238307   0.305   3.140   2.193  0.5623 -0.7481  0.1691
 5631TIP3    H138308   0.230   3.081   2.205 -0.2270  0.0973 -0.4968
 5631TIP3    H238309   0.291   3.209   2.258  0.7492 -0.5705  0.0188
 5632TIP3   OH238310   6.501   6.556   5.597 -0.1605 -0.2661  0.0426
 5632TIP3    H138311   6.415   6.546   5.638  0.4768 -1.7719  1.1031
 5632TIP3    H238312   6.494   6.636   5.544 -2.0009 -0.0280  0.5979
 5633TIP3   OH238313   1.888   5.624  14.901 -0.0104 -0.1882 -0.5263
 5633TIP3    H138314   1.821   5.561  14.874  0.7260 -0.2706 -2.3336
 5633TIP3    H238315   1.868   5.703  14.851  1.6726 -0.4707 -1.7464
 5634TIP3   OH238316   5.607   1.675   0.679 -0.2489  0.2198 -0.3239
 5634TIP3    H138317   5.544   1.727   0.629  0.9269  2.0161 -0.0179
 5634TIP3    H238318   5.668   1.739   0.715  1.4298 -1.4078 -0.1238
 5635TIP3   OH238319   1.819   0.783   3.555 -0.3026  0.0735  0.0736
 5635TIP3    H138320   1.904   0.751   3.584 -0.4103 -0.2845 -0.0006
 5635TIP3    H238321   1.829   0.799   3.461 -0.0929  0.7777  0.2089
 5636TIP3   OH238322   4.927   0.995  11.677  0.0502  0.9667 -0.1102
 5636TIP3    H138323   5.009   0.966  11.636  0.5951  2.7451 -0.3722
 5636TIP3    H238324   4.866   0.923  11.662  1.1454  0.2226 -1.2255
 5637TIP3   OH238325   5.090   0.813  10.317 -0.6644 -0.0389  0.0438
 5637TIP3    H138326   5.036   0.743  10.282 -0.9019  0.2060 -0.0870
 5637TIP3    H238327   5.178   0.797  10.281 -0.5519 -0.6755  0.5947
 5638TIP3   OH238328   4.795   0.766  15.189  0.3374  0.4140 -0.2298
 5638TIP3    H138329   4.873   0.810  15.221  0.2622  0.1712  0.2991
 5638TIP3    H238330   4.768   0.709  15.262 -0.1750  0.2987 -0.5055
 5639TIP3   OH238331   4.161   3.256  11.287  0.1973  0.1677  0.4543
 5639TIP3    H138332   4.211   3.253  11.205  0.1753 -1.4981  0.4672
 5639TIP3    H238333   4.164   3.166  11.320 -1.0857  0.4848  1.5055
 5640TIP3   OH238334   2.365   5.327   5.782  0.1541  0.7860 -0.4287
 5640TIP3    H138335   2.442   5.301   5.831  0.1246  0.2414 -0.6692
 5640TIP3    H238336   2.311   5.376   5.845 -1.1582 -2.1426  0.9006
 5641TIP3   OH238337   0.907   6.783  15.959  0.6804  0.4138  0.3242
 5641TIP3    H138338   0.944   6.707  16.003 -0.7237 -0.7212 -0.3753
 5641TIP3    H238339   0.898   6.849  16.027 -0.4164 -0.9193  1.5283
 5642TIP3   OH238340   2.589   3.065   5.821  0.0174 -0.2368 -1.2669
 5642TIP3    H138341   2.597   3.083   5.915  3.0153 -1.6476 -1.1097
 5642TIP3    H238342   2.595   3.151   5.779  2.0200  0.2039 -0.2107
 5643TIP3   OH238343   6.174   6.753  10.197 -0.0302  0.1109  0.0074
 5643TIP3    H138344   6.157   6.847  10.206 -1.2763  0.3779 -3.3712
 5643TIP3    H238345   6.089   6.712  10.212  0.2849 -0.3705  0.4804
 5644TIP3   OH238346   3.644   3.408  11.283  0.9375 -0.0258  0.0345
 5644TIP3    H138347   3.674   3.477  11.342  2.3466  0.6336 -1.4222
 5644TIP3    H238348   3.698   3.332  11.306  1.3188  0.1602 -0.2489
 5645TIP3   OH238349   6.723   2.578   4.074  0.0836 -0.0586  0.4798
 5645TIP3    H138350   6.640   2.561   4.117  0.5972 -3.8503  0.2832
 5645TIP3    H238351   6.781   2.608   4.144 -1.1015  1.6250  0.7967
 5646TIP3   OH238352   1.617   0.537   5.449  0.3973  0.0354 -0.8042
 5646TIP3    H138353   1.659   0.601   5.392  1.2799  0.2697  0.0890
 5646TIP3    H238354   1.688   0.499   5.500 -0.2277 -1.0080 -0.6657
 5647TIP3   OH238355   0.185   6.579  16.789  0.0607 -0.1106  0.4889
 5647TIP3    H138356   0.266   6.569  16.739 -0.6018  1.1629 -0.9152
 5647TIP3    H238357   0.208   6.550  16.877  2.5952  2.0233  0.6363
 5648TIP3   OH238358   2.022   1.274  13.962 -0.5256 -0.3846 -0.4398
 5648TIP3    H138359   1.981   1.280  14.048  1.7492 -0.4174  0.7006
 5648TIP3    H238360   2.051   1.183  13.956 -0.9353 -0.4617 -1.3880
 5649TIP3   OH238361   1.493   0.011  10.478 -0.2539 -0.0947  0.8439
 5649TIP3    H138362   1.565  -0.044  10.449  1.1191  0.7880  2.4063
 5649TIP3    H238363   1.415  -0.027  10.436  1.3298  0.3163 -2.8169
 5650TIP3   OH238364   2.015   2.432   0.850 -0.4690  0.3255  0.2343
 5650TIP3    H138365   2.098   2.470   0.879  0.7496 -1.2915 -0.9926
 5650TIP3    H238366   2.002   2.466   0.762 -1.4989  1.1081  0.6611
 5651TIP3   OH238367   5.934   4.745   2.278  1.0773  0.0415 -0.2670
 5651TIP3    H138368   5.933   4.840   2.289 -0.3596  0.2483 -1.8037
 5651TIP3    H238369   6.003   4.729   2.214  0.5690  0.1765 -0.8558
 5652TIP3   OH238370   4.950   0.614   3.126 -0.8462 -0.1397 -0.0874
 5652TIP3    H138371   4.891   0.593   3.053 -0.6720 -0.4339 -0.1493
 5652TIP3    H238372   5.035   0.579   3.097 -1.0222 -1.3208  0.7524
 5653TIP3   OH238373   0.924   6.532  15.270  0.0019 -0.4174 -0.5153
 5653TIP3    H138374   0.882   6.614  15.245 -1.4136 -0.7918  0.4459
 5653TIP3    H238375   1.014   6.556  15.292  0.3541  0.4273 -2.6370
 5654TIP3   OH238376   1.114   5.313   3.366  0.4417  0.2006  0.1706
 5654TIP3    H138377   1.208   5.298   3.358  0.6049  0.8256  0.8392
 5654TIP3    H238378   1.106   5.385   3.428 -0.5446 -1.6860  2.4079
 5655TIP3   OH238379   1.002   2.122   3.743  0.1845  0.4634  0.1162
 5655TIP3    H138380   0.938   2.103   3.674  0.4415 -0.6377  0.1562
 5655TIP3    H238381   1.074   2.165   3.697  0.9145 -1.3829 -0.5714
 5656TIP3   OH238382   3.353   6.138  16.538  0.0735  0.6315  0.1038
 5656TIP3    H138383   3.433   6.106  16.581  0.8405  0.3433 -1.4865
 5656TIP3    H238384   3.298   6.166  16.611  1.2507  0.0048  1.3015
 5657TIP3   OH238385   5.814   6.373  13.661  0.1581 -0.4283  0.2187
 5657TIP3    H138386   5.779   6.427  13.590 -3.0514 -0.5198  1.5704
 5657TIP3    H238387   5.807   6.283  13.629  1.9016 -0.3455 -0.5436
 5658TIP3   OH238388   2.369   1.310   0.507  0.1724  0.1097  0.1244
 5658TIP3    H138389   2.375   1.405   0.521  0.7883  0.2521 -0.9570
 5658TIP3    H238390   2.457   1.277   0.526 -0.1811 -0.3252  1.0155
 5659TIP3   OH238391   3.475   3.053   0.090 -0.0980 -0.4296 -0.2671
 5659TIP3    H138392   3.409   3.114   0.059  0.1369  1.9753  3.3070
 5659TIP3    H238393   3.425   2.978   0.122 -0.7777 -0.2425 -0.8623
 5660TIP3   OH238394   5.732   3.109   0.953  0.0443  0.0530  0.3116
 5660TIP3    H138395   5.717   3.019   0.923  2.0860 -0.7098  1.4740
 5660TIP3    H238396   5.678   3.118   1.031 -0.4796  0.0049 -0.0361
 5661TIP3   OH238397   0.093   6.073  11.820 -0.1824  0.4006  0.0032
 5661TIP3    H138398   0.010   6.102  11.858  0.2388 -1.2355  2.3930
 5661TIP3    H238399   0.158   6.090  11.888  0.7177 -2.1170 -0.1085
 5662TIP3   OH238400   6.620   0.523  15.812 -0.4254 -0.6486  0.6571
 5662TIP3    H138401   6.679   0.450  15.833 -0.0240 -0.1471  1.2739
 5662TIP3    H238402   6.676   0.590  15.775 -1.1277 -1.6229 -2.5187
 5663TIP3   OH238403   2.146   6.059   1.885 -0.2468 -0.1129 -0.8394
 5663TIP3    H138404   2.167   6.108   1.965  0.5021  0.4436 -1.3662
 5663TIP3    H238405   2.101   5.980   1.916  2.5556 -1.3663  0.3517
 5664TIP3   OH238406   4.760   5.157   2.373 -0.0088 -0.1633  0.3595
 5664TIP3    H138407   4.816   5.110   2.311  1.5338  0.9593  0.8169
 5664TIP3    H238408   4.715   5.222   2.320  3.0251  2.3484  0.5691
 5665TIP3   OH238409   4.282   0.463  12.061  0.3196 -0.3640 -0.2783
 5665TIP3    H138410   4.196   0.502  12.044  0.9502  0.6490 -1.2434
 5665TIP3    H238411   4.268   0.409  12.138 -1.4231 -1.0059 -0.9953
 5666TIP3   OH238412   2.550   6.715  13.320  0.3929  0.0264 -0.2062
 5666TIP3    H138413   2.611   6.789  13.317 -0.6610  0.9955  1.0119
 5666TIP3    H238414   2.539   6.697  13.413 -1.8022  0.4543 -0.3273
 5667TIP3   OH238415   3.060   6.140   3.091 -0.2082 -0.5182  0.4398
 5667TIP3    H138416   2.982   6.086   3.080 -1.7531  1.8473 -1.0938
 5667TIP3    H238417   3.102   6.140   3.005  2.0167 -2.3440  1.4145
 5668TIP3   OH238418   0.438   4.351   0.962 -0.2571  0.2397 -0.8082
 5668TIP3    H138419   0.478   4.282   1.016  0.6149  0.7829 -0.7487
 5668TIP3    H238420   0.349   4.320   0.948 -0.4047 -0.0845  0.6542
 5669TIP3   OH238421   0.836   4.212  14.245  0.3592  0.5215 -0.2796
 5669TIP3    H138422   0.792   4.263  14.313  1.0442  0.2692  0.3783
 5669TIP3    H238423   0.783   4.134  14.235 -0.5729  1.2403 -1.1318
 5670TIP3   OH238424   4.059   2.655  10.861  0.0469 -0.1242  0.6517
 5670TIP3    H138425   4.114   2.715  10.811  1.4122 -1.0159  1.0411
 5670TIP3    H238426   4.024   2.594  10.796  0.8753 -0.5612  0.5982
 5671TIP3   OH238427   3.029   0.750   0.113  0.2345 -0.3213  0.0489
 5671TIP3    H138428   2.963   0.759   0.044 -0.6888 -0.0949  0.9365
 5671TIP3    H238429   3.093   0.689   0.077 -0.2848 -0.2847 -0.9671
 5672TIP3   OH238430   4.111   5.772  13.363  0.2447 -0.4997  0.2823
 5672TIP3    H138431   4.067   5.798  13.282  1.7107  0.3202 -0.2961
 5672TIP3    H238432   4.065   5.693  13.391  0.8604 -1.9194 -2.3808
 5673TIP3   OH238433   6.102   5.271   5.861  0.4920 -0.4590 -0.6326
 5673TIP3    H138434   6.193   5.295   5.879  1.2608 -2.3697 -1.6651
 5673TIP3    H238435   6.052   5.351   5.876  1.9551  0.0145  2.5256
 5674TIP3   OH238436   5.999   2.904  13.832 -0.0603  0.2170  0.3831
 5674TIP3    H138437   6.077   2.859  13.801  0.0257  0.9143 -0.4846
 5674TIP3    H238438   5.941   2.905  13.755  0.0015  1.6751  0.3288
 5675TIP3   OH238439   0.629   0.888   4.045  0.7629 -0.1691  0.3872
 5675TIP3    H138440   0.557   0.847   3.996 -3.2835  0.5642  4.9136
 5675TIP3    H238441   0.692   0.817   4.059 -0.9394 -1.9769 -0.5923
 5676TIP3   OH238442   4.231   2.927   2.823 -0.3708  0.2249 -0.2009
 5676TIP3    H138443   4.312   2.959   2.861 -0.5628  0.2245  0.2130
 5676TIP3    H238444   4.176   2.905   2.898  0.3475 -2.6668 -0.4209
 5677TIP3   OH238445   1.435   5.491   0.800 -0.0102  0.4419 -0.1257
 5677TIP3    H138446   1.399   5.537   0.724 -1.5181  1.3671  1.0919
 5677TIP3    H238447   1.399   5.403   0.793  0.4746  0.2908 -0.8715
 5678TIP3   OH238448   5.236   3.137  16.547 -0.0974 -0.6530 -0.3459
 5678TIP3    H138449   5.260   3.064  16.490  0.7360  0.0223 -0.8803
 5678TIP3    H238450   5.151   3.166  16.515  0.4442 -0.1634 -1.3895
 5679TIP3   OH238451   2.531   5.125  16.267 -0.3064  0.3661 -0.0592
 5679TIP3    H138452   2.575   5.133  16.182 -0.6284  0.5809 -0.2136
 5679TIP3    H238453   2.593   5.161  16.330  0.8202 -1.7196  0.1095
 5680TIP3   OH238454   4.011   3.490   2.496 -0.8330  0.5493  0.3670
 5680TIP3    H138455   3.987   3.490   2.403 -2.0434 -1.5594  0.6312
 5680TIP3    H238456   4.079   3.423   2.503 -1.5801 -0.1506  1.1645
 5681TIP3   OH238457   2.449   0.345   6.283 -0.6551 -0.6018 -0.1777
 5681TIP3    H138458   2.462   0.438   6.302  0.4588 -0.9739  1.0230
 5681TIP3    H238459   2.458   0.339   6.188  2.4465  0.1200 -0.0573
 5682TIP3   OH238460   3.028   3.407   5.227  0.0763 -0.1177 -0.1077
 5682TIP3    H138461   2.936   3.396   5.205 -0.1398 -0.2708  0.8536
 5682TIP3    H238462   3.065   3.452   5.151 -0.9588  0.6795 -0.1691
 5683TIP3   OH238463   4.216   2.737   4.459 -0.0433 -0.1154 -0.2033
 5683TIP3    H138464   4.254   2.815   4.418  0.6604 -0.1030  0.4491
 5683TIP3    H238465   4.164   2.770   4.532  2.3015 -0.3164  1.7062
 5684TIP3   OH238466   5.487   4.173   4.812 -0.1910  0.4267  0.0271
 5684TIP3    H138467   5.467   4.197   4.902 -0.8916  0.5727 -0.1671
 5684TIP3    H238468   5.432   4.097   4.794 -0.3929  0.6760 -0.4245
 5685TIP3   OH238469   4.356   3.128   3.238  0.2502  0.1456  0.2675
 5685TIP3    H138470   4.410   3.053   3.262 -1.0846 -1.6511 -1.8892
 5685TIP3    H238471   4.302   3.145   3.315  0.3630 -1.3540  0.7085
 5686TIP3   OH238472   4.679   4.471  13.192 -0.2967  0.2621  0.1556
 5686TIP3    H138473   4.605   4.468  13.131  0.6303  0.7104 -1.0272
 5686TIP3    H238474   4.684   4.563  13.219  0.3839  0.4280 -0.4984
 5687TIP3   OH238475   6.737   4.286   6.457  0.3456  0.8097  0.3009
 5687TIP3    H138476   6.765   4.232   6.531 -1.9543 -1.7640 -0.5359
 5687TIP3    H238477   6.754   4.232   6.380 -1.7702  1.3471 -0.6206
 5688TIP3   OH238478   0.774   0.921   4.539  0.4183 -0.5945 -0.1175
 5688TIP3    H138479   0.696   0.870   4.561 -1.0805  0.8175 -1.8959
 5688TIP3    H238480   0.846   0.871   4.578 -1.0341 -3.5992 -0.9529
 5689TIP3   OH238481   2.256   5.681   3.168  0.0191  0.0808  0.4830
 5689TIP3    H138482   2.301   5.629   3.234  0.6183 -0.1575 -0.1024
 5689TIP3    H238483   2.326   5.722   3.117 -0.4305  0.1296 -0.1048
 5690TIP3   OH238484   0.881   1.279  11.364 -0.0132  0.1221 -0.3258
 5690TIP3    H138485   0.832   1.262  11.444  3.2707 -3.4243  1.2978
 5690TIP3    H238486   0.849   1.214  11.301  0.8737 -0.6124 -0.0488
 5691TIP3   OH238487   5.383   0.979   3.674  0.5749 -0.0451 -0.2726
 5691TIP3    H138488   5.365   1.064   3.635  1.9720 -0.2772 -1.5169
 5691TIP3    H238489   5.297   0.941   3.691 -0.1139  0.1570 -2.9733
 5692TIP3   OH238490   0.614   5.574  12.218 -0.5519 -0.3669  0.0585
 5692TIP3    H138491   0.654   5.575  12.304  0.5935  1.6136 -0.4375
 5692TIP3    H238492   0.549   5.645  12.220 -1.3702 -1.0818 -0.3427
 5693TIP3   OH238493   1.499   1.059  14.327 -0.1084 -0.2207 -0.2663
 5693TIP3    H138494   1.549   1.115  14.385  0.0231 -1.5971  1.0006
 5693TIP3    H238495   1.561   0.992  14.298 -0.7452 -0.8723 -0.1516
 5694TIP3   OH238496   3.303   5.763  11.583 -0.3161 -0.3917  0.5729
 5694TIP3    H138497   3.359   5.786  11.508  0.8202 -1.5925  1.0233
 5694TIP3    H238498   3.226   5.818  11.572 -0.0280 -0.2859 -1.3022
 5695TIP3   OH238499   2.155   6.357   4.054 -0.0176 -0.1480  0.1086
 5695TIP3    H138500   2.117   6.293   4.114 -1.5881  0.0362 -0.6236
 5695TIP3    H238501   2.129   6.442   4.091 -1.4891 -0.0422 -1.0821
 5696TIP3   OH238502   4.470   2.469   2.918 -0.9820  0.3671  0.3437
 5696TIP3    H138503   4.471   2.375   2.899  0.1916  0.6812 -1.4022
 5696TIP3    H238504   4.438   2.475   3.008 -1.0229 -1.6941  0.5177
 5697TIP3   OH238505   6.056   0.505  14.788  0.0898  0.3263  0.1018
 5697TIP3    H138506   6.059   0.588  14.741  0.1663  0.5076  0.4278
 5697TIP3    H238507   5.968   0.500  14.824  0.0569  0.2237  0.0105
 5698TIP3   OH238508   6.146   1.788  12.447 -0.2571 -0.3930  0.0423
 5698TIP3    H138509   6.132   1.723  12.517 -1.2921  0.3531  0.5507
 5698TIP3    H238510   6.234   1.821  12.462  0.3774 -1.8093 -0.3489
 5699TIP3   OH238511   0.373   2.241  14.956  0.2454 -0.7222 -0.4950
 5699TIP3    H138512   0.469   2.240  14.948  0.1457 -1.6294 -1.9735
 5699TIP3    H238513   0.344   2.172  14.896 -1.2722 -1.5605  1.1217
 5700TIP3   OH238514   1.774   0.403  16.476  0.9345  0.2365  0.0338
 5700TIP3    H138515   1.742   0.490  16.453 -0.1571 -0.0692  0.3533
 5700TIP3    H238516   1.756   0.350  16.398  0.5437  0.0308  0.2650
 5701TIP3   OH238517   0.010   5.193  10.578  0.4816 -0.3693 -0.2363
 5701TIP3    H138518  -0.073   5.221  10.540  0.2402 -0.0772  0.5037
 5701TIP3    H238519  -0.013   5.159  10.664  1.1566 -0.0900  0.0578
 5702TIP3   OH238520   5.170   4.643   2.075  0.0530  0.1810 -0.5117
 5702TIP3    H138521   5.114   4.650   1.998 -0.4960 -2.5787 -0.4729
 5702TIP3    H238522   5.110   4.639   2.149  0.4965  0.8488 -0.0968
 5703TIP3   OH238523   1.746   6.115  16.709  0.0345  0.2428  0.1627
 5703TIP3    H138524   1.754   6.020  16.718  0.4475  0.2261 -0.3348
 5703TIP3    H238525   1.836   6.147  16.713 -0.0193  0.5181 -0.6503
 5704TIP3   OH238526   2.153   4.004  12.637  0.1747 -0.0611 -0.5892
 5704TIP3    H138527   2.093   3.932  12.620  1.5562 -0.8393 -2.5991
 5704TIP3    H238528   2.153   4.056  12.556  2.5270 -0.4076 -0.9030
 5705TIP3   OH238529   0.741   6.796   1.153 -0.2254 -0.1104 -0.3222
 5705TIP3    H138530   0.766   6.801   1.061 -1.3056  0.3286 -0.6080
 5705TIP3    H238531   0.814   6.837   1.200  0.7401 -1.1192 -0.8853
 5706TIP3   OH238532   5.581   4.606  13.127  0.4990 -0.5209 -0.2523
 5706TIP3    H138533   5.634   4.653  13.192  1.1573 -1.1173 -0.3492
 5706TIP3    H238534   5.630   4.614  13.045  0.0588 -0.4342 -0.5105
 5707TIP3   OH238535   4.372   1.900   6.114  0.5677 -0.1008 -0.4983
 5707TIP3    H138536   4.400   1.990   6.128  0.8773 -0.0265 -1.5661
 5707TIP3    H238537   4.328   1.901   6.029  0.1601 -0.8631 -0.3075
 5708TIP3   OH238538   0.554   1.117   1.658 -0.0220 -0.2530 -0.5965
 5708TIP3    H138539   0.501   1.173   1.601  3.1109  0.4134 -3.1223
 5708TIP3    H238540   0.560   1.166   1.740 -2.0267  0.2872 -0.7007
 5709TIP3   OH238541   0.381   5.811  16.796 -0.2172  0.1427  0.1806
 5709TIP3    H138542   0.420   5.898  16.800 -1.0387  0.6024 -1.0901
 5709TIP3    H238543   0.308   5.814  16.857  1.6109 -0.7232  2.5767
 5710TIP3   OH238544   2.174   4.572  14.871  0.5228  0.2209  0.2115
 5710TIP3    H138545   2.250   4.541  14.919  0.5619  0.9816  0.6533
 5710TIP3    H238546   2.157   4.660  14.905 -1.7003 -0.6172  1.4761
 5711TIP3   OH238547   2.150   2.256  11.753  0.8343 -0.2445 -0.6294
 5711TIP3    H138548   2.099   2.199  11.696 -0.4088 -0.4324  0.6125
 5711TIP3    H238549   2.109   2.342  11.743 -1.0396 -0.7457  1.7383
 5712TIP3   OH238550   3.127   1.500  11.476 -0.3012 -0.3379  0.1564
 5712TIP3    H138551   3.122   1.463  11.388 -0.3531  0.3655 -0.1442
 5712TIP3    H238552   3.036   1.514  11.502 -0.2775 -0.2408  0.1877
 5713TIP3   OH238553   5.359   4.898  11.759  0.4377  0.2452 -0.2870
 5713TIP3    H138554   5.297   4.827  11.774 -0.1575  0.5858 -1.0913
 5713TIP3    H238555   5.317   4.975  11.797  1.6738 -0.0319  1.8340
 5714TIP3   OH238556   3.074   2.307   3.797 -0.1567 -0.3240  0.5215
 5714TIP3    H138557   3.076   2.379   3.860 -0.9818  0.0895  0.0887
 5714TIP3    H238558   3.002   2.251   3.826  0.3785 -0.8966  0.7647
 5715TIP3   OH238559   1.709   4.071   3.355  0.1330  0.2564  0.7668
 5715TIP3    H138560   1.700   4.166   3.344 -0.3878  0.0964 -0.4106
 5715TIP3    H238561   1.785   4.060   3.411  0.4369  1.3726  0.5951
 5716TIP3   OH238562   0.351   6.422  16.143 -0.3136  0.3930 -0.1462
 5716TIP3    H138563   0.277   6.439  16.086 -0.0704  0.3509 -0.4743
 5716TIP3    H238564   0.324   6.456  16.229 -0.5743  0.6927 -0.3476
 5717TIP3   OH238565   2.831   4.563   3.164 -0.1492 -0.0683  0.1852
 5717TIP3    H138566   2.751   4.604   3.130 -0.2260 -0.7798 -0.5312
 5717TIP3    H238567   2.814   4.469   3.157  1.1692 -0.2359 -1.0026
 5718TIP3   OH238568   2.603   6.050   0.596 -0.7049  0.0912 -0.1603
 5718TIP3    H138569   2.574   5.988   0.531  0.1889  0.1583 -0.6427
 5718TIP3    H238570   2.672   6.004   0.644  0.3104  0.8507 -0.8454
 5719TIP3   OH238571   2.356   3.490  14.025  0.1892  0.4379 -0.4455
 5719TIP3    H138572   2.263   3.498  14.001  0.4498  0.1414 -1.6424
 5719TIP3    H238573   2.378   3.399  14.005  0.5224  0.2621  0.6814
 5720TIP3   OH238574   6.408   0.060   0.564 -0.3397  0.3126  0.2705
 5720TIP3    H138575   6.406  -0.013   0.625 -0.5316 -0.7100 -0.9242
 5720TIP3    H238576   6.316   0.086   0.554 -0.1103  2.6898  2.8887
 5721TIP3   OH238577   5.695   2.197  13.642  0.2599  0.0527 -0.4998
 5721TIP3    H138578   5.636   2.199  13.566  0.8565 -0.9352 -1.0101
 5721TIP3    H238579   5.783   2.198  13.605  0.5620 -0.6808  0.1525
 5722TIP3   OH238580   3.902   5.615   3.810  0.0011 -0.0068  0.1401
 5722TIP3    H138581   3.950   5.632   3.730  0.1629  0.1219  0.2651
 5722TIP3    H238582   3.862   5.699   3.833 -1.3183 -0.3844 -0.6403
 5723TIP3   OH238583   6.730   6.605   5.964 -0.0722  0.1852  0.3164
 5723TIP3    H138584   6.714   6.684   5.913 -0.2223 -0.8890 -1.3833
 5723TIP3    H238585   6.814   6.621   6.007  0.5987  0.7436 -1.1331
 5724TIP3   OH238586   5.618   3.464  16.682 -0.3467  0.2019 -0.0037
 5724TIP3    H138587   5.602   3.532  16.616 -0.5989  0.8032  0.6717
 5724TIP3    H238588   5.577   3.386  16.645  1.1049  0.0572 -1.4178
 5725TIP3   OH238589   1.274   1.372   3.544 -0.2622  0.0181  0.3366
 5725TIP3    H138590   1.228   1.406   3.467 -0.0428  1.4442  0.8058
 5725TIP3    H238591   1.209   1.376   3.614 -0.4507 -1.2455  0.2447
 5726TIP3   OH238592   5.781   5.643  16.527  0.3659 -0.1502  0.2851
 5726TIP3    H138593   5.737   5.712  16.576 -1.6039 -0.1291 -1.3490
 5726TIP3    H238594   5.797   5.682  16.441  2.5144 -0.5973  0.4464
 5727TIP3   OH238595   5.125   3.800   0.912 -0.0683 -0.5867  0.3680
 5727TIP3    H138596   5.141   3.841   0.997  2.2098  1.6240 -0.9778
 5727TIP3    H238597   5.133   3.706   0.928  4.0450 -0.1382  2.0647
 5728TIP3   OH238598   0.729   2.852  12.819  0.1952 -0.0921  0.0653
 5728TIP3    H138599   0.693   2.850  12.730  1.2972  0.7783 -0.4276
 5728TIP3    H238600   0.725   2.945  12.844  0.0922 -0.3010  0.8514
 5729TIP3   OH238601   1.730   6.140   0.290  0.4270 -0.7541  0.3527
 5729TIP3    H138602   1.798   6.145   0.223 -0.7040 -0.0952 -0.8011
 5729TIP3    H238603   1.774   6.166   0.371  1.8822 -1.8155 -0.0740
 5730TIP3   OH238604   4.413   5.299   0.522  0.3244 -0.6252 -0.1709
 5730TIP3    H138605   4.495   5.303   0.472 -0.5804  1.0269 -1.6570
 5730TIP3    H238606   4.391   5.206   0.526  1.3051 -0.9336 -1.4184
 5731TIP3   OH238607   6.792   2.394   0.982  0.5866 -0.0458  0.0143
 5731TIP3    H138608   6.701   2.404   1.009  0.9187  1.4708  0.6318
 5731TIP3    H238609   6.842   2.443   1.047  2.0019 -2.1096  0.5694
 5732TIP3   OH238610   1.151   5.658  12.451  0.0997  0.4876  0.0815
 5732TIP3    H138611   1.212   5.663  12.525  0.9970 -1.4516 -0.4774
 5732TIP3    H238612   1.089   5.590  12.476 -0.6923  1.0890 -0.2083
 5733TIP3   OH238613   5.395   6.291  16.121  0.3906 -0.3012  0.0678
 5733TIP3    H138614   5.354   6.303  16.036  0.4079  1.2959  0.2614
 5733TIP3    H238615   5.322   6.289  16.183  0.5123  1.6370  0.3161
 5734TIP3   OH238616   1.982   6.331  11.111 -0.4040  0.6957  0.4805
 5734TIP3    H138617   1.972   6.239  11.087 -0.4075  0.0735  2.6462
 5734TIP3    H238618   1.978   6.378  11.027 -1.5475 -1.1545 -0.5834
 5735TIP3   OH238619   2.300   5.304  14.108  0.2212  0.2911 -0.6481
 5735TIP3    H138620   2.316   5.246  14.183 -1.9934  1.7093  1.0735
 5735TIP3    H238621   2.310   5.393  14.144 -0.6385  1.0125 -2.0930
 5736TIP3   OH238622   2.618   3.067  12.613  0.1759  0.0666  0.6284
 5736TIP3    H138623   2.599   3.155  12.647 -0.5834 -0.6908  2.3114
 5736TIP3    H238624   2.690   3.080  12.551 -1.1100  2.1055 -0.5598
 5737TIP3   OH238625   2.833   1.744   4.420  0.4318 -0.0879  0.3547
 5737TIP3    H138626   2.796   1.811   4.362  0.1746 -0.0880  0.5192
 5737TIP3    H238627   2.897   1.699   4.365 -1.0734 -1.2761 -0.4945
 5738TIP3   OH238628   3.934   0.615  12.874 -0.1460 -0.3716  0.2869
 5738TIP3    H138629   4.007   0.553  12.876  1.6357  1.5789 -0.4195
 5738TIP3    H238630   3.947   0.670  12.952 -0.8571  0.0027  0.1520
 5739TIP3   OH238631   1.679   4.946  16.549 -0.0544 -0.0556 -0.0858
 5739TIP3    H138632   1.642   5.033  16.568  0.5057 -0.2516  2.1618
 5739TIP3    H238633   1.753   4.964  16.490 -0.3480  0.9006 -0.1930
 5740TIP3   OH238634   5.081   0.230  11.833 -0.1153 -0.4051  0.1365
 5740TIP3    H138635   5.130   0.284  11.895  0.9116 -2.3006  1.0399
 5740TIP3    H238636   5.113   0.141  11.847 -1.6969 -1.2732 -1.3502
 5741TIP3   OH238637   5.689   4.753   4.731  0.5008 -0.2350  0.1723
 5741TIP3    H138638   5.675   4.739   4.824  1.5435  1.6223  0.6608
 5741TIP3    H238639   5.662   4.671   4.690 -0.5251 -0.8864  2.0353
 5742TIP3   OH238640   5.926   2.509   2.122 -0.4101  0.1898 -0.5480
 5742TIP3    H138641   5.877   2.575   2.171 -0.1961 -0.0771  0.0287
 5742TIP3    H238642   6.016   2.540   2.122 -0.0506 -0.7818  0.9226
 5743TIP3   OH238643   5.988   3.469   3.022 -0.2851 -0.3266 -0.1365
 5743TIP3    H138644   5.904   3.498   2.987 -0.1196  1.3478  0.7366
 5743TIP3    H238645   5.982   3.485   3.116  0.9262 -0.4196 -0.0220
 5744TIP3   OH238646   5.902   4.222   3.411 -0.0976  0.5152  0.3893
 5744TIP3    H138647   5.858   4.141   3.439 -2.7413  1.1346 -1.5787
 5744TIP3    H238648   5.858   4.291   3.461 -0.9651  1.0945 -1.1244
 5745TIP3   OH238649   5.509   0.750  12.329 -0.2263 -0.2279  0.4166
 5745TIP3    H138650   5.508   0.734  12.234  0.2293  0.2105  0.3369
 5745TIP3    H238651   5.424   0.718  12.359 -0.4926 -0.1021 -0.1845
 5746TIP3   OH238652   5.655   6.014   2.973  0.2654  0.1004  0.0852
 5746TIP3    H138653   5.566   6.044   2.994  0.3607  1.0591 -0.7990
 5746TIP3    H238654   5.648   5.919   2.971 -1.0490  0.1855 -1.2210
 5747TIP3   OH238655   2.770   6.490  16.977 -0.1414 -0.6287 -0.2984
 5747TIP3    H138656   2.691   6.473  17.029 -1.4931  1.2451 -1.6101
 5747TIP3    H238657   2.813   6.563  17.022 -0.1057 -0.4828 -0.5683
 5748TIP3   OH238658   0.314   3.672   2.506  0.0870 -0.3607  0.6118
 5748TIP3    H138659   0.284   3.690   2.595 -1.1339 -0.8731  0.3139
 5748TIP3    H238660   0.238   3.690   2.451  0.0919 -2.3544 -0.0962
 5749TIP3   OH238661   4.866   5.365  13.573  0.2236 -0.4012  0.4145
 5749TIP3    H138662   4.905   5.316  13.645 -1.2901  0.4690  1.9002
 5749TIP3    H238663   4.898   5.455  13.585 -1.5075  0.1444  1.1626
 5750TIP3   OH238664   5.563   2.009   0.184 -0.2667  0.6676  0.5007
 5750TIP3    H138665   5.577   1.952   0.109 -2.4109  1.6916 -0.7579
 5750TIP3    H238666   5.646   2.057   0.193  0.7320 -0.9330  0.1230
 5751TIP3   OH238667   4.444   6.785   1.556  0.0314 -0.2102 -0.2861
 5751TIP3    H138668   4.397   6.702   1.548  0.6505 -0.6036  0.0721
 5751TIP3    H238669   4.423   6.833   1.476 -2.6185  0.5042  0.7174
 5752TIP3   OH238670   3.926   3.585   0.777  0.0368 -0.2196  0.5736
 5752TIP3    H138671   3.959   3.495   0.777  1.1650  0.1872 -0.2129
 5752TIP3    H238672   3.834   3.576   0.804  0.2988 -1.5373  1.1008
 5753TIP3   OH238673   5.019   3.617  11.972  0.5460 -0.4119 -0.7973
 5753TIP3    H138674   5.098   3.610  11.917  1.8356 -1.6359  1.0874
 5753TIP3    H238675   4.992   3.708  11.963  1.1277 -0.3857 -2.8416
 5754TIP3   OH238676   2.145   3.847  11.989 -0.9346 -0.7715  0.1100
 5754TIP3    H138677   2.056   3.837  11.954 -1.6046 -1.2732  1.8281
 5754TIP3    H238678   2.139   3.923  12.047 -1.2703 -2.8878  3.0631
 5755TIP3   OH238679   6.781   6.375  13.679 -0.1978 -0.0859  0.0007
 5755TIP3    H138680   6.752   6.383  13.770  0.4656 -0.5938  0.2647
 5755TIP3    H238681   6.716   6.425  13.629  0.1812  1.3335  0.8805
 5756TIP3   OH238682   1.500   2.694  12.881 -0.7460 -0.5804  0.1679
 5756TIP3    H138683   1.445   2.651  12.815 -0.3703 -0.0434 -0.5098
 5756TIP3    H238684   1.575   2.636  12.892 -0.7896 -0.6513  0.0894
 5757TIP3   OH238685   0.182   4.551  13.902 -0.2568  0.0547 -0.1269
 5757TIP3    H138686   0.245   4.541  13.831  0.0966 -1.0987  0.3188
 5757TIP3    H238687   0.142   4.636  13.888  0.9655  0.5359 -0.7790
 5758TIP3   OH238688   1.056   5.345   0.383  0.5590  0.1044  0.2270
 5758TIP3    H138689   1.003   5.425   0.378  0.2431 -0.0146  1.4003
 5758TIP3    H238690   1.003   5.280   0.338  0.0180  0.1619  0.7582
 5759TIP3   OH238691   4.773   1.381  14.502  0.2626 -0.0010 -0.1166
 5759TIP3    H138692   4.715   1.366  14.428 -0.8401 -1.2250  0.9501
 5759TIP3    H238693   4.723   1.353  14.578  0.8902  2.3185  1.2703
 5760TIP3   OH238694   3.078   5.102   1.192 -0.2468 -0.1731 -0.5955
 5760TIP3    H138695   3.030   5.103   1.110 -0.1547  0.7365 -0.6485
 5760TIP3    H238696   3.072   5.011   1.223 -2.3184 -0.0050 -0.3948
 5761TIP3   OH238697   3.833   2.903  11.894  0.0613 -0.2350  0.1172
 5761TIP3    H138698   3.778   2.871  11.966  0.3180  0.5927  0.7026
 5761TIP3    H238699   3.772   2.929  11.826 -0.1944 -0.9231  0.0773
 5762TIP3   OH238700   6.066   2.334  13.114  0.0128 -0.2632  0.0226
 5762TIP3    H138701   6.061   2.429  13.127  2.7997  0.3039 -2.0334
 5762TIP3    H238702   6.149   2.308  13.155  2.0775 -0.6875 -3.8383
 5763TIP3   OH238703   2.396   0.335   1.690 -0.5580  0.0516  0.1298
 5763TIP3    H138704   2.367   0.372   1.774 -0.7791  0.7374 -0.2352
 5763TIP3    H238705   2.359   0.247   1.689 -1.1974  0.3071  0.4256
 5764TIP3   OH238706   1.107   4.865   0.796  0.0627 -0.1257  0.1091
 5764TIP3    H138707   1.094   4.958   0.814 -0.0044  0.1390 -1.2321
 5764TIP3    H238708   1.178   4.839   0.855  0.2641  0.8400  0.3003
 5765TIP3   OH238709   3.992   0.065   2.129 -0.0387  0.2743  0.4087
 5765TIP3    H138710   3.910   0.043   2.173 -0.1533 -0.7627 -0.3050
 5765TIP3    H238711   4.027   0.139   2.180 -1.9545  1.4924  0.0584
 5766TIP3   OH238712   4.858   2.905  13.940  0.3672 -0.1182 -0.4916
 5766TIP3    H138713   4.945   2.920  13.977 -0.0303 -0.2730  0.5488
 5766TIP3    H238714   4.798   2.930  14.010 -0.5073  2.1821 -1.9405
 5767TIP3   OH238715   3.690   2.640  14.271 -0.2453  0.4513 -0.2501
 5767TIP3    H138716   3.617   2.615  14.214 -0.6397  0.3332  0.2947
 5767TIP3    H238717   3.706   2.562  14.324  2.0463 -0.4859 -2.1509
 5768TIP3   OH238718   3.207   4.453   3.989 -0.0513 -0.2080  0.2994
 5768TIP3    H138719   3.158   4.399   3.928  1.2095  0.0345 -0.9832
 5768TIP3    H238720   3.264   4.392   4.035 -1.5079 -0.4920  1.8000
 5769TIP3   OH238721   3.380   6.006   1.139  0.1315  0.2136  0.4474
 5769TIP3    H138722   3.434   5.974   1.067 -0.0726 -0.6701  0.6729
 5769TIP3    H238723   3.399   6.099   1.144  0.6401  0.1596 -0.3259
 5770TIP3   OH238724   1.233   6.598  12.171 -0.6865  0.8613  0.6708
 5770TIP3    H138725   1.298   6.536  12.205 -1.0838  0.5111  0.7949
 5770TIP3    H238726   1.207   6.561  12.087  0.2214  1.6746  0.0069
 5771TIP3   OH238727   6.716   6.468  15.486 -0.2368  0.3304  0.1786
 5771TIP3    H138728   6.788   6.518  15.523 -0.5900  0.8071  0.2259
 5771TIP3    H238729   6.683   6.521  15.414  0.8691 -0.8827 -1.2999
 5772TIP3   OH238730   4.782   2.367  10.733 -0.2610 -0.6545  0.2180
 5772TIP3    H138731   4.782   2.424  10.656 -0.3340 -0.5102  0.3259
 5772TIP3    H238732   4.875   2.353  10.752 -0.0803  2.4105  2.4153
 5773TIP3   OH238733   4.248   1.483  15.309 -0.1149 -0.2093  0.1888
 5773TIP3    H138734   4.312   1.549  15.338 -2.2230  2.6890 -1.2074
 5773TIP3    H238735   4.188   1.474  15.383 -0.0491 -0.2557  0.2370
 5774TIP3   OH238736   2.429   1.248   2.023 -0.1312 -0.0001 -0.4591
 5774TIP3    H138737   2.429   1.328   2.076 -0.6860 -0.3602  0.0977
 5774TIP3    H238738   2.510   1.203   2.047  0.2158  0.4263 -0.8260
 5775TIP3   OH238739   0.978   6.168  13.126  0.4330  0.4304  0.1869
 5775TIP3    H138740   0.885   6.146  13.132  0.5600 -0.0090  0.6844
 5775TIP3    H238741   0.998   6.166  13.032 -0.2258  1.2687  0.0231
 5776TIP3   OH238742   2.260   4.277  13.363 -0.2177  0.2376  0.1046
 5776TIP3    H138743   2.309   4.221  13.424  1.7254 -0.5644 -2.0279
 5776TIP3    H238744   2.325   4.304  13.298 -1.8817  2.1974 -0.8575
 5777TIP3   OH238745   3.580   0.981   0.516 -0.4084  0.4659 -0.3382
 5777TIP3    H138746   3.563   1.073   0.497  0.2125  0.8384  0.7825
 5777TIP3    H238747   3.535   0.933   0.447 -1.6942  1.5644 -0.3157
 5778TIP3   OH238748   2.534   4.502   3.683  1.0086  0.2063  0.4632
 5778TIP3    H138749   2.617   4.490   3.637  0.5025 -1.3632 -0.1013
 5778TIP3    H238750   2.517   4.418   3.725 -1.2219 -0.1936 -1.0478
 5779TIP3   OH238751   4.503   0.516  16.695 -0.1158 -0.0678  0.2229
 5779TIP3    H138752   4.576   0.508  16.757 -0.9576 -0.3360  1.2161
 5779TIP3    H238753   4.427   0.538  16.750 -0.8928 -0.3310 -0.7112
 5780TIP3   OH238754   4.694   2.922   1.668 -0.0256 -0.3585 -0.5877
 5780TIP3    H138755   4.678   2.879   1.584 -4.0421  0.5023 -0.4790
 5780TIP3    H238756   4.704   3.015   1.645  1.7637 -0.4506 -0.2836
 5781TIP3   OH238757   0.010   0.785   0.261  0.0052 -0.6289  0.6449
 5781TIP3    H138758  -0.061   0.726   0.288 -0.2022 -0.7067 -0.0527
 5781TIP3    H238759  -0.025   0.872   0.276  0.1781 -0.6710  1.3386
 5782TIP3   OH238760   6.260   3.715   4.811 -0.6439 -0.3335  0.0999
 5782TIP3    H138761   6.254   3.691   4.718  1.6129 -0.6962  0.0008
 5782TIP3    H238762   6.295   3.804   4.810  0.4546 -0.7485  0.5950
 5783TIP3   OH238763   5.745   0.567   5.872 -0.0453  0.2597 -0.0562
 5783TIP3    H138764   5.821   0.535   5.823 -1.2848 -2.7011 -0.2864
 5783TIP3    H238765   5.778   0.584   5.960  1.0598 -0.1423 -0.3767
 5784TIP3   OH238766   2.929   2.753  11.772  0.6037 -0.0779 -0.4141
 5784TIP3    H138767   2.995   2.694  11.809  0.5317 -0.0031 -0.1696
 5784TIP3    H238768   2.847   2.726  11.814  0.8681  1.5071  1.2396
 5785TIP3   OH238769   0.371   2.343  12.302 -0.3757  0.2282 -0.9974
 5785TIP3    H138770   0.441   2.346  12.367 -0.5141  0.4940 -0.8587
 5785TIP3    H238771   0.294   2.377  12.348 -0.7741 -0.7103 -0.9338
 5786TIP3   OH238772   3.197   4.628  15.388  0.4700  0.1348  0.2623
 5786TIP3    H138773   3.184   4.716  15.422 -1.6906 -0.6243  1.6213
 5786TIP3    H238774   3.175   4.635  15.295  1.9524  1.3107 -0.0446
 5787TIP3   OH238775   5.355   3.983  13.063  0.2964  0.2025 -0.5981
 5787TIP3    H138776   5.337   4.074  13.087 -0.3030 -0.3911  1.3373
 5787TIP3    H238777   5.289   3.932  13.110  0.8092 -1.2720 -1.4195
 5788TIP3   OH238778   4.607   2.584  15.950  0.3724  0.0472  0.2644
 5788TIP3    H138779   4.635   2.613  16.037  1.4518 -1.0434  0.3094
 5788TIP3    H238780   4.633   2.492  15.946  0.0357 -0.0097 -1.0889
 5789TIP3   OH238781   5.921   5.224   5.632  0.3067  0.6784 -0.5385
 5789TIP3    H138782   5.840   5.214   5.683  0.2453 -0.4410 -0.8472
 5789TIP3    H238783   5.989   5.238   5.698  0.3638 -1.5785 -0.0674
 5790TIP3   OH238784   3.836   3.704  14.442 -0.1060  0.1552 -0.7610
 5790TIP3    H138785   3.922   3.666  14.457 -1.2194 -2.0677  0.4144
 5790TIP3    H238786   3.824   3.764  14.516  0.2983  0.2644 -0.7787
 5791TIP3   OH238787   1.891   5.435  12.540 -0.1867  0.0062  0.7136
 5791TIP3    H138788   1.834   5.401  12.609 -0.1862 -0.8389  0.3197
 5791TIP3    H238789   1.959   5.483  12.587  1.0129 -2.3037  1.5198
 5792TIP3   OH238790   1.578   6.345  11.609  0.2698  0.4155 -0.3150
 5792TIP3    H138791   1.582   6.342  11.513 -2.6810  2.1751 -0.6098
 5792TIP3    H238792   1.487   6.367  11.629  0.9485  0.8400  2.9041
 5793TIP3   OH238793   0.216   0.958   3.276 -0.6864  0.0624 -0.6319
 5793TIP3    H138794   0.301   1.001   3.287 -0.7391  0.0107 -0.0075
 5793TIP3    H238795   0.233   0.886   3.215  0.0604 -0.8781  0.6153
 5794TIP3   OH238796   0.462   3.864   1.706  0.4097  0.3471 -0.1034
 5794TIP3    H138797   0.437   3.892   1.618  1.6449  0.1305 -0.5339
 5794TIP3    H238798   0.383   3.878   1.759 -0.0057  1.4981 -1.0081
 5795TIP3   OH238799   6.172   5.012  14.226  0.4901 -0.3673 -0.4702
 5795TIP3    H138800   6.086   5.050  14.207  1.0688  0.1896 -2.2206
 5795TIP3    H238801   6.173   4.929  14.179  1.3722  0.2749 -1.6673
 5796TIP3   OH238802   5.399   1.528  12.107  0.5732  0.0599 -0.1591
 5796TIP3    H138803   5.338   1.577  12.161  0.0059 -0.7924  0.0050
 5796TIP3    H238804   5.350   1.449  12.082  0.2222  1.1163 -3.2121
 5797TIP3   OH238805   0.590   4.769   5.469  0.8388 -0.4710  0.2632
 5797TIP3    H138806   0.620   4.735   5.385  0.2027 -1.7555  0.5311
 5797TIP3    H238807   0.604   4.696   5.530  0.2033  0.0303  1.0227
 5798TIP3   OH238808   0.511   4.044  12.286  0.1020  0.1939  0.4787
 5798TIP3    H138809   0.476   4.068  12.200  0.3471 -1.4691 -0.1109
 5798TIP3    H238810   0.548   3.957  12.274  0.2291 -0.0374  2.2583
 5799TIP3   OH238811   5.851   3.140  10.572  0.5293  0.3684 -0.1164
 5799TIP3    H138812   5.857   3.082  10.496  0.9294  0.7561 -0.3863
 5799TIP3    H238813   5.909   3.101  10.637  0.2745  0.0975 -0.0507
 5800TIP3   OH238814   4.500   4.027  13.582 -0.4482 -0.3150  0.8012
 5800TIP3    H138815   4.438   4.087  13.625 -0.7983  0.3475 -0.5788
 5800TIP3    H238816   4.444   3.962  13.539 -0.0734 -1.5984  2.1653
 5801TIP3   OH238817   3.667   4.822   5.190  0.8451 -0.1811 -0.0056
 5801TIP3    H138818   3.605   4.801   5.260  1.4940 -2.2794  0.0140
 5801TIP3    H238819   3.727   4.885   5.229  0.6668 -0.6431  1.0576
 5802TIP3   OH238820   5.652   3.236   5.752  0.2867  0.4613 -0.0997
 5802TIP3    H138821   5.604   3.252   5.833 -0.2176 -0.2839 -0.2426
 5802TIP3    H238822   5.597   3.175   5.703  0.1782  1.5427 -1.3827
 5803TIP3   OH238823   3.542   2.118   1.148 -0.0601  0.0678 -0.0309
 5803TIP3    H138824   3.544   2.201   1.195  2.4961  0.6205 -0.9570
 5803TIP3    H238825   3.542   2.143   1.056  0.6980 -0.9444 -0.3224
 5804TIP3   OH238826   1.679   1.247  15.089  0.6364 -0.1782  0.2447
 5804TIP3    H138827   1.737   1.171  15.102  0.7422 -0.3344 -1.0164
 5804TIP3    H238828   1.607   1.213  15.037 -0.4700  0.0895  1.5542
 5805TIP3   OH238829   3.258   2.401   0.370  0.3740  0.4543  0.5813
 5805TIP3    H138830   3.322   2.358   0.314  0.1191 -1.1108  1.4127
 5805TIP3    H238831   3.297   2.398   0.458 -0.2696  0.6453  0.8801
 5806TIP3   OH238832   0.472   1.769   0.207  0.5165  0.2035  0.2655
 5806TIP3    H138833   0.404   1.766   0.140 -0.3906  0.2834  1.1695
 5806TIP3    H238834   0.505   1.680   0.212  0.4561  0.1555 -0.1463
 5807TIP3   OH238835   0.131   2.131   5.710 -0.3112 -0.4197 -0.1142
 5807TIP3    H138836   0.176   2.194   5.653 -1.9030  0.6937 -0.2198
 5807TIP3    H238837   0.196   2.109   5.777  0.3904  1.1307 -0.2404
 5808TIP3   OH238838   4.815   0.413  16.249 -0.1029 -0.0876  1.0697
 5808TIP3    H138839   4.745   0.475  16.228  0.4728 -0.4310 -2.4888
 5808TIP3    H238840   4.794   0.335  16.197  1.8160 -0.9625  1.5330
 5809TIP3   OH238841   2.865   2.116  11.566  0.0227  0.7004 -0.5650
 5809TIP3    H138842   2.875   2.105  11.472  2.1999  0.1916 -0.3175
 5809TIP3    H238843   2.892   2.206  11.583  1.6567  0.1837 -0.2255
 5810TIP3   OH238844   3.893   1.909  12.028  0.8671 -0.4093  0.9003
 5810TIP3    H138845   3.884   1.973  11.958  0.8873 -0.0950  1.1820
 5810TIP3    H238846   3.813   1.920  12.080  2.0927  1.3605  2.5673
 5811TIP3   OH238847   5.329   4.176  15.405  0.3492 -0.0869  0.1694
 5811TIP3    H138848   5.251   4.146  15.358  1.4793 -1.9775 -0.6272
 5811TIP3    H238849   5.374   4.234  15.342  1.8366 -2.5781 -1.2651
 5812TIP3   OH238850   5.729   0.082   5.892 -0.0061  0.3237  0.0032
 5812TIP3    H138851   5.676   0.154   5.926 -1.2916 -0.3384 -0.5284
 5812TIP3    H238852   5.733   0.098   5.798 -0.0843 -0.1577 -0.0848
 5813TIP3   OH238853   0.279   6.566   3.078  0.2656  0.1109  0.0509
 5813TIP3    H138854   0.267   6.534   2.988  1.7094  0.7231 -0.3904
 5813TIP3    H238855   0.363   6.612   3.076  0.4115 -0.0138  1.7653
 5814TIP3   OH238856   2.406   2.123  16.338  0.2984 -0.0011 -0.1197
 5814TIP3    H138857   2.493   2.084  16.334 -0.3429 -1.4659 -0.3647
 5814TIP3    H238858   2.422   2.217  16.350  1.9768  0.3284 -3.6758
 5815TIP3   OH238859   4.645   3.043   2.754  0.4821 -0.4325 -0.0716
 5815TIP3    H138860   4.655   2.962   2.704 -1.9383  0.0196 -1.4575
 5815TIP3    H238861   4.733   3.080   2.759  1.2169 -1.8714 -1.6314
 5816TIP3   OH238862   4.370   2.169  11.354  0.7658  0.8387  0.3193
 5816TIP3    H138863   4.398   2.100  11.413  0.6586  1.7540  1.4864
 5816TIP3    H238864   4.333   2.123  11.278 -0.7405 -0.4006  1.7289
 5817TIP3   OH238865   3.600   5.492   5.680  0.4903 -0.4606  0.9399
 5817TIP3    H138866   3.590   5.524   5.590 -0.1408  0.7197  1.4073
 5817TIP3    H238867   3.510   5.478   5.710  0.6390  0.2677  1.7629
 5818TIP3   OH238868   3.143   6.137   3.956  0.1326 -0.1471 -0.4557
 5818TIP3    H138869   3.116   6.052   3.989  2.3216 -0.5015  0.6472
 5818TIP3    H238870   3.108   6.200   4.019  2.0581 -0.6260  1.2012
 5819TIP3   OH238871   0.638   2.678   2.743  0.2244  0.4319  0.4295
 5819TIP3    H138872   0.728   2.654   2.722  0.7507  2.0166  0.7895
 5819TIP3    H238873   0.623   2.642   2.830  0.2433 -0.4369  0.0930
 5820TIP3   OH238874   5.471   1.696  16.844  0.5147 -0.3647  0.2617
 5820TIP3    H138875   5.423   1.692  16.927 -0.6533 -2.5510 -0.4322
 5820TIP3    H238876   5.497   1.605  16.827 -1.4762 -0.5111 -2.9276
 5821TIP3   OH238877   3.541   5.030   4.449  0.4319  0.1843  0.1327
 5821TIP3    H138878   3.530   5.045   4.355 -1.0527  2.7595  0.6323
 5821TIP3    H238879   3.456   4.998   4.478  1.2997 -2.0304  0.4515
 5822TIP3   OH238880   2.092   0.677   1.506  0.6638  0.2366  0.1808
 5822TIP3    H138881   2.175   0.632   1.487 -0.2389 -0.8738 -1.3707
 5822TIP3    H238882   2.055   0.696   1.420 -0.8586  0.4181  0.8496
 5823TIP3   OH238883   1.790   4.298  12.845 -0.5066 -0.0174  0.1037
 5823TIP3    H138884   1.723   4.245  12.890 -0.7568  0.6026  0.4750
 5823TIP3    H238885   1.748   4.383  12.831  0.0236  0.2080 -0.1402
 5824TIP3   OH238886   6.307   5.310  10.778 -0.8804 -0.4376 -0.4942
 5824TIP3    H138887   6.365   5.265  10.716 -0.3518  0.0880 -0.3916
 5824TIP3    H238888   6.234   5.340  10.724 -0.4265  0.0114 -0.8716
 5825TIP3   OH238889   0.607   1.247   3.107 -0.3207 -0.2640  0.0052
 5825TIP3    H138890   0.562   1.227   3.025 -0.1587 -0.9766  0.0846
 5825TIP3    H238891   0.685   1.191   3.106 -0.9411 -1.2084  1.1948
 5826TIP3   OH238892   2.110   4.735  13.192 -0.4091 -0.0206 -0.7264
 5826TIP3    H138893   2.087   4.779  13.274  0.3200 -0.5275 -0.2282
 5826TIP3    H238894   2.202   4.710  13.204 -0.0879  0.4923 -1.9778
 5827TIP3   OH238895   4.053   3.118   1.758 -0.5584 -0.1547  0.1529
 5827TIP3    H138896   4.104   3.194   1.731 -1.2296  0.4637  0.5864
 5827TIP3    H238897   4.109   3.073   1.821 -0.5758  0.5807  0.7114
 5828TIP3   OH238898   6.241   3.192  16.911 -0.2375 -0.6440  0.0607
 5828TIP3    H138899   6.251   3.173  17.004 -0.4863 -2.3096 -0.2155
 5828TIP3    H238900   6.146   3.190  16.896 -0.2515  0.4612 -0.0874
 5829TIP3   OH238901   1.199   5.755   1.350  0.5450 -0.2897 -1.0933
 5829TIP3    H138902   1.220   5.664   1.372 -1.9674 -0.6013  0.5132
 5829TIP3    H238903   1.234   5.806   1.423 -2.2890 -0.6248  0.6668
 5830TIP3   OH238904   0.496   0.452  15.000 -0.2754  0.1614 -0.3770
 5830TIP3    H138905   0.439   0.454  14.923  0.1924  0.5881 -0.7167
 5830TIP3    H238906   0.560   0.521  14.984  0.7310 -0.7384 -0.2938
 5831TIP3   OH238907   6.017   3.219  16.445 -0.0221  0.1812  0.2429
 5831TIP3    H138908   6.058   3.132  16.438  0.4051  0.3039  1.1029
 5831TIP3    H238909   5.923   3.201  16.439  0.1288 -0.0571 -2.2396
 5832TIP3   OH238910   1.758   4.680  13.874  0.1901 -0.4185 -0.1199
 5832TIP3    H138911   1.775   4.614  13.807 -1.8255  0.6100 -1.7884
 5832TIP3    H238912   1.771   4.764  13.828 -0.8434  0.3147  0.8507
 5833TIP3   OH238913   2.129   2.596  16.412  0.0525  0.0650  0.8453
 5833TIP3    H138914   2.200   2.532  16.403  1.7724  1.6365  2.4061
 5833TIP3    H238915   2.169   2.680  16.388 -1.1826  1.0398  2.0641
 5834TIP3   OH238916   3.762   5.265  12.395 -0.3196 -0.1586  0.3667
 5834TIP3    H138917   3.691   5.267  12.331 -0.0024 -1.2092 -0.0335
 5834TIP3    H238918   3.835   5.310  12.352 -0.4294  0.0518  0.3978
 5835TIP3   OH238919   5.210   3.895  11.237  0.6932 -0.3625  0.0650
 5835TIP3    H138920   5.302   3.885  11.213 -0.2429 -1.5975 -3.6183
 5835TIP3    H238921   5.188   3.984  11.209  0.3503 -0.7308 -0.8823
 5836TIP3   OH238922   6.684   2.008  10.886  0.3149  0.1433  0.0975
 5836TIP3    H138923   6.640   2.039  10.807 -1.9690 -0.9832  0.8415
 5836TIP3    H238924   6.754   1.951  10.853 -1.3040 -1.2332 -1.1895
 5837TIP3   OH238925   1.030   1.897  11.984 -0.2972 -0.3589  0.9295
 5837TIP3    H138926   0.994   1.978  12.019  0.1981 -0.6767  2.2291
 5837TIP3    H238927   0.955   1.852  11.944 -0.7784  0.2493  1.1401
 5838TIP3   OH238928   6.768   3.459  16.306 -0.0091 -0.6796 -0.1003
 5838TIP3    H138929   6.736   3.462  16.216 -0.1242 -1.0102 -0.0707
 5838TIP3    H238930   6.818   3.540  16.316 -2.6920  1.0110  0.5487
 5839TIP3   OH238931   4.997   0.024   4.923  0.3857 -0.3996  0.3229
 5839TIP3    H138932   5.025   0.111   4.949 -1.6054  0.4548 -0.2322
 5839TIP3    H238933   5.023  -0.032   4.996  0.8626  0.8152  1.1129
 5840TIP3   OH238934   1.804   1.906  15.664 -0.5102  0.2288 -0.1928
 5840TIP3    H138935   1.804   1.995  15.628  1.5797 -0.1050 -1.2030
 5840TIP3    H238936   1.716   1.893  15.698 -0.4750  3.2170  1.3332
 5841TIP3   OH238937   3.530   2.536  16.032  0.2830 -0.1141 -0.1124
 5841TIP3    H138938   3.452   2.514  16.084  0.9567  2.1780  2.0865
 5841TIP3    H238939   3.603   2.528  16.094  1.2552  1.8609 -0.9013
 5842TIP3   OH238940   0.714   2.588  14.631  0.5649  0.2917 -0.0001
 5842TIP3    H138941   0.688   2.581  14.723  0.6804 -1.9187 -0.0947
 5842TIP3    H238942   0.683   2.675  14.604  1.6668  1.5178  2.4385
 5843TIP3   OH238943   5.264   0.877  15.691  0.5441 -0.2570  0.0789
 5843TIP3    H138944   5.206   0.954  15.692  0.4999 -0.2729 -0.6970
 5843TIP3    H238945   5.220   0.814  15.748  0.8168  0.4556  1.1053
 5844TIP3   OH238946   1.876   6.186   3.916 -0.2152  0.1226 -0.4424
 5844TIP3    H138947   1.802   6.181   3.976 -0.0266  1.4485 -0.0797
 5844TIP3    H238948   1.860   6.265   3.865  0.3900 -0.1903 -1.1429
 5845TIP3   OH238949   1.483   6.479  15.743  0.2230  0.1142  0.2097
 5845TIP3    H138950   1.522   6.511  15.824  2.0353  0.7216 -0.8463
 5845TIP3    H238951   1.468   6.558  15.691  1.4642 -0.4188 -1.0281
 5846TIP3   OH238952   3.679   4.492   3.366  0.0263  0.2357  0.1887
 5846TIP3    H138953   3.590   4.463   3.386 -0.1739  0.6725 -0.0527
 5846TIP3    H238954   3.668   4.558   3.298  0.6822 -1.0189 -1.1687
 5847TIP3   OH238955   3.318   4.022  12.736  0.3059 -0.1746 -0.0908
 5847TIP3    H138956   3.281   3.941  12.770 -0.0995 -0.3302 -0.8791
 5847TIP3    H238957   3.413   4.012  12.749  0.2502 -0.7211 -0.0698
 5848TIP3   OH238958   1.404   5.215  13.535 -0.3965  0.3345  0.4850
 5848TIP3    H138959   1.325   5.166  13.556 -0.0919  0.0272  0.9359
 5848TIP3    H238960   1.393   5.300  13.579 -0.8219  0.5908 -0.1067
 5849TIP3   OH238961   4.228   0.608  12.616 -0.5996  0.7284 -0.2518
 5849TIP3    H138962   4.235   0.520  12.580  0.4654  0.9213 -0.5595
 5849TIP3    H238963   4.219   0.665  12.540 -0.7111  0.9308 -0.0886
 5850TIP3   OH238964   4.161   0.521   4.902 -0.2461 -0.0426  0.7294
 5850TIP3    H138965   4.093   0.456   4.885 -1.8823  0.9300  3.0308
 5850TIP3    H238966   4.174   0.564   4.817 -1.3801 -1.2780 -0.1165
 5851TIP3   OH238967   6.676   3.708  13.184  0.7144  0.0269  0.3605
 5851TIP3    H138968   6.717   3.628  13.153 -0.1313  0.1486 -1.1793
 5851TIP3    H238969   6.661   3.760  13.104 -2.0041  0.1599  0.8709
 5852TIP3   OH238970   2.527   4.494   2.876 -0.2484  0.2326  0.0765
 5852TIP3    H138971   2.586   4.569   2.867 -2.0062  1.4517 -1.9788
 5852TIP3    H238972   2.552   4.455   2.960  2.5063  1.4980 -0.0425
 5853TIP3   OH238973   2.710   4.870   1.774 -0.2613  0.6774 -0.0317
 5853TIP3    H138974   2.798   4.873   1.811 -0.0847  0.5076 -0.4298
 5853TIP3    H238975   2.721   4.826   1.690 -0.7289  0.6461 -0.0806
 5854TIP3   OH238976   1.562   4.093   0.024 -0.2919  0.7355 -0.6312
 5854TIP3    H138977   1.612   4.013   0.007 -0.0840  0.5913  0.5444
 5854TIP3    H238978   1.607   4.161  -0.025  1.7784  0.8281  1.2844
 5855TIP3   OH238979   2.523   4.439  16.974 -0.5107  0.5994  0.2036
 5855TIP3    H138980   2.432   4.414  16.959 -0.4745  0.3305  0.4155
 5855TIP3    H238981   2.521   4.495  17.051 -0.7319  2.2252 -0.9435
 5856TIP3   OH238982   2.286   4.903   3.942  0.3456 -0.6728 -0.1815
 5856TIP3    H138983   2.321   4.963   4.008 -1.2062 -0.2460  0.2971
 5856TIP3    H238984   2.363   4.863   3.902  1.4099  1.4197 -0.3199
 5857TIP3   OH238985   3.163   4.365   2.465  0.0397  0.3136  0.9667
 5857TIP3    H138986   3.096   4.364   2.533  0.4337  2.7606  1.4818
 5857TIP3    H238987   3.136   4.297   2.404 -0.4341 -1.8749  3.4254
 5858TIP3   OH238988   3.074   3.140  14.289 -0.1743  0.3064  0.3651
 5858TIP3    H138989   3.097   3.125  14.380  0.3676 -0.6474  0.0759
 5858TIP3    H238990   3.012   3.214  14.292 -1.0548 -0.4492  1.5956
 5859TIP3   OH238991   3.495   1.463  10.337 -0.5368 -0.5191  0.2692
 5859TIP3    H138992   3.513   1.537  10.395 -1.2580 -0.6644  0.6945
 5859TIP3    H238993   3.553   1.477  10.261  0.8362 -0.6218  1.2541
 5860TIP3   OH238994   1.699   6.219   4.141 -0.2925  0.0646 -0.7678
 5860TIP3    H138995   1.748   6.297   4.167 -0.8921 -0.1282  1.0731
 5860TIP3    H238996   1.608   6.241   4.162 -0.2310 -1.9948  2.2675
 5861TIP3   OH238997   2.125   0.433   5.859  0.1384  0.2075  0.2989
 5861TIP3    H138998   2.034   0.440   5.830  0.1615  0.1081  0.1979
 5861TIP3    H238999   2.123   0.458   5.951  0.3921  2.6795 -0.2870
 5862TIP3   OH239000   2.194   4.645   5.031 -0.0343  0.1680  0.2044
 5862TIP3    H139001   2.173   4.552   5.044  0.0369  0.0004 -0.7809
 5862TIP3    H239002   2.271   4.644   4.975  2.3510  0.7819  3.2055
 5863TIP3   OH239003   3.070   5.330  11.368  0.3159  0.0748 -0.4453
 5863TIP3    H139004   3.139   5.374  11.418  0.6790  0.6994 -1.4485
 5863TIP3    H239005   3.102   5.241  11.355 -0.6620 -0.7292  2.0710
 5864TIP3   OH239006   6.431   4.314  15.630 -0.2352 -0.5932  0.4926
 5864TIP3    H139007   6.450   4.248  15.696  0.6012  0.7042  1.6181
 5864TIP3    H239008   6.345   4.349  15.655 -1.9419 -2.9415 -1.6114
 5865TIP3   OH239009   3.119   2.301  14.474 -0.7136  0.6239 -0.2801
 5865TIP3    H139010   3.098   2.209  14.490  0.7861  0.3348  0.1898
 5865TIP3    H239011   3.181   2.299  14.402  1.2433  1.0148  1.2979
 5866TIP3   OH239012   6.160   3.675   2.965  0.9461 -0.2570  0.3980
 5866TIP3    H139013   6.120   3.588   2.972  1.3550 -0.4033  0.9045
 5866TIP3    H239014   6.092   3.729   2.923  0.4795 -0.6748  0.6090
 5867TIP3   OH239015   0.470   2.086   2.831 -0.1731 -0.3636  0.1483
 5867TIP3    H139016   0.400   2.150   2.833  0.6844  0.5874  1.9889
 5867TIP3    H239017   0.479   2.063   2.739  0.6613  3.5008 -0.8770
 5868TIP3   OH239018   3.784   6.681  14.441  0.2162  0.3079  0.3308
 5868TIP3    H139019   3.700   6.647  14.411  1.0400  1.0465 -3.2541
 5868TIP3    H239020   3.831   6.603  14.472 -0.8091 -0.5279 -0.1433
 5869TIP3   OH239021   6.592   4.352   2.059  0.5752  0.5526  0.0135
 5869TIP3    H139022   6.617   4.337   2.150 -0.2909 -0.1165  0.1520
 5869TIP3    H239023   6.659   4.308   2.007 -0.1951 -1.1139  0.3737
 5870TIP3   OH239024   0.261   2.988  12.926  0.3684  0.0836 -0.5749
 5870TIP3    H139025   0.167   2.981  12.941  0.1544  0.2576 -1.7669
 5870TIP3    H239026   0.290   3.057  12.985 -0.5083  1.0316 -1.2239
 5871TIP3   OH239027   6.670   5.905   1.949  0.2870 -1.0349 -0.1834
 5871TIP3    H139028   6.618   5.982   1.970  0.3594 -0.5277 -1.7342
 5871TIP3    H239029   6.647   5.841   2.017 -0.9774 -0.2026  0.2094
 5872TIP3   OH239030   2.230   3.318   2.860  0.6959 -0.0990  0.1419
 5872TIP3    H139031   2.136   3.321   2.839  0.3707 -0.2984  1.4628
 5872TIP3    H239032   2.273   3.346   2.780 -0.5518  1.3589 -0.0743
 5873TIP3   OH239033   1.115   6.765   3.511  0.4239 -0.3494 -0.1031
 5873TIP3    H139034   1.176   6.721   3.571  0.3029 -2.1374 -1.2251
 5873TIP3    H239035   1.170   6.794   3.438  0.2950  0.2318  0.0262
 5874TIP3   OH239036   1.081   3.839  16.277  0.0536  0.0454  0.1563
 5874TIP3    H139037   1.060   3.750  16.250  1.0403  0.1710 -1.1252
 5874TIP3    H239038   1.002   3.890  16.259 -0.1922 -0.3959 -0.0139
 5875TIP3   OH239039   1.297   6.393  11.697  0.1863  0.0997 -0.3676
 5875TIP3    H139040   1.266   6.463  11.640  0.6292  0.5024 -0.1245
 5875TIP3    H239041   1.259   6.313  11.660  0.9094  0.2836 -1.5615
 5876TIP3   OH239042   0.023   1.649   1.663 -0.2069 -0.0269 -0.5459
 5876TIP3    H139043   0.023   1.617   1.753 -1.3823  1.1095 -0.1121
 5876TIP3    H239044  -0.050   1.603   1.621  0.6741 -0.9597 -1.0903
 5877TIP3   OH239045   3.118   0.011   3.096 -0.5168 -0.0318 -0.1813
 5877TIP3    H139046   3.159   0.020   3.010  1.1735  1.5522  0.7199
 5877TIP3    H239047   3.024   0.004   3.077 -0.1604 -0.0745 -2.1525
 5878TIP3   OH239048   3.024   5.527   2.936  0.2204  0.1557  0.2108
 5878TIP3    H139049   3.077   5.575   2.873 -1.1443  0.0091 -1.1038
 5878TIP3    H239050   3.084   5.508   3.008  1.7352  0.6428 -0.8667
 5879TIP3   OH239051   6.062   2.643  11.079  0.0361  0.0163 -0.2631
 5879TIP3    H139052   6.035   2.557  11.048  0.2923  0.1347 -0.8313
 5879TIP3    H239053   6.155   2.650  11.055 -0.2587  0.8920 -1.2677
 5880TIP3   OH239054   0.251   5.692   0.124 -0.0457 -0.2431 -0.0216
 5880TIP3    H139055   0.283   5.757   0.186  0.7270 -2.0655  1.6079
 5880TIP3    H239056   0.187   5.641   0.174  1.7677 -2.7941 -0.0772
 5881TIP3   OH239057   1.241   2.163   6.393 -0.3540  0.1969  0.5255
 5881TIP3    H139058   1.197   2.078   6.387  1.0885 -0.5311 -0.0827
 5881TIP3    H239059   1.329   2.147   6.360  0.1957  1.7565  1.1550
 5882TIP3   OH239060   2.334   6.339  11.715  0.0797 -0.1973  0.4809
 5882TIP3    H139061   2.384   6.407  11.760  0.4562  0.2801 -0.6093
 5882TIP3    H239062   2.312   6.276  11.783  1.8393 -0.2261  1.0701
 5883TIP3   OH239063   6.017   4.472  15.242 -0.1733  0.3283  0.1616
 5883TIP3    H139064   6.089   4.517  15.287 -0.4096  1.7295 -0.8117
 5883TIP3    H239065   5.984   4.411  15.308  1.5692 -0.0086  0.7947
 5884TIP3   OH239066   6.564   4.880   1.392 -0.0120  0.1110 -0.0720
 5884TIP3    H139067   6.619   4.940   1.443  0.6574 -0.3669 -0.2154
 5884TIP3    H239068   6.560   4.920   1.305  0.1289  0.1363 -0.0675
 5885TIP3   OH239069   0.964   6.494  11.281  0.7859  0.2561  0.3506
 5885TIP3    H139070   0.960   6.416  11.224 -1.4900  0.9662 -0.5822
 5885TIP3    H239071   0.990   6.565  11.223 -0.4551  0.7823  0.4055
 5886TIP3   OH239072   1.366   4.925   3.516 -0.0018 -0.3548 -0.7561
 5886TIP3    H139073   1.457   4.901   3.529  0.0740  0.0682 -0.4735
 5886TIP3    H239074   1.363   4.963   3.428 -0.0602 -1.0850 -1.0751
 5887TIP3   OH239075   2.637   6.417   2.654  0.3811 -0.2376 -0.1261
 5887TIP3    H139076   2.731   6.409   2.639  0.9570  3.1445  0.8353
 5887TIP3    H239077   2.610   6.492   2.601 -0.6376  2.0842  3.2755
 5888TIP3   OH239078   1.341   2.228   0.934 -0.6645 -0.2649  0.4351
 5888TIP3    H139079   1.299   2.174   0.867 -0.5566  0.2037 -0.0131
 5888TIP3    H239080   1.280   2.299   0.949 -0.2635  0.1489  0.1414
 5889TIP3   OH239081   5.185   1.542  12.803 -0.1484  0.1319 -0.3872
 5889TIP3    H139082   5.248   1.589  12.857 -0.4782 -0.5631  0.6187
 5889TIP3    H239083   5.234   1.467  12.768 -0.3515 -0.2828  0.2117
 5890TIP3   OH239084   0.540   5.780  14.139 -0.2273 -0.2129 -0.0030
 5890TIP3    H139085   0.522   5.808  14.228  2.3376  1.5079  0.0938
 5890TIP3    H239086   0.634   5.763  14.138  0.2037  1.6751 -2.7759
 5891TIP3   OH239087   2.788   3.710  14.593  0.7913  0.0977 -0.5585
 5891TIP3    H139088   2.815   3.775  14.657 -0.3771 -1.2573  1.4387
 5891TIP3    H239089   2.698   3.735  14.570 -0.8074 -2.2102  2.4380
 5892TIP3   OH239090   0.829   5.225  15.321 -0.0845  0.4700 -0.6119
 5892TIP3    H139091   0.747   5.187  15.354 -0.1707 -0.1748 -1.5293
 5892TIP3    H239092   0.801   5.282  15.249  0.1750  1.2422 -0.1188
 5893TIP3   OH239093   5.831   0.029   1.326  0.2268  0.2014 -0.0593
 5893TIP3    H139094   5.860  -0.028   1.398 -1.4240  0.1530  0.6039
 5893TIP3    H239095   5.798  -0.032   1.260 -2.6157  0.3238  1.1215
 5894TIP3   OH239096   1.516   1.232  13.610 -0.5928  1.4403  0.3699
 5894TIP3    H139097   1.568   1.153  13.629 -1.6025  0.7690  0.3924
 5894TIP3    H239098   1.467   1.248  13.690 -2.4370  0.4794 -0.5117
 5895TIP3   OH239099   1.345   1.660  11.932 -0.2331  0.2981  0.0820
 5895TIP3    H139100   1.357   1.746  11.893  0.5591  0.6420  1.0286
 5895TIP3    H239101   1.424   1.611  11.908  0.4272  0.6220  1.4530
 5896TIP3   OH239102   2.787   5.006   6.181  0.1691  0.1844 -0.1767
 5896TIP3    H139103   2.872   5.024   6.140  0.0077  0.4858 -0.3847
 5896TIP3    H239104   2.790   4.913   6.204  0.8405  0.3604  0.4889
 5897TIP3   OH239105   6.374   3.847   0.843 -0.1190 -0.4243 -0.2489
 5897TIP3    H139106   6.320   3.806   0.776 -3.3564  1.2794  1.0842
 5897TIP3    H239107   6.331   3.931   0.861  3.7929  1.8097  0.0349
 5898TIP3   OH239108   2.287   5.436  10.509  0.9387 -0.1692  0.2848
 5898TIP3    H139109   2.298   5.531  10.511 -2.1862  0.4526 -2.3669
 5898TIP3    H239110   2.204   5.420  10.552  0.9562 -1.5781 -0.1359
 5899TIP3   OH239111   3.287   0.558   0.740 -0.5902  0.2306  0.3405
 5899TIP3    H139112   3.309   0.466   0.725 -0.5450  0.4126 -0.8812
 5899TIP3    H239113   3.367   0.597   0.774 -0.5613 -0.1502  0.7153
 5900TIP3   OH239114   3.739   6.647   3.560  0.0387  0.1113 -0.1800
 5900TIP3    H139115   3.826   6.647   3.599 -0.0198  3.8627  0.3259
 5900TIP3    H239116   3.689   6.584   3.613  1.7852 -0.1733  1.2230
 5901TIP3   OH239117   3.470   3.907  13.430  0.4330  0.3863 -0.4249
 5901TIP3    H139118   3.539   3.864  13.481  0.4338  1.4516  0.4992
 5901TIP3    H239119   3.394   3.849  13.440  1.0269 -0.5103 -0.9981
 5902TIP3   OH239120   2.277   0.156  16.134 -0.3455 -0.3846 -0.4403
 5902TIP3    H139121   2.237   0.193  16.056  1.7478 -1.6759 -2.2347
 5902TIP3    H239122   2.246   0.066  16.137  0.9307 -0.8617 -0.8373
 5903TIP3   OH239123   0.346   3.473   2.810  0.5106 -0.3434 -0.7521
 5903TIP3    H139124   0.413   3.445   2.872 -0.4234 -1.8255 -0.3487
 5903TIP3    H239125   0.392   3.477   2.726  1.7772  1.6590 -0.0274
 5904TIP3   OH239126   6.383   4.108  14.179 -0.0712 -0.6058 -0.1945
 5904TIP3    H139127   6.418   4.054  14.108 -0.1764 -2.0626  0.8115
 5904TIP3    H239128   6.441   4.091  14.253 -1.4552 -1.1554  0.8024
 5905TIP3   OH239129   0.366   6.687   0.308  0.3680 -0.0454 -0.0036
 5905TIP3    H139130   0.286   6.637   0.328  1.7113 -1.8039  1.3524
 5905TIP3    H239131   0.353   6.717   0.219 -1.2924 -1.3883 -0.2777
 5906TIP3   OH239132   6.543   5.922  13.231  0.1053  0.1695 -0.0846
 5906TIP3    H139133   6.478   5.988  13.204 -0.9501 -0.0978  1.6589
 5906TIP3    H239134   6.556   5.938  13.324  0.9805 -1.1392  0.0361
 5907TIP3   OH239135   2.158   0.697  12.323 -0.1453 -0.2170  0.4795
 5907TIP3    H139136   2.143   0.763  12.255  0.0244  0.0093  0.6556
 5907TIP3    H239137   2.091   0.631  12.309  0.4272 -0.6188 -0.4625
 5908TIP3   OH239138   1.564   0.521   0.398  0.0982  0.3435 -0.3428
 5908TIP3    H139139   1.496   0.542   0.462 -0.1774 -1.6658  0.1002
 5908TIP3    H239140   1.595   0.606   0.367  0.7409  1.4789  2.9570
 5909TIP3   OH239141   5.096   4.335   1.426 -0.4165  0.8747  0.0840
 5909TIP3    H139142   5.043   4.412   1.407  1.1626  1.5512 -1.9631
 5909TIP3    H239143   5.175   4.370   1.468 -0.9252  0.0219  1.8686
 5910TIP3   OH239144   3.383   4.135  15.430  0.3901  0.2583 -0.2202
 5910TIP3    H139145   3.406   4.221  15.464 -0.9780  1.4122 -1.9900
 5910TIP3    H239146   3.400   4.142  15.336 -1.7773 -0.6583 -0.7258
 5911TIP3   OH239147   1.307   1.693  12.972  0.1149 -0.0591  0.0564
 5911TIP3    H139148   1.330   1.610  13.013 -0.4574  0.7668  2.1514
 5911TIP3    H239149   1.358   1.759  13.019 -0.9603  0.9854 -0.1751
 5912TIP3   OH239150   5.566   0.636  16.169  0.0715  0.1431  0.8249
 5912TIP3    H139151   5.533   0.673  16.088  2.4732 -1.0180 -0.7959
 5912TIP3    H239152   5.487   0.617  16.220 -1.5535  0.5035 -1.3831
 5913TIP3   OH239153   1.798   5.591   2.294  0.2406 -0.1376 -0.5057
 5913TIP3    H139154   1.752   5.649   2.355 -0.2123  2.0196 -2.7124
 5913TIP3    H239155   1.874   5.560   2.343 -0.1971  1.3185  1.2247
 5914TIP3   OH239156   0.270   5.485   6.658 -0.1304 -0.3176  0.0706
 5914TIP3    H139157   0.335   5.526   6.715 -1.3010 -0.1122  1.3068
 5914TIP3    H239158   0.299   5.394   6.649 -0.8907 -0.8619  2.5416
 5915TIP3   OH239159   4.253   2.376  14.908  0.0912  0.1427  0.1009
 5915TIP3    H139160   4.348   2.377  14.897 -0.1512 -0.6626 -3.1804
 5915TIP3    H239161   4.226   2.467  14.893  0.3312  0.4432  1.3922
 5916TIP3   OH239162   3.523   0.436  10.502 -0.1707  0.6715  0.5747
 5916TIP3    H139163   3.569   0.372  10.448  0.3304  1.3144  0.2351
 5916TIP3    H239164   3.524   0.517  10.451 -0.4345  1.0674  1.1787
 5917TIP3   OH239165   5.895   4.956   4.716 -0.0114  0.2815  0.4530
 5917TIP3    H139166   5.843   5.035   4.732 -1.1960 -0.5334  0.6728
 5917TIP3    H239167   5.839   4.884   4.743  1.0691 -0.6490  0.2712
 5918TIP3   OH239168   1.993   5.712   0.571 -0.4789  0.1040 -0.0971
 5918TIP3    H139169   1.943   5.691   0.650 -0.5489 -1.9968 -0.6365
 5918TIP3    H239170   2.084   5.692   0.595 -0.3790  0.3505 -0.2710
 5919TIP3   OH239171   4.483   0.248  12.884 -0.2561  0.6540  0.2357
 5919TIP3    H139172   4.528   0.283  12.961  0.9451 -0.3385  0.0233
 5919TIP3    H239173   4.417   0.189  12.921  0.2795  0.2209  0.5239
 5920TIP3   OH239174   0.218   4.254  15.895  0.3917 -0.3385  0.0897
 5920TIP3    H139175   0.181   4.173  15.931  0.1772  0.5236  1.9304
 5920TIP3    H239176   0.291   4.225  15.841  1.6250 -1.7149  2.3342
 5921TIP3   OH239177   4.443   0.336   2.899 -0.2683 -0.9848 -0.2861
 5921TIP3    H139178   4.350   0.317   2.888 -0.2116 -1.5073  0.0967
 5921TIP3    H239179   4.445   0.426   2.932 -0.5910 -0.6719 -1.0914
 5922TIP3   OH239180   0.845   6.137  16.928  0.6499  0.0873 -0.3364
 5922TIP3    H139181   0.918   6.108  16.875  2.3720  1.9092  0.8802
 5922TIP3    H239182   0.873   6.122  17.019 -1.8655 -2.1959  0.1901
 5923TIP3   OH239183   5.733   5.490   4.355  0.3746  0.4643  0.4729
 5923TIP3    H139184   5.678   5.569   4.353 -0.4435 -0.0978 -1.2964
 5923TIP3    H239185   5.821   5.523   4.337 -0.0361  0.9695 -0.7889
 5924TIP3   OH239186   2.767   1.142  16.966  0.4472 -0.4811  0.4833
 5924TIP3    H139187   2.812   1.123  17.048  1.1725  1.6308  0.6274
 5924TIP3    H239188   2.750   1.236  16.969  2.8704  0.2532 -2.9111
 5925TIP3   OH239189   3.995   0.321   4.826 -0.8115  0.0016 -0.2122
 5925TIP3    H139190   3.960   0.296   4.740  0.2174 -0.6935 -0.4522
 5925TIP3    H239191   4.006   0.238   4.872 -1.3888  0.3745  0.6173
 5926TIP3   OH239192   6.611   1.191   3.495  0.2003  0.0242 -0.4432
 5926TIP3    H139193   6.568   1.202   3.579 -0.3010 -1.9802 -0.3697
 5926TIP3    H239194   6.700   1.223   3.509 -0.1271  0.5269  0.5870
 5927TIP3   OH239195   4.062   2.430  13.467  0.5115  0.6843 -0.0902
 5927TIP3    H139196   4.009   2.460  13.393  2.6977  0.6570 -1.7659
 5927TIP3    H239197   4.088   2.341  13.444  0.0333  0.1214  1.4354
 5928TIP3   OH239198   0.906   2.841  16.963  0.2476 -0.1961  0.1790
 5928TIP3    H139199   0.893   2.797  16.880 -1.8376 -0.1913  0.4583
 5928TIP3    H239200   0.913   2.771  17.027 -1.2280 -0.1993  0.3742
 5929TIP3   OH239201   6.078   4.919   4.907  0.1009  0.4661 -0.1522
 5929TIP3    H139202   6.073   5.006   4.947  1.5098  0.9156 -0.8815
 5929TIP3    H239203   6.023   4.926   4.829  0.9036  1.0150 -0.6937
 5930TIP3   OH239204   4.890   2.951   0.732  0.7728  0.0976  0.5405
 5930TIP3    H139205   4.804   2.952   0.774  1.1259 -2.3836  1.5260
 5930TIP3    H239206   4.946   2.905   0.795  1.8123 -1.9969 -1.7590
 5931TIP3   OH239207   5.728   0.046  14.131  0.2133 -0.2399 -0.1235
 5931TIP3    H139208   5.764   0.092  14.207  0.1584 -0.1487 -0.1526
 5931TIP3    H239209   5.780  -0.035  14.126  1.8193  0.8142 -1.3996
 5932TIP3   OH239210   6.702   3.715  11.988 -0.5307 -0.2169 -0.2283
 5932TIP3    H139211   6.741   3.718  11.901  0.9363 -0.6743  0.3655
 5932TIP3    H239212   6.714   3.624  12.016  0.7163  0.3178  1.1295
 5933TIP3   OH239213   5.397   0.017   6.277  0.0696 -0.9147  0.0415
 5933TIP3    H139214   5.313   0.025   6.231 -0.0154 -0.2853  0.2912
 5933TIP3    H239215   5.459   0.063   6.220 -0.3516  1.4215  1.3236
 5934TIP3   OH239216   2.108   6.429  15.543 -0.4905  0.4947  0.4997
 5934TIP3    H139217   2.089   6.423  15.636 -0.7969 -1.2605  0.3682
 5934TIP3    H239218   2.085   6.343  15.508  4.1308 -0.7053 -0.3564
 5935TIP3   OH239219   6.181   3.485   5.649  0.4706  0.3029  0.2181
 5935TIP3    H139220   6.111   3.544   5.619  1.7934  1.6737 -0.2973
 5935TIP3    H239221   6.257   3.510   5.597  1.5831 -0.5634  1.3789
 5936TIP3   OH239222   2.183   6.022  13.582  0.3128 -0.5297  0.8677
 5936TIP3    H139223   2.155   5.998  13.671  0.3217 -0.5253  0.8717
 5936TIP3    H239224   2.120   5.978  13.525  0.6861 -1.0401  0.8530
 5937TIP3   OH239225   4.805   3.703  15.577 -0.2021 -0.0425 -0.0773
 5937TIP3    H139226   4.856   3.743  15.507  0.0843 -0.8246 -0.3248
 5937TIP3    H239227   4.856   3.626  15.603 -1.0569 -0.6190 -0.0641
 5938TIP3   OH239228   1.112   4.568  12.760  0.4146 -0.4514 -0.3125
 5938TIP3    H139229   1.163   4.503  12.712  0.8682  0.0331 -0.4886
 5938TIP3    H239230   1.083   4.521  12.839  2.9515 -0.1632  0.9097
 5939TIP3   OH239231   0.690   2.962   1.866  0.2144 -0.3597  0.2367
 5939TIP3    H139232   0.714   2.884   1.916  0.2937 -0.1207  0.5776
 5939TIP3    H239233   0.771   2.987   1.821  0.2528 -0.3438  0.3125
 5940TIP3   OH239234   6.363   5.087  13.404  0.4881  0.8154 -0.0630
 5940TIP3    H139235   6.424   5.013  13.412  1.3094  1.5406  0.6559
 5940TIP3    H239236   6.298   5.058  13.341 -0.1319 -1.1372  1.3949
 5941TIP3   OH239237   0.711   4.511  14.820  0.2248 -0.0876 -0.8636
 5941TIP3    H139238   0.619   4.497  14.795  0.1050  0.8475 -0.9837
 5941TIP3    H239239   0.718   4.606  14.831  1.0477 -0.2085 -0.3295
 5942TIP3   OH239240   1.506   0.846   4.390 -0.1837  0.0815 -0.3188
 5942TIP3    H139241   1.470   0.933   4.408 -0.1718  0.3506 -1.5188
 5942TIP3    H239242   1.441   0.785   4.426 -0.1337  0.5772  0.6328
 5943TIP3   OH239243   4.556   6.547  16.238  0.2208  0.4268  0.2746
 5943TIP3    H139244   4.493   6.582  16.175 -0.8645 -0.7867  0.6410
 5943TIP3    H239245   4.613   6.621  16.259  0.4920  0.9069 -1.9587
 5944TIP3   OH239246   6.234   5.013   0.579  0.1196 -0.2810  0.3109
 5944TIP3    H139247   6.262   5.006   0.671  0.1432  0.2796  0.3487
 5944TIP3    H239248   6.156   4.958   0.574 -1.0829  1.2835  1.1703
 5945TIP3   OH239249   5.718   2.658  16.978  0.5340  0.2507 -0.0628
 5945TIP3    H139250   5.648   2.707  16.934 -0.7997 -1.0692  0.4882
 5945TIP3    H239251   5.692   2.657  17.070  2.6895  1.9950  0.6539
 5946TIP3   OH239252   1.460   4.634  11.517  0.6723 -0.0018  0.1308
 5946TIP3    H139253   1.483   4.704  11.577  1.3248 -0.7597  0.7890
 5946TIP3    H239254   1.368   4.614  11.537  0.4433  0.7501 -0.1593
 5947TIP3   OH239255   5.089   1.658   3.660 -0.0070 -0.2387 -0.5204
 5947TIP3    H139256   5.035   1.737   3.663 -0.2483 -0.4395  1.3290
 5947TIP3    H239257   5.161   1.676   3.720 -0.0451 -1.4038 -0.0988
 5948TIP3   OH239258   3.093   6.392   4.885  0.2130  0.1762  0.0386
 5948TIP3    H139259   3.159   6.431   4.943 -0.3423  1.0024  0.1344
 5948TIP3    H239260   3.037   6.466   4.860 -0.3378 -0.4126 -0.4958
 5949TIP3   OH239261   3.766   1.249   4.385 -0.2739  0.8607  0.3848
 5949TIP3    H139262   3.853   1.245   4.346 -0.7652  0.8118 -0.7527
 5949TIP3    H239263   3.726   1.164   4.365 -0.4690  0.7437  1.2081
 5950TIP3   OH239264   5.960   2.098  11.100  0.4087 -0.0994  0.4094
 5950TIP3    H139265   5.989   2.189  11.102  0.2812 -0.0218 -0.5154
 5950TIP3    H239266   6.033   2.049  11.138  1.3852  0.1943 -0.9959
 5951TIP3   OH239267   1.689   3.452   5.607 -0.4882 -0.2629  0.2835
 5951TIP3    H139268   1.595   3.446   5.592 -0.4089 -0.7119 -0.0534
 5951TIP3    H239269   1.713   3.368   5.647 -0.0403 -0.6425 -0.7391
 5952TIP3   OH239270   1.902   2.356  16.529 -0.6305 -0.6226 -0.4089
 5952TIP3    H139271   1.883   2.433  16.581 -1.5297 -1.2805  0.2671
 5952TIP3    H239272   1.816   2.323  16.501 -0.2710 -1.3878 -0.6551
 5953TIP3   OH239273   6.098   2.954  16.371 -0.3550  0.7896 -0.1990
 5953TIP3    H139274   6.011   2.930  16.340 -1.2549  1.6200  1.4998
 5953TIP3    H239275   6.124   2.883  16.429  0.4743  0.1757 -1.2748
 5954TIP3   OH239276   1.620   6.567  11.309  0.0991  0.3254  0.8009
 5954TIP3    H139277   1.636   6.653  11.347  0.0075  0.7564 -0.0995
 5954TIP3    H239278   1.703   6.521  11.317 -0.1912  0.0183  2.4258
 5955TIP3   OH239279   2.569   6.113  14.703  0.0972  0.5256  0.4695
 5955TIP3    H139280   2.489   6.065  14.721  0.3363 -0.7176 -1.4191
 5955TIP3    H239281   2.637   6.066  14.752  0.3830 -1.4080 -1.6094
 5956TIP3   OH239282   5.881   2.374  11.534  0.4266 -0.0547 -0.3733
 5956TIP3    H139283   5.837   2.292  11.512  2.8921 -1.6041  0.0398
 5956TIP3    H239284   5.960   2.346  11.582  0.7440  2.6325  0.8149
 5957TIP3   OH239285   0.127   4.438   2.369  0.3522 -0.5883 -0.1851
 5957TIP3    H139286   0.210   4.467   2.332 -0.2020 -0.1770 -1.1532
 5957TIP3    H239287   0.123   4.479   2.455  1.5457 -1.3428  0.2435
 5958TIP3   OH239288   6.242   5.963  13.863 -0.2227 -0.1229 -0.0430
 5958TIP3    H139289   6.199   5.988  13.782 -0.7028  1.4487  0.6566
 5958TIP3    H239290   6.178   5.909  13.909 -0.6812  0.5407  0.1074
 5959TIP3   OH239291   6.130   5.499  14.487 -0.8086 -0.2941  0.4178
 5959TIP3    H139292   6.070   5.475  14.559 -1.2739 -1.1685 -0.2427
 5959TIP3    H239293   6.181   5.419  14.471 -1.0140 -0.2483 -0.5131
 5960TIP3   OH239294   2.671   4.082  13.324  0.8415  0.0136 -0.3700
 5960TIP3    H139295   2.603   4.109  13.263  0.2198 -1.8808 -0.5880
 5960TIP3    H239296   2.626   4.023  13.385  2.1963 -1.0327 -0.3250
 5961TIP3   OH239297   2.460   0.998   4.865  0.7348  0.7014  0.3258
 5961TIP3    H139298   2.389   0.976   4.805  0.6041  0.5322  0.5383
 5961TIP3    H239299   2.490   1.084   4.837  0.8426  0.5151 -0.1380
 5962TIP3   OH239300   3.695   2.836   1.476  0.0561  0.6782  0.1761
 5962TIP3    H139301   3.724   2.761   1.527  0.0889 -0.1942 -1.0844
 5962TIP3    H239302   3.768   2.897   1.479 -0.5790  1.4066  2.5515
 5963TIP3   OH239303   4.497   3.772   6.164  0.1182  1.1535  0.0209
 5963TIP3    H139304   4.498   3.767   6.259  1.3407  1.2461  0.0367
 5963TIP3    H239305   4.416   3.819   6.143  0.3005  1.9824  1.0722
 5964TIP3   OH239306   6.803   1.057   5.810 -0.3996  0.6441  0.0244
 5964TIP3    H139307   6.769   1.140   5.843  1.1764  0.8354  1.2682
 5964TIP3    H239308   6.810   1.001   5.887  0.4030  0.0342 -0.4700
 5965TIP3   OH239309   6.253   4.095  12.751  0.1309 -0.0689 -0.0748
 5965TIP3    H139310   6.299   4.017  12.721 -0.4661 -0.1412 -0.8223
 5965TIP3    H239311   6.320   4.164  12.749  0.0819 -0.0282 -1.7808
 5966TIP3   OH239312   5.506   5.367  15.421  0.0292 -0.0920 -0.2441
 5966TIP3    H139313   5.567   5.367  15.494  0.0637  0.0899 -0.2719
 5966TIP3    H239314   5.542   5.304  15.359 -0.6213 -1.1251  0.4067
 5967TIP3   OH239315   6.562   3.941  11.880  0.0512  0.1322 -0.0572
 5967TIP3    H139316   6.574   3.883  11.955  0.6327 -0.5817 -0.6946
 5967TIP3    H239317   6.604   4.023  11.907 -0.8409  0.3046  0.8709
 5968TIP3   OH239318   0.855   3.075   3.187 -0.9756  0.3984 -0.2760
 5968TIP3    H139319   0.811   2.994   3.161  0.0196 -0.8157  1.5894
 5968TIP3    H239320   0.939   3.072   3.141 -1.3086  0.8423 -0.9205
 5969TIP3   OH239321   5.510   0.138   3.099  0.6528 -0.0188  0.1320
 5969TIP3    H139322   5.465   0.177   3.174 -0.2651  0.1736 -0.5104
 5969TIP3    H239323   5.574   0.204   3.073 -0.6478  0.9588 -0.7237
 5970TIP3   OH239324   3.966   1.219   2.372 -0.5824  0.0872  0.5464
 5970TIP3    H139325   3.978   1.212   2.466 -0.0664  0.8574  0.5549
 5970TIP3    H239326   3.914   1.143   2.347 -3.4177  1.4413  1.8892
 5971TIP3   OH239327   6.351   1.989   4.424 -0.0648  0.0571  0.5177
 5971TIP3    H139328   6.309   2.017   4.343  0.3349 -0.3335  0.1680
 5971TIP3    H239329   6.429   1.942   4.395  0.2260  0.1481  1.1381
 5972TIP3   OH239330   1.165   5.112  16.140 -0.2413 -0.4194 -0.1448
 5972TIP3    H139331   1.132   5.028  16.172 -1.4400 -0.7599 -2.1344
 5972TIP3    H239332   1.089   5.170  16.142 -0.1484 -0.2188 -1.5055
 5973TIP3   OH239333   4.034   0.532  16.111 -0.0798 -0.1527  0.3448
 5973TIP3    H139334   4.046   0.620  16.147  1.0733 -0.3204  0.4334
 5973TIP3    H239335   4.067   0.538  16.022 -1.5470 -0.1071 -0.2187
 5974TIP3   OH239336   2.836   0.975  13.889 -0.4083  0.2183  0.0739
 5974TIP3    H139337   2.905   0.915  13.915  0.0313  1.5357  2.1015
 5974TIP3    H239338   2.755   0.926  13.904 -0.0286 -1.1288 -1.8022
 5975TIP3   OH239339   4.220   3.518  10.876 -0.0818  0.2616  0.3523
 5975TIP3    H139340   4.216   3.424  10.860  0.6546  0.0550  1.3046
 5975TIP3    H239341   4.176   3.530  10.960  1.1293  0.5679  0.9567
 5976TIP3   OH239342   0.271   6.379  11.486 -0.6324  1.0395  0.0435
 5976TIP3    H139343   0.246   6.403  11.397  1.2207 -0.2640 -0.9066
 5976TIP3    H239344   0.205   6.317  11.514 -0.8046  0.8501 -0.7536
 5977TIP3   OH239345   0.542   2.694   5.963  0.1005 -0.5472 -0.3341
 5977TIP3    H139346   0.607   2.668   5.898  1.1673 -1.9973  1.2111
 5977TIP3    H239347   0.507   2.777   5.931  2.9824  0.5025 -1.0431
 5978TIP3   OH239348   1.507   1.274   1.895 -0.3539 -0.1095  0.2869
 5978TIP3    H139349   1.433   1.262   1.836  0.1605  0.5225 -0.5119
 5978TIP3    H239350   1.580   1.229   1.851  0.1487  0.7781  0.1817
 5979TIP3   OH239351   5.598   2.989   3.120  0.2712 -0.2213 -0.6989
 5979TIP3    H139352   5.582   2.896   3.102  4.1381 -1.1953 -0.0694
 5979TIP3    H239353   5.581   2.998   3.214 -0.5155 -0.1637 -0.8419
 5980TIP3   OH239354   3.063   2.742   3.888 -0.2840  0.7209 -0.0823
 5980TIP3    H139355   3.115   2.799   3.832 -0.6234 -0.2546 -1.4653
 5980TIP3    H239356   3.112   2.736   3.970  1.3387  0.5248 -1.0374
 5981TIP3   OH239357   2.475   0.383   2.899  0.2563  0.4226 -0.1190
 5981TIP3    H139358   2.429   0.334   2.832  2.2550 -2.0394  0.1564
 5981TIP3    H239359   2.534   0.441   2.850  0.4597 -0.1067 -0.5082
 5982TIP3   OH239360   5.438   1.111   3.039 -0.1226  0.1216  0.1029
 5982TIP3    H139361   5.397   1.038   3.085 -1.7691  1.4200  0.8175
 5982TIP3    H239362   5.393   1.189   3.074  2.1282  1.5448 -0.0116
 5983TIP3   OH239363   0.366   2.212  11.640  0.4180 -0.3277  0.4502
 5983TIP3    H139364   0.457   2.230  11.617  0.4490 -0.2918  0.5981
 5983TIP3    H239365   0.336   2.290  11.687  0.4078 -0.4628  0.6745
 5984TIP3   OH239366   0.554   0.988  12.506  0.1856  0.0889  0.4133
 5984TIP3    H139367   0.569   0.972  12.413  1.5293  0.8804  0.4697
 5984TIP3    H239368   0.626   1.046  12.533  0.7914 -1.4112  2.3208
 5985TIP3   OH239369   4.543   2.838   0.179 -0.6870  0.3390  0.3763
 5985TIP3    H139370   4.491   2.917   0.160  0.9305  0.9673 -1.8238
 5985TIP3    H239371   4.541   2.788   0.098  0.3971 -0.6651  0.9417
 5986TIP3   OH239372   3.500   6.796   5.034 -0.0214  0.2556  0.7002
 5986TIP3    H139373   3.585   6.790   4.989 -0.2122 -1.0615  0.4476
 5986TIP3    H239374   3.509   6.738   5.109 -0.7747 -0.1089  0.5245
 5987TIP3   OH239375   4.092   1.701   2.876 -0.8328  0.0838 -0.3881
 5987TIP3    H139376   4.106   1.783   2.924 -0.2291  1.1933 -2.3812
 5987TIP3    H239377   4.052   1.728   2.794 -0.5320 -1.6253 -1.1297
 5988TIP3   OH239378   6.074   1.783   3.906  0.1446  0.1309 -0.1032
 5988TIP3    H139379   6.024   1.733   3.971 -2.0532  1.0889 -0.9359
 5988TIP3    H239380   6.108   1.717   3.846 -1.3343 -0.5137 -0.2822
 5989TIP3   OH239381   5.657   5.837  12.061 -0.7842 -0.1519  0.5917
 5989TIP3    H139382   5.643   5.930  12.040  0.4103 -0.0913 -0.0612
 5989TIP3    H239383   5.732   5.837  12.121 -0.6564 -0.7034  0.4369
 5990TIP3   OH239384   0.106   5.982  14.962  0.0698 -0.0310  0.4003
 5990TIP3    H139385   0.050   5.950  15.032  0.0569  0.6523  0.7063
 5990TIP3    H239386   0.190   6.000  15.005  0.4081 -0.6712  0.0238
 5991TIP3   OH239387   2.436   0.797  13.616 -0.1715  0.2068  0.8253
 5991TIP3    H139388   2.489   0.876  13.629  0.2006  0.1993 -0.5124
 5991TIP3    H239389   2.370   0.824  13.552  0.1943 -0.6760  0.0715
 5992TIP3   OH239390   5.607   0.559   3.807 -0.1334  0.3941 -0.4358
 5992TIP3    H139391   5.670   0.628   3.829  2.2187 -1.4774 -0.8521
 5992TIP3    H239392   5.574   0.584   3.720  0.1938  1.3234 -0.3075
 5993TIP3   OH239393   4.852   1.806  14.366 -0.2702  0.8198 -0.0117
 5993TIP3    H139394   4.943   1.786  14.344 -0.3276  0.2798  0.2029
 5993TIP3    H239395   4.802   1.780  14.289 -0.1710  1.8235 -0.4201
 5994TIP3   OH239396   1.707   6.439  14.753  0.0139  0.7689  0.2050
 5994TIP3    H139397   1.758   6.499  14.698 -1.6263  2.1812  0.1243
 5994TIP3    H239398   1.768   6.409  14.820  0.3281  4.7010  1.9398
 5995TIP3   OH239399   5.860   3.448  13.987 -0.1214 -0.6205 -0.7155
 5995TIP3    H139400   5.848   3.518  14.051 -1.7544  0.2804 -1.9273
 5995TIP3    H239401   5.834   3.487  13.903  1.3147 -1.9563 -1.8379
 5996TIP3   OH239402   2.700   0.464   2.769  0.0794 -0.2584  0.3311
 5996TIP3    H139403   2.728   0.380   2.806  1.5644  0.0787  0.0321
 5996TIP3    H239404   2.761   0.480   2.697 -2.1998 -0.4540 -1.7304
 5997TIP3   OH239405   6.383   0.052   3.361 -1.1568  0.2355  0.6866
 5997TIP3    H139406   6.287   0.048   3.362 -1.1518  0.1313  1.7226
 5997TIP3    H239407   6.407   0.080   3.449 -0.2246  0.2345  0.4445
 5998TIP3   OH239408   1.345   5.389   1.869  0.0493 -0.4905 -0.1130
 5998TIP3    H139409   1.359   5.322   1.936 -0.7731 -1.3421 -0.7710
 5998TIP3    H239410   1.254   5.415   1.879  0.4861  0.9535  0.4827
 5999TIP3   OH239411   6.095   6.788   2.740 -0.1440 -0.0204 -0.5596
 5999TIP3    H139412   6.008   6.826   2.755 -0.3986 -1.0990  0.9588
 5999TIP3    H239413   6.080   6.694   2.740  0.5801 -0.2225 -3.5297
 6000TIP3   OH239414   4.364   5.520  15.300  0.1150  0.4635 -0.1217
 6000TIP3    H139415   4.346   5.589  15.237  1.9612  0.1307 -1.1034
 6000TIP3    H239416   4.426   5.559  15.362 -0.3771  0.2793  0.4959
 6001TIP3   OH239417   0.519   3.295   4.576 -0.0557 -0.0746 -0.0366
 6001TIP3    H139418   0.612   3.300   4.557 -0.1081  4.1640 -0.0956
 6001TIP3    H239419   0.500   3.375   4.625 -3.5312 -1.2349  0.8025
 6002TIP3   OH239420   5.016   6.539   4.553 -0.1931 -0.2271 -0.7755
 6002TIP3    H139421   4.964   6.524   4.632  3.0516 -0.4054  1.5177
 6002TIP3    H239422   5.077   6.466   4.549  1.2506  0.9615 -2.1210
 6003TIP3   OH239423   5.371   0.032   2.546 -0.4389  0.2109  0.0122
 6003TIP3    H139424   5.413  -0.054   2.537  0.0070  0.5968 -2.5517
 6003TIP3    H239425   5.429   0.081   2.604  1.9653  0.2192 -2.2011
 6004TIP3   OH239426   2.587   5.553   2.020 -0.0422  0.5592 -0.3000
 6004TIP3    H139427   2.567   5.536   1.928 -0.4846  1.0047 -0.2915
 6004TIP3    H239428   2.554   5.642   2.036 -0.3670  0.3143  0.4070
 6005TIP3   OH239429   3.804   1.381  15.875  0.2806 -0.0556 -0.0818
 6005TIP3    H139430   3.780   1.293  15.848  2.1345 -0.2900 -1.1782
 6005TIP3    H239431   3.740   1.438  15.834  0.0918 -0.7829 -0.8055
 6006TIP3   OH239432   5.738   3.938   1.535  0.0446  0.1651  0.1947
 6006TIP3    H139433   5.726   3.888   1.455  1.1019 -1.8382  1.1984
 6006TIP3    H239434   5.651   3.973   1.555 -0.4295 -0.0927 -1.3018
 6007TIP3   OH239435   4.857   4.601   0.486  0.8729  0.3030 -0.1081
 6007TIP3    H139436   4.947   4.595   0.454  1.4399 -2.6222  1.6468
 6007TIP3    H239437   4.860   4.669   0.553  1.7972  0.2137 -0.0513
 6008TIP3   OH239438   2.583   3.370  12.317 -0.1418  0.6238  0.5122
 6008TIP3    H139439   2.520   3.359  12.388  0.5876 -1.5144  0.8877
 6008TIP3    H239440   2.668   3.381  12.362  0.1624  0.4088 -0.0049
 6009TIP3   OH239441   5.982   3.734  16.630  0.0793 -0.2844 -0.0307
 6009TIP3    H139442   5.916   3.773  16.573 -0.8023 -2.1036 -0.3346
 6009TIP3    H239443   5.941   3.730  16.716  1.2239  1.9899  0.7040
 6010TIP3   OH239444   4.689   3.486  10.260 -0.0595  0.4191 -0.9247
 6010TIP3    H139445   4.754   3.433  10.214  1.9456  0.0525  2.0775
 6010TIP3    H239446   4.701   3.575  10.225  2.6948  0.5136  0.0825
 6011TIP3   OH239447   0.341   3.007  15.929 -0.4037 -0.7283 -0.1302
 6011TIP3    H139448   0.327   3.006  15.834 -0.4745  0.0288 -0.1337
 6011TIP3    H239449   0.403   2.935  15.945  2.3005  1.2140 -1.1906
 6012TIP3   OH239450   5.572   3.856  11.352 -0.4863 -0.3688  0.4342
 6012TIP3    H139451   5.502   3.792  11.362 -1.1857  0.2211 -0.5291
 6012TIP3    H239452   5.652   3.803  11.349 -1.0179 -1.1821  0.0099
 6013TIP3   OH239453   0.152   3.512  14.280 -0.7203 -0.1917 -0.3702
 6013TIP3    H139454   0.157   3.605  14.258  1.3273 -0.5727 -1.6954
 6013TIP3    H239455   0.113   3.471  14.204 -0.3364 -0.5927 -0.3546
 6014TIP3   OH239456   4.468   4.656  12.435 -0.8935  0.6687 -0.3185
 6014TIP3    H139457   4.459   4.593  12.363 -1.2657 -0.5060  0.7315
 6014TIP3    H239458   4.561   4.680  12.433 -0.7872  0.2401 -0.8499
 6015TIP3   OH239459   4.791   0.827  12.302  0.2163 -0.3659  0.5928
 6015TIP3    H139460   4.808   0.824  12.208 -2.9507 -0.2173 -0.0993
 6015TIP3    H239461   4.811   0.918  12.327  2.6794 -0.8225  0.5024
 6016TIP3   OH239462   0.299   4.410   0.215 -0.0065  0.5852 -0.2760
 6016TIP3    H139463   0.305   4.315   0.221 -2.5707  0.3986  0.3286
 6016TIP3    H239464   0.252   4.437   0.294 -1.0170  2.1355 -1.3287
 6017TIP3   OH239465   4.713   1.875   1.938 -0.6612 -0.0321  0.0097
 6017TIP3    H139466   4.793   1.927   1.952 -0.8123 -0.4611  3.0845
 6017TIP3    H239467   4.738   1.786   1.960 -1.8018 -0.2978  0.3035
 6018TIP3   OH239468   3.791   1.914   5.035 -0.5487  0.1291 -0.6292
 6018TIP3    H139469   3.802   1.829   4.992 -0.7367  0.7170 -1.8873
 6018TIP3    H239470   3.723   1.899   5.101  1.5576 -1.4435  1.3662
 6019TIP3   OH239471   2.448   1.967   4.307  0.0389  0.1053 -0.4740
 6019TIP3    H139472   2.432   2.054   4.344  0.1785 -0.6119  1.3743
 6019TIP3    H239473   2.543   1.960   4.303  0.0336  0.4619 -1.7653
 6020TIP3   OH239474   3.445   0.518  14.103 -0.2560 -0.2127  0.7492
 6020TIP3    H139475   3.441   0.495  14.010  0.8070  1.6093  0.1915
 6020TIP3    H239476   3.488   0.444  14.145  0.9675 -0.2875 -0.5458
 6021TIP3   OH239477   1.415   0.747   5.424 -0.3337  0.0500  0.0009
 6021TIP3    H139478   1.395   0.837   5.448  0.3635  0.0864  0.4703
 6021TIP3    H239479   1.478   0.717   5.490 -0.7410 -0.8623 -0.0052
 6022TIP3   OH239480   5.382   4.976  15.679 -0.4870 -0.0384 -0.4194
 6022TIP3    H139481   5.320   5.046  15.657  0.0956  0.4383 -0.5642
 6022TIP3    H239482   5.459   5.021  15.712  0.5469 -0.5155 -2.0888
 6023TIP3   OH239483   2.103   1.181   0.284 -0.4277  0.0640  0.1519
 6023TIP3    H139484   2.059   1.098   0.263 -1.1939  0.4350  0.2509
 6023TIP3    H239485   2.169   1.192   0.215  0.8312 -1.4368  1.0524
 6024TIP3   OH239486   6.646   6.157   5.293 -0.1539 -0.0049  0.5111
 6024TIP3    H139487   6.626   6.088   5.357  1.0684 -0.6753  0.2163
 6024TIP3    H239488   6.708   6.214   5.339  0.2704 -0.1592  0.1415
 6025TIP3   OH239489   3.454   5.764  16.732  0.3352  0.4249 -0.4896
 6025TIP3    H139490   3.369   5.806  16.741  1.1510  1.9241  0.5337
 6025TIP3    H239491   3.510   5.830  16.692  0.9833 -0.6234 -1.3786
 6026TIP3   OH239492   2.344   6.657   5.459 -0.0715 -0.4705  0.3473
 6026TIP3    H139493   2.326   6.670   5.552 -0.4489 -4.4016  1.0004
 6026TIP3    H239494   2.431   6.695   5.447 -0.7247  1.6871  1.7976
 6027TIP3   OH239495   5.568   4.904   6.247 -0.5203  0.4715  0.0953
 6027TIP3    H139496   5.611   4.858   6.320  0.9172  1.9140  0.2235
 6027TIP3    H239497   5.563   4.839   6.177  0.9400 -0.0803  0.4603
 6028TIP3   OH239498   5.386   6.365  13.787 -0.2392  0.3198  0.1948
 6028TIP3    H139499   5.432   6.375  13.703 -0.0590 -0.0970  0.2402
 6028TIP3    H239500   5.306   6.416  13.776 -0.2377  0.2355 -0.2477
 6029TIP3   OH239501   0.373   5.050  10.561 -0.1702 -0.0879 -0.1827
 6029TIP3    H139502   0.354   5.025  10.471  0.3485  1.3832 -0.7247
 6029TIP3    H239503   0.314   5.123  10.579 -1.2686 -1.2425  1.1785
 6030TIP3   OH239504   6.475   2.333  15.878  0.4681  0.6723 -0.0652
 6030TIP3    H139505   6.553   2.357  15.828 -0.5239  3.2405 -0.5664
 6030TIP3    H239506   6.484   2.379  15.961 -0.4608  0.9230 -0.0938
 6031TIP3   OH239507   5.317   0.024   3.899  0.1962 -0.2097 -0.5776
 6031TIP3    H139508   5.258  -0.006   3.830 -0.9967  2.5029 -0.8474
 6031TIP3    H239509   5.322  -0.049   3.961 -0.5221 -1.8430 -2.3604
 6032TIP3   OH239510   2.497   0.798   5.050  0.1495  0.0652  0.2549
 6032TIP3    H139511   2.411   0.767   5.078  0.3896  1.4962  3.0227
 6032TIP3    H239512   2.478   0.865   4.985 -0.9501  0.8902  1.3665
 6033TIP3   OH239513   4.935   2.084  11.892 -0.1775  0.1887 -0.2828
 6033TIP3    H139514   4.846   2.055  11.873  0.1997 -0.8812 -0.5357
 6033TIP3    H239515   4.925   2.158  11.952 -1.2136 -1.5114  1.7997
 6034TIP3   OH239516   5.914   6.301  14.446 -0.3168  0.5136 -0.0272
 6034TIP3    H139517   5.820   6.318  14.446 -0.7224 -1.4527 -0.8667
 6034TIP3    H239518   5.931   6.253  14.527 -0.2109  0.1305 -0.2691
 6035TIP3   OH239519   2.657   2.031   3.809 -0.0250 -0.0258 -0.1765
 6035TIP3    H139520   2.616   2.034   3.896  2.2030  1.0564  0.9138
 6035TIP3    H239521   2.623   2.108   3.764 -2.6877 -1.6107 -1.0707
 6036TIP3   OH239522   0.013   4.659  14.620  0.6626  0.1979  0.2274
 6036TIP3    H139523  -0.064   4.619  14.659  1.0000  0.3855  1.1036
 6036TIP3    H239524   0.021   4.744  14.663  1.0817  0.3841 -0.2032
 6037TIP3   OH239525   0.581   5.364  15.730 -0.7476  0.0327  0.0485
 6037TIP3    H139526   0.508   5.330  15.678  0.9764 -1.5027 -1.5191
 6037TIP3    H239527   0.585   5.306  15.806 -0.2120 -0.8798 -0.6605
 6038TIP3   OH239528   5.922   5.641  15.894  0.1617 -0.2406 -0.2018
 6038TIP3    H139529   6.012   5.611  15.876 -0.0973 -0.6339 -0.8758
 6038TIP3    H239530   5.872   5.560  15.905 -0.3031 -0.0389 -0.8133
 6039TIP3   OH239531   4.181   1.839   3.808  0.4127  0.3156  0.7056
 6039TIP3    H139532   4.238   1.874   3.740 -0.0679 -0.0965  0.0822
 6039TIP3    H239533   4.124   1.913   3.831 -1.5942 -0.3607 -1.6507
 6040TIP3   OH239534   6.521   4.570  13.220 -0.1060 -0.3435  0.6578
 6040TIP3    H139535   6.494   4.480  13.201 -0.8722  0.2884 -1.5453
 6040TIP3    H239536   6.441   4.622  13.206  0.7677  0.8770 -0.0042
 6041TIP3   OH239537   1.093   1.408   3.741  0.4415  0.6068 -0.7862
 6041TIP3    H139538   1.026   1.344   3.764  0.1861  0.3335 -2.2236
 6041TIP3    H239539   1.056   1.492   3.769  0.9061  0.1584  1.3861
 6042TIP3   OH239540   0.288   3.559   5.301 -0.1276  0.1877 -0.3810
 6042TIP3    H139541   0.362   3.573   5.361  0.6360 -1.3792 -0.9100
 6042TIP3    H239542   0.302   3.471   5.266 -0.8590  0.8436 -2.4467
 6043TIP3   OH239543   0.031   4.282  15.080 -0.0828 -0.1646 -0.0829
 6043TIP3    H139544   0.016   4.292  15.174 -0.8962 -0.6685 -0.1549
 6043TIP3    H239545   0.068   4.194  15.070 -0.9139 -0.5017 -0.3226
 6044TIP3   OH239546   1.247   3.874   0.652  0.1720 -0.2610 -0.2950
 6044TIP3    H139547   1.285   3.853   0.736  1.5423 -1.2956 -1.1393
 6044TIP3    H239548   1.231   3.968   0.655  0.8947 -0.1685  0.8348
 6045TIP3   OH239549   3.005   2.425  11.675  0.1468  0.0170 -0.3144
 6045TIP3    H139550   2.992   2.451  11.584 -0.0270 -0.8803 -0.5530
 6045TIP3    H239551   3.100   2.433  11.688  0.3133 -0.8268 -0.8914
 6046TIP3   OH239552   1.994   2.928  14.786 -0.4387 -0.3439 -0.1677
 6046TIP3    H139553   1.922   2.908  14.846 -0.3671  1.5424  0.6192
 6046TIP3    H239554   1.964   2.896  14.701 -1.6936 -0.6471  0.3695
 6047TIP3   OH239555   5.372   3.347  16.390 -0.0764  0.1031  0.0122
 6047TIP3    H139556   5.353   3.306  16.474  0.3407  0.8052  0.4532
 6047TIP3    H239557   5.294   3.330  16.337 -1.0907  1.1407  1.1088
 6048TIP3   OH239558   4.564   4.391   0.710 -0.8323 -0.0221 -0.0272
 6048TIP3    H139559   4.598   4.406   0.622 -1.1889  0.3471 -0.1038
 6048TIP3    H239560   4.626   4.436   0.768 -0.9113  0.2238 -0.1316
 6049TIP3   OH239561   1.441   2.108  16.711  0.1135  0.4060 -0.2671
 6049TIP3    H139562   1.483   2.059  16.782  0.3347  0.8895 -0.0588
 6049TIP3    H239563   1.356   2.064  16.699 -0.7305  1.4032  1.5457
 6050TIP3   OH239564   2.013   1.096   4.242 -0.4458 -0.4194 -0.5651
 6050TIP3    H139565   1.965   1.013   4.240 -0.9254 -0.1420 -1.6688
 6050TIP3    H239566   2.063   1.096   4.160  0.4305 -0.1127 -0.0399
 6051TIP3   OH239567   3.222   0.834  16.140  0.4662 -0.5476  0.1989
 6051TIP3    H139568   3.268   0.753  16.162  0.9467 -0.0644  1.0137
 6051TIP3    H239569   3.254   0.856  16.052 -2.6601 -3.3399 -1.8562
 6052TIP3   OH239570   6.799   2.675  12.289  0.1215 -0.1109  0.0328
 6052TIP3    H139571   6.727   2.684  12.352 -0.0426 -2.5349  0.2986
 6052TIP3    H239572   6.781   2.741  12.222 -2.0784 -0.2810  0.3827
 6053TIP3   OH239573   0.679   4.729   2.791  0.1506  0.1002 -0.1601
 6053TIP3    H139574   0.668   4.820   2.762 -0.1158 -0.1072 -0.7274
 6053TIP3    H239575   0.767   4.706   2.764  0.6501  0.5460  1.0049
 6054TIP3   OH239576   6.784   1.533   1.008  0.3388  0.0855  0.5176
 6054TIP3    H139577   6.852   1.549   0.942 -0.2747  0.9778  0.0888
 6054TIP3    H239578   6.721   1.476   0.965  1.8558 -2.6638  1.6216
 6055TIP3   OH239579   2.113   6.754  13.677 -0.1789  0.2505  0.1450
 6055TIP3    H139580   2.134   6.697  13.751 -2.4007  0.7567  1.2649
 6055TIP3    H239581   2.152   6.839  13.700  0.3586  0.0395  0.0285
 6056TIP3   OH239582   0.793   3.757  14.722  0.0467  0.1266 -0.0776
 6056TIP3    H139583   0.794   3.714  14.636  0.0548 -0.6078  0.2866
 6056TIP3    H239584   0.817   3.688  14.783  1.7285  1.0245  0.3417
 6057TIP3   OH239585   5.823   6.753   5.152 -0.5724  0.3312  0.0271
 6057TIP3    H139586   5.820   6.661   5.127 -0.3113  0.4404 -0.4131
 6057TIP3    H239587   5.905   6.786   5.116 -0.9039  0.8611 -0.2646
 6058TIP3   OH239588   2.656   5.440  14.988  0.4365 -0.1358  0.4048
 6058TIP3    H139589   2.675   5.355  14.948 -0.4448 -0.1255 -0.0510
 6058TIP3    H239590   2.561   5.449  14.983  0.5518  1.1485 -0.1233
 6059TIP3   OH239591   6.484   0.225  14.268  0.1935  0.7525  0.6768
 6059TIP3    H139592   6.512   0.249  14.180  0.4696  0.2500  0.6191
 6059TIP3    H239593   6.391   0.208  14.260  0.1145  1.2178  0.5932
 6060TIP3   OH239594   5.225   4.093  12.462  0.1645  0.4683  0.8438
 6060TIP3    H139595   5.197   4.040  12.388 -0.1004 -0.8020  1.8166
 6060TIP3    H239596   5.144   4.128  12.499  0.2790  0.9402  0.6505
 6061TIP3   OH239597   2.232   3.188   3.626 -0.3700  0.2723 -0.7390
 6061TIP3    H139598   2.271   3.112   3.670  1.0101  1.2223 -0.2157
 6061TIP3    H239599   2.282   3.197   3.545  0.9252  1.7766  0.1513
 6062TIP3   OH239600   1.605   2.209   3.472  0.1945  0.0292 -0.0340
 6062TIP3    H139601   1.591   2.260   3.552  2.1039 -1.4038  1.2983
 6062TIP3    H239602   1.664   2.262   3.419 -0.2164  0.5113 -0.0146
 6063TIP3   OH239603   4.326   3.746   3.365 -0.3362 -0.3984  0.0182
 6063TIP3    H139604   4.415   3.735   3.399 -0.4885 -0.0048  0.5562
 6063TIP3    H239605   4.308   3.664   3.319  0.0378 -0.7635  0.5159
 6064TIP3   OH239606   6.359   1.691  14.019  0.2031  0.3565 -0.1317
 6064TIP3    H139607   6.382   1.625  13.953 -1.0521  0.5358 -0.7689
 6064TIP3    H239608   6.398   1.658  14.100  2.3395  0.4530 -1.0440
 6065TIP3   OH239609   1.161   4.952  14.172 -0.2336 -0.0806  0.1033
 6065TIP3    H139610   1.197   4.870  14.205 -0.5773 -1.0021 -1.7016
 6065TIP3    H239611   1.230   5.016  14.187  1.0734 -1.2285 -0.7262
 6066TIP3   OH239612   5.092   3.431  11.034  0.1129 -0.0117 -0.0318
 6066TIP3    H139613   5.113   3.394  10.948 -0.4077  1.6754 -0.9200
 6066TIP3    H239614   5.026   3.372  11.070 -0.1416 -0.3749 -1.0588
 6067TIP3   OH239615   1.155   6.497   5.674 -0.9379 -0.1597  0.4022
 6067TIP3    H139616   1.131   6.411   5.637 -0.1016 -0.6175  0.9092
 6067TIP3    H239617   1.137   6.488   5.767  1.7132 -0.7366  0.9195
 6068TIP3   OH239618   1.826   5.384   0.727 -0.1629 -0.6692  0.1718
 6068TIP3    H139619   1.746   5.332   0.715  0.7254 -1.9699 -0.3777
 6068TIP3    H239620   1.877   5.335   0.792  0.4876 -0.2299  0.0086
 6069TIP3   OH239621   5.752   5.848   4.058 -0.4348  0.1228  0.3459
 6069TIP3    H139622   5.707   5.902   4.123  1.5349  1.0382  0.9973
 6069TIP3    H239623   5.770   5.907   3.985 -0.6522 -0.3522 -0.1047
 6070TIP3   OH239624   3.525   6.249  14.661  0.5426 -0.1152 -0.8993
 6070TIP3    H139625   3.593   6.226  14.597 -0.8917 -1.2729 -2.0916
 6070TIP3    H239626   3.456   6.184  14.646 -0.4027  0.4073  0.9566
 6071TIP3   OH239627   3.578   2.399   4.438 -0.5454 -0.4082  0.5628
 6071TIP3    H139628   3.588   2.461   4.510 -1.6502  0.9220 -0.3731
 6071TIP3    H239629   3.497   2.352   4.457  0.1724 -1.4443  1.1545
 6072TIP3   OH239630   3.349   1.086   2.675  0.5059  0.0466  0.5766
 6072TIP3    H139631   3.371   1.159   2.618 -1.0385  1.1389  1.3103
 6072TIP3    H239632   3.414   1.019   2.654  2.0178  1.6331 -0.0528
 6073TIP3   OH239633   5.310   2.477   2.708  0.3006  0.0811 -0.3515
 6073TIP3    H139634   5.227   2.434   2.685  0.6375 -0.8382  0.0787
 6073TIP3    H239635   5.372   2.404   2.716  1.5555  0.8802 -2.3139
 6074TIP3   OH239636   6.674   4.062   2.472  0.3534 -0.3611 -0.4238
 6074TIP3    H139637   6.761   4.075   2.511 -0.0534  0.0764  0.3563
 6074TIP3    H239638   6.677   3.974   2.435  0.5868 -1.0018  1.0506
 6075TIP3   OH239639   6.755   3.430   4.941 -0.6409 -1.0603  0.0272
 6075TIP3    H139640   6.796   3.347   4.917 -1.2120 -1.8598  1.6482
 6075TIP3    H239641   6.822   3.496   4.923  1.9235 -2.4001  3.5350
 6076TIP3   OH239642   3.182   6.424  14.814 -0.5400  0.3302 -0.0031
 6076TIP3    H139643   3.255   6.448  14.756 -0.5426  1.9701  0.6215
 6076TIP3    H239644   3.221   6.423  14.902 -0.4076 -2.6838  0.0093
 6077TIP3   OH239645   4.237   1.326   2.044 -0.1619 -0.4999  0.0091
 6077TIP3    H139646   4.325   1.343   2.077 -0.1948  0.4256 -0.3469
 6077TIP3    H239647   4.218   1.401   1.987 -0.7749 -1.2082 -0.7355
 6078TIP3   OH239648   0.163   5.151   4.375 -0.1682 -0.3300 -0.3271
 6078TIP3    H139649   0.227   5.112   4.316  0.3561 -1.7060  1.1064
 6078TIP3    H239650   0.104   5.080   4.398 -0.4637  0.2204  0.6792
 6079TIP3   OH239651   3.731   3.408   4.738 -0.1645 -0.0254 -0.6031
 6079TIP3    H139652   3.811   3.355   4.734 -0.3791 -0.3837 -0.2864
 6079TIP3    H239653   3.748   3.473   4.806 -0.7800 -1.2191  0.7595
 6080TIP3   OH239654   3.261   4.772  12.711  0.2767  0.0692 -0.2174
 6080TIP3    H139655   3.230   4.853  12.751 -0.4116 -0.5535  0.5396
 6080TIP3    H239656   3.341   4.750  12.760  1.6142  1.3020 -1.7134
 6081TIP3   OH239657   0.450   3.053   1.778  0.0307 -0.1054  0.0696
 6081TIP3    H139658   0.538   3.027   1.805  0.7803  3.5196  1.5864
 6081TIP3    H239659   0.458   3.068   1.684  1.6151  1.9269  0.4588
 6082TIP3   OH239660   2.567   0.812   0.577  0.1407  0.2103  0.2408
 6082TIP3    H139661   2.613   0.741   0.532  0.1062  0.6066 -0.4288
 6082TIP3    H239662   2.495   0.769   0.623  0.4472 -0.2567  0.2895
 6083TIP3   OH239663   4.917   0.111   3.455  0.4066 -0.2480  0.2627
 6083TIP3    H139664   4.831   0.142   3.427 -0.0063 -1.9333 -0.4480
 6083TIP3    H239665   4.978   0.179   3.424 -0.4620 -0.0334 -1.0543
 6084TIP3   OH239666   2.888   3.944   2.190 -0.0797  0.6834  0.1759
 6084TIP3    H139667   2.906   3.881   2.260  2.3555 -0.3400 -1.2691
 6084TIP3    H239668   2.792   3.952   2.189 -0.3394 -1.4791  1.6935
 6085TIP3   OH239669   3.161   5.864   4.073 -0.4850  0.3453 -0.5454
 6085TIP3    H139670   3.071   5.836   4.056 -0.0033 -1.8171  0.1454
 6085TIP3    H239671   3.209   5.839   3.994 -0.1414 -0.3358 -0.1271
 6086TIP3   OH239672   1.501   0.141  12.332  0.3852  0.4823 -0.3797
 6086TIP3    H139673   1.577   0.189  12.298  0.1811  0.4235 -0.9207
 6086TIP3    H239674   1.447   0.124  12.255 -0.5894  1.2405  0.1194
 6087TIP3   OH239675   1.859   6.661   5.573 -0.0611 -0.3053  0.1286
 6087TIP3    H139676   1.911   6.582   5.587 -0.0375 -0.1386  1.0415
 6087TIP3    H239677   1.776   6.645   5.618 -0.1970  0.0481  0.0133
 6088TIP3   OH239678   5.361   6.583  14.503  0.2331  0.1687 -0.5621
 6088TIP3    H139679   5.364   6.504  14.450 -3.0398  0.2268 -1.0749
 6088TIP3    H239680   5.352   6.655  14.440 -0.5417  0.5395 -0.0576
 6089TIP3   OH239681   5.819   4.135  10.284 -0.1410 -0.1244  0.1664
 6089TIP3    H139682   5.812   4.218  10.331  1.9829  1.2211 -1.6989
 6089TIP3    H239683   5.906   4.103  10.306 -0.6123 -1.4496  0.1734
 6090TIP3   OH239684   0.952   0.877   2.652 -0.6481 -0.1711 -0.0524
 6090TIP3    H139685   0.990   0.869   2.564 -1.9631 -1.1413 -0.5580
 6090TIP3    H239686   0.860   0.900   2.637 -1.0987 -1.1821  1.0391
 6091TIP3   OH239687   1.517   6.679  15.969 -0.2952 -0.6132 -0.3094
 6091TIP3    H139688   1.509   6.774  15.958 -0.7468 -0.5958  0.1785
 6091TIP3    H239689   1.606   6.659  15.939 -0.3771 -0.1103 -0.9093
 6092TIP3   OH239690   6.090   1.449  10.863  0.9548 -0.4019 -0.3447
 6092TIP3    H139691   6.180   1.448  10.829  0.7889 -1.0219 -0.7584
 6092TIP3    H239692   6.040   1.395  10.802 -0.9492  4.2277 -3.5134
 6093TIP3   OH239693   3.751   3.632  13.359 -0.4239  0.4853 -0.3344
 6093TIP3    H139694   3.833   3.588  13.337 -0.1921  0.8488 -0.2163
 6093TIP3    H239695   3.723   3.673  13.276 -0.8350 -0.1856 -0.5350
 6094TIP3   OH239696   0.733   0.103  16.545  0.4716  0.0754  0.1809
 6094TIP3    H139697   0.712   0.028  16.489  2.0795 -0.2739  0.0131
 6094TIP3    H239698   0.679   0.090  16.623 -0.8423 -0.1024 -0.7194
 6095TIP3   OH239699   2.637   0.613  12.861 -0.1559  0.5455  0.2207
 6095TIP3    H139700   2.639   0.564  12.943  1.8157  0.1181 -0.0405
 6095TIP3    H239701   2.641   0.705  12.889  1.2057  0.3885  0.6235
 6096TIP3   OH239702   0.567   6.636   2.407 -0.3048  0.2551 -0.1294
 6096TIP3    H139703   0.516   6.557   2.426 -0.6018  0.6679  0.8791
 6096TIP3    H239704   0.502   6.706   2.400  0.0753  0.7229  0.8203
 6097TIP3   OH239705   0.782   5.765  16.161 -0.2310  0.1103  0.2459
 6097TIP3    H139706   0.715   5.699  16.179 -0.0342  0.0863  0.9395
 6097TIP3    H239707   0.743   5.847  16.192  0.4984 -0.0824  1.7838
 6098TIP3   OH239708   3.443   4.359  15.578 -0.2000 -0.1359 -0.1856
 6098TIP3    H139709   3.401   4.304  15.645  1.6761 -0.5960  0.7068
 6098TIP3    H239710   3.419   4.448  15.601  0.3423 -0.2960  1.0990
 6099TIP3   OH239711   5.920   3.418   1.324  0.0741 -0.0116 -0.0426
 6099TIP3    H139712   5.981   3.358   1.283 -0.1104 -0.8884  0.9226
 6099TIP3    H239713   5.837   3.404   1.278  0.5314  1.0692 -1.2486
 6100TIP3   OH239714   3.705   1.398  10.603 -0.7194 -0.2927  0.1471
 6100TIP3    H139715   3.662   1.483  10.601 -1.7114 -0.7650  0.5862
 6100TIP3    H239716   3.787   1.411  10.556 -0.6207  1.0337  0.6431
 6101TIP3   OH239717   2.892   1.816   2.110  0.2923 -0.0541  0.3925
 6101TIP3    H139718   2.856   1.815   2.199 -1.2686  0.0543 -0.1927
 6101TIP3    H239719   2.884   1.726   2.080 -1.4528  0.3267 -0.4418
 6102TIP3   OH239720   1.976   2.418   0.326  0.4131 -0.1997 -0.0993
 6102TIP3    H139721   1.960   2.512   0.324 -0.0853 -0.2945 -0.8621
 6102TIP3    H239722   1.898   2.379   0.286  1.1422 -0.8623 -0.9129
 6103TIP3   OH239723   0.992   0.764  15.702  0.2378 -0.2910 -0.4536
 6103TIP3    H139724   1.034   0.801  15.624  0.8110  1.9077  0.8293
 6103TIP3    H239725   1.037   0.805  15.775 -1.8348 -0.5291  1.0266
 6104TIP3   OH239726   1.271   1.806   4.226 -0.3320  0.8517  0.4319
 6104TIP3    H139727   1.207   1.757   4.277  0.6869 -0.4295  0.5515
 6104TIP3    H239728   1.315   1.740   4.172  0.2988  1.8160 -0.2839
 6105TIP3   OH239729   1.871   4.395  16.401 -0.1633  0.3492  0.0420
 6105TIP3    H139730   1.840   4.482  16.377  1.2749  0.7882 -0.3023
 6105TIP3    H239731   1.891   4.353  16.317 -1.6252 -0.6366  0.1529
 6106TIP3   OH239732   0.785   6.269  14.835 -0.0788 -0.3613  0.1031
 6106TIP3    H139733   0.873   6.308  14.834  0.0403 -0.6418 -0.6549
 6106TIP3    H239734   0.776   6.227  14.750 -0.8592 -0.5501  0.2711
 6107TIP3   OH239735   4.476   1.198  15.883 -0.0906  0.1745  0.0766
 6107TIP3    H139736   4.454   1.287  15.856 -2.1182 -0.0323  0.9110
 6107TIP3    H239737   4.428   1.185  15.964  0.7867 -1.4383  0.3754
 6108TIP3   OH239738   0.672   5.604  13.228  0.5648 -0.7210  0.0944
 6108TIP3    H139739   0.691   5.561  13.311  0.9398 -1.5500 -0.4112
 6108TIP3    H239740   0.617   5.679  13.252  0.2505 -1.2367  1.0324
 6109TIP3   OH239741   2.923   5.147   1.806  0.0015 -0.2510  0.0617
 6109TIP3    H139742   2.984   5.111   1.743  1.3705  2.2448 -0.1555
 6109TIP3    H239743   2.873   5.212   1.758  0.6014  1.2196  1.3338
 6110TIP3   OH239744   1.482   2.916   5.090 -0.2946 -0.3939  0.0927
 6110TIP3    H139745   1.543   2.854   5.049 -0.9986  0.1613 -1.8954
 6110TIP3    H239746   1.491   2.900   5.184  2.8439 -0.3643 -0.1294
 6111TIP3   OH239747   5.439   0.052  16.192 -0.3121 -0.5477 -0.7077
 6111TIP3    H139748   5.444  -0.043  16.184 -0.6318 -0.6200 -0.1475
 6111TIP3    H239749   5.530   0.080  16.204 -0.3488 -0.9424  0.6322
 6112TIP3   OH239750   2.248   2.768  15.918 -0.6002 -0.4326  0.1992
 6112TIP3    H139751   2.213   2.721  15.994  1.1425 -1.7018  0.2780
 6112TIP3    H239752   2.314   2.709  15.881  0.9310  1.5071 -0.3523
 6113TIP3   OH239753   5.850   5.690  15.590 -0.5582  0.2434 -0.0304
 6113TIP3    H139754   5.902   5.615  15.560 -1.0740  0.1979 -0.8344
 6113TIP3    H239755   5.860   5.689  15.685 -1.4529 -1.5159  0.0825
 6114TIP3   OH239756   2.957   0.680   1.606  0.4587 -0.8070 -0.1453
 6114TIP3    H139757   2.959   0.752   1.542  1.8578 -1.3579 -0.7544
 6114TIP3    H239758   2.883   0.701   1.663 -0.3625  0.1077 -1.4803
 6115TIP3   OH239759   4.804   5.353  16.224  0.2837 -0.2727  0.8297
 6115TIP3    H139760   4.894   5.322  16.238  0.1733 -1.9771 -1.4734
 6115TIP3    H239761   4.791   5.422  16.289  3.3416  0.2184  1.0617
 6116TIP3   OH239762   1.295   4.242  16.437  0.2027  0.4647  0.1906
 6116TIP3    H139763   1.304   4.158  16.391  1.0365  1.7299 -2.0932
 6116TIP3    H239764   1.379   4.285  16.424  0.0112  1.4300  1.8936
 6117TIP3   OH239765   5.455   0.216  10.738 -0.9757 -0.8681  0.4494
 6117TIP3    H139766   5.463   0.244  10.647  0.4145  0.1134  0.8453
 6117TIP3    H239767   5.476   0.294  10.789 -1.0471 -1.5853  1.6113
 6118TIP3   OH239768   5.508   5.389   1.128  0.8737  0.2078  0.0057
 6118TIP3    H139769   5.512   5.294   1.133 -0.6237  0.1197  0.0281
 6118TIP3    H239770   5.468   5.416   1.211  0.9948  0.8341 -0.1331
 6119TIP3   OH239771   1.517   6.043  11.486  0.0123 -0.1622 -0.0193
 6119TIP3    H139772   1.556   6.089  11.412  0.3233  0.0650  0.2806
 6119TIP3    H239773   1.579   5.973  11.506  0.8125  0.8212  1.1072
 6120TIP3   OH239774   2.889   3.689  12.906 -0.3367  0.7695  0.2098
 6120TIP3    H139775   2.799   3.692  12.939 -0.8347  1.8527 -1.1157
 6120TIP3    H239776   2.944   3.713  12.981 -1.1620  0.1771  1.0124
 6121TIP3   OH239777   1.591   6.423   1.495 -0.2855 -0.0101  0.2062
 6121TIP3    H139778   1.507   6.401   1.534 -0.2685 -0.9421 -0.2641
 6121TIP3    H239779   1.615   6.346   1.443 -0.4529  1.2652 -1.8608
 6122TIP3   OH239780   0.658   3.635   1.112 -0.5160  0.2980  0.0051
 6122TIP3    H139781   0.722   3.696   1.075  0.0333  0.3791  1.0495
 6122TIP3    H239782   0.583   3.640   1.053 -0.5721  2.1617  0.1774
 6123TIP3   OH239783   2.474   2.772   1.957 -0.0852 -0.0842 -0.1924
 6123TIP3    H139784   2.405   2.836   1.941 -0.4037 -0.0290  1.2617
 6123TIP3    H239785   2.540   2.819   2.008 -0.4313 -0.9438  1.0892
 6124TIP3   OH239786   4.409   4.623   2.166 -0.1718 -0.3630 -0.4922
 6124TIP3    H139787   4.360   4.600   2.244 -0.9578 -0.3994 -0.9829
 6124TIP3    H239788   4.359   4.694   2.126 -0.3040 -0.9684 -1.4520
 6125TIP3   OH239789   0.366   5.128   2.672  0.3896 -0.0968  0.1405
 6125TIP3    H139790   0.368   5.220   2.697 -1.1039  0.4367 -1.4585
 6125TIP3    H239791   0.293   5.091   2.722  2.2616 -1.0122  2.3836
 6126TIP3   OH239792   4.459   4.803   1.767 -0.1385  0.1683 -0.5520
 6126TIP3    H139793   4.398   4.784   1.839 -0.6412  2.5187 -0.2656
 6126TIP3    H239794   4.546   4.792   1.806 -0.4085  0.4539  0.1575
 6127TIP3   OH239795   0.710   4.318  12.254  0.8933  0.1057  0.0630
 6127TIP3    H139796   0.641   4.300  12.318  0.8903 -0.6129 -0.1281
 6127TIP3    H239797   0.780   4.257  12.277  0.4345 -0.9962 -1.3169
 6128TIP3   OH239798   4.712   4.399   5.931 -0.1552  0.4749 -0.2330
 6128TIP3    H139799   4.637   4.451   5.960 -0.4069 -0.0094  0.0051
 6128TIP3    H239800   4.783   4.426   5.989  0.0914  1.5413 -0.9965
 6129TIP3   OH239801   4.790   2.272  11.573  0.4473  0.2472 -0.1470
 6129TIP3    H139802   4.865   2.255  11.516 -0.5634  0.0957 -1.4716
 6129TIP3    H239803   4.727   2.319  11.518 -0.3095  0.6708  1.0269
 6130TIP3   OH239804   5.855   6.610  14.390  0.7507 -0.2375  0.1845
 6130TIP3    H139805   5.806   6.546  14.441 -0.1047  0.4772  0.3037
 6130TIP3    H239806   5.849   6.579  14.300 -1.7312  0.8431 -0.1219
 6131TIP3   OH239807   4.559   5.262   3.098  0.0796  0.4572 -0.0484
 6131TIP3    H139808   4.504   5.193   3.061  0.6183  0.8667 -1.6670
 6131TIP3    H239809   4.578   5.320   3.025  1.1525  1.3370  0.8877
 6132TIP3   OH239810   2.560   0.190  12.630  0.3876 -0.1403 -0.2850
 6132TIP3    H139811   2.475   0.190  12.673  0.4939  1.1306 -0.0415
 6132TIP3    H239812   2.599   0.105  12.654 -0.6687 -0.5983 -0.1475
 6133TIP3   OH239813   6.573   1.437  12.207 -0.7394 -0.2488 -0.0738
 6133TIP3    H139814   6.608   1.462  12.122  1.3085  2.2077  1.3365
 6133TIP3    H239815   6.484   1.471  12.208 -0.7319 -0.1606 -1.1648
 6134TIP3   OH239816   2.444   5.893  15.791  0.2735  0.2656 -0.3273
 6134TIP3    H139817   2.356   5.931  15.790  0.1033  0.0339  1.5044
 6134TIP3    H239818   2.430   5.800  15.808  0.8663  0.1401 -0.4979
 6135TIP3   OH239819   0.391   1.214   1.916  0.3494 -0.1725 -0.4617
 6135TIP3    H139820   0.348   1.284   1.867 -1.9476 -1.8735 -1.0599
 6135TIP3    H239821   0.354   1.220   2.004  1.2745  0.2662 -0.0952
 6136TIP3   OH239822   2.395   5.035   5.739 -0.2444  0.6463  0.7128
 6136TIP3    H139823   2.479   4.990   5.754 -0.9550 -1.3655 -0.8155
 6136TIP3    H239824   2.420   5.126   5.723  1.5134  0.3714  1.6061
 6137TIP3   OH239825   0.782   2.811  11.859  0.9251  0.5014  0.0621
 6137TIP3    H139826   0.843   2.879  11.830  0.9591  0.5726  0.2962
 6137TIP3    H239827   0.806   2.733  11.810  0.6852  0.7423 -0.4411
 6138TIP3   OH239828   3.771   0.881  12.297 -0.2052  0.4594  0.2687
 6138TIP3    H139829   3.730   0.818  12.238  1.1824 -1.2635  1.0466
 6138TIP3    H239830   3.775   0.962  12.246 -0.4410 -0.5549 -1.4510
 6139TIP3   OH239831   1.105   0.761  11.567  0.4594 -0.5121 -0.3007
 6139TIP3    H139832   1.079   0.729  11.481 -2.1982 -1.9858  0.9150
 6139TIP3    H239833   1.070   0.849  11.573 -0.4924 -0.8808 -0.3005
 6140TIP3   OH239834   2.021   0.967   5.996 -0.4029  0.0463 -0.1814
 6140TIP3    H139835   2.017   1.026   6.072 -1.7654  1.0755 -0.9994
 6140TIP3    H239836   2.049   0.883   6.032 -2.8933 -0.0439  1.8599
 6141TIP3   OH239837   6.217   4.040   2.345  0.2878  0.2205 -0.2730
 6141TIP3    H139838   6.129   4.076   2.352  0.2621  0.4303 -1.4686
 6141TIP3    H239839   6.262   4.072   2.423 -0.5836  0.4112  0.1643
 6142TIP3   OH239840   5.036   1.154   2.491 -0.2862 -0.1518  0.3611
 6142TIP3    H139841   5.067   1.140   2.581  1.4038 -0.2847 -0.2072
 6142TIP3    H239842   5.107   1.120   2.436  0.4343  3.2910 -1.0813
 6143TIP3   OH239843   2.159   4.299   2.233 -0.3618  0.5015  0.1948
 6143TIP3    H139844   2.215   4.272   2.305 -0.6549 -0.9864 -0.1112
 6143TIP3    H239845   2.194   4.384   2.207 -0.9434  1.6512  2.8056
 6144TIP3   OH239846   1.833   1.254  12.323  0.2881  0.0338  0.1224
 6144TIP3    H139847   1.817   1.348  12.316 -0.4656 -0.0905  0.0440
 6144TIP3    H239848   1.808   1.219  12.237  0.0991 -0.2936  0.3068
 6145TIP3   OH239849   4.364   4.348  12.616 -0.1615  0.0751  0.0444
 6145TIP3    H139850   4.306   4.304  12.678  0.1307 -0.3508  0.0199
 6145TIP3    H239851   4.341   4.441  12.623 -2.1041 -0.2524 -1.2713
 6146TIP3   OH239852   0.788   4.335   0.276 -0.1199  0.2303  0.2480
 6146TIP3    H139853   0.837   4.363   0.198  2.0140  0.9413  1.7494
 6146TIP3    H239854   0.753   4.249   0.253  0.1386  0.5826 -1.6192
 6147TIP3   OH239855   5.869   6.661  14.687  0.1942 -0.2891 -0.0766
 6147TIP3    H139856   5.899   6.577  14.720  1.1278 -0.2289 -0.7433
 6147TIP3    H239857   5.829   6.640  14.602  0.0796 -0.1062 -0.0691
 6148TIP3   OH239858   5.268   3.360  11.249  0.1763  0.2549 -0.2044
 6148TIP3    H139859   5.205   3.402  11.190 -1.3421  1.0475  1.8754
 6148TIP3    H239860   5.256   3.266  11.234 -1.0561  0.4136 -0.2941
 6149TIP3   OH239861   6.375   2.434   2.284  0.0587  0.0565 -0.3665
 6149TIP3    H139862   6.304   2.494   2.309  1.1961  1.4159 -0.2822
 6149TIP3    H239863   6.359   2.414   2.192  0.0265  1.0432 -0.5835
 6150TIP3   OH239864   1.202   0.534   3.245 -0.2778 -0.3380  0.1489
 6150TIP3    H139865   1.176   0.625   3.232 -0.7944 -0.6275 -0.9574
 6150TIP3    H239866   1.184   0.517   3.338 -1.0208  0.4268  0.1616
 6151TIP3   OH239867   0.470   6.419  13.061  0.2865 -0.0505 -0.1225
 6151TIP3    H139868   0.445   6.432  12.969  0.3762 -1.2681 -0.3355
 6151TIP3    H239869   0.400   6.365  13.097  0.2126  0.4896  0.5626
 6152TIP3   OH239870   1.227   5.530   5.647 -0.4233  0.4694 -0.0364
 6152TIP3    H139871   1.158   5.557   5.586  0.9682  1.6014 -1.1901
 6152TIP3    H239872   1.221   5.435   5.649 -2.9978  0.5745  1.1342
 6153TIP3   OH239873   0.402   2.298  16.534 -0.2743 -0.2402 -0.0127
 6153TIP3    H139874   0.439   2.238  16.599  1.8295  0.1145 -0.8236
 6153TIP3    H239875   0.459   2.291  16.458 -1.5437  0.8249 -1.1299
 6154TIP3   OH239876   5.105   5.145  11.387 -0.8176 -0.2287 -0.3919
 6154TIP3    H139877   5.067   5.170  11.303 -1.8212  0.7085  0.3057
 6154TIP3    H239878   5.070   5.057  11.404  0.4477 -0.9790 -1.5448
 6155TIP3   OH239879   3.176   4.904   3.252  0.0997  0.3492 -0.2992
 6155TIP3    H139880   3.143   4.829   3.300  0.1003 -0.5234 -1.6014
 6155TIP3    H239881   3.271   4.893   3.250  0.1479  0.6903 -0.0116
 6156TIP3   OH239882   4.788   1.975  15.927  0.3757 -0.0939 -0.2999
 6156TIP3    H139883   4.712   1.918  15.915  0.1824  0.1755 -0.3714
 6156TIP3    H239884   4.755   2.049  15.977 -0.6501  2.4333 -4.2603
 6157TIP3   OH239885   2.932   6.169  15.351 -0.1911 -0.3993 -0.0745
 6157TIP3    H139886   2.955   6.146  15.261 -0.9784  2.4623 -1.1226
 6157TIP3    H239887   2.852   6.222  15.342 -1.6769 -1.9741  2.5508
 6158TIP3   OH239888   3.374   5.283   4.155 -0.2447 -0.8870  0.5223
 6158TIP3    H139889   3.452   5.337   4.143  0.4280 -1.6327  1.3660
 6158TIP3    H239890   3.317   5.335   4.212 -0.8209  0.0817 -0.8962
 6159TIP3   OH239891   5.970   4.641   3.253 -0.1340 -0.4989  0.2013
 6159TIP3    H139892   5.888   4.690   3.260 -0.6344 -1.5259  2.0267
 6159TIP3    H239893   5.950   4.566   3.198 -0.2943 -0.4923  0.2523
 6160TIP3   OH239894   3.944   4.487   4.933  0.0078  0.0532  0.1257
 6160TIP3    H139895   3.908   4.540   5.005  1.4214  0.8757  0.2667
 6160TIP3    H239896   3.934   4.542   4.856 -1.2836 -0.7334 -0.2996
 6161TIP3   OH239897   0.023   0.524   6.900  0.0803  0.2379  0.2813
 6161TIP3    H139898  -0.008   0.528   6.810 -0.8758  0.8131  0.6254
 6161TIP3    H239899   0.094   0.460   6.898 -0.2800 -0.1469 -0.7712
 6162TIP3   OH239900   4.790   1.694  14.779 -0.6786  0.2064 -0.0180
 6162TIP3    H139901   4.790   1.617  14.837  0.0799 -0.8014 -1.3054
 6162TIP3    H239902   4.868   1.682  14.724 -0.9300  1.5614 -0.6878
 6163TIP3   OH239903   3.097   0.681   3.716 -0.1267 -0.4250 -0.5804
 6163TIP3    H139904   3.089   0.686   3.621  0.7243  0.3649 -0.6243
 6163TIP3    H239905   3.161   0.610   3.730  0.4496  0.0696 -0.6480
 6164TIP3   OH239906   2.681   3.966   4.202  0.8346  0.1494  0.3166
 6164TIP3    H139907   2.623   4.013   4.262  0.0341 -0.3150 -0.0805
 6164TIP3    H239908   2.639   3.881   4.190  0.0737  0.8057 -2.1972
 6165TIP3   OH239909   4.700   6.500  16.750  0.4737 -0.1952 -0.6528
 6165TIP3    H139910   4.616   6.458  16.769  0.9955 -0.8371  0.2974
 6165TIP3    H239911   4.677   6.576  16.696 -0.7785  0.0030  0.1306
 6166TIP3   OH239912   6.164   3.110  15.651 -0.2306 -0.2706 -0.3277
 6166TIP3    H139913   6.118   3.034  15.616 -1.0766  0.0150  0.1340
 6166TIP3    H239914   6.197   3.081  15.736  0.6381 -0.5368 -0.7432
 6167TIP3   OH239915   4.840   5.305   4.294 -0.5682 -0.0686 -0.5016
 6167TIP3    H139916   4.927   5.309   4.256 -1.3940 -0.5118 -2.5416
 6167TIP3    H239917   4.856   5.294   4.388  1.5539 -0.7207 -0.8815
 6168TIP3   OH239918   0.013   6.809   4.375  0.5285  0.4495 -0.1726
 6168TIP3    H139919  -0.039   6.742   4.420 -0.6900  0.9652 -0.7657
 6168TIP3    H239920   0.081   6.760   4.328 -0.7499 -0.4435 -1.1438
 6169TIP3   OH239921   6.278   1.104  12.413  0.2290  0.2424 -0.5060
 6169TIP3    H139922   6.229   1.178  12.378 -1.2024  0.2459  1.3320
 6169TIP3    H239923   6.299   1.049  12.337 -3.3346 -0.1626 -1.3498
 6170TIP3   OH239924   4.149   0.955   3.882 -0.1058 -0.5035 -0.0767
 6170TIP3    H139925   4.153   0.874   3.933  0.0826 -0.3538  0.1512
 6170TIP3    H239926   4.105   0.930   3.800  1.1956 -1.1610 -0.6125
 6171TIP3   OH239927   3.325   5.573   4.088 -0.3513 -0.3560  0.1093
 6171TIP3    H139928   3.405   5.525   4.065 -0.2822  0.6222 -1.8826
 6171TIP3    H239929   3.356   5.649   4.137 -0.2571 -1.0136  1.0989
 6172TIP3   OH239930   1.733   2.268  10.461  0.4107  0.3318 -0.1849
 6172TIP3    H139931   1.808   2.223  10.422  0.9801  0.9035  0.2371
 6172TIP3    H239932   1.713   2.216  10.539  1.0379  0.7732  0.2761
 6173TIP3   OH239933   4.999   0.592   1.313  0.9432 -0.1433 -0.4237
 6173TIP3    H139934   5.054   0.670   1.316 -2.1231  2.1639  0.6633
 6173TIP3    H239935   4.982   0.570   1.404 -0.3989 -0.3901 -0.7022
 6174TIP3   OH239936   3.334   3.968   1.246 -0.3355  0.2164 -0.5241
 6174TIP3    H139937   3.335   3.980   1.151  0.4073  0.6152 -0.4738
 6174TIP3    H239938   3.260   4.020   1.276 -0.8955 -0.3396 -0.9368
 6175TIP3   OH239939   2.175   2.582   3.575 -0.5044  0.6146 -0.0375
 6175TIP3    H139940   2.138   2.507   3.622 -1.5796  1.4248  0.4781
 6175TIP3    H239941   2.099   2.624   3.534 -0.0696  1.9686  0.4901
 6176TIP3   OH239942   1.284   4.862   6.109  0.1515 -0.4138 -0.3919
 6176TIP3    H139943   1.346   4.815   6.054  0.1936 -1.4044  0.4752
 6176TIP3    H239944   1.199   4.852   6.065  0.3694 -0.2290 -0.8572
 6177TIP3   OH239945   1.247   4.939  13.667  0.3884 -0.1320 -0.3428
 6177TIP3    H139946   1.210   4.851  13.665 -0.1919  0.0399  1.2126
 6177TIP3    H239947   1.193   4.990  13.607 -0.4690 -0.4173  0.1679
 6178TIP3   OH239948   4.768   5.467  15.939  0.4389 -0.1694 -0.1854
 6178TIP3    H139949   4.762   5.431  16.028  0.2286 -1.2840 -0.6360
 6178TIP3    H239950   4.783   5.560  15.952  0.1895 -0.2835  1.0260
 6179TIP3   OH239951   6.631   5.619  14.301 -0.0871 -0.5017 -0.5129
 6179TIP3    H139952   6.548   5.587  14.336 -1.4378  2.2580 -0.9305
 6179TIP3    H239953   6.690   5.620  14.376 -1.2540  0.0566  0.4241
 6180TIP3   OH239954   3.703   5.001  14.178  0.1148 -0.2204  0.5356
 6180TIP3    H139955   3.677   4.911  14.158  2.0221 -1.4844  3.0926
 6180TIP3    H239956   3.650   5.026  14.254  0.8818  0.0758  0.9931
 6181TIP3   OH239957   2.027   6.358  16.761  0.5643 -0.5099 -1.0521
 6181TIP3    H139958   2.020   6.296  16.689  4.0423  0.0615 -2.0645
 6181TIP3    H239959   2.120   6.360  16.782  0.4178  3.2643 -0.0732
 6182TIP3   OH239960   2.752   4.578  14.175 -0.6611  0.5942 -0.2845
 6182TIP3    H139961   2.673   4.625  14.202 -0.1425  1.5589 -0.3812
 6182TIP3    H239962   2.781   4.624  14.096 -0.7696 -0.6243 -1.0591
 6183TIP3   OH239963   6.750   0.950  11.588  0.2503  0.5993  0.2054
 6183TIP3    H139964   6.836   0.962  11.546 -0.4737  0.0584 -1.5204
 6183TIP3    H239965   6.714   1.039  11.594 -0.0080  0.6161 -1.2144
 6184TIP3   OH239966   6.392   0.116   4.968 -0.5378 -0.2856 -0.0485
 6184TIP3    H139967   6.298   0.127   4.951 -0.8172 -0.7125  1.0919
 6184TIP3    H239968   6.418   0.043   4.912 -1.2495 -1.1661  0.7332
 6185TIP3   OH239969   2.916   4.584   3.885 -0.2039 -0.3149 -0.3507
 6185TIP3    H139970   2.991   4.575   3.944  0.2323  1.2757 -0.6339
 6185TIP3    H239971   2.934   4.521   3.815  0.3289 -0.7184  0.1341
 6186TIP3   OH239972   2.507   2.585   5.958 -0.0648  0.6519  0.1138
 6186TIP3    H139973   2.540   2.655   6.015 -0.8699 -0.3130  1.8562
 6186TIP3    H239974   2.546   2.505   5.993 -0.0969  0.0805 -1.0989
 6187TIP3   OH239975   1.411   2.503   1.166 -0.0004  0.0727  0.1785
 6187TIP3    H139976   1.414   2.598   1.174 -0.1316  0.4946 -3.4235
 6187TIP3    H239977   1.493   2.473   1.206  0.6258  1.7860  0.2402
 6188TIP3   OH239978   3.040   3.886   1.143 -0.0442  0.0726  0.4753
 6188TIP3    H139979   3.039   3.937   1.224 -1.5480  0.1879  0.4106
 6188TIP3    H239980   3.063   3.798   1.171 -2.7040 -0.4194  1.4215
 6189TIP3   OH239981   3.184   2.951  13.587 -0.4975  0.1831 -0.3310
 6189TIP3    H139982   3.121   3.015  13.620  0.6021  0.7963  0.6247
 6189TIP3    H239983   3.256   2.952  13.650 -0.8912 -2.7810  0.3381
 6190TIP3   OH239984   5.530   1.562  11.320  0.1222 -0.3235 -0.4480
 6190TIP3    H139985   5.472   1.564  11.244  0.2955 -0.3515 -0.5808
 6190TIP3    H239986   5.577   1.645  11.316 -0.4695  0.0440  0.0966
 6191TIP3   OH239987   6.648   3.957   2.011  0.6821  0.3581 -0.0160
 6191TIP3    H139988   6.582   3.902   1.970  0.7755 -1.4284  2.0706
 6191TIP3    H239989   6.615   3.973   2.099  2.1596  1.0081  0.4601
 6192TIP3   OH239990   2.531   1.302  17.022 -0.2843  0.1447 -0.1199
 6192TIP3    H139991   2.587   1.298  17.100  1.3402  1.8024 -1.1235
 6192TIP3    H239992   2.515   1.395  17.008 -0.4045 -0.0977 -1.8549
 6193TIP3   OH239993   1.262   0.608  16.905 -0.4684  0.3913  0.8176
 6193TIP3    H139994   1.181   0.614  16.854 -0.6465  0.3004  1.0880
 6193TIP3    H239995   1.320   0.673  16.864 -0.2972 -0.2981 -0.0514
 6194TIP3   OH239996   0.535   6.009   4.403  0.0547  0.4082  0.1771
 6194TIP3    H139997   0.574   5.952   4.469  1.4798 -0.3632 -1.2575
 6194TIP3    H239998   0.481   5.951   4.349 -0.5650  0.9009  0.2530
 6195TIP3   OH239999   2.942   5.711  15.566 -0.1878  0.5039 -0.0770
 6195TIP3    H140000   2.883   5.763  15.511 -2.0756 -0.7782  0.6351
 6195TIP3    H240001   2.908   5.722  15.654  0.7532 -0.1487  0.3889
 6196TIP3   OH240002   2.551   1.564   4.130 -0.0578 -0.5598 -0.2641
 6196TIP3    H140003   2.491   1.587   4.058 -0.7137 -2.5228 -0.4212
 6196TIP3    H240004   2.635   1.600   4.104 -0.9935  1.6774 -0.3823
 6197TIP3   OH240005   1.043   1.381   0.288 -0.4938  0.0324  0.1525
 6197TIP3    H140006   1.020   1.303   0.339  0.1970 -1.6890 -1.9818
 6197TIP3    H240007   1.092   1.346   0.213 -2.5763  2.2268 -2.4302
 6198TIP3   OH240008   6.626   0.611  14.172  0.0191 -0.1439  0.2293
 6198TIP3    H140009   6.534   0.592  14.154  0.3723 -1.5980 -0.1814
 6198TIP3    H240010   6.673   0.538  14.132  1.2672 -0.1384  1.6350
 6199TIP3   OH240011   0.380   4.841   5.684  0.1963  0.4351 -0.2629
 6199TIP3    H140012   0.424   4.887   5.613 -0.0626  0.7103 -0.2486
 6199TIP3    H240013   0.435   4.765   5.701  0.9305  1.0417  0.0985
 6200TIP3   OH240014   4.776   6.594   0.681  0.0706 -0.4670 -0.6501
 6200TIP3    H140015   4.738   6.577   0.594 -0.8499  0.2278 -0.3994
 6200TIP3    H240016   4.726   6.538   0.740  0.2908 -0.4871 -0.4813
 6201TIP3   OH240017   4.491   2.959  15.273  0.2541  0.0472  0.2045
 6201TIP3    H140018   4.564   2.930  15.327  1.8073  1.4841 -1.0087
 6201TIP3    H240019   4.504   2.915  15.189 -1.6271 -1.4753  0.6443
 6202TIP3   OH240020   1.202   6.120  11.992  0.5550 -0.0520 -0.2694
 6202TIP3    H140021   1.118   6.147  11.955  1.6871  2.8134 -0.9623
 6202TIP3    H240022   1.232   6.050  11.933  0.0064  0.9437 -1.7919
 6203TIP3   OH240023   3.723   1.880   2.619 -0.4466  0.2894  0.0201
 6203TIP3    H140024   3.699   1.801   2.667 -0.1925  0.0287 -0.2786
 6203TIP3    H240025   3.814   1.866   2.593  0.2776  1.5460  1.7095
 6204TIP3   OH240026   5.674   6.472  14.552  0.0691  0.0110 -0.2474
 6204TIP3    H140027   5.674   6.414  14.628  1.5212 -0.1670 -0.3585
 6204TIP3    H240028   5.581   6.493  14.537 -0.3682 -1.2884  0.5374
 6205TIP3   OH240029   0.210   2.963  13.875 -0.5611 -0.1013  0.0055
 6205TIP3    H140030   0.219   2.886  13.818  0.9021 -1.1623  1.5584
 6205TIP3    H240031   0.128   3.004  13.847 -1.0913 -1.8968 -1.2742
 6206TIP3   OH240032   2.235   5.602   0.682  0.6777  0.0734  0.7547
 6206TIP3    H140033   2.235   5.593   0.586 -2.1982  1.6679  0.4820
 6206TIP3    H240034   2.301   5.669   0.700  0.2150  0.8322 -0.2898
 6207TIP3   OH240035   6.645   1.374  13.908  0.1170 -0.1296  0.2194
 6207TIP3    H140036   6.606   1.401  13.991 -1.7249  0.3973 -0.7508
 6207TIP3    H240037   6.572   1.335  13.860  0.5901  1.4708 -1.9610
 6208TIP3   OH240038   6.415   1.199   3.973  0.4756 -0.2783  0.0282
 6208TIP3    H140039   6.330   1.212   4.014 -0.0263 -0.3068 -0.9911
 6208TIP3    H240040   6.466   1.150   4.038  0.2547  1.0766  1.2964
 6209TIP3   OH240041   4.235   6.598  14.895  0.4716 -0.4676 -0.2163
 6209TIP3    H140042   4.169   6.633  14.835  1.2401  0.6410 -0.4505
 6209TIP3    H240043   4.307   6.661  14.891  1.2394 -1.2587  0.6000
 6210TIP3   OH240044   3.005   0.480  12.456 -0.4348 -0.3889  0.1516
 6210TIP3    H140045   3.080   0.480  12.396 -0.0820  0.8618  0.5536
 6210TIP3    H240046   2.929   0.463  12.400  0.0204 -0.4447 -0.4588
 6211TIP3   OH240047   6.170   3.405   0.768  0.0037 -0.0662  0.1487
 6211TIP3    H140048   6.096   3.349   0.793 -0.8739  0.8977 -0.2525
 6211TIP3    H240049   6.130   3.479   0.723  1.0928  1.2075  1.2219
 6212TIP3   OH240050   1.469   2.475   2.769  0.1516 -0.3669  0.5367
 6212TIP3    H140051   1.427   2.560   2.759  1.2237  0.1927  0.7563
 6212TIP3    H240052   1.557   2.486   2.733 -0.3946 -2.0040 -1.5479
 6213TIP3   OH240053   2.298   2.087  14.773 -0.5124 -0.5349  0.6654
 6213TIP3    H140054   2.223   2.140  14.799 -1.2351 -1.2356  0.0889
 6213TIP3    H240055   2.334   2.054  14.855 -1.1828 -0.6363  0.9290
 6214TIP3   OH240056   3.351   3.530  13.622  0.0398  0.1269  0.2577
 6214TIP3    H140057   3.414   3.490  13.682  1.0966  0.2383 -0.7472
 6214TIP3    H240058   3.272   3.477  13.631  0.0297  0.3608  2.0139
 6215TIP3   OH240059   6.743   6.256  11.332  0.3180  0.6479 -0.6995
 6215TIP3    H140060   6.660   6.218  11.306  0.4179  1.1574 -1.8106
 6215TIP3    H240061   6.792   6.265  11.251  1.5449  0.1814 -0.0449
 6216TIP3   OH240062   3.718   3.419   5.345 -0.0296  0.4362  0.0514
 6216TIP3    H140063   3.741   3.373   5.265  1.8716  1.8981 -0.3119
 6216TIP3    H240064   3.686   3.505   5.315 -0.3340  0.6093  0.8326
 6217TIP3   OH240065   1.702   6.464   1.145  0.8144 -0.0604 -0.1440
 6217TIP3    H140066   1.619   6.458   1.097  1.5385 -0.6619 -1.3673
 6217TIP3    H240067   1.677   6.459   1.237 -0.4475 -1.2591 -0.5150
 6218TIP3   OH240068   4.449   1.526   0.791 -0.8391 -0.5571  0.1859
 6218TIP3    H140069   4.522   1.493   0.843 -0.3548 -0.3727 -0.3679
 6218TIP3    H240070   4.397   1.578   0.852 -0.3438 -0.4416  0.5130
 6219TIP3   OH240071   3.655   3.616   0.772 -0.0673  0.1006  0.2930
 6219TIP3    H140072   3.593   3.665   0.718 -0.4193 -0.2995  0.3308
 6219TIP3    H240073   3.601   3.570   0.835  0.1681 -1.1901 -0.4164
 6220TIP3   OH240074   0.806   2.967   2.738  0.4280 -0.0291  0.4304
 6220TIP3    H140075   0.728   2.979   2.683  1.7504 -0.6348 -1.6828
 6220TIP3    H240076   0.858   3.046   2.724  0.5345  0.0640  1.2905
 6221TIP3   OH240077   0.505   2.860  13.676  0.4776  0.0889 -0.2872
 6221TIP3    H140078   0.514   2.912  13.756  0.0157  0.4638 -0.4788
 6221TIP3    H240079   0.481   2.923  13.608 -1.6824 -0.5588 -0.2101
 6222TIP3   OH240080   1.395   1.336   0.770 -0.0444  0.0046 -0.3995
 6222TIP3    H140081   1.350   1.420   0.763  0.8756  0.6114  0.7176
 6222TIP3    H240082   1.472   1.354   0.823 -1.8008 -2.2532  3.3537
 6223TIP3   OH240083   6.064   0.754   5.153 -0.5351 -0.1585  0.2529
 6223TIP3    H140084   6.132   0.687   5.161 -1.5866 -1.0578  2.4921
 6223TIP3    H240085   6.112   0.835   5.135  1.0096 -1.0157  0.3238
 6224TIP3   OH240086   4.277   3.307   2.621  0.4679  0.0636  0.0670
 6224TIP3    H140087   4.254   3.270   2.707  0.5655 -0.8718 -0.2919
 6224TIP3    H240088   4.214   3.269   2.561 -0.4799  1.7961 -0.0916
 6225TIP3   OH240089   1.662   5.241   4.410 -0.0272 -0.0057 -0.2029
 6225TIP3    H140090   1.641   5.240   4.317 -3.9117 -0.9907  0.5319
 6225TIP3    H240091   1.677   5.149   4.432  1.4551  0.2808  0.0985
 6226TIP3   OH240092   6.144   5.987   3.361  0.0787  0.0470 -0.0275
 6226TIP3    H140093   6.072   5.960   3.417  0.4473  0.2418  0.5481
 6226TIP3    H240094   6.199   5.909   3.353 -0.3562 -0.1973 -0.7329
 6227TIP3   OH240095   1.402   6.233   1.588  0.1094 -0.0707 -0.5452
 6227TIP3    H140096   1.433   6.208   1.674 -1.8331 -0.5044  0.0778
 6227TIP3    H240097   1.353   6.157   1.556 -0.7882  0.7376 -1.1998
 6228TIP3   OH240098   5.379   1.277  14.294  0.3428  0.0899  0.5061
 6228TIP3    H140099   5.371   1.186  14.264 -0.7117 -0.2686  1.8010
 6228TIP3    H240100   5.455   1.276  14.352  1.0023  0.2985 -0.3269
 6229TIP3   OH240101   1.140   6.265   3.975 -0.0598  0.5513 -0.0051
 6229TIP3    H140102   1.097   6.188   4.013 -0.7860  1.1423  0.4122
 6229TIP3    H240103   1.068   6.316   3.938  0.6781 -0.2403 -2.6889
 6230TIP3   OH240104   1.170   6.287   3.191  0.6363 -0.3152  0.9770
 6230TIP3    H140105   1.121   6.347   3.248  0.8901 -1.5870  2.6192
 6230TIP3    H240106   1.259   6.288   3.225  0.4059 -2.4615  1.8478
 6231TIP3   OH240107   3.215   1.887  16.896  0.4355  0.2116 -0.5381
 6231TIP3    H140108   3.170   1.803  16.904  0.7051  0.0512 -0.7187
 6231TIP3    H240109   3.227   1.900  16.802 -0.7113  1.0387 -0.6026
 6232TIP3   OH240110   5.716   2.978  15.342  0.1813 -0.2049  0.1221
 6232TIP3    H140111   5.740   3.022  15.423 -0.7414  0.6729 -0.0697
 6232TIP3    H240112   5.659   2.906  15.370  1.7842 -1.4034  0.4460
 6233TIP3   OH240113   6.251   2.347  13.675  0.4932 -0.1142 -0.2182
 6233TIP3    H140114   6.169   2.396  13.682  0.3694 -0.2002 -0.9726
 6233TIP3    H240115   6.279   2.361  13.585  0.0817 -2.0296 -0.6808
 6234TIP3   OH240116   0.699   2.953  15.627  0.2350 -0.0103  0.5108
 6234TIP3    H140117   0.684   2.959  15.533  0.4736 -0.2478  0.4586
 6234TIP3    H240118   0.793   2.944  15.636  0.4088  1.8139  0.8614
 6235TIP3   OH240119   0.371   0.404  14.772  0.3066 -0.1662 -0.5155
 6235TIP3    H140120   0.435   0.454  14.721  0.9406 -0.3570  0.0736
 6235TIP3    H240121   0.322   0.354  14.706  0.2229  0.5851 -1.0407
 6236TIP3   OH240122   0.768   3.441  10.849  0.1845  0.5643 -0.2959
 6236TIP3    H140123   0.816   3.388  10.913  1.9071  1.9192 -0.3950
 6236TIP3    H240124   0.835   3.496  10.808 -1.0947  0.7651 -2.2529
 6237TIP3   OH240125   2.597   2.994  16.508  0.7746 -0.9286 -0.0898
 6237TIP3    H140126   2.598   2.907  16.468 -0.5651 -1.0182  0.0253
 6237TIP3    H240127   2.605   2.977  16.602  1.1667 -0.8815 -0.1135
 6238TIP3   OH240128   3.130   5.492  13.290 -0.4276 -0.0666 -0.2541
 6238TIP3    H140129   3.158   5.403  13.313  0.0835  0.0857 -0.2759
 6238TIP3    H240130   3.212   5.538  13.270 -0.7179  0.3146 -0.5685
 6239TIP3   OH240131   4.436   1.933  15.303  0.2094  0.2657 -0.5480
 6239TIP3    H140132   4.457   1.972  15.388  1.6748 -1.0303 -0.2762
 6239TIP3    H240133   4.479   1.990  15.239  0.5607  0.2792 -0.3004
 6240TIP3   OH240134   3.428   2.749   3.183 -0.2015 -0.4059 -0.5536
 6240TIP3    H140135   3.426   2.802   3.103  1.5152 -0.2440 -0.5261
 6240TIP3    H240136   3.339   2.715   3.192 -1.0092  1.4038 -1.2871
 6241TIP3   OH240137   0.725   6.403  13.488 -0.6933  0.2221  0.4519
 6241TIP3    H140138   0.668   6.452  13.547 -1.0562 -0.4718  0.6970
 6241TIP3    H240139   0.694   6.425  13.401 -0.7214  0.5770  0.5488
 6242TIP3   OH240140   3.894   2.211   4.129  0.3588 -0.2823  0.4822
 6242TIP3    H140141   3.970   2.268   4.128 -1.4281  2.2675 -0.1225
 6242TIP3    H240142   3.829   2.257   4.076 -0.9094 -3.3902 -0.9116
 6243TIP3   OH240143   0.919   5.828  13.101 -0.6062 -0.0909  0.3748
 6243TIP3    H140144   0.859   5.900  13.118 -0.1054  0.5125 -0.3622
 6243TIP3    H240145   0.882   5.783  13.025 -0.8682 -0.5626  0.7755
 6244TIP3   OH240146   3.502   5.059  16.287  0.0174  0.2383 -0.4242
 6244TIP3    H140147   3.441   5.107  16.342 -0.0228  0.4352 -0.6409
 6244TIP3    H240148   3.477   4.967  16.298 -0.5352  0.3434 -0.7736
 6245TIP3   OH240149   6.487   3.897  14.548  0.4215 -0.3607 -0.5223
 6245TIP3    H140150   6.531   3.876  14.630  0.8894  0.1867 -0.6277
 6245TIP3    H240151   6.426   3.967  14.570  2.4085  1.6544 -1.1217
 6246TIP3   OH240152   5.007   5.516  13.376 -0.3319  0.3563  0.1004
 6246TIP3    H140153   5.037   5.557  13.457  1.8507 -0.3829 -0.2686
 6246TIP3    H240154   4.957   5.440  13.406  0.4261  0.1042  0.7817
 6247TIP3   OH240155   4.024   4.754   5.381  0.2448  1.0573 -0.0645
 6247TIP3    H140156   4.108   4.744   5.427  0.3278  0.0791 -0.4296
 6247TIP3    H240157   4.005   4.848   5.388  0.2526  0.9532  1.9768
 6248TIP3   OH240158   1.592   5.501   0.504 -0.3459  0.0785 -0.5447
 6248TIP3    H140159   1.607   5.419   0.550  0.2698  2.3513  3.7677
 6248TIP3    H240160   1.497   5.507   0.494 -0.7438  0.4703  2.6880
 6249TIP3   OH240161   1.381   0.881   0.742 -0.0990 -0.3294 -0.3034
 6249TIP3    H140162   1.441   0.942   0.786 -0.2910 -1.3143  1.4235
 6249TIP3    H240163   1.433   0.801   0.729 -0.8364 -0.9921  0.6851
 6250TIP3   OH240164   6.615   3.244  11.026  0.2663  0.3460 -0.0877
 6250TIP3    H140165   6.665   3.325  11.019 -0.6660  0.8069 -2.3620
 6250TIP3    H240166   6.671   3.177  10.987  0.3092  0.2778  0.0934
 6251TIP3   OH240167   2.099   4.999   4.986  0.0430 -0.0311  0.4252
 6251TIP3    H140168   2.186   4.966   4.967  0.3442  0.5779  0.7388
 6251TIP3    H240169   2.086   4.979   5.079 -0.4811 -0.8455  0.1984
 6252TIP3   OH240170   0.560   5.581  16.120 -0.2072  0.8485  0.2048
 6252TIP3    H140171   0.508   5.520  16.171  2.2948 -2.2012 -0.5948
 6252TIP3    H240172   0.519   5.582  16.034 -0.8021  1.0630  0.4842
 6253TIP3   OH240173   0.372   2.434  11.806 -0.1223  0.0483  0.5933
 6253TIP3    H140174   0.468   2.429  11.806 -0.1628 -3.5012  1.4643
 6253TIP3    H240175   0.353   2.528  11.801  3.3346  0.8264 -1.3232
 6254TIP3   OH240176   2.760   5.461  11.074 -0.1521 -0.2251 -0.0538
 6254TIP3    H140177   2.758   5.513  10.994 -2.8497 -1.1730 -0.7195
 6254TIP3    H240178   2.721   5.377  11.049  1.1861 -1.4596  1.7159
 6255TIP3   OH240179   6.793   6.184   2.357 -0.3599 -0.2728 -0.1530
 6255TIP3    H140180   6.794   6.116   2.290  0.2903 -0.3036 -0.1194
 6255TIP3    H240181   6.845   6.148   2.429 -1.3862 -0.4060  0.5403
 6256TIP3   OH240182   6.057   2.774  10.394  0.2241 -0.2428 -0.1921
 6256TIP3    H140183   6.128   2.728  10.439  2.0586 -0.1611 -2.7400
 6256TIP3    H240184   6.101   2.824  10.325 -2.2964 -0.0789 -1.8293
 6257TIP3   OH240185   2.054   0.974   2.296  0.1146  0.8591 -0.2277
 6257TIP3    H140186   1.983   1.037   2.286  1.0871  1.9389 -0.5642
 6257TIP3    H240187   2.090   0.991   2.384  1.6898  2.2321 -1.0805
 6258TIP3   OH240188   1.059   3.502   3.068 -0.1680  0.8168 -0.5258
 6258TIP3    H140189   1.085   3.410   3.067  0.3704  0.9693 -0.7474
 6258TIP3    H240190   1.137   3.549   3.098 -0.4093  1.2107 -0.5030
 6259TIP3   OH240191   0.728   2.670  10.252 -0.5018  0.2007 -0.0898
 6259TIP3    H140192   0.748   2.669  10.345 -0.7205 -1.8121 -0.0253
 6259TIP3    H240193   0.696   2.582  10.233 -0.1689  0.4675 -2.1349
 6260TIP3   OH240194   4.135   5.311  16.607 -0.1408  0.0333 -0.1827
 6260TIP3    H140195   4.047   5.328  16.573 -0.5200 -0.2495  0.6423
 6260TIP3    H240196   4.145   5.216  16.602  0.0191  0.0419 -0.0348
 6261TIP3   OH240197   0.050   4.033  16.944 -0.1366 -0.1747 -0.5652
 6261TIP3    H140198  -0.010   4.048  17.017 -0.9745 -0.7198 -1.1094
 6261TIP3    H240199   0.024   3.947  16.909 -1.7815  1.2607 -3.2907
 6262TIP3   OH240200   5.470   4.000  15.879  0.5905 -0.3393 -0.4547
 6262TIP3    H140201   5.440   3.915  15.909  0.7447 -0.3173 -0.2322
 6262TIP3    H240202   5.402   4.061  15.908 -1.8312 -0.8557 -4.3835
 6263TIP3   OH240203   3.432   4.788   2.266  0.2481  0.0714 -0.1833
 6263TIP3    H140204   3.492   4.780   2.341 -2.0809 -0.4493  1.7574
 6263TIP3    H240205   3.474   4.737   2.197  2.0408 -0.2569  1.0649
 6264TIP3   OH240206   5.119   6.285   6.563 -0.0106 -0.0375 -0.2281
 6264TIP3    H140207   5.046   6.226   6.582  0.3351 -0.1426  0.8497
 6264TIP3    H240208   5.097   6.366   6.609  0.6543 -0.1519  0.3069
 6265TIP3   OH240209   6.221   6.396   1.969  0.1656  0.0594 -0.5112
 6265TIP3    H140210   6.256   6.484   1.979 -0.1249  0.1448 -0.2288
 6265TIP3    H240211   6.228   6.357   2.057 -0.9106  0.2559 -0.3248
 6266TIP3   OH240212   6.311   0.193  11.698 -0.0787  0.0885  0.0361
 6266TIP3    H140213   6.223   0.193  11.734  0.9464 -0.4145  2.8343
 6266TIP3    H240214   6.331   0.285  11.683 -1.6044  0.1224 -2.2976
 6267TIP3   OH240215   5.807   1.322  12.514  0.7118  0.1747 -0.3018
 6267TIP3    H140216   5.747   1.329  12.589 -0.7624  0.4479 -1.4421
 6267TIP3    H240217   5.821   1.228  12.503 -0.8811 -0.0245 -1.0002
 6268TIP3   OH240218   3.061   5.445  10.749 -0.3593  0.3005  0.4333
 6268TIP3    H140219   3.107   5.500  10.685 -1.1024  2.8619  1.9790
 6268TIP3    H240220   3.131   5.415  10.808 -0.1144  0.7366  0.3721
 6269TIP3   OH240221   2.031   0.313  13.763 -0.3043 -0.0933 -0.3878
 6269TIP3    H140222   1.996   0.328  13.675 -0.1057 -1.1643 -0.6552
 6269TIP3    H240223   2.115   0.270  13.749  0.2802  0.7786  0.3085
 6270TIP3   OH240224   5.836   5.998   5.693  0.3435  0.3725 -0.1906
 6270TIP3    H140225   5.747   5.996   5.658  0.1724  0.4296  0.2328
 6270TIP3    H240226   5.834   6.068   5.758  0.4433 -0.2304  0.4781
 6271TIP3   OH240227   3.043   1.646   4.259 -0.0450 -0.3490 -0.0324
 6271TIP3    H140228   3.044   1.661   4.165 -0.7696 -2.9411 -0.5423
 6271TIP3    H240229   3.050   1.551   4.268 -0.1275 -0.1875  2.5419
 6272TIP3   OH240230   6.773   5.294  13.814  0.2172  0.7622 -0.2033
 6272TIP3    H140231   6.837   5.267  13.879 -0.3611 -0.2948 -0.0567
 6272TIP3    H240232   6.820   5.289  13.731  0.3888  0.1975 -0.0773
 6273TIP3   OH240233   5.584   0.649  10.883  1.0742  0.0135  0.1712
 6273TIP3    H140234   5.582   0.637  10.978  2.1938  0.3536  0.2458
 6273TIP3    H240235   5.566   0.742  10.871  0.5304 -0.1086  0.0241
 6274TIP3   OH240236   2.970   0.859   1.412  0.0480  0.3931  0.5484
 6274TIP3    H140237   3.031   0.818   1.351  0.8815  2.7341 -0.2863
 6274TIP3    H240238   2.907   0.904   1.356 -0.3609  0.9128  1.4096
 6275TIP3   OH240239   3.155   0.936  15.412 -0.0489 -0.5568 -0.3895
 6275TIP3    H140240   3.134   0.859  15.360 -0.3037 -0.6553 -0.1451
 6275TIP3    H240241   3.073   0.985  15.417 -0.1019 -0.6900  0.1462
 6276TIP3   OH240242   2.726   4.280   5.393  0.5379  0.2668  0.0922
 6276TIP3    H140243   2.638   4.260   5.423  0.3954  2.8056  1.6626
 6276TIP3    H240244   2.715   4.313   5.305 -0.0775  0.4837  0.2482
 6277TIP3   OH240245   3.199   6.371   1.781 -0.4060  0.5997 -0.1480
 6277TIP3    H140246   3.161   6.378   1.868 -0.1047 -0.9676  0.1419
 6277TIP3    H240247   3.283   6.327   1.795 -0.3878  0.2648 -1.2250
 6278TIP3   OH240248   5.383   0.267   5.655  0.1746 -0.1525 -0.1257
 6278TIP3    H140249   5.387   0.346   5.708 -1.2165 -0.2446  0.1687
 6278TIP3    H240250   5.472   0.255   5.622  0.7442  0.6913  1.0414
 6279TIP3   OH240251   3.540   6.507   6.132 -0.0659 -0.1136  0.2611
 6279TIP3    H140252   3.508   6.485   6.044 -0.9674  1.9362  0.0266
 6279TIP3    H240253   3.540   6.423   6.178 -0.1765 -1.1421 -1.4920
 6280TIP3   OH240254   0.582   5.744  10.980  0.2907  0.0035 -0.5730
 6280TIP3    H140255   0.491   5.754  11.006  1.1618 -0.0619  2.9126
 6280TIP3    H240256   0.604   5.827  10.937 -1.1052  0.4476 -0.4670
 6281TIP3   OH240257   2.431   3.630  12.446  0.3799 -0.2874 -0.1187
 6281TIP3    H140258   2.428   3.538  12.475  1.7496 -0.7814 -1.3949
 6281TIP3    H240259   2.357   3.638  12.386  1.6973 -1.3872 -2.0477
 6282TIP3   OH240260   0.225   4.348   6.809  0.1191 -0.9921  0.2549
 6282TIP3    H140261   0.201   4.438   6.831  1.6893 -0.2398 -0.9140
 6282TIP3    H240262   0.320   4.351   6.797 -0.0468 -2.3181 -1.8765
 6283TIP3   OH240263   4.372   6.473  14.441  0.7632  0.3068 -0.3978
 6283TIP3    H140264   4.346   6.422  14.365 -1.4128 -0.1664  0.5904
 6283TIP3    H240265   4.431   6.416  14.490 -0.7064 -0.8589  0.0850
 6284TIP3   OH240266   5.620   1.908  11.578  0.1512 -0.3464  0.2079
 6284TIP3    H140267   5.705   1.883  11.615  0.4045 -1.1358 -0.8544
 6284TIP3    H240268   5.614   1.858  11.497 -0.6389  0.9189 -0.5410
 6285TIP3   OH240269   4.302   5.806   3.512  0.3418 -0.2681 -0.0855
 6285TIP3    H140270   4.316   5.877   3.449 -0.2265 -0.7609 -0.7838
 6285TIP3    H240271   4.332   5.842   3.596 -1.4546  1.4005 -0.0836
 6286TIP3   OH240272   0.781   3.547   5.290  0.6424 -0.0932  0.2173
 6286TIP3    H140273   0.750   3.490   5.360  1.7818  1.1589  1.7900
 6286TIP3    H240274   0.765   3.636   5.322 -0.7215  0.5643 -2.0092
 6287TIP3   OH240275   3.123   3.372  13.064  0.0282  0.0919 -0.5483
 6287TIP3    H140276   3.043   3.395  13.112 -1.3491  2.3446 -3.5817
 6287TIP3    H240277   3.185   3.441  13.088 -0.1327  0.3211 -0.7780
 6288TIP3   OH240278   2.503   5.404   5.040 -0.0169 -0.5277  0.6228
 6288TIP3    H140279   2.475   5.421   4.950  0.1138 -0.2920  0.6272
 6288TIP3    H240280   2.454   5.326   5.066 -0.9572  0.0929  0.7614
 6289TIP3   OH240281   6.569   0.299   4.254 -0.1628  0.3112 -0.1667
 6289TIP3    H140282   6.628   0.277   4.326 -0.3591 -1.6322 -0.5560
 6289TIP3    H240283   6.494   0.341   4.296  0.3590  0.4882  0.6026
 6290TIP3   OH240284   1.398   4.415  16.854  0.4972  0.0682 -1.1758
 6290TIP3    H140285   1.437   4.437  16.769  0.0571  3.7537 -0.5991
 6290TIP3    H240286   1.462   4.446  16.918 -0.7305  0.6341 -0.1919
 6291TIP3   OH240287   1.164   4.706   4.909 -0.2975 -0.0908  0.2366
 6291TIP3    H140288   1.108   4.676   4.980  2.4947  0.5034  2.8611
 6291TIP3    H240289   1.116   4.781   4.872 -1.0558  0.7892  2.7602
 6292TIP3   OH240290   0.916   4.926  14.119 -0.3982 -0.8052  0.7003
 6292TIP3    H140291   1.005   4.959  14.122 -0.4594 -0.5501 -0.0170
 6292TIP3    H240292   0.887   4.925  14.210 -0.8283  2.3541  0.7316
 6293TIP3   OH240293   4.716   4.253   1.266 -0.4636 -0.4837  0.1713
 6293TIP3    H140294   4.766   4.185   1.221  0.7494  1.4079 -1.5477
 6293TIP3    H240295   4.754   4.335   1.234 -4.4236  1.1155 -0.9663
 6294TIP3   OH240296   1.996   1.376   5.997  0.0586  0.3111 -0.4701
 6294TIP3    H140297   1.987   1.316   5.923 -1.0052  0.6985 -0.6777
 6294TIP3    H240298   2.081   1.355   6.035 -0.5578 -1.8126 -0.1085
 6295TIP3   OH240299   3.948   1.244   1.691 -0.1252  0.1785 -0.6979
 6295TIP3    H140300   3.989   1.159   1.705 -0.3047  0.3895  1.4191
 6295TIP3    H240301   3.934   1.279   1.779 -0.8705  2.0152 -1.4917
 6296TIP3   OH240302   5.607   0.701   1.028  0.3535  0.7502 -0.1622
 6296TIP3    H140303   5.696   0.696   1.064  1.1008 -0.7129 -2.0028
 6296TIP3    H240304   5.581   0.609   1.018 -0.6926  1.1459 -1.1947
 6297TIP3   OH240305   2.698   5.260  13.573  0.2179  0.4165 -0.1968
 6297TIP3    H140306   2.750   5.323  13.523  0.0306 -0.0099 -0.9507
 6297TIP3    H240307   2.632   5.229  13.510  0.3598 -0.5854  0.1354
 6298TIP3   OH240308   1.351   0.000  16.227  0.1253  0.0489 -0.4876
 6298TIP3    H140309   1.326  -0.007  16.319  1.0231  1.4999 -0.0923
 6298TIP3    H240310   1.272  -0.024  16.178 -0.7567  0.4987  0.6676
 6299TIP3   OH240311   6.188   2.683  14.085 -0.4345 -0.3382 -0.1913
 6299TIP3    H140312   6.189   2.711  14.176 -0.6326  0.8484 -0.5403
 6299TIP3    H240313   6.265   2.627  14.076  0.4252  0.7310  0.3458
 6300TIP3   OH240314   6.002   6.523   3.882 -0.2808  0.3080  0.7856
 6300TIP3    H140315   6.066   6.538   3.813 -1.2829  1.1160 -0.0069
 6300TIP3    H240316   6.019   6.434   3.912  1.2274  0.5189  0.6358
 6301TIP3   OH240317   1.567   5.060   5.267 -0.2816 -0.7958 -0.2410
 6301TIP3    H140318   1.484   5.035   5.225  0.0944 -1.0282 -0.8554
 6301TIP3    H240319   1.540   5.102   5.349 -1.0221 -0.5012 -0.6247
 6302TIP3   OH240320   5.611   0.825   3.222  0.5685 -0.5184  0.2739
 6302TIP3    H140321   5.700   0.823   3.185  1.0008 -0.0229  1.2581
 6302TIP3    H240322   5.554   0.816   3.146  1.4053  1.5807 -0.6923
 6303TIP3   OH240323   6.102   4.862   1.076  0.2215  0.2727  0.5245
 6303TIP3    H140324   6.114   4.779   1.031 -1.9263  0.2284 -0.0931
 6303TIP3    H240325   6.040   4.910   1.021 -0.6808  1.1669  2.2490
 6304TIP3   OH240326   1.586   3.576  16.863  0.1267  0.1222  0.3431
 6304TIP3    H140327   1.650   3.638  16.828 -0.3930 -0.5743 -2.0049
 6304TIP3    H240328   1.636   3.496  16.879  0.0390 -0.1081 -0.5224
 6305TIP3   OH240329   5.764   1.511  16.851  0.5465 -0.1964 -0.2777
 6305TIP3    H140330   5.859   1.501  16.849  0.4084 -1.5686 -0.8656
 6305TIP3    H240331   5.730   1.438  16.799 -0.8610 -0.1643  0.5282
 6306TIP3   OH240332   6.638   4.966   4.246  0.3932 -0.2827  0.0405
 6306TIP3    H140333   6.618   4.949   4.338  1.9539 -0.9329  0.2795
 6306TIP3    H240334   6.574   4.913   4.198  1.1008 -1.8775  0.7745
 6307TIP3   OH240335   2.511   3.385  15.199  0.6023 -0.2424  0.4034
 6307TIP3    H140336   2.451   3.367  15.271  3.0796  0.3771  2.8046
 6307TIP3    H240337   2.455   3.394  15.122 -2.3545  0.5116  2.4766
 6308TIP3   OH240338   3.563   6.441  12.613  0.4908 -0.2710 -0.0038
 6308TIP3    H140339   3.549   6.352  12.581  0.0537 -0.4354  0.6298
 6308TIP3    H240340   3.644   6.436  12.663 -0.7288 -0.8584  1.9894
 6309TIP3   OH240341   3.192   1.152   0.520 -0.3908  0.0575  0.3296
 6309TIP3    H140342   3.156   1.064   0.534 -0.9038  0.0624 -0.8104
 6309TIP3    H240343   3.266   1.139   0.461  1.2922  0.1000  2.3424
 6310TIP3   OH240344   1.058   5.934   1.815 -0.4137  0.3677 -0.1810
 6310TIP3    H140345   1.113   5.883   1.874 -0.9057  0.8349  0.7136
 6310TIP3    H240346   1.064   5.889   1.731  3.3075  1.7481 -0.8504
 6311TIP3   OH240347   2.446   6.094  10.326 -0.0271  0.6982  0.4266
 6311TIP3    H140348   2.525   6.080  10.379  0.7733  0.0690 -0.8925
 6311TIP3    H240349   2.461   6.178  10.283  0.1701  0.3332 -0.2296
 6312TIP3   OH240350   4.958   2.624   6.255  0.0510 -0.3060 -0.3065
 6312TIP3    H140351   4.926   2.714   6.253 -0.9112 -0.6242  0.1935
 6312TIP3    H240352   5.012   2.619   6.334  2.9314  0.7208 -2.0669
 6313TIP3   OH240353   0.184   3.232   2.448 -0.0230 -0.7254 -0.0339
 6313TIP3    H140354   0.249   3.246   2.517  0.7430 -2.2149 -0.4056
 6313TIP3    H240355   0.137   3.153   2.475 -0.8385 -0.3778 -0.4045
 6314TIP3   OH240356   6.021   1.592   5.609  0.1001 -0.0914 -0.3304
 6314TIP3    H140357   5.964   1.666   5.628  1.6192  0.9886  0.3046
 6314TIP3    H240358   6.033   1.549   5.694  1.1690  0.4296 -0.1990
 6315TIP3   OH240359   3.416   4.086  15.161 -0.3338  0.8608 -0.1255
 6315TIP3    H140360   3.508   4.058  15.168 -1.0155 -1.3402  1.2477
 6315TIP3    H240361   3.376   4.022  15.103 -1.1030  1.5837 -0.4090
 6316TIP3   OH240362   4.836   1.151  15.276 -0.4123  0.3283  0.1013
 6316TIP3    H140363   4.851   1.243  15.297 -0.9552  0.1532  1.3109
 6316TIP3    H240364   4.843   1.147  15.180 -1.5290  1.8280 -0.0787
 6317TIP3   OH240365   5.930   2.209   3.653 -0.7308  0.4996  0.9090
 6317TIP3    H140366   5.948   2.116   3.671 -1.9545  0.2594  0.9592
 6317TIP3    H240367   5.952   2.254   3.734 -0.0672  0.2710  0.8649
 6318TIP3   OH240368   5.217   2.570  13.439  0.1249  0.4662  0.2494
 6318TIP3    H140369   5.245   2.486  13.475 -1.0438 -0.9222 -1.8408
 6318TIP3    H240370   5.297   2.608  13.403  0.4182 -0.5074 -0.1716
 6319TIP3   OH240371   4.132   1.094   1.874 -0.1178  0.0943 -0.4624
 6319TIP3    H140372   4.155   1.166   1.932 -1.2319 -0.3632  0.5709
 6319TIP3    H240373   4.211   1.080   1.821  0.5005  1.3000  0.1031
 6320TIP3   OH240374   3.287   4.318  12.792 -0.4126 -0.0749 -0.2054
 6320TIP3    H140375   3.302   4.229  12.825  1.4447 -0.4836 -1.9180
 6320TIP3    H240376   3.343   4.324  12.715 -0.2733  2.7041  0.0214
 6321TIP3   OH240377   0.821   2.548   5.885 -0.2063  0.5565  0.3512
 6321TIP3    H140378   0.842   2.481   5.950  0.0701  1.0802  0.8119
 6321TIP3    H240379   0.856   2.629   5.923  0.0665  0.8446 -0.5087
 6322TIP3   OH240380   2.818   4.938   2.768  0.2484  0.9204 -0.9829
 6322TIP3    H140381   2.906   4.927   2.804 -0.6679  0.6329  1.3295
 6322TIP3    H240382   2.817   5.029   2.736  1.3730  0.9121 -1.0992
 6323TIP3   OH240383   6.331   4.352   2.654 -0.8234  0.5457 -0.2957
 6323TIP3    H140384   6.393   4.380   2.722  0.5454 -0.3990 -1.0908
 6323TIP3    H240385   6.322   4.429   2.597  2.7347 -0.3122 -2.3488
 6324TIP3   OH240386   0.183   0.178  13.340  0.0437  0.0726 -0.3043
 6324TIP3    H140387   0.098   0.221  13.339  0.4877  0.9668 -0.7489
 6324TIP3    H240388   0.237   0.230  13.281  1.6483  1.0683  1.8890
 6325TIP3   OH240389   4.694   2.422  13.458  0.1062 -0.2487 -0.2168
 6325TIP3    H140390   4.717   2.435  13.550 -1.7332  0.2588  0.2095
 6325TIP3    H240391   4.765   2.368  13.423  0.4522 -1.0980  1.6858
 6326TIP3   OH240392   0.269   1.380   4.180 -0.0234 -0.4231 -0.9633
 6326TIP3    H140393   0.285   1.474   4.189 -0.1983 -0.4181 -0.7135
 6326TIP3    H240394   0.351   1.339   4.207 -0.7338 -0.4427  1.3443
 6327TIP3   OH240395   1.713   4.725   6.715  0.0596  0.3930 -0.2695
 6327TIP3    H140396   1.757   4.692   6.638 -0.7241  1.0336 -1.0158
 6327TIP3    H240397   1.647   4.786   6.681 -0.5233  0.4384  0.8763
 6328TIP3   OH240398   3.418   2.203  16.070 -0.0844 -0.1476 -0.4344
 6328TIP3    H140399   3.366   2.283  16.064 -0.3067 -0.0313  2.0042
 6328TIP3    H240400   3.508   2.233  16.084 -0.1329 -0.3032  0.2502
 6329TIP3   OH240401   4.046   2.912  12.642  0.6100 -0.3727 -0.2828
 6329TIP3    H140402   4.102   2.835  12.650  1.1720 -0.1728 -1.9291
 6329TIP3    H240403   4.101   2.978  12.598 -0.1176  0.7009  0.3618
 6330TIP3   OH240404   1.710   0.935   6.123  0.0666  0.4521  0.0049
 6330TIP3    H140405   1.716   0.993   6.047  0.8016 -0.4141 -0.6033
 6330TIP3    H240406   1.729   0.992   6.198 -0.3553  1.2395 -0.4698
 6331TIP3   OH240407   0.894   4.832   5.070  0.3016  0.7635  0.4122
 6331TIP3    H140408   0.883   4.872   4.983 -0.4777  2.5212  1.2612
 6331TIP3    H240409   0.873   4.740   5.057  1.3662  0.7259 -1.4910
 6332TIP3   OH240410   0.477   5.780   3.567 -0.3876  0.4470 -0.2885
 6332TIP3    H140411   0.466   5.758   3.475  0.3762 -0.7110 -0.1158
 6332TIP3    H240412   0.564   5.747   3.590 -1.3405 -1.0876  1.3406
 6333TIP3   OH240413   0.683   0.667  16.096 -0.2121 -0.1210  0.0795
 6333TIP3    H140414   0.675   0.709  16.011  0.2893 -2.8986 -1.4440
 6333TIP3    H240415   0.596   0.631  16.114 -0.1021 -0.2585  0.3470
 6334TIP3   OH240416   1.520   4.814   2.805  0.4621  0.3799  0.0843
 6334TIP3    H140417   1.523   4.853   2.892 -0.4344  2.5302 -0.7589
 6334TIP3    H240418   1.610   4.789   2.786  1.0048  1.6217  0.9133
 6335TIP3   OH240419   3.992   4.503   3.890 -0.1924 -0.3622 -0.2015
 6335TIP3    H140420   3.967   4.530   3.979 -0.6421  0.2192 -0.4910
 6335TIP3    H240421   4.085   4.481   3.897  0.4089  1.9305 -0.0477
 6336TIP3   OH240422   1.157   5.638   4.360 -0.4872 -0.0775 -0.5705
 6336TIP3    H140423   1.123   5.564   4.310 -0.0949 -0.0504 -0.8841
 6336TIP3    H240424   1.238   5.605   4.400 -0.9274 -0.1759  0.2547
 6337TIP3   OH240425   1.347   2.236   3.732 -0.0963 -0.0548  0.2371
 6337TIP3    H140426   1.320   2.268   3.646  1.1132  0.1837 -0.0838
 6337TIP3    H240427   1.319   2.305   3.793 -0.2673  0.1461 -0.0678
 6338TIP3   OH240428   3.634   1.092   2.219 -0.2372 -1.0965  0.2381
 6338TIP3    H140429   3.557   1.058   2.173 -1.0303  2.0138 -0.9199
 6338TIP3    H240430   3.704   1.090   2.153 -0.4483  0.0283 -0.0306
 6339TIP3   OH240431   1.494   4.444   5.800 -0.2812 -0.0021 -0.2530
 6339TIP3    H140432   1.446   4.376   5.753 -1.1507  0.8009 -0.5851
 6339TIP3    H240433   1.517   4.507   5.732  0.5253  0.0289  0.0444
 6340TIP3   OH240434   0.122   0.325  15.065  0.1176 -0.0150  0.6644
 6340TIP3    H140435   0.040   0.365  15.094  1.0256  1.5452  1.1646
 6340TIP3    H240436   0.189   0.390  15.084  1.1220  0.2057 -2.7935
 6341TIP3   OH240437   5.275   4.294   1.919 -0.0260 -0.2861  0.1907
 6341TIP3    H140438   5.262   4.333   2.006  1.0788 -0.4403  0.4396
 6341TIP3    H240439   5.196   4.317   1.871 -0.3994  0.3057  1.0529
 6342TIP3   OH240440   1.214   6.284  14.625 -0.0218 -0.1294 -0.5575
 6342TIP3    H140441   1.303   6.266  14.657  0.3767  2.9949  0.4823
 6342TIP3    H240442   1.225   6.308  14.533  0.1755 -0.0166 -0.5044
 6343TIP3   OH240443   0.040   1.445   4.639  0.4740 -0.7033  0.0710
 6343TIP3    H140444   0.025   1.501   4.563 -0.2077 -0.0298  0.6851
 6343TIP3    H240445   0.045   1.357   4.603 -1.4749 -0.5860 -0.6143
 6344TIP3   OH240446   3.668   3.385   0.612  0.4387  0.0109 -0.0545
 6344TIP3    H140447   3.602   3.380   0.543 -0.6850 -0.1174  1.0007
 6344TIP3    H240448   3.661   3.474   0.646  0.7089 -0.0508  0.1685
 6345TIP3   OH240449   2.217   2.447   2.045 -0.5003 -0.0555  0.2542
 6345TIP3    H140450   2.181   2.513   2.103 -0.7008 -0.7539  0.9374
 6345TIP3    H240451   2.290   2.491   2.001 -2.6674  1.7028 -1.8701
 6346TIP3   OH240452   6.002   1.552  11.329  0.3790  0.2407  0.2530
 6346TIP3    H140453   6.059   1.587  11.398  1.0057  1.3874 -0.8145
 6346TIP3    H240454   5.917   1.544  11.372  1.0490 -0.3395  1.5315
 6347TIP3   OH240455   5.300   4.065  10.176  0.0550  0.3909  0.0861
 6347TIP3    H140456   5.384   4.077  10.131  0.0739 -2.2079 -0.7180
 6347TIP3    H240457   5.318   4.002  10.245 -1.3113 -0.7180 -0.5094
 6348TIP3   OH240458   1.834   3.207  15.697  0.0433 -0.2655 -0.0781
 6348TIP3    H140459   1.807   3.130  15.647 -0.9230 -0.2678  0.4398
 6348TIP3    H240460   1.844   3.276  15.631  2.2719 -1.1431 -0.7420
 6349TIP3   OH240461   0.263   0.969   2.197 -0.4763  0.6526  0.4485
 6349TIP3    H140462   0.265   1.064   2.185 -1.5106  0.7882  1.2217
 6349TIP3    H240463   0.351   0.940   2.173  0.2856  1.9783  1.4966
 6350TIP3   OH240464   5.216   2.144  14.382 -0.0363  0.6614  0.7664
 6350TIP3    H140465   5.195   2.109  14.468 -0.7340  2.5077  1.3858
 6350TIP3    H240466   5.186   2.235  14.384  1.1247  1.1447 -0.9799
 6351TIP3   OH240467   0.849   4.051   1.345 -0.4050  0.2357  0.3000
 6351TIP3    H140468   0.806   3.967   1.333 -0.8166  0.3770  0.7623
 6351TIP3    H240469   0.898   4.065   1.264  0.7263 -1.0532  0.7296
 6352TIP3   OH240470   6.674   6.234  10.902  0.3107 -0.5619 -0.3696
 6352TIP3    H140471   6.594   6.200  10.942 -0.3925 -2.2447 -2.9672
 6352TIP3    H240472   6.715   6.287  10.971 -1.4509 -2.1505  2.0474
 6353TIP3   OH240473   0.665   2.579  13.293 -0.3535  0.6698 -0.1499
 6353TIP3    H140474   0.750   2.619  13.309  0.1131  0.6401 -2.2233
 6353TIP3    H240475   0.608   2.652  13.268 -0.0640  0.3835 -1.8190
 6354TIP3   OH240476   0.942   6.709  14.303  0.1663  0.5738  0.4335
 6354TIP3    H140477   0.849   6.690  14.297  0.8021 -3.0539 -0.2821
 6354TIP3    H240478   0.948   6.804  14.294 -3.3305  0.8165 -0.7307
 6355TIP3   OH240479   2.856   0.931  13.604 -0.1256  0.0156 -0.2731
 6355TIP3    H140480   2.880   0.947  13.695 -0.3097  0.3712 -0.2848
 6355TIP3    H240481   2.768   0.966  13.596  0.4240  1.3519 -0.9483
 6356TIP3   OH240482   2.546   2.667  15.147  0.5383  0.4478 -0.1523
 6356TIP3    H140483   2.512   2.741  15.197  4.0221  1.3164  1.2039
 6356TIP3    H240484   2.545   2.696  15.056 -1.5775  0.6236 -0.1298
 6357TIP3   OH240485   3.527   1.392  13.177 -0.0754  0.2220  0.7254
 6357TIP3    H140486   3.467   1.423  13.246 -0.0791  0.4097  0.6384
 6357TIP3    H240487   3.611   1.435  13.198 -0.2628  0.8630  0.1913
 6358TIP3   OH240488   3.557   5.763  10.919 -0.0668  0.2426 -0.1210
 6358TIP3    H140489   3.647   5.746  10.889  0.3754  0.6855  0.8746
 6358TIP3    H240490   3.529   5.839  10.868 -0.4621 -0.8061 -1.5208
 6359TIP3   OH240491   2.795   5.859   2.476  0.9427 -0.3734 -0.5463
 6359TIP3    H140492   2.708   5.897   2.491  2.3610  2.7395  0.7514
 6359TIP3    H240493   2.804   5.856   2.381 -0.9947 -2.0466 -0.7582
 6360TIP3   OH240494   5.805   5.798   1.992  0.5621 -0.4849 -0.0080
 6360TIP3    H140495   5.862   5.849   2.050 -0.5879  1.0103 -0.1101
 6360TIP3    H240496   5.831   5.825   1.904 -0.6234  0.6510 -0.0456
 6361TIP3   OH240497   0.702   1.257  13.516  0.3003 -0.2830 -0.0171
 6361TIP3    H140498   0.755   1.248  13.595 -0.2415  2.3907  0.7380
 6361TIP3    H240499   0.633   1.192  13.527  2.4022 -2.7770 -0.2982
 6362TIP3   OH240500   0.326   2.971  14.691  0.2347 -0.1499 -0.2473
 6362TIP3    H140501   0.397   3.013  14.643 -0.2151  1.5207  0.4707
 6362TIP3    H240502   0.247   2.996  14.643 -0.1976  1.3333  1.1728
 6363TIP3   OH240503   4.205   1.770   1.993  0.8038 -0.3706  0.0251
 6363TIP3    H140504   4.256   1.845   1.961 -0.8394  0.5031 -0.6538
 6363TIP3    H240505   4.244   1.695   1.950  2.0870  0.1529  0.2217
 6364TIP3   OH240506   2.175   0.084  11.740  0.6257 -0.4020 -0.3354
 6364TIP3    H140507   2.252   0.130  11.775  0.6078  0.0809 -0.9052
 6364TIP3    H240508   2.182   0.096  11.645  1.1814 -2.4515 -0.6092
 6365TIP3   OH240509   0.649   4.497   0.572  0.1364 -0.1636  0.4177
 6365TIP3    H140510   0.609   4.421   0.528  0.4779 -1.3348  2.0396
 6365TIP3    H240511   0.741   4.472   0.584  0.3739  0.7376  0.5107
 6366TIP3   OH240512   2.088   6.114   5.324 -0.7041  0.2216  0.4100
 6366TIP3    H140513   2.079   6.206   5.299 -0.0322  0.6680  1.6936
 6366TIP3    H240514   2.032   6.104   5.400  0.6411  0.0771  1.4224
 6367TIP3   OH240515   3.440   5.979  10.797 -0.2177 -0.0353 -0.2700
 6367TIP3    H140516   3.448   6.074  10.806  0.3330  0.1710 -2.4690
 6367TIP3    H240517   3.446   5.963  10.703  1.5033 -2.4119  0.1563
 6368TIP3   OH240518   2.261   5.026   1.498 -0.2574  0.3463  0.2673
 6368TIP3    H140519   2.356   5.032   1.488 -0.3468 -0.2805 -1.1986
 6368TIP3    H240520   2.248   4.999   1.589  1.0021 -0.2092  0.2991
 6369TIP3   OH240521   2.316   1.811  12.084  0.2600 -0.5452 -0.0814
 6369TIP3    H140522   2.328   1.883  12.146  0.9546 -0.3038 -0.4825
 6369TIP3    H240523   2.223   1.789  12.090 -0.2810  1.2899 -0.9058
 6370TIP3   OH240524   5.772   5.958   1.297 -0.3647 -0.2849  0.1471
 6370TIP3    H140525   5.786   6.022   1.367  2.1840  0.7866 -1.1914
 6370TIP3    H240526   5.714   5.892   1.335  1.0385  0.1436  3.3145
 6371TIP3   OH240527   5.570   6.526  11.577  0.0196  0.3048  0.0808
 6371TIP3    H140528   5.580   6.503  11.670 -1.1848 -0.1460  0.1196
 6371TIP3    H240529   5.578   6.621  11.575 -0.7887  0.4054  0.7862
 6372TIP3   OH240530   1.210   1.933  16.161  0.4864 -0.3171 -0.2190
 6372TIP3    H140531   1.268   1.996  16.118 -0.4332 -0.3136 -1.5131
 6372TIP3    H240532   1.242   1.928  16.251  0.0535  2.6938  0.2113
 6373TIP3   OH240533   2.278   1.621   6.149 -0.1023  0.6167  0.0239
 6373TIP3    H140534   2.336   1.697   6.140 -0.6956  0.9262 -1.5188
 6373TIP3    H240535   2.198   1.656   6.187 -0.1623  0.6420 -0.1274
 6374TIP3   OH240536   3.235   0.629  14.229 -0.1856  0.1961 -0.3156
 6374TIP3    H140537   3.325   0.608  14.204 -0.3591 -0.0288 -0.7682
 6374TIP3    H240538   3.197   0.667  14.150 -0.8745 -0.9378 -0.5572
 6375TIP3   OH240539   0.196   2.021  15.044  0.4009  0.4414 -0.0371
 6375TIP3    H140540   0.140   2.098  15.038  0.2709  0.3663  0.1940
 6375TIP3    H240541   0.265   2.047  15.105 -0.6924 -0.2509  1.5736
 6376TIP3   OH240542   1.123   4.346  14.636  0.1178 -0.0390 -0.1980
 6376TIP3    H140543   1.047   4.403  14.626 -1.1887 -1.6238  0.2582
 6376TIP3    H240544   1.137   4.310  14.548  0.9268  0.9152 -0.4796
 6377TIP3   OH240545   6.726   2.137  13.831  0.0551  0.0326 -0.2208
 6377TIP3    H140546   6.679   2.058  13.806  0.4868 -0.1715 -0.3952
 6377TIP3    H240547   6.776   2.111  13.909  1.0509 -0.1764 -0.9204
 6378TIP3   OH240548   6.549   0.449   0.071 -0.6141 -0.0273 -0.2202
 6378TIP3    H140549   6.519   0.379   0.129 -1.1209 -0.6432 -1.1932
 6378TIP3    H240550   6.481   0.453   0.003 -0.1575  0.8428 -0.6325
 6379TIP3   OH240551   4.892   3.732   1.247 -0.0602  0.3336  0.3611
 6379TIP3    H140552   4.873   3.723   1.340 -1.4873 -1.4600 -0.0486
 6379TIP3    H240553   4.966   3.673   1.231 -1.0091 -0.8036  0.0509
 6380TIP3   OH240554   4.525   2.854  13.490  0.2394 -0.1591 -0.0288
 6380TIP3    H140555   4.545   2.881  13.400 -0.2644  0.8124  0.1345
 6380TIP3    H240556   4.611   2.843  13.530  0.5003 -1.7279 -0.9221
 6381TIP3   OH240557   1.554   6.211  15.086  0.0868  0.4606  0.1910
 6381TIP3    H140558   1.519   6.299  15.070 -1.0088  0.7015  3.2114
 6381TIP3    H240559   1.494   6.153  15.039 -0.2381  1.2227 -0.3694
 6382TIP3   OH240560   2.838   4.644   1.595 -0.1510  0.1465 -0.4041
 6382TIP3    H140561   2.914   4.654   1.538 -0.7300 -0.9601 -1.4031
 6382TIP3    H240562   2.763   4.651   1.536 -0.7708 -0.9646  0.2232
 6383TIP3   OH240563   5.105   3.226  11.561 -0.1988 -0.6975  0.2215
 6383TIP3    H140564   5.168   3.184  11.502  0.4569 -0.3732  0.6869
 6383TIP3    H240565   5.026   3.235  11.508  0.6047  0.2673 -0.8548
 6384TIP3   OH240566   6.041   5.570  11.273 -0.1004 -0.4530  0.3146
 6384TIP3    H140567   5.986   5.507  11.320 -1.4906  0.0407 -0.6087
 6384TIP3    H240568   5.987   5.600  11.200  1.1482  0.5773 -0.2233
 6385TIP3   OH240569   2.029   4.749  14.211  0.1635 -0.2961  0.1301
 6385TIP3    H140570   2.047   4.812  14.280 -1.6876 -0.4043  0.7852
 6385TIP3    H240571   2.104   4.754  14.152  0.0451  2.5803  0.0925
 6386TIP3   OH240572   3.510   2.116  13.614  0.8208 -0.1584  0.1069
 6386TIP3    H140573   3.497   2.149  13.525 -3.3624 -2.2717 -0.3415
 6386TIP3    H240574   3.528   2.023  13.602  1.3391 -0.2497  1.4822
 6387TIP3   OH240575   1.808   1.862   1.378 -0.2352  0.0734 -0.1519
 6387TIP3    H140576   1.866   1.830   1.447  1.7801 -1.1985 -2.2664
 6387TIP3    H240577   1.844   1.948   1.354 -2.9737  2.1797  2.5013
 6388TIP3   OH240578   2.124   2.437   4.077  0.5534 -0.3108 -0.7750
 6388TIP3    H140579   2.086   2.502   4.137  1.4948  0.5933 -1.1368
 6388TIP3    H240580   2.103   2.353   4.117  0.9651  0.2667  0.7266
 6389TIP3   OH240581   6.558   2.219  13.086 -0.5217 -0.2107  0.1359
 6389TIP3    H140582   6.570   2.275  13.009 -3.3745 -1.1489 -1.1367
 6389TIP3    H240583   6.622   2.149  13.073  0.8799  1.0239  0.0787
 6390TIP3   OH240584   1.825   2.887   2.477  0.6871  0.0505 -0.0299
 6390TIP3    H140585   1.773   2.833   2.536  0.3568  2.5798  2.2314
 6390TIP3    H240586   1.916   2.864   2.498  0.5572  0.4044  1.0217
 6391TIP3   OH240587   0.276   4.271   4.310  0.5253  0.1931  0.6238
 6391TIP3    H140588   0.354   4.303   4.355 -0.1012  1.8255  0.6051
 6391TIP3    H240589   0.204   4.322   4.346 -0.4797 -0.8974  0.2473
 6392TIP3   OH240590   0.934   1.202  16.046  0.0474 -0.4694  0.3298
 6392TIP3    H140591   0.902   1.180  15.959  2.2110 -2.4093 -0.0582
 6392TIP3    H240592   1.007   1.262  16.030  0.2285 -0.5472  0.8386
 6393TIP3   OH240593   0.359   2.870   4.251 -0.1871  0.3523  0.1332
 6393TIP3    H140594   0.359   2.955   4.208  1.4857  0.1934 -0.2760
 6393TIP3    H240595   0.343   2.890   4.343  2.3988  1.4413  0.4534
 6394TIP3   OH240596   1.051   6.441   1.176  0.4549  0.0825 -0.0811
 6394TIP3    H140597   0.956   6.439   1.173  0.4916 -0.7380 -1.5208
 6394TIP3    H240598   1.074   6.400   1.260 -0.4498  1.1491  0.7173
 6395TIP3   OH240599   0.223   4.993   3.594 -0.0910  0.5404 -0.0085
 6395TIP3    H140600   0.159   5.018   3.660 -1.0468 -0.5905 -0.4705
 6395TIP3    H240601   0.172   4.979   3.515  0.8441  0.4542 -0.6123
 6396TIP3   OH240602   6.803   0.687   1.861  0.5783  0.9268  0.0730
 6396TIP3    H140603   6.805   0.768   1.912  0.4085  1.5258 -0.8318
 6396TIP3    H240604   6.850   0.709   1.780 -0.5444  0.5117 -0.7213
 6397TIP3   OH240605   0.329   2.342  15.298  0.3013 -0.5920  0.0705
 6397TIP3    H140606   0.348   2.251  15.275  0.7395 -0.6693  0.7226
 6397TIP3    H240607   0.352   2.349  15.391 -1.3940 -0.2803  0.4959
 6398TIP3   OH240608   2.666   5.405   6.530 -0.1585 -0.4076 -0.3957
 6398TIP3    H140609   2.625   5.327   6.491 -0.4099 -0.7168  0.4710
 6398TIP3    H240610   2.604   5.433   6.597  1.2400 -1.1765  1.2795
 6399TIP3   OH240611   4.219   0.441   5.627 -0.4053  0.5035  0.1364
 6399TIP3    H140612   4.227   0.523   5.675  0.5912 -0.7264  2.1971
 6399TIP3    H240613   4.307   0.425   5.593 -0.3974 -0.0796  0.4168
 6400TIP3   OH240614   0.926   1.758  15.266 -0.3784  0.1501 -0.7566
 6400TIP3    H140615   0.938   1.665  15.248 -0.4904  0.0460 -0.3154
 6400TIP3    H240616   0.842   1.763  15.313  0.4476  0.2569  0.7755
 6401TIP3   OH240617   3.871   4.024  16.263  0.3040 -0.0828  0.2706
 6401TIP3    H140618   3.880   3.931  16.242  0.3308 -0.1586  0.6000
 6401TIP3    H240619   3.783   4.032  16.299  0.1291  0.1099 -0.2047
 6402TIP3   OH240620   4.867   1.123  11.306  0.1815 -0.0996  0.2285
 6402TIP3    H140621   4.803   1.194  11.313  0.2768  0.1051 -0.7383
 6402TIP3    H240622   4.816   1.046  11.283  0.0570 -0.4036  1.4455
 6403TIP3   OH240623   5.164   6.241   2.052 -0.0847 -0.1058  0.4789
 6403TIP3    H140624   5.117   6.221   2.133 -0.4400  3.0073  1.1487
 6403TIP3    H240625   5.136   6.172   1.991 -2.9123 -0.3266  1.8603
 6404TIP3   OH240626   5.001   4.860  11.468  0.3030 -0.1681 -0.2920
 6404TIP3    H140627   4.931   4.898  11.416 -1.1968  0.7962  2.2382
 6404TIP3    H240628   4.976   4.768  11.477 -1.5871  0.4514  1.8036
 6405TIP3   OH240629   1.351   2.521  12.739 -0.2374 -0.0072 -0.1838
 6405TIP3    H140630   1.271   2.525  12.791 -0.2390  1.1440 -0.2337
 6405TIP3    H240631   1.381   2.431  12.746 -1.4389 -0.4107 -0.0106
 6406TIP3   OH240632   0.263   5.179  13.243 -0.1907 -0.0986 -0.0024
 6406TIP3    H140633   0.331   5.212  13.302 -1.0176  1.4918  0.1136
 6406TIP3    H240634   0.303   5.102  13.202  1.5876  0.6315  0.2447
 6407TIP3   OH240635   2.260   2.307   5.782  0.1193  0.1639  0.3633
 6407TIP3    H140636   2.310   2.226   5.776 -0.2502 -0.1156  0.9891
 6407TIP3    H240637   2.214   2.312   5.698 -0.0647 -0.4177  0.4212
 6408TIP3   OH240638   2.274   0.460  10.420  0.0280  0.6909  0.3082
 6408TIP3    H140639   2.365   0.442  10.394  0.1593  1.1608  0.4418
 6408TIP3    H240640   2.261   0.410  10.500  0.1889  0.6737  0.3226
 6409TIP3   OH240641   4.049   3.112   0.048  0.4637 -0.6078 -0.0979
 6409TIP3    H140642   4.083   3.033   0.006 -0.3823 -0.8735 -0.3082
 6409TIP3    H240643   4.125   3.169   0.059  0.7061 -0.4888 -2.0596
 6410TIP3   OH240644   3.220   3.088  14.546  0.4481  0.6699  0.0498
 6410TIP3    H140645   3.220   3.103  14.641  1.1222 -0.3983  0.2468
 6410TIP3    H240646   3.286   3.149  14.512  0.6359  0.6407  0.3541
 6411TIP3   OH240647   1.587   3.781  14.612  0.4545  0.2280  0.0033
 6411TIP3    H140648   1.552   3.809  14.528 -0.5386  0.4427  0.4785
 6411TIP3    H240649   1.682   3.773  14.597  0.4614  1.5668 -0.7667
 6412TIP3   OH240650   1.708   0.757   0.314 -0.7090  0.3412  0.3168
 6412TIP3    H140651   1.681   0.836   0.268 -0.1269  0.2518 -0.1929
 6412TIP3    H240652   1.748   0.789   0.395 -0.6172  0.5590  0.1855
 6413TIP3   OH240653   2.748   6.219   5.105  0.0633 -0.5309  0.8707
 6413TIP3    H140654   2.747   6.280   5.031  0.3335 -1.1356  0.3666
 6413TIP3    H240655   2.694   6.262   5.172  0.8408  0.5942  0.7897
 6414TIP3   OH240656   3.095   4.687   1.501  0.0094 -0.0144 -0.3340
 6414TIP3    H140657   3.118   4.724   1.586 -1.6444 -0.0842  0.1764
 6414TIP3    H240658   3.155   4.613   1.491 -0.3710 -0.5639  1.1974
 6415TIP3   OH240659   4.842   2.848  12.638  0.6975 -0.1468 -0.4383
 6415TIP3    H140660   4.872   2.792  12.567  0.1197  0.6852 -1.3742
 6415TIP3    H240661   4.922   2.870  12.686  1.0654 -0.9256 -0.6696
 6416TIP3   OH240662   1.509   6.681  14.736 -0.1157  0.5976  0.8183
 6416TIP3    H140663   1.541   6.768  14.712  0.6955  0.3674  1.0558
 6416TIP3    H240664   1.586   6.625  14.736 -0.3344  0.2436  2.3500
 6417TIP3   OH240665   1.541   5.335   5.019 -0.5122  0.5022  0.2348
 6417TIP3    H140666   1.505   5.394   5.086  1.8239  1.0933  1.0736
 6417TIP3    H240667   1.628   5.311   5.053  0.3798  0.1083 -2.1644
 6418TIP3   OH240668   3.453   6.001   0.442 -0.1645 -0.6218  0.4466
 6418TIP3    H140669   3.546   6.006   0.420 -0.4496  0.7818 -0.5854
 6418TIP3    H240670   3.414   6.079   0.402 -1.4740 -0.1179  2.5270
 6419TIP3   OH240671   4.592   0.896  16.954 -0.3963  0.3250 -0.3626
 6419TIP3    H140672   4.549   0.814  16.978  0.9763 -0.3899 -0.2295
 6419TIP3    H240673   4.670   0.899  17.009  1.0362  0.3225 -2.3072
 6420TIP3   OH240674   1.264   2.286  16.993  0.2495  0.5837 -0.2153
 6420TIP3    H140675   1.330   2.330  16.939  0.9579 -0.1548  0.0320
 6420TIP3    H240676   1.310   2.265  17.074 -0.6430  1.1482  0.4515
 6421TIP3   OH240677   6.781   5.573  12.701  0.0751  0.3969 -0.4127
 6421TIP3    H140678   6.817   5.612  12.781 -0.7853  0.7098 -0.1681
 6421TIP3    H240679   6.697   5.536  12.728 -0.7081  1.4090 -1.3715
 6422TIP3   OH240680   4.391   6.794  15.545  0.8778 -0.1584  0.0077
 6422TIP3    H140681   4.349   6.859  15.601  0.1254  1.0733 -1.8934
 6422TIP3    H240682   4.339   6.715  15.557  0.2214  0.3209  0.3876
 6423TIP3   OH240683   1.465   1.857  13.140  0.1332  0.0882 -0.1397
 6423TIP3    H140684   1.521   1.929  13.109 -0.8042  1.4491  1.1951
 6423TIP3    H240685   1.508   1.825  13.219 -0.7975  0.9792  0.7558
 6424TIP3   OH240686   2.215   1.736  14.387  0.3631 -0.3331  0.1190
 6424TIP3    H140687   2.276   1.672  14.423  1.8962  0.9543 -0.0557
 6424TIP3    H240688   2.268   1.788  14.326 -1.5358 -0.8022 -2.0929
 6425TIP3   OH240689   3.596   4.031   5.346 -0.2311 -0.2119 -0.2265
 6425TIP3    H140690   3.619   4.122   5.364 -1.0077  0.1505 -0.9524
 6425TIP3    H240691   3.637   4.012   5.261  2.1219 -1.4041  1.0749
 6426TIP3   OH240692   3.926   3.232   3.096  0.5620 -0.5434  0.4848
 6426TIP3    H140693   3.835   3.221   3.124 -0.0994  1.4103 -0.6954
 6426TIP3    H240694   3.929   3.198   3.007  0.0439  2.4013 -0.7845
 6427TIP3   OH240695   0.826   2.559   3.371  0.8921  0.5150 -0.3105
 6427TIP3    H140696   0.833   2.488   3.308  1.3608  0.9977 -0.8203
 6427TIP3    H240697   0.858   2.636   3.323  1.1043  0.9162  0.4720
 6428TIP3   OH240698   2.455   1.527   0.711  0.1101  0.4555 -0.3376
 6428TIP3    H140699   2.540   1.484   0.702 -0.1337 -0.2637  0.5494
 6428TIP3    H240700   2.411   1.477   0.780 -1.4241  0.1816 -1.4474
 6429TIP3   OH240701   6.769   5.037   4.812  0.4915 -0.0752  0.2328
 6429TIP3    H140702   6.817   5.115   4.839 -0.1353  0.7069 -0.8287
 6429TIP3    H240703   6.798   4.969   4.872  1.4838  0.8344  0.8197
 6430TIP3   OH240704   2.644   6.334   1.925 -0.3215 -0.2323 -0.8143
 6430TIP3    H140705   2.636   6.265   1.990  1.3252 -1.8900 -2.2487
 6430TIP3    H240706   2.555   6.367   1.913 -0.9952 -1.4609  0.5769
 6431TIP3   OH240707   5.920   6.204  16.622 -0.0024  0.4728  0.4125
 6431TIP3    H140708   5.998   6.209  16.678  0.3437 -0.0868 -0.0053
 6431TIP3    H240709   5.877   6.289  16.634  1.5752  1.4971 -0.6474
 6432TIP3   OH240710   6.357   3.381   3.096 -0.2121 -0.0157  0.1686
 6432TIP3    H140711   6.295   3.446   3.129  2.0216  2.8024 -0.7827
 6432TIP3    H240712   6.313   3.343   3.020 -1.6254  0.2309  0.8134
 6433TIP3   OH240713   0.284   2.423  16.189 -0.4560 -0.2826  0.2771
 6433TIP3    H140714   0.292   2.412  16.094 -1.3093  2.8143 -0.2587
 6433TIP3    H240715   0.357   2.373  16.225 -0.0224 -1.4197 -2.0081
 6434TIP3   OH240716   0.513   3.977   2.268  0.0586  0.1848 -0.3484
 6434TIP3    H140717   0.431   4.026   2.262 -1.5405 -2.2549  0.1951
 6434TIP3    H240718   0.563   4.006   2.191 -1.2052  1.8615 -0.6075
 6435TIP3   OH240719   5.688   4.139   4.304  0.6282 -0.7913 -0.3630
 6435TIP3    H140720   5.658   4.199   4.236 -0.2977 -2.0065 -1.0904
 6435TIP3    H240721   5.618   4.138   4.369  1.6599  0.6221  0.8292
 6436TIP3   OH240722   1.932   1.142   2.642  0.4157 -0.5809  0.3003
 6436TIP3    H140723   1.862   1.189   2.595  1.4011 -0.2838 -0.9099
 6436TIP3    H240724   1.908   1.150   2.734 -0.8760 -0.0387 -0.0570
 6437TIP3   OH240725   5.066   3.388  13.749  0.0065  0.1014 -0.4973
 6437TIP3    H140726   5.008   3.387  13.673 -0.7655  0.0212  0.0823
 6437TIP3    H240727   5.069   3.480  13.776  1.4832  0.3789 -1.5132
 6438TIP3   OH240728   2.448   6.192  12.578 -0.0466  0.0116  0.4093
 6438TIP3    H140729   2.394   6.246  12.636 -0.7631 -0.7585  0.4890
 6438TIP3    H240730   2.388   6.124  12.547  0.0372  0.9864 -2.0629
 6439TIP3   OH240731   2.951   0.723  14.023 -0.1077 -0.2681  0.4507
 6439TIP3    H140732   2.981   0.648  13.972  1.9956 -0.0572  1.2703
 6439TIP3    H240733   2.857   0.709  14.033 -0.1139 -1.7291 -1.0978
 6440TIP3   OH240734   3.930   2.296  14.132 -0.5240  0.2916  0.1523
 6440TIP3    H140735   3.972   2.248  14.060  0.6801  1.7164 -0.1285
 6440TIP3    H240736   4.001   2.344  14.174 -1.8136  2.7508 -0.2905
 6441TIP3   OH240737   1.432   6.132   1.871  0.5641 -0.0793  0.1489
 6441TIP3    H140738   1.430   6.056   1.813  0.8943  0.8038 -1.0667
 6441TIP3    H240739   1.519   6.130   1.912  2.3327  1.8944 -3.1063
 6442TIP3   OH240740   6.183   5.532  15.824  0.6545 -0.1981  0.2662
 6442TIP3    H140741   6.233   5.605  15.861 -0.6357  1.5095 -1.1513
 6442TIP3    H240742   6.223   5.517  15.738  1.0351 -1.3182  0.6321
 6443TIP3   OH240743   4.535   0.153  12.600 -0.0599 -0.5556 -0.3384
 6443TIP3    H140744   4.616   0.104  12.612 -1.0220 -2.3802 -1.0380
 6443TIP3    H240745   4.509   0.178  12.689 -0.1407 -2.3794  0.1978
 6444TIP3   OH240746   0.642   4.998   2.719  0.1976 -0.0794  0.7806
 6444TIP3    H140747   0.567   5.058   2.721  1.4531  1.5352  1.2945
 6444TIP3    H240748   0.695   5.029   2.646  0.6126 -0.9129  0.7172
 6445TIP3   OH240749   0.658   3.905  16.521  0.1523 -0.2847  0.3989
 6445TIP3    H140750   0.619   3.817  16.513 -1.3297  0.4148 -0.3469
 6445TIP3    H240751   0.660   3.920  16.616 -0.2231 -0.8537  0.5073
 6446TIP3   OH240752   2.789   5.758  12.094 -0.2939  0.0291 -0.3438
 6446TIP3    H140753   2.774   5.665  12.080  0.0929 -0.1060  0.0999
 6446TIP3    H240754   2.745   5.777  12.178  1.4704 -0.2512  0.6922
 6447TIP3   OH240755   3.545   0.024  14.084 -0.4396 -0.3569 -0.2354
 6447TIP3    H140756   3.458   0.037  14.046  0.3177  1.3354 -1.5277
 6447TIP3    H240757   3.551   0.088  14.154 -0.7316 -1.4577  0.8284
 6448TIP3   OH240758   1.017   2.009  15.320  0.4607 -0.4670  0.2517
 6448TIP3    H140759   1.059   1.992  15.404  1.4664  0.7021  0.0075
 6448TIP3    H240760   0.989   1.922  15.290  2.6600 -1.3415  0.4726
 6449TIP3   OH240761   4.654   6.797   0.904  0.5149  0.6505  0.1069
 6449TIP3    H140762   4.567   6.833   0.893  0.1676  0.6395  2.3357
 6449TIP3    H240763   4.694   6.803   0.818 -1.5232  1.0485 -0.8615
 6450TIP3   OH240764   1.086   5.061   1.725 -0.7407  0.1975  0.6439
 6450TIP3    H140765   1.156   5.080   1.662 -0.3823 -0.2745  0.8984
 6450TIP3    H240766   1.099   4.969   1.748 -1.6547  0.0064  0.4335
 6451TIP3   OH240767   5.439   6.387  15.211 -0.2506  0.0595  0.0405
 6451TIP3    H140768   5.367   6.407  15.271  0.3049 -0.2959  0.8408
 6451TIP3    H240769   5.396   6.371  15.127 -0.9796  1.3197  0.1489
 6452TIP3   OH240770   1.332   6.447   3.560 -0.0943 -0.3710  0.0825
 6452TIP3    H140771   1.403   6.387   3.582  0.5870  0.1876 -0.5182
 6452TIP3    H240772   1.324   6.442   3.465 -0.0258  0.4692  0.0216
 6453TIP3   OH240773   0.214   4.841  15.326 -0.1174 -0.7089  0.2546
 6453TIP3    H140774   0.288   4.795  15.286 -0.5936 -0.6594 -0.7080
 6453TIP3    H240775   0.158   4.772  15.361 -0.7970 -0.8922 -1.1294
 6454TIP3   OH240776   3.554   0.441   0.014 -0.0843  0.3086 -0.0364
 6454TIP3    H140777   3.534   0.525  -0.028 -0.2781  1.7835  2.7902
 6454TIP3    H240778   3.545   0.458   0.108  2.2031 -2.2612  0.7795
 6455TIP3   OH240779   2.477   6.369  11.058  0.3395  0.3167  0.3907
 6455TIP3    H140780   2.428   6.414  11.127 -0.0297 -0.3574  0.5773
 6455TIP3    H240781   2.422   6.377  10.981  1.2080  1.9430 -0.1019
 6456TIP3   OH240782   4.108   6.518  16.030  0.8812  0.2990 -0.5349
 6456TIP3    H140783   4.051   6.475  16.094 -0.7975  2.6063 -0.3084
 6456TIP3    H240784   4.095   6.469  15.949 -1.8642  0.9407 -0.5875
 6457TIP3   OH240785   1.174   4.303  16.001  0.0307  0.0445 -0.0502
 6457TIP3    H140786   1.103   4.240  16.013  0.1899 -0.0645  0.3255
 6457TIP3    H240787   1.216   4.276  15.919  0.0193 -0.2593  0.0422
 6458TIP3   OH240788   1.710   4.498  12.004 -0.2273  0.2176 -0.6379
 6458TIP3    H140789   1.659   4.456  11.935  0.6947 -1.1241 -0.5347
 6458TIP3    H240790   1.683   4.453  12.084 -1.1160  1.6033 -0.1293
 6459TIP3   OH240791   1.101   4.741   5.779 -0.3141 -0.1153 -0.1383
 6459TIP3    H140792   1.168   4.686   5.819 -1.3490 -1.0086  0.4519
 6459TIP3    H240793   1.026   4.682   5.769 -1.8900  1.4658  1.6506
 6460TIP3   OH240794   1.975   4.393   1.321  0.2666 -0.9053 -0.0244
 6460TIP3    H140795   2.035   4.416   1.392  0.1140 -0.8038  0.0721
 6460TIP3    H240796   2.028   4.340   1.261  0.1229 -1.9096  0.7050
 6461TIP3   OH240797   6.733   1.407  16.289 -0.3056  0.0012  0.1169
 6461TIP3    H140798   6.682   1.329  16.312 -1.5971  0.8320  0.1852
 6461TIP3    H240799   6.824   1.376  16.284 -0.7098 -1.3670  0.7507
 6462TIP3   OH240800   6.498   5.632  13.220 -0.1819 -0.8044  0.6048
 6462TIP3    H140801   6.493   5.727  13.230  0.2147 -0.2229 -3.2312
 6462TIP3    H240802   6.411   5.607  13.188  0.2529 -1.4433 -0.1057
 6463TIP3   OH240803   1.303   5.231  14.502 -0.6936  0.3404  0.0029
 6463TIP3    H140804   1.381   5.182  14.476 -2.0090 -0.3216 -3.1686
 6463TIP3    H240805   1.316   5.318  14.465 -2.0567 -0.2466 -2.0270
 6464TIP3   OH240806   0.349   3.659  15.774 -0.0178 -0.2614 -0.4681
 6464TIP3    H140807   0.346   3.694  15.685  2.7228  1.1965 -0.1085
 6464TIP3    H240808   0.390   3.572  15.764  0.0297 -0.2177 -0.6630
 6465TIP3   OH240809   5.560   3.579   1.519 -0.1740 -0.1113  0.1689
 6465TIP3    H140810   5.466   3.578   1.500  0.3250 -0.0222 -2.7490
 6465TIP3    H240811   5.580   3.488   1.543 -0.6686 -0.6242 -1.2637
 6466TIP3   OH240812   2.165   4.439  13.085 -0.2394 -0.2587 -0.0724
 6466TIP3    H140813   2.168   4.414  12.992  0.3380  0.8190 -0.3630
 6466TIP3    H240814   2.217   4.519  13.090 -0.4160 -0.2006  1.1589
 6467TIP3   OH240815   6.071   5.696   2.644 -0.3004 -0.0925  0.2810
 6467TIP3    H140816   6.123   5.770   2.675 -1.5676  1.1998 -0.5310
 6467TIP3    H240817   6.116   5.668   2.564 -0.4646  0.6222 -0.0788
 6468TIP3   OH240818   4.424   4.610   2.970  0.6318  0.1511 -0.2431
 6468TIP3    H140819   4.393   4.672   3.036  1.4741  0.2455  0.0703
 6468TIP3    H240820   4.344   4.569   2.936  0.2085 -0.1608  1.0837
 6469TIP3   OH240821   0.337   5.416  16.062 -0.0178 -0.2820 -0.3400
 6469TIP3    H140822   0.311   5.503  16.031 -1.3823  0.0453  1.5029
 6469TIP3    H240823   0.267   5.358  16.034  0.0238 -0.4522 -0.0983
 6470TIP3   OH240824   0.179   2.154  10.913  0.3642  0.1629 -0.3100
 6470TIP3    H140825   0.187   2.220  10.843 -0.4004  1.5898  0.8944
 6470TIP3    H240826   0.146   2.076  10.868 -2.0625  1.6321 -1.2845
 6471TIP3   OH240827   4.267   1.884  14.293  0.3286 -0.1822 -0.2824
 6471TIP3    H140828   4.266   1.976  14.269  0.6706  0.4030  1.7632
 6471TIP3    H240829   4.351   1.872  14.338 -0.6138 -0.9360  1.3763
 6472TIP3   OH240830   5.461   4.964   1.789 -0.2065 -0.1749 -0.1539
 6472TIP3    H140831   5.413   4.911   1.725 -1.3048  0.9448 -0.2933
 6472TIP3    H240832   5.444   4.921   1.873  0.7691 -1.3186 -0.5201
 6473TIP3   OH240833   1.678   4.911  14.373  0.0757  0.1008 -0.0153
 6473TIP3    H140834   1.713   4.900  14.284 -0.8097  0.8452 -0.4659
 6473TIP3    H240835   1.619   4.837  14.385 -0.8831  0.7511 -0.5925
 6474TIP3   OH240836   0.171   0.647  16.562 -0.0334 -0.2421 -0.3374
 6474TIP3    H140837   0.114   0.591  16.615 -2.2033  1.5084 -0.6717
 6474TIP3    H240838   0.132   0.734  16.568  0.9542  0.4759 -2.9383
 6475TIP3   OH240839   1.874   2.231  12.968  0.0564 -0.0511  0.0526
 6475TIP3    H140840   1.958   2.188  12.987 -0.5509 -0.5295  1.8732
 6475TIP3    H240841   1.891   2.324  12.983  0.6979  0.0718 -1.3249
 6476TIP3   OH240842   1.598   5.581   1.857  0.2367  0.2743 -0.3265
 6476TIP3    H140843   1.515   5.607   1.818  0.0983  2.2475  1.1225
 6476TIP3    H240844   1.583   5.491   1.886 -1.1725  0.3670 -0.6716
 6477TIP3   OH240845   4.623   2.883  13.255  0.1933  0.2165  0.5722
 6477TIP3    H140846   4.570   2.907  13.178 -0.5573 -1.7514  0.4082
 6477TIP3    H240847   4.707   2.855  13.218 -0.7322 -2.3518  0.2272
 6478TIP3   OH240848   1.306   0.302  12.878 -0.1075 -0.4558  0.3632
 6478TIP3    H140849   1.276   0.230  12.933 -0.3295 -2.3657 -2.1123
 6478TIP3    H240850   1.401   0.303  12.890 -0.0833 -1.3086  0.2836
 6479TIP3   OH240851   0.110   3.905  15.695 -0.2156 -0.6057 -0.6381
 6479TIP3    H140852   0.105   3.878  15.603  1.3859  0.4177 -1.0768
 6479TIP3    H240853   0.204   3.911  15.713 -0.4790  1.5467  0.3175
 6480TIP3   OH240854   5.068   5.170  11.098  0.1147 -0.3014  0.7632
 6480TIP3    H140855   5.098   5.161  11.007 -1.4643 -2.6915  0.3954
 6480TIP3    H240856   4.973   5.178  11.091  0.0308  0.2562  2.1953
 6481TIP3   OH240857   4.321   5.858  16.558  0.2544  1.1279  0.1518
 6481TIP3    H140858   4.402   5.810  16.546  0.5194  0.7970  2.8282
 6481TIP3    H240859   4.345   5.950  16.545  0.8769  0.9581  0.1048
 6482TIP3   OH240860   6.804   6.808  15.281  0.1579 -0.1557 -0.2407
 6482TIP3    H140861   6.838   6.893  15.309 -1.3471  0.8531 -1.3574
 6482TIP3    H240862   6.876   6.769  15.230  0.2474  1.2431 -1.2285
 6483TIP3   OH240863   0.043   4.498   2.788 -0.5069 -0.1506 -0.0406
 6483TIP3    H140864   0.027   4.573   2.845 -0.6932 -0.7110  0.6643
 6483TIP3    H240865   0.115   4.451   2.831 -0.7472 -0.6606 -0.1905
 6484TIP3   OH240866   4.190   4.037   1.657  0.0336  0.0339 -0.1561
 6484TIP3    H140867   4.183   3.946   1.684 -1.6879 -0.0691 -0.8316
 6484TIP3    H240868   4.267   4.039   1.599  0.3254 -0.8904  0.1836
 6485TIP3   OH240869   1.614   1.704   1.503 -0.5337 -0.1493 -0.5608
 6485TIP3    H140870   1.666   1.766   1.451 -0.1684  0.9468  1.0386
 6485TIP3    H240871   1.671   1.682   1.577 -1.3599 -0.9982 -0.1621
 6486TIP3   OH240872   1.604   5.265  14.254  0.7479  0.4536 -0.0476
 6486TIP3    H140873   1.575   5.351  14.224 -3.3705 -1.5098 -2.5882
 6486TIP3    H240874   1.692   5.255  14.218  1.0060  3.2252 -0.3762
 6487TIP3   OH240875   4.929   2.885   6.009 -0.6529 -0.4333 -0.9911
 6487TIP3    H140876   4.857   2.926   5.963  0.3111  1.9072 -0.5580
 6487TIP3    H240877   4.904   2.887   6.101 -0.6115 -0.8874 -0.9658
 6488TIP3   OH240878   0.668   6.421  14.608 -0.1679  0.0397  0.0586
 6488TIP3    H140879   0.618   6.501  14.589  0.3377  0.5036  0.6536
 6488TIP3    H240880   0.650   6.403  14.700 -1.1855 -1.1885 -0.3609
 6489TIP3   OH240881   4.355   5.852   4.550 -0.0837 -0.7535  0.1470
 6489TIP3    H140882   4.290   5.817   4.610 -0.5885  0.2469  0.2005
 6489TIP3    H240883   4.375   5.780   4.490 -1.0446 -1.1440  0.2945
 6490TIP3   OH240884   0.430   1.128  11.722 -0.1758 -0.0462 -0.6158
 6490TIP3    H140885   0.437   1.208  11.773 -0.8308 -0.5096  0.2234
 6490TIP3    H240886   0.391   1.155  11.639 -0.9971  0.4104 -0.0929
 6491TIP3   OH240887   5.659   2.104   3.508 -0.0588 -0.5368  0.2270
 6491TIP3    H140888   5.661   2.110   3.412 -2.7250  3.3009  0.2113
 6491TIP3    H240889   5.738   2.151   3.536 -0.6585  0.7429 -0.1501
 6492TIP3   OH240890   0.996   3.362   1.313 -0.4048 -0.6177  0.3056
 6492TIP3    H140891   0.994   3.447   1.268 -0.4250 -0.9476 -0.3367
 6492TIP3    H240892   0.911   3.356   1.357  0.0344  0.1851  1.3091
 6493TIP3   OH240893   2.910   3.153   2.842 -0.3362 -0.3432  0.0417
 6493TIP3    H140894   2.823   3.160   2.881  0.1715 -1.4245  1.4413
 6493TIP3    H240895   2.969   3.183   2.910  0.5078 -1.2164 -0.2874
 6494TIP3   OH240896   4.092   0.910   4.494  0.3312  0.2900 -0.5408
 6494TIP3    H140897   4.079   0.816   4.502  0.3347  0.3876  0.9110
 6494TIP3    H240898   4.065   0.931   4.405  2.0531 -1.3511 -1.5211
 6495TIP3   OH240899   2.194   5.087  16.071  0.2626 -0.3205 -0.0705
 6495TIP3    H140900   2.273   5.088  16.018 -0.3502 -0.4822 -1.0290
 6495TIP3    H240901   2.224   5.096  16.161  1.3488 -0.2282 -0.4337
 6496TIP3   OH240902   6.317   6.058  15.996 -0.3288 -0.3560 -0.0537
 6496TIP3    H140903   6.236   6.107  16.010  0.6724  1.4036 -0.2198
 6496TIP3    H240904   6.288   5.977  15.954 -2.0635 -0.0759  0.5120
 6497TIP3   OH240905   2.948   4.060   1.579 -0.2940  0.0636 -0.3217
 6497TIP3    H140906   2.964   3.969   1.603  0.8601 -0.8640 -3.9534
 6497TIP3    H240907   2.853   4.071   1.587 -0.4493 -1.4589  0.2084
 6498TIP3   OH240908   3.496   5.798   4.736  0.5097 -0.5747  0.0427
 6498TIP3    H140909   3.503   5.872   4.796 -1.4858  0.9316 -1.4172
 6498TIP3    H240910   3.572   5.806   4.679  1.9152 -1.4752  1.7143
 6499TIP3   OH240911   1.462   4.565  12.415 -0.0935 -0.4690  0.4562
 6499TIP3    H140912   1.433   4.563  12.324 -0.9818  1.2400  0.6498
 6499TIP3    H240913   1.557   4.577  12.410 -0.2404  0.5204 -0.2728
 6500TIP3   OH240914   1.029   5.661   6.279 -0.1342 -0.1849  0.4232
 6500TIP3    H140915   0.994   5.700   6.199  1.9062  2.3898  0.6439
 6500TIP3    H240916   1.010   5.725   6.347  2.2840 -0.0130  1.0474
 6501TIP3   OH240917   1.728   1.966  12.104 -0.0702  0.4537  0.2238
 6501TIP3    H140918   1.694   1.911  12.175  2.3203 -0.3188  0.8496
 6501TIP3    H240919   1.814   1.995  12.135 -0.3727  2.8921 -0.9852
 6502TIP3   OH240920   1.522   5.229  12.994 -0.0540  0.1984 -0.1313
 6502TIP3    H140921   1.522   5.234  13.090 -0.0141  2.1719 -0.1814
 6502TIP3    H240922   1.434   5.257  12.969  0.0801  0.1390 -0.6689
 6503TIP3   OH240923   4.533   2.631  12.457 -0.3747 -0.3785 -0.5942
 6503TIP3    H140924   4.532   2.648  12.551 -0.5084  0.2525 -0.7046
 6503TIP3    H240925   4.552   2.716  12.417 -1.0270 -0.4842 -1.1666
 6504TIP3   OH240926   2.635   0.313   4.275  0.3522  0.1593  0.2327
 6504TIP3    H140927   2.654   0.257   4.200 -0.4896 -0.5238  0.5110
 6504TIP3    H240928   2.583   0.385   4.238 -1.6770 -1.1343  0.3987
 6505TIP3   OH240929   6.493   1.935  12.295 -0.0933 -0.1330 -0.3125
 6505TIP3    H140930   6.462   1.910  12.382 -0.8634  0.2932 -0.4597
 6505TIP3    H240931   6.571   1.988  12.312  1.2326 -2.0873  0.0194
 6506TIP3   OH240932   4.861   6.105  16.023 -0.0979  0.2157  0.2587
 6506TIP3    H140933   4.817   6.162  15.960 -0.0544  0.2335  0.2438
 6506TIP3    H240934   4.875   6.160  16.100 -2.6570 -0.5316  1.3684
 6507TIP3   OH240935   6.457   2.371   2.871  0.1926  0.3146  0.1520
 6507TIP3    H140936   6.545   2.380   2.833  0.7051  1.2421  1.5118
 6507TIP3    H240937   6.412   2.451   2.846  0.4789  0.8555  1.3142
 6508TIP3   OH240938   1.327   1.898  14.230 -0.4294  0.2075 -0.0934
 6508TIP3    H140939   1.267   1.973  14.227  1.0675  1.4205 -1.5138
 6508TIP3    H240940   1.312   1.852  14.148  0.9788  0.9038 -0.7792
 6509TIP3   OH240941   0.723   1.650  13.001  0.3580 -0.4539 -0.2378
 6509TIP3    H140942   0.814   1.645  13.029  1.7518 -1.1606 -4.1922
 6509TIP3    H240943   0.703   1.744  13.002  1.0346 -0.3044  0.8605
 6510TIP3   OH240944   0.587   0.574  16.947  0.3836  0.5702 -0.0076
 6510TIP3    H140945   0.600   0.557  17.041  0.4916  0.5003 -0.0340
 6510TIP3    H240946   0.494   0.592  16.938 -0.0258 -1.4649 -0.2062
 6511TIP3   OH240947   4.858   5.847  11.109 -0.4646 -0.0341  0.4489
 6511TIP3    H140948   4.805   5.786  11.057  0.8629 -1.3861  0.5964
 6511TIP3    H240949   4.942   5.802  11.119  0.3689  1.6012  1.0731
 6512TIP3   OH240950   6.737   4.245   1.839 -0.0556  0.2241 -0.3060
 6512TIP3    H140951   6.781   4.324   1.806  0.8797 -0.2622 -0.2365
 6512TIP3    H240952   6.748   4.180   1.769  0.3212 -0.2447  0.1837
 6513TIP3   OH240953   1.882   2.329   4.905  0.0918  0.2607 -0.1792
 6513TIP3    H140954   1.871   2.418   4.940  0.8977 -0.0729  1.0213
 6513TIP3    H240955   1.974   2.309   4.922 -0.0876 -0.8122 -0.4174
 6514TIP3   OH240956   0.476   0.890  15.677  0.2031 -0.1028 -0.9841
 6514TIP3    H140957   0.545   0.864  15.738 -1.8666  0.6430  1.9141
 6514TIP3    H240958   0.430   0.808  15.658 -0.9747  0.0169  1.0380
 6515TIP3   OH240959   2.128   3.372   5.177  0.2315  0.1377 -0.3776
 6515TIP3    H140960   2.212   3.361   5.133 -0.9334  1.7611 -3.2600
 6515TIP3    H240961   2.077   3.295   5.151 -0.2436  0.7883 -1.4496
 6516TIP3   OH240962   2.123   1.658   1.995  0.1702  0.3766 -0.5067
 6516TIP3    H140963   2.171   1.669   1.913 -1.3500  2.0604 -1.2387
 6516TIP3    H240964   2.048   1.603   1.971 -0.4490  1.1348 -0.3617
 6517TIP3   OH240965   5.984   4.007   4.583 -0.3948  0.0752 -0.0780
 6517TIP3    H140966   5.924   4.074   4.616  1.2722  1.1847  0.8437
 6517TIP3    H240967   5.963   3.929   4.635 -0.4345  0.7060  0.8842
 6518TIP3   OH240968   3.938   6.486  14.262 -0.7370  0.6552  0.1346
 6518TIP3    H140969   3.947   6.468  14.356 -2.9468  1.2138  0.4932
 6518TIP3    H240970   3.929   6.399  14.222  0.9778  0.3639  0.2921
 6519TIP3   OH240971   0.977   6.370   2.479  0.2540 -0.2245  0.1543
 6519TIP3    H140972   0.988   6.452   2.528  0.4987  0.3219 -0.7938
 6519TIP3    H240973   0.887   6.375   2.446  0.5641  0.1011 -0.6680
 6520TIP3   OH240974   4.603   3.346   4.288  0.0507 -0.3632 -0.4128
 6520TIP3    H140975   4.620   3.297   4.368 -0.1218  0.7249  0.3085
 6520TIP3    H240976   4.602   3.279   4.219 -1.0720 -1.4936  0.6432
 6521TIP3   OH240977   6.789   2.931  11.400  0.2197  0.0665  0.2934
 6521TIP3    H140978   6.823   3.004  11.349  0.4670 -0.3568 -0.1516
 6521TIP3    H240979   6.722   2.892  11.345  0.8593 -0.7250  0.0526
 6522TIP3   OH240980   0.245   4.252  14.835 -0.0137  0.2514 -0.1659
 6522TIP3    H140981   0.210   4.194  14.767 -0.3530  1.3356 -0.9551
 6522TIP3    H240982   0.190   4.331  14.829 -0.9829 -0.1277  2.3209
 6523TIP3   OH240983   4.794   0.762   3.714  0.3635  0.0520 -0.6133
 6523TIP3    H140984   4.754   0.821   3.777 -0.4328 -0.3849 -0.6966
 6523TIP3    H240985   4.736   0.765   3.638  0.0429 -1.1987 -0.4364
 6524TIP3   OH240986   6.405   3.014  13.453 -0.3849  0.5878 -0.2888
 6524TIP3    H140987   6.493   2.982  13.436 -0.0158  0.8240  1.0281
 6524TIP3    H240988   6.352   2.980  13.382  0.4425 -0.9692 -0.1881
 6525TIP3   OH240989   2.165   0.789   1.017  0.5546  0.4011 -0.1689
 6525TIP3    H140990   2.259   0.773   1.018  0.4114 -0.4360  0.4846
 6525TIP3    H240991   2.130   0.726   0.954  0.3891  0.4456 -0.1222
 6526TIP3   OH240992   0.896   1.728   2.737 -0.7028  0.6642 -0.3311
 6526TIP3    H140993   0.943   1.714   2.654 -0.3531  0.6026 -0.1250
 6526TIP3    H240994   0.804   1.720   2.714 -0.6805  1.9992 -0.9804
 6527TIP3   OH240995   5.636   5.873   2.205  0.1677 -0.1654 -0.0509
 6527TIP3    H140996   5.638   5.826   2.122  0.1941  0.8834 -0.6666
 6527TIP3    H240997   5.588   5.954   2.186 -1.1902 -0.5962  1.3367
 6528TIP3   OH240998   5.113   3.068   4.712 -0.2643 -0.5081  0.0618
 6528TIP3    H140999   5.089   3.123   4.787 -2.7709  1.6362 -2.1112
 6528TIP3    H241000   5.059   2.990   4.722 -0.9557 -0.0193  0.2891
 6529TIP3   OH241001   5.193   5.630   4.302  0.4685  0.5123 -0.4634
 6529TIP3    H141002   5.241   5.681   4.367  1.0693  1.2275 -1.4292
 6529TIP3    H241003   5.242   5.548   4.295  0.7788  0.6975 -0.4839
 6530TIP3   OH241004   5.928   6.011  14.197 -0.7674  0.1665 -0.5970
 6530TIP3    H141005   6.015   6.039  14.224 -0.7330  0.5961 -1.1350
 6530TIP3    H241006   5.935   5.917  14.186 -0.6657  0.0380  0.4401
 6531TIP3   OH241007   4.633   3.060  12.759 -0.7056 -0.0772 -0.2058
 6531TIP3    H141008   4.672   2.981  12.721  0.8556  0.6389 -0.1384
 6531TIP3    H241009   4.543   3.034  12.779 -0.0840 -2.0196  0.3100
 6532TIP3   OH241010   1.662   0.818  15.320 -0.2451 -0.1278 -0.3080
 6532TIP3    H141011   1.614   0.758  15.264 -1.1212  1.4736 -1.3460
 6532TIP3    H241012   1.607   0.829  15.397 -2.3009  2.5997 -1.9859
 6533TIP3   OH241013   4.262   6.530   5.180 -0.5404  0.0928  0.1043
 6533TIP3    H141014   4.346   6.571   5.157  0.3284 -0.7110  1.6563
 6533TIP3    H241015   4.269   6.442   5.145 -0.6958 -0.0077  0.3275
 6534TIP3   OH241016   0.134   1.319  10.223 -0.7502 -0.1811 -0.1494
 6534TIP3    H141017   0.166   1.228  10.224  0.2696  0.1733  0.5356
 6534TIP3    H241018   0.206   1.370  10.260 -1.6649  0.8011  0.3083
 6535TIP3   OH241019   1.021   1.038   3.035 -0.5761 -0.3897 -0.5068
 6535TIP3    H141020   1.051   1.106   2.975  1.1959 -1.1631 -0.5791
 6535TIP3    H241021   1.050   0.956   2.994 -0.6752 -1.0254  0.6536
 6536TIP3   OH241022   5.422   2.765  14.362 -0.1815 -0.0740 -0.7445
 6536TIP3    H141023   5.369   2.737  14.436 -0.3132 -1.2087 -1.2419
 6536TIP3    H241024   5.399   2.857  14.349  0.5071  0.4074  1.1560
 6537TIP3   OH241025   4.738   3.606  11.970 -0.5326  0.5101 -0.0417
 6537TIP3    H141026   4.829   3.603  11.938  0.3491 -0.8523  2.3621
 6537TIP3    H241027   4.743   3.660  12.049 -1.4384 -0.9764  1.0802
 6538TIP3   OH241028   4.664   3.365   5.722  0.2468  0.0389 -0.1369
 6538TIP3    H141029   4.716   3.443   5.704  0.0188  0.2760  0.2105
 6538TIP3    H241030   4.613   3.388   5.800  1.2462 -0.9744  0.8505
 6539TIP3   OH241031   4.390   5.784  13.076 -0.0114  0.1468 -0.1931
 6539TIP3    H141032   4.337   5.743  13.007 -0.7301 -0.1581  0.5293
 6539TIP3    H241033   4.468   5.730  13.081 -0.1510 -0.0837 -0.4692
 6540TIP3   OH241034   3.268   6.527   5.049 -0.0348  0.3281  0.0079
 6540TIP3    H141035   3.345   6.544   5.103  0.9430  1.5970 -1.6638
 6540TIP3    H241036   3.196   6.521   5.111  0.8303  2.8702  1.4024
 6541TIP3   OH241037   3.896   1.236  16.884 -0.6147  0.1825 -0.1746
 6541TIP3    H141038   3.983   1.274  16.868 -1.3235  2.3826  0.8279
 6541TIP3    H241039   3.879   1.183  16.806  1.6065 -0.2896 -0.4037
 6542TIP3   OH241040   0.010   1.132   0.846  0.1653 -0.7569 -0.0623
 6542TIP3    H141041   0.078   1.079   0.888 -0.1694 -1.0767  0.0894
 6542TIP3    H241042  -0.053   1.150   0.916 -2.7118 -4.9873 -1.1627
 6543TIP3   OH241043   6.725   0.135  11.217 -0.2559 -0.1028  0.3125
 6543TIP3    H141044   6.630   0.146  11.227 -0.0749  1.0949  0.8738
 6543TIP3    H241045   6.751   0.206  11.159  0.6055  0.9906  1.9541
 6544TIP3   OH241046   3.351   5.497  14.823  0.5157 -0.2806  0.2595
 6544TIP3    H141047   3.327   5.406  14.845  2.4671 -0.4356  2.1276
 6544TIP3    H241048   3.413   5.489  14.751  1.5050 -0.5507  1.1191
 6545TIP3   OH241049   2.807   1.281  16.689  0.3265  0.0284  0.4091
 6545TIP3    H141050   2.893   1.314  16.661 -0.7919  2.2319 -0.6844
 6545TIP3    H241051   2.791   1.207  16.630  1.3044 -0.1711  0.3653
 6546TIP3   OH241052   4.045   0.631  14.884  0.5477  0.4478 -0.5729
 6546TIP3    H141053   4.037   0.724  14.864  2.6734  0.4330 -1.8342
 6546TIP3    H241054   3.977   0.614  14.948 -0.2415  2.7479 -0.7087
 6547TIP3   OH241055   5.822   6.719   2.239  0.3762  0.5421  0.2941
 6547TIP3    H141056   5.796   6.801   2.198 -1.4589 -1.0677 -2.0107
 6547TIP3    H241057   5.917   6.715   2.227  0.2071  1.3280 -1.5814
 6548TIP3   OH241058   6.399   5.101   5.594 -0.1175 -0.4173 -0.2061
 6548TIP3    H141059   6.367   5.173   5.540 -1.4717 -1.7903 -1.3512
 6548TIP3    H241060   6.493   5.115   5.601 -0.4686  1.9489  0.4180
 6549TIP3   OH241061   5.519   3.483   1.980 -0.0095 -0.1029  0.6255
 6549TIP3    H141062   5.579   3.467   1.907 -2.2347  0.6407 -1.5332
 6549TIP3    H241063   5.435   3.449   1.949 -0.9820 -0.0592  3.0183
 6550TIP3   OH241064   2.702   3.329  13.124 -0.1178 -0.0151 -0.0872
 6550TIP3    H141065   2.764   3.264  13.158 -0.2574 -0.4415 -0.6362
 6550TIP3    H241066   2.617   3.286  13.129 -0.4196  0.6836  0.9532
 6551TIP3   OH241067   3.811   4.760  12.080 -0.1505  0.1228  0.0066
 6551TIP3    H141068   3.797   4.686  12.021 -2.2080  0.6962 -0.3215
 6551TIP3    H241069   3.739   4.754  12.143 -0.6236  2.0300 -0.2791
 6552TIP3   OH241070   2.889   6.714   3.464  0.0969  0.1252 -0.1010
 6552TIP3    H141071   2.975   6.678   3.443 -0.9623 -2.0956 -1.0359
 6552TIP3    H241072   2.883   6.795   3.413  1.8899  0.7249  0.5923
 6553TIP3   OH241073   1.917   5.624  16.757 -0.1244 -0.1559  0.2519
 6553TIP3    H141074   1.996   5.638  16.808 -1.9378  1.0745  2.9780
 6553TIP3    H241075   1.892   5.533  16.775  1.8920 -1.4581 -2.7133
 6554TIP3   OH241076   0.862   1.226   2.609 -0.3648  0.6123  0.3194
 6554TIP3    H141077   0.794   1.159   2.609  0.3605 -0.1387  0.4614
 6554TIP3    H241078   0.829   1.293   2.669 -1.4768  0.7934 -0.4679
 6555TIP3   OH241079   2.851   6.181  15.014 -0.2624 -0.1119 -0.0357
 6555TIP3    H141080   2.863   6.106  14.956  0.5142  1.4466 -2.0193
 6555TIP3    H241081   2.790   6.238  14.968 -0.2086  0.8580  1.0359
 6556TIP3   OH241082   1.314   0.955   6.083  0.4255  0.3381  0.0811
 6556TIP3    H141083   1.282   1.028   6.030  0.2317  0.2357  0.0554
 6556TIP3    H241084   1.368   0.996   6.150 -1.4929  0.7303  1.4610
 6557TIP3   OH241085   3.136   2.345   5.152 -0.7570 -0.5945 -0.3123
 6557TIP3    H141086   3.148   2.250   5.158  0.0090 -0.4239  1.3446
 6557TIP3    H241087   3.071   2.356   5.083  0.6348 -2.1930 -1.9781
 6558TIP3   OH241088   4.080   4.293   3.451 -0.1873 -0.6504  0.6273
 6558TIP3    H141089   4.155   4.260   3.402 -0.8750 -0.1072 -0.8411
 6558TIP3    H241090   4.006   4.283   3.391 -1.0173  0.2495  1.4661
 6559TIP3   OH241091   3.515   3.948  14.672 -0.5083 -0.3323 -0.2236
 6559TIP3    H141092   3.491   4.019  14.731 -1.0984 -0.1587 -0.6697
 6559TIP3    H241093   3.575   3.988  14.610 -1.5501  0.0112 -1.0311
 6560TIP3   OH241094   0.478   0.883   2.066 -0.1705  0.4568  0.1907
 6560TIP3    H141095   0.418   0.843   2.004 -1.0743  3.3174 -0.9538
 6560TIP3    H241096   0.559   0.895   2.017  0.1471 -0.0828  0.5745
 6561TIP3   OH241097   2.630   2.634  11.964 -0.1213 -0.4266 -0.4996
 6561TIP3    H141098   2.617   2.543  11.990 -0.3818 -0.4533 -0.7126
 6561TIP3    H241099   2.584   2.641  11.880 -2.7433  0.6764  0.9353
 6562TIP3   OH241100   6.247   6.731   6.414  0.3509 -0.4407  0.2307
 6562TIP3    H141101   6.317   6.760   6.473  0.3352 -0.3986  0.2290
 6562TIP3    H241102   6.177   6.794   6.428 -0.0857 -1.0828  0.9925
 6563TIP3   OH241103   6.333   6.291   0.500 -0.4312 -0.4465  0.1632
 6563TIP3    H141104   6.285   6.371   0.520  1.1121  1.3422 -2.6542
 6563TIP3    H241105   6.418   6.304   0.541  0.1077 -0.2227 -0.9949
 6564TIP3   OH241106   2.004   5.727   5.170 -0.0423 -0.0453 -0.1330
 6564TIP3    H141107   1.982   5.819   5.160 -1.3159 -0.4646 -1.5070
 6564TIP3    H241108   2.099   5.726   5.186 -0.4075  1.6345  2.9030
 6565TIP3   OH241109   4.143   2.289   1.381 -0.6889  0.3687  0.0863
 6565TIP3    H141110   4.202   2.353   1.421  1.4202 -0.2710 -1.7580
 6565TIP3    H241111   4.074   2.341   1.341  0.4823  1.4506 -0.6010
 6566TIP3   OH241112   6.025   6.804   2.459  0.8498  0.3769 -0.5846
 6566TIP3    H141113   6.018   6.720   2.414 -0.5622 -0.1371  0.5283
 6566TIP3    H241114   6.078   6.786   2.537  0.9781  0.6445 -0.6089
 6567TIP3   OH241115   2.839   1.294   1.205  0.2170  0.0447  0.3082
 6567TIP3    H141116   2.931   1.310   1.225  0.9248 -0.8683 -1.9326
 6567TIP3    H241117   2.817   1.359   1.139 -0.1951 -0.8569 -0.4753
 6568TIP3   OH241118   1.922   3.742   4.631 -0.7631 -0.6756  0.4561
 6568TIP3    H141119   1.869   3.663   4.643  0.4492 -1.6437 -0.3706
 6568TIP3    H241120   1.982   3.720   4.560 -0.0723  0.8286  0.5469
 6569TIP3   OH241121   0.751   2.105   4.975  0.2156  0.7083  0.4901
 6569TIP3    H141122   0.665   2.097   5.016 -0.7760  0.0720 -1.5490
 6569TIP3    H241123   0.762   2.200   4.961 -0.4577  0.7549  0.2285
 6570TIP3   OH241124   6.608   6.553   5.059 -0.2171  0.5820 -0.2445
 6570TIP3    H141125   6.513   6.553   5.076 -0.0018  0.4826  1.0882
 6570TIP3    H241126   6.647   6.537   5.145  0.9852 -0.7568 -1.0127
 6571TIP3   OH241127   2.350   2.424  16.317  0.3056  0.8276 -0.0469
 6571TIP3    H141128   2.313   2.424  16.229 -0.0700  0.5231  0.1117
 6571TIP3    H241129   2.298   2.360  16.366  0.2474  1.2867  0.5084
 6572TIP3   OH241130   3.738   5.743   4.318  0.1553  0.1958  0.3667
 6572TIP3    H141131   3.697   5.823   4.285 -0.3236  0.2572  1.0978
 6572TIP3    H241132   3.803   5.721   4.251 -0.6878  0.3910 -0.5490
 6573TIP3   OH241133   0.478   0.631   3.187 -0.3030 -0.0762 -0.1960
 6573TIP3    H141134   0.409   0.580   3.230  0.7864 -0.6292  0.9672
 6573TIP3    H241135   0.432   0.702   3.143 -1.7244 -1.2148 -0.6061
 6574TIP3   OH241136   5.496   0.996   3.960  0.3491 -0.3193 -0.2556
 6574TIP3    H141137   5.571   1.054   3.968  0.7727 -0.6818 -1.3797
 6574TIP3    H241138   5.426   1.050   3.925 -0.7252  0.6295  2.9683
 6575TIP3   OH241139   1.552   2.527  12.526  0.0838 -0.8335  0.0235
 6575TIP3    H141140   1.483   2.561  12.583 -0.1120 -1.4054  0.1304
 6575TIP3    H241141   1.630   2.525  12.581 -0.0582 -1.1931  0.2134
 6576TIP3   OH241142   6.431   3.062  12.891  0.0745  0.4506  0.3156
 6576TIP3    H141143   6.409   3.052  12.798 -0.7494  1.3665  0.3996
 6576TIP3    H241144   6.378   3.136  12.920  0.7016  0.4845  1.4010
 6577TIP3   OH241145   0.644   4.337  16.470 -0.4438  0.1143  0.2778
 6577TIP3    H141146   0.668   4.283  16.546  0.1904 -0.7907 -0.5296
 6577TIP3    H241147   0.652   4.277  16.396 -2.0504  0.7072 -0.4078
 6578TIP3   OH241148   0.489   2.117   1.846  0.4197 -0.2554  0.0559
 6578TIP3    H141149   0.521   2.201   1.813  1.4519 -0.8340 -0.4577
 6578TIP3    H241150   0.438   2.080   1.774 -0.1591 -0.0092  0.3349
 6579TIP3   OH241151   0.916   1.006   5.010  0.4649 -0.3107  0.4780
 6579TIP3    H141152   1.000   1.042   5.041  1.1102  0.7754 -2.2538
 6579TIP3    H241153   0.934   0.913   4.996  1.1769 -0.1281  0.1137
 6580TIP3   OH241154   3.506   3.202  14.452 -0.1550 -0.1059 -0.5767
 6580TIP3    H141155   3.535   3.293  14.444 -0.9240  0.5154  2.3724
 6580TIP3    H241156   3.457   3.185  14.371  0.7430  1.7730 -1.5852
 6581TIP3   OH241157   1.691   4.532  12.948 -0.3125 -0.3816 -0.2371
 6581TIP3    H141158   1.757   4.573  12.891  1.4673 -2.8895 -0.1672
 6581TIP3    H241159   1.691   4.586  13.027 -1.1274  1.8057 -1.6267
 6582TIP3   OH241160   0.834   5.443   2.599 -0.4104  0.1732  0.4494
 6582TIP3    H141161   0.877   5.403   2.523 -1.1952  0.1065  0.0299
 6582TIP3    H241162   0.831   5.537   2.578 -0.0616  0.2381  0.6850
 6583TIP3   OH241163   2.794   1.392  15.276  0.2563 -0.2488 -0.4487
 6583TIP3    H141164   2.782   1.471  15.328 -0.0596 -0.4253 -0.2537
 6583TIP3    H241165   2.886   1.369  15.289 -0.1151 -1.0412  1.1206
 6584TIP3   OH241166   4.912   5.543   5.080 -0.6514  0.2391  0.5120
 6584TIP3    H141167   4.991   5.539   5.025  0.5452 -0.7016  2.1892
 6584TIP3    H241168   4.905   5.635   5.104 -0.2413  0.3886  0.0797
 6585TIP3   OH241169   0.228   2.529  14.350  0.1294 -0.1134 -0.2148
 6585TIP3    H141170   0.159   2.596  14.351 -0.3136 -0.5414 -0.7394
 6585TIP3    H241171   0.250   2.515  14.442 -1.0636 -0.5357  0.0313
 6586TIP3   OH241172   4.368   2.266   4.830 -0.2251 -0.2942  0.3657
 6586TIP3    H141173   4.282   2.223   4.826 -0.8257  0.7719  1.3560
 6586TIP3    H241174   4.351   2.349   4.873  1.1745  0.3197 -0.2305
 6587TIP3   OH241175   6.211   0.462  16.031 -0.7686 -0.0493 -0.2680
 6587TIP3    H141176   6.202   0.398  15.961 -0.5422 -0.4922  0.1057
 6587TIP3    H241177   6.125   0.466  16.071 -0.7168 -0.3040 -0.1327
 6588TIP3   OH241178   1.650   3.604  15.894  0.0477 -0.4289  0.1475
 6588TIP3    H141179   1.603   3.671  15.844  0.2048 -0.0928  0.4484
 6588TIP3    H241180   1.674   3.647  15.976  0.2147 -0.8315  0.3134
 6589TIP3   OH241181   2.941   6.648   4.520 -0.2698  0.1991  0.1378
 6589TIP3    H141182   2.873   6.680   4.461 -1.4933 -2.0810  0.1825
 6589TIP3    H241183   3.014   6.624   4.462 -1.0210 -0.9361 -0.3698
 6590TIP3   OH241184   2.771   4.322  12.787  0.2959 -0.0689  0.7018
 6590TIP3    H141185   2.698   4.382  12.802  0.1308 -0.0800 -0.0066
 6590TIP3    H241186   2.767   4.302  12.693  0.1886 -1.3925  0.9674
 6591TIP3   OH241187   4.193   1.934  12.376  0.3413  0.3944  0.2499
 6591TIP3    H141188   4.177   2.023  12.407 -1.6975  0.0332  0.3766
 6591TIP3    H241189   4.199   1.942  12.281 -1.3460  0.5088  0.1300
 6592TIP3   OH241190   3.906   1.732   1.078  0.9491 -0.1753  0.4975
 6592TIP3    H141191   3.882   1.709   1.168  0.3375  0.6713  0.5608
 6592TIP3    H241192   3.838   1.793   1.050  2.6021  1.6985  0.4049
 6593TIP3   OH241193   6.118   1.864   1.232  0.1868 -0.5564 -0.0357
 6593TIP3    H141194   6.118   1.929   1.162  1.5138  0.4216  0.8166
 6593TIP3    H241195   6.069   1.790   1.197  1.0497 -0.2057 -2.0974
 6594TIP3   OH241196   5.669   0.924  12.634 -0.0467 -0.0669 -0.4862
 6594TIP3    H141197   5.622   0.869  12.697  1.1720 -1.6727 -0.9118
 6594TIP3    H241198   5.746   0.955  12.683 -0.9044  1.6094 -0.1408
 6595TIP3   OH241199   5.276   6.021  16.778 -1.3373  0.1773  0.1065
 6595TIP3    H141200   5.326   6.016  16.859 -1.7266 -0.1120  0.3308
 6595TIP3    H241201   5.227   6.103  16.785  0.3324  1.3413 -0.8437
 6596TIP3   OH241202   2.876   4.601  15.003 -0.1593  0.1001 -0.3476
 6596TIP3    H141203   2.827   4.525  15.034  0.0845 -0.2137 -0.7187
 6596TIP3    H241204   2.822   4.676  15.028  0.5293 -0.0545  1.8089
 6597TIP3   OH241205   3.039   0.371  15.173  0.3821 -0.2241  0.4886
 6597TIP3    H141206   2.967   0.435  15.178  0.4409  0.0062 -1.0969
 6597TIP3    H241207   2.998   0.288  15.197 -0.3403 -0.0385 -0.0535
 6598TIP3   OH241208   3.035   5.039   5.668  0.4633  0.1855  0.3696
 6598TIP3    H141209   2.988   4.958   5.649  2.5765 -1.2972  1.1110
 6598TIP3    H241210   3.026   5.050   5.763 -0.3005  1.1644  0.1959
 6599TIP3   OH241211   3.594   5.770  15.842  0.2109  0.1875 -0.2486
 6599TIP3    H141212   3.616   5.852  15.798 -0.6924  0.4983 -0.1358
 6599TIP3    H241213   3.604   5.703  15.775  0.7674  0.4092 -0.3911
 6600TIP3   OH241214   3.260   2.329  10.548 -0.0928  0.3575 -0.0672
 6600TIP3    H141215   3.205   2.318  10.471  1.6514  1.2828 -1.5041
 6600TIP3    H241216   3.220   2.402  10.596 -0.7210  0.3024 -0.5008
 6601TIP3   OH241217   1.245   6.632  16.727 -0.2501 -0.2098 -0.0763
 6601TIP3    H141218   1.166   6.590  16.761  1.1827 -1.4194  1.9998
 6601TIP3    H241219   1.283   6.677  16.803  2.9965 -2.7965  0.0477
 6602TIP3   OH241220   3.845   4.258  13.514  0.0553  0.1026 -0.0590
 6602TIP3    H141221   3.846   4.193  13.585  0.4038  2.8649  2.7085
 6602TIP3    H241222   3.760   4.248  13.472 -0.3241 -1.4111  1.0067
 6603TIP3   OH241223   5.429   1.521   0.867  0.0889 -0.4294 -0.6062
 6603TIP3    H141224   5.351   1.575   0.875  0.7404  0.3952  0.6200
 6603TIP3    H241225   5.489   1.573   0.813  0.2560 -0.4993 -0.4886
 6604TIP3   OH241226   4.137   3.313   5.215  0.0700 -0.0551 -0.4656
 6604TIP3    H141227   4.096   3.271   5.291  1.5425 -0.0850  0.3409
 6604TIP3    H241228   4.063   3.340   5.161 -1.0098 -0.5160  0.7105
 6605TIP3   OH241229   5.298   4.214   2.771  0.0111  0.3595 -0.3109
 6605TIP3    H141230   5.270   4.288   2.717 -2.4465  0.1050  0.5198
 6605TIP3    H241231   5.392   4.206   2.753 -0.4895  0.9068 -3.7480
 6606TIP3   OH241232   2.580   2.575   4.588 -0.2150 -0.3225  0.1536
 6606TIP3    H141233   2.527   2.578   4.508  1.1949  0.1236 -0.8191
 6606TIP3    H241234   2.589   2.666   4.615 -0.4132 -0.4440  0.6395
 6607TIP3   OH241235   1.079   2.955  16.508  0.3987 -0.4124  0.0755
 6607TIP3    H141236   1.061   2.931  16.417  1.7089 -1.5723  0.0879
 6607TIP3    H241237   1.105   3.047  16.504  2.7612 -1.0435 -1.0974
 6608TIP3   OH241238   4.108   4.525  15.009  0.2704 -0.3618  0.3415
 6608TIP3    H141239   4.135   4.442  15.049  1.5335 -0.8964 -1.4943
 6608TIP3    H241240   4.190   4.565  14.979 -0.5854 -0.0363 -1.7151
 6609TIP3   OH241241   1.040   3.211   0.571  0.0243  0.1897 -0.2120
 6609TIP3    H141242   1.074   3.171   0.491  0.4716  0.2239 -0.0390
 6609TIP3    H241243   0.949   3.182   0.575  0.4751 -1.3094  0.2059
 6610TIP3   OH241244   1.715   2.883  16.353 -0.4594 -0.8323 -0.7256
 6610TIP3    H141245   1.650   2.942  16.392 -2.5612 -2.7252 -1.1324
 6610TIP3    H241246   1.687   2.875  16.262  1.6189 -0.1282 -1.4844
 6611TIP3   OH241247   4.516   4.038   1.312 -0.4119 -0.0630 -0.3582
 6611TIP3    H141248   4.559   4.105   1.258 -0.2722  0.2089  0.0806
 6611TIP3    H241249   4.471   4.088   1.380  1.7274 -0.4681  1.4759
 6612TIP3   OH241250   3.584   0.854  15.298 -0.2734 -1.0880  0.6463
 6612TIP3    H141251   3.644   0.851  15.223 -2.3587  2.1717 -1.3917
 6612TIP3    H241252   3.640   0.876  15.372  1.4130 -0.8129 -0.6426
 6613TIP3   OH241253   2.716   3.074   4.729 -0.5088  0.3280  0.0416
 6613TIP3    H141254   2.647   3.040   4.786  0.0684  1.7392  1.6869
 6613TIP3    H241255   2.766   3.134   4.785  0.6748  1.0777 -1.7175
 6614TIP3   OH241256   3.828   2.028   4.795 -0.4143  0.4075 -0.1251
 6614TIP3    H141257   3.802   2.012   4.885  0.6315  0.7628  0.2524
 6614TIP3    H241258   3.798   2.117   4.776 -0.2459  0.4953  0.0205
 6615TIP3   OH241259   6.583   3.183  12.494  0.9680 -0.3464 -0.0195
 6615TIP3    H141260   6.570   3.253  12.430 -0.4726 -1.2533 -0.7682
 6615TIP3    H241261   6.642   3.221  12.559 -1.0563  2.1368  0.4945
 6616TIP3   OH241262   5.420   4.649   5.555 -0.1226  0.1227 -0.7236
 6616TIP3    H141263   5.451   4.732   5.590  0.4787 -0.2935 -0.2447
 6616TIP3    H241264   5.481   4.629   5.484  0.4128 -0.4458 -0.1147
 6617TIP3   OH241265   0.218   3.152  16.976 -0.2207 -0.5351  0.2316
 6617TIP3    H141266   0.130   3.165  17.009 -1.0578 -1.5085 -1.4918
 6617TIP3    H241267   0.271   3.132  17.053 -1.0630  1.9569  1.5428
 6618TIP3   OH241268   6.678   0.820  14.385 -0.3290  0.1217 -0.0848
 6618TIP3    H141269   6.598   0.823  14.438  0.3344  0.1243  0.9351
 6618TIP3    H241270   6.660   0.753  14.319 -1.4463  0.6363 -0.3241
 6619TIP3   OH241271   5.572   2.046   4.641 -0.1716  0.0747  0.0845
 6619TIP3    H141272   5.527   2.035   4.725  0.8832 -2.2885  0.4123
 6619TIP3    H241273   5.628   2.122   4.654  0.7925 -0.8856  1.9525
 6620TIP3   OH241274   5.446   0.589  11.489 -0.1821  0.1087 -0.3211
 6620TIP3    H141275   5.399   0.574  11.407 -0.9766 -1.4070  0.3693
 6620TIP3    H241276   5.498   0.509  11.503 -0.0118  0.3623  0.6231
 6621TIP3   OH241277   5.034   4.729   2.369  0.7596 -0.4194 -0.0162
 6621TIP3    H141278   5.057   4.744   2.461  0.6298  0.3572 -0.0995
 6621TIP3    H241279   5.024   4.634   2.361  0.3309 -0.4577  0.8769
 6622TIP3   OH241280   4.573   1.984  12.454 -0.2324  0.3640 -0.8029
 6622TIP3    H141281   4.562   1.908  12.396 -0.5763 -0.5108  0.3619
 6622TIP3    H241282   4.486   2.021  12.462 -0.4335 -0.2808  0.1366
 6623TIP3   OH241283   2.994   5.401  13.700 -0.4129  0.0073 -0.0888
 6623TIP3    H141284   2.983   5.408  13.795  0.0199 -1.6641  0.1235
 6623TIP3    H241285   2.948   5.477  13.665 -1.2213  0.2636  1.4208
 6624TIP3   OH241286   1.239   4.151  12.920  0.1790  0.7519  0.0715
 6624TIP3    H141287   1.251   4.057  12.906 -0.4199  0.4922  1.1561
 6624TIP3    H241288   1.310   4.176  12.980  0.2056  0.9469 -0.0401
 6625TIP3   OH241289   0.546   1.642  16.228  0.4584 -0.0924 -0.0872
 6625TIP3    H141290   0.476   1.670  16.286  0.9777 -2.7316  1.9987
 6625TIP3    H241291   0.624   1.640  16.283  1.4595 -0.5702 -1.4584
 6626TIP3   OH241292   3.473   3.649  15.180  0.0759  0.5034  0.3366
 6626TIP3    H141293   3.487   3.624  15.272 -1.3086 -2.5154 -0.1453
 6626TIP3    H241294   3.530   3.589  15.131 -1.1120  0.3199 -0.8585
 6627TIP3   OH241295   1.583   2.544   5.222  0.0332 -0.1109  0.9860
 6627TIP3    H141296   1.671   2.578   5.209  0.1834 -0.8994 -0.2051
 6627TIP3    H241297   1.595   2.452   5.243 -0.5196 -0.3180  0.4330
 6628TIP3   OH241298   3.062   3.788   1.623 -0.0330 -0.5541 -0.2447
 6628TIP3    H141299   3.066   3.699   1.588  1.2786 -0.5489 -0.1803
 6628TIP3    H241300   3.100   3.780   1.711  0.6769  0.1600 -0.4712
 6629TIP3   OH241301   3.672   4.304   5.808 -0.2606  0.1059 -0.6565
 6629TIP3    H141302   3.746   4.345   5.854 -0.0892  0.0086 -0.8481
 6629TIP3    H241303   3.651   4.227   5.861  1.0184 -0.9518 -1.6413
 6630TIP3   OH241304   1.149   1.784   4.504 -0.0829 -0.3469  0.6830
 6630TIP3    H141305   1.224   1.843   4.509 -0.5403  0.5318 -1.4315
 6630TIP3    H241306   1.086   1.818   4.568 -0.8098  2.2941 -1.2637
 6631TIP3   OH241307   2.699   5.286  12.126 -0.3477 -0.1620 -0.2777
 6631TIP3    H141308   2.745   5.318  12.048 -0.7648  1.6461  0.1644
 6631TIP3    H241309   2.627   5.349  12.138  0.1765  0.0611  1.9958
 6632TIP3   OH241310   3.658   0.871  16.611 -0.5980 -0.1042 -0.1328
 6632TIP3    H141311   3.585   0.883  16.672 -1.3833  0.0399 -1.0616
 6632TIP3    H241312   3.636   0.928  16.537 -0.4128 -1.3409 -1.1753
 6633TIP3   OH241313   2.169   3.999  14.265 -0.3294  0.2829  0.6835
 6633TIP3    H141314   2.193   4.042  14.348  1.4831 -0.7913  0.7623
 6633TIP3    H241315   2.174   4.069  14.200 -0.3721  0.8305  1.2546
 6634TIP3   OH241316   2.611   2.737  13.702 -0.5839  0.0817 -0.3166
 6634TIP3    H141317   2.667   2.660  13.698  0.4060  0.7093  0.7238
 6634TIP3    H241318   2.672   2.811  13.707 -1.5057  0.9910 -1.8525
 6635TIP3   OH241319   4.201   3.598   2.102  0.0452 -0.6410 -0.3841
 6635TIP3    H141320   4.109   3.576   2.090 -0.2592  0.6648 -0.5425
 6635TIP3    H241321   4.231   3.626   2.015  0.8410 -1.8732 -0.5396
 6636TIP3   OH241322   4.312   2.181  14.701 -0.2827 -0.1779  0.4705
 6636TIP3    H141323   4.326   2.247  14.634 -0.8716 -1.0327 -0.5190
 6636TIP3    H241324   4.301   2.231  14.782  2.9412  0.7754  0.4293
 6637TIP3   OH241325   4.949   6.549  10.590 -0.2668  0.3481  0.2712
 6637TIP3    H141326   4.884   6.510  10.532  1.1604  1.3556 -2.1581
 6637TIP3    H241327   4.934   6.643  10.583  0.4889  0.5251  0.8623
 6638TIP3   OH241328   2.824   2.411   5.887 -0.4503  0.1059 -0.3250
 6638TIP3    H141329   2.741   2.384   5.925 -0.4404 -0.5705 -0.7660
 6638TIP3    H241330   2.854   2.335   5.838  0.6355  0.1992  0.1616
 6639TIP3   OH241331   0.521   6.143   5.025 -0.3205 -0.0669 -0.0428
 6639TIP3    H141332   0.536   6.070   4.965  2.0546 -0.4269  0.9152
 6639TIP3    H241333   0.536   6.107   5.112  1.4049  1.6307  0.4255
 6640TIP3   OH241334   4.276   6.589   0.805 -0.0725 -0.2597  0.3132
 6640TIP3    H141335   4.292   6.536   0.883  1.2001  0.8379  0.8522
 6640TIP3    H241336   4.328   6.547   0.736 -0.7998 -0.9462  0.1835
 6641TIP3   OH241337   6.607   6.348  14.542 -0.8580 -0.1506  0.1926
 6641TIP3    H141338   6.613   6.276  14.605 -0.4147 -0.1117  0.1930
 6641TIP3    H241339   6.521   6.336  14.501 -2.1550  1.1170  2.3667
 6642TIP3   OH241340   2.338   2.692   2.503  0.8867  0.5986  0.2302
 6642TIP3    H141341   2.404   2.690   2.573 -0.2055  2.5847  1.4049
 6642TIP3    H241342   2.360   2.769   2.451  2.1150 -1.2492 -2.1580
 6643TIP3   OH241343   1.934   5.187  15.119  0.2017  0.1932  0.2237
 6643TIP3    H141344   1.957   5.245  15.047  0.6453  1.0979  1.0567
 6643TIP3    H241345   1.845   5.158  15.100  0.0751  0.9316 -0.3601
 6644TIP3   OH241346   6.116   2.446   0.174 -0.5109  0.2110 -0.0539
 6644TIP3    H141347   6.170   2.379   0.131 -0.9480 -1.1699  1.4735
 6644TIP3    H241348   6.164   2.528   0.158  0.4228 -0.5415 -1.3454
 6645TIP3   OH241349   1.538   2.867   0.039 -0.2015 -0.0271 -0.3262
 6645TIP3    H141350   1.444   2.853   0.040  0.0252 -1.7943  1.0763
 6645TIP3    H241351   1.553   2.935   0.104 -0.4296 -0.4332  0.1562
 6646TIP3   OH241352   6.498   3.336   2.419  0.4115  0.0603 -0.9482
 6646TIP3    H141353   6.410   3.338   2.379 -0.5333  3.5726  0.9240
 6646TIP3    H241354   6.553   3.385   2.357 -0.0153  1.5770 -0.1792
 6647TIP3   OH241355   5.086   6.504  13.806 -0.6645 -0.2507  0.0883
 6647TIP3    H141356   5.052   6.510  13.717 -1.1899  0.0058  0.3015
 6647TIP3    H241357   5.070   6.591  13.843  1.3017  0.2837 -0.1819
 6648TIP3   OH241358   4.873   3.250  10.885 -0.5602  0.0911  0.0382
 6648TIP3    H141359   4.942   3.184  10.880  0.7817  1.5129 -1.3620
 6648TIP3    H241360   4.870   3.287  10.797 -0.0523  3.0982  1.1951
 6649TIP3   OH241361   5.563   2.065   1.182 -0.2617 -0.3440 -0.2954
 6649TIP3    H141362   5.511   2.141   1.159 -0.8148 -0.4967  0.3934
 6649TIP3    H241363   5.601   2.086   1.268  1.6894  0.1911 -1.2282
 6650TIP3   OH241364   0.003   4.679   2.993 -0.0616  0.0567  0.0633
 6650TIP3    H141365  -0.011   4.633   3.075 -0.3177  2.1981  1.2860
 6650TIP3    H241366   0.056   4.755   3.016 -0.2878  0.8132 -1.7175
 6651TIP3   OH241367   5.370   3.102   5.729  0.0193 -0.1033  0.1196
 6651TIP3    H141368   5.358   3.055   5.812 -0.6577  1.4542  0.9542
 6651TIP3    H241369   5.286   3.145   5.714  0.4211  0.3469 -0.9271
 6652TIP3   OH241370   4.232   3.641  13.225 -0.1594 -0.2295  0.5928
 6652TIP3    H141371   4.196   3.554  13.204 -0.8691  0.2086 -0.0348
 6652TIP3    H241372   4.163   3.702  13.201 -0.1011  0.4583  2.1044
 6653TIP3   OH241373   4.755   2.863  13.670  1.1966 -0.2233  0.8299
 6653TIP3    H141374   4.796   2.887  13.753  3.2347 -2.1788  0.4859
 6653TIP3    H241375   4.822   2.883  13.604 -0.0989  0.6011 -0.2984
 6654TIP3   OH241376   4.618   3.816  12.124  0.0387  0.2015  0.2295
 6654TIP3    H141377   4.567   3.830  12.044  0.1056 -0.0576  0.1400
 6654TIP3    H241378   4.684   3.885  12.123 -1.6675  1.9629  1.4850
 6655TIP3   OH241379   3.266   3.434   2.130  0.9025  0.0287 -0.2296
 6655TIP3    H141380   3.193   3.496   2.134  0.5819 -0.3698  0.2171
 6655TIP3    H241381   3.333   3.479   2.077  0.2880  0.3454 -0.7565
 6656TIP3   OH241382   4.509   1.970  14.735 -0.2061 -0.8024 -0.4720
 6656TIP3    H141383   4.503   1.883  14.695 -2.7014 -0.9611  0.1282
 6656TIP3    H241384   4.436   2.019  14.697  0.9963  0.9810 -0.5977
 6657TIP3   OH241385   5.664   6.221   3.524  0.1183  0.6665 -0.5507
 6657TIP3    H141386   5.760   6.225   3.520  0.2555 -1.6484 -1.0627
 6657TIP3    H241387   5.639   6.170   3.446 -1.3593 -0.4444  0.5933
 6658TIP3   OH241388   0.940   1.921   5.015  0.2562  0.4236  0.3200
 6658TIP3    H141389   0.891   1.856   5.066  1.3684 -0.9051 -0.2466
 6658TIP3    H241390   0.877   1.992   5.000 -0.8766 -0.3382  1.2826
 6659TIP3   OH241391   1.345   2.796  13.641 -0.4411 -0.5628  0.2153
 6659TIP3    H141392   1.330   2.803  13.735 -1.4539 -0.9044  0.0957
 6659TIP3    H241393   1.276   2.851  13.602  1.0801  1.0851 -0.2969
 6660TIP3   OH241394   5.557   4.181   2.806 -0.3204  0.2070  0.1247
 6660TIP3    H141395   5.594   4.230   2.880  1.7965 -1.4878  0.2807
 6660TIP3    H241396   5.609   4.101   2.803 -3.0910 -1.6611 -0.6465
 6661TIP3   OH241397   5.008   3.360   0.797 -0.2682  0.5426 -0.0808
 6661TIP3    H141398   4.970   3.348   0.885 -0.6785  0.5101 -0.2578
 6661TIP3    H241399   4.933   3.385   0.743 -0.4911 -1.7210 -0.9382
 6662TIP3   OH241400   6.457   3.308  13.378  0.8179 -0.0630 -0.1278
 6662TIP3    H141401   6.413   3.271  13.455 -1.3236 -0.0816 -1.3004
 6662TIP3    H241402   6.390   3.362  13.336  2.8725  2.5956 -0.2660
 6663TIP3   OH241403   5.748   3.859  15.007  0.3199 -0.3018 -0.1563
 6663TIP3    H141404   5.702   3.828  14.929  1.0113  2.7606 -1.9390
 6663TIP3    H241405   5.692   3.928  15.042  1.0702 -0.1718  0.8322
 6664TIP3   OH241406   6.638   5.135  12.303  0.7069 -0.0600 -0.1294
 6664TIP3    H141407   6.721   5.140  12.349  0.5577  0.9760  0.0373
 6664TIP3    H241408   6.574   5.174  12.362  0.5549  1.5174 -1.2765
 6665TIP3   OH241409   5.680   0.062  10.832  0.0428  0.0911 -0.2428
 6665TIP3    H141410   5.650  -0.029  10.838 -0.4567  0.3278  0.8791
 6665TIP3    H241411   5.612   0.107  10.782 -0.0913  0.0279 -0.1143
 6666TIP3   OH241412   4.284   4.030   5.647 -0.2522 -0.3362 -0.1178
 6666TIP3    H141413   4.197   3.992   5.657 -0.5308  0.5069  0.8004
 6666TIP3    H241414   4.300   4.029   5.552 -0.8857 -1.2855 -0.2291
 6667TIP3   OH241415   1.526   3.533  14.716  0.3879 -0.2572  0.6629
 6667TIP3    H141416   1.533   3.487  14.632 -2.2139 -0.3359  0.4247
 6667TIP3    H241417   1.539   3.625  14.695 -0.3466 -0.2693  0.1589
 6668TIP3   OH241418   1.534   4.478  11.767  0.3833  0.1601  0.0364
 6668TIP3    H141419   1.527   4.562  11.721  0.6208  0.6066  0.8036
 6668TIP3    H241420   1.445   4.460  11.798  0.4097  0.3322  0.2153
 6669TIP3   OH241421   4.341   4.603  11.578  0.1020 -0.3591 -0.3457
 6669TIP3    H141422   4.399   4.674  11.609  0.2697  0.2511 -1.9126
 6669TIP3    H241423   4.264   4.609  11.633 -0.6242  2.2112 -1.4696
 6670TIP3   OH241424   3.874   4.536  15.144 -0.1227  0.0615 -0.4976
 6670TIP3    H141425   3.955   4.498  15.113  0.7704  1.1797  0.3682
 6670TIP3    H241426   3.901   4.597  15.213 -1.7904 -0.3899  0.6096
 6671TIP3   OH241427   1.152   2.848   0.835 -0.1013 -0.4593  0.0674
 6671TIP3    H141428   1.237   2.815   0.805  0.6959  0.6627  0.9890
 6671TIP3    H241429   1.131   2.795   0.911  0.6906  0.4347  0.9408
 6672TIP3   OH241430   1.873   1.422   0.144  0.2867  0.2954  0.2861
 6672TIP3    H141431   1.907   1.405   0.056 -0.8089 -2.9103  0.3633
 6672TIP3    H241432   1.952   1.434   0.197  0.9567  3.3968 -1.2069
 6673TIP3   OH241433   5.266   6.326   2.685 -0.1940  0.3919 -0.2313
 6673TIP3    H141434   5.237   6.234   2.686  0.4036  0.2057  0.5682
 6673TIP3    H241435   5.320   6.335   2.763 -1.7680  1.9174  0.7640
 6674TIP3   OH241436   5.277   3.767  16.932 -0.0529 -0.4065 -0.0351
 6674TIP3    H141437   5.335   3.747  17.005 -1.8429 -0.7540  1.3666
 6674TIP3    H241438   5.213   3.696  16.932 -0.8063  0.2306 -1.1841
 6675TIP3   OH241439   1.181   4.431   5.579  0.1333  0.1174 -0.5187
 6675TIP3    H141440   1.222   4.514   5.604  1.1026 -0.1503 -1.1468
 6675TIP3    H241441   1.233   4.401   5.504 -1.3568 -0.1455 -1.4910
 6676TIP3   OH241442   3.244   2.891   2.996  0.2379  0.6528  0.5110
 6676TIP3    H141443   3.201   2.967   2.955  0.2680  1.1775  1.4064
 6676TIP3    H241444   3.174   2.827   3.006  0.2856  0.4151 -0.5720
 6677TIP3   OH241445   2.967   5.748  15.224  0.3470  0.1190  0.4624
 6677TIP3    H141446   2.914   5.676  15.191  1.5277 -0.5911  0.0434
 6677TIP3    H241447   3.000   5.792  15.145 -0.9159  1.5803  0.6952
 6678TIP3   OH241448   4.942   0.383  13.336  0.1506  0.4020  0.0483
 6678TIP3    H141449   4.973   0.443  13.267 -0.5408  1.1500  0.3656
 6678TIP3    H241450   4.939   0.298  13.294  0.5322  0.7027 -0.6109
 6679TIP3   OH241451   0.479   0.719  12.630 -0.4671 -0.1345  0.4273
 6679TIP3    H141452   0.400   0.699  12.581 -0.1382 -0.8478  0.1696
 6679TIP3    H241453   0.512   0.800  12.591  0.3287 -1.2055 -1.2419
 6680TIP3   OH241454   0.061   2.644   4.297 -0.1200 -0.2644  0.3854
 6680TIP3    H141455  -0.009   2.633   4.361 -0.0230  1.4887  0.8256
 6680TIP3    H241456   0.140   2.611   4.341 -0.3354 -0.5511  0.5592
 6681TIP3   OH241457   5.882   4.136  13.119  0.2614 -0.0893  0.4860
 6681TIP3    H141458   5.934   4.088  13.054 -1.5332 -1.6633  0.1163
 6681TIP3    H241459   5.860   4.071  13.186 -0.2133  0.8240  1.2489
 6682TIP3   OH241460   4.264   5.894  14.628 -0.2181 -0.3090  0.5646
 6682TIP3    H141461   4.345   5.846  14.609  1.2981  2.3035 -0.0525
 6682TIP3    H241462   4.290   5.961  14.691 -2.3844 -0.6284  1.8945
 6683TIP3   OH241463   5.868   1.257  14.466 -0.3695 -0.4930  0.3742
 6683TIP3    H141464   5.842   1.285  14.553  0.5776  0.3158  0.4174
 6683TIP3    H241465   5.925   1.327  14.434 -0.3526 -0.9820 -0.7196
 6684TIP3   OH241466   1.544   6.722  14.366 -0.2857  0.2061 -0.0455
 6684TIP3    H141467   1.459   6.733  14.324 -0.8602  0.3941  1.1197
 6684TIP3    H241468   1.605   6.707  14.294 -1.3580 -0.2937 -0.8823
 6685TIP3   OH241469   4.973   6.198   1.696 -0.3661  0.6111 -0.1770
 6685TIP3    H141470   5.059   6.155   1.696 -1.5562 -1.9937 -0.9317
 6685TIP3    H241471   4.954   6.211   1.603 -0.8008  1.1669 -0.0104
 6686TIP3   OH241472   4.845   5.398  13.115  0.0434 -0.2673  0.2836
 6686TIP3    H141473   4.871   5.489  13.097  1.7293 -0.5358  1.1227
 6686TIP3    H241474   4.808   5.367  13.033  1.2795  0.5850 -0.6366
 6687TIP3   OH241475   4.636   2.764   5.197 -0.0154 -0.1253 -0.3384
 6687TIP3    H141476   4.641   2.716   5.114  0.4874 -0.8050  0.0693
 6687TIP3    H241477   4.667   2.701   5.263  0.0076  0.5437  0.3062
 6688TIP3   OH241478   0.847   3.232  14.424 -0.0795 -0.3843  0.4841
 6688TIP3    H141479   0.813   3.149  14.456 -0.9445  0.0919  0.8391
 6688TIP3    H241480   0.829   3.295  14.494 -0.8001  0.4012 -0.3665
 6689TIP3   OH241481   1.575   5.170   2.760  0.1710  0.0581  0.1055
 6689TIP3    H141482   1.596   5.225   2.685  0.7029 -0.5158 -0.1744
 6689TIP3    H241483   1.577   5.080   2.726 -1.0151 -0.1322  0.4784
 6690TIP3   OH241484   1.250   6.411  13.315 -0.2898  0.2900  0.4469
 6690TIP3    H141485   1.155   6.400  13.326 -0.2475 -0.8805 -0.1998
 6690TIP3    H241486   1.266   6.389  13.224  0.5377  1.1038  0.3859
 6691TIP3   OH241487   1.545   5.264   1.760 -0.0632 -0.3064 -0.0575
 6691TIP3    H141488   1.583   5.228   1.840 -0.5050 -1.8088 -0.4727
 6691TIP3    H241489   1.462   5.302   1.788 -0.7835 -1.8826  0.0659
 6692TIP3   OH241490   3.285   2.217   4.910 -0.3296 -0.0403 -0.1595
 6692TIP3    H141491   3.320   2.293   4.956 -2.7451  0.9841  0.1338
 6692TIP3    H241492   3.356   2.189   4.852 -0.1130  3.9979 -2.1859
 6693TIP3   OH241493   2.669   5.726  16.311 -0.0547 -0.1756 -0.5638
 6693TIP3    H141494   2.667   5.763  16.223 -0.9142  1.4920  0.1265
 6693TIP3    H241495   2.759   5.696  16.322  0.3756  0.6897 -1.5790
 6694TIP3   OH241496   2.734   6.268   5.627  0.1831  0.3495  0.5396
 6694TIP3    H141497   2.645   6.235   5.644  0.8441 -0.9774  1.6702
 6694TIP3    H241498   2.789   6.220   5.689  1.3406  3.2075  1.9364
 6695TIP3   OH241499   1.566   2.734   4.850 -0.1016 -0.4894  0.6748
 6695TIP3    H141500   1.582   2.726   4.944  1.6723  1.3547  0.6024
 6695TIP3    H241501   1.558   2.644   4.820 -1.4789 -1.1158  2.6778
 6696TIP3   OH241502   2.705   2.791   2.362 -0.2216 -0.3193  0.0914
 6696TIP3    H141503   2.645   2.726   2.325  0.2657 -1.1256  0.6673
 6696TIP3    H241504   2.778   2.794   2.300  0.3619 -1.3067  0.6825
 6697TIP3   OH241505   4.755   2.353  15.906  0.2709 -0.1304  0.2154
 6697TIP3    H141506   4.817   2.314  15.968  1.3595  0.5553 -0.4124
 6697TIP3    H241507   4.810   2.394  15.839 -0.8729 -0.7484 -1.1596
 6698TIP3   OH241508   5.603   4.669   1.913 -0.0641 -0.2907  0.2065
 6698TIP3    H141509   5.538   4.700   1.977 -2.8099  0.4303 -2.7048
 6698TIP3    H241510   5.574   4.581   1.890  0.6750 -0.4022 -0.3353
 6699TIP3   OH241511   0.507   5.726   0.862 -0.0205 -0.2523 -0.4692
 6699TIP3    H141512   0.447   5.794   0.892  1.8360  0.9679  0.7533
 6699TIP3    H241513   0.565   5.771   0.800 -0.1047 -1.2845 -1.3113
 6700TIP3   OH241514   2.344   3.169  15.631  0.4477 -0.0568  0.8882
 6700TIP3    H141515   2.416   3.213  15.584  0.4916 -0.2681  0.7594
 6700TIP3    H241516   2.355   3.076  15.611 -0.6029  0.0127 -0.1641
 6701TIP3   OH241517   4.769   1.417   5.926  0.0493 -0.1460  0.4305
 6701TIP3    H141518   4.818   1.384   6.001 -0.6637  0.1859  1.0585
 6701TIP3    H241519   4.685   1.444   5.963  0.4596  2.0166 -0.0905
 6702TIP3   OH241520   5.456   3.157  10.632  0.9054  0.0891 -0.4823
 6702TIP3    H141521   5.368   3.164  10.596  0.8262  1.3477 -0.0837
 6702TIP3    H241522   5.504   3.106  10.568 -0.1182 -0.6652 -0.6836
 6703TIP3   OH241523   2.550   6.185   4.191  0.1457 -0.0178  0.1975
 6703TIP3    H141524   2.533   6.279   4.183  1.9646  0.3958  0.5998
 6703TIP3    H241525   2.518   6.162   4.278  1.5874  0.7453  0.9756
 6704TIP3   OH241526   1.703   5.830   3.346  0.0543  0.3396  0.5453
 6704TIP3    H141527   1.653   5.770   3.291  0.4342 -1.1086  1.7376
 6704TIP3    H241528   1.639   5.898   3.370 -0.9563 -0.6930  0.8656
 6705TIP3   OH241529   6.352   6.774  16.452 -0.3469 -0.4625 -0.7651
 6705TIP3    H141530   6.376   6.761  16.360 -0.7105 -2.3204 -0.6498
 6705TIP3    H241531   6.425   6.823  16.490  0.2752 -0.5592 -1.8236
 6706TIP3   OH241532   3.720   4.261   3.534  0.0754 -0.5504 -0.1543
 6706TIP3    H141533   3.699   4.354   3.538  0.4725 -0.5098  1.7643
 6706TIP3    H241534   3.721   4.241   3.440 -1.8051  0.9490 -0.5712
 6707TIP3   OH241535   3.971   4.356   0.766 -0.0635  0.1672 -0.1158
 6707TIP3    H141536   3.942   4.336   0.855  0.3328  1.0877  0.2368
 6707TIP3    H241537   4.013   4.441   0.774  0.8349 -0.1801 -1.0122
 6708TIP3   OH241538   3.794   3.420   0.050 -0.2036 -0.1001  0.0267
 6708TIP3    H141539   3.739   3.356   0.005  0.1489 -0.7790  0.5273
 6708TIP3    H241540   3.871   3.430  -0.006 -0.4888  0.2675 -0.2994
 6709TIP3   OH241541   5.747   0.116   5.630  0.5927  0.4680 -0.3928
 6709TIP3    H141542   5.686   0.167   5.577 -1.7806 -0.2029  1.5027
 6709TIP3    H241543   5.773   0.043   5.573 -1.1106  0.2931 -1.0134
 6710TIP3   OH241544   5.728   5.577   5.293  0.6779 -0.0712 -0.2589
 6710TIP3    H141545   5.730   5.484   5.315  0.0361 -0.2728 -0.9977
 6710TIP3    H241546   5.650   5.587   5.238  1.9511  0.4591 -2.0704
 6711TIP3   OH241547   0.427   6.565  12.056 -0.0235 -0.9878 -0.3070
 6711TIP3    H141548   0.496   6.615  12.013 -0.6810  0.8331  0.6332
 6711TIP3    H241549   0.370   6.535  11.985  0.6122 -0.7393 -0.9247
 6712TIP3   OH241550   4.414   3.564  15.274 -0.1046  0.6183 -0.3581
 6712TIP3    H141551   4.470   3.544  15.198 -0.2359 -0.7490 -0.1160
 6712TIP3    H241552   4.340   3.505  15.265  1.3316 -1.8534  2.4357
 6713TIP3   OH241553   0.837   5.056  10.638  0.6987  0.1150  0.3072
 6713TIP3    H141554   0.882   5.066  10.554  2.3197  1.9559  1.3142
 6713TIP3    H241555   0.907   5.062  10.703 -0.7589  0.8237  1.8779
 6714TIP3   OH241556   0.747   6.586   4.695 -0.4556 -0.5012  0.1742
 6714TIP3    H141557   0.731   6.556   4.784 -1.8928  0.4359  0.2661
 6714TIP3    H241558   0.838   6.616   4.695 -0.8288  0.7399  1.7027
 6715TIP3   OH241559   6.020   0.099  11.143  0.5412  0.2657  0.1685
 6715TIP3    H141560   5.979   0.173  11.098 -2.2520 -2.8705 -3.1814
 6715TIP3    H241561   5.960   0.078  11.215  0.7969  0.6615  0.4972
 6716TIP3   OH241562   5.517   3.889  14.807 -0.0493  0.1026  0.0605
 6716TIP3    H141563   5.467   3.944  14.867  0.8516 -0.6311  1.5570
 6716TIP3    H241564   5.479   3.905  14.721 -0.6260  2.0840  0.6487
 6717TIP3   OH241565   0.518   2.680  15.665 -0.5049 -0.9031 -0.3499
 6717TIP3    H141566   0.503   2.693  15.571 -2.2643 -2.5665 -0.3500
 6717TIP3    H241567   0.614   2.673  15.673 -0.2419  0.5719 -1.8069
 6718TIP3   OH241568   2.000   3.218   4.168 -0.4738 -0.0388  0.0424
 6718TIP3    H141569   2.037   3.133   4.190  0.9697  0.4569 -0.3288
 6718TIP3    H241570   1.965   3.251   4.251  0.6893 -0.1852  0.6148
 6719TIP3   OH241571   1.343   0.111  13.311  0.4959 -0.5025  0.4359
 6719TIP3    H141572   1.424   0.097  13.359  0.3880  0.2379  0.8407
 6719TIP3    H241573   1.324   0.026  13.270  0.6830 -1.0915  1.5430
 6720TIP3   OH241574   6.714   5.453   1.304  0.4029 -0.5127 -0.2557
 6720TIP3    H141575   6.766   5.381   1.339  0.6155  0.0488  0.6189
 6720TIP3    H241576   6.720   5.522   1.371  1.4240  0.9026 -1.7155
 6721TIP3   OH241577   5.885   3.697  11.832  0.5851 -0.1636  0.0390
 6721TIP3    H141578   5.856   3.786  11.815  0.0763 -0.6563 -1.8357
 6721TIP3    H241579   5.980   3.701  11.822  0.4166 -0.1710 -1.9252
 6722TIP3   OH241580   2.761   1.839   1.370 -0.8921  0.4017 -0.0301
 6722TIP3    H141581   2.760   1.746   1.392 -0.2644  0.7903  1.8399
 6722TIP3    H241582   2.692   1.878   1.424 -0.3153  1.1930  0.1709
 6723TIP3   OH241583   1.653   4.677   2.062 -0.9533 -0.5488 -0.0185
 6723TIP3    H141584   1.660   4.583   2.076 -0.7010 -0.5122  0.1122
 6723TIP3    H241585   1.735   4.701   2.018 -0.9961 -0.3842 -0.0104
 6724TIP3   OH241586   6.209   2.597   0.423 -0.1981  0.3635 -0.8475
 6724TIP3    H141587   6.143   2.557   0.480  0.3889  0.5767  0.0039
 6724TIP3    H241588   6.172   2.682   0.399  1.0896  1.9740  2.3179
 6725TIP3   OH241589   1.423   3.794  11.225  0.0504 -0.6471 -0.6187
 6725TIP3    H141590   1.464   3.875  11.256  0.6984 -1.7004  1.4988
 6725TIP3    H241591   1.347   3.823  11.174  0.1416  1.2886  0.2515
 6726TIP3   OH241592   3.496   5.908  16.371 -0.1762 -0.2128 -0.8518
 6726TIP3    H141593   3.555   5.874  16.304  0.2855 -1.4875  0.1518
 6726TIP3    H241594   3.552   5.923  16.448 -1.2796 -2.7479  0.5695
 6727TIP3   OH241595   3.045   1.398  16.568 -0.0235 -0.4286  0.6910
 6727TIP3    H141596   3.055   1.480  16.617 -1.8592  0.0274  0.3864
 6727TIP3    H241597   3.128   1.388  16.521  0.9022  0.3080  2.0979
 6728TIP3   OH241598   5.897   5.409  16.670  0.1503 -0.0009 -0.2065
 6728TIP3    H141599   5.904   5.428  16.763 -0.8373  0.6394 -0.2588
 6728TIP3    H241600   5.858   5.487  16.632 -0.7538 -0.7905 -0.9489
 6729TIP3   OH241601   0.606   5.218  15.969 -0.0084 -0.5268  0.1413
 6729TIP3    H141602   0.629   5.133  15.932  0.2838 -0.1475 -0.5624
 6729TIP3    H241603   0.558   5.197  16.049  0.4908 -1.3474  0.2359
 6730TIP3   OH241604   5.055   0.459  16.671  0.4239 -0.3201 -0.0692
 6730TIP3    H141605   5.052   0.455  16.766 -0.6785 -0.1549 -0.0901
 6730TIP3    H241606   5.027   0.372  16.642  1.2409 -0.5380 -0.2539
 6731TIP3   OH241607   3.106   3.449   3.269  0.2327  0.3226  0.4168
 6731TIP3    H141608   3.057   3.402   3.337  1.8678 -2.5118 -0.2067
 6731TIP3    H241609   3.191   3.468   3.310  0.6924 -0.0736 -0.3347
 6732TIP3   OH241610   0.534   6.673   0.890  1.3427  0.2234  0.4055
 6732TIP3    H141611   0.490   6.635   0.815  0.9744 -0.2967  0.8731
 6732TIP3    H241612   0.476   6.655   0.964  1.9848  0.1730  0.9133
 6733TIP3   OH241613   3.275   1.250   4.840  0.4195  0.3083 -0.1413
 6733TIP3    H141614   3.302   1.161   4.818 -0.0500  0.6387 -2.3134
 6733TIP3    H241615   3.344   1.283   4.897  0.3685 -1.5687  1.0823
 6734TIP3   OH241616   4.821   2.082   3.164  0.7012 -0.0862 -0.1055
 6734TIP3    H141617   4.781   2.153   3.115 -0.1293 -1.0791 -0.9110
 6734TIP3    H241618   4.913   2.083   3.136  0.8094  0.9620  0.2611
 6735TIP3   OH241619   1.806   0.127  15.540  0.1005 -0.2334 -0.6423
 6735TIP3    H141620   1.752   0.204  15.554 -1.0091 -1.4051  2.6826
 6735TIP3    H241621   1.890   0.149  15.580 -1.1891 -1.5730  3.2838
 6736TIP3   OH241622   1.535   6.538  12.980  0.0727  0.7389 -0.1244
 6736TIP3    H141623   1.463   6.514  13.037  0.1338  1.9833  0.5122
 6736TIP3    H241624   1.497   6.540  12.892 -0.7597  1.6349  0.2332
 6737TIP3   OH241625   2.242   2.467   5.168 -0.5091 -0.6856 -0.4388
 6737TIP3    H141626   2.261   2.467   5.074 -0.5447 -1.7431 -0.4598
 6737TIP3    H241627   2.308   2.525   5.206 -1.3754  0.9070 -1.2598
 6738TIP3   OH241628   4.331   2.876   5.905 -0.1799 -0.1376  0.2249
 6738TIP3    H141629   4.280   2.942   5.951  0.1724  0.3335 -0.0524
 6738TIP3    H241630   4.309   2.794   5.948  0.7944  0.3924  1.7981
 6739TIP3   OH241631   0.411   5.989   6.024 -0.7033 -0.0827  0.2628
 6739TIP3    H141632   0.347   5.951   5.964 -0.1383  0.2819 -0.5923
 6739TIP3    H241633   0.365   6.060   6.067  0.2979  3.4163 -3.8008
 6740TIP3   OH241634   3.307   2.583  13.663  0.2803 -0.0702 -1.1214
 6740TIP3    H141635   3.359   2.628  13.730 -0.0238 -0.3901 -0.6702
 6740TIP3    H241636   3.217   2.607  13.683  0.1926 -0.0999 -1.4723
 6741TIP3   OH241637   3.745   5.249   5.379 -0.3101  0.0472  0.1060
 6741TIP3    H141638   3.707   5.238   5.466 -3.7941 -0.0639 -1.2796
 6741TIP3    H241639   3.746   5.344   5.365  1.8758  0.1891  0.8206
 6742TIP3   OH241640   1.521   2.518  14.099 -0.0529  0.5570 -0.1402
 6742TIP3    H141641   1.459   2.587  14.073 -0.1189  0.9177  0.9524
 6742TIP3    H241642   1.606   2.562  14.103 -0.0195  0.4693  0.1098
 6743TIP3   OH241643   4.505   4.263  12.389 -0.1178 -0.9727 -0.3584
 6743TIP3    H141644   4.436   4.295  12.447 -0.4615 -0.3793 -1.0795
 6743TIP3    H241645   4.470   4.184  12.350 -1.2452  0.3532 -2.2269
 6744TIP3   OH241646   0.699   1.241  16.560 -0.0159  0.2601  0.0988
 6744TIP3    H141647   0.699   1.208  16.470 -1.8374  0.3645  0.0357
 6744TIP3    H241648   0.709   1.163  16.614 -0.9336 -0.0355 -0.1458
 6745TIP3   OH241649   2.270   5.549  16.369  0.0946  0.7846  0.0064
 6745TIP3    H141650   2.262   5.636  16.407 -1.9072  0.8174 -0.3571
 6745TIP3    H241651   2.241   5.560  16.278 -1.1782 -0.4100  0.2281
 6746TIP3   OH241652   0.639   1.481  14.582 -0.2319 -0.0748  0.5860
 6746TIP3    H141653   0.564   1.422  14.574 -0.6104  0.3105  1.2396
 6746TIP3    H241654   0.715   1.423  14.580 -0.5237 -0.4496 -0.3109
 6747TIP3   OH241655   1.567   0.892  16.319  0.3951  0.1461 -0.6221
 6747TIP3    H141656   1.491   0.896  16.261 -0.8684 -0.6825  0.9085
 6747TIP3    H241657   1.532   0.913  16.406  2.2205  1.3395 -0.1102
 6748TIP3   OH241658   5.209   5.508  12.689 -0.2312  0.3190 -0.1239
 6748TIP3    H141659   5.290   5.525  12.737 -0.8704  0.9239  0.7659
 6748TIP3    H241660   5.185   5.592  12.651 -0.2372  0.0532 -0.7238
 6749TIP3   OH241661   6.803   4.522   0.610  0.4015  0.0618 -0.6447
 6749TIP3    H141662   6.804   4.426   0.620 -1.6007  0.0308 -0.3026
 6749TIP3    H241663   6.854   4.538   0.530  2.5935 -1.0673  0.4376
 6750TIP3   OH241664   3.034   5.164  16.591  0.6080  0.2857  0.1639
 6750TIP3    H141665   3.109   5.150  16.649 -0.4894 -0.1831  1.5431
 6750TIP3    H241666   2.970   5.210  16.646 -0.0520  0.8426 -1.0356
 6751TIP3   OH241667   0.487   1.214   6.284 -0.1050 -0.3460 -0.1397
 6751TIP3    H141668   0.532   1.297   6.270 -2.0137  0.5074 -1.7561
 6751TIP3    H241669   0.396   1.240   6.301 -0.5959 -2.0937  0.0463
 6752TIP3   OH241670   2.009   5.871  16.263  0.0795  0.6182 -0.1466
 6752TIP3    H141671   2.020   5.820  16.343  1.2324 -1.6939 -1.6644
 6752TIP3    H241672   1.942   5.823  16.214  1.1928  0.5018 -1.6282
 6753TIP3   OH241673   1.507   0.972  12.836 -0.0254 -0.2562  0.5903
 6753TIP3    H141674   1.574   1.009  12.894  0.3138 -0.4280  0.3154
 6753TIP3    H241675   1.432   0.956  12.892  0.7850 -1.8070  1.2981
 6754TIP3   OH241676   0.708   5.979  10.966 -0.0647 -0.3181 -0.2223
 6754TIP3    H141677   0.799   5.963  10.941  0.4910  1.1713  0.7075
 6754TIP3    H241678   0.678   6.045  10.904 -0.5242 -0.7928 -0.5144
 6755TIP3   OH241679   2.133   6.422   0.470 -0.0198  0.4813 -0.0579
 6755TIP3    H141680   2.110   6.337   0.506 -1.3930  0.2661 -1.3706
 6755TIP3    H241681   2.188   6.402   0.394 -1.3421  0.6737 -1.0995
 6756TIP3   OH241682   2.771   6.386   3.847  0.5633 -0.0285  0.1719
 6756TIP3    H141683   2.711   6.415   3.916  1.3597  1.5409  0.2589
 6756TIP3    H241684   2.776   6.460   3.787  1.5892 -0.5318 -0.3871
 6757TIP3   OH241685   0.265   0.090   5.321  0.5332 -0.3142 -0.6322
 6757TIP3    H141686   0.188   0.118   5.272  0.4090  0.4986 -0.0058
 6757TIP3    H241687   0.266  -0.005   5.312 -2.2255 -0.6955  1.6988
 6758TIP3   OH241688   5.027   5.579   1.415  0.0665  0.5305  0.1284
 6758TIP3    H141689   5.053   5.561   1.505  0.2338 -0.3840 -0.0946
 6758TIP3    H241690   5.100   5.547   1.362 -0.0271  1.0674 -0.3299
 6759TIP3   OH241691   3.449   4.976  12.864 -0.2891  0.0793 -0.0530
 6759TIP3    H141692   3.508   5.027  12.919 -1.6320  1.6424  0.0419
 6759TIP3    H241693   3.451   4.888  12.901  0.7828  0.4843  0.8900
 6760TIP3   OH241694   6.478   6.520   3.896  0.2002  0.2482 -0.2771
 6760TIP3    H141695   6.521   6.440   3.867  0.5502  0.2316  0.2632
 6760TIP3    H241696   6.424   6.493   3.970  2.9055  1.0049  2.1636
 6761TIP3   OH241697   6.125   2.675  16.036 -0.0862 -0.7721 -0.6106
 6761TIP3    H141698   6.162   2.757  16.003  1.1890 -1.3826 -0.7612
 6761TIP3    H241699   6.082   2.635  15.960 -0.1493 -0.5494 -0.6923
 6762TIP3   OH241700   0.044   3.315   5.695  0.2971  0.2432  0.0664
 6762TIP3    H141701   0.076   3.400   5.726  0.5500  0.4234 -0.6682
 6762TIP3    H241702   0.106   3.289   5.627  0.8786 -1.0902  1.0837
 6763TIP3   OH241703   5.540   5.358   0.178  0.0821 -0.2140 -0.6241
 6763TIP3    H141704   5.492   5.382   0.099  0.1559  0.1754 -0.5509
 6763TIP3    H241705   5.631   5.380   0.159  0.1328 -0.3251 -0.5122
 6764TIP3   OH241706   0.400   0.440   6.307  0.3006  0.4850  0.0014
 6764TIP3    H141707   0.404   0.489   6.389 -2.1237  0.4586  0.2121
 6764TIP3    H241708   0.434   0.500   6.241  1.9446  0.6372  0.9507
 6765TIP3   OH241709   5.649   0.114  13.591 -0.0765 -0.0994 -0.0319
 6765TIP3    H141710   5.645   0.051  13.520 -0.3037 -0.8190  0.6074
 6765TIP3    H241711   5.577   0.175  13.573  0.7737  0.5921 -1.2029
 6766TIP3   OH241712   3.292   3.961  15.926 -0.4749 -0.3516  0.1900
 6766TIP3    H141713   3.308   3.929  15.837  1.1966  0.0362  0.3259
 6766TIP3    H241714   3.345   3.906  15.982  0.4557  0.9896  0.6809
 6767TIP3   OH241715   1.137   2.140  10.867  0.1403 -0.0397 -0.1239
 6767TIP3    H141716   1.074   2.208  10.843 -0.4383 -0.4997  0.0497
 6767TIP3    H241717   1.212   2.154  10.809  0.5585  1.4980  0.7359
 6768TIP3   OH241718   0.067   3.750   2.387 -0.6946 -0.7130 -0.4483
 6768TIP3    H141719   0.071   3.833   2.434 -2.5810  1.1626 -3.2962
 6768TIP3    H241720   0.136   3.756   2.321  1.0381 -2.7512  0.9954
 6769TIP3   OH241721   4.807   3.446  11.510  0.2590  0.0174 -0.3859
 6769TIP3    H141722   4.786   3.431  11.602  0.6569 -0.0636 -0.3054
 6769TIP3    H241723   4.798   3.540  11.499  0.3374  0.0442 -0.2305
 6770TIP3   OH241724   2.396   3.041  16.922  0.3582 -0.6704 -0.1498
 6770TIP3    H141725   2.405   3.081  17.008 -1.1012 -0.5293 -0.0460
 6770TIP3    H241726   2.409   2.948  16.937 -2.0653 -0.9506  0.6634
 6771TIP3   OH241727   5.681   2.205  10.953  0.7214  0.3456  0.0793
 6771TIP3    H141728   5.685   2.148  10.876 -0.8181  0.3460 -0.0488
 6771TIP3    H241729   5.665   2.145  11.026 -0.0948  0.5206  0.0574
 6772TIP3   OH241730   4.982   4.759  14.386  0.1329 -0.4497  0.2167
 6772TIP3    H141731   4.949   4.728  14.302  1.1635 -0.7242 -0.1021
 6772TIP3    H241732   4.908   4.748  14.446 -0.7156  0.0455 -0.7074
 6773TIP3   OH241733   3.660   3.423  10.764  0.5568  0.0363  0.0188
 6773TIP3    H141734   3.670   3.513  10.734 -0.1863  0.3957  0.8202
 6773TIP3    H241735   3.578   3.393  10.725  0.0747  0.1913  0.8931
 6774TIP3   OH241736   1.661   3.599  15.334  0.0965  0.5301 -0.4982
 6774TIP3    H141737   1.642   3.649  15.254 -0.1133 -0.4317 -1.0664
 6774TIP3    H241738   1.673   3.509  15.303 -1.7892 -0.2043  0.7601
 6775TIP3   OH241739   0.573   3.345  14.032 -0.6235 -0.4555 -0.5653
 6775TIP3    H141740   0.618   3.265  14.061  0.9334  0.5654 -0.0377
 6775TIP3    H241741   0.604   3.359  13.943  0.2373  0.3158 -0.1592
 6776TIP3   OH241742   2.960   3.628  14.078  0.2715 -0.5862  0.1174
 6776TIP3    H141743   2.911   3.586  14.007 -1.1745 -0.6575  1.1028
 6776TIP3    H241744   2.895   3.641  14.147  1.8101 -1.3675  1.8090
 6777TIP3   OH241745   6.615   2.209   3.633  0.4907 -0.0754 -0.2817
 6777TIP3    H141746   6.627   2.253   3.717 -1.1578 -1.1817  0.5669
 6777TIP3    H241747   6.675   2.134   3.636 -0.8799 -1.1677  0.7104
 6778TIP3   OH241748   3.685   5.199  15.262 -0.0617  0.8385  0.1865
 6778TIP3    H141749   3.745   5.269  15.238 -0.3887  1.6426  1.5917
 6778TIP3    H241750   3.738   5.138  15.313  0.2598 -0.0506 -1.1651
 6779TIP3   OH241751   3.113   6.484   3.545  0.3093  0.0608  0.4975
 6779TIP3    H141752   3.160   6.405   3.519  1.0042  1.0833 -1.6314
 6779TIP3    H241753   3.062   6.458   3.622  2.2134 -1.8268  1.2182
 6780TIP3   OH241754   1.927   0.019  16.539  0.0342  0.2849 -0.4217
 6780TIP3    H141755   1.897   0.100  16.579  1.4697  0.1827  0.9592
 6780TIP3    H241756   1.855  -0.043  16.553  0.3803  0.3009  1.9545
 6781TIP3   OH241757   6.649   6.356   2.176  0.9641  0.1428  0.0777
 6781TIP3    H141758   6.578   6.317   2.125  0.3117 -0.8551  1.6455
 6781TIP3    H241759   6.680   6.284   2.231  1.5772  1.1742  1.1226
 6782TIP3   OH241760   5.959   0.182  16.202  0.0426 -0.2627  0.5436
 6782TIP3    H141761   5.980   0.274  16.187 -1.0879 -0.4468 -3.1480
 6782TIP3    H241762   6.039   0.145  16.239  2.1664  1.3540 -2.0656
 6783TIP3   OH241763   0.123   2.343  13.365 -0.5488 -0.0630 -0.3040
 6783TIP3    H141764   0.101   2.288  13.441 -0.4338  0.7158  0.3059
 6783TIP3    H241765   0.057   2.412  13.365  0.9581  1.4558  0.6741
 6784TIP3   OH241766   3.792   4.526  16.291  0.1820  0.1012  0.4093
 6784TIP3    H141767   3.807   4.432  16.291  2.5980  0.2992 -3.0870
 6784TIP3    H241768   3.797   4.551  16.383 -0.0070 -3.0755  1.3989
 6785TIP3   OH241769   3.212   5.084   2.510  0.1476  0.2590 -0.7055
 6785TIP3    H141770   3.138   5.114   2.456 -0.2519  2.3070  0.8533
 6785TIP3    H241771   3.270   5.160   2.515  0.4236 -0.0317  1.2950
 6786TIP3   OH241772   0.785   2.329  16.570  0.7570 -0.1280 -0.5506
 6786TIP3    H141773   0.710   2.348  16.514  2.0041 -2.2224 -3.2011
 6786TIP3    H241774   0.854   2.387  16.539  1.7340 -1.9457 -2.0116
 6787TIP3   OH241775   4.999   6.660  13.217  0.2731  0.0009 -0.0569
 6787TIP3    H141776   4.919   6.612  13.237  0.1012  0.7252  1.1468
 6787TIP3    H241777   5.069   6.595  13.225  0.0684 -0.0647  1.7259
 6788TIP3   OH241778   4.490   0.081  13.615  0.0424  0.2588  0.1481
 6788TIP3    H141779   4.560   0.129  13.660  1.6763 -0.9513 -0.9658
 6788TIP3    H241780   4.528   0.059  13.530 -1.1738 -1.7124  0.0706
 6789TIP3   OH241781   4.711   4.088   4.915  0.7732 -0.3887  0.0621
 6789TIP3    H141782   4.774   4.132   4.859  1.0858 -1.2817 -0.3062
 6789TIP3    H241783   4.717   4.133   4.999  2.0016 -0.5661  0.0735
 6790TIP3   OH241784   6.161   0.619   5.849 -0.7287 -0.4807  0.4251
 6790TIP3    H141785   6.250   0.642   5.875 -1.0927  0.4599  0.8803
 6790TIP3    H241786   6.116   0.601   5.931 -0.6791 -2.0733  0.1254
 6791TIP3   OH241787   5.562   5.020   4.210 -0.0306 -0.4562  0.1877
 6791TIP3    H141788   5.501   5.049   4.142 -0.2995 -1.8936 -0.2185
 6791TIP3    H241789   5.633   4.976   4.163  0.7505  0.1949  0.7312
 6792TIP3   OH241790   3.711   5.855   2.358 -0.0369 -0.2590 -0.2695
 6792TIP3    H141791   3.781   5.793   2.340 -0.6737 -1.7574  1.9553
 6792TIP3    H241792   3.650   5.845   2.284 -0.5153 -2.9788  0.3863
 6793TIP3   OH241793   1.203   3.346  16.244  0.3001 -0.3488  0.2715
 6793TIP3    H141794   1.203   3.283  16.317 -0.1549  1.0306  1.5232
 6793TIP3    H241795   1.194   3.292  16.166  0.7985 -1.8990  1.2270
 6794TIP3   OH241796   3.742   0.096  14.896 -0.3640  0.6575 -0.2984
 6794TIP3    H141797   3.727   0.025  14.959 -0.5376  1.3252  0.4317
 6794TIP3    H241798   3.714   0.060  14.812  0.5240 -0.4867 -0.1269
 6795TIP3   OH241799   0.507   1.757  11.756 -0.2721  0.2456 -0.2446
 6795TIP3    H141800   0.442   1.811  11.801 -0.5272 -1.4240  1.4737
 6795TIP3    H241801   0.564   1.726  11.825  3.0808  2.4245 -1.7790
 6796TIP3   OH241802   2.892   4.151  11.876 -0.2540 -0.6769  0.1060
 6796TIP3    H141803   2.968   4.139  11.820 -1.0868 -1.7241 -0.8291
 6796TIP3    H241804   2.859   4.238  11.854  0.4352 -0.3773  0.2401
 6797TIP3   OH241805   3.116   2.017  16.684  0.2241 -0.0609  0.2190
 6797TIP3    H141806   3.084   2.006  16.595 -1.8652  1.3549  0.7344
 6797TIP3    H241807   3.133   2.111  16.692 -1.5015  0.1793  1.8454
 6798TIP3   OH241808   5.746   0.972   2.152 -0.0156  0.5263  0.0294
 6798TIP3    H141809   5.770   0.919   2.228 -0.5147  0.3496  0.0663
 6798TIP3    H241810   5.824   0.969   2.096 -0.6543 -1.8460 -0.8695
 6799TIP3   OH241811   2.356   4.848  12.839 -0.3884  0.3528  0.3982
 6799TIP3    H141812   2.265   4.832  12.864 -0.2740  1.0337  1.2929
 6799TIP3    H241813   2.404   4.772  12.872 -0.7279 -0.3621 -0.7175
 6800TIP3   OH241814   6.090   6.446   5.606  0.0433  0.3101 -0.8856
 6800TIP3    H141815   6.120   6.537   5.598  0.4166  0.2534 -0.2244
 6800TIP3    H241816   6.072   6.435   5.700 -0.7310 -0.0744 -1.0701
 6801TIP3   OH241817   4.192   2.355  10.841  0.0297 -0.0153 -0.3584
 6801TIP3    H141818   4.273   2.304  10.840  0.8237  1.1307  0.9375
 6801TIP3    H241819   4.218   2.440  10.878 -1.7812  0.3546  0.1658
 6802TIP3   OH241820   0.037   0.182   5.230 -0.6159  0.5993 -0.2798
 6802TIP3    H141821  -0.003   0.251   5.178  0.6717  0.3018 -1.7586
 6802TIP3    H241822  -0.004   0.101   5.199  2.7691 -0.0831 -3.9203
 6803TIP3   OH241823   1.237   5.882   0.817 -0.0851  0.1700  0.1855
 6803TIP3    H141824   1.212   5.831   0.740 -1.3209 -0.4211  0.9471
 6803TIP3    H241825   1.172   5.951   0.821 -0.1320  0.0885  0.8023
 6804TIP3   OH241826   0.182   4.140   1.052  0.0383  0.7930 -0.1595
 6804TIP3    H141827   0.131   4.065   1.021  0.4735 -0.1261  1.2985
 6804TIP3    H241828   0.234   4.106   1.125  0.8708  2.3184 -0.0063
 6805TIP3   OH241829   5.337   4.267   5.095 -0.6800  0.2602  0.9072
 6805TIP3    H141830   5.389   4.199   5.137 -2.8814 -1.2175  1.3961
 6805TIP3    H241831   5.351   4.345   5.150  0.3809 -0.2910  1.4483
 6806TIP3   OH241832   4.534   3.810   4.893 -0.4920  0.3459  0.0081
 6806TIP3    H141833   4.489   3.823   4.809 -0.9106  2.5573  0.5297
 6806TIP3    H241834   4.626   3.829   4.874 -0.1214 -1.6452 -0.4648
 6807TIP3   OH241835   0.142   0.949  13.648 -0.6339 -0.1083  0.6094
 6807TIP3    H141836   0.160   0.920  13.559 -1.5766 -1.1256  0.7375
 6807TIP3    H241837   0.142   1.045  13.642  1.1281 -0.1242 -0.0954
 6808TIP3   OH241838   3.218   2.876   3.452 -0.5945 -0.3660  0.0712
 6808TIP3    H141839   3.307   2.904   3.476  0.2365 -3.5038  1.0932
 6808TIP3    H241840   3.186   2.946   3.395  2.4170  1.0251 -0.1307
 6809TIP3   OH241841   2.290   5.437  10.248  0.2898 -0.1298  0.1413
 6809TIP3    H141842   2.295   5.400  10.336 -1.0550 -1.9597 -0.5066
 6809TIP3    H241843   2.199   5.465  10.238 -0.1649 -1.9427 -1.3851
 6810TIP3   OH241844   3.257   6.695   2.020  0.3190 -0.6019 -0.1293
 6810TIP3    H141845   3.297   6.782   2.023  2.3346 -1.4869  0.6016
 6810TIP3    H241846   3.211   6.693   1.936 -3.0673  2.4584  1.4097
 6811TIP3   OH241847   6.245   5.120  15.625 -0.4805  0.4703  0.2354
 6811TIP3    H141848   6.237   5.024  15.619  0.7616  0.3312  0.5645
 6811TIP3    H241849   6.309   5.134  15.695  0.2764  1.5268 -0.6507
 6812TIP3   OH241850   3.554   0.582  14.861 -0.0220 -0.3661  0.3165
 6812TIP3    H141851   3.619   0.607  14.795  1.2436 -0.0865  1.6141
 6812TIP3    H241852   3.588   0.500  14.899 -0.9192 -0.7237  0.3765
 6813TIP3   OH241853   3.093   6.421  13.507  0.5957  0.8729  0.0421
 6813TIP3    H141854   3.169   6.447  13.455  0.6435  0.1502 -0.2613
 6813TIP3    H241855   3.059   6.344  13.463  1.2672 -0.4148  1.6729
 6814TIP3   OH241856   4.489   2.189   2.831  0.2091 -1.3549 -0.0350
 6814TIP3    H141857   4.431   2.164   2.903 -0.0132 -0.6178  0.0517
 6814TIP3    H241858   4.450   2.150   2.753  0.5886 -2.3702  0.2701
 6815TIP3   OH241859   4.569   6.037  12.158 -0.4459  0.0279  0.1436
 6815TIP3    H141860   4.625   5.981  12.104  1.1125 -0.7997  2.4102
 6815TIP3    H241861   4.576   6.124  12.118 -0.5817 -0.8047 -1.7929
 6816TIP3   OH241862   2.727   5.752  15.786 -0.5936  0.2627 -0.4673
 6816TIP3    H141863   2.813   5.736  15.824 -0.4024 -0.7343 -1.2678
 6816TIP3    H241864   2.687   5.665  15.780 -1.1812  0.5703 -1.2213
 6817TIP3   OH241865   6.243   1.038  13.772  0.4312 -0.0832 -0.2693
 6817TIP3    H141866   6.285   1.045  13.858  2.2832  0.6872 -1.1689
 6817TIP3    H241867   6.258   0.948  13.745 -1.6389 -0.8337  0.8703
 6818TIP3   OH241868   6.005   4.409   1.712 -0.0488 -0.4126  0.2456
 6818TIP3    H141869   6.006   4.469   1.787 -0.4971 -1.6433  1.2829
 6818TIP3    H241870   6.065   4.339   1.738  1.3200  0.0849 -1.4063
 6819TIP3   OH241871   4.153   1.880  15.156 -0.5445 -0.0700  0.5077
 6819TIP3    H141872   4.200   1.856  15.235 -0.8045  0.8536  0.9538
 6819TIP3    H241873   4.214   1.934  15.106 -0.2663 -0.9059 -0.0910
 6820TIP3   OH241874   6.566   1.002  15.543  0.1436  0.4811 -0.3321
 6820TIP3    H141875   6.542   1.094  15.545 -1.6510  0.0394  0.2638
 6820TIP3    H241876   6.629   0.992  15.614  1.8089  1.5805 -1.5835
 6821TIP3   OH241877   6.776   4.865  16.826 -0.2377  0.1228 -0.9488
 6821TIP3    H141878   6.762   4.774  16.850 -0.5584  0.4284  0.0622
 6821TIP3    H241879   6.870   4.870  16.805  0.1667 -0.0918  0.6427
 6822TIP3   OH241880   6.123   6.667  13.116  1.0793  0.2839 -0.2227
 6822TIP3    H141881   6.197   6.618  13.150  0.4431 -0.7828 -0.3238
 6822TIP3    H241882   6.050   6.605  13.116  0.3401  1.1110 -0.7363
 6823TIP3   OH241883   4.565   4.802  11.384  0.0509  0.8431 -0.0726
 6823TIP3    H141884   4.645   4.757  11.355  0.3737  0.7714  0.8804
 6823TIP3    H241885   4.525   4.833  11.304  1.8598  2.2674 -0.5076
 6824TIP3   OH241886   1.907   0.903   2.009  0.1673  0.6567 -0.4176
 6824TIP3    H141887   1.995   0.872   1.988  0.3668  1.2278 -0.4292
 6824TIP3    H241888   1.919   0.961   2.083 -0.3717 -0.3123  0.4560
 6825TIP3   OH241889   0.820   4.161  16.649 -0.0933 -0.2006 -0.0529
 6825TIP3    H141890   0.898   4.216  16.645  0.2266 -0.7291 -1.4103
 6825TIP3    H241891   0.812   4.124  16.561 -1.0999 -1.2146  0.4462
 6826TIP3   OH241892   1.062   2.292   0.093 -0.2632  0.2905 -0.2533
 6826TIP3    H141893   1.114   2.302   0.013 -1.4234  0.2864 -1.0321
 6826TIP3    H241894   0.971   2.295   0.063 -0.7191 -0.2136  1.0124
 6827TIP3   OH241895   6.584   2.106  12.684 -0.5482  0.7643  0.5804
 6827TIP3    H141896   6.527   2.134  12.613 -0.6611  1.2383  0.8533
 6827TIP3    H241897   6.542   2.027  12.719 -0.5328  0.5750  0.1753
 6828TIP3   OH241898   5.634   0.375  11.527  0.4766  0.1966  0.0886
 6828TIP3    H141899   5.683   0.354  11.447  1.6279  1.6968  0.3526
 6828TIP3    H241900   5.668   0.316  11.593 -1.5673 -2.1630 -0.7851
 6829TIP3   OH241901   4.760   6.794  17.074  1.0246 -0.2039  0.6754
 6829TIP3    H141902   4.791   6.839  17.153  0.5084 -0.4970  1.0561
 6829TIP3    H241903   4.698   6.856  17.034  1.5272  0.0764  0.3201
 6830TIP3   OH241904   1.004   1.303   0.885  0.0674  0.3470 -0.6699
 6830TIP3    H141905   1.065   1.235   0.913  0.1643  1.5752  2.5484
 6830TIP3    H241906   0.945   1.259   0.824  1.9531 -1.7674 -1.1237
 6831TIP3   OH241907   5.956   5.863  11.392 -0.4276  0.0479 -0.1894
 6831TIP3    H141908   6.017   5.810  11.341 -0.9916  0.2172 -1.0506
 6831TIP3    H241909   6.010   5.902  11.461  0.2941 -0.3665 -0.5109
 6832TIP3   OH241910   4.580   2.168   1.904  0.5099  0.7323 -0.2963
 6832TIP3    H141911   4.660   2.121   1.927 -0.1361  0.8296  2.3954
 6832TIP3    H241912   4.515   2.099   1.889  0.4202  0.6889  0.2705
 6833TIP3   OH241913   0.778   2.283   2.034  0.1865  0.0573  0.0204
 6833TIP3    H141914   0.790   2.373   2.006 -2.7618  0.2090 -1.0437
 6833TIP3    H241915   0.688   2.279   2.066 -1.2390 -3.2745 -3.5916
 6834TIP3   OH241916   4.142   0.104  15.118  0.4562 -0.2235  0.0644
 6834TIP3    H141917   4.092   0.030  15.152  1.1051 -1.0935 -0.8281
 6834TIP3    H241918   4.075   0.164  15.083 -0.1158 -0.0266  1.4372
 6835TIP3   OH241919   5.145   3.940   0.456 -0.1781 -0.3154 -0.0500
 6835TIP3    H141920   5.128   4.018   0.510 -1.7989  0.6060 -1.7917
 6835TIP3    H241921   5.073   3.880   0.477  0.2956 -0.7890  0.2505
 6836TIP3   OH241922   3.321   6.376  15.080 -0.1405  0.3964  0.2080
 6836TIP3    H141923   3.233   6.348  15.105  0.2654 -0.9520  0.2271
 6836TIP3    H241924   3.365   6.393  15.163 -0.2580  0.6927  0.2112
 6837TIP3   OH241925   6.245   4.512   5.444 -0.0365  0.2615 -0.1644
 6837TIP3    H141926   6.179   4.572   5.407  0.2500  1.8770  1.7451
 6837TIP3    H241927   6.325   4.533   5.397 -0.4516 -0.3893 -1.1984
 6838TIP3   OH241928   6.800   5.923  16.571  0.0369  0.1137 -0.2380
 6838TIP3    H141929   6.845   5.982  16.511  0.8424  1.0454  1.2105
 6838TIP3    H241930   6.853   5.843  16.571  0.0276  0.1049 -0.7492
 6839TIP3   OH241931   3.435   0.149  15.785  0.3136 -0.1839 -0.4993
 6839TIP3    H141932   3.402   0.124  15.699  1.0058 -3.1576 -0.0047
 6839TIP3    H241933   3.530   0.151  15.775  0.4201 -0.9719  0.2722
 6840TIP3   OH241934   5.410   4.658   4.945 -0.0677 -0.4761 -0.0123
 6840TIP3    H141935   5.483   4.605   4.912  0.2653  1.2835 -2.3605
 6840TIP3    H241936   5.452   4.734   4.984 -0.5572 -1.6341  3.0797
 6841TIP3   OH241937   0.286   3.561   4.300 -0.1855 -0.0551  0.5840
 6841TIP3    H141938   0.283   3.613   4.220 -1.0826  1.6794  1.6826
 6841TIP3    H241939   0.352   3.603   4.355  0.2130 -1.0490  0.8986
 6842TIP3   OH241940   0.870   3.811   2.990 -0.1233 -0.3364  0.0515
 6842TIP3    H141941   0.814   3.864   2.934 -1.3059 -2.7221 -1.1734
 6842TIP3    H241942   0.810   3.760   3.044  0.8558 -2.0184 -0.3683
 6843TIP3   OH241943   5.573   3.813  16.790 -0.1158  0.1089 -0.1368
 6843TIP3    H141944   5.548   3.722  16.804  0.9958 -0.0858  0.6576
 6843TIP3    H241945   5.592   3.818  16.696  1.0999 -0.8179  0.0362
 6844TIP3   OH241946   5.339   4.674   0.621 -0.3513 -0.1541  0.4873
 6844TIP3    H141947   5.356   4.644   0.532 -1.2720 -0.1250  0.3003
 6844TIP3    H241948   5.402   4.746   0.634 -0.3671 -0.0071 -0.2196
 6845TIP3   OH241949   0.370   0.705  11.970 -0.1207 -0.4743 -0.1486
 6845TIP3    H141950   0.324   0.622  11.979 -2.6112  0.8042 -0.3520
 6845TIP3    H241951   0.376   0.739  12.059 -3.2461  1.1347 -0.4122
 6846TIP3   OH241952   6.436   5.392  10.237  0.5077 -0.1725 -0.2377
 6846TIP3    H141953   6.396   5.364  10.319  0.4434 -0.3148 -0.3183
 6846TIP3    H241954   6.398   5.479  10.220  0.4794 -0.1672 -0.1470
 6847TIP3   OH241955   6.393   1.413  12.618  0.2423  0.4794  0.3892
 6847TIP3    H141956   6.487   1.425  12.604  0.0473  3.6401  0.9593
 6847TIP3    H241957   6.381   1.318  12.622  3.2479 -0.0536 -0.5483
 6848TIP3   OH241958   2.557   6.791  11.627  0.1326 -0.2052  0.2780
 6848TIP3    H141959   2.559   6.802  11.532  0.5406 -1.1840  0.1612
 6848TIP3    H241960   2.573   6.879  11.662  2.0957 -0.1561 -0.5848
 6849TIP3   OH241961   4.155   1.287  13.855 -0.4277 -0.3675 -0.8102
 6849TIP3    H141962   4.072   1.297  13.808 -0.8302 -0.4671 -0.1370
 6849TIP3    H241963   4.164   1.368  13.905 -1.2465 -1.2462  0.8467
 6850TIP3   OH241964   4.483   0.488   2.598  0.2887  0.5461  0.8421
 6850TIP3    H141965   4.434   0.423   2.647  1.0852 -0.7356  0.0130
 6850TIP3    H241966   4.418   0.528   2.540  0.1861 -1.2361 -0.3566
 6851TIP3   OH241967   1.555   5.665   5.913  0.0352 -0.1362 -0.1730
 6851TIP3    H141968   1.616   5.739   5.925 -0.6019  0.2096  1.1220
 6851TIP3    H241969   1.488   5.678   5.980 -0.4540 -1.5431 -0.3533
 6852TIP3   OH241970   5.685   2.939   1.179  0.0111  0.0550 -0.2967
 6852TIP3    H141971   5.595   2.913   1.201 -0.4915  0.8528 -1.3175
 6852TIP3    H241972   5.721   2.865   1.131 -0.1092 -0.2519  0.0809
 6853TIP3   OH241973   0.783   3.962  12.995 -0.3175 -0.5303  0.0703
 6853TIP3    H141974   0.700   3.914  12.991  0.1562 -1.2847 -2.3609
 6853TIP3    H241975   0.850   3.894  12.993  0.3458  0.1231 -0.9651
 6854TIP3   OH241976   0.716   5.761   3.181  0.3876 -0.1387  0.8749
 6854TIP3    H141977   0.786   5.803   3.131 -1.1236  0.1368 -1.1479
 6854TIP3    H241978   0.694   5.825   3.249  0.7939  0.6266  0.3023
 6855TIP3   OH241979   3.471   1.880  10.519 -0.3238 -0.5763 -0.4152
 6855TIP3    H141980   3.545   1.940  10.516 -0.6614 -0.1478 -0.2743
 6855TIP3    H241981   3.425   1.894  10.436 -1.2195  0.4279  0.2176
 6856TIP3   OH241982   4.212   6.780   1.979  0.3434 -0.0073 -0.4667
 6856TIP3    H141983   4.206   6.687   2.001  1.4928  0.0377  0.1121
 6856TIP3    H241984   4.144   6.822   2.032  0.9726 -0.3130  0.6107
 6857TIP3   OH241985   1.510   5.018  12.353  0.1432 -0.0945 -0.4152
 6857TIP3    H141986   1.416   5.035  12.352  0.2451  0.5148 -0.0062
 6857TIP3    H241987   1.536   5.030  12.444  0.4527 -1.2449 -0.3385
 6858TIP3   OH241988   1.909   3.702  16.184 -0.5768  0.3446  0.1945
 6858TIP3    H141989   1.974   3.680  16.251 -0.0283  2.9496  0.6000
 6858TIP3    H241990   1.832   3.730  16.234 -1.2387 -0.5125 -0.3044
 6859TIP3   OH241991   5.630   4.019   9.886 -0.3028 -0.4679 -0.2272
 6859TIP3    H141992   5.621   4.072   9.965  1.3224 -1.7693  0.8837
 6859TIP3    H241993   5.665   4.080   9.821 -0.7909  0.3907  0.2971
 6860TIP3   OH241994   1.507   5.694  12.027 -0.4826  0.1459  0.6432
 6860TIP3    H141995   1.492   5.762  12.093 -1.0448 -0.3710  1.0591
 6860TIP3    H241996   1.576   5.639  12.065 -0.9338 -0.2566  0.8840
 6861TIP3   OH241997   0.221   6.220  16.328 -0.2287  0.0227 -0.2165
 6861TIP3    H141998   0.281   6.294  16.319 -0.5221  0.7856  2.7876
 6861TIP3    H241999   0.267   6.158  16.384 -0.8889 -1.0251 -0.7924
 6862TIP3   OH242000   0.723   2.496   6.358  0.0657  0.2261  0.0345
 6862TIP3    H142001   0.790   2.427   6.361 -0.3991 -0.2217  3.1714
 6862TIP3    H242002   0.772   2.578   6.353  0.8472 -0.1452  1.2531
 6863TIP3   OH242003   2.531   0.338  16.157  0.2516 -0.8023 -0.1827
 6863TIP3    H142004   2.486   0.258  16.131  0.4613 -1.4354  1.2925
 6863TIP3    H242005   2.511   0.347  16.251  1.3393  0.1402 -0.0162
 6864TIP3   OH242006   0.322   5.727  13.995  0.1696  0.0675  0.0164
 6864TIP3    H142007   0.414   5.724  14.021 -0.6257 -0.8066  3.1514
 6864TIP3    H242008   0.312   5.655  13.934  1.3490 -0.5103  0.4716
 6865TIP3   OH242009   4.645   5.922  11.257  0.2355  0.2383  0.4371
 6865TIP3    H142010   4.600   6.001  11.230 -0.5948 -0.7474 -1.2422
 6865TIP3    H242011   4.723   5.918  11.202  0.1624 -0.1979  0.3567
 6866TIP3   OH242012   3.049   1.188  10.632  0.5094  0.4507  0.1900
 6866TIP3    H142013   2.972   1.240  10.610  0.6982  0.3981 -0.6256
 6866TIP3    H242014   3.039   1.106  10.583  2.5389  1.6323 -2.4567
 6867TIP3   OH242015   3.502   3.834   2.178  0.5749 -0.4049 -0.0963
 6867TIP3    H142016   3.451   3.915   2.170 -0.8624 -1.2100  0.4325
 6867TIP3    H242017   3.584   3.853   2.133 -0.3683  0.8130 -1.4146
 6868TIP3   OH242018   6.416   5.142  14.324  0.2771 -0.1799  0.0715
 6868TIP3    H142019   6.348   5.088  14.363  1.4689 -0.9006  1.2410
 6868TIP3    H242020   6.369   5.208  14.273 -1.2329 -1.7544 -0.6529
 6869TIP3   OH242021   0.670   4.956  15.900 -0.3357  0.4889 -0.4702
 6869TIP3    H142022   0.673   4.922  15.810  3.4581 -3.2999  0.7070
 6869TIP3    H242023   0.624   4.888  15.950  1.0078  0.5589  0.9590
 6870TIP3   OH242024   1.944   4.828   4.793 -0.9946  0.4244 -0.0882
 6870TIP3    H142025   1.993   4.875   4.860 -2.0090  1.1390  0.1863
 6870TIP3    H242026   1.952   4.736   4.817  2.4063  0.1937 -1.5449
 6871TIP3   OH242027   4.872   3.995  11.205  0.5837  0.2916  0.2057
 6871TIP3    H142028   4.846   4.009  11.296  1.0926  0.0016  0.3973
 6871TIP3    H242029   4.953   3.944  11.211  0.8291  0.6037 -0.3984
 6872TIP3   OH242030   3.753   5.284   6.378 -0.3829  0.6179 -0.2123
 6872TIP3    H142031   3.766   5.359   6.319 -2.8457 -0.1793 -1.9173
 6872TIP3    H242032   3.813   5.301   6.451  0.2592  3.4677 -1.2492
 6873TIP3   OH242033   6.149   6.170  11.215 -0.4529  0.1994  0.2568
 6873TIP3    H142034   6.173   6.180  11.123  0.8256  0.8109  0.6204
 6873TIP3    H242035   6.201   6.096  11.246 -0.7343  0.1122  0.5307
 6874TIP3   OH242036   6.468   2.684   1.038 -0.4994 -0.2324  0.1964
 6874TIP3    H142037   6.462   2.746   1.110 -0.4712 -0.8527  0.7378
 6874TIP3    H242038   6.559   2.689   1.009  0.1323 -1.7498  1.8080
 6875TIP3   OH242039   2.344   0.310   3.637  0.4595 -0.1875 -0.4101
 6875TIP3    H142040   2.350   0.300   3.542  1.9919  0.6858 -0.4419
 6875TIP3    H242041   2.415   0.370   3.659  0.0139 -0.2298  1.2776
 6876TIP3   OH242042   0.995   2.515   3.856 -0.1517 -0.0203 -0.1290
 6876TIP3    H142043   0.946   2.494   3.777 -0.8070  1.0465 -0.0249
 6876TIP3    H242044   0.976   2.443   3.917  0.1985 -0.7403 -0.8521
 6877TIP3   OH242045   6.175   0.507   4.615 -0.4018  0.1031 -0.1316
 6877TIP3    H142046   6.271   0.503   4.618 -0.4426 -0.8970  0.3637
 6877TIP3    H242047   6.155   0.600   4.611  0.6547  0.2896 -2.8549
 6878TIP3   OH242048   5.340   5.288  13.472 -0.0541 -0.5115  0.3551
 6878TIP3    H142049   5.250   5.262  13.489  0.3656 -1.8780  0.6188
 6878TIP3    H242050   5.346   5.294  13.377 -0.3327 -0.7639  0.3208
 6879TIP3   OH242051   2.430   2.417  13.747  0.0386 -0.3907  0.2009
 6879TIP3    H142052   2.376   2.402  13.824  1.2406 -2.1052  0.7783
 6879TIP3    H242053   2.517   2.387  13.773  0.2395 -2.1271 -2.1625
 6880TIP3   OH242054   4.564   0.537  14.976 -0.0409  0.1163 -0.3535
 6880TIP3    H142055   4.639   0.596  14.970  0.8635 -1.0006 -0.5941
 6880TIP3    H242056   4.489   0.594  14.991  1.1560  1.1572  2.4650
 6881TIP3   OH242057   2.522   1.653  12.974  0.4051 -0.0539  0.4924
 6881TIP3    H142058   2.481   1.635  13.058  2.0211 -0.8765  1.1388
 6881TIP3    H242059   2.538   1.566  12.935  0.5405  0.2829 -0.2306
 6882TIP3   OH242060   3.850   1.680   4.725 -0.0450  0.6250 -0.5367
 6882TIP3    H142061   3.889   1.598   4.695 -1.6396 -0.3075 -0.1798
 6882TIP3    H242062   3.873   1.743   4.658  0.5052 -0.3006 -1.2503
 6883TIP3   OH242063   4.569   1.614  14.536  0.5550 -0.7096  0.0016
 6883TIP3    H142064   4.546   1.603  14.628  1.6243 -0.1233  0.3502
 6883TIP3    H242065   4.646   1.559  14.524 -0.0391 -1.4115 -0.7594
 6884TIP3   OH242066   2.094   4.608  10.551 -0.0247 -0.2421  0.6660
 6884TIP3    H142067   2.166   4.660  10.587  0.8308 -0.9965  0.0926
 6884TIP3    H242068   2.110   4.607  10.457 -0.7823 -0.4401  0.5359
 6885TIP3   OH242069   4.192   4.667   4.565  0.1118  0.0891 -0.6665
 6885TIP3    H142070   4.183   4.729   4.492 -0.6312  0.3742 -0.3401
 6885TIP3    H242071   4.226   4.587   4.524 -1.7832 -0.2866 -1.6290
 6886TIP3   OH242072   3.237   2.701   4.137  0.4175  0.8479  0.6392
 6886TIP3    H142073   3.314   2.755   4.156  0.5906  0.2046  1.8727
 6886TIP3    H242074   3.164   2.750   4.175 -0.0060  2.0171 -1.5016
 6887TIP3   OH242075   6.692   6.603   4.522  0.5170  0.2963  0.0766
 6887TIP3    H142076   6.631   6.561   4.583  1.7916 -1.1856  0.3715
 6887TIP3    H242077   6.765   6.542   4.515  1.8003  1.8542 -0.5756
 6888TIP3   OH242078   6.624   4.255   1.119 -0.2640 -0.8661  0.0670
 6888TIP3    H142079   6.624   4.180   1.178 -0.4446 -0.8079  0.1403
 6888TIP3    H242080   6.540   4.299   1.135  0.3170  0.0159  0.8716
 6889TIP3   OH242081   1.322   1.151  10.877  0.0929 -0.0276 -0.5564
 6889TIP3    H142082   1.360   1.239  10.879 -0.3812  0.1643  1.6554
 6889TIP3    H242083   1.267   1.151  10.798  0.7273  1.3537 -1.0311
 6890TIP3   OH242084   6.276   4.210   5.421 -0.6148 -0.5586  0.2261
 6890TIP3    H142085   6.224   4.290   5.427  2.2980  1.5073  0.4530
 6890TIP3    H242086   6.252   4.172   5.336 -0.9341  1.4904 -0.6766
 6891TIP3   OH242087   1.601   1.627   1.029 -0.0020 -0.2752 -0.3965
 6891TIP3    H142088   1.541   1.617   1.102 -0.8652  0.9279 -0.9210
 6891TIP3    H242089   1.558   1.582   0.956 -0.0908  0.2515 -0.6721
 6892TIP3   OH242090   1.246   6.013   5.661  0.1176  0.1390  0.8750
 6892TIP3    H142091   1.321   5.958   5.684 -2.5795 -3.8814  1.1015
 6892TIP3    H242092   1.177   5.986   5.723 -2.4491  1.1503 -1.3411
 6893TIP3   OH242093   5.429   0.005   2.021 -0.5153 -1.1212  0.2948
 6893TIP3    H142094   5.463  -0.078   2.056 -0.6920 -0.2750  2.6874
 6893TIP3    H242095   5.364  -0.021   1.957  0.5443 -2.8129 -0.1575
 6894TIP3   OH242096   5.611   2.388  15.451  0.3109 -0.1554  0.4215
 6894TIP3    H142097   5.693   2.415  15.492 -0.3040  0.6182  1.1757
 6894TIP3    H242098   5.602   2.446  15.375  1.5659 -1.7418 -1.0172
 6895TIP3   OH242099   4.032   5.852  11.357 -0.7890  0.2402  0.0792
 6895TIP3    H142100   4.086   5.798  11.416  0.1580  0.3136 -0.6799
 6895TIP3    H242101   3.985   5.911  11.415 -2.2570 -1.7149  0.9938
 6896TIP3   OH242102   3.334   4.522   0.092 -0.2361 -0.1396 -0.0458
 6896TIP3    H142103   3.240   4.515   0.076 -0.1591 -0.7080 -0.2683
 6896TIP3    H242104   3.371   4.444   0.051  0.5670  1.0811 -1.7620
 6897TIP3   OH242105   0.181   6.237  16.670  0.1979  0.0459  0.3274
 6897TIP3    H142106   0.255   6.198  16.623 -0.6106 -0.5325 -0.4917
 6897TIP3    H242107   0.217   6.259  16.757  1.7247  1.1377 -0.5199
 6898TIP3   OH242108   4.744   0.425  15.739 -0.1795  0.0110  0.3474
 6898TIP3    H142109   4.772   0.474  15.816 -1.3593  0.1657  0.6834
 6898TIP3    H242110   4.822   0.376  15.713  0.6962  1.1590  0.6897
 6899TIP3   OH242111   2.176   4.743   5.901 -0.6115 -0.2665 -0.8277
 6899TIP3    H142112   2.234   4.819   5.903  0.0176 -0.7365 -0.8547
 6899TIP3    H242113   2.235   4.668   5.898 -1.2272 -0.7472 -1.1280
 6900TIP3   OH242114   5.665   3.258   2.064 -0.1508 -0.5405  0.9470
 6900TIP3    H142115   5.723   3.271   1.990  0.0121 -1.6043  0.8618
 6900TIP3    H242116   5.609   3.335   2.066  0.4857 -0.0586  0.3111
 6901TIP3   OH242117   6.173   1.975  10.294  0.2347 -0.2689 -0.3001
 6901TIP3    H142118   6.126   2.040  10.243 -2.1821 -1.8626 -0.2921
 6901TIP3    H242119   6.200   2.021  10.373  0.5890  1.2403 -1.2526
 6902TIP3   OH242120   3.388   4.390  13.037 -0.0311 -0.2763  0.4292
 6902TIP3    H142121   3.362   4.392  12.945 -0.0931 -0.3983  0.4441
 6902TIP3    H242122   3.309   4.362  13.083  0.1944 -0.8778  0.4495
 6903TIP3   OH242123   4.760   2.221   2.899 -0.3359 -0.5173  0.0693
 6903TIP3    H142124   4.667   2.218   2.876 -0.7771  0.9125  1.4145
 6903TIP3    H242125   4.778   2.314   2.913  0.7005 -0.9496  2.0224
 6904TIP3   OH242126   1.461   3.488  11.930  0.0220 -0.5102 -0.8429
 6904TIP3    H142127   1.454   3.436  12.010  0.5573  0.9419  0.2056
 6904TIP3    H242128   1.555   3.491  11.911 -0.1903 -1.9427 -2.3341
 6905TIP3   OH242129   3.297   1.545  15.118 -0.4654  0.1143 -0.9442
 6905TIP3    H142130   3.363   1.492  15.075  0.8928  0.6033  0.4624
 6905TIP3    H242131   3.233   1.482  15.151  1.2761 -0.7312  0.9717
 6906TIP3   OH242132   6.725   3.034  13.588  0.2650  0.1095 -0.5954
 6906TIP3    H142133   6.734   3.093  13.662  1.9740 -0.7660 -0.0503
 6906TIP3    H242134   6.768   2.953  13.616 -0.9329 -0.9950 -1.7580
 6907TIP3   OH242135   3.997   6.007   0.436 -0.3337 -0.7919  0.2828
 6907TIP3    H142136   3.964   5.966   0.356 -1.6130  0.5320  0.0885
 6907TIP3    H242137   4.057   6.075   0.405 -0.5799 -0.4906  0.4692
 6908TIP3   OH242138   1.690   6.299  16.917 -0.2447  0.0558  0.5484
 6908TIP3    H142139   1.706   6.225  16.858  0.7903  0.0166  0.8641
 6908TIP3    H242140   1.622   6.350  16.873 -0.8355 -0.9724  0.2283
 6909TIP3   OH242141   3.356   2.306  13.060  0.5542  0.1746 -0.2470
 6909TIP3    H142142   3.282   2.366  13.061  1.2149  1.0645  2.1867
 6909TIP3    H242143   3.317   2.219  13.070 -0.2570  0.3973 -1.2919
 6910TIP3   OH242144   5.643   4.074  12.897 -0.3448  0.9512  0.2337
 6910TIP3    H142145   5.707   4.074  12.826 -0.5741  2.1854 -0.0054
 6910TIP3    H242146   5.570   4.021  12.864  0.2809  0.0762  0.2503
 6911TIP3   OH242147   2.888   2.509  16.268 -0.1345 -0.0754 -0.2346
 6911TIP3    H142148   2.794   2.522  16.279 -0.1163 -1.2370  1.8991
 6911TIP3    H242149   2.905   2.527  16.176 -1.9371  2.9433 -0.1046
 6912TIP3   OH242150   0.681   1.399   2.733 -0.1249  0.7739 -0.2987
 6912TIP3    H142151   0.621   1.449   2.677 -0.5333 -0.9641 -1.4638
 6912TIP3    H242152   0.654   1.421   2.822 -1.5133  1.1805 -0.7986
 6913TIP3   OH242153   3.804   3.471  15.794  1.0512  0.4833 -0.1211
 6913TIP3    H142154   3.869   3.445  15.729  0.4634 -0.0823 -0.4879
 6913TIP3    H242155   3.749   3.394  15.806  1.5460  0.3613  1.5440
 6914TIP3   OH242156   6.222   4.731  13.503 -0.0254 -0.2821 -0.5384
 6914TIP3    H142157   6.162   4.663  13.474 -1.0965 -0.2374  1.3904
 6914TIP3    H242158   6.259   4.697  13.585 -0.8156  1.5358  0.6381
 6915TIP3   OH242159   6.182   2.694  10.773 -0.5210 -0.6334 -0.3501
 6915TIP3    H142160   6.187   2.644  10.691 -0.0134 -1.2397  0.0388
 6915TIP3    H242161   6.094   2.679  10.806 -1.4710  1.3039 -1.8147
 6916TIP3   OH242162   4.393   6.568   3.117 -0.0915 -0.3246 -0.2535
 6916TIP3    H142163   4.455   6.613   3.059 -1.2108  1.6922  0.0233
 6916TIP3    H242164   4.309   6.573   3.072 -0.5313 -0.8705  0.4720
 6917TIP3   OH242165   2.391   3.849   1.447 -0.1059  0.5068 -0.0646
 6917TIP3    H142166   2.320   3.838   1.384 -0.8044  2.9123  0.2045
 6917TIP3    H242167   2.349   3.843   1.533 -0.5124  3.9972  0.1194
 6918TIP3   OH242168   5.160   1.922   0.111  0.5452 -0.4755  0.4738
 6918TIP3    H142169   5.115   1.960   0.036  0.2852 -1.4490  0.1182
 6918TIP3    H242170   5.133   1.976   0.185 -0.8452 -0.7357  0.1842
 6919TIP3   OH242171   4.660   5.768  12.608  0.8793  0.8475  0.6076
 6919TIP3    H142172   4.699   5.708  12.544 -0.1142  2.3347 -1.5203
 6919TIP3    H242173   4.567   5.768  12.587  0.6043  1.8021  1.7362
 6920TIP3   OH242174   6.285   3.604  14.881  0.4174 -0.4333 -0.0106
 6920TIP3    H142175   6.329   3.563  14.807  0.3884 -0.2990 -0.1042
 6920TIP3    H242176   6.252   3.687  14.845  0.3603 -0.3911  0.1402
 6921TIP3   OH242177   0.817   5.924   4.227  0.6229 -0.0897 -0.0104
 6921TIP3    H142178   0.731   5.962   4.206  0.1420 -0.2839  1.5289
 6921TIP3    H242179   0.825   5.850   4.167  0.2204  0.5798 -0.9320
 6922TIP3   OH242180   1.455   1.632   3.442  0.3742  0.1080 -0.1773
 6922TIP3    H142181   1.484   1.541   3.454  0.7316  0.2456  0.0372
 6922TIP3    H242182   1.360   1.626   3.436  0.3751 -0.2548  0.1033
 6923TIP3   OH242183   4.492   6.197   5.642 -0.5143 -0.0226 -0.0721
 6923TIP3    H142184   4.425   6.133   5.616 -1.7506  0.7507  1.0932
 6923TIP3    H242185   4.562   6.144   5.680 -1.2746 -0.7242  0.3863
 6924TIP3   OH242186   5.895   4.738   1.900  0.3366  0.2357  0.1114
 6924TIP3    H142187   5.946   4.664   1.930  0.2206  0.5675  1.1698
 6924TIP3    H242188   5.810   4.701   1.876  0.6941 -0.1487 -0.5880
 6925TIP3   OH242189   6.580   3.283  10.476 -0.0027 -0.1924  0.0586
 6925TIP3    H142190   6.637   3.233  10.417 -1.2460 -0.0207 -1.3503
 6925TIP3    H242191   6.492   3.252  10.456 -0.5948  0.9608  0.7644
 6926TIP3   OH242192   1.243   1.899   1.227 -0.0635  0.4063  0.1026
 6926TIP3    H142193   1.169   1.960   1.231  0.7201  1.8517 -3.3760
 6926TIP3    H242194   1.314   1.944   1.272  0.0651  1.4013 -1.0572
 6927TIP3   OH242195   1.443   2.445  12.243 -0.0719 -0.0490  0.3797
 6927TIP3    H142196   1.496   2.438  12.323 -0.9576 -0.2386  0.9627
 6927TIP3    H242197   1.504   2.426  12.172  1.2098  2.1038  0.8399
 6928TIP3   OH242198   3.856   5.023   5.775  0.0690  0.4154  0.1837
 6928TIP3    H142199   3.911   4.965   5.827  0.0919  1.7475  1.7220
 6928TIP3    H242200   3.777   5.035   5.828 -1.2621 -0.5478 -1.4682
 6929TIP3   OH242201   6.529   1.643  16.302  0.4579 -0.2780 -0.3245
 6929TIP3    H142202   6.572   1.574  16.251  0.1766 -0.8290  0.1623
 6929TIP3    H242203   6.483   1.696  16.238 -0.0857 -1.1008 -0.6346
 6930TIP3   OH242204   2.116   2.487  14.525 -0.1571  0.7049  0.4994
 6930TIP3    H142205   2.133   2.393  14.514 -0.1148  0.8648 -0.9430
 6930TIP3    H242206   2.186   2.516  14.584  1.4810  0.3186 -1.1525
 6931TIP3   OH242207   5.232   0.047   3.466 -0.3631 -0.2031 -0.0494
 6931TIP3    H142208   5.156   0.035   3.409 -0.9688  0.9743  0.4823
 6931TIP3    H242209   5.197   0.033   3.555  0.8493 -3.4752  0.0500
 6932TIP3   OH242210   0.070   1.222   3.597 -0.3953 -0.0043 -0.0837
 6932TIP3    H142211   0.089   1.158   3.665 -2.0746 -0.9319 -0.4195
 6932TIP3    H242212   0.103   1.182   3.516 -0.6507 -0.0468 -0.1682
 6933TIP3   OH242213   1.458   2.416   1.709  0.0668 -0.1424  0.5305
 6933TIP3    H142214   1.533   2.436   1.764 -0.4181  0.3426  1.0192
 6933TIP3    H242215   1.398   2.368   1.766 -1.0374  1.5446  0.8343
 6934TIP3   OH242216   4.611   0.566  11.248  0.0365  0.2692  0.5359
 6934TIP3    H142217   4.670   0.520  11.307 -0.5222  0.2138  1.0657
 6934TIP3    H242218   4.652   0.652  11.234  1.6429 -0.7362 -1.3426
 6935TIP3   OH242219   4.597   4.387  16.429  0.1635 -0.2967  0.1182
 6935TIP3    H142220   4.679   4.346  16.456  1.1202  0.0571 -1.9813
 6935TIP3    H242221   4.622   4.476  16.406 -1.1835  0.3628  1.1371
 6936TIP3   OH242222   4.135   0.719   4.038  0.8039 -0.1659  0.1548
 6936TIP3    H142223   4.085   0.641   4.062 -2.3141  1.8236  0.7863
 6936TIP3    H242224   4.162   0.757   4.121 -0.3605  0.9478  0.0595
 6937TIP3   OH242225   2.275   1.775   5.810 -0.2650 -0.6185 -0.2831
 6937TIP3    H142226   2.360   1.783   5.853  0.0674  2.6967 -1.2664
 6937TIP3    H242227   2.213   1.813   5.871 -0.7408 -1.1837 -0.4002
 6938TIP3   OH242228   0.515   4.778   5.112 -0.2045 -0.0785 -0.1208
 6938TIP3    H142229   0.509   4.851   5.050 -0.3710 -0.5641 -0.6883
 6938TIP3    H242230   0.440   4.789   5.170 -0.7483 -0.3114 -0.7722
 6939TIP3   OH242231   0.023   6.305   5.430 -0.5020 -0.0642  0.2044
 6939TIP3    H142232  -0.020   6.365   5.491  0.8947  1.4540 -0.2409
 6939TIP3    H242233   0.095   6.267   5.480  0.0266  0.4123 -0.1835
 6940TIP3   OH242234   3.471   3.506  11.978 -0.2153 -0.4754 -0.5514
 6940TIP3    H142235   3.499   3.505  11.887  0.0200 -0.6664 -0.4804
 6940TIP3    H242236   3.548   3.537  12.026 -0.8033  1.0614 -0.5608
 6941TIP3   OH242237   6.361   3.024   3.468  0.3358  0.1739  0.5077
 6941TIP3    H142238   6.408   3.030   3.551  1.5771 -0.3158 -0.1414
 6941TIP3    H242239   6.343   2.931   3.457  0.9274  0.1292 -0.1687
 6942TIP3   OH242240   2.760   0.252   6.027  0.2979  0.1766  0.0977
 6942TIP3    H142241   2.834   0.242   5.968  0.2829  0.3555  0.0485
 6942TIP3    H242242   2.717   0.166   6.027 -0.7723  0.6713 -1.5756
 6943TIP3   OH242243   2.603   0.266  14.685 -0.6447  0.8469 -0.2847
 6943TIP3    H142244   2.697   0.268  14.698 -0.4600  1.7195 -1.6177
 6943TIP3    H242245   2.587   0.188  14.632 -0.7567  0.3862  0.4082
 6944TIP3   OH242246   3.758   0.300   0.104  1.0572  0.1507  0.1151
 6944TIP3    H142247   3.790   0.378   0.150  1.0184 -0.5254  1.3166
 6944TIP3    H242248   3.670   0.324   0.075  0.5029  0.0996  1.6817
 6945TIP3   OH242249   2.127   3.825  15.549  0.6977 -0.1721 -0.9691
 6945TIP3    H142250   2.066   3.791  15.483  1.0283  1.6637 -2.3083
 6945TIP3    H242251   2.180   3.888  15.501  2.0662  0.0185  0.7234
 6946TIP3   OH242252   6.481   1.474   2.447 -0.1074 -0.2435 -0.3122
 6946TIP3    H142253   6.491   1.564   2.477 -1.1972 -0.1169 -0.2670
 6946TIP3    H242254   6.570   1.441   2.437  0.3191  0.1667  1.6725
 6947TIP3   OH242255   2.530   5.333   3.488  0.1062 -0.0249  0.4814
 6947TIP3    H142256   2.619   5.299   3.485 -0.2581 -1.0539 -2.5840
 6947TIP3    H242257   2.474   5.255   3.485 -0.8667  0.6399  0.6162
 6948TIP3   OH242258   5.186   6.725   0.156 -0.5027  0.0977  0.1311
 6948TIP3    H142259   5.102   6.691   0.187 -0.2033 -2.1800 -1.3070
 6948TIP3    H242260   5.166   6.762   0.070 -0.0610 -0.4814 -0.2300
 6949TIP3   OH242261   6.782   2.237   4.435 -0.4056 -0.3045 -0.1828
 6949TIP3    H142262   6.866   2.282   4.436 -0.4458 -0.2309 -0.0654
 6949TIP3    H242263   6.719   2.304   4.462 -0.7243  0.0928 -1.7900
 6950TIP3   OH242264   0.327   5.552  11.176  0.3186  0.4980  0.0017
 6950TIP3    H142265   0.287   5.603  11.246 -2.5831  1.1813 -2.0049
 6950TIP3    H242266   0.349   5.616  11.109  2.8450 -0.1746  0.0879
 6951TIP3   OH242267   0.411   3.171  14.294  0.5445  0.0729  0.0613
 6951TIP3    H142268   0.359   3.201  14.220  1.2611  2.1373  0.3233
 6951TIP3    H242269   0.491   3.136  14.255  1.2430  1.8150 -0.1898
 6952TIP3   OH242270   1.694   2.216   2.891 -0.1910 -0.1789  0.1859
 6952TIP3    H142271   1.696   2.221   2.796  1.7010  0.1020  0.2149
 6952TIP3    H242272   1.623   2.155   2.910  2.6667 -4.5825 -1.6455
 6953TIP3   OH242273   6.417   3.102  14.344 -0.4603 -0.5558 -0.0033
 6953TIP3    H142274   6.475   3.026  14.334 -1.1765 -1.6706  2.9893
 6953TIP3    H242275   6.336   3.065  14.381 -1.8835  1.3607 -1.0339
 6954TIP3   OH242276   5.595   2.626  11.130  0.3928  0.3380 -0.4350
 6954TIP3    H142277   5.598   2.562  11.059  0.6268  0.5925 -0.6553
 6954TIP3    H242278   5.529   2.591  11.191 -0.2295  0.4025 -1.0539
 6955TIP3   OH242279   5.664   3.334  16.306 -0.2528  0.1520  0.3041
 6955TIP3    H142280   5.701   3.276  16.372 -0.8449 -1.6375 -0.8368
 6955TIP3    H242281   5.570   3.336  16.326 -0.7607 -1.9038 -1.4238
 6956TIP3   OH242282   1.836   5.259  10.955 -0.8847 -0.0466 -0.3408
 6956TIP3    H142283   1.890   5.195  11.002 -1.6651  0.5594  1.4646
 6956TIP3    H242284   1.779   5.206  10.899 -1.5283 -0.9691  1.1265
 6957TIP3   OH242285   6.079   5.811  14.704 -1.0370  0.2223  0.0942
 6957TIP3    H142286   6.068   5.830  14.797  0.6829 -1.8229  0.8148
 6957TIP3    H242287   6.003   5.759  14.681 -1.3014  0.4390  0.4690
 6958TIP3   OH242288   5.968   3.001   5.446  0.0258 -0.4707 -0.2136
 6958TIP3    H142289   5.988   2.929   5.505 -1.4265 -2.1157 -1.6089
 6958TIP3    H242290   6.051   3.048   5.436  0.4956 -0.5961  2.4220
 6959TIP3   OH242291   0.076   0.976  16.964 -0.4358  0.3658 -0.4436
 6959TIP3    H142292   0.081   0.887  16.998 -0.6549  0.7299  0.6066
 6959TIP3    H242293   0.054   0.966  16.872  0.9895 -0.7008 -0.7048
 6960TIP3   OH242294   2.584   2.251   3.676 -0.2093  0.0660 -0.2506
 6960TIP3    H142295   2.571   2.259   3.582 -0.9818  0.1443 -0.1425
 6960TIP3    H242296   2.531   2.321   3.714 -1.4900 -1.1959  0.3515
 6961TIP3   OH242297   6.466   5.997   4.406  0.1750 -0.0984  0.5570
 6961TIP3    H142298   6.377   6.013   4.375  0.4855  0.7132  0.0535
 6961TIP3    H242299   6.514   6.076   4.382  1.3466 -1.0702 -0.3704
 6962TIP3   OH242300   3.161   6.209  16.739 -0.1133 -0.8825  0.1887
 6962TIP3    H142301   3.071   6.240  16.736 -0.2705 -1.2431  1.0518
 6962TIP3    H242302   3.161   6.137  16.802  0.3885 -2.1958 -1.2349
 6963TIP3   OH242303   5.337   3.296  16.909  0.4567  0.4644  0.0515
 6963TIP3    H142304   5.346   3.205  16.880 -0.0441  0.4039  0.0753
 6963TIP3    H242305   5.373   3.297  16.998  0.9212  0.4002 -0.1344
 6964TIP3   OH242306   6.206   2.834   2.557 -0.8017  0.3020  0.1379
 6964TIP3    H142307   6.206   2.867   2.647 -0.3837  2.4194 -0.5645
 6964TIP3    H242308   6.299   2.835   2.532 -1.0318  1.0168 -0.7249
 6965TIP3   OH242309   6.127   5.683  13.651  0.3152  0.4656  0.0470
 6965TIP3    H142310   6.099   5.606  13.700  0.4713  1.1058  1.1832
 6965TIP3    H242311   6.221   5.689  13.667  0.2948  0.9124  0.0143
 6966TIP3   OH242312   4.007   4.123  13.795  0.5389  0.3929 -0.2490
 6966TIP3    H142313   3.979   4.074  13.718  0.9587 -0.8569  0.3651
 6966TIP3    H242314   3.936   4.113  13.857  0.5658  0.6887 -0.1707
 6967TIP3   OH242315   4.172   4.348   2.873  0.5919  0.2814 -0.4729
 6967TIP3    H142316   4.084   4.341   2.911 -0.3207  1.0209 -2.3210
 6967TIP3    H242317   4.159   4.393   2.789  2.4585 -1.3249 -1.7266
 6968TIP3   OH242318   4.039   6.708  14.725  0.3985  0.2778 -0.5857
 6968TIP3    H142319   4.035   6.801  14.746 -2.1913  0.0785  0.0750
 6968TIP3    H242320   3.966   6.694  14.665  0.2626 -1.4776 -0.0555
 6969TIP3   OH242321   1.161   6.467  16.531 -0.4250 -0.3536  0.3227
 6969TIP3    H142322   1.193   6.530  16.596  1.2323 -0.8925  0.0738
 6969TIP3    H242323   1.214   6.389  16.545  0.5344 -0.2203 -2.1503
 6970TIP3   OH242324   2.339   6.016   4.767  0.2443 -0.1213  0.0864
 6970TIP3    H142325   2.377   6.080   4.706  1.7697 -1.2685 -0.2463
 6970TIP3    H242326   2.277   5.966   4.714 -1.6653  1.6403  0.5793
 6971TIP3   OH242327   6.093   6.000  11.595 -0.0638 -0.1195 -0.5618
 6971TIP3    H142328   6.090   6.083  11.547 -2.6715 -1.3107 -2.6480
 6971TIP3    H242329   6.031   6.012  11.667  2.5919  1.0518  1.7459
 6972TIP3   OH242330   1.069   0.773   3.180  0.3000 -0.2292 -0.4977
 6972TIP3    H142331   1.014   0.843   3.215 -0.8244 -2.0621  1.6793
 6972TIP3    H242332   1.039   0.760   3.090 -0.9335  0.6754 -0.2344
 6973TIP3   OH242333   4.669   5.647  11.073 -0.3588  0.4008 -0.0889
 6973TIP3    H142334   4.739   5.594  11.034  0.4465  1.4119 -0.0589
 6973TIP3    H242335   4.681   5.637  11.167 -1.1836 -0.5933 -0.0708
 6974TIP3   OH242336   3.569   4.728  11.071 -0.0092 -0.1883 -0.1385
 6974TIP3    H142337   3.638   4.664  11.056 -1.0464 -1.0740 -1.2568
 6974TIP3    H242338   3.502   4.680  11.120  0.7068  1.0364  2.2046
 6975TIP3   OH242339   3.232   6.143   6.211 -0.3811 -0.5860 -0.6922
 6975TIP3    H142340   3.245   6.067   6.268 -0.2792  0.8597  1.2949
 6975TIP3    H242341   3.144   6.174   6.232  0.0605  0.5892 -0.5498
 6976TIP3   OH242342   3.807   6.453  15.997  0.3635  0.3260 -0.4109
 6976TIP3    H142343   3.864   6.524  15.968  0.7052  0.6253  0.9245
 6976TIP3    H242344   3.861   6.400  16.055 -0.7807  0.8177  1.1770
 6977TIP3   OH242345   4.497   2.368   1.126  0.2086 -0.2479 -0.0675
 6977TIP3    H142346   4.583   2.335   1.151  0.6854 -0.1514 -1.5048
 6977TIP3    H242347   4.444   2.290   1.114  0.0800 -0.3083  0.7952
 6978TIP3   OH242348   0.195   2.105  13.207 -0.0257 -0.2709  0.4569
 6978TIP3    H142349   0.166   2.180  13.259  1.7572  0.4994  0.4140
 6978TIP3    H242350   0.185   2.133  13.116 -0.5010 -0.5651  0.4123
 6979TIP3   OH242351   3.743   2.565  16.208 -0.5008 -0.5172  0.2101
 6979TIP3    H142352   3.818   2.568  16.268 -0.8024  0.6501  0.5586
 6979TIP3    H242353   3.728   2.657  16.185 -0.8948 -0.8869 -1.0278
 6980TIP3   OH242354   1.550   0.342   1.378 -0.2285 -0.3879 -0.0558
 6980TIP3    H142355   1.609   0.270   1.355 -0.8496 -1.1581  0.6819
 6980TIP3    H242356   1.462   0.303   1.373 -0.5110 -0.0097  1.4334
 6981TIP3   OH242357   3.114   4.091  16.548 -0.3286  0.1410  0.1228
 6981TIP3    H142358   3.169   4.038  16.605 -1.5270 -0.1206  1.0731
 6981TIP3    H242359   3.097   4.171  16.597  0.8979  1.1542 -1.0240
 6982TIP3   OH242360   0.138   1.725   0.238 -0.0903  0.0425 -0.4428
 6982TIP3    H142361   0.133   1.720   0.142 -3.8329 -3.0832 -0.3312
 6982TIP3    H242362   0.174   1.640   0.264  1.0822  0.9326  1.0030
 6983TIP3   OH242363   6.179   0.557   0.411  0.3780  0.2342 -0.1066
 6983TIP3    H142364   6.260   0.530   0.454 -1.0023 -2.9549  0.7366
 6983TIP3    H242365   6.165   0.492   0.342 -0.8168  1.5119 -1.1324
 6984TIP3   OH242366   1.451   6.701  15.591 -0.2592  0.4045  0.6551
 6984TIP3    H142367   1.502   6.768  15.545  0.7426 -0.9708 -0.3042
 6984TIP3    H242368   1.367   6.698  15.545 -0.2281  0.8231  0.5659
 6985TIP3   OH242369   4.736   1.671   6.098  0.1903  0.3360 -0.3527
 6985TIP3    H142370   4.829   1.651   6.088  0.6391  1.9967  0.0607
 6985TIP3    H242371   4.733   1.729   6.174 -1.0025  1.3800 -1.1649
 6986TIP3   OH242372   0.641   0.100  17.006 -0.1909 -0.1492  0.6911
 6986TIP3    H142373   0.654   0.026  16.947 -0.4561 -0.0652  0.5249
 6986TIP3    H242374   0.667   0.067  17.092 -1.9962 -1.0003  0.9527
 6987TIP3   OH242375   0.830   1.131  13.969  1.0609  0.6222  0.1299
 6987TIP3    H142376   0.892   1.059  13.958  0.5851  0.2283 -0.0273
 6987TIP3    H242377   0.831   1.151  14.062 -0.4604 -1.1036  0.5606
 6988TIP3   OH242378   0.553   0.217   1.047  0.0517 -0.0518  0.2945
 6988TIP3    H142379   0.611   0.212   1.123  0.1842 -1.1422  0.1368
 6988TIP3    H242380   0.602   0.270   0.984 -0.7948  2.4076  1.5657
 6989TIP3   OH242381   3.689   2.319   3.952 -0.1558 -0.4613  0.5416
 6989TIP3    H142382   3.708   2.408   3.923  1.3301 -0.7303  0.6012
 6989TIP3    H242383   3.598   2.322   3.981  0.0204  1.1609  1.0279
 6990TIP3   OH242384   3.944   0.098  11.627  0.8235 -0.6098 -0.8502
 6990TIP3    H142385   3.919   0.184  11.594  1.5603  0.5156  1.4034
 6990TIP3    H242386   3.888   0.037  11.578 -1.1407  1.2789 -1.0971
 6991TIP3   OH242387   5.095   1.771  12.630  0.2574  0.1171 -0.7046
 6991TIP3    H142388   5.139   1.712  12.691  2.7183  1.0285 -1.5034
 6991TIP3    H242389   5.135   1.856  12.645 -3.0532  1.6632  0.2615
 6992TIP3   OH242390   6.377   1.598  16.525  0.3357  0.1589  0.6301
 6992TIP3    H142391   6.359   1.691  16.511  0.4804 -0.0202 -1.0397
 6992TIP3    H242392   6.425   1.572  16.446 -1.8514 -1.8824 -0.1409
 6993TIP3   OH242393   2.867   6.297   2.145  0.0443 -0.4553  0.3460
 6993TIP3    H142394   2.795   6.339   2.192  0.2208  0.9068 -0.5337
 6993TIP3    H242395   2.828   6.267   2.063  0.3691 -0.1286  0.0686
 6994TIP3   OH242396   2.512   1.910  15.760 -0.1316 -0.0209 -0.1996
 6994TIP3    H142397   2.454   1.974  15.720  0.9970  0.6407 -0.8422
 6994TIP3    H242398   2.490   1.912  15.853  1.2537  2.9042  0.1835
 6995TIP3   OH242399   6.436   6.343  14.223  0.4416  0.2711  0.2773
 6995TIP3    H142400   6.367   6.376  14.281  0.6534  0.2729  0.5293
 6995TIP3    H242401   6.499   6.414  14.217  0.8138 -0.0156  0.6835
 6996TIP3   OH242402   4.711   6.807  11.781  0.1738  0.3084 -0.2764
 6996TIP3    H142403   4.745   6.799  11.870  0.3064 -0.2170 -0.3703
 6996TIP3    H242404   4.789   6.811  11.726  0.0896  0.5230 -0.3827
 6997TIP3   OH242405   6.543   1.504   2.860 -0.7567  0.3638 -0.0453
 6997TIP3    H142406   6.584   1.580   2.821  0.7601 -0.2266  0.3392
 6997TIP3    H242407   6.615   1.444   2.878 -1.8325 -0.8722  0.3141
 6998TIP3   OH242408   0.327   2.420  15.581 -0.2975  0.1283  0.0646
 6998TIP3    H142409   0.383   2.349  15.614 -0.2163  0.1753  0.0273
 6998TIP3    H242410   0.317   2.479  15.656 -1.9391 -0.8930  0.6911
 6999TIP3   OH242411   2.948   3.406   5.849  0.5108  0.1650  0.2271
 6999TIP3    H142412   2.906   3.320   5.840 -0.3004  0.5464  0.2183
 6999TIP3    H242413   2.994   3.401   5.933  1.8352 -0.8213 -0.5303
 7000TIP3   OH242414   5.525   2.783  16.766  0.0472  0.7492  0.3464
 7000TIP3    H142415   5.436   2.764  16.798  0.3237  0.4471  0.9524
 7000TIP3    H242416   5.548   2.707  16.713 -0.3106  1.1335 -0.3829
 7001TIP3   OH242417   2.245   6.110  16.514  0.1630 -0.2464  0.0028
 7001TIP3    H142418   2.319   6.163  16.546  0.8370 -0.4970 -1.0837
 7001TIP3    H242419   2.256   6.109  16.419 -1.9241  0.7113 -0.3044
 7002TIP3   OH242420   6.011   1.713  11.671  0.0799 -0.0738 -0.2814
 7002TIP3    H142421   5.984   1.625  11.697  0.4826 -0.1888 -0.2432
 7002TIP3    H242422   6.079   1.737  11.734 -1.0925  0.8940  0.6665
 7003TIP3   OH242423   3.537   3.495   5.925  0.2627 -0.1259 -0.2362
 7003TIP3    H142424   3.465   3.541   5.969 -0.4404 -0.0028 -1.4596
 7003TIP3    H242425   3.600   3.478   5.994 -1.2290 -0.8304  1.0247
 7004TIP3   OH242426   2.046   1.064  12.967  0.0843  0.3575  0.2111
 7004TIP3    H142427   1.975   1.033  12.911  0.2989 -0.3577  0.3290
 7004TIP3    H242428   2.024   1.156  12.985  0.4304  0.8403 -1.6768
 7005TIP3   OH242429   1.696   1.831  11.850  0.0702  0.0850  0.2864
 7005TIP3    H142430   1.697   1.863  11.940  0.9110  1.1046 -0.0693
 7005TIP3    H242431   1.744   1.897  11.800 -0.9493 -0.1253 -1.0263
 7006TIP3   OH242432   2.119   6.248  12.986 -0.2052  0.0296 -0.5608
 7006TIP3    H142433   2.172   6.179  13.026  0.1818 -0.3503 -1.6814
 7006TIP3    H242434   2.100   6.308  13.058  1.1751 -0.1811  0.0245
 7007TIP3   OH242435   1.690   3.729  16.315  0.7083 -0.5310 -0.2081
 7007TIP3    H142436   1.686   3.697  16.405 -0.4991  2.2380  0.8604
 7007TIP3    H242437   1.598   3.736  16.289  0.9401  0.9684 -0.7065
 7008TIP3   OH242438   1.905   0.714   1.715  0.1086 -0.0794 -0.6169
 7008TIP3    H142439   1.980   0.691   1.660  0.6698 -1.4026  0.6350
 7008TIP3    H242440   1.830   0.710   1.656  0.3189 -4.0542 -0.8529
 7009TIP3   OH242441   6.013   1.166  13.681 -0.0196 -0.2853  0.2973
 7009TIP3    H142442   5.998   1.083  13.636  1.1438 -0.5580  0.3823
 7009TIP3    H242443   6.100   1.157  13.720 -0.4497  0.4374  1.5077
 7010TIP3   OH242444   2.530   2.809  11.617 -0.0411 -0.0699 -0.2341
 7010TIP3    H142445   2.524   2.714  11.626 -1.3888  0.1761  2.5795
 7010TIP3    H242446   2.616   2.824  11.577  0.5624 -2.4353  0.0088
 7011TIP3   OH242447   2.556   6.274   0.397  0.0941 -0.1184  0.1505
 7011TIP3    H142448   2.486   6.216   0.428  0.0315  0.7538  1.7456
 7011TIP3    H242449   2.601   6.223   0.330 -0.5535 -1.6364  0.8152
 7012TIP3   OH242450   2.103   4.112  16.198  0.0817  0.2536 -0.0874
 7012TIP3    H142451   2.162   4.042  16.168 -1.1054 -1.7224  1.8337
 7012TIP3    H242452   2.147   4.148  16.275 -0.6374 -0.4221  0.6560
 7013TIP3   OH242453   3.378   5.935  12.597 -0.7513 -0.0685  0.0995
 7013TIP3    H142454   3.390   5.933  12.692 -1.5083 -0.9938  0.1941
 7013TIP3    H242455   3.464   5.915  12.561  0.0650  2.3706  0.5081
 7014TIP3   OH242456   0.056   3.134   5.281  0.3811 -0.6439  0.3857
 7014TIP3    H142457   0.003   3.055   5.291 -0.8288  0.2850  1.6898
 7014TIP3    H242458   0.096   3.147   5.367  3.1394 -1.5382 -0.6483
 7015TIP3   OH242459   3.606   5.852   1.917  0.6003 -0.2533 -0.0006
 7015TIP3    H142460   3.610   5.797   1.995  2.7144 -0.5739 -0.2813
 7015TIP3    H242461   3.561   5.799   1.852 -0.0623 -0.4650  0.6274
 7016TIP3   OH242462   1.954   3.161  13.555  0.3647 -0.0502 -0.0584
 7016TIP3    H142463   2.044   3.138  13.531 -0.3940 -4.1421  0.3268
 7016TIP3    H242464   1.914   3.188  13.472  1.9047  2.1422 -0.1847
 7017TIP3   OH242465   5.625   2.351   2.284  0.2613  0.7705 -0.6432
 7017TIP3    H142466   5.687   2.416   2.317 -0.0081  0.2299  1.0196
 7017TIP3    H242467   5.539   2.391   2.297  0.0962  0.1130  0.3458
 7018TIP3   OH242468   3.779   3.242  16.717  0.4716 -0.2420  0.1323
 7018TIP3    H142469   3.874   3.246  16.701  0.7440 -1.6264  1.1772
 7018TIP3    H242470   3.755   3.331  16.744  0.9827  0.7567 -2.4321
 7019TIP3   OH242471   2.955   3.073  14.650  0.1072 -0.3260  0.1274
 7019TIP3    H142472   3.026   3.134  14.671 -1.2185  2.6328 -2.9978
 7019TIP3    H242473   2.875   3.124  14.663 -1.4093 -2.7996  1.2720
 7020TIP3   OH242474   6.661   3.565  15.050 -0.0013 -0.0974  0.4551
 7020TIP3    H142475   6.630   3.512  15.123 -0.6788  0.7740  0.8154
 7020TIP3    H242476   6.615   3.649  15.059  1.8748  0.9784  0.5514
 7021TIP3   OH242477   5.136   4.966  15.068  0.0353  0.3002 -0.6979
 7021TIP3    H142478   5.050   5.008  15.071 -0.1622 -0.0845  2.2096
 7021TIP3    H242479   5.118   4.875  15.044 -0.2242  0.4870 -1.2167
 7022TIP3   OH242480   1.578   1.282  10.772  0.2556  0.2313 -0.3446
 7022TIP3    H142481   1.508   1.318  10.827 -0.9946 -1.7662 -0.5004
 7022TIP3    H242482   1.560   1.315  10.685 -2.3189 -2.3874 -0.9853
 7023TIP3   OH242483   2.712   4.370  12.272  0.4598  0.0602 -0.5588
 7023TIP3    H142484   2.691   4.278  12.290  1.2741 -0.2756 -1.2723
 7023TIP3    H242485   2.740   4.371  12.181  0.2926  1.0566 -0.6112
 7024TIP3   OH242486   6.395   5.935  12.227  0.1433 -0.2612  0.0539
 7024TIP3    H142487   6.434   5.906  12.145 -1.7160 -2.6634 -0.0918
 7024TIP3    H242488   6.347   5.859  12.259 -0.4409  1.0730  2.6186
 7025TIP3   OH242489   0.157   4.243   4.742  0.0953  0.0856  0.3544
 7025TIP3    H142490   0.077   4.216   4.697  0.6079 -1.6419  0.3816
 7025TIP3    H242491   0.134   4.324   4.787 -1.3919  0.0544 -0.2960
 7026TIP3   OH242492   1.628   2.644  17.005  0.5601  0.1797  0.4309
 7026TIP3    H142493   1.617   2.739  17.010  0.9386  0.2160  0.5922
 7026TIP3    H242494   1.556   2.609  17.058 -0.2450  0.3421 -0.5416
 7027TIP3   OH242495   4.395   5.218   1.764 -0.0306 -0.3654  0.4236
 7027TIP3    H142496   4.487   5.242   1.761 -0.2463  0.5624  0.8312
 7027TIP3    H242497   4.393   5.134   1.809  0.8873 -1.9989 -2.2996
 7028TIP3   OH242498   6.328   2.716  11.115  0.4544 -0.2515 -0.5404
 7028TIP3    H142499   6.282   2.732  11.197  0.4427 -2.1573 -0.1326
 7028TIP3    H242500   6.421   2.723  11.138  0.4390 -0.2398 -0.4818
 7029TIP3   OH242501   0.680   5.882  14.710  0.3827 -0.1584 -0.2802
 7029TIP3    H142502   0.669   5.787  14.715  0.4860 -0.1160  1.4584
 7029TIP3    H242503   0.597   5.918  14.740  1.3380  0.2185  2.2204
 7030TIP3   OH242504   0.717   5.299  12.265 -0.0979 -0.1879  0.3181
 7030TIP3    H142505   0.635   5.258  12.293 -0.0192 -0.9174 -0.4674
 7030TIP3    H242506   0.689   5.366  12.202 -0.1458  0.2344  0.7766
 7031TIP3   OH242507   0.349   5.646  12.002  0.7023  0.3586  0.1483
 7031TIP3    H142508   0.421   5.669  12.061  0.3781 -0.3130  0.8132
 7031TIP3    H242509   0.270   5.669  12.050  0.4494  0.8296 -0.4685
 7032TIP3   OH242510   2.371   3.502   4.804  0.1923  0.2607  0.0391
 7032TIP3    H142511   2.291   3.496   4.855 -0.4797  1.5897 -0.8115
 7032TIP3    H242512   2.412   3.583   4.832  1.0627 -0.2160  0.1857
 7033TIP3   OH242513   0.446   2.770  12.909  0.7651  0.0052 -0.2383
 7033TIP3    H142514   0.525   2.795  12.862  0.1342 -0.7121 -1.7564
 7033TIP3    H242515   0.395   2.851  12.916  2.9926  1.3563  3.8471
 7034TIP3   OH242516   1.355   4.000  10.646 -0.4905  0.6922  0.4205
 7034TIP3    H142517   1.436   4.046  10.668  0.4335  0.1124 -1.5652
 7034TIP3    H242518   1.360   3.917  10.694  0.6142  0.2266 -0.4610
 7035TIP3   OH242519   5.420   3.300   4.869 -0.4664 -0.5014  0.3070
 7035TIP3    H142520   5.457   3.361   4.932  0.1417 -1.4964  0.9485
 7035TIP3    H242521   5.347   3.347   4.829 -0.9177  0.1239  1.8118
 7036TIP3   OH242522   6.052   1.436  13.633  0.0877 -0.3005  0.0650
 7036TIP3    H142523   6.021   1.474  13.715 -0.0459 -0.4255  0.0727
 7036TIP3    H242524   6.022   1.345  13.635  1.5830 -0.8068  0.6725
 7037TIP3   OH242525   2.285   0.913   0.098 -0.5220 -0.6535 -0.5428
 7037TIP3    H142526   2.309   0.838   0.044  1.0806 -0.5286 -0.0582
 7037TIP3    H242527   2.345   0.909   0.173 -1.6355  0.0814  0.4200
 7038TIP3   OH242528   5.876   3.288   2.658 -0.0328  0.6991  0.1873
 7038TIP3    H142529   5.806   3.297   2.722 -0.0607 -0.0653  0.2657
 7038TIP3    H242530   5.939   3.356   2.682  0.0066  0.3494  1.0950
 7039TIP3   OH242531   2.464   0.958  14.828 -0.4445 -0.3813  0.1892
 7039TIP3    H142532   2.507   0.977  14.911 -0.2239  1.7175 -0.3591
 7039TIP3    H242533   2.536   0.947  14.765 -0.6353  0.0802 -0.1158
 7040TIP3   OH242534   2.656   3.821   6.363 -0.3054  0.2512  0.3518
 7040TIP3    H142535   2.699   3.794   6.282 -0.5236  1.2911 -0.1178
 7040TIP3    H242536   2.663   3.744   6.420 -1.5127 -1.0577 -1.1661
 7041TIP3   OH242537   3.715   5.140   0.345 -0.3753  0.3718 -0.3637
 7041TIP3    H142538   3.805   5.171   0.340  0.7895 -2.4031  1.0343
 7041TIP3    H242539   3.707   5.077   0.274 -0.3446 -1.2201  0.9892
 7042TIP3   OH242540   4.011   1.435  14.261  0.0042 -0.1818 -0.3180
 7042TIP3    H142541   4.077   1.497  14.228  0.6105 -0.2264  0.7578
 7042TIP3    H242542   3.964   1.406  14.183  3.1307 -2.3827 -1.5980
 7043TIP3   OH242543   6.609   1.327  11.225 -0.0103  0.6015  0.2078
 7043TIP3    H142544   6.580   1.402  11.174 -1.2335  1.6898  2.3598
 7043TIP3    H242545   6.551   1.256  11.200 -0.7893  1.1994  0.2993
 7044TIP3   OH242546   2.684   3.149  16.146  0.1329 -0.3988 -0.0087
 7044TIP3    H142547   2.694   3.191  16.231  2.2843 -1.4434  0.3343
 7044TIP3    H242548   2.618   3.081  16.160  0.7464 -0.8070  0.9543
 7045TIP3   OH242549   3.377   0.934   4.111  0.3982  0.8786  0.1895
 7045TIP3    H142550   3.368   0.966   4.021  1.2085  0.4357 -0.0623
 7045TIP3    H242551   3.342   1.004   4.165 -2.5040  0.1391 -0.5488
 7046TIP3   OH242552   2.969   1.001   4.035  0.3318  0.2197 -0.3213
 7046TIP3    H142553   2.954   0.937   3.965 -0.6051 -0.6795  0.6492
 7046TIP3    H242554   2.882   1.015   4.073  1.0599 -0.9460  1.9838
 7047TIP3   OH242555   5.123   5.283   2.428 -0.4121  0.2526 -0.6210
 7047TIP3    H142556   5.219   5.282   2.419 -0.4558  1.5603 -1.5210
 7047TIP3    H242557   5.101   5.196   2.462  1.1808  0.2785  0.5919
 7048TIP3   OH242558   3.499   5.769   0.262 -0.7687 -0.1322 -0.2040
 7048TIP3    H142559   3.482   5.862   0.247 -0.3550 -0.2429 -1.5248
 7048TIP3    H242560   3.571   5.768   0.325 -0.0533  0.4789 -0.9850
 7049TIP3   OH242561   3.933   4.647   1.770 -0.4779  0.1877  0.1181
 7049TIP3    H142562   4.013   4.652   1.822 -1.8799 -0.8641  2.5632
 7049TIP3    H242563   3.959   4.601   1.691  1.6545  1.3870  0.0463
 7050TIP3   OH242564   3.007   4.674  11.494  0.1397 -0.1981  0.7022
 7050TIP3    H142565   2.920   4.637  11.482  0.6800 -2.0229  2.0102
 7050TIP3    H242566   3.013   4.744  11.429 -0.8081 -2.6565 -2.2045
 7051TIP3   OH242567   0.742   1.160   4.676  0.3102 -0.0137 -0.1383
 7051TIP3    H142568   0.817   1.220   4.673  1.0706 -0.9455 -0.2085
 7051TIP3    H242569   0.779   1.074   4.658 -0.8841 -0.4114 -0.8016
 7052TIP3   OH242570   3.607   3.282   3.944 -0.1446  0.5358 -0.0473
 7052TIP3    H142571   3.651   3.290   3.859 -0.7151  0.6467 -0.3390
 7052TIP3    H242572   3.677   3.265   4.006  0.2972  0.6070 -0.5216
 7053TIP3   OH242573   2.252   4.369  10.815  0.0395 -0.4411 -0.5136
 7053TIP3    H142574   2.327   4.423  10.789  0.9184 -0.9764  0.8362
 7053TIP3    H242575   2.228   4.323  10.734  1.8699 -1.0897 -0.7486
 7054TIP3   OH242576   1.038   3.219  16.953  0.4460  0.3428  0.2288
 7054TIP3    H142577   1.091   3.298  16.944  0.2264  0.7633  2.0645
 7054TIP3    H242578   0.953   3.251  16.984  0.7794 -0.6501  2.3942
 7055TIP3   OH242579   3.916   3.673   5.283  0.0857 -0.8890 -0.2721
 7055TIP3    H142580   3.960   3.736   5.226 -1.3392  0.0059 -0.4470
 7055TIP3    H242581   3.826   3.671   5.250 -0.3257 -1.6795  0.8604
 7056TIP3   OH242582   3.320   2.607   4.485  0.1108 -0.2216 -0.2159
 7056TIP3    H142583   3.308   2.683   4.542 -0.5663  0.2593 -0.9783
 7056TIP3    H242584   3.414   2.603   4.469  0.0573  1.0773 -0.9976
 7057TIP3   OH242585   0.341   2.447   1.890 -0.1374 -0.0941 -0.2524
 7057TIP3    H142586   0.393   2.511   1.938  0.3165  0.6255 -1.6400
 7057TIP3    H242587   0.405   2.398   1.839 -0.5678 -1.1184  0.1547
 7058TIP3   OH242588   3.091   1.652   4.002  0.1719 -0.4074 -0.1694
 7058TIP3    H142589   3.121   1.570   3.962  0.6844 -0.7333  0.8604
 7058TIP3    H242590   3.160   1.715   3.981  0.4438 -0.5790  0.2053
 7059TIP3   OH242591   2.097   1.367  11.709  0.4417  0.3911  0.3666
 7059TIP3    H142592   2.115   1.351  11.616  0.1832  1.6150  0.0959
 7059TIP3    H242593   2.130   1.288  11.753 -1.9130 -1.4990 -0.9972
 7060TIP3   OH242594   3.300   6.676   5.322 -0.2906  0.0437 -0.3582
 7060TIP3    H142595   3.388   6.646   5.299 -0.0898 -0.2874  0.8020
 7060TIP3    H242596   3.309   6.770   5.337 -0.0552 -0.0649  0.1647
 7061TIP3   OH242597   0.324   1.790   0.990 -0.0395  0.4126  0.6294
 7061TIP3    H142598   0.404   1.834   1.017  0.4401 -0.4640  0.6818
 7061TIP3    H242599   0.354   1.707   0.951 -0.9005  0.1977  0.3937
 7062TIP3   OH242600   5.715   3.032   3.967  0.3141 -0.4351  0.0408
 7062TIP3    H142601   5.801   2.994   3.950  1.0710  0.6768  1.1488
 7062TIP3    H242602   5.733   3.125   3.981 -1.1730 -0.0553 -0.3959
 7063TIP3   OH242603   1.759   0.215   1.223 -0.8533 -0.2388 -0.0306
 7063TIP3    H142604   1.820   0.187   1.155 -1.2536  0.5651 -0.7354
 7063TIP3    H242605   1.795   0.179   1.304 -0.7585 -1.8281 -0.7458
 7064TIP3   OH242606   4.356   6.364   2.579  0.1700  0.3143  0.0033
 7064TIP3    H142607   4.361   6.287   2.635 -0.1068  1.4608  1.6811
 7064TIP3    H242608   4.346   6.437   2.640 -0.9558  1.5554 -1.5863
 7065TIP3   OH242609   0.824   3.532  16.402 -0.0705  0.4087 -0.3202
 7065TIP3    H142610   0.888   3.552  16.334 -0.4383  2.5132 -0.1132
 7065TIP3    H242611   0.845   3.591  16.474 -0.2569 -1.1434  1.0642
 7066TIP3   OH242612   2.349   5.767  10.510 -0.2781 -0.1890  0.1011
 7066TIP3    H142613   2.298   5.751  10.590 -0.4875 -3.7236 -0.6241
 7066TIP3    H242614   2.287   5.808  10.450 -0.8405  0.0773  0.8398
 7067TIP3   OH242615   0.884   3.324  14.100 -0.0427 -0.3560  0.8402
 7067TIP3    H142616   0.912   3.415  14.100 -0.8284 -0.1095  0.5087
 7067TIP3    H242617   0.851   3.309  14.189  1.1010 -0.6543  1.2412
 7068TIP3   OH242618   4.526   4.363  15.302 -0.2278  0.0590  0.6254
 7068TIP3    H142619   4.475   4.415  15.365  0.3083 -0.4380  1.4967
 7068TIP3    H242620   4.485   4.276  15.305  1.2478 -0.6519  2.1229
 7069TIP3   OH242621   1.803   1.679  13.722 -0.1222  0.1160 -0.0155
 7069TIP3    H142622   1.821   1.630  13.642  2.0035  0.1799  0.3699
 7069TIP3    H242623   1.712   1.708  13.713 -1.3888 -3.4850 -0.4437
 7070TIP3   OH242624   2.764   0.448  12.307  0.2789  0.0220  0.0898
 7070TIP3    H142625   2.699   0.378  12.309 -1.1343  1.2950  0.9679
 7070TIP3    H242626   2.767   0.475  12.215  0.2456 -0.6481 -0.1141
 7071TIP3   OH242627   5.352   0.131  13.280  0.1840  0.4022 -0.0210
 7071TIP3    H142628   5.332   0.046  13.241  0.1228  0.8482 -0.9888
 7071TIP3    H242629   5.282   0.188  13.249  0.8315  1.0634 -0.2926
 7072TIP3   OH242630   3.438   3.220  16.006 -0.7208  0.0151 -0.4933
 7072TIP3    H142631   3.483   3.209  15.922 -1.1468 -0.1662 -0.6959
 7072TIP3    H242632   3.361   3.164  16.001 -0.0125 -1.1092  0.5758
 7073TIP3   OH242633   0.949   4.174  13.639  0.0533 -0.1760  0.0780
 7073TIP3    H142634   0.984   4.089  13.667 -2.0969 -0.4122  2.3738
 7073TIP3    H242635   1.026   4.225  13.615  1.8360 -1.3170  2.8955
 7074TIP3   OH242636   6.539   0.321  11.114  0.2340 -0.2806  0.2132
 7074TIP3    H142637   6.535   0.382  11.040 -1.3960  0.5454  0.9374
 7074TIP3    H242638   6.596   0.364  11.178  0.8733 -0.5512 -0.1725
 7075TIP3   OH242639   0.505   5.179  14.534  0.1136 -0.6444  0.2042
 7075TIP3    H142640   0.460   5.221  14.461  3.3460  2.7862 -0.1309
 7075TIP3    H242641   0.480   5.230  14.611 -1.6046 -2.9122  1.2617
 7076TIP3   OH242642   0.994   3.177   1.049  0.4158  0.0112  0.5734
 7076TIP3    H142643   1.027   3.150   0.963 -1.6224 -1.6586  0.2283
 7076TIP3    H242644   1.060   3.145   1.110  1.9113  1.2471 -0.3130
 7077TIP3   OH242645   5.792   6.103  13.572  0.2024  0.3438 -0.5822
 7077TIP3    H142646   5.755   6.071  13.655  1.4023  0.8887  0.1976
 7077TIP3    H242647   5.736   6.066  13.505 -0.7841 -0.1545  0.4761
 7078TIP3   OH242648   2.350   6.491   1.396 -0.0150  0.0175  0.4817
 7078TIP3    H142649   2.311   6.578   1.408  1.3400  0.7253  0.0666
 7078TIP3    H242650   2.351   6.479   1.301 -0.9966 -0.8666  0.5635
 7079TIP3   OH242651   5.285   4.052   2.037 -0.6396  0.1662  0.3944
 7079TIP3    H142652   5.304   4.139   2.002  1.6270 -0.2775  0.3464
 7079TIP3    H242653   5.338   3.993   1.983 -0.5453 -1.0095  1.7315
 7080TIP3   OH242654   2.470   2.808   0.676 -0.7430 -0.0745  0.6615
 7080TIP3    H142655   2.490   2.813   0.770 -0.5143 -0.8055  0.6629
 7080TIP3    H242656   2.408   2.879   0.661 -2.5000 -1.2810  1.8251
 7081TIP3   OH242657   5.346   6.743  13.699 -0.4254 -0.0697  0.4792
 7081TIP3    H142658   5.322   6.682  13.629 -1.5095  1.2919 -0.3901
 7081TIP3    H242659   5.438   6.763  13.683 -0.5886  0.0142 -0.3877
 7082TIP3   OH242660   0.074   3.464   1.593  1.0407 -0.4329 -0.9317
 7082TIP3    H142661   0.119   3.380   1.592  2.6193  0.3723 -0.1243
 7082TIP3    H242662   0.013   3.458   1.666  1.7887 -0.5615 -0.3164
 7083TIP3   OH242663   1.716   2.506  10.322 -0.0348  0.1939  0.1312
 7083TIP3    H142664   1.625   2.536  10.324 -0.5830 -1.3866  0.2557
 7083TIP3    H242665   1.715   2.422  10.368  1.3732 -0.1482 -0.4082
 7084TIP3   OH242666   4.635   5.427  16.490  0.2156  0.2281 -0.3657
 7084TIP3    H142667   4.656   5.360  16.554  0.0529  0.4172 -0.1142
 7084TIP3    H242668   4.585   5.381  16.422  0.1275  0.0902 -0.2079
 7085TIP3   OH242669   1.403   5.576   4.448 -0.1284 -0.2833  0.2464
 7085TIP3    H142670   1.445   5.661   4.463  1.4506 -0.9201 -0.4390
 7085TIP3    H242671   1.424   5.524   4.525 -0.0961 -0.4441  0.1300
 7086TIP3   OH242672   1.097   0.296  13.937 -0.9299  0.2059 -0.2977
 7086TIP3    H142673   1.131   0.286  14.026  1.0517  1.3123 -0.8857
 7086TIP3    H242674   1.051   0.380  13.939 -0.4513  0.4719 -0.4453
 7087TIP3   OH242675   6.323   2.314  13.193  0.0132  0.5060 -0.3491
 7087TIP3    H142676   6.395   2.263  13.157 -1.5729 -2.1638 -0.0082
 7087TIP3    H242677   6.307   2.276  13.279 -2.1860  0.5577 -0.6637
 7088TIP3   OH242678   4.915   4.861  15.921 -0.0056  0.2283  0.4256
 7088TIP3    H142679   4.850   4.803  15.961 -0.5377 -0.0065 -0.7399
 7088TIP3    H242680   4.863   4.927  15.875  0.5640  0.1325 -0.3822
 7089TIP3   OH242681   2.964   4.457  11.741  0.0975  0.2102 -0.3625
 7089TIP3    H142682   2.984   4.525  11.677  0.0532  0.3980 -0.1792
 7089TIP3    H242683   2.954   4.504  11.824  1.1821 -0.1363 -0.0166
 7090TIP3   OH242684   2.476   2.348   1.237 -0.4380  0.2375 -0.5284
 7090TIP3    H142685   2.417   2.321   1.308  0.0988  1.1284  0.2762
 7090TIP3    H242686   2.513   2.431   1.267  4.4882 -2.1060  1.1098
 7091TIP3   OH242687   3.077   4.088  15.106 -0.6270 -0.4476  0.3537
 7091TIP3    H142688   2.987   4.108  15.134 -0.3612  0.2880  0.7018
 7091TIP3    H242689   3.123   4.172  15.110  0.3486 -0.9916  1.2173
 7092TIP3   OH242690   3.460   6.785   2.979 -0.4606 -0.8317 -0.3494
 7092TIP3    H142691   3.505   6.739   2.909  0.6106  0.0572 -0.2808
 7092TIP3    H242692   3.368   6.785   2.953 -0.3011 -1.8992 -0.9489
 7093TIP3   OH242693   3.046   2.982  15.240  0.4292 -0.0938 -0.7352
 7093TIP3    H142694   3.121   3.039  15.257  1.3714 -1.6517  0.4912
 7093TIP3    H242695   2.990   3.034  15.182  1.5289  1.8383 -0.1560
 7094TIP3   OH242696   3.839   4.168  16.651 -0.6286  0.9017  0.4884
 7094TIP3    H142697   3.774   4.130  16.710  0.9031 -1.7644  0.6266
 7094TIP3    H242698   3.918   4.178  16.706  0.0022  1.0140 -0.4180
 7095TIP3   OH242699   5.503   4.461   3.411 -0.0213  0.6427  0.4417
 7095TIP3    H142700   5.498   4.366   3.426  0.7896  0.8876  2.4937
 7095TIP3    H242701   5.536   4.469   3.321  0.1471 -1.0136  0.3234
 7096TIP3   OH242702   2.818   2.731   4.323  0.2920 -0.3454 -0.0319
 7096TIP3    H142703   2.749   2.698   4.265 -0.7836 -0.0417  1.0398
 7096TIP3    H242704   2.880   2.774   4.264 -0.1811 -1.0357 -1.0674
 7097TIP3   OH242705   5.751   2.887  16.339  0.8307 -0.1416 -0.0416
 7097TIP3    H142706   5.668   2.846  16.364 -0.1859  1.6621 -0.3248
 7097TIP3    H242707   5.801   2.816  16.298 -0.9293 -1.0524 -0.7188
 7098TIP3   OH242708   4.234   6.733  14.397  0.0370  0.0770  0.0450
 7098TIP3    H142709   4.191   6.694  14.321 -2.2182  1.0068  0.7445
 7098TIP3    H242710   4.255   6.659  14.453  1.4539 -0.5922 -1.3004
 7099TIP3   OH242711   1.637   4.447   6.313  0.3907  0.1516 -0.4907
 7099TIP3    H142712   1.593   4.430   6.230  0.1570  0.7920 -0.5011
 7099TIP3    H242713   1.688   4.367   6.330 -1.3106 -0.9274 -0.1199
 7100TIP3   OH242714   5.939   2.281  13.430 -0.4592  0.6519 -0.2021
 7100TIP3    H142715   5.953   2.187  13.439 -0.0453  0.7698  0.4458
 7100TIP3    H242716   5.887   2.290  13.350  3.6260  0.2214 -3.2056
 7101TIP3   OH242717   0.458   6.400   2.695  0.3543 -0.3251  0.0775
 7101TIP3    H142718   0.474   6.358   2.780  0.4989 -1.7807 -0.6498
 7101TIP3    H242719   0.447   6.328   2.634 -0.0119  0.7065 -1.1106
 7102TIP3   OH242720   2.428   6.343   3.978  0.1917 -0.0001 -0.2988
 7102TIP3    H142721   2.337   6.332   4.004  0.4550 -1.0552  0.2522
 7102TIP3    H242722   2.427   6.413   3.913 -1.1824 -0.9403 -1.3306
 7103TIP3   OH242723   6.553   0.192  13.460  0.5057 -0.4746 -0.2305
 7103TIP3    H142724   6.608   0.206  13.383 -1.4472 -2.8359 -2.2339
 7103TIP3    H242725   6.483   0.257  13.453 -0.2547 -1.3526 -1.1194
 7104TIP3   OH242726   2.808   0.246  14.945 -0.6818  0.2397 -0.3117
 7104TIP3    H142727   2.738   0.311  14.942 -0.4958  0.7373  2.7020
 7104TIP3    H242728   2.884   0.291  14.910 -0.9483  1.1171  0.1977
 7105TIP3   OH242729   5.369   4.571  17.067 -0.3841 -0.4159  0.5434
 7105TIP3    H142730   5.361   4.511  16.994  0.1236 -0.5755  0.6188
 7105TIP3    H242731   5.394   4.655  17.027 -2.2831  0.0881  0.3055
 7106TIP3   OH242732   6.590   4.006  10.837 -0.2520 -0.5784  1.0613
 7106TIP3    H142733   6.679   4.020  10.804 -0.6063  0.3800  0.4638
 7106TIP3    H242734   6.594   4.034  10.928 -0.3574  1.2769  0.5360
 7107TIP3   OH242735   1.425   5.882   4.537 -0.3599 -0.0330  0.1468
 7107TIP3    H142736   1.471   5.924   4.611 -1.1824  1.0724  0.0601
 7107TIP3    H242737   1.495   5.861   4.475  0.0720  1.6074  0.0279
 7108TIP3   OH242738   5.056   5.267  16.245 -0.3718 -0.0568 -0.4028
 7108TIP3    H142739   5.145   5.244  16.271 -0.1489  1.3215  0.1408
 7108TIP3    H242740   5.067   5.337  16.180 -1.0229 -1.1957 -1.7894
 7109TIP3   OH242741   6.740   2.132   0.989 -0.0549  0.5546 -0.3334
 7109TIP3    H142742   6.773   2.105   0.904  0.3541  1.9486 -0.6563
 7109TIP3    H242743   6.734   2.228   0.983  1.3623  0.8452  1.6638
 7110TIP3   OH242744   2.136   4.580   1.884  0.1996  0.4553  0.0249
 7110TIP3    H142745   2.062   4.634   1.856 -0.3741  0.4059  1.3537
 7110TIP3    H242746   2.096   4.499   1.915  0.8734  0.1628  0.1564
 7111TIP3   OH242747   4.754   5.809  16.722  0.0803  0.2073 -0.3914
 7111TIP3    H142748   4.813   5.734  16.729 -2.7376 -2.0665  1.2721
 7111TIP3    H242749   4.682   5.778  16.666 -2.0454  0.9302  1.7814
 7112TIP3   OH242750   0.251   6.099  12.441 -0.0376  0.0902  0.1766
 7112TIP3    H142751   0.323   6.071  12.384  0.9605 -0.3538  1.5932
 7112TIP3    H242752   0.274   6.188  12.467  0.7541 -0.5099  1.6939
 7113TIP3   OH242753   1.529   4.570   2.286  0.4060  0.2957 -0.7641
 7113TIP3    H142754   1.603   4.612   2.242 -0.6127 -0.7633 -3.7914
 7113TIP3    H242755   1.568   4.507   2.346  1.9239  1.4536 -0.5015
 7114TIP3   OH242756   4.901   6.732   3.637 -0.6207 -0.5068 -0.1354
 7114TIP3    H142757   4.901   6.820   3.599 -0.0221 -0.8324 -0.9290
 7114TIP3    H242758   4.851   6.680   3.574 -1.8162 -0.5469  0.8207
 7115TIP3   OH242759   1.232   2.942  14.493  0.5563 -0.6170  0.4043
 7115TIP3    H142760   1.209   2.952  14.585 -0.7986  1.0957 -0.0693
 7115TIP3    H242761   1.242   2.847  14.481  2.8102 -0.7876  2.7267
 7116TIP3   OH242762   1.700   0.573   2.284 -0.5520  0.0869 -1.1167
 7116TIP3    H142763   1.732   0.652   2.328  1.8624 -1.7568  0.6912
 7116TIP3    H242764   1.671   0.605   2.198 -1.2334  3.1479  0.1082
 7117TIP3   OH242765   6.256   4.014   1.197 -0.3282 -0.1148  0.1200
 7117TIP3    H142766   6.233   4.023   1.104  0.5852  2.2501  0.0503
 7117TIP3    H242767   6.340   3.968   1.196 -0.9277 -1.2289 -0.1270
 7118TIP3   OH242768   0.266   1.303   6.378 -0.0001 -0.1282 -0.0113
 7118TIP3    H142769   0.276   1.315   6.472 -0.3234  0.7841 -0.0875
 7118TIP3    H242770   0.176   1.330   6.359  1.1572  3.6360 -1.1331
 7119TIP3   OH242771   1.232   3.614  14.173  0.1890 -0.0825  0.0049
 7119TIP3    H142772   1.309   3.672  14.169  0.2664 -0.0333  1.6601
 7119TIP3    H242773   1.263   3.532  14.134  0.1844  0.8018 -2.0336
 7120TIP3   OH242774   3.929   1.685   0.210 -0.1401  0.0945  0.1974
 7120TIP3    H142775   3.932   1.608   0.267 -0.4755  0.3665  0.5940
 7120TIP3    H242776   3.844   1.725   0.229 -1.0322 -0.7537 -1.7405
 7121TIP3   OH242777   5.846   6.300  12.584 -0.1541  0.8720  0.1227
 7121TIP3    H142778   5.918   6.238  12.575  0.3120  1.3393  0.5502
 7121TIP3    H242779   5.775   6.262  12.532  0.8360  1.0800 -1.4586
 7122TIP3   OH242780   4.731   1.676  12.060 -0.6622 -0.1708 -0.2509
 7122TIP3    H142781   4.807   1.644  12.011 -0.9270 -0.2628 -0.6091
 7122TIP3    H242782   4.762   1.756  12.103 -0.4168 -0.1057 -0.5459
 7123TIP3   OH242783   2.512   6.636   0.963 -0.3248 -0.0856  0.1486
 7123TIP3    H142784   2.436   6.620   1.019 -0.0828 -1.3936  0.1253
 7123TIP3    H242785   2.541   6.549   0.936  0.4285  0.4582 -0.8615
 7124TIP3   OH242786   1.249   5.064   6.566  0.2814  0.1761  0.2627
 7124TIP3    H142787   1.314   5.017   6.513  0.5508  1.6239 -0.7357
 7124TIP3    H242788   1.271   5.156   6.555 -1.3534  0.6482  0.7004
 7125TIP3   OH242789   2.866   2.728   0.464 -0.2070  0.3484  0.2586
 7125TIP3    H142790   2.847   2.642   0.504 -0.0718 -0.3311 -1.0808
 7125TIP3    H242791   2.779   2.763   0.443 -0.2464 -0.8750 -1.9918
 7126TIP3   OH242792   0.108   2.517   0.023 -0.6966  0.2020 -0.2690
 7126TIP3    H142793   0.027   2.525  -0.027 -0.9359 -1.6180 -0.2660
 7126TIP3    H242794   0.087   2.452   0.090  1.3344 -2.0348 -1.6308
 7127TIP3   OH242795   4.554   5.586  10.578 -0.0787 -0.1489 -0.2328
 7127TIP3    H142796   4.517   5.516  10.526  1.4970 -1.9244  0.9121
 7127TIP3    H242797   4.642   5.598  10.544  0.2516  0.1010  0.6843
 7128TIP3   OH242798   1.137   5.605  16.859 -0.2457 -0.2214  0.0638
 7128TIP3    H142799   1.106   5.580  16.772  0.3875  0.2103 -0.2980
 7128TIP3    H242800   1.066   5.579  16.918 -0.0927 -1.8115 -0.4062
 7129TIP3   OH242801   4.797   3.766   3.210 -0.3179 -0.0522  0.1815
 7129TIP3    H142802   4.742   3.842   3.231 -0.3728 -0.0340 -0.0237
 7129TIP3    H242803   4.794   3.761   3.114  0.2438  0.1056  0.1516
 7130TIP3   OH242804   4.310   3.343   3.070 -0.1697 -0.0027  0.9593
 7130TIP3    H142805   4.258   3.307   2.998  2.3649 -1.2038 -0.3775
 7130TIP3    H242806   4.330   3.268   3.125  3.3853 -0.5082 -0.7250
 7131TIP3   OH242807   2.534   4.222   2.794 -0.4356  0.5462  0.7015
 7131TIP3    H142808   2.497   4.150   2.845  0.0145  1.2078  1.9958
 7131TIP3    H242809   2.497   4.301   2.833 -1.8505  1.0335 -1.4441
 7132TIP3   OH242810   3.833   4.833  13.532 -0.2116 -0.4510  0.0950
 7132TIP3    H142811   3.919   4.802  13.505 -0.7606 -1.4005 -0.5854
 7132TIP3    H242812   3.784   4.754  13.554  0.0521  0.1782  3.5526
 7133TIP3   OH242813   4.162   3.585  13.970 -0.2308  0.0503 -0.5234
 7133TIP3    H142814   4.231   3.617  13.912  0.9715  0.0315  0.8301
 7133TIP3    H242815   4.139   3.499  13.934  1.1950 -0.4020 -0.4392
 7134TIP3   OH242816   1.093   1.643  13.367  0.2064  0.2494  0.4821
 7134TIP3    H142817   1.089   1.736  13.388  1.4285  0.0273  1.9226
 7134TIP3    H242818   1.058   1.636  13.278  0.5412  2.1396  0.1666
 7135TIP3   OH242819   0.269   0.880  10.524 -0.1597  0.1718 -0.1428
 7135TIP3    H142820   0.190   0.832  10.545 -0.0429 -0.2444 -0.6524
 7135TIP3    H242821   0.340   0.817  10.535  0.2074  0.7868  1.2358
 7136TIP3   OH242822   6.233   0.946   1.696  0.2075  0.0063  0.0928
 7136TIP3    H142823   6.299   0.876   1.696 -0.7998 -1.0612 -2.1549
 7136TIP3    H242824   6.160   0.910   1.746  0.3721  0.1923  0.4711
 7137TIP3   OH242825   6.603   5.815  11.518 -0.4596  1.1005 -0.0669
 7137TIP3    H142826   6.524   5.833  11.569 -0.8084 -1.0408  0.2351
 7137TIP3    H242827   6.604   5.720  11.507  1.1762  1.2368 -1.5547
 7138TIP3   OH242828   0.687   1.402  15.282  0.2496 -0.6767 -0.2372
 7138TIP3    H142829   0.759   1.380  15.222  1.1005  0.4053  0.3579
 7138TIP3    H242830   0.728   1.406  15.368 -0.6578 -0.6473  0.2031
 7139TIP3   OH242831   6.517   2.553  16.069  0.0763 -0.3454  0.0714
 7139TIP3    H142832   6.510   2.608  15.990 -1.3603  0.0016  0.4124
 7139TIP3    H242833   6.603   2.575  16.105  0.0650  0.7441 -0.5023
 7140TIP3   OH242834   0.060   6.056   3.360  0.0671  0.2022  0.0123
 7140TIP3    H142835  -0.033   6.041   3.345 -0.1014  1.1742  0.0134
 7140TIP3    H242836   0.104   5.995   3.301 -0.5690 -0.0810 -0.1737
 7141TIP3   OH242837   5.204   2.518   1.895  0.4028  0.8597  0.0811
 7141TIP3    H142838   5.282   2.542   1.846  0.5820 -2.0727 -1.2932
 7141TIP3    H242839   5.226   2.435   1.938 -1.4367  0.7249  0.8853
 7142TIP3   OH242840   5.941   0.096  11.988  0.6865  0.0183 -0.0392
 7142TIP3    H142841   5.856   0.064  11.959  1.5354 -0.0254 -2.7636
 7142TIP3    H242842   5.979   0.022  12.036 -0.2255 -0.4636 -0.0360
 7143TIP3   OH242843   6.627   3.915   3.106 -0.2710 -0.0413 -0.6706
 7143TIP3    H142844   6.633   3.893   3.199 -1.7846  2.0518 -0.0030
 7143TIP3    H242845   6.572   3.847   3.068 -0.6129 -0.2681  0.2207
 7144TIP3   OH242846   5.584   2.465  10.904  0.3278  0.1246 -0.3136
 7144TIP3    H142847   5.606   2.378  10.939  0.4625  0.9352  1.7410
 7144TIP3    H242848   5.582   2.452  10.810 -1.5358 -2.5645 -0.0368
 7145TIP3   OH242849   3.718   4.007   2.020  0.8792 -0.3015  0.5028
 7145TIP3    H142850   3.741   4.065   2.092  1.7625 -0.7300  0.5874
 7145TIP3    H242851   3.783   4.026   1.952 -0.4382  0.6907 -0.5396
 7146TIP3   OH242852   6.151   6.486   1.439 -0.1193 -0.3090  0.0399
 7146TIP3    H142853   6.057   6.494   1.457 -0.0274  0.2908  0.2792
 7146TIP3    H242854   6.161   6.397   1.405 -0.7984 -0.3238 -0.1433
 7147TIP3   OH242855   4.394   1.287   5.869  0.3640  0.3056 -0.0900
 7147TIP3    H142856   4.424   1.373   5.897  1.4961  0.0509 -0.4596
 7147TIP3    H242857   4.449   1.225   5.917  1.0134 -0.1671 -1.3725
 7148TIP3   OH242858   1.508   0.349  15.355  0.3882  0.7619 -0.8137
 7148TIP3    H142859   1.484   0.390  15.272 -1.1493  0.9739 -0.2915
 7148TIP3    H242860   1.445   0.383  15.419  0.6550 -0.4536  0.1557
 7149TIP3   OH242861   4.667   4.666   2.325 -0.1635  0.0149  0.1604
 7149TIP3    H142862   4.659   4.575   2.352 -1.1569 -0.1639 -0.6811
 7149TIP3    H242863   4.581   4.689   2.289  0.1412  1.2123  0.1395
 7150TIP3   OH242864   0.468   5.625  15.883  0.1089 -0.0374 -0.1769
 7150TIP3    H142865   0.394   5.668  15.839  0.8711 -0.7771 -2.2897
 7150TIP3    H242866   0.493   5.553  15.824  2.6291  0.2927  0.3705
 7151TIP3   OH242867   1.247   5.768   2.963 -0.1353 -0.1845 -0.1539
 7151TIP3    H142868   1.279   5.693   3.013  0.2160  0.2296  0.2547
 7151TIP3    H242869   1.190   5.730   2.897  0.4041 -0.8519 -0.2477
 7152TIP3   OH242870   5.536   6.327  13.495  0.1316 -0.1907  0.4041
 7152TIP3    H142871   5.555   6.375  13.414 -0.8939  1.1520  0.9092
 7152TIP3    H242872   5.568   6.239  13.479  2.4218  0.7112 -0.4529
 7153TIP3   OH242873   3.598   0.286   3.815 -0.3708  0.4659  0.1332
 7153TIP3    H142874   3.540   0.352   3.853 -0.0486  1.6232 -1.3106
 7153TIP3    H242875   3.575   0.205   3.861 -2.2701  1.1380  0.4674
 7154TIP3   OH242876   6.591   5.597   3.702  0.0852 -0.1848  0.3021
 7154TIP3    H142877   6.519   5.536   3.718 -0.3613 -0.1039 -1.3036
 7154TIP3    H242878   6.643   5.594   3.783 -0.8042 -1.4751  0.8576
 7155TIP3   OH242879   1.873   1.778  16.924  0.0492  0.2468  0.6169
 7155TIP3    H142880   1.888   1.769  17.019  3.8726  0.3946  0.2101
 7155TIP3    H242881   1.922   1.706  16.885 -1.1271  0.4225 -1.3124
 7156TIP3   OH242882   2.961   5.965   4.445  0.0415 -0.0811  0.2000
 7156TIP3    H142883   2.988   5.877   4.473  1.6768  0.1665 -0.5193
 7156TIP3    H242884   3.039   6.003   4.405 -0.2560  2.1968  1.6211
 7157TIP3   OH242885   5.383   0.081  16.661  0.6946  0.5255 -0.0396
 7157TIP3    H142886   5.329   0.053  16.587  0.1380 -0.3059  0.6623
 7157TIP3    H242887   5.455   0.017  16.664  1.0922  0.9583 -0.2745
 7158TIP3   OH242888   5.449   1.302   5.577 -1.0487  0.2533 -0.3512
 7158TIP3    H142889   5.433   1.274   5.487  0.9937  2.4675 -1.5166
 7158TIP3    H242890   5.372   1.355   5.600  0.0406  2.9346 -2.3532
 7159TIP3   OH242891   4.646   5.605  15.013  0.2248 -0.1782  0.4082
 7159TIP3    H142892   4.610   5.688  15.046  2.3739  0.2122  1.9859
 7159TIP3    H242893   4.641   5.546  15.088 -0.3329 -1.1889 -0.4006
 7160TIP3   OH242894   5.420   4.204   1.301  0.3697 -0.2174 -0.4082
 7160TIP3    H142895   5.468   4.129   1.335 -1.7006 -1.2145  0.4054
 7160TIP3    H242896   5.419   4.267   1.374 -0.2154 -0.5256 -0.1431
 7161TIP3   OH242897   4.809   6.577   4.324  0.3187 -0.2141 -0.1706
 7161TIP3    H142898   4.732   6.633   4.317 -0.6209 -1.5910 -1.4420
 7161TIP3    H242899   4.847   6.599   4.409 -0.7595  1.3689 -0.0551
 7162TIP3   OH242900   5.451   2.242   2.714  0.1320 -0.1049  0.1721
 7162TIP3    H142901   5.451   2.181   2.640  0.7692 -0.4439  0.4472
 7162TIP3    H242902   5.521   2.212   2.770 -2.1411 -1.6553  2.4019
 7163TIP3   OH242903   1.909   2.011  12.298  0.1489 -0.2049  0.2040
 7163TIP3    H142904   1.971   2.021  12.371  0.0835 -1.9663  0.5300
 7163TIP3    H242905   1.823   2.028  12.337  0.2909  1.0460  0.0175
 7164TIP3   OH242906   0.486   2.665   2.487  0.2770 -0.1687 -0.5822
 7164TIP3    H142907   0.567   2.690   2.532 -0.4411  2.0154 -0.3766
 7164TIP3    H242908   0.424   2.736   2.508 -1.3790 -1.2522 -1.5663
 7165TIP3   OH242909   3.261   4.310  14.791  0.2240  0.3076 -0.5944
 7165TIP3    H142910   3.179   4.358  14.775 -0.8000 -1.6741 -1.6185
 7165TIP3    H242911   3.328   4.363  14.748 -0.7748  1.1051 -1.2416
 7166TIP3   OH242912   4.051   5.763  16.232  0.0959  0.3166 -0.5936
 7166TIP3    H142913   4.074   5.691  16.291 -0.6324  0.6596  0.1227
 7166TIP3    H242914   3.987   5.814  16.281  0.3671  1.2749 -1.2197
 7167TIP3   OH242915   1.453   3.734  16.205 -0.0058  0.6088  0.0002
 7167TIP3    H142916   1.414   3.818  16.183 -0.4211  0.1039 -1.2503
 7167TIP3    H242917   1.413   3.672  16.144 -0.0450 -0.5823  1.1969
 7168TIP3   OH242918   4.176   5.466  15.481 -0.0343 -0.1768 -0.3243
 7168TIP3    H142919   4.092   5.483  15.437 -0.0819 -0.5095 -0.3598
 7168TIP3    H242920   4.241   5.504  15.422 -0.1266 -0.3069 -0.5138
 7169TIP3   OH242921   0.671   4.551   5.168 -0.5577 -0.4158  0.0827
 7169TIP3    H142922   0.626   4.635   5.162 -0.1320 -0.2757 -1.6511
 7169TIP3    H242923   0.675   4.519   5.078 -0.6741 -2.2973  0.6938
 7170TIP3   OH242924   1.630   6.593  13.660  0.0764  0.0994 -0.0722
 7170TIP3    H142925   1.560   6.572  13.598 -1.3010  2.2330  0.6464
 7170TIP3    H242926   1.643   6.511  13.709 -0.7272 -0.8237 -1.3420
 7171TIP3   OH242927   4.164   6.714  15.384  0.1875  0.3111  0.8238
 7171TIP3    H142928   4.087   6.693  15.330  0.3596 -1.6467  1.2651
 7171TIP3    H242929   4.239   6.697  15.327  0.3297  1.0304  0.7859
 7172TIP3   OH242930   1.964   0.244  12.635  0.4953 -0.6417  0.5799
 7172TIP3    H142931   1.916   0.325  12.653  1.4932  0.1272 -0.0899
 7172TIP3    H242932   1.898   0.175  12.637 -0.5604  0.3344  0.0204
 7173TIP3   OH242933   0.368   3.673  12.836  0.5236  0.7469 -0.2151
 7173TIP3    H142934   0.278   3.675  12.869  0.8824  0.1253  0.8666
 7173TIP3    H242935   0.377   3.587  12.794  0.5696  0.8548 -0.4242
 7174TIP3   OH242936   3.383   2.520  16.425  0.6896  0.0048  0.0363
 7174TIP3    H142937   3.326   2.443  16.426 -0.3183  0.7392  0.3372
 7174TIP3    H242938   3.330   2.589  16.386  1.5198  0.6047 -0.0541
 7175TIP3   OH242939   1.255   6.797   4.446  0.4342  0.3003 -0.5403
 7175TIP3    H142940   1.330   6.845   4.411  1.2856 -1.4486 -1.2507
 7175TIP3    H242941   1.226   6.741   4.373 -0.9234  0.2125  0.0376
 7176TIP3   OH242942   2.435   3.812   1.023  0.1697  0.2051  0.3392
 7176TIP3    H142943   2.389   3.893   1.045 -1.1315 -1.1826  3.2196
 7176TIP3    H242944   2.516   3.815   1.074 -0.1759 -0.5530  0.9548
 7177TIP3   OH242945   0.414   6.217   4.524  0.0555  0.3875 -0.0833
 7177TIP3    H142946   0.474   6.291   4.517  0.6172 -0.1133 -0.7881
 7177TIP3    H242947   0.455   6.148   4.471 -0.6923 -0.2669  0.1657
 7178TIP3   OH242948   2.465   6.219  16.706  0.2343 -0.4889  0.0441
 7178TIP3    H142949   2.426   6.138  16.736 -1.7964  0.5023  0.2274
 7178TIP3    H242950   2.392   6.280  16.696  1.6997  1.4462  0.2857
 7179TIP3   OH242951   2.090   6.392   4.671 -1.0847  0.4446 -0.5760
 7179TIP3    H142952   2.118   6.445   4.746 -3.3935  0.1557  0.5889
 7179TIP3    H242953   2.085   6.454   4.598  0.1835  0.9526 -0.2554
 7180TIP3   OH242954   0.705   0.928   5.207  0.4590 -0.2882 -0.6666
 7180TIP3    H142955   0.707   0.833   5.195 -0.8551 -0.2597 -1.2889
 7180TIP3    H242956   0.769   0.962   5.144  0.8525 -0.7557 -0.5169
 7181TIP3   OH242957   0.144   0.276  16.571 -0.6020 -0.2375  0.3011
 7181TIP3    H142958   0.217   0.317  16.525  0.1421 -0.9099  0.8403
 7181TIP3    H242959   0.169   0.183  16.578 -3.4134 -1.5168 -3.3164
 7182TIP3   OH242960   3.886   0.369  11.581  0.0105  0.0156 -0.6588
 7182TIP3    H142961   3.933   0.393  11.501  0.3684  2.7364  0.2728
 7182TIP3    H242962   3.797   0.400  11.567  0.3980  1.7454  0.4559
 7183TIP3   OH242963   5.367   4.486  16.159 -0.3083 -0.5275 -0.2391
 7183TIP3    H142964   5.460   4.482  16.137 -0.0968  0.9163  0.2726
 7183TIP3    H242965   5.366   4.524  16.247 -1.4072 -0.0248 -0.4628
 7184TIP3   OH242966   6.067   6.447   4.297  0.8727  0.3077  0.2626
 7184TIP3    H142967   6.062   6.508   4.370  0.7217  1.1184 -0.4054
 7184TIP3    H242968   6.066   6.503   4.219 -1.0187 -0.6099 -0.4277
 7185TIP3   OH242969   2.223   4.433  16.926  0.8638 -0.6389 -0.2249
 7185TIP3    H142970   2.139   4.445  16.970 -0.2411 -0.7627 -2.1804
 7185TIP3    H242971   2.231   4.509  16.869  2.6688 -0.0474  0.7428
 7186TIP3   OH242972   4.950   2.308  12.657  0.6985  0.0584 -0.1812
 7186TIP3    H142973   5.031   2.294  12.607  0.0478 -1.4307 -0.8879
 7186TIP3    H242974   4.979   2.311  12.748  1.6604  0.5743 -0.4903
 7187TIP3   OH242975   0.558   5.616  14.713  0.1301  0.4485 -0.3533
 7187TIP3    H142976   0.465   5.635  14.726 -0.2775 -2.1314  1.2170
 7187TIP3    H242977   0.562   5.575  14.627 -0.2508  0.2985 -0.3040
 7188TIP3   OH242978   2.068   2.657   5.464 -0.3356  0.0406  0.2787
 7188TIP3    H142979   2.014   2.724   5.422  0.4082  1.7064  1.7979
 7188TIP3    H242980   2.105   2.702   5.541  1.2702 -1.7391  0.6136
 7189TIP3   OH242981   0.306   5.096   0.682 -0.4171 -0.0796 -0.3782
 7189TIP3    H142982   0.308   5.014   0.633 -0.9295 -0.7377  0.6471
 7189TIP3    H242983   0.213   5.114   0.695 -0.3399 -1.0510  2.0954
 7190TIP3   OH242984   6.230   4.746   3.116  0.6537 -0.1046  0.0274
 7190TIP3    H142985   6.248   4.832   3.076  0.3675 -0.7550 -1.5749
 7190TIP3    H242986   6.136   4.746   3.132 -0.2579 -1.6689 -4.0984
 7191TIP3   OH242987   3.350   2.798   5.788  0.2114 -1.1036  0.7076
 7191TIP3    H142988   3.392   2.728   5.738  0.0581 -0.4210 -0.4026
 7191TIP3    H242989   3.417   2.828   5.849  0.9862 -0.7921 -0.2778
 7192TIP3   OH242990   5.284   2.825  13.756 -0.6052 -0.5406 -0.5412
 7192TIP3    H142991   5.349   2.890  13.728 -1.1920  0.1412 -0.3500
 7192TIP3    H242992   5.334   2.745  13.770  0.1219 -0.1459 -0.8472
 7193TIP3   OH242993   4.293   4.335  16.634 -0.3951  0.0828 -0.0895
 7193TIP3    H142994   4.333   4.304  16.553 -1.5591  0.3700 -0.7977
 7193TIP3    H242995   4.339   4.416  16.654  0.9015 -0.7330  0.3652
 7194TIP3   OH242996   1.347   1.545  14.242 -0.4873 -0.6529  0.2750
 7194TIP3    H142997   1.328   1.589  14.324  0.1496 -1.7135  1.0200
 7194TIP3    H242998   1.391   1.611  14.188 -2.9511  0.7826 -0.1701
 7195TIP3   OH242999   1.148   3.949   5.751 -0.2090 -0.6477  0.1433
 7195TIP3    H143000   1.091   4.020   5.721  1.5910  0.9472  0.3233
 7195TIP3    H243001   1.124   3.936   5.843  0.5698  0.9325  0.5992
 7196TIP3   OH243002   0.605   2.083   1.011 -0.0421 -0.5355 -0.4013
 7196TIP3    H143003   0.611   1.990   0.989 -0.7582 -0.6464 -0.1281
 7196TIP3    H243004   0.514   2.107   0.995  0.4890  0.5549 -2.1482
 7197TIP3   OH243005   4.644   3.200   0.149 -0.1181 -0.5188  0.1393
 7197TIP3    H143006   4.740   3.209   0.145 -0.1801  0.7219  0.7805
 7197TIP3    H243007   4.621   3.157   0.067  0.6211  3.1351 -2.2635
 7198TIP3   OH243008   1.982   4.579  11.831  0.4521  0.3727 -0.7443
 7198TIP3    H143009   2.047   4.649  11.824  0.1740  0.5571 -1.6662
 7198TIP3    H243010   2.001   4.521  11.757 -0.5311  0.5186 -1.1223
 7199TIP3   OH243011   2.994   5.885   5.950 -0.4129 -0.4824  0.1489
 7199TIP3    H143012   2.908   5.848   5.930 -0.3365 -0.7725  0.3424
 7199TIP3    H243013   2.989   5.908   6.043 -0.3722 -0.2520  0.0928
 7200TIP3   OH243014   2.762   6.768   5.784 -0.1586 -0.0960 -0.2724
 7200TIP3    H143015   2.759   6.771   5.879  1.5274 -0.3654 -0.1887
 7200TIP3    H243016   2.710   6.691   5.761  1.6133 -1.6426  0.6157
 7201TIP3   OH243017   0.788   3.519   6.562 -0.2780  0.1799 -0.3860
 7201TIP3    H143018   0.817   3.609   6.549  0.6278 -0.3000 -1.9116
 7201TIP3    H243019   0.867   3.466   6.546 -0.7552 -0.8835  0.6260
 7202TIP3   OH243020   6.321   0.299   1.249  0.3993  0.1150 -0.0204
 7202TIP3    H143021   6.395   0.315   1.307  1.1793 -2.1888 -0.2839
 7202TIP3    H243022   6.277   0.222   1.286  0.1658 -0.6350 -1.7401
 7203TIP3   OH243023   5.755   0.175   4.976 -0.0026  0.0719  0.2770
 7203TIP3    H143024   5.712   0.214   5.052 -1.2164 -0.8255  0.0926
 7203TIP3    H243025   5.732   0.082   4.981  0.0804 -0.0457 -1.0561
 7204TIP3   OH243026   0.567   1.476  13.613  0.1820  0.1629 -0.4676
 7204TIP3    H143027   0.602   1.397  13.573  0.0587 -0.6374  0.9585
 7204TIP3    H243028   0.640   1.538  13.612  2.0992 -1.7273  3.1816
 7205TIP3   OH243029   5.122   1.930  13.483 -0.4581  0.6839 -0.4497
 7205TIP3    H143030   5.167   2.000  13.436  3.3663 -1.5204 -0.4877
 7205TIP3    H243031   5.144   1.851  13.433 -1.2076 -1.0255  1.7797
 7206TIP3   OH243032   2.204   0.497   0.148 -0.3938 -0.3507 -0.1141
 7206TIP3    H143033   2.241   0.570   0.198  0.7914 -0.5302 -0.6760
 7206TIP3    H243034   2.114   0.523   0.130 -0.7844 -0.1548  1.8398
 7207TIP3   OH243035   6.283   6.196   0.928  0.2457 -0.3653 -0.3468
 7207TIP3    H143036   6.269   6.107   0.896 -1.7380  0.3618 -1.7324
 7207TIP3    H243037   6.316   6.185   1.017 -1.0246 -2.5105 -0.0777
 7208TIP3   OH243038   6.726   6.323  16.509  0.0619 -0.2678  0.6953
 7208TIP3    H143039   6.662   6.256  16.531 -0.4837  0.0447  0.0979
 7208TIP3    H243040   6.810   6.286  16.535 -0.2241 -1.2158  0.3006
 7209TIP3   OH243041   2.412   2.224  13.211 -0.3995 -0.2482  0.1765
 7209TIP3    H143042   2.508   2.226  13.214 -0.4151 -0.1143  1.2390
 7209TIP3    H243043   2.390   2.138  13.176  0.1253 -1.5322  2.7428
 7210TIP3   OH243044   5.844   6.215   3.216  0.5773  0.2774 -0.0640
 7210TIP3    H143045   5.798   6.290   3.178  0.1281  0.8497  1.5198
 7210TIP3    H243046   5.777   6.167   3.264  1.2456  0.0326  0.6523
 7211TIP3   OH243047   5.996   6.084  12.504 -0.4465 -0.0357  0.1892
 7211TIP3    H143048   5.969   5.993  12.515  0.2775 -0.1329  1.2689
 7211TIP3    H243049   5.972   6.105  12.413 -0.7686 -1.2389 -0.0222
 7212TIP3   OH243050   5.431   2.254   1.018  0.4342  0.4385 -0.1236
 7212TIP3    H143051   5.477   2.236   0.937 -1.2984 -0.5566 -0.9493
 7212TIP3    H243052   5.441   2.349   1.031  2.2155  0.3372 -0.5052
 7213TIP3   OH243053   0.619   2.214  12.077 -0.6642 -0.0052 -0.4363
 7213TIP3    H143054   0.699   2.268  12.071 -0.2417 -0.7133 -1.3168
 7213TIP3    H243055   0.631   2.164  12.158 -1.0118  1.1185  0.3373
 7214TIP3   OH243056   4.971   3.710   0.638 -0.7755 -0.0764  0.0368
 7214TIP3    H143057   4.905   3.687   0.572 -0.5282  0.8807 -0.5768
 7214TIP3    H243058   4.923   3.761   0.703 -0.9642 -0.7845  0.4589
 7215TIP3   OH243059   5.948   0.789   6.294  0.0207  0.0011  0.7478
 7215TIP3    H143060   6.032   0.807   6.338  1.6863 -0.5287 -1.9766
 7215TIP3    H243061   5.924   0.872   6.253 -0.9995  0.2324  1.7702
 7216TIP3   OH243062   5.094   5.343   2.714 -0.0588  0.0245  0.3800
 7216TIP3    H143063   5.055   5.328   2.628  1.3667 -1.2236 -0.0845
 7216TIP3    H243064   5.176   5.293   2.713  1.6450  2.5882  1.2824
 7217TIP3   OH243065   1.407   0.645   1.720 -0.1378  0.6057 -0.3554
 7217TIP3    H143066   1.454   0.604   1.647 -1.2934  1.3320 -1.5581
 7217TIP3    H243067   1.422   0.586   1.794 -1.5436 -1.9574 -1.9429
 7218TIP3   OH243068   2.044   5.834  11.683 -0.3789 -0.6910  0.1364
 7218TIP3    H143069   2.125   5.884  11.674  0.0398 -1.2502  0.7054
 7218TIP3    H243070   2.004   5.837  11.596  0.9238 -1.5369 -0.5330
 7219TIP3   OH243071   5.008   3.177   5.359  0.0270  0.1868  0.0036
 7219TIP3    H143072   4.975   3.125   5.285 -0.3794 -1.4250  1.2488
 7219TIP3    H243073   4.996   3.120   5.435 -0.9964  2.3744  1.5657
 7220TIP3   OH243074   2.743   0.198   2.563  0.4343 -0.4279  0.1937
 7220TIP3    H143075   2.777   0.287   2.571  1.2306 -0.6181 -0.8436
 7220TIP3    H243076   2.655   0.209   2.527  1.3435 -0.1104 -2.1002
 7221TIP3   OH243077   0.809   1.808  14.120  0.2183 -0.5753  0.2760
 7221TIP3    H143078   0.835   1.754  14.194  2.1507  1.7553  1.4252
 7221TIP3    H243079   0.728   1.851  14.148  0.1124 -0.8589  0.4040
 7222TIP3   OH243080   5.839   4.578  15.850 -0.2630  0.5525  0.1137
 7222TIP3    H143081   5.822   4.486  15.872  0.4069  0.6827  1.2563
 7222TIP3    H243082   5.785   4.594  15.773 -2.2107 -0.1573  1.2392
 7223TIP3   OH243083   1.666   1.044  16.635 -0.6636 -0.2948  0.4325
 7223TIP3    H143084   1.707   0.965  16.600 -2.3103 -1.1474  0.3367
 7223TIP3    H243085   1.705   1.116  16.585  1.1046 -0.9791  0.7524
 7224TIP3   OH243086   4.849   5.149   5.594  0.5664 -0.0326  0.0385
 7224TIP3    H143087   4.823   5.074   5.540 -0.5983 -0.1551  0.7233
 7224TIP3    H243088   4.802   5.223   5.557  0.5885  0.0819  0.2343
 7225TIP3   OH243089   5.134   5.925   3.831  0.2514 -0.1544  0.0392
 7225TIP3    H143090   5.069   5.855   3.826  0.2576 -0.1262 -3.9222
 7225TIP3    H243091   5.087   6.003   3.800  0.9831  1.0355  1.7468
 7226TIP3   OH243092   1.118   5.692   0.052 -0.2267 -0.1925  0.4313
 7226TIP3    H143093   1.037   5.741   0.061  0.2194  0.4408  1.0792
 7226TIP3    H243094   1.176   5.750   0.003 -0.4482 -1.0076 -0.8628
 7227TIP3   OH243095   6.486   3.174   1.571 -0.3162  0.1915 -0.1793
 7227TIP3    H143096   6.397   3.179   1.606 -0.3246 -2.2576  0.3765
 7227TIP3    H243097   6.476   3.195   1.478 -1.1978  1.4605  0.1771
 7228TIP3   OH243098   6.678   2.335  11.445 -0.8037 -0.0424 -0.3602
 7228TIP3    H143099   6.664   2.273  11.373 -0.9479 -2.6236  1.7358
 7228TIP3    H243100   6.770   2.324  11.468 -1.0495 -0.1647  0.6028
 7229TIP3   OH243101   5.431   5.799  11.444 -0.3419  0.3113 -0.3001
 7229TIP3    H143102   5.340   5.769  11.451 -0.7557  1.7506  1.0840
 7229TIP3    H243103   5.472   5.735  11.386 -1.4531 -2.1840  1.4670
 7230TIP3   OH243104   1.620   6.442   2.995  0.4631 -0.2647  0.5891
 7230TIP3    H143105   1.635   6.375   2.929 -1.3915  0.7163 -0.9173
 7230TIP3    H243106   1.585   6.517   2.947  1.9778  1.6553  2.2766
 7231TIP3   OH243107   0.476   5.288  17.039 -0.0477  0.3717  0.5123
 7231TIP3    H143108   0.465   5.354  17.107 -0.0604  1.1369 -0.2202
 7231TIP3    H243109   0.477   5.337  16.957 -2.8394 -0.7483 -0.3016
 7232TIP3   OH243110   1.147   3.760  15.349 -1.1110  0.0103  0.3081
 7232TIP3    H143111   1.171   3.676  15.389 -1.7622 -0.3873 -0.1240
 7232TIP3    H243112   1.052   3.758  15.344 -1.0508  0.0171 -1.3280
 7233TIP3   OH243113   5.835   4.820  10.603  0.1911 -0.1707 -0.0199
 7233TIP3    H143114   5.875   4.783  10.682  0.1285 -0.1237  0.0337
 7233TIP3    H243115   5.789   4.746  10.562  1.3527 -0.5288 -0.7360
 7234TIP3   OH243116   0.567   6.253   2.893  0.1090 -0.2839  0.3479
 7234TIP3    H143117   0.528   6.166   2.896  2.3376 -1.4090 -0.7951
 7234TIP3    H243118   0.567   6.283   2.984 -0.2748 -1.6660  0.8265
 7235TIP3   OH243119   4.948   2.198   4.038  0.0180  0.2329 -0.2396
 7235TIP3    H143120   4.956   2.193   3.942  0.7030  1.2994 -0.2594
 7235TIP3    H243121   5.037   2.216   4.068 -0.5176  1.9909  0.4133
 7236TIP3   OH243122   2.957   3.963   1.927 -0.2070  0.1579  0.2318
 7236TIP3    H143123   2.938   3.967   2.020 -2.5139  1.3878 -0.2253
 7236TIP3    H243124   2.890   3.904   1.891 -0.4872  1.0954 -0.8602
 7237TIP3   OH243125   3.707   3.216   3.234 -0.4849  0.3465  0.7535
 7237TIP3    H143126   3.619   3.254   3.221 -0.6876  0.2325  1.7130
 7237TIP3    H243127   3.723   3.225   3.328  0.9727  1.3080  0.4476
 7238TIP3   OH243128   1.945   6.499  16.161  0.0659 -0.1811  0.0224
 7238TIP3    H143129   1.901   6.570  16.115  0.2092 -0.1301 -0.0359
 7238TIP3    H243130   1.877   6.433  16.175 -0.0660 -0.0305  0.0794
 7239TIP3   OH243131   4.104   0.193  16.024 -0.4904 -0.1755 -0.9275
 7239TIP3    H143132   4.092   0.249  15.948  1.7219  0.1389 -1.1188
 7239TIP3    H243133   4.166   0.241  16.079 -0.8070 -1.1297  0.3092
 7240TIP3   OH243134   5.843   5.459   6.306 -0.1079  0.0482  0.3503
 7240TIP3    H143135   5.875   5.408   6.380 -0.2498  1.7879  1.6603
 7240TIP3    H243136   5.749   5.467   6.321 -0.0268  1.0148  0.3820
 7241TIP3   OH243137   0.672   1.174  16.131  0.1659  0.1866 -0.0047
 7241TIP3    H143138   0.633   1.251  16.172  0.6835  0.5371 -0.1518
 7241TIP3    H243139   0.764   1.198  16.119  0.1421 -0.1154 -0.8575
 7242TIP3   OH243140   3.638   0.329   4.346 -0.2792  0.7672 -0.2499
 7242TIP3    H143141   3.552   0.333   4.386 -0.4167  1.2700 -0.5794
 7242TIP3    H243142   3.690   0.393   4.394  0.1086 -0.0124  0.3909
 7243TIP3   OH243143   3.911   5.959   4.506  0.3240  0.1516 -0.4339
 7243TIP3    H143144   3.817   5.943   4.503 -0.0060  2.0255 -2.6020
 7243TIP3    H243145   3.946   5.917   4.428  0.9114  1.3733 -0.8592
 7244TIP3   OH243146   3.654   0.441  16.066 -0.3128  0.1168  0.2544
 7244TIP3    H143147   3.595   0.401  16.003  2.2900 -1.0911 -1.5664
 7244TIP3    H243148   3.659   0.533  16.039 -1.6220  0.3343  0.6917
 7245TIP3   OH243149   0.707   2.668   4.635  0.1970  0.1707  0.2666
 7245TIP3    H143150   0.707   2.575   4.660  3.8814 -0.2490 -0.6516
 7245TIP3    H243151   0.713   2.667   4.540 -0.4612  1.4103  0.1913
 7246TIP3   OH243152   6.711   0.228   4.477 -0.0984  0.0973  0.3099
 7246TIP3    H143153   6.760   0.245   4.557 -2.3613  0.7966  1.6322
 7246TIP3    H243154   6.747   0.147   4.443  0.4720 -0.5928  2.4196
 7247TIP3   OH243155   1.018   1.669   6.088  0.3174 -0.2283 -0.1288
 7247TIP3    H143156   0.937   1.634   6.124 -0.4338  1.3653 -0.1452
 7247TIP3    H243157   1.067   1.593   6.056 -1.9260 -1.1217 -1.6744
 7248TIP3   OH243158   5.413   6.031   5.994  0.0500  0.3941 -0.0303
 7248TIP3    H143159   5.317   6.029   5.999 -0.0107 -0.0426 -1.0422
 7248TIP3    H243160   5.440   6.069   6.077 -1.1164  2.9943 -0.7267
 7249TIP3   OH243161   6.437   5.952  15.268 -0.1188 -0.3502  0.1261
 7249TIP3    H143162   6.503   6.016  15.239 -0.4359  0.4810  1.1989
 7249TIP3    H243163   6.357   6.003  15.277 -0.7743 -1.2329 -0.5422
 7250TIP3   OH243164   5.769   3.494   0.983 -0.1687  0.6227 -0.1059
 7250TIP3    H143165   5.757   3.580   0.943  3.0706  1.7847  1.0664
 7250TIP3    H243166   5.695   3.484   1.043  0.0822  3.2490  0.7363
 7251TIP3   OH243167   5.619   5.886  12.390 -0.3017  0.3702 -0.0701
 7251TIP3    H143168   5.707   5.857  12.365 -1.0043 -0.0881 -2.1604
 7251TIP3    H243169   5.576   5.808  12.424 -0.2491  0.3757  0.0107
 7252TIP3   OH243170   3.964   5.222  16.238  0.2334  0.4817 -0.2992
 7252TIP3    H143171   3.955   5.176  16.321  0.1170 -1.6090 -1.4081
 7252TIP3    H243172   3.915   5.304  16.251 -0.8942 -0.3844  1.2679
 7253TIP3   OH243173   0.323   3.375   0.309  0.0287 -0.1278 -0.3411
 7253TIP3    H143174   0.245   3.379   0.363  0.0463 -1.7517 -0.1413
 7253TIP3    H243175   0.373   3.301   0.344  0.3681 -0.7995 -2.1248
 7254TIP3   OH243176   1.878   0.723  13.814 -0.2674  0.1333 -0.0892
 7254TIP3    H143177   1.896   0.640  13.858  1.2847  0.3108 -0.3274
 7254TIP3    H243178   1.893   0.704  13.721 -0.6902  0.4802 -0.2320
 7255TIP3   OH243179   1.746   0.993  14.194 -0.3413  0.1694 -0.0587
 7255TIP3    H143180   1.839   0.970  14.198 -0.2455  0.7439  2.3000
 7255TIP3    H243181   1.742   1.063  14.128  0.6447 -0.7461 -1.1452
 7256TIP3   OH243182   6.278   1.509   4.867  0.7767 -0.5132 -0.5574
 7256TIP3    H143183   6.240   1.487   4.782  1.1101  0.9157 -1.1086
 7256TIP3    H243184   6.367   1.473   4.863  1.7588  1.8141 -1.9448
 7257TIP3   OH243185   3.168   6.567   0.782 -0.3265 -0.3505  0.3783
 7257TIP3    H143186   3.249   6.519   0.800 -1.0319 -1.1349  1.6270
 7257TIP3    H243187   3.187   6.658   0.805  0.0291 -0.6376  1.2269
 7258TIP3   OH243188   1.713   3.349  16.425 -0.0076  0.6396  0.3514
 7258TIP3    H143189   1.733   3.363  16.333  0.0993  0.3462  0.3291
 7258TIP3    H243190   1.625   3.311  16.425  0.3651 -0.2511  0.3100
 7259TIP3   OH243191   2.123   6.704   5.726 -0.3703  0.6539  0.1681
 7259TIP3    H143192   2.119   6.643   5.653 -0.3902  0.0991  0.6253
 7259TIP3    H243193   2.059   6.772   5.704 -0.6723  0.2775 -0.1369
 7260TIP3   OH243194   2.511   1.732   0.059  0.0924  0.1502 -0.2666
 7260TIP3    H143195   2.585   1.763   0.112  1.2228 -1.0650 -1.0754
 7260TIP3    H243196   2.434   1.760   0.108  1.0758  1.4864  0.5876
 7261TIP3   OH243197   6.204   5.416   3.922 -0.3916  0.0346  0.5616
 7261TIP3    H143198   6.119   5.384   3.952  0.0335 -1.7362 -0.0399
 7261TIP3    H243199   6.265   5.344   3.939  0.5026  0.2730 -1.3398
 7262TIP3   OH243200   6.770   3.354   2.621 -0.2330 -0.5115  0.0699
 7262TIP3    H143201   6.699   3.302   2.584 -1.2723 -0.0512  1.3407
 7262TIP3    H243202   6.777   3.430   2.563 -0.9852 -0.4169  0.0942
 7263TIP3   OH243203   5.587   4.106  14.255 -0.2727  0.4718 -0.3562
 7263TIP3    H143204   5.646   4.047  14.208  1.6556  2.6097 -0.8328
 7263TIP3    H243205   5.593   4.078  14.346 -1.9524 -2.0320 -0.9365
 7264TIP3   OH243206   0.311   2.694  11.731 -0.5042 -0.5205 -0.4364
 7264TIP3    H143207   0.310   2.643  11.650 -0.5291 -1.5382  0.1839
 7264TIP3    H243208   0.241   2.758  11.720 -1.3986 -1.5121 -0.6956
 7265TIP3   OH243209   6.040   6.163   6.573  0.2037  0.6494 -0.4031
 7265TIP3    H143210   6.107   6.154   6.642  0.6908  0.3480 -0.9051
 7265TIP3    H243211   5.988   6.238   6.600  1.1777  1.3318 -0.3504
 7266TIP3   OH243212   2.125   4.100  11.658 -0.0902  0.0108 -0.4497
 7266TIP3    H143213   2.055   4.115  11.720  0.0824 -1.1366  0.0436
 7266TIP3    H243214   2.128   4.005  11.646  1.7707 -0.0364  0.0289
 7267TIP3   OH243215   5.994   0.301   1.422  0.0778 -0.7288  0.4957
 7267TIP3    H143216   6.045   0.329   1.498  0.4544 -1.3976  0.5011
 7267TIP3    H243217   6.045   0.230   1.383  1.0706  1.0784 -1.7465
 7268TIP3   OH243218   3.458   4.331   5.377 -0.5414  0.0397  0.2340
 7268TIP3    H143219   3.428   4.301   5.463  0.9604 -0.9884  0.4219
 7268TIP3    H243220   3.552   4.343   5.386 -0.6563  2.0962 -0.6699
 7269TIP3   OH243221   2.583   5.962   5.137 -0.0659 -0.4880 -0.3118
 7269TIP3    H143222   2.511   5.917   5.181  1.0893 -0.9024  1.2283
 7269TIP3    H243223   2.619   6.020   5.205  0.4797  0.3887 -1.3292
 7270TIP3   OH243224   5.068   2.454  11.678  0.1783  0.0258 -0.0024
 7270TIP3    H143225   5.019   2.447  11.596  0.8019  2.5077 -0.6537
 7270TIP3    H243226   5.012   2.506  11.735 -0.1369 -1.4689  1.1140
 7271TIP3   OH243227   5.609   1.561   1.122 -0.6465  0.7465  0.1811
 7271TIP3    H143228   5.548   1.633   1.106 -0.7919  0.7750  0.8497
 7271TIP3    H243229   5.554   1.487   1.146 -0.5626  0.1214 -1.4733
 7272TIP3   OH243230   3.480   2.694  13.280 -0.1709 -0.0298 -0.1842
 7272TIP3    H143231   3.490   2.641  13.201 -1.9928  1.2511 -1.3633
 7272TIP3    H243232   3.449   2.633  13.347 -0.7938 -0.7317 -1.0966
 7273TIP3   OH243233   6.446   6.403   2.447  0.5807 -0.0642 -0.5122
 7273TIP3    H143234   6.452   6.483   2.499 -0.0445 -0.3971  0.0832
 7273TIP3    H243235   6.537   6.382   2.426  0.8396  0.1365  0.3654
 7274TIP3   OH243236   0.041   3.468   4.429 -0.3772 -0.2725 -0.0219
 7274TIP3    H143237   0.062   3.402   4.496 -1.6844 -2.7673 -1.9328
 7274TIP3    H243238   0.125   3.512   4.413  0.5803 -1.5082  1.2894
 7275TIP3   OH243239   0.283   6.663  12.428  0.2356 -0.5451  0.0939
 7275TIP3    H143240   0.189   6.678  12.440  0.1322 -1.8720  1.1541
 7275TIP3    H243241   0.305   6.713  12.350 -1.4530 -0.6084 -0.4687
 7276TIP3   OH243242   3.911   2.119  12.982  0.2715 -0.0285  0.0808
 7276TIP3    H143243   4.004   2.110  12.961  0.0705  1.3612 -1.6370
 7276TIP3    H243244   3.866   2.090  12.903 -0.7051  0.8342  0.3100
 7277TIP3   OH243245   0.928   4.417   2.992  0.5276 -0.0702 -0.5391
 7277TIP3    H143246   0.849   4.368   2.968 -0.1525  0.2110  0.9974
 7277TIP3    H243247   0.897   4.506   3.006  1.2570  0.1923 -0.5883
 7278TIP3   OH243248   4.375   4.540  12.182  0.7389  0.3808  0.7153
 7278TIP3    H143249   4.399   4.464  12.128 -0.7305 -0.1344  0.7591
 7278TIP3    H243250   4.356   4.609  12.119  0.8265  0.3322  0.6356
 7279TIP3   OH243251   1.393   0.934  16.538 -0.3030  0.5318  0.6115
 7279TIP3    H143252   1.407   1.018  16.583  0.3637 -0.7653  2.9614
 7279TIP3    H243253   1.376   0.872  16.608 -0.8209 -1.3280 -1.0838
 7280TIP3   OH243254   3.811   3.576  13.741 -0.3753 -0.4559 -0.6291
 7280TIP3    H143255   3.879   3.524  13.697  0.7040  0.0267  0.4083
 7280TIP3    H243256   3.859   3.648  13.782 -1.1701 -1.3212  2.0384
 7281TIP3   OH243257   1.056   2.442  11.179 -0.3122 -0.3792  0.2985
 7281TIP3    H143258   1.094   2.497  11.110  1.3913 -1.1717  0.5386
 7281TIP3    H243259   1.120   2.372  11.191 -2.0623 -1.9996  0.5416
 7282TIP3   OH243260   5.580   6.630   4.393 -0.2731  0.0549 -0.2329
 7282TIP3    H143261   5.650   6.694   4.377 -0.6904  0.8442  0.9692
 7282TIP3    H243262   5.500   6.674   4.366 -0.3121 -0.9283 -1.8149
 7283TIP3   OH243263   1.829   2.039   3.165 -0.2682  0.0586 -0.4073
 7283TIP3    H143264   1.735   2.023   3.160 -0.0582 -1.3311 -0.4602
 7283TIP3    H243265   1.837   2.130   3.193 -1.6446 -0.3761  1.5433
 7284TIP3   OH243266   0.278   3.785   4.153  0.3317  0.0382  0.1392
 7284TIP3    H143267   0.352   3.846   4.150  1.3184 -1.0563  1.0879
 7284TIP3    H243268   0.287   3.733   4.074  0.8523 -0.3841  0.4700
 7285TIP3   OH243269   1.476   0.372   2.931 -0.4046  0.4674  0.0458
 7285TIP3    H143270   1.529   0.411   3.000  1.0095 -1.5500  0.2138
 7285TIP3    H243271   1.386   0.377   2.964 -0.1436  2.3099  0.5897
 7286TIP3   OH243272   0.916   1.689   1.039 -0.4968  0.3340  0.1120
 7286TIP3    H143273   0.961   1.676   0.955  1.3226 -0.0091  1.0807
 7286TIP3    H243274   0.918   1.603   1.081  0.0324  0.8280  1.1433
 7287TIP3   OH243275   1.554   1.974  16.481  0.1354 -0.0748  0.2266
 7287TIP3    H143276   1.565   1.888  16.523  0.2837 -0.3251 -0.3181
 7287TIP3    H243277   1.494   2.021  16.539  0.1975 -0.4800  0.6297
 7288TIP3   OH243278   4.743   5.715  12.053 -0.0851 -0.2568  0.0488
 7288TIP3    H143279   4.689   5.649  12.097 -0.8510  0.5145  0.3161
 7288TIP3    H243280   4.771   5.773  12.124 -0.9724  0.7527 -0.3857
 7289TIP3   OH243281   3.706   1.911  12.212 -0.0777 -0.6990 -0.6847
 7289TIP3    H143282   3.639   1.978  12.222  0.9207  0.3187 -0.6247
 7289TIP3    H243283   3.661   1.828  12.228 -1.3282 -0.0425 -0.7495
 7290TIP3   OH243284   3.758   2.565   3.879 -0.1786  0.2039 -0.3134
 7290TIP3    H143285   3.831   2.601   3.929  0.5896 -1.9246  0.1853
 7290TIP3    H243286   3.700   2.640   3.865  2.3198  2.1032 -1.2249
 7291TIP3   OH243287   5.244   3.861   6.352 -0.0839 -0.3215 -0.5930
 7291TIP3    H143288   5.269   3.908   6.431 -0.9056 -1.9944  0.7159
 7291TIP3    H243289   5.321   3.869   6.294  0.5052  0.9626  0.3267
 7292TIP3   OH243290   0.787   2.321   1.287 -0.2145 -0.6285  0.3777
 7292TIP3    H143291   0.850   2.250   1.301 -1.7822 -2.1284  0.1506
 7292TIP3    H243292   0.759   2.347   1.374  0.8088  0.1634  0.4876
 7293TIP3   OH243293   4.775   4.558  12.725 -0.0675  0.4110 -0.3073
 7293TIP3    H143294   4.731   4.473  12.717  0.7734 -0.1058  0.3598
 7293TIP3    H243295   4.859   4.538  12.766  1.1975  1.2369 -2.3117
 7294TIP3   OH243296   1.018   4.595   0.124  0.0466  0.0490 -0.3452
 7294TIP3    H143297   0.968   4.521   0.089  0.4926 -1.6138  2.3099
 7294TIP3    H243298   0.964   4.629   0.196  1.7109 -0.4427  1.1935
 7295TIP3   OH243299   0.368   4.546   2.263 -0.7190 -0.1802 -0.0176
 7295TIP3    H143300   0.417   4.555   2.344  0.1886  0.0682 -0.5773
 7295TIP3    H243301   0.376   4.632   2.221 -1.9000 -0.0395  0.0168
 7296TIP3   OH243302   5.898   5.282  16.980  0.3832  0.1678 -0.4490
 7296TIP3    H143303   5.837   5.333  17.032  0.0199 -0.3178 -0.3963
 7296TIP3    H243304   5.963   5.250  17.043  0.6355  0.6006 -0.4895
 7297TIP3   OH243305   2.684   0.414  13.393 -0.0155 -0.0306  0.1938
 7297TIP3    H143306   2.610   0.473  13.378  0.9644  1.5772  1.3876
 7297TIP3    H243307   2.749   0.440  13.327 -1.3873 -3.3024 -2.8004
 7298TIP3   OH243308   3.002   6.023  12.371 -0.0442 -0.2199  0.5452
 7298TIP3    H143309   2.965   6.012  12.458 -0.8906 -0.9817  0.0980
 7298TIP3    H243310   2.932   6.064  12.320 -0.3521 -1.7447 -0.3286
 7299TIP3   OH243311   1.738   4.890   3.885 -0.3686 -0.3504  0.5733
 7299TIP3    H143312   1.745   4.886   3.981 -1.6495 -0.0393  0.6911
 7299TIP3    H243313   1.723   4.983   3.867 -1.5808 -0.6088  0.1872
 7300TIP3   OH243314   6.287   6.103  13.182 -0.3825  0.2097  0.1491
 7300TIP3    H143315   6.290   6.074  13.273  0.3886 -2.9415 -0.7262
 7300TIP3    H243316   6.198   6.084  13.154 -0.2309 -0.1643 -0.0934
 7301TIP3   OH243317   4.548   0.602   3.832 -0.0994 -0.2877 -0.5052
 7301TIP3    H143318   4.536   0.634   3.922 -1.5341  0.2742 -0.8704
 7301TIP3    H243319   4.642   0.606   3.818  0.0280  0.9226  0.5127
 7302TIP3   OH243320   1.068   1.026  13.447 -0.1765 -0.0212 -0.0138
 7302TIP3    H143321   1.109   0.974  13.377 -0.2062  0.5296 -0.4535
 7302TIP3    H243322   1.138   1.040  13.510 -0.3725 -1.2480  0.4952
 7303TIP3   OH243323   3.687   4.252  10.671 -0.5235 -0.0666  0.3444
 7303TIP3    H143324   3.688   4.330  10.615 -0.3415 -0.5140 -0.2850
 7303TIP3    H243325   3.630   4.191  10.625  0.8274 -1.0020 -0.1461
 7304TIP3   OH243326   1.736   6.680   3.117 -0.3168  0.1278 -0.0035
 7304TIP3    H143327   1.821   6.667   3.077 -1.0520  3.3268 -2.9823
 7304TIP3    H243328   1.692   6.596   3.106  2.0005 -1.2896  0.7448
 7305TIP3   OH243329   2.526   0.891  12.253 -0.7253 -0.4745  0.4893
 7305TIP3    H143330   2.478   0.859  12.177  1.5143 -0.6166 -0.9796
 7305TIP3    H243331   2.551   0.980  12.229  0.7958 -0.8353  0.6036
 7306TIP3   OH243332   2.011   0.780  10.856  0.3021 -0.4460  0.6119
 7306TIP3    H143333   1.949   0.818  10.793  1.0125 -0.0126  0.1679
 7306TIP3    H243334   1.956   0.724  10.912 -0.0208 -2.8520 -1.8980
 7307TIP3   OH243335   4.649   2.169  10.900 -0.7191  0.3212  0.2451
 7307TIP3    H143336   4.651   2.084  10.857 -0.9611 -1.0362  2.6903
 7307TIP3    H243337   4.673   2.232  10.832 -0.3452 -1.7007 -1.5978
 7308TIP3   OH243338   2.575   1.419  14.727  0.1281 -0.4033 -0.1211
 7308TIP3    H143339   2.646   1.412  14.663 -0.2722  0.2317 -0.6502
 7308TIP3    H243340   2.513   1.351  14.700  1.0040 -1.7182  1.0005
 7309TIP3   OH243341   1.387   1.976  13.581 -0.4009  0.0052 -0.6000
 7309TIP3    H143342   1.303   1.971  13.625  0.1323  3.0676  1.0883
 7309TIP3    H243343   1.368   2.021  13.498 -0.2660  3.4798  1.0401
 7310TIP3   OH243344   4.940   3.588  12.451  0.1097  0.3967 -0.4204
 7310TIP3    H143345   4.959   3.669  12.498  2.5107 -0.5948  0.5043
 7310TIP3    H243346   4.998   3.590  12.375  0.6763 -0.6962 -0.0408
 7311TIP3   OH243347   6.088   0.987   2.972  0.0834 -0.2601  0.1940
 7311TIP3    H143348   5.995   1.010   2.976 -0.1783 -1.1549 -0.3857
 7311TIP3    H243349   6.129   1.062   2.928 -0.5722 -0.3911 -0.6825
 7312TIP3   OH243350   0.069   0.360   4.654  0.0997  0.3441 -0.1656
 7312TIP3    H143351   0.128   0.345   4.728 -0.5384 -2.0094 -0.0391
 7312TIP3    H243352  -0.011   0.394   4.694  0.2848  0.5235  0.0533
 7313TIP3   OH243353   4.810   2.324  16.556 -0.0178  0.3734 -0.3557
 7313TIP3    H143354   4.836   2.319  16.648 -0.0200 -2.2598 -0.4124
 7313TIP3    H243355   4.730   2.377  16.557 -1.4848 -1.6438  1.6122
 7314TIP3   OH243356   0.283   0.698   1.948 -0.0595 -0.4268 -0.4687
 7314TIP3    H143357   0.327   0.618   1.922 -0.6563 -0.5606 -1.0961
 7314TIP3    H243358   0.190   0.682   1.930 -0.2231  0.2878 -0.3132
 7315TIP3   OH243359   4.573   6.269  16.233  0.1759 -0.2837  0.6581
 7315TIP3    H143360   4.491   6.231  16.201 -0.1243  0.1827  0.8705
 7315TIP3    H243361   4.557   6.363  16.233  1.8854  0.1839 -2.7582
 7316TIP3   OH243362   6.187   1.948  11.586 -0.2662  0.1381  0.1188
 7316TIP3    H143363   6.173   2.041  11.566 -0.6153  0.3770  1.3867
 7316TIP3    H243364   6.174   1.942  11.680  1.6599 -0.8545  0.3779
 7317TIP3   OH243365   0.816   5.390  14.998 -0.3274  0.9332  0.1882
 7317TIP3    H143366   0.849   5.302  15.018  0.3871  1.3717  1.0399
 7317TIP3    H243367   0.762   5.379  14.920 -0.6650 -0.3455  0.5859
 7318TIP3   OH243368   0.768   5.929   6.632 -0.4025  0.1569 -0.2892
 7318TIP3    H143369   0.690   5.929   6.687 -0.9189  0.7012 -1.0168
 7318TIP3    H243370   0.761   5.849   6.580  0.0889 -0.3613  0.4199
 7319TIP3   OH243371   5.631   6.584  11.085 -0.1454  0.2293  0.0097
 7319TIP3    H143372   5.551   6.539  11.113  0.5242 -0.3018  1.1152
 7319TIP3    H243373   5.614   6.607  10.993 -1.4361 -0.1518  0.1276
 7320TIP3   OH243374   0.895   2.606  11.711 -0.2618  0.6336  0.2501
 7320TIP3    H143375   0.881   2.584  11.619  0.9431  1.1985 -0.0825
 7320TIP3    H243376   0.949   2.535  11.745 -1.7480 -0.2338  0.8718
 7321TIP3   OH243377   2.447   5.609   0.039 -0.3599 -0.0302 -0.2153
 7321TIP3    H143378   2.444   5.695   0.080  0.4052  0.8813 -1.9368
 7321TIP3    H243379   2.493   5.553   0.102  1.0673  1.3820  0.0730
 7322TIP3   OH243380   3.070   2.443   5.680  0.2313 -0.1409 -0.1864
 7322TIP3    H143381   3.050   2.349   5.684  2.1350 -0.5467  0.7461
 7322TIP3    H243382   3.072   2.462   5.586 -1.6804 -0.6421 -0.3817
 7323TIP3   OH243383   5.225   1.577  14.633 -0.1031 -0.7558  0.4308
 7323TIP3    H143384   5.203   1.500  14.582 -0.5131  0.2061 -0.9095
 7323TIP3    H243385   5.145   1.629  14.634  0.6910  0.5638 -0.4057
 7324TIP3   OH243386   3.934   1.452   2.680  0.0594 -0.3341 -0.2527
 7324TIP3    H143387   3.981   1.531   2.653 -0.1866  0.6446  1.9564
 7324TIP3    H243388   3.991   1.412   2.746 -0.0494 -1.7495 -0.9932
 7325TIP3   OH243389   5.987   0.043  16.661 -0.3558  0.3335 -0.5426
 7325TIP3    H143390   6.068   0.090  16.680 -0.1128  0.2190 -1.2619
 7325TIP3    H243391   6.015  -0.047  16.643 -0.8916 -0.3470  1.6700
 7326TIP3   OH243392   4.544   5.607   3.019  0.1737 -0.0675  0.3898
 7326TIP3    H143393   4.639   5.610   3.017  0.1472  1.4891 -0.4375
 7326TIP3    H243394   4.520   5.540   2.955  0.7012  0.1510 -0.0411
 7327TIP3   OH243395   1.359   5.086   3.743 -0.2830 -1.0984 -0.0548
 7327TIP3    H143396   1.363   5.018   3.676 -2.6264 -0.0589 -1.3620
 7327TIP3    H243397   1.371   5.168   3.695 -0.1903 -0.4332  1.0672
 7328TIP3   OH243398   1.698   1.504   1.337  0.2295 -0.3596  0.0508
 7328TIP3    H143399   1.762   1.554   1.287 -1.2130  0.4807 -1.0260
 7328TIP3    H243400   1.649   1.569   1.386 -0.6102 -0.8656 -0.0982
 7329TIP3   OH243401   5.945   1.251  16.535  0.2212 -0.0880 -0.3147
 7329TIP3    H143402   5.923   1.224  16.624 -0.1153  1.7293  0.2030
 7329TIP3    H243403   5.882   1.321  16.516  2.0897  1.5299 -0.8583
 7330TIP3   OH243404   1.359   6.095   4.166 -0.1567  0.2259 -0.8236
 7330TIP3    H143405   1.279   6.043   4.160 -0.7074  0.9938 -0.3440
 7330TIP3    H243406   1.430   6.032   4.152 -0.8314 -0.5104 -1.0043
 7331TIP3   OH243407   4.010   0.207  11.172 -0.8250 -0.3543  0.2999
 7331TIP3    H143408   4.005   0.123  11.219 -0.8544 -0.0745  0.8067
 7331TIP3    H243409   3.972   0.189  11.086 -1.0323 -0.8041  0.4828
 7332TIP3   OH243410   2.982   0.261   4.609 -0.3005 -0.1710  0.2822
 7332TIP3    H143411   3.045   0.189   4.603  0.1712  0.1582  1.1285
 7332TIP3    H243412   2.948   0.271   4.520  1.9873  0.6908 -0.5564
 7333TIP3   OH243413   3.070   6.272  15.567 -0.1699 -0.1764  0.0886
 7333TIP3    H143414   2.998   6.318  15.611  0.3209  0.7002  0.0102
 7333TIP3    H243415   3.028   6.221  15.498 -1.0795 -2.3070  2.0766
 7334TIP3   OH243416   6.287   6.447  14.424 -0.5190  0.4188 -0.0071
 7334TIP3    H143417   6.286   6.355  14.450  1.9678  0.3174  0.0339
 7334TIP3    H243418   6.261   6.495  14.502  0.4092 -0.1845  0.6959
 7335TIP3   OH243419   6.597   0.474   3.319  0.2499 -0.1774 -0.2950
 7335TIP3    H143420   6.536   0.516   3.379 -1.7404 -2.4561 -0.5667
 7335TIP3    H243421   6.590   0.526   3.238 -0.2939  0.4175  0.1237
 7336TIP3   OH243422   6.116   0.061   4.977  0.4043  0.2167  0.0553
 7336TIP3    H143423   6.146  -0.003   5.042 -0.6485 -0.5823 -0.2270
 7336TIP3    H243424   6.123   0.015   4.893 -1.8016 -0.0964 -0.0016
 7337TIP3   OH243425   5.976   4.131   5.675 -0.4175  0.2635  0.6632
 7337TIP3    H143426   5.919   4.208   5.672 -0.7873 -0.0440 -0.3462
 7337TIP3    H243427   6.064   4.167   5.689 -0.6005  0.8681  0.2968
 7338TIP3   OH243428   3.566   3.062   1.284 -0.1429  0.0877 -0.3121
 7338TIP3    H143429   3.488   3.017   1.319 -0.3609  0.5394 -0.2165
 7338TIP3    H243430   3.614   2.993   1.238 -0.2366 -0.3549  0.2335
 7339TIP3   OH243431   0.790   2.493  13.052  0.1219 -0.1419 -0.2109
 7339TIP3    H143432   0.874   2.521  13.090  1.4665 -4.2085  0.3036
 7339TIP3    H243433   0.728   2.497  13.125 -0.2064  2.5896 -0.5204
 7340TIP3   OH243434   2.716   6.750  16.473 -0.0598 -0.2695 -0.7324
 7340TIP3    H143435   2.627   6.758  16.440 -0.1480  3.1890 -0.0499
 7340TIP3    H243436   2.765   6.820  16.428  1.2708  0.5752  1.8386
 7341TIP3   OH243437   1.315   6.294   1.268 -0.5378 -0.3223 -0.7382
 7341TIP3    H143438   1.346   6.333   1.350  0.5882 -1.2540 -0.6923
 7341TIP3    H243439   1.357   6.346   1.199  0.4635 -1.0340 -0.6835
 7342TIP3   OH243440   0.615   3.773   3.873 -0.2414  0.1103  0.2521
 7342TIP3    H143441   0.625   3.855   3.825 -0.6743  0.5317  0.8792
 7342TIP3    H243442   0.687   3.772   3.935 -1.4468  1.0730  1.7478
 7343TIP3   OH243443   6.742   0.061  14.252  0.3240 -0.6326 -0.1658
 7343TIP3    H143444   6.663   0.113  14.240 -0.8055 -2.5592 -1.7003
 7343TIP3    H243445   6.800   0.087  14.181 -0.1798 -1.3245 -0.8428
 7344TIP3   OH243446   3.114   2.199  12.273 -0.2134  0.1424 -0.1079
 7344TIP3    H143447   3.159   2.144  12.337 -0.2821 -0.7275 -0.7975
 7344TIP3    H243448   3.142   2.288  12.295  1.2878 -0.3108 -0.0486
 7345TIP3   OH243449   5.700   3.714   5.334  0.5524 -0.4434  0.4725
 7345TIP3    H143450   5.793   3.710   5.312  0.2467  0.3313 -1.1391
 7345TIP3    H243451   5.682   3.807   5.349 -0.2606 -0.3517 -0.8632
 7346TIP3   OH243452   4.081   4.175   3.676 -0.4809  0.5616  0.0722
 7346TIP3    H143453   4.013   4.113   3.651  1.0499 -0.7449 -1.0422
 7346TIP3    H243454   4.098   4.226   3.597  2.0033 -1.3016 -0.7389
 7347TIP3   OH243455   2.095   5.005  12.498  0.0694 -0.0945  0.3552
 7347TIP3    H143456   2.018   5.039  12.544 -1.3276  0.4674 -2.1922
 7347TIP3    H243457   2.063   4.987  12.409  2.1467 -2.8400  0.0439
 7348TIP3   OH243458   3.322   2.544   5.146  0.1391 -0.1167 -0.2632
 7348TIP3    H143459   3.248   2.603   5.140 -0.4674 -0.9842 -2.0961
 7348TIP3    H243460   3.283   2.457   5.160  0.8307 -0.4839 -0.5338
 7349TIP3   OH243461   5.282   3.953  10.567  0.1661 -0.0353 -0.5973
 7349TIP3    H143462   5.358   3.918  10.520  0.9903  0.1870  0.5398
 7349TIP3    H243463   5.315   3.977  10.653 -1.3672 -0.6755  0.2186
 7350TIP3   OH243464   5.956   0.504  14.337 -0.1074 -0.5182  0.2049
 7350TIP3    H143465   6.024   0.440  14.356 -1.1931 -2.0604 -0.8450
 7350TIP3    H243466   5.891   0.492  14.406  0.9937  1.5342  1.6960
 7351TIP3   OH243467   6.697   0.052  12.640  0.0212 -0.3599 -0.2453
 7351TIP3    H143468   6.610   0.036  12.676 -1.2800 -0.0002 -2.9722
 7351TIP3    H243469   6.741   0.104  12.706 -1.9728 -0.2220  1.0631
 7352TIP3   OH243470   5.844   4.012   1.014  0.3532 -0.1733  0.4878
 7352TIP3    H143471   5.781   3.996   1.084  1.9000 -1.9498  1.5575
 7352TIP3    H243472   5.825   3.945   0.948 -1.2692  1.6472 -1.0439
 7353TIP3   OH243473   1.455   2.779  10.573 -0.5090  0.0567  0.1152
 7353TIP3    H143474   1.383   2.741  10.623  1.8566 -1.5118  2.5955
 7353TIP3    H243475   1.477   2.860  10.619 -1.5382  1.3486 -1.5281
 7354TIP3   OH243476   5.740   5.496  14.205  0.0589 -0.3570 -0.2455
 7354TIP3    H143477   5.774   5.490  14.294  0.0152  1.0725 -0.1135
 7354TIP3    H243478   5.645   5.491  14.215 -0.0295  1.2216 -0.0390
 7355TIP3   OH243479   1.830   6.567   0.919 -0.1259 -0.1880  0.1955
 7355TIP3    H143480   1.809   6.542   1.009  0.3308 -3.3171 -0.4394
 7355TIP3    H243481   1.798   6.494   0.866  0.1408  1.2926 -2.1471
 7356TIP3   OH243482   6.645   5.677   3.015  0.6049 -0.3827 -0.2810
 7356TIP3    H143483   6.663   5.770   3.030  0.5939 -0.8511  4.0174
 7356TIP3    H243484   6.566   5.676   2.961 -1.3796  2.3188  2.2118
 7357TIP3   OH243485   5.257   3.665   1.710  0.6780 -0.5278 -0.2304
 7357TIP3    H143486   5.279   3.754   1.736 -1.0493 -0.5746  1.6899
 7357TIP3    H243487   5.244   3.669   1.616 -0.8788  1.6333  0.0102
 7358TIP3   OH243488   6.250   4.712   2.428 -0.4897 -0.4426  0.6722
 7358TIP3    H143489   6.314   4.695   2.497 -0.5802 -0.8057  0.6667
 7358TIP3    H243490   6.249   4.632   2.375  0.1985  0.1368 -0.2578
 7359TIP3   OH243491   0.720   5.227   1.845  0.0461  0.0951  0.1347
 7359TIP3    H143492   0.727   5.316   1.810  1.0576  0.4379  1.1676
 7359TIP3    H243493   0.633   5.224   1.884 -0.5408  0.1607 -1.1071
 7360TIP3   OH243494   4.192   5.914  11.976  0.1001 -0.1195  0.0657
 7360TIP3    H143495   4.127   5.871  11.920  0.7930  1.0273 -1.7035
 7360TIP3    H243496   4.230   5.843  12.027 -1.6750 -0.9805  0.2387
 7361TIP3   OH243497   4.308   3.536   5.897  0.6003 -0.0419  0.1274
 7361TIP3    H143498   4.402   3.552   5.912  0.6464  0.0976 -0.3141
 7361TIP3    H243499   4.286   3.468   5.961  0.8099  0.5004  0.7990
 7362TIP3   OH243500   2.119   3.285  11.041 -0.4220  0.3240  0.0843
 7362TIP3    H143501   2.059   3.258  11.111 -1.3040  1.5911 -0.1587
 7362TIP3    H243502   2.122   3.209  10.982 -0.6423 -0.2886  0.8517
 7363TIP3   OH243503   0.768   0.592  12.112  0.4825  0.2773  0.6022
 7363TIP3    H143504   0.733   0.504  12.128  1.5741 -0.0789  1.0955
 7363TIP3    H243505   0.846   0.578  12.059 -0.0665  1.0649 -0.4488
 7364TIP3   OH243506   1.256   6.055  14.408  0.1424  0.0084 -0.9312
 7364TIP3    H143507   1.338   6.103  14.416 -0.6516  1.2362  0.4759
 7364TIP3    H243508   1.193   6.121  14.379 -0.4209 -0.8510 -1.7219
 7365TIP3   OH243509   0.149   5.327  12.800  0.4066  0.4888 -0.1184
 7365TIP3    H143510   0.186   5.402  12.755  0.7816  0.4687  0.1510
 7365TIP3    H243511   0.136   5.357  12.890  1.6454 -0.1121  0.2843
 7366TIP3   OH243512   4.963   4.572  15.951 -0.7909 -0.1355  0.2952
 7366TIP3    H143513   5.000   4.654  15.920 -2.5893  0.2472 -0.9660
 7366TIP3    H243514   5.036   4.529  15.996  0.5286  1.5640 -0.0969
 7367TIP3   OH243515   5.812   4.843   5.334 -0.0817  0.4014  0.0041
 7367TIP3    H143516   5.764   4.814   5.256  0.4933  0.4741 -0.3906
 7367TIP3    H243517   5.761   4.916   5.369 -0.3917  0.3102 -0.2543
 7368TIP3   OH243518   4.301   0.724   3.034 -0.4806  0.0241 -0.1426
 7368TIP3    H143519   4.321   0.804   3.081  0.7401  0.1609 -0.8797
 7368TIP3    H243520   4.225   0.746   2.979 -0.1414  0.6753 -0.3540
 7369TIP3   OH243521   4.850   1.995  13.537 -0.0571  0.0597  0.5816
 7369TIP3    H143522   4.931   1.945  13.541 -1.0400 -1.7497 -0.7762
 7369TIP3    H243523   4.782   1.933  13.563 -1.1253  1.3239  0.9494
 7370TIP3   OH243524   6.268   3.181   6.332 -0.3465 -0.0979  0.3017
 7370TIP3    H143525   6.270   3.273   6.358 -0.5931 -0.9967  3.9110
 7370TIP3    H243526   6.180   3.168   6.296 -0.3061  1.0179 -0.2422
 7371TIP3   OH243527   5.189   1.213  16.067  0.1823 -0.1744  0.1620
 7371TIP3    H143528   5.206   1.119  16.058 -2.9233 -0.8838  0.2684
 7371TIP3    H243529   5.203   1.249  15.980 -0.4113 -1.1315 -0.3486
 7372TIP3   OH243530   5.404   2.323  11.677  0.0782  0.1640 -0.1897
 7372TIP3    H143531   5.319   2.362  11.657 -0.0711 -0.8768 -1.8944
 7372TIP3    H243532   5.383   2.246  11.729 -0.4060 -1.6988 -2.9096
 7373TIP3   OH243533   4.850   2.052  11.080 -0.1433  0.6397 -0.1899
 7373TIP3    H143534   4.809   2.112  11.017 -1.0860 -0.5433 -0.7591
 7373TIP3    H243535   4.810   2.075  11.164  0.3786  1.5681 -0.1812
 7374TIP3   OH243536   4.245   1.933  16.877  1.1572  0.1332 -0.6364
 7374TIP3    H143537   4.281   1.845  16.891  1.1917  0.3014  0.3660
 7374TIP3    H243538   4.169   1.918  16.821  0.8495 -0.6010 -0.0469
 7375TIP3   OH243539   3.196   0.866  14.702  0.2060 -0.7884  0.0651
 7375TIP3    H143540   3.189   0.961  14.713  1.1303 -0.7471  0.3232
 7375TIP3    H243541   3.283   0.852  14.666  0.1998 -1.5698  0.3351
 7376TIP3   OH243542   3.101   5.197  13.948 -0.0798  0.1637 -0.0065
 7376TIP3    H143543   3.017   5.241  13.937 -0.8450 -1.8044 -3.0434
 7376TIP3    H243544   3.162   5.246  13.892  0.7619  1.1981  1.7011
 7377TIP3   OH243545   3.588   5.112  11.284  0.1375 -0.3454 -0.1939
 7377TIP3    H143546   3.680   5.095  11.263  0.0854  0.3669 -1.0824
 7377TIP3    H243547   3.543   5.102  11.200 -0.2712  1.3884 -0.2328
 7378TIP3   OH243548   6.372   5.341  12.203 -1.4902 -0.1806  0.3248
 7378TIP3    H143549   6.402   5.386  12.123 -0.8772  1.9832  1.6971
 7378TIP3    H243550   6.371   5.248  12.178 -1.0138  0.3753 -2.0951
 7379TIP3   OH243551   5.728   0.405   3.543 -0.5577  0.0880  0.5473
 7379TIP3    H143552   5.725   0.427   3.450 -0.2915 -2.2008 -0.0773
 7379TIP3    H243553   5.799   0.341   3.551 -2.7035 -2.3626  1.6397
 7380TIP3   OH243554   0.536   3.174  15.597 -0.3156 -0.1217  0.0666
 7380TIP3    H143555   0.586   3.099  15.632 -1.0007 -1.8137 -2.3263
 7380TIP3    H243556   0.602   3.233  15.562  0.1633 -0.6030  0.1461
 7381TIP3   OH243557   1.753   5.606  12.368  0.1785  0.0019  0.2131
 7381TIP3    H143558   1.819   5.539  12.390 -0.0235  0.4110  2.2383
 7381TIP3    H243559   1.749   5.604  12.273  1.6945 -1.4180  0.1190
 7382TIP3   OH243560   3.933   2.206  12.330 -0.0888 -0.5856  0.2436
 7382TIP3    H143561   3.971   2.218  12.244  0.6912  1.9415  0.8503
 7382TIP3    H243562   3.946   2.290  12.374 -0.9805 -1.5974  2.6251
 7383TIP3   OH243563   6.183   5.874   4.114 -0.0791 -0.1458 -0.3873
 7383TIP3    H143564   6.267   5.835   4.140 -0.1408 -1.5858 -2.1770
 7383TIP3    H243565   6.205   5.933   4.043 -0.4859  0.1514 -0.2679
 7384TIP3   OH243566   6.254   0.900   0.955 -0.4378  0.1250 -0.6718
 7384TIP3    H143567   6.164   0.925   0.973 -0.3197  0.1445 -0.1033
 7384TIP3    H243568   6.270   0.824   1.010  0.5782  1.4362  0.9280
 7385TIP3   OH243569   6.058   2.464  12.138  0.5361  0.1564 -0.1814
 7385TIP3    H143570   6.036   2.519  12.214  0.9267  0.8699 -0.5733
 7385TIP3    H243571   5.996   2.490  12.071 -0.9312 -1.6698  0.3807
 7386TIP3   OH243572   2.367   4.669   1.786  0.2269 -0.0186 -0.2149
 7386TIP3    H143573   2.433   4.636   1.846  0.9790  0.7444 -0.6044
 7386TIP3    H243574   2.285   4.628   1.815  0.4928  0.6411  1.5671
 7387TIP3   OH243575   5.458   6.244   4.378 -0.3237 -0.0242  0.1636
 7387TIP3    H143576   5.363   6.239   4.368 -0.3997  0.9154  0.3304
 7387TIP3    H243577   5.473   6.233   4.472 -0.2085 -0.8238  0.0607
 7388TIP3   OH243578   2.428   0.500   4.672 -0.9511 -0.6014  0.3402
 7388TIP3    H143579   2.391   0.509   4.760  0.3266 -2.3311  1.1071
 7388TIP3    H243580   2.504   0.559   4.672 -1.2562 -0.2061  0.2099
 7389TIP3   OH243581   6.271   5.343  12.804  0.5435  0.8963 -0.4883
 7389TIP3    H143582   6.272   5.355  12.899 -0.1060  0.9719 -0.4854
 7389TIP3    H243583   6.360   5.366  12.776 -0.0831  4.1391 -0.2761
 7390TIP3   OH243584   4.809   1.544   0.461  0.3155 -0.5534  0.0135
 7390TIP3    H143585   4.736   1.581   0.511 -0.0444  0.2648 -1.0726
 7390TIP3    H243586   4.771   1.524   0.375  1.6621  1.3270 -1.1057
 7391TIP3   OH243587   1.790   4.926   5.069 -0.2174  0.6536 -0.8753
 7391TIP3    H143588   1.699   4.939   5.095 -0.2012  2.3878 -1.5392
 7391TIP3    H243589   1.796   4.963   4.981  1.0075  0.0581 -1.0737
 7392TIP3   OH243590   6.497   0.114  12.840  0.7271 -0.5287  0.2227
 7392TIP3    H143591   6.413   0.091  12.879  0.3372 -2.0914 -1.3721
 7392TIP3    H243592   6.513   0.204  12.869 -1.6871 -0.0298  0.2692
 7393TIP3   OH243593   2.693   4.160   4.623  0.0612  0.0662 -0.4131
 7393TIP3    H143594   2.650   4.075   4.624  0.7462 -0.3356 -1.9875
 7393TIP3    H243595   2.622   4.223   4.614 -0.3899 -0.3825 -0.0511
 7394TIP3   OH243596   3.795   4.769  12.903 -0.3415 -0.4779  0.0277
 7394TIP3    H143597   3.863   4.836  12.893 -0.4244 -0.4911 -0.6493
 7394TIP3    H243598   3.755   4.762  12.817  2.1538 -4.0564 -1.0956
 7395TIP3   OH243599   1.513   5.051  15.463 -0.2434 -0.4176  0.0719
 7395TIP3    H143600   1.441   5.115  15.458 -0.6571 -0.5724  2.6217
 7395TIP3    H243601   1.565   5.080  15.538  1.7426 -0.9855 -1.0246
 7396TIP3   OH243602   0.197   6.042  15.599 -0.6878 -0.1393 -0.0989
 7396TIP3    H143603   0.186   6.101  15.674 -1.8111  0.0119 -0.3581
 7396TIP3    H243604   0.288   6.054  15.571 -0.8550  1.3812 -0.0608
 7397TIP3   OH243605   4.928   2.449   1.445 -0.0326 -0.2401 -0.4610
 7397TIP3    H143606   4.973   2.531   1.426 -0.1182 -0.3412 -1.1150
 7397TIP3    H243607   4.983   2.406   1.511 -0.7353  0.9941  0.9982
 7398TIP3   OH243608   3.730   1.621   4.968 -0.0406 -0.0712 -0.1770
 7398TIP3    H143609   3.790   1.641   4.896 -0.0788 -0.4435 -0.3115
 7398TIP3    H243610   3.752   1.532   4.995  0.2110  0.1909  0.5126
 7399TIP3   OH243611   5.195   6.635   2.179 -0.0419 -0.4300 -0.2028
 7399TIP3    H143612   5.233   6.716   2.215 -2.0272  0.6999 -0.5469
 7399TIP3    H243613   5.146   6.663   2.102 -3.7359 -1.3057  1.6005
 7400TIP3   OH243614   5.679   4.164   5.050 -0.0903 -0.2202 -1.0335
 7400TIP3    H143615   5.628   4.089   5.020 -0.3777 -1.6540  2.5058
 7400TIP3    H243616   5.623   4.205   5.116  1.7697  0.4917  0.1733
 7401TIP3   OH243617   4.063   1.712  12.472  0.2651 -0.2806 -0.0398
 7401TIP3    H143618   4.064   1.733  12.566  0.9040 -1.9080  0.3496
 7401TIP3    H243619   4.092   1.793  12.430 -1.7929  1.0870  0.9873
 7402TIP3   OH243620   5.148   0.658  13.228  0.4767 -0.0491  0.1743
 7402TIP3    H143621   5.204   0.652  13.306  1.0093  0.5454 -0.1493
 7402TIP3    H243622   5.144   0.569  13.194  1.9694  0.0185 -0.2817
 7403TIP3   OH243623   2.023   0.566  12.567  0.0942 -0.7060  0.8600
 7403TIP3    H143624   2.053   0.579  12.657  0.5562  2.5885  0.3552
 7403TIP3    H243625   1.977   0.647  12.545 -1.7009 -2.1786 -1.2908
 7404TIP3   OH243626   0.406   2.977   1.067 -0.3782  0.5352  0.1240
 7404TIP3    H143627   0.420   2.902   1.009 -0.0076  0.6976 -0.0006
 7404TIP3    H243628   0.493   2.997   1.102 -0.4053  1.1373 -0.1345
 7405TIP3   OH243629   0.849   3.562  16.892 -0.3224  0.3699  0.3353
 7405TIP3    H143630   0.818   3.652  16.886  0.6960  0.7696  0.8854
 7405TIP3    H243631   0.773   3.513  16.924 -1.3273  0.7502 -1.3484
 7406TIP3   OH243632   5.191   2.516   1.460  0.6328  0.1730 -0.3138
 7406TIP3    H143633   5.194   2.438   1.403 -2.9873 -1.1245  0.9644
 7406TIP3    H243634   5.224   2.485   1.544  0.0793  0.2575 -0.0611
 7407TIP3   OH243635   2.102   3.727   4.380  0.0215  0.1567 -0.1060
 7407TIP3    H143636   2.195   3.717   4.363 -0.4303  0.4387 -3.2383
 7407TIP3    H243637   2.092   3.818   4.406  0.4571  0.6180 -1.4605
 7408TIP3   OH243638   4.793   6.057   0.095  0.4417 -0.1506 -0.5093
 7408TIP3    H143639   4.698   6.049   0.097  0.1984  2.0134  1.7375
 7408TIP3    H243640   4.821   5.994   0.029 -2.3520 -2.4121  0.2685
 7409TIP3   OH243641   4.047   1.374  16.223 -0.6214 -0.1452 -0.1304
 7409TIP3    H143642   4.069   1.458  16.264  0.2770  1.0824 -2.8928
 7409TIP3    H243643   4.090   1.309  16.278  0.7137  1.4085  0.7551
 7410TIP3   OH243644   2.186   2.625   0.582  0.4764  0.2945  0.0942
 7410TIP3    H143645   2.203   2.695   0.520  0.2525 -0.5812 -0.9772
 7410TIP3    H243646   2.249   2.557   0.560 -1.7737 -1.4524 -1.5014
 7411TIP3   OH243647   0.107   5.897  12.607 -0.1901 -0.2730  1.2732
 7411TIP3    H143648   0.144   5.961  12.546  0.4336 -0.7013  1.1885
 7411TIP3    H243649   0.072   5.828  12.551 -1.2492  0.1885  1.3492
 7412TIP3   OH243650   1.224   6.414  11.954  0.0428  0.1878  0.3481
 7412TIP3    H143651   1.252   6.421  11.863 -2.0041  0.8302 -0.2839
 7412TIP3    H243652   1.203   6.321  11.966  1.0342 -0.0374  0.4144
 7413TIP3   OH243653   6.390   6.350  15.415 -0.5530  0.1807 -0.0062
 7413TIP3    H143654   6.470   6.354  15.363 -0.9713  0.2392 -0.6557
 7413TIP3    H243655   6.336   6.421  15.382  0.5714  2.6313  2.9547
 7414TIP3   OH243656   1.859   2.648  10.540 -0.2625  0.1748  0.3962
 7414TIP3    H143657   1.785   2.700  10.509  1.2151  1.8523 -0.4753
 7414TIP3    H243658   1.917   2.641  10.464 -0.0653 -2.2220  0.6772
 7415TIP3   OH243659   1.323   0.852  10.933  0.2093  0.1621 -0.5575
 7415TIP3    H143660   1.407   0.824  10.898 -0.1161 -0.8418 -0.5536
 7415TIP3    H243661   1.266   0.775  10.926 -0.3001  0.3828  0.7716
 7416TIP3   OH243662   4.024   2.729   4.940 -0.3451  0.1550  0.1882
 7416TIP3    H143663   4.095   2.766   4.993 -0.9836  1.0255  0.4575
 7416TIP3    H243664   3.977   2.672   5.001 -0.3026  0.1357  0.2035
 7417TIP3   OH243665   3.115   5.694  13.012  0.1375 -0.1093 -0.1939
 7417TIP3    H143666   3.188   5.638  13.041 -0.5073 -0.3233  1.1108
 7417TIP3    H243667   3.140   5.781  13.042  0.7357  0.1720 -1.4570
 7418TIP3   OH243668   5.166   1.145  12.665  0.0162 -0.5555  0.2702
 7418TIP3    H143669   5.150   1.209  12.596  1.8389  1.4892  1.5863
 7418TIP3    H243670   5.080   1.111  12.688 -1.4444  3.2452  1.1186
 7419TIP3   OH243671   4.055   6.722  13.005 -0.2214  0.0278 -1.1004
 7419TIP3    H143672   4.043   6.757  12.917 -1.9137  0.4869 -0.7143
 7419TIP3    H243673   4.001   6.643  13.007 -3.6809  2.1843  0.7207
 7420TIP3   OH243674   2.539   0.453   3.756 -0.1214  0.0901 -0.4097
 7420TIP3    H143675   2.584   0.483   3.835 -0.5796  0.9518 -0.4708
 7420TIP3    H243676   2.607   0.455   3.689  0.1933 -0.3488 -0.1088
 7421TIP3   OH243677   4.658   3.247  13.962 -0.2827  0.1118 -0.1608
 7421TIP3    H143678   4.715   3.204  13.898 -1.5589 -1.4913 -0.2788
 7421TIP3    H243679   4.716   3.308  14.008  1.9764 -2.5361  0.8010
 7422TIP3   OH243680   2.920   4.439   6.011  0.3427 -0.0050  0.1293
 7422TIP3    H143681   2.926   4.348   6.041  0.2482 -0.3976 -0.9958
 7422TIP3    H243682   2.956   4.490   6.083  2.2690 -1.0773 -0.0216
 7423TIP3   OH243683   1.979   2.513  14.783 -0.3615  0.1978  0.3683
 7423TIP3    H143684   1.907   2.469  14.737 -0.4151 -0.0691  0.7028
 7423TIP3    H243685   2.044   2.530  14.715  0.0142 -1.1259  0.3628
 7424TIP3   OH243686   1.233   1.361   5.608 -0.7909  0.4848  0.4213
 7424TIP3    H143687   1.202   1.451   5.621 -0.1256  0.9073 -0.7807
 7424TIP3    H243688   1.208   1.339   5.519  2.2164  0.8487 -0.6271
 7425TIP3   OH243689   2.735   2.317   5.564  0.3802  0.0411  0.4147
 7425TIP3    H143690   2.764   2.390   5.510 -0.3450 -0.8775 -1.2853
 7425TIP3    H243691   2.666   2.354   5.620  0.7146  0.8678  0.2962
 7426TIP3   OH243692   4.296   6.459   3.360  0.2958 -0.2227 -0.4664
 7426TIP3    H143693   4.364   6.490   3.301  1.7817  2.3846  2.2896
 7426TIP3    H243694   4.343   6.408   3.426 -0.6995  0.0488  0.4866
 7427TIP3   OH243695   3.426   0.134   6.193 -0.2529  0.2046  0.0447
 7427TIP3    H143696   3.434   0.205   6.256  0.9616  0.0656  0.0686
 7427TIP3    H243697   3.371   0.170   6.123 -1.6708  0.3348  1.1853
 7428TIP3   OH243698   6.402   6.606  11.015 -0.6324 -0.2363 -0.4687
 7428TIP3    H143699   6.493   6.592  11.042  0.3735 -0.2952 -3.5474
 7428TIP3    H243700   6.371   6.520  10.990 -0.6252  0.1428 -1.8730
 7429TIP3   OH243701   1.429   0.761  16.750 -0.5471  0.0883 -0.3362
 7429TIP3    H143702   1.505   0.709  16.725  0.0592  1.2576 -1.0303
 7429TIP3    H243703   1.465   0.847  16.771 -1.5749  0.3761  0.2920
 7430TIP3   OH243704   0.769   5.252   0.833 -0.8155  0.0550  0.1785
 7430TIP3    H143705   0.717   5.322   0.793 -1.2953  1.1534  2.5908
 7430TIP3    H243706   0.830   5.226   0.764 -3.7903 -0.5549 -2.4369
 7431TIP3   OH243707   4.009   4.198   1.462  0.5549 -0.9036 -0.2254
 7431TIP3    H143708   4.061   4.204   1.542 -0.3628  0.6739  0.3243
 7431TIP3    H243709   4.068   4.161   1.397  2.7002  1.5794  0.1195
 7432TIP3   OH243710   5.893   1.208  11.651  0.0039 -0.0851  0.2506
 7432TIP3    H143711   5.972   1.217  11.597  0.3675 -1.0105  0.6147
 7432TIP3    H243712   5.872   1.298  11.676  1.1219  0.1515  0.4011
 7433TIP3   OH243713   6.321   2.369   3.209  0.2904  0.0345  0.2048
 7433TIP3    H143714   6.273   2.403   3.134  1.8519 -0.3659 -1.0158
 7433TIP3    H243715   6.295   2.277   3.215  1.3580 -0.3562 -0.8628
 7434TIP3   OH243716   1.406   2.625   4.616  0.2804  0.4433  0.5603
 7434TIP3    H143717   1.383   2.551   4.672  4.1745  1.0228  3.3509
 7434TIP3    H243718   1.388   2.703   4.669  1.2363  1.1965 -0.1737
 7435TIP3   OH243719   6.710   4.638   4.543 -0.0742 -0.3705 -0.0509
 7435TIP3    H143720   6.669   4.713   4.499 -0.6346 -0.7742 -0.2332
 7435TIP3    H243721   6.748   4.675   4.623 -0.5284  0.0684 -0.0312
 7436TIP3   OH243722   2.775   2.597   2.662  0.1248  0.5019 -0.7904
 7436TIP3    H143723   2.799   2.506   2.645 -0.7480 -0.2122  1.5301
 7436TIP3    H243724   2.769   2.636   2.574  0.9883 -1.5131 -1.8200
 7437TIP3   OH243725   2.185   2.044   4.480 -0.1408 -0.2822 -0.2927
 7437TIP3    H143726   2.211   1.958   4.446  1.3404  0.1418 -0.2901
 7437TIP3    H243727   2.099   2.028   4.520  0.5977 -2.0641  0.7550
 7438TIP3   OH243728   3.761   5.496  16.769  0.1871 -0.5568  0.3960
 7438TIP3    H143729   3.783   5.431  16.701  0.7627  0.1408 -0.0958
 7438TIP3    H243730   3.666   5.487  16.780 -0.4867  1.3008 -2.6426
 7439TIP3   OH243731   5.169   2.786  15.576  0.0909 -0.1459  0.2147
 7439TIP3    H143732   5.148   2.813  15.486 -2.4553 -1.5717  0.2878
 7439TIP3    H243733   5.257   2.749  15.570  0.2545  0.4018 -1.5315
 7440TIP3   OH243734   5.156   2.866  13.982  0.1296 -0.6127  0.1132
 7440TIP3    H143735   5.203   2.850  13.900 -0.7406 -0.0144 -0.5157
 7440TIP3    H243736   5.135   2.778  14.014 -0.2706 -0.8538 -0.7583
 7441TIP3   OH243737   3.954   5.678  16.775  0.0928  0.6657 -0.1933
 7441TIP3    H143738   3.894   5.613  16.812  0.2713  0.3265 -0.4926
 7441TIP3    H243739   4.032   5.628  16.752 -0.0215  0.8657 -1.0328
 7442TIP3   OH243740   0.902   2.517   0.593 -0.0579  0.5266 -0.1498
 7442TIP3    H143741   0.828   2.459   0.605 -0.4154  0.5686 -1.8849
 7442TIP3    H243742   0.885   2.562   0.510  1.2650  1.5101  0.0634
 7443TIP3   OH243743   1.857   4.669  16.853  0.0217  0.2405  0.7326
 7443TIP3    H143744   1.824   4.756  16.875  0.7551  0.1330  2.4455
 7443TIP3    H243745   1.840   4.659  16.760 -1.9209  1.4050  0.9221
 7444TIP3   OH243746   1.614   1.319  11.189 -0.0873 -0.0366  0.4586
 7444TIP3    H143747   1.674   1.333  11.262 -0.3223  2.3209  0.2504
 7444TIP3    H243748   1.654   1.364  11.115  0.2158 -2.4894 -0.9819
 7445TIP3   OH243749   5.231   5.842  15.349 -0.2471  0.2295  0.0872
 7445TIP3    H143750   5.148   5.882  15.377 -0.2992 -0.5178  1.0497
 7445TIP3    H243751   5.206   5.754  15.320  0.1897  0.0347  0.2963
 7446TIP3   OH243752   1.999   1.800   4.285  0.2138 -0.0137  0.1596
 7446TIP3    H143753   1.936   1.760   4.226  0.1599 -0.2164  0.3529
 7446TIP3    H243754   2.075   1.820   4.231  0.1473 -0.1565  0.0152
 7447TIP3   OH243755   1.912   6.168   1.700 -0.1761  0.2481  0.0455
 7447TIP3    H143756   1.977   6.219   1.652  0.5580 -0.5222  0.1880
 7447TIP3    H243757   1.964   6.119   1.765 -0.6686 -1.6915 -0.9643
 7448TIP3   OH243758   4.764   4.296   4.318 -0.2254 -0.4886 -0.2586
 7448TIP3    H143759   4.787   4.353   4.391  0.7585 -1.1780 -0.0082
 7448TIP3    H243760   4.668   4.292   4.320 -0.1942 -0.9545  1.3596
 7449TIP3   OH243761   5.432   1.511  14.140  0.5306  0.8015 -0.4494
 7449TIP3    H143762   5.400   1.459  14.213 -0.0502  1.2609 -0.3687
 7449TIP3    H243763   5.450   1.447  14.071 -0.8843  0.5509 -0.6062
 7450TIP3   OH243764   0.529   2.388  13.864 -0.0095 -0.2424 -0.1365
 7450TIP3    H143765   0.622   2.389  13.890 -0.4684  0.9407  1.6495
 7450TIP3    H243766   0.523   2.455  13.796  0.3567  0.1005  0.1606
 7451TIP3   OH243767   1.038   2.757   3.522 -0.1446  0.3159  0.4994
 7451TIP3    H143768   1.028   2.778   3.615  0.4285 -0.1938  0.6785
 7451TIP3    H243769   0.975   2.686   3.508  0.2809 -0.1014  0.6725
 7452TIP3   OH243770   1.732   3.410   1.210 -0.7250 -0.5419  0.2643
 7452TIP3    H143771   1.779   3.479   1.162 -1.5685  0.2716  0.5885
 7452TIP3    H243772   1.790   3.389   1.283  0.7758 -2.0810 -1.2572
 7453TIP3   OH243773   1.812   2.407  13.427 -0.0331 -0.1961 -0.4682
 7453TIP3    H143774   1.753   2.360  13.369 -0.5639  0.2143 -0.2676
 7453TIP3    H243775   1.861   2.338  13.472 -0.8747 -0.5614 -0.1031
 7454TIP3   OH243776   4.659   0.057   5.783 -0.1793 -0.0910  0.2884
 7454TIP3    H143777   4.665   0.017   5.870 -0.9884 -0.4388  0.1859
 7454TIP3    H243778   4.576   0.104   5.783  0.0662  0.3543 -0.1206
 7455TIP3   OH243779   4.579   1.940   4.053  0.7835  0.0568 -0.1254
 7455TIP3    H143780   4.541   2.015   4.098  1.0505  0.1892 -0.1162
 7455TIP3    H243781   4.508   1.877   4.047  0.3540  0.5870 -0.7694
 7456TIP3   OH243782   1.121   0.149  13.056  0.5160  0.0341 -0.4550
 7456TIP3    H143783   1.058   0.078  13.068  1.5614 -0.7227  0.7688
 7456TIP3    H243784   1.118   0.198  13.138 -3.4924  4.3233 -2.6896
 7457TIP3   OH243785   4.780   2.848  16.531  0.7684 -0.6343 -0.3590
 7457TIP3    H143786   4.814   2.832  16.443 -2.7804 -1.8907 -1.6905
 7457TIP3    H243787   4.786   2.763  16.574 -2.4185 -1.5850 -1.4507
 7458TIP3   OH243788   4.417   4.024  15.643 -0.0504  0.4841  0.3597
 7458TIP3    H143789   4.366   4.054  15.718  1.0516  0.3591  1.1821
 7458TIP3    H243790   4.354   3.979  15.587 -0.7054 -0.2909  1.6955
 7459TIP3   OH243791   1.113   4.925  11.810 -0.3512  0.0643  0.2985
 7459TIP3    H143792   1.024   4.929  11.847  0.4346 -0.0402  2.3789
 7459TIP3    H243793   1.151   5.011  11.829 -0.1896  0.3342 -1.1517
 7460TIP3   OH243794   4.461   6.349  12.275  0.2578 -0.7552  0.1824
 7460TIP3    H143795   4.441   6.271  12.326 -0.8854 -1.1099 -0.7770
 7460TIP3    H243796   4.417   6.335  12.191 -3.1082  2.4486  1.1570
 7461TIP3   OH243797   6.755   0.374  10.811  0.5270  0.0581  0.0254
 7461TIP3    H143798   6.673   0.393  10.765 -0.6118 -1.9959  1.0482
 7461TIP3    H243799   6.797   0.306  10.758  0.3984 -0.5797  0.7315
 7462TIP3   OH243800   6.573   2.610  15.734 -0.4698  0.3245 -0.3340
 7462TIP3    H143801   6.608   2.651  15.655 -1.1890 -0.6455 -1.1842
 7462TIP3    H243802   6.647   2.559  15.768 -0.4814 -0.2058 -1.0647
 7463TIP3   OH243803   0.897   5.109  14.718 -0.0453  0.1105 -0.0819
 7463TIP3    H143804   0.861   5.105  14.629 -2.7958  1.4071  0.8412
 7463TIP3    H243805   0.971   5.170  14.711 -1.6601  2.0805 -1.1509
 7464TIP3   OH243806   0.936   3.931   5.352 -0.2726  0.2362  0.1764
 7464TIP3    H143807   0.980   4.000   5.402  0.5609 -0.4245  0.3815
 7464TIP3    H243808   0.967   3.943   5.262  0.3053 -0.1863  0.3084
 7465TIP3   OH243809   0.229   5.708   4.453  0.2592 -0.1126 -0.2405
 7465TIP3    H143810   0.292   5.661   4.398 -0.0880 -0.0805 -0.6737
 7465TIP3    H243811   0.157   5.646   4.465  0.5946 -0.3373  0.6811
 7466TIP3   OH243812   6.085   6.245   3.337  0.0536 -0.3736  0.6636
 7466TIP3    H143813   6.102   6.152   3.349  0.3127 -0.2604  1.1989
 7466TIP3    H243814   6.016   6.248   3.271  1.4986 -0.8708 -0.9271
 7467TIP3   OH243815   6.646   3.997   0.681 -0.4894  0.5041 -0.1532
 7467TIP3    H143816   6.590   3.932   0.639 -1.8026  0.6096  1.3097
 7467TIP3    H243817   6.642   4.073   0.624 -0.2527 -0.1391 -1.0547
 7468TIP3   OH243818   1.640   6.088   6.784  0.4244  0.4675 -0.6149
 7468TIP3    H143819   1.548   6.088   6.810  0.8103 -1.0976  0.9373
 7468TIP3    H243820   1.658   5.998   6.758  1.8806  0.3527  0.6295
 7469TIP3   OH243821   0.346   0.845   3.063 -0.6842 -0.5601 -0.4693
 7469TIP3    H143822   0.435   0.872   3.039 -0.4005 -1.3733 -0.3769
 7469TIP3    H243823   0.301   0.830   2.980 -1.1363  1.0639 -0.5409
 7470TIP3   OH243824   0.373   2.453  13.441 -0.5700 -0.0201 -0.0871
 7470TIP3    H143825   0.423   2.453  13.360  1.1078 -0.8830  0.8856
 7470TIP3    H243826   0.293   2.406  13.421 -0.2695 -0.0376 -1.2850
 7471TIP3   OH243827   1.725   4.328  13.687 -0.0959  0.1429 -0.8598
 7471TIP3    H143828   1.690   4.307  13.600 -0.5225  1.3097 -0.9878
 7471TIP3    H243829   1.773   4.410  13.675  2.0421 -0.9890 -0.5058
 7472TIP3   OH243830   3.685   1.239   0.739 -0.1820 -0.1799  0.2531
 7472TIP3    H143831   3.755   1.222   0.676  0.1343 -1.0988  0.8154
 7472TIP3    H243832   3.636   1.312   0.703  0.4868 -0.1600 -0.6403
 7473TIP3   OH243833   4.292   0.517   2.341  0.4240  0.0884  0.9632
 7473TIP3    H143834   4.203   0.528   2.307  0.8487  1.0054  0.1176
 7473TIP3    H243835   4.312   0.424   2.327 -0.1917 -0.0013  0.6489
 7474TIP3   OH243836   3.869   1.844   3.278 -0.0098  0.0377 -0.2482
 7474TIP3    H143837   3.824   1.871   3.198 -1.8103  1.3217  1.0940
 7474TIP3    H243838   3.805   1.788   3.323  0.2398  0.7956  1.0910
 7475TIP3   OH243839   4.320   1.917  15.618 -0.2857  0.5498 -0.3229
 7475TIP3    H143840   4.342   1.907  15.711  1.6118 -1.3171 -0.8838
 7475TIP3    H243841   4.362   1.998  15.592  0.7530  0.1482  0.0573
 7476TIP3   OH243842   3.547   3.472  13.802  0.2779  0.0271  0.2392
 7476TIP3    H143843   3.551   3.384  13.839  0.4673  0.8647  2.3781
 7476TIP3    H243844   3.637   3.504  13.806 -0.4009  1.9456  3.9829
 7477TIP3   OH243845   0.631   1.950   3.008  0.3276  0.2080 -0.0555
 7477TIP3    H143846   0.594   1.994   2.932  2.1388 -0.2519 -1.2563
 7477TIP3    H243847   0.615   2.010   3.081 -0.3169  1.2416 -1.0207
 7478TIP3   OH243848   6.507   1.746   2.377  0.0884 -0.2737 -0.3046
 7478TIP3    H143849   6.542   1.808   2.441  1.0342 -0.7162 -0.3695
 7478TIP3    H243850   6.486   1.800   2.301  0.1756  0.0719 -0.0871
 7479TIP3   OH243851   5.150   4.061  13.906  0.3902 -0.1768 -0.2801
 7479TIP3    H143852   5.206   4.135  13.928  0.9222 -0.7809  0.4353
 7479TIP3    H243853   5.095   4.093  13.834  0.1598  1.1226  0.4453
 7480TIP3   OH243854   6.533   6.219   6.719  0.2291  0.0648 -0.3104
 7480TIP3    H143855   6.573   6.285   6.662  1.3924  2.4015  2.9009
 7480TIP3    H243856   6.602   6.153   6.732  1.7956  1.9811  1.9665
 7481TIP3   OH243857   3.151   5.253  12.929 -0.1410 -0.2537 -0.0415
 7481TIP3    H143858   3.068   5.276  12.970 -1.0330  0.6788 -2.2290
 7481TIP3    H243859   3.127   5.212  12.846  1.5880 -1.2031 -0.1248
 7482TIP3   OH243860   0.681   3.392   0.237  0.7847 -0.4572 -0.0392
 7482TIP3    H143861   0.609   3.455   0.248  0.7118 -0.3616 -0.9500
 7482TIP3    H243862   0.681   3.341   0.318  1.8326  1.6956  1.4417
 7483TIP3   OH243863   6.498   2.523  13.694 -0.8101 -0.3460 -0.2782
 7483TIP3    H143864   6.428   2.464  13.722 -1.2734 -0.9271 -2.4810
 7483TIP3    H243865   6.459   2.577  13.625  0.2835  0.9172  0.0480
 7484TIP3   OH243866   6.572   0.026   2.403 -0.0787 -0.0439  0.1171
 7484TIP3    H143867   6.595   0.113   2.436  0.5109  0.2808 -1.1044
 7484TIP3    H243868   6.652  -0.026   2.415 -0.0530 -0.0891 -0.2607
 7485TIP3   OH243869   1.147   5.060  13.910 -0.1035 -0.1223  0.1552
 7485TIP3    H143870   1.170   5.016  13.992  2.6395 -0.8407 -0.8866
 7485TIP3    H243871   1.193   5.010  13.843 -1.4946  1.0254 -1.7309
 7486TIP3   OH243872   3.554   4.159   3.748 -0.1744  0.4787  0.0409
 7486TIP3    H143873   3.595   4.208   3.819 -0.4239 -0.2844  0.7298
 7486TIP3    H243874   3.599   4.189   3.669  1.0673  0.3438  0.6688
 7487TIP3   OH243875   4.244   0.682  13.070  0.4811 -0.1449  0.0585
 7487TIP3    H143876   4.218   0.708  12.982  0.7454 -1.6359 -0.4891
 7487TIP3    H243877   4.169   0.705  13.125  0.0956  0.2972 -0.6395
 7488TIP3   OH243878   3.292   1.190   5.117  0.3079  0.4624  0.4042
 7488TIP3    H143879   3.333   1.109   5.089  1.7340  0.8999  1.1229
 7488TIP3    H243880   3.240   1.218   5.042 -1.6257 -1.9649  0.7319
 7489TIP3   OH243881   4.534   6.583   2.365 -1.0613  0.1892  0.0440
 7489TIP3    H143882   4.497   6.529   2.435 -0.4841 -0.3723 -0.0784
 7489TIP3    H243883   4.628   6.581   2.379 -0.9465  0.2009 -0.6527
 7490TIP3   OH243884   0.546   5.489   2.675 -0.5179  0.3798  0.1331
 7490TIP3    H143885   0.618   5.546   2.702 -1.8616  2.0169  0.4809
 7490TIP3    H243886   0.493   5.478   2.755  0.0271 -1.9550  0.2490
 7491TIP3   OH243887   6.209   2.488  12.881 -0.5936  0.0752  0.4910
 7491TIP3    H143888   6.184   2.562  12.936 -0.5729 -0.5047  1.2979
 7491TIP3    H243889   6.237   2.420  12.943 -0.5043 -0.5710 -0.2385
 7492TIP3   OH243890   0.538   1.163  15.681 -0.6400 -0.4070 -0.7644
 7492TIP3    H143891   0.514   1.076  15.713  1.1234 -0.9455 -0.8446
 7492TIP3    H243892   0.547   1.152  15.587  4.1692 -1.4177 -0.4146
 7493TIP3   OH243893   4.801   3.572  14.549  0.1123 -0.1514  0.0873
 7493TIP3    H143894   4.836   3.487  14.522 -2.5731 -1.1418 -0.6103
 7493TIP3    H243895   4.842   3.634  14.489 -0.7217 -1.4963 -2.0088
 7494TIP3   OH243896   3.974   2.194  15.663  0.1876 -0.4105  0.5221
 7494TIP3    H143897   4.021   2.185  15.580 -0.3667 -0.0004  0.1574
 7494TIP3    H243898   4.004   2.120  15.715  1.3128 -0.1052  0.3436
 7495TIP3   OH243899   2.041   5.373   4.575 -0.2627  0.0405 -0.4491
 7495TIP3    H143900   2.102   5.438   4.608 -0.6028  0.8752 -1.4255
 7495TIP3    H243901   1.997   5.416   4.502 -0.4587 -1.2993 -1.1482
 7496TIP3   OH243902   5.895   4.582   2.647  0.2588  0.0553 -0.1665
 7496TIP3    H143903   5.932   4.504   2.606  2.0090  0.1339  1.1525
 7496TIP3    H243904   5.950   4.654   2.617 -0.4266  0.5751 -0.2081
 7497TIP3   OH243905   6.508   0.805  16.141  0.1361 -0.1758  0.6405
 7497TIP3    H143906   6.494   0.719  16.102 -0.2556 -0.6163  1.7278
 7497TIP3    H243907   6.446   0.810  16.213  1.0096  0.5165  1.3785
 7498TIP3   OH243908   2.540   4.268  15.502  0.2407 -0.7834 -0.3524
 7498TIP3    H143909   2.611   4.311  15.455  0.9548 -0.4878  0.9541
 7498TIP3    H243910   2.569   4.265  15.593 -1.4014 -0.6899  0.2145
 7499TIP3   OH243911   3.366   5.945  15.355  0.4253  0.3951 -0.1428
 7499TIP3    H143912   3.277   5.950  15.390 -0.2130 -0.2443 -1.6147
 7499TIP3    H243913   3.403   5.865  15.392 -0.2134 -0.2272 -0.8186
 7500TIP3   OH243914   0.946   6.234  11.196  0.2230  0.1012 -0.0360
 7500TIP3    H143915   1.014   6.230  11.262  0.6881  2.5134 -0.2913
 7500TIP3    H243916   0.993   6.228  11.113  0.0145  0.6256 -0.1962
 7501TIP3   OH243917   5.474   2.617   5.846 -0.0122 -0.1165 -0.2006
 7501TIP3    H143918   5.469   2.682   5.916 -0.6755 -1.1732  0.7742
 7501TIP3    H243919   5.564   2.622   5.814  0.9279 -0.9957  2.1231
 7502TIP3   OH243920   4.478   3.570   4.496  0.7336 -0.0805  0.2197
 7502TIP3    H143921   4.512   3.515   4.566  0.6296 -1.7939 -1.0155
 7502TIP3    H243922   4.412   3.626   4.539  1.3104 -0.4503  1.6227
 7503TIP3   OH243923   4.641   0.898   5.085  0.1137  0.0519 -0.2275
 7503TIP3    H143924   4.585   0.841   5.139 -1.2137  1.0062 -0.5458
 7503TIP3    H243925   4.730   0.874   5.111 -0.4514 -0.1192  1.8032
 7504TIP3   OH243926   3.381   2.486  13.419  0.3859  0.5124  0.4563
 7504TIP3    H143927   3.369   2.497  13.513  1.2791  0.6608  0.5627
 7504TIP3    H243928   3.292   2.484  13.383  0.0329  3.2828  0.9556
 7505TIP3   OH243929   3.591   6.660  10.486  0.0126 -0.1523  0.2812
 7505TIP3    H143930   3.675   6.640  10.445  0.4989  0.3313  1.0325
 7505TIP3    H243931   3.526   6.630  10.421  0.7451 -0.6510 -0.2477
 7506TIP3   OH243932   6.778   4.093   0.140 -0.0657  0.0073 -0.2424
 7506TIP3    H143933   6.733   4.020   0.183  1.0375  0.4047  1.7229
 7506TIP3    H243934   6.869   4.085   0.170  0.6756  0.5755 -2.2343
 7507TIP3   OH243935   6.614   2.960  10.444  0.2646 -0.6759  0.3572
 7507TIP3    H143936   6.550   2.894  10.415  2.0375 -2.0374 -0.7150
 7507TIP3    H243937   6.623   3.019  10.369 -0.1224 -0.1832  0.7010
 7508TIP3   OH243938   3.124   0.442   4.081  0.3894 -0.1180  0.0403
 7508TIP3    H143939   3.172   0.501   4.139  0.2943  0.5964 -0.5909
 7508TIP3    H243940   3.125   0.358   4.126  1.1465  0.1900  0.6214
 7509TIP3   OH243941   5.583   4.126  10.143 -0.1088  0.2611 -0.0356
 7509TIP3    H143942   5.654   4.080  10.188 -0.5732  0.0197  0.4564
 7509TIP3    H243943   5.600   4.219  10.161  1.0312  0.3327 -1.3280
 7510TIP3   OH243944   0.881   1.123   2.100  0.3052  0.1703  0.1613
 7510TIP3    H143945   0.919   1.150   2.016  0.4220  1.3430  0.5722
 7510TIP3    H243946   0.874   1.204   2.150 -1.0632 -0.3011  0.7753
 7511TIP3   OH243947   4.072   5.050   5.133  0.1493 -0.1703  0.0320
 7511TIP3    H143948   4.135   5.068   5.202  1.4670 -2.4585 -0.4682
 7511TIP3    H243949   4.076   5.127   5.076  0.6960  0.7679  1.3075
 7512TIP3   OH243950   3.163   1.187   1.680  0.6121  0.1209 -0.1633
 7512TIP3    H143951   3.194   1.228   1.761  0.1925 -0.4368  0.2936
 7512TIP3    H243952   3.236   1.197   1.618  0.1975  2.3056 -0.3514
 7513TIP3   OH243953   0.522   4.988  17.018 -0.1358  0.0700 -0.2523
 7513TIP3    H143954   0.476   4.987  16.935  0.5831 -0.2967 -0.6526
 7513TIP3    H243955   0.567   5.073  17.020  1.6317 -0.7817 -1.2582
 7514TIP3   OH243956   2.538   0.543  14.659 -0.1068  0.1893 -0.0300
 7514TIP3    H143957   2.562   0.453  14.634  0.6000  0.3747 -0.0385
 7514TIP3    H243958   2.602   0.598  14.614 -1.8465  0.8657 -1.8341
 7515TIP3   OH243959   5.165   4.412  14.554 -0.2674 -0.1258  0.2240
 7515TIP3    H143960   5.174   4.429  14.648 -2.6187 -0.1163  0.5093
 7515TIP3    H243961   5.199   4.491  14.512 -0.3587  0.4112  1.1206
 7516TIP3   OH243962   4.321   2.581   3.322  0.2607 -0.3317  0.0991
 7516TIP3    H143963   4.253   2.644   3.301  0.5101  0.0121  0.3211
 7516TIP3    H243964   4.363   2.615   3.401  1.5155  0.1267 -0.7342
 7517TIP3   OH243965   5.423   5.875  13.719 -0.8197 -0.2863  0.2408
 7517TIP3    H143966   5.352   5.936  13.700 -0.6450 -0.0147  0.4409
 7517TIP3    H243967   5.448   5.839  13.634 -0.2424  0.6820 -0.0136
 7518TIP3   OH243968   5.335   0.670  16.323  0.4418  1.0625  0.6547
 7518TIP3    H143969   5.284   0.751  16.325 -0.3236  0.7065 -1.5450
 7518TIP3    H243970   5.301   0.617  16.395 -0.1152  2.0630  1.1437
 7519TIP3   OH243971   3.664   0.522   4.138  0.0658 -0.5759  0.5489
 7519TIP3    H143972   3.581   0.482   4.113 -0.9650  1.0687  1.1237
 7519TIP3    H243973   3.687   0.480   4.220  1.2196 -2.9017 -0.8562
 7520TIP3   OH243974   5.110   2.645   6.486  0.4668  0.1629  0.3192
 7520TIP3    H143975   5.128   2.579   6.553 -0.9456  0.7323  1.2945
 7520TIP3    H243976   5.154   2.724   6.517  0.5072  0.2014  0.1625
 7521TIP3   OH243977   5.799   1.594  12.504 -0.1398  0.1626  0.1406
 7521TIP3    H143978   5.818   1.567  12.594  0.8721 -0.2357 -0.1781
 7521TIP3    H243979   5.804   1.514  12.453 -3.0011 -0.0455  0.0210
 7522TIP3   OH243980   3.949   1.109   0.648  0.0093 -0.0591  0.0435
 7522TIP3    H143981   3.898   1.029   0.639 -0.4412  0.3292 -1.0094
 7522TIP3    H243982   3.942   1.132   0.741 -1.5856 -0.1170 -0.0367
 7523TIP3   OH243983   3.601   0.259   5.651  0.3085 -0.0496  0.9448
 7523TIP3    H143984   3.571   0.345   5.623 -1.2833 -1.0695 -0.6459
 7523TIP3    H243985   3.659   0.229   5.581 -1.9023 -1.6767 -0.2793
 7524TIP3   OH243986   0.604   1.701  14.368 -0.6108  0.4494 -0.5064
 7524TIP3    H143987   0.530   1.748  14.328 -1.4466  1.0575  1.6248
 7524TIP3    H243988   0.566   1.621  14.402  0.9139 -2.4001 -4.6868
 7525TIP3   OH243989   4.554   1.369   0.991  0.2192 -0.6688  0.1837
 7525TIP3    H143990   4.644   1.396   1.008 -0.2716  1.0192  0.3472
 7525TIP3    H243991   4.543   1.287   1.039  0.7761  0.6801  2.8009
 7526TIP3   OH243992   5.300   6.194   3.497  0.3894 -0.3970  0.0024
 7526TIP3    H143993   5.369   6.252   3.529  1.0681 -1.2913  0.2202
 7526TIP3    H243994   5.219   6.245   3.506  0.9854  0.5782 -0.0267
 7527TIP3   OH243995   2.832   2.368   2.566 -0.5448  0.6891 -0.6819
 7527TIP3    H143996   2.894   2.298   2.585 -0.7190  0.5824 -0.4972
 7527TIP3    H243997   2.832   2.375   2.470 -2.1384 -1.0679 -0.8758
 7528TIP3   OH243998   2.615   6.788   3.771 -0.0730  0.1148 -0.4860
 7528TIP3    H143999   2.694   6.741   3.745  0.9709  2.5315 -1.9545
 7528TIP3    H244000   2.634   6.819   3.860  0.8752  1.0881 -1.0052
 7529TIP3   OH244001   0.176   1.108  12.013 -0.3128  0.4744  0.2572
 7529TIP3    H144002   0.267   1.107  12.045 -0.4424  0.5410  0.6345
 7529TIP3    H244003   0.182   1.078  11.922  0.4433  3.1363 -0.6624
 7530TIP3   OH244004   1.177   0.756  13.001 -0.3114  0.1741 -0.2939
 7530TIP3    H144005   1.151   0.673  13.040 -0.5054  1.3971  2.4136
 7530TIP3    H244006   1.251   0.734  12.944 -0.8649 -1.9320 -0.2744
 7531TIP3   OH244007   3.957   3.892   2.242  0.2320  0.4443  0.4658
 7531TIP3    H144008   3.902   3.969   2.226 -1.3796 -0.8017 -0.4385
 7531TIP3    H244009   4.027   3.899   2.177  0.4607  1.4569  0.8090
 7532TIP3   OH244010   2.842   5.877  14.372 -0.3146  0.4866 -0.2274
 7532TIP3    H144011   2.862   5.855  14.463  1.3844  0.6209 -0.5412
 7532TIP3    H244012   2.811   5.795  14.335  3.1871 -0.8550 -0.6188
 7533TIP3   OH244013   1.355   0.331  11.051  0.1774  0.4778  0.4218
 7533TIP3    H144014   1.345   0.330  10.956  0.1006  0.4408  0.4294
 7533TIP3    H244015   1.405   0.410  11.070 -0.1421  0.6924  0.3817
 7534TIP3   OH244016   0.567   2.701   3.553 -0.3593  0.2026 -0.3488
 7534TIP3    H144017   0.504   2.655   3.608 -1.4700  0.5595 -1.2777
 7534TIP3    H244018   0.621   2.751   3.614 -0.9907 -0.0884  0.4643
 7535TIP3   OH244019   5.369   6.129  17.018 -0.0780  0.0094  0.0519
 7535TIP3    H144020   5.435   6.130  17.087 -0.3619 -0.1820  0.3278
 7535TIP3    H244021   5.380   6.213  16.973 -0.0897  0.2650  0.5176
 7536TIP3   OH244022   3.266   0.210   2.345  0.4062 -0.2163 -0.3380
 7536TIP3    H144023   3.300   0.121   2.355 -0.1343 -0.6637 -2.1521
 7536TIP3    H244024   3.333   0.256   2.295 -0.1031 -0.1293 -0.9533
 7537TIP3   OH244025   0.704   4.152   4.202 -0.4946  0.0434  0.1725
 7537TIP3    H144026   0.731   4.235   4.242 -1.4665  0.2879  0.3554
 7537TIP3    H244027   0.676   4.176   4.114  1.2062 -0.4258 -0.5353
 7538TIP3   OH244028   6.130   0.187  13.363 -0.1971 -0.3720 -0.1636
 7538TIP3    H144029   6.182   0.235  13.298 -0.6461  0.0194 -0.2382
 7538TIP3    H244030   6.083   0.255  13.411 -4.0375 -0.7605 -2.9103
 7539TIP3   OH244031   6.385   2.086  14.885 -0.0610  0.4497 -0.1152
 7539TIP3    H144032   6.350   2.149  14.949 -0.2397  0.1344  0.0978
 7539TIP3    H244033   6.393   2.137  14.804 -0.3938  0.6959  0.0021
 7540TIP3   OH244034   4.208   3.680  14.736 -0.1195 -0.3226  0.7829
 7540TIP3    H144035   4.215   3.587  14.758  2.5920 -0.1128  1.2317
 7540TIP3    H244036   4.218   3.725  14.819 -0.9488  0.3987  0.5060
 7541TIP3   OH244037   2.683   5.945   1.531 -0.1341 -0.2632 -0.0180
 7541TIP3    H144038   2.736   5.895   1.470 -0.7524 -0.7163 -0.1925
 7541TIP3    H244039   2.709   6.036   1.517  0.2738 -0.4400 -0.4142
 7542TIP3   OH244040   1.894   6.155   3.372  0.2762  0.4593  0.3958
 7542TIP3    H144041   1.979   6.189   3.346  1.0301 -1.2329  0.4912
 7542TIP3    H244042   1.877   6.083   3.311 -1.7145  1.5417 -0.4375
 7543TIP3   OH244043   6.483   2.976  11.295 -0.8201  0.2641  0.0708
 7543TIP3    H144044   6.484   3.013  11.384 -1.6933 -1.0557  0.6481
 7543TIP3    H244045   6.398   3.000  11.260 -0.2411  1.3193 -0.6737
 7544TIP3   OH244046   6.551   5.567   2.313 -0.0135  0.2145  0.2800
 7544TIP3    H144047   6.628   5.599   2.265  0.5022 -0.2869  0.7524
 7544TIP3    H244048   6.490   5.539   2.244  0.7472 -0.5725 -0.0930
 7545TIP3   OH244049   5.233   2.348   6.088  0.2328 -0.3314  0.3912
 7545TIP3    H144050   5.166   2.280   6.094  0.3632 -0.4454  0.5895
 7545TIP3    H244051   5.278   2.344   6.173  2.1169 -1.9578 -0.5769
 7546TIP3   OH244052   1.664   2.688  10.977  0.4571  0.0993  0.4785
 7546TIP3    H144053   1.683   2.730  10.893 -1.1939 -2.5518 -1.3947
 7546TIP3    H244054   1.696   2.599  10.967 -0.1625 -0.4155  2.5535
 7547TIP3   OH244055   2.027   5.962  13.814  0.3113 -0.5767  0.8752
 7547TIP3    H144056   2.005   6.022  13.886 -0.5312 -1.3384  1.2733
 7547TIP3    H244057   1.953   5.969  13.753 -0.0857 -1.6324  1.2136
 7548TIP3   OH244058   0.283   3.468   4.622  0.3668 -0.2557  0.4947
 7548TIP3    H144059   0.226   3.526   4.674 -0.1204 -3.0881  3.4756
 7548TIP3    H244060   0.363   3.518   4.609 -0.1993  1.2983  2.4794
 7549TIP3   OH244061   3.199   6.127   5.766  0.2091 -0.0748  0.2291
 7549TIP3    H144062   3.218   6.163   5.680  1.8139  1.0204  0.9865
 7549TIP3    H244063   3.251   6.181   5.827  0.7763 -2.1137  1.6807
 7550TIP3   OH244064   1.565   0.421  15.031  0.2892 -0.3305 -0.6227
 7550TIP3    H144065   1.529   0.406  14.943  1.2984  0.1314 -1.1342
 7550TIP3    H244066   1.635   0.356  15.039 -0.8872 -1.5234  0.5361
 7551TIP3   OH244067   2.395   2.693   5.250 -0.0858  0.1834  0.3035
 7551TIP3    H144068   2.418   2.646   5.330  1.6437  2.4649  1.2511
 7551TIP3    H244069   2.357   2.776   5.280  1.3005  1.4252 -1.1757
 7552TIP3   OH244070   5.041   0.272   4.622 -0.1738 -0.2012 -0.1574
 7552TIP3    H144071   5.033   0.266   4.527 -0.4793 -1.4561 -0.0757
 7552TIP3    H244072   5.045   0.180   4.651  0.2114  0.1711  1.0137
 7553TIP3   OH244073   2.018   6.747   4.242  0.0224 -0.1864  0.0248
 7553TIP3    H144074   1.942   6.711   4.196  0.4814 -0.4866 -0.5061
 7553TIP3    H244075   2.006   6.842   4.237 -1.6278 -0.1911  2.1443
 7554TIP3   OH244076   4.872   1.892  12.152  0.3576  0.4745  0.3405
 7554TIP3    H144077   4.821   1.966  12.185  0.4868  0.2357  1.1006
 7554TIP3    H244078   4.962   1.924  12.151  0.1465  1.1703 -1.7696
 7555TIP3   OH244079   6.391   3.672  11.783 -0.5078  0.0774  0.4230
 7555TIP3    H144080   6.387   3.606  11.852 -1.2309  0.6903  0.9879
 7555TIP3    H244081   6.480   3.707  11.787  0.5980 -2.2726 -1.2712
 7556TIP3   OH244082   2.541   1.680  15.621  0.1878  0.0373  0.3652
 7556TIP3    H144083   2.457   1.635  15.634  0.3699 -0.1648  0.8675
 7556TIP3    H244084   2.537   1.755  15.681 -1.2406  2.3340 -2.3302
 7557TIP3   OH244085   5.757   4.264   1.292 -0.3318 -0.2637  0.1501
 7557TIP3    H144086   5.850   4.244   1.282 -0.4302 -2.3119  2.2343
 7557TIP3    H244087   5.712   4.184   1.265 -1.6031  0.9864 -1.6461
 7558TIP3   OH244088   1.411   1.821  15.369 -0.1666 -0.1895  0.1849
 7558TIP3    H144089   1.449   1.854  15.287  0.0916 -1.1169 -0.0819
 7558TIP3    H244090   1.447   1.878  15.437  1.1653 -0.6182 -0.1411
 7559TIP3   OH244091   1.972   2.449   5.312  0.2379 -0.2553  0.0090
 7559TIP3    H144092   1.963   2.460   5.217 -0.1717 -1.4393 -0.1080
 7559TIP3    H244093   1.999   2.535   5.344  2.3058 -0.3093 -1.4136
 7560TIP3   OH244094   3.585   6.140  11.993  0.0555 -0.0801 -0.0826
 7560TIP3    H144095   3.655   6.101  12.044  0.2955  1.8348  1.1789
 7560TIP3    H244096   3.590   6.234  12.012 -1.8540  0.3228 -1.1842
 7561TIP3   OH244097   4.984   1.279   4.225 -0.3537 -0.2569  0.2641
 7561TIP3    H144098   5.045   1.342   4.188 -0.3220 -0.7324 -0.5237
 7561TIP3    H244099   4.916   1.332   4.266  0.6398  0.2753  1.2687
 7562TIP3   OH244100   2.378   6.500   0.300 -0.4969 -0.3448  0.0165
 7562TIP3    H144101   2.307   6.475   0.240 -1.4784 -0.3999  1.1604
 7562TIP3    H244102   2.427   6.420   0.315 -0.8427 -0.5505  0.0511
 7563TIP3   OH244103   3.707   2.537  13.838 -0.3494  0.0784 -0.1649
 7563TIP3    H144104   3.716   2.550  13.744  0.2672 -1.1778 -0.2918
 7563TIP3    H244105   3.663   2.453  13.847 -0.7953  0.3850  0.6758
 7564TIP3   OH244106   1.663   0.935   2.208  0.1467  0.0556 -0.5295
 7564TIP3    H144107   1.663   0.869   2.139 -0.8585 -0.6332  0.1087
 7564TIP3    H244108   1.572   0.965   2.213  0.5271  1.2846 -0.6039
 7565TIP3   OH244109   6.108   2.509  15.078  0.1780  0.2132 -0.1224
 7565TIP3    H144110   6.158   2.434  15.109 -0.6109 -0.0185  0.6120
 7565TIP3    H244111   6.122   2.509  14.983 -0.5301 -1.4015 -0.2535
 7566TIP3   OH244112   6.148   4.353   5.672  0.4306 -0.4650 -0.2119
 7566TIP3    H144113   6.189   4.378   5.755  1.0304 -1.3824 -0.2176
 7566TIP3    H244114   6.152   4.433   5.619 -0.4142  0.2657  0.8080
 7567TIP3   OH244115   6.016   6.090   1.492  0.8071  0.3409  0.0487
 7567TIP3    H144116   6.107   6.121   1.491  0.9500 -0.0379 -1.2085
 7567TIP3    H244117   6.004   6.052   1.578  1.4363  1.5511  0.7013
 7568TIP3   OH244118   6.136   4.920  17.065 -0.0247 -0.8454  0.1547
 7568TIP3    H144119   6.153   4.978  16.991  0.0882 -0.6487  0.3332
 7568TIP3    H244120   6.223   4.894  17.096 -0.0727 -0.9907  0.1677
 7569TIP3   OH244121   1.647   3.343   4.209 -0.3154 -0.2730  0.2421
 7569TIP3    H144122   1.629   3.378   4.296  1.0380  0.1249  0.3813
 7569TIP3    H244123   1.624   3.250   4.216  2.6472 -0.9982  1.9913
 7570TIP3   OH244124   4.329   2.084   0.547 -0.2300  0.4700 -0.1718
 7570TIP3    H144125   4.421   2.111   0.544  0.5715 -1.6908  1.6216
 7570TIP3    H244126   4.325   2.008   0.488 -1.3628  1.6473 -1.6868
 7571TIP3   OH244127   2.937   6.406  13.809 -0.0276 -0.0067 -0.1323
 7571TIP3    H144128   3.001   6.353  13.761  0.1720 -0.6601  0.8166
 7571TIP3    H244129   2.972   6.409  13.898 -0.5706  0.8755  0.0522
 7572TIP3   OH244130   6.202   1.015   5.135 -0.1703 -0.1046 -0.0905
 7572TIP3    H144131   6.234   1.088   5.187  0.3112  1.5837 -2.5774
 7572TIP3    H244132   6.121   1.047   5.095  0.5501 -0.4928 -1.9988
 7573TIP3   OH244133   4.641   4.860   5.165 -0.3684  0.2625  0.1292
 7573TIP3    H144134   4.684   4.782   5.128  2.3758  2.0881 -0.8418
 7573TIP3    H244135   4.665   4.858   5.258 -1.1056 -0.5058  0.3167
 7574TIP3   OH244136   6.759   2.519  13.693 -0.0828  0.5028 -0.5558
 7574TIP3    H144137   6.776   2.504  13.600  0.4838 -3.3465 -0.0000
 7574TIP3    H244138   6.665   2.509  13.702  0.1384 -2.6321 -0.4086
 7575TIP3   OH244139   0.176   3.638  14.669  0.1226 -0.0267  0.1904
 7575TIP3    H144140   0.174   3.597  14.756  0.3199  1.7463  1.0944
 7575TIP3    H244141   0.225   3.719  14.683 -1.7249  1.3974 -1.0697
 7576TIP3   OH244142   5.201   2.668  16.273 -0.4951  0.0114  0.2022
 7576TIP3    H144143   5.140   2.723  16.224 -0.3145 -0.9108 -1.1259
 7576TIP3    H244144   5.156   2.648  16.355 -0.9198  1.3887  0.3276
 7577TIP3   OH244145   0.440   1.497  14.131  0.0655 -0.5097 -0.3740
 7577TIP3    H144146   0.408   1.571  14.182  0.9448 -1.4816  1.6697
 7577TIP3    H244147   0.414   1.518  14.041  0.1667  2.2071  0.1383
 7578TIP3   OH244148   2.220   1.428  12.560 -0.2260 -0.1876 -0.1915
 7578TIP3    H144149   2.176   1.393  12.637  1.7432 -0.1865  1.0112
 7578TIP3    H244150   2.262   1.508  12.591 -1.2441  1.0554 -1.8628
 7579TIP3   OH244151   5.043   5.074   3.805  0.3817 -0.1498 -0.1382
 7579TIP3    H144152   5.119   5.108   3.758  0.3827 -1.6755 -1.3356
 7579TIP3    H244153   5.069   4.985   3.831 -1.4207 -1.2543 -1.8112
 7580TIP3   OH244154   4.401   3.178   2.045  0.1800  0.9965 -0.2195
 7580TIP3    H144155   4.312   3.209   2.060  0.1808  0.9885 -0.1967
 7580TIP3    H244156   4.434   3.232   1.973  0.3993  1.4852  0.2349
 7581TIP3   OH244157   1.901   0.440   5.619 -0.4058  0.2643  0.0050
 7581TIP3    H144158   1.940   0.510   5.568  0.2808 -0.2741 -0.2242
 7581TIP3    H244159   1.882   0.480   5.704 -0.3500  0.8154 -0.2373
 7582TIP3   OH244160   1.626   5.505  16.619 -0.5396  0.1011  0.0120
 7582TIP3    H144161   1.705   5.496  16.566 -0.2291 -1.0851  0.6231
 7582TIP3    H244162   1.553   5.493  16.558 -0.1821 -1.8552 -0.1038
 7583TIP3   OH244163   0.826   0.096  12.741  0.7307 -0.0758  0.2481
 7583TIP3    H144164   0.834   0.055  12.827  0.0030 -0.9448 -0.0774
 7583TIP3    H244165   0.869   0.181  12.750  0.6221 -0.1404  1.4828
 7584TIP3   OH244166   6.729   5.675   4.749  0.1486 -0.1473 -0.0097
 7584TIP3    H144167   6.733   5.689   4.843  0.8440  0.4357 -0.1183
 7584TIP3    H244168   6.668   5.743   4.717 -0.5312 -0.7042  0.0792
 7585TIP3   OH244169   0.830   2.517   2.887  0.3624  0.2951 -0.5456
 7585TIP3    H144170   0.750   2.498   2.936 -1.4612  0.4459 -3.2424
 7585TIP3    H244171   0.887   2.441   2.903 -1.2642 -0.9436 -0.3450
 7586TIP3   OH244172   1.922   3.659  12.088 -0.2359 -0.6315 -0.6361
 7586TIP3    H144173   1.837   3.674  12.047 -1.4533 -2.7720  0.9073
 7586TIP3    H244174   1.959   3.584  12.042 -0.5377 -1.5376  0.5302
 7587TIP3   OH244175   6.749   1.229  13.552 -0.2937  0.3039  0.1763
 7587TIP3    H144176   6.803   1.219  13.631  0.0079  1.8600  0.1953
 7587TIP3    H244177   6.680   1.164  13.562 -0.0092  0.1726  1.5094
 7588TIP3   OH244178   6.307   1.438   5.623  0.1385  0.7404  0.7263
 7588TIP3    H144179   6.239   1.503   5.607 -0.6673 -0.3626 -0.5287
 7588TIP3    H244180   6.282   1.398   5.707  0.8103  2.1949  1.6647
 7589TIP3   OH244181   5.967   6.056   1.034 -0.0522 -0.1927  0.0542
 7589TIP3    H144182   5.896   6.001   1.067 -1.3162  1.4334  0.1535
 7589TIP3    H244183   5.961   6.048   0.939  2.0316 -2.9332  0.0337
 7590TIP3   OH244184   3.128   3.860  11.502  0.5045 -0.1091 -0.7280
 7590TIP3    H144185   3.047   3.888  11.546  1.0776  1.7198 -0.7473
 7590TIP3    H244186   3.153   3.779  11.547 -1.1865 -0.5750 -0.5528
 7591TIP3   OH244187   3.613   4.055   1.658 -0.0696 -0.0038 -0.1364
 7591TIP3    H144188   3.539   4.000   1.632  0.8723 -0.5441 -1.8594
 7591TIP3    H244189   3.685   4.025   1.602  2.4029 -1.6852  3.5229
 7592TIP3   OH244190   0.911   6.283  14.484 -0.1953 -0.1673 -0.0295
 7592TIP3    H144191   0.998   6.319  14.467  0.5349 -2.1422 -0.7754
 7592TIP3    H244192   0.861   6.357  14.518  1.7008  1.0747  0.2237
 7593TIP3   OH244193   1.646   0.767   3.780  0.4366 -0.0700  0.0312
 7593TIP3    H144194   1.678   0.796   3.695 -1.2211 -0.5327 -0.7995
 7593TIP3    H244195   1.562   0.813   3.791 -1.1454 -2.6695 -0.2784
 7594TIP3   OH244196   4.502   5.301  16.998 -0.1389 -0.6744 -0.2009
 7594TIP3    H144197   4.426   5.287  16.942  0.1872  1.1509 -1.1756
 7594TIP3    H244198   4.535   5.387  16.973  1.9633 -1.2035  0.5418
 7595TIP3   OH244199   1.351   4.693  12.799 -0.8546 -0.8592 -0.4600
 7595TIP3    H144200   1.303   4.708  12.880 -0.3649 -1.2565 -0.0870
 7595TIP3    H244201   1.297   4.629  12.752 -0.9992 -0.8437 -0.3177
 7596TIP3   OH244202   0.029   6.440   0.539  0.1994 -0.1615 -0.6259
 7596TIP3    H144203   0.047   6.520   0.589  0.7489 -0.6457 -0.0189
 7596TIP3    H244204   0.085   6.447   0.462  0.7875 -0.2804 -0.2191
 7597TIP3   OH244205   0.495   6.255   0.337 -0.4807  0.4417  0.7747
 7597TIP3    H144206   0.436   6.330   0.345  0.3277  1.0087  1.6874
 7597TIP3    H244207   0.449   6.194   0.280 -1.7823  1.0090  1.1900
 7598TIP3   OH244208   5.761   4.354   5.612  0.4224  0.2743  0.0351
 7598TIP3    H144209   5.667   4.366   5.624  0.5932  1.8546 -0.0109
 7598TIP3    H244210   5.792   4.437   5.575  1.9897  0.1570  0.9564
 7599TIP3   OH244211   5.958   2.578   3.055 -0.2215  0.4262  0.0805
 7599TIP3    H144212   5.979   2.547   3.143  0.1955 -1.2486 -0.5950
 7599TIP3    H244213   5.930   2.669   3.069  0.6422  0.4705  1.8319
 7600TIP3   OH244214   3.513   2.148  13.349  0.0653  0.4659 -0.1699
 7600TIP3    H144215   3.563   2.229  13.357 -0.7474  0.9662 -0.0535
 7600TIP3    H244216   3.538   2.113  13.263 -1.3125  2.0472 -1.2617
 7601TIP3   OH244217   0.105   5.284   4.768  0.3660  1.1719  0.3372
 7601TIP3    H144218   0.024   5.335   4.768  0.5815  1.5250  0.8041
 7601TIP3    H244219   0.155   5.318   4.843  1.0900  1.1844 -0.1409
 7602TIP3   OH244220   2.893   3.704   4.034  0.2180 -0.3815 -0.0672
 7602TIP3    H144221   2.954   3.712   4.107 -1.3620 -0.4239  1.3314
 7602TIP3    H244222   2.856   3.792   4.024 -1.1724 -0.8522  0.6867
 7603TIP3   OH244223   1.377   0.225   6.043  0.4457 -0.0380 -0.0133
 7603TIP3    H144224   1.327   0.155   6.000 -1.9499  1.1243  0.6657
 7603TIP3    H244225   1.411   0.185   6.123  0.4464 -0.8407 -0.4122
 7604TIP3   OH244226   4.745   0.177  16.126 -0.3844 -0.1349  0.5644
 7604TIP3    H144227   4.750   0.116  16.052  0.9377  0.0400  0.4790
 7604TIP3    H244228   4.662   0.222  16.114 -0.8245 -1.0818 -0.0420
 7605TIP3   OH244229   2.176   2.327  13.279  0.4087  0.7743  0.5913
 7605TIP3    H144230   2.268   2.308  13.258  0.1172 -0.7019  0.5412
 7605TIP3    H244231   2.165   2.295  13.369 -0.1330  0.6688  0.4897
 7606TIP3   OH244232   2.745   0.066   2.213  0.1946  0.1308 -0.0190
 7606TIP3    H144233   2.840   0.072   2.224  0.3342  0.3537 -1.2555
 7606TIP3    H244234   2.733   0.001   2.144 -0.5037  0.7831 -0.5221
 7607TIP3   OH244235   1.037   5.104   3.641  0.3383 -0.4765 -0.0806
 7607TIP3    H144236   1.012   5.054   3.563 -0.1423 -0.8294  0.2995
 7607TIP3    H244237   1.129   5.081   3.654  0.8224  0.6370 -1.3354
 7608TIP3   OH244238   2.522   6.088   2.080  0.0004  0.3328  0.8473
 7608TIP3    H144239   2.434   6.109   2.112 -0.9119 -1.1567 -0.5241
 7608TIP3    H244240   2.537   5.998   2.109  0.4170  0.0257 -0.2657
 7609TIP3   OH244241   0.704   1.775   1.692 -0.3282 -0.2242 -0.3400
 7609TIP3    H144242   0.695   1.804   1.782  3.4224 -0.7703  0.3885
 7609TIP3    H244243   0.664   1.688   1.690 -0.3754 -0.2434  0.8101
 7610TIP3   OH244244   0.261   6.472  11.844  0.1230 -0.3903 -0.5450
 7610TIP3    H144245   0.256   6.447  11.752 -1.7196  1.0646 -0.8912
 7610TIP3    H244246   0.196   6.417  11.887 -0.9784  0.8208 -0.6118
 7611TIP3   OH244247   6.668   1.482   1.271  0.8954 -0.1288 -0.2675
 7611TIP3    H144248   6.577   1.471   1.243  0.3213  1.2794  0.9324
 7611TIP3    H244249   6.717   1.494   1.190 -0.0702 -0.3001 -0.8879
 7612TIP3   OH244250   3.976   4.171   5.380 -0.1575 -0.0054 -0.2279
 7612TIP3    H144251   3.935   4.178   5.466 -0.7134 -1.3789 -0.3565
 7612TIP3    H244252   3.937   4.242   5.329 -0.0649  0.6147  0.5387
 7613TIP3   OH244253   4.943   2.244  11.303  0.0649 -0.1140  0.1295
 7613TIP3    H144254   4.918   2.333  11.329  2.3172  0.3612  0.9170
 7613TIP3    H244255   4.956   2.250  11.208 -0.3524  0.2410  0.0896
 7614TIP3   OH244256   5.161   5.449  16.059  0.4537  0.1625  0.0599
 7614TIP3    H144257   5.159   5.544  16.074  0.6304  0.0993  0.4831
 7614TIP3    H244258   5.188   5.440  15.967 -1.8904  0.5825 -0.7482
 7615TIP3   OH244259   0.233   6.215   5.598  0.0633  0.2007  0.5375
 7615TIP3    H144260   0.265   6.127   5.579  1.7638  0.5507  1.6218
 7615TIP3    H244261   0.177   6.205   5.675 -0.5341 -0.0475  0.0848
 7616TIP3   OH244262   6.712   2.311  16.802 -0.1753  0.0311  0.1429
 7616TIP3    H144263   6.735   2.223  16.771 -2.5124 -0.5309 -0.1725
 7616TIP3    H244264   6.752   2.370  16.737 -1.6457 -0.9782 -1.8001
 7617TIP3   OH244265   2.195   1.561  15.271 -0.5133 -0.0023  0.3129
 7617TIP3    H144266   2.136   1.570  15.196 -1.0695  0.9722  0.8355
 7617TIP3    H244267   2.266   1.622  15.253 -2.4344  3.0542  2.1594
 7618TIP3   OH244268   3.266   6.402   1.102 -0.1231 -0.1232 -0.4857
 7618TIP3    H144269   3.288   6.349   1.025 -2.3624 -1.6218 -0.1941
 7618TIP3    H244270   3.209   6.346   1.154 -0.5665  1.7109  1.1219
 7619TIP3   OH244271   2.731   6.200   1.411  0.4868  0.2740  0.1094
 7619TIP3    H144272   2.679   6.226   1.335 -1.0676  0.3852  1.1569
 7619TIP3    H244273   2.796   6.269   1.421 -1.2645  1.9468  0.6903
 7620TIP3   OH244274   6.384   1.930  12.551 -0.0929  0.5354 -0.0944
 7620TIP3    H144275   6.431   1.893  12.625 -0.9298  0.7953  0.5940
 7620TIP3    H244276   6.329   1.999  12.589 -3.1544 -1.5630 -0.3414
 7621TIP3   OH244277   0.549   0.012   3.452  1.1575  0.7865  0.2507
 7621TIP3    H144278   0.579   0.060   3.529  1.2791 -0.5337  1.0378
 7621TIP3    H244279   0.455  -0.001   3.467  1.6704 -1.9620  1.6129
 7622TIP3   OH244280   3.612   1.552  15.744 -0.0338  0.2611  0.2484
 7622TIP3    H144281   3.554   1.496  15.693  0.7032 -0.7902  0.5145
 7622TIP3    H244282   3.654   1.609  15.680 -0.5886  0.3309 -0.0621
 7623TIP3   OH244283   0.476   5.754  15.067 -0.3966 -0.0832 -0.0482
 7623TIP3    H144284   0.400   5.698  15.049  0.1496 -1.8687  2.6925
 7623TIP3    H244285   0.546   5.693  15.089  1.4396  1.5969 -0.8946
 7624TIP3   OH244286   1.029   2.813   4.699 -0.4888 -0.2698  0.1434
 7624TIP3    H144287   1.116   2.844   4.675  0.2993 -1.1759  1.6637
 7624TIP3    H244288   1.040   2.720   4.719 -2.1632 -0.8321 -1.2577
 7625TIP3   OH244289   3.179   2.900   3.706 -0.4106 -0.1691 -0.2161
 7625TIP3    H144290   3.161   2.859   3.622 -0.4298  0.6389 -0.6180
 7625TIP3    H244291   3.201   2.990   3.684  3.7331 -0.8896  0.2129
 7626TIP3   OH244292   5.928   1.016  12.825 -0.1798  0.1588  0.1188
 7626TIP3    H144293   5.964   0.965  12.752  0.6417 -0.6926  1.0871
 7626TIP3    H244294   5.990   1.088  12.836 -1.1491  1.2019 -1.0180
 7627TIP3   OH244295   1.388   1.844   2.343 -0.2988 -0.3917  0.3651
 7627TIP3    H144296   1.451   1.854   2.272 -1.3597  2.7105 -0.2958
 7627TIP3    H244297   1.308   1.814   2.300 -0.6578  0.5297  0.3663
 7628TIP3   OH244298   4.756   5.408   5.479 -0.7345  0.2318 -0.6132
 7628TIP3    H144299   4.830   5.391   5.420  0.2988 -1.5984  1.0683
 7628TIP3    H244300   4.767   5.499   5.505  0.8410  0.0638 -0.5806
 7629TIP3   OH244301   3.017   3.814  14.435 -0.1149  0.0714 -0.3838
 7629TIP3    H144302   2.932   3.795  14.394  0.0209  0.3309 -0.7931
 7629TIP3    H244303   3.078   3.755  14.391 -0.2143 -0.7012  0.4791
 7630TIP3   OH244304   3.579   6.421   1.856  0.1853 -0.7712 -0.0954
 7630TIP3    H144305   3.517   6.450   1.923  1.4689 -1.1420  1.3054
 7630TIP3    H244306   3.536   6.345   1.815  0.5409 -2.4190  2.3431
 7631TIP3   OH244307   1.372   4.404  14.184 -0.4533 -0.1101  0.1801
 7631TIP3    H144308   1.447   4.447  14.224  0.9262 -1.5612 -0.7239
 7631TIP3    H244309   1.339   4.466  14.119  0.1260  0.4330  0.4019
 7632TIP3   OH244310   0.716   0.021   0.173 -0.2007  0.3139  0.2734
 7632TIP3    H144311   0.643   0.071   0.210 -0.9140 -0.8697  0.5366
 7632TIP3    H244312   0.755  -0.023   0.249 -1.6026 -2.0426 -0.2550
 7633TIP3   OH244313   5.953   4.123  13.515  0.3852 -0.0989  0.4078
 7633TIP3    H144314   5.922   4.095  13.429 -0.2183 -0.0474  0.5982
 7633TIP3    H244315   6.036   4.077  13.527  0.4426 -0.1533 -0.1750
 7634TIP3   OH244316   4.992   5.887  15.899  0.1529  0.3440 -0.1130
 7634TIP3    H144317   5.011   5.971  15.942 -0.5582  0.0411  0.8168
 7634TIP3    H244318   4.903   5.865  15.927 -0.0712 -0.2120 -1.1954
 7635TIP3   OH244319   0.465   5.676  17.051 -0.4006 -0.0690  0.0763
 7635TIP3    H144320   0.384   5.683  17.101 -1.6889 -2.0958 -1.5817
 7635TIP3    H244321   0.447   5.723  16.969 -0.3283 -1.3885 -0.7334
 7636TIP3   OH244322   0.858   3.451   1.852  0.5162 -0.1472  0.9100
 7636TIP3    H144323   0.783   3.481   1.801  1.1435  0.6380  0.4351
 7636TIP3    H244324   0.916   3.527   1.857  1.2695 -0.7344  1.3043
 7637TIP3   OH244325   5.704   3.591  11.236  0.5219  0.7553  0.3742
 7637TIP3    H144326   5.780   3.535  11.224 -1.5092 -2.0451 -0.3841
 7637TIP3    H244327   5.629   3.532  11.229 -1.7791  3.4539  0.4502
 7638TIP3   OH244328   2.072   0.296   6.831  0.4574  0.9298 -0.0890
 7638TIP3    H144329   2.020   0.289   6.751 -2.6027  0.6445  1.7869
 7638TIP3    H244330   2.089   0.389   6.841  0.2967  1.0283 -0.7037
 7639TIP3   OH244331   0.523   0.251  14.083  0.1293 -0.2273 -0.1886
 7639TIP3    H144332   0.483   0.335  14.059 -1.0905 -0.4829  0.8155
 7639TIP3    H244333   0.492   0.190  14.016 -2.1485 -0.6516  1.1442
 7640TIP3   OH244334   6.028   4.509   2.392 -0.4249  0.0279  0.2922
 7640TIP3    H144335   6.084   4.472   2.324 -0.6798 -0.8952  0.5695
 7640TIP3    H244336   5.982   4.581   2.349 -1.1108 -0.9698 -0.7377
 7641TIP3   OH244337   0.500   0.763  10.223  0.6707  0.0366 -0.9241
 7641TIP3    H144338   0.467   0.677  10.251 -0.8011  1.0924  0.8552
 7641TIP3    H244339   0.425   0.803  10.178  1.2173  0.5559 -1.3850
 7642TIP3   OH244340   4.541   1.426   1.315 -0.6638 -0.4353 -0.2232
 7642TIP3    H144341   4.619   1.388   1.275  0.6062  0.0579  1.6692
 7642TIP3    H244342   4.502   1.355   1.365  0.3763  0.0603  1.3713
 7643TIP3   OH244343   0.989   2.543  14.618  0.4109 -0.1134  0.2238
 7643TIP3    H144344   0.903   2.561  14.582  1.0082  0.1912 -1.1004
 7643TIP3    H244345   0.975   2.471  14.680 -0.9457  0.5989  0.7917
 7644TIP3   OH244346   1.635   0.967   0.171  0.1000 -0.0736  0.1037
 7644TIP3    H144347   1.540   0.958   0.178 -0.0443  1.5324  0.7545
 7644TIP3    H244348   1.656   1.041   0.228  1.8070 -0.6806  0.3199
 7645TIP3   OH244349   2.203   0.845   0.564  0.4676  0.3576  0.2863
 7645TIP3    H144350   2.109   0.832   0.581 -0.0465 -1.1319 -2.8846
 7645TIP3    H244351   2.209   0.936   0.534 -0.0762  0.3402  0.0996
 7646TIP3   OH244352   3.666   5.608   4.879 -0.6457 -0.1849  0.4201
 7646TIP3    H144353   3.619   5.533   4.843 -0.7027 -0.2469  0.6229
 7646TIP3    H244354   3.598   5.661   4.921 -0.9383  1.0378 -1.4692
 7647TIP3   OH244355   6.576   2.377   1.902 -0.8646 -0.2277  0.1628
 7647TIP3    H144356   6.494   2.355   1.947 -0.8904 -0.5664 -0.0406
 7647TIP3    H244357   6.567   2.336   1.816 -1.5760  1.8900 -0.8266
 7648TIP3   OH244358   4.554   1.840  15.871  0.5149 -0.1675  0.1396
 7648TIP3    H144359   4.569   1.807  15.960 -0.4994  0.7386  0.6680
 7648TIP3    H244360   4.494   1.777  15.831  0.5533 -0.2921  0.2792
 7649TIP3   OH244361   4.880   4.314   3.964 -0.1382 -0.4934  0.1302
 7649TIP3    H144362   4.947   4.332   4.029 -0.4100  1.1431 -0.0101
 7649TIP3    H244363   4.799   4.347   4.003 -0.5797 -0.9419 -0.3892
 7650TIP3   OH244364   6.660   3.118   5.645 -0.5140  0.3313  0.0368
 7650TIP3    H144365   6.728   3.074   5.594 -0.3126 -1.4033  1.7395
 7650TIP3    H244366   6.707   3.184   5.696 -0.6149  1.4971 -1.2829
 7651TIP3   OH244367   4.976   1.759  15.064  0.3655  0.1914 -0.3113
 7651TIP3    H144368   4.988   1.665  15.051  1.1411 -0.3224  3.0793
 7651TIP3    H244369   5.064   1.796  15.052  0.3413  0.2643 -0.2651
 7652TIP3   OH244370   5.248   6.042   2.665 -0.0035 -0.0164 -0.0315
 7652TIP3    H144371   5.212   5.967   2.618 -3.6729 -0.2349  2.7229
 7652TIP3    H244372   5.325   6.008   2.710  0.9382 -0.9025 -2.1728
 7653TIP3   OH244373   4.400   5.496  11.053  0.1715 -0.0863  0.2587
 7653TIP3    H144374   4.468   5.561  11.068  0.4624 -0.1608 -0.6365
 7653TIP3    H244375   4.434   5.442  10.981 -0.9871  0.1081 -0.4734
 7654TIP3   OH244376   1.227   1.234  11.139  0.8109 -0.4574  0.5105
 7654TIP3    H144377   1.249   1.281  11.219 -1.0727 -0.5801  1.1687
 7654TIP3    H244378   1.148   1.278  11.107  0.1197 -1.9268  0.1017
 7655TIP3   OH244379   0.410   2.857   0.277  0.3490 -0.4169  0.7902
 7655TIP3    H144380   0.419   2.769   0.239 -1.0275  0.5584 -2.0621
 7655TIP3    H244381   0.315   2.871   0.284  0.4540  1.6160 -0.9235
 7656TIP3   OH244382   3.487   2.075  11.328 -0.0542  0.6637 -0.7559
 7656TIP3    H144383   3.426   2.031  11.269 -0.2533  2.3618 -1.8893
 7656TIP3    H244384   3.459   2.048  11.416 -0.9282 -0.4393 -1.3422
 7657TIP3   OH244385   1.869   2.163  12.688 -0.4566 -0.3509  0.1872
 7657TIP3    H144386   1.881   2.250  12.649  4.2389 -1.2821 -1.0065
 7657TIP3    H244387   1.890   2.175  12.780  0.9413 -0.2894 -0.1229
 7658TIP3   OH244388   1.528   5.682   2.946  0.1142  0.6124  0.1457
 7658TIP3    H144389   1.547   5.596   2.909  1.7787  1.3265 -0.7952
 7658TIP3    H244390   1.481   5.728   2.876 -0.4696  0.5744  0.5152
 7659TIP3   OH244391   1.230   1.041   2.521  0.8000  0.2822 -0.1830
 7659TIP3    H144392   1.280   0.986   2.461  1.4829 -1.0283  1.5055
 7659TIP3    H244393   1.280   1.041   2.602 -1.4380 -0.3594  1.3154
 7660TIP3   OH244394   0.900   2.106  12.103  0.3314 -0.3180  0.3493
 7660TIP3    H144395   0.909   2.081  12.195 -2.8778 -1.0465  0.6030
 7660TIP3    H244396   0.892   2.201  12.104  0.6153 -0.2989  0.7862
 7661TIP3   OH244397   4.934   6.697  10.995  0.1333 -0.3005 -0.0454
 7661TIP3    H144398   4.947   6.744  10.912 -0.0207 -0.5258 -0.1980
 7661TIP3    H244399   4.924   6.767  11.060 -0.2738 -0.1158 -0.2983
 7662TIP3   OH244400   1.185   2.655  14.428  0.0358  0.0734 -0.0976
 7662TIP3    H144401   1.125   2.593  14.469  0.2276 -1.1036 -1.5106
 7662TIP3    H244402   1.226   2.605  14.357  3.6843  0.3468  1.5606
 7663TIP3   OH244403   4.033   5.866  16.562  0.1986  0.4836  0.4125
 7663TIP3    H144404   3.996   5.824  16.639  2.7266  0.2988  1.6326
 7663TIP3    H244405   4.124   5.836  16.560  0.5708  1.5694 -1.8662
 7664TIP3   OH244406   0.980   6.082  15.827  0.2590  0.7041  0.5928
 7664TIP3    H144407   0.992   6.055  15.918  0.1771  1.5507  0.8664
 7664TIP3    H244408   0.928   6.012  15.788  0.8811 -0.0093  1.0057
 7665TIP3   OH244409   2.240   6.784   5.029  0.0105 -0.3119  0.0824
 7665TIP3    H144410   2.272   6.778   4.939  0.9231  0.3805  0.3461
 7665TIP3    H244411   2.187   6.864   5.031 -1.9465 -1.5386 -0.3937
 7666TIP3   OH244412   0.853   4.169  13.373  0.5858  0.6307  0.3319
 7666TIP3    H144413   0.781   4.224  13.403  1.3335  1.8865 -0.0938
 7666TIP3    H244414   0.905   4.153  13.452  0.7413  1.1247  0.3319
 7667TIP3   OH244415   2.278   0.559   3.473  0.1957  0.6818 -0.1927
 7667TIP3    H144416   2.373   0.566   3.468  0.0930  1.1131 -1.9421
 7667TIP3    H244417   2.250   0.538   3.384 -1.2389 -1.0861  0.5927
 7668TIP3   OH244418   6.301   6.194  14.527  0.1793  0.0615  0.1175
 7668TIP3    H144419   6.368   6.140  14.568  1.4904  1.1333 -0.5186
 7668TIP3    H244420   6.228   6.191  14.587 -0.1799 -3.0996 -0.2929
 7669TIP3   OH244421   3.216   5.362   2.583 -0.0721  0.3418  0.8590
 7669TIP3    H144422   3.257   5.414   2.652  2.0487  1.3327 -1.0017
 7669TIP3    H244423   3.170   5.426   2.529  0.6277  0.0077 -0.1650
 7670TIP3   OH244424   5.006   0.553  14.484  0.4856 -0.3175 -0.9166
 7670TIP3    H144425   4.984   0.476  14.431  2.8049  0.1364 -2.6918
 7670TIP3    H244426   4.957   0.625  14.443 -1.5089 -0.7117  0.6101
 7671TIP3   OH244427   1.144   2.354  13.903  0.0665 -0.1630  0.5245
 7671TIP3    H144428   1.138   2.323  13.813 -0.2333  0.8839  0.1662
 7671TIP3    H244429   1.232   2.328  13.931 -0.1385 -1.2397  0.2310
 7672TIP3   OH244430   6.256   6.703  14.024  0.5017 -0.1687 -0.2270
 7672TIP3    H144431   6.221   6.658  14.100  0.8558 -1.9114 -1.0414
 7672TIP3    H244432   6.193   6.686  13.954  1.8042 -1.4346 -1.1401
 7673TIP3   OH244433   0.746   0.756  16.483  0.2218 -0.1579  0.0288
 7673TIP3    H144434   0.827   0.715  16.514 -0.9459 -2.0016  0.8102
 7673TIP3    H244435   0.677   0.717  16.537 -1.0663  2.5140  0.4706
 7674TIP3   OH244436   5.034   3.067   2.578 -0.0923  0.8234 -0.1994
 7674TIP3    H144437   4.963   3.103   2.631  0.4483 -0.2619  1.3339
 7674TIP3    H244438   5.040   2.975   2.605  1.2894  0.6647 -0.9529
 7675TIP3   OH244439   1.914   5.470  13.765 -0.1355 -0.2858 -0.6138
 7675TIP3    H144440   1.939   5.554  13.805 -0.3641 -1.6385  2.6094
 7675TIP3    H244441   1.958   5.471  13.680  2.3650  1.8666  0.5476
 7676TIP3   OH244442   1.255   4.920  11.526 -0.2502 -0.4652  0.1598
 7676TIP3    H144443   1.281   5.012  11.533 -1.8109  0.0946 -0.8007
 7676TIP3    H244444   1.176   4.913  11.580 -1.6370 -0.5723 -1.7765
 7677TIP3   OH244445   2.146   0.399   4.569 -0.2632  0.0751 -0.1777
 7677TIP3    H144446   2.147   0.449   4.650 -0.9607 -0.8277  0.4160
 7677TIP3    H244447   2.065   0.427   4.525 -0.1279  0.2165 -0.3391
 7678TIP3   OH244448   4.477   3.517  13.082  0.8738  0.1963 -0.2578
 7678TIP3    H144449   4.550   3.512  13.143  0.4011  0.8020  0.3773
 7678TIP3    H244450   4.402   3.538  13.137  0.2035 -0.4979 -0.8923
 7679TIP3   OH244451   3.579   2.203   0.884  0.6475 -0.1379 -0.0875
 7679TIP3    H144452   3.613   2.164   0.804  0.2017 -1.5397  0.3696
 7679TIP3    H244453   3.498   2.246   0.858  2.0876  2.2130 -0.9619
 7680TIP3   OH244454   0.921   0.282  11.772  0.4225 -0.2034 -0.6096
 7680TIP3    H144455   1.006   0.327  11.781  0.3545 -0.4829  2.2457
 7680TIP3    H244456   0.862   0.332  11.828 -0.2032 -2.4896  0.9115
 7681TIP3   OH244457   5.189   0.017  12.354 -0.0465 -0.2501 -0.1675
 7681TIP3    H144458   5.119  -0.039  12.385 -0.6779  0.2780 -0.5957
 7681TIP3    H244459   5.267  -0.038  12.356 -0.5747 -1.0197 -0.2144
 7682TIP3   OH244460   5.163   4.113   4.934  0.0871  0.6870 -0.1111
 7682TIP3    H144461   5.124   4.108   4.847  0.5663 -0.1384 -0.2941
 7682TIP3    H244462   5.137   4.199   4.967 -1.8567  0.1862 -0.2232
 7683TIP3   OH244463   0.214   1.519   3.319 -0.0562 -0.3871 -0.6960
 7683TIP3    H144464   0.300   1.536   3.357 -1.4307 -0.5605  2.9827
 7683TIP3    H244465   0.206   1.423   3.321 -0.5705 -0.3415 -0.3029
 7684TIP3   OH244466   3.818   6.251   0.280 -0.0114  0.2729 -0.1921
 7684TIP3    H144467   3.802   6.177   0.339  0.8072  1.0849  1.0855
 7684TIP3    H244468   3.761   6.321   0.314 -1.1058  0.1314 -1.6460
 7685TIP3   OH244469   0.380   3.542   3.673 -0.0620  0.6468 -0.3004
 7685TIP3    H144470   0.444   3.474   3.694 -0.2824  0.5634  0.1324
 7685TIP3    H244471   0.428   3.605   3.619  0.7933  1.3220  1.1873
 7686TIP3   OH244472   1.780   1.739   5.416  0.4353  0.5423 -0.6367
 7686TIP3    H144473   1.862   1.771   5.378  0.1120  1.8405 -0.2907
 7686TIP3    H244474   1.734   1.697   5.344  1.1539  0.2975 -0.9625
 7687TIP3   OH244475   4.807   3.175   4.715  0.2475  0.0235  0.2643
 7687TIP3    H144476   4.811   3.080   4.726  3.5688  0.1425  1.1501
 7687TIP3    H244477   4.815   3.210   4.803  0.5498  1.1140 -0.1842
 7688TIP3   OH244478   6.433   5.487  14.460 -0.7675  0.6652  0.1323
 7688TIP3    H144479   6.394   5.554  14.518 -1.7609 -0.1344  0.4207
 7688TIP3    H244480   6.455   5.415  14.519 -1.8855 -0.1994 -0.4890
 7689TIP3   OH244481   5.995   5.461  13.728  0.1570 -0.4486  0.5716
 7689TIP3    H144482   6.047   5.429  13.801  0.1703 -0.7605  0.4312
 7689TIP3    H244483   5.904   5.447  13.755  0.1733 -2.0164 -0.0843
 7690TIP3   OH244484   5.130   2.235  16.479  0.3699  0.0305  0.0971
 7690TIP3    H144485   5.059   2.193  16.431  1.0079  0.2707 -1.1308
 7690TIP3    H244486   5.205   2.227  16.420  0.6738  2.2742  0.1130
 7691TIP3   OH244487   2.198   5.916  16.742  0.6875 -0.0372 -0.4749
 7691TIP3    H144488   2.199   5.995  16.688 -1.1160  0.2587 -0.1237
 7691TIP3    H244489   2.113   5.917  16.786  1.6304 -0.8500  1.5225
 7692TIP3   OH244490   6.283   2.047  14.051 -0.2665 -0.0636 -0.0198
 7692TIP3    H144491   6.346   1.976  14.038  0.1777  0.4634 -0.8383
 7692TIP3    H244492   6.234   2.052  13.969 -0.5581  0.3078  0.1721
 7693TIP3   OH244493   5.139   5.752   0.312  0.4125  0.0187  0.1144
 7693TIP3    H144494   5.206   5.683   0.313 -0.9018 -1.3331 -0.8375
 7693TIP3    H244495   5.174   5.818   0.252  0.9517 -0.6371 -0.3092
 7694TIP3   OH244496   3.348   2.916   4.344 -0.4611  0.4317 -0.7700
 7694TIP3    H144497   3.340   2.880   4.432 -1.9915 -4.1025 -2.4838
 7694TIP3    H244498   3.269   2.968   4.331  0.5172  2.4918  0.8964
 7695TIP3   OH244499   2.208   5.085   1.040 -0.6757  0.5801 -0.2026
 7695TIP3    H144500   2.260   5.117   1.114  0.7111 -0.6916 -0.5753
 7695TIP3    H244501   2.120   5.116   1.058 -0.7504 -0.9750  2.8184
 7696TIP3   OH244502   4.251   1.007  13.614 -0.5192  0.3080  0.1853
 7696TIP3    H144503   4.274   1.010  13.707 -0.6461 -0.0948  0.2335
 7696TIP3    H244504   4.172   0.953  13.612 -0.9251  0.9091 -0.0757
 7697TIP3   OH244505   5.736   0.459  16.342 -0.7175  0.1927  0.3750
 7697TIP3    H144506   5.670   0.408  16.389 -0.2044  0.1393  1.0547
 7697TIP3    H244507   5.691   0.492  16.264 -1.8103  0.8987  1.2758
 7698TIP3   OH244508   3.336   1.486  16.081 -0.1500 -0.1090  0.7881
 7698TIP3    H144509   3.424   1.462  16.051  0.4653  3.5304 -0.8184
 7698TIP3    H244510   3.285   1.495  16.000 -1.8134 -1.2059  1.6403
 7699TIP3   OH244511   0.384   2.049   3.787 -0.2105 -0.3417 -0.2698
 7699TIP3    H144512   0.464   1.999   3.801  0.5761  0.5672 -1.2929
 7699TIP3    H244513   0.409   2.115   3.722 -1.5283  0.5909  0.1342
 7700TIP3   OH244514   4.835   4.197  16.294 -0.5313  0.4519  0.2992
 7700TIP3    H144515   4.826   4.221  16.387  0.0175 -1.1389  0.7934
 7700TIP3    H244516   4.853   4.280  16.250 -3.3170  1.6678  1.2050
 7701TIP3   OH244517   2.304   3.787   5.693  0.0498 -0.3299  0.1738
 7701TIP3    H144518   2.231   3.849   5.683 -0.9012 -1.4302  0.0658
 7701TIP3    H244519   2.383   3.841   5.684 -0.7466  0.8067 -0.2488
 7702TIP3   OH244520   5.728   2.551   2.497 -0.1293 -0.4429  1.1400
 7702TIP3    H144521   5.735   2.583   2.407  0.2309 -1.2334  0.8753
 7702TIP3    H244522   5.779   2.613   2.549 -0.6708  0.2446  0.8602
 7703TIP3   OH244523   0.255   1.985  15.547 -0.5432  0.1060 -0.1562
 7703TIP3    H144524   0.319   1.983  15.618 -0.2619  1.6756 -0.3227
 7703TIP3    H244525   0.180   1.938  15.581 -0.2003  0.3479  0.9868
 7704TIP3   OH244526   3.833   4.260  16.396 -0.5091 -0.4221  0.7055
 7704TIP3    H144527   3.833   4.236  16.488 -0.7098  0.0317  0.8254
 7704TIP3    H244528   3.871   4.184  16.351  0.3648 -0.3199  1.2467
 7705TIP3   OH244529   4.018   2.479  15.652 -0.2340 -0.5771 -0.5828
 7705TIP3    H144530   4.064   2.450  15.574  0.1781 -1.4477 -0.0434
 7705TIP3    H244531   3.988   2.398  15.694 -1.3132 -0.0826 -0.3490
 7706TIP3   OH244532   5.788   6.716  13.750  0.2998  0.0279  0.0739
 7706TIP3    H144533   5.766   6.774  13.677 -1.0169  0.2102  0.5927
 7706TIP3    H244534   5.883   6.711  13.748  0.3523  0.9274 -0.9638
 7707TIP3   OH244535   6.286   5.829   5.274 -0.1638  0.3999 -0.0421
 7707TIP3    H144536   6.192   5.842   5.278 -0.3517 -0.8062 -0.0994
 7707TIP3    H244537   6.301   5.748   5.324  0.5673 -0.5651 -1.7377
 7708TIP3   OH244538   5.053   5.796   3.305  0.9079  0.0037 -0.7863
 7708TIP3    H144539   5.047   5.890   3.288  0.8661  0.7498  2.5138
 7708TIP3    H244540   5.147   5.780   3.319  0.8055 -0.2133 -0.3299
 7709TIP3   OH244541   1.852   6.625  10.919  0.0164 -0.0518  0.5062
 7709TIP3    H144542   1.910   6.549  10.923 -0.0373 -0.3589 -2.4117
 7709TIP3    H244543   1.911   6.700  10.909 -0.0137 -0.0382  0.4303
 7710TIP3   OH244544   5.451   3.260  13.986  0.1970  0.5040 -0.2230
 7710TIP3    H144545   5.464   3.167  13.967  0.7141  0.5286 -0.0200
 7710TIP3    H244546   5.527   3.284  14.039  1.0625  1.4724 -1.7925
 7711TIP3   OH244547   2.226   1.195   1.199 -0.0309  0.3616 -0.4637
 7711TIP3    H144548   2.141   1.203   1.157 -0.8983 -1.0135  0.9080
 7711TIP3    H244549   2.220   1.113   1.249  2.1013  0.2281 -0.3376
 7712TIP3   OH244550   4.578   1.039  12.546  0.1729 -0.0077  0.3886
 7712TIP3    H144551   4.550   1.004  12.630  0.4967  0.2275  0.5991
 7712TIP3    H244552   4.673   1.024  12.544  0.4577  1.5301  0.8243
 7713TIP3   OH244553   0.016   0.397  11.591 -0.2134  0.1525  0.0586
 7713TIP3    H144554  -0.027   0.343  11.525  0.0063 -0.1879  0.1936
 7713TIP3    H244555  -0.033   0.480  11.589 -1.4241 -0.5205  0.8061
 7714TIP3   OH244556   1.190   2.576  12.322 -0.0835 -0.2048  0.0326
 7714TIP3    H144557   1.169   2.621  12.240  1.0264  0.8498  0.2933
 7714TIP3    H244558   1.251   2.507  12.297  1.0102  0.7198  0.0580
 7715TIP3   OH244559   4.540   5.920  14.072 -0.3921  0.0583  0.3876
 7715TIP3    H144560   4.481   5.945  14.002  0.3163 -1.6158 -0.8587
 7715TIP3    H244561   4.606   5.989  14.074 -1.5271  1.1700  0.8187
 7716TIP3   OH244562   3.626   5.941  14.453 -0.3767  0.1255 -0.0043
 7716TIP3    H144563   3.611   6.020  14.401  0.7403  1.0205  0.9831
 7716TIP3    H244564   3.662   5.973  14.536  2.0293 -1.4742 -0.3054
 7717TIP3   OH244565   1.538   1.380  11.663  0.1648  0.1577 -0.2145
 7717TIP3    H144566   1.628   1.375  11.694  0.6685 -3.2967 -1.7596
 7717TIP3    H244567   1.540   1.448  11.596  2.1376 -1.0017 -1.4378
 7718TIP3   OH244568   6.413   2.473   5.746 -0.1577 -0.0958  0.0674
 7718TIP3    H144569   6.422   2.448   5.837  1.3841  0.2356  0.0366
 7718TIP3    H244570   6.460   2.404   5.698 -0.0049  0.3231 -0.3852
 7719TIP3   OH244571   3.123   1.018   5.679 -0.0631  0.1214 -0.0346
 7719TIP3    H144572   3.030   1.017   5.701  0.0314 -0.0984  0.3680
 7719TIP3    H244573   3.125   1.032   5.584 -0.4523  2.3226  0.2338
 7720TIP3   OH244574   2.038   4.635  16.302 -0.0801  0.3465  0.8887
 7720TIP3    H144575   2.052   4.647  16.209 -0.8400 -0.9153  0.5890
 7720TIP3    H244576   2.119   4.595  16.334 -1.0140 -2.4035  0.0838
 7721TIP3   OH244577   3.911   1.922   0.015 -0.4331 -0.8034  0.0701
 7721TIP3    H144578   3.958   1.852   0.061  0.2749 -0.4433 -0.0894
 7721TIP3    H244579   3.820   1.914   0.045 -0.4379 -2.0195 -0.2375
 7722TIP3   OH244580   1.525   1.840   5.459  0.4437  0.1523 -0.4712
 7722TIP3    H144581   1.544   1.931   5.480  0.6525 -0.3404  1.8197
 7722TIP3    H244582   1.610   1.796   5.461  0.6095  0.1664 -3.4611
 7723TIP3   OH244583   2.853   2.452  14.310  0.1485  0.3485 -0.2496
 7723TIP3    H144584   2.797   2.499  14.373 -1.4423  0.1052 -1.4163
 7723TIP3    H244585   2.897   2.385  14.363 -1.4622 -0.1287  0.5605
 7724TIP3   OH244586   0.672   6.155   6.512  0.2583  0.1876  0.2336
 7724TIP3    H144587   0.611   6.119   6.448  3.0849  1.6048 -3.6847
 7724TIP3    H244588   0.728   6.081   6.535 -0.2787 -0.1611  0.4317
 7725TIP3   OH244589   5.302   5.256  12.297  0.4291  0.4362 -0.2366
 7725TIP3    H144590   5.320   5.296  12.382  2.7780  1.9407 -1.3536
 7725TIP3    H244591   5.216   5.216  12.308  0.1081  1.6270  2.4647
 7726TIP3   OH244592   6.449   1.246   2.985  0.3915 -0.5385  0.5156
 7726TIP3    H144593   6.438   1.339   2.965 -1.0291 -0.8304 -0.1709
 7726TIP3    H244594   6.499   1.245   3.067 -0.4371  0.8482  1.0803
 7727TIP3   OH244595   6.591   0.813  11.410 -0.5077  0.0293  0.5736
 7727TIP3    H144596   6.546   0.867  11.346 -3.1014 -1.8822  0.6211
 7727TIP3    H244597   6.639   0.875  11.465 -1.4364  2.0320 -0.7713
 7728TIP3   OH244598   0.498   3.292   3.729  0.7536  0.2330  0.3229
 7728TIP3    H144599   0.529   3.295   3.820  0.9178  0.6591  0.2539
 7728TIP3    H244600   0.570   3.252   3.681 -0.1487 -2.0141  0.7064
 7729TIP3   OH244601   3.645   6.738  12.139  0.5786  0.4303 -0.3777
 7729TIP3    H144602   3.732   6.727  12.103  0.4133  1.5316 -1.1533
 7729TIP3    H244603   3.587   6.738  12.063  0.0093  0.7104  0.0492
 7730TIP3   OH244604   1.439   3.998  16.787  0.4251  0.2259  0.2575
 7730TIP3    H144605   1.392   4.078  16.809  1.0706  0.9941 -1.0387
 7730TIP3    H244606   1.519   4.028  16.745  0.2895 -1.1021 -1.0359
 7731TIP3   OH244607   2.396   2.458   0.511 -0.1719 -0.0914  0.3402
 7731TIP3    H144608   2.371   2.378   0.557  0.9368 -1.1391 -0.8147
 7731TIP3    H244609   2.473   2.490   0.557  0.8252 -1.0379 -0.6083
 7732TIP3   OH244610   3.776   2.268   1.830  0.0200 -0.0970  0.2335
 7732TIP3    H144611   3.870   2.263   1.847  0.2940  1.7330 -0.5777
 7732TIP3    H244612   3.736   2.222   1.904  1.5311 -0.9703  0.5509
 7733TIP3   OH244613   1.425   3.833   1.543 -0.6790  0.2249 -0.8282
 7733TIP3    H144614   1.342   3.820   1.497 -1.3976  3.4669 -0.6637
 7733TIP3    H244615   1.471   3.898   1.490 -0.8446  2.8828  2.0279
 7734TIP3   OH244616   4.783   2.733  15.132 -0.0539 -0.1002  0.0145
 7734TIP3    H144617   4.836   2.675  15.186  1.6339  1.1838 -0.1783
 7734TIP3    H244618   4.708   2.680  15.106  1.4763 -2.2576 -0.2846
 7735TIP3   OH244619   6.699   3.580   2.483 -0.2645 -0.0232  0.1517
 7735TIP3    H144620   6.629   3.577   2.418 -0.5103  0.0746  0.4090
 7735TIP3    H244621   6.766   3.636   2.445 -1.3949  1.9579  0.9417
 7736TIP3   OH244622   4.548   0.339  13.156  0.8054  0.1134 -0.5351
 7736TIP3    H144623   4.473   0.390  13.189  1.5592  0.4084  0.8086
 7736TIP3    H244624   4.612   0.405  13.131 -0.1114 -0.0446 -3.7557
 7737TIP3   OH244625   4.445   1.696   1.382  0.1015  0.1902  0.4383
 7737TIP3    H144626   4.401   1.696   1.297 -0.2796  0.9813  0.6267
 7737TIP3    H244627   4.462   1.603   1.400  0.1589  0.0086 -0.4778
 7738TIP3   OH244628   2.429   0.246  13.559  0.5161 -0.4961 -0.4611
 7738TIP3    H144629   2.415   0.340  13.572  2.1988 -0.3111  0.1944
 7738TIP3    H244630   2.429   0.234  13.464  1.0686  0.3018 -0.5665
 7739TIP3   OH244631   6.790   2.587  14.516  0.2436 -0.5896  0.1680
 7739TIP3    H144632   6.722   2.593  14.583  0.0786 -0.0330 -0.0461
 7739TIP3    H244633   6.752   2.628  14.438  0.5210 -1.0177 -0.2005
 7740TIP3   OH244634   1.866   1.906   3.764 -0.4250 -0.5739 -0.0222
 7740TIP3    H144635   1.945   1.852   3.770  0.3526  0.4249 -0.8587
 7740TIP3    H244636   1.832   1.889   3.677  1.2511  2.0934 -1.3220
 7741TIP3   OH244637   5.722   3.942   4.528 -0.1022 -0.1530  0.3003
 7741TIP3    H144638   5.634   3.906   4.541 -0.4241  1.1883  2.4696
 7741TIP3    H244639   5.742   3.986   4.611  1.4217  2.1139 -1.1442
 7742TIP3   OH244640   3.715   4.534   1.548  0.4177  0.5978 -0.2148
 7742TIP3    H144641   3.810   4.525   1.559  0.2617  0.6480  1.5106
 7742TIP3    H244642   3.683   4.445   1.542  0.5549  0.5745 -0.6023
 7743TIP3   OH244643   2.198   6.647  15.903 -1.1042 -0.0962 -0.7723
 7743TIP3    H144644   2.244   6.658  15.986 -1.0341  0.1323 -0.8409
 7743TIP3    H244645   2.251   6.583  15.854 -1.2627 -0.3950 -0.5570
 7744TIP3   OH244646   2.560   0.246  11.695 -0.1670 -0.0130  0.5237
 7744TIP3    H144647   2.500   0.278  11.629  0.4206  0.6077  0.2812
 7744TIP3    H244648   2.606   0.324  11.726  0.5091 -0.4713  0.7049
 7745TIP3   OH244649   1.933   0.525  14.142  0.6943 -0.3080  0.6410
 7745TIP3    H144650   1.973   0.594  14.194  0.5929 -0.8738  1.4828
 7745TIP3    H244651   1.886   0.471  14.205 -3.0032  1.3246 -0.3939
 7746TIP3   OH244652   2.696   4.658  12.638 -0.5113 -0.1311  0.5607
 7746TIP3    H144653   2.748   4.600  12.582  0.3372  1.7258 -0.7152
 7746TIP3    H244654   2.759   4.693  12.701 -0.3180  1.5090 -0.4765
 7747TIP3   OH244655   2.677   1.967   2.704  0.6602  0.2672  0.5798
 7747TIP3    H144656   2.716   2.002   2.784  0.1531 -2.0390  1.9168
 7747TIP3    H244657   2.590   1.936   2.731  0.9595 -1.6803 -0.5578
 7748TIP3   OH244658   5.758   5.486   1.013 -0.2269  1.1699 -0.3425
 7748TIP3    H144659   5.736   5.550   0.946 -2.0996  0.3542 -0.5679
 7748TIP3    H244660   5.682   5.486   1.072 -0.0624 -0.4594 -0.0826
 7749TIP3   OH244661   5.266   1.909   0.997  0.2700 -0.0083 -0.1996
 7749TIP3    H144662   5.328   1.859   1.049  0.7720 -0.2152 -0.9688
 7749TIP3    H244663   5.212   1.955   1.060  0.3077 -0.9125  0.5133
 7750TIP3   OH244664   5.452   3.794  15.155  0.0799  0.0326  0.0650
 7750TIP3    H144665   5.399   3.868  15.126 -1.1786 -0.1510  1.7526
 7750TIP3    H244666   5.492   3.824  15.237  0.9443 -0.5630 -0.1269
 7751TIP3   OH244667   1.787   0.722  11.000 -0.3090  0.4350 -0.2563
 7751TIP3    H144668   1.751   0.791  10.943 -1.2301  0.0727 -0.1371
 7751TIP3    H244669   1.796   0.765  11.086  0.2932  0.7513 -0.4789
 7752TIP3   OH244670   0.232   3.735   2.179 -0.4792  0.2269  0.2115
 7752TIP3    H144671   0.258   3.825   2.158 -0.2100  0.1970  0.4106
 7752TIP3    H244672   0.169   3.712   2.111 -0.9227  0.7404  0.4485
 7753TIP3   OH244673   5.216   0.028  11.512 -0.0436  0.1637  0.1758
 7753TIP3    H144674   5.231   0.017  11.606  1.0413  0.7568  0.0889
 7753TIP3    H244675   5.248  -0.053  11.473  0.4572  0.3252  0.2391
 7754TIP3   OH244676   4.497   5.044  14.997  0.1672  0.8062  0.2945
 7754TIP3    H144677   4.531   5.130  14.972 -0.0996  0.8459  0.0686
 7754TIP3    H244678   4.550   5.018  15.073 -0.1874  1.4677  0.7813
 7755TIP3   OH244679   2.992   4.966   4.775 -0.3119 -0.0175  0.1716
 7755TIP3    H144680   3.059   5.010   4.721 -0.8412  0.7520  0.1273
 7755TIP3    H244681   2.989   5.017   4.856 -3.2618  2.1623 -1.1292
 7756TIP3   OH244682   0.943   3.421   5.521  0.3980  0.0380 -0.1006
 7756TIP3    H144683   1.016   3.461   5.473 -1.1362  1.3546 -1.4151
 7756TIP3    H244684   0.894   3.494   5.558 -0.4479 -0.8063  0.5110
 7757TIP3   OH244685   0.218   3.878  11.080 -0.2885  0.2162 -0.0463
 7757TIP3    H144686   0.223   3.903  10.988 -0.9596 -1.8695 -0.7114
 7757TIP3    H244687   0.273   3.799  11.087  0.2841  0.7153  1.4960
 7758TIP3   OH244688   1.309   5.523   3.855  0.0197  0.1732  0.0990
 7758TIP3    H144689   1.234   5.465   3.840 -0.1484  0.4532 -0.1622
 7758TIP3    H244690   1.278   5.585   3.922 -0.3948  1.0139 -0.8388
 7759TIP3   OH244691   4.112   4.594   1.176  0.1422 -0.5142  0.3899
 7759TIP3    H144692   4.086   4.645   1.253 -0.1298 -1.4632  0.9373
 7759TIP3    H244693   4.126   4.660   1.108 -1.1553  0.2217  0.8053
 7760TIP3   OH244694   5.977   1.791   5.090 -0.1893  0.0532  0.0848
 7760TIP3    H144695   5.983   1.844   5.169  0.0050  0.6617 -0.3303
 7760TIP3    H244696   6.058   1.741   5.088 -0.5477 -0.5684  0.6862
 7761TIP3   OH244697   2.412   5.231   2.129 -0.2870  0.1946 -0.4331
 7761TIP3    H144698   2.477   5.298   2.109  1.2771 -1.0788  0.1411
 7761TIP3    H244699   2.345   5.241   2.061 -0.2581  2.4626 -0.2124
 7762TIP3   OH244700   6.251   4.555  15.040  0.3613  0.4965 -0.5347
 7762TIP3    H144701   6.259   4.467  15.004 -1.0123  1.1580 -2.6284
 7762TIP3    H244702   6.159   4.562  15.067  0.8570  0.7635  1.2061
 7763TIP3   OH244703   3.308   3.163  13.085  0.1732  0.0695  0.2862
 7763TIP3    H144704   3.284   3.077  13.052  0.2586 -0.0196  0.4526
 7763TIP3    H244705   3.232   3.219  13.067 -0.5169 -0.4067  1.5633
 7764TIP3   OH244706   3.834   5.024  15.424  0.3410 -0.3800 -0.1196
 7764TIP3    H144707   3.826   5.059  15.513 -3.0779  0.7006 -0.7275
 7764TIP3    H244708   3.805   4.933  15.432 -0.6841 -0.0733 -0.2057
 7765TIP3   OH244709   1.601   2.975   3.326 -0.7172 -1.0661 -0.0703
 7765TIP3    H144710   1.664   3.048   3.322  0.1443 -1.8162 -0.8869
 7765TIP3    H244711   1.601   2.948   3.417  0.8378 -1.5952 -0.1840
 7766TIP3   OH244712   3.165   2.012  16.131 -0.3837 -0.1075 -0.3077
 7766TIP3    H144713   3.188   1.919  16.129  0.2736  0.0209  0.5487
 7766TIP3    H244714   3.249   2.058  16.125 -0.7866  0.4748 -2.0401
 7767TIP3   OH244715   1.450   1.186  15.861 -0.2253  0.0586  0.6039
 7767TIP3    H144716   1.423   1.242  15.788 -0.5164 -1.4021 -0.4588
 7767TIP3    H244717   1.539   1.215  15.881 -0.0849  0.4039 -0.4301
 7768TIP3   OH244718   4.198   3.021  14.655 -0.1496 -0.3216  0.1829
 7768TIP3    H144719   4.225   3.113  14.649 -1.1662 -0.0641 -0.5716
 7768TIP3    H244720   4.146   3.017  14.736  0.6962 -0.4651  0.7426
 7769TIP3   OH244721   4.864   4.685   6.593 -0.7579  0.1714 -0.8821
 7769TIP3    H144722   4.891   4.594   6.580 -2.1167 -0.4563  0.4002
 7769TIP3    H244723   4.771   4.679   6.615 -0.9941  1.9277 -1.2801
 7770TIP3   OH244724   1.821   3.104  11.802 -0.2620  0.3904 -0.1483
 7770TIP3    H144725   1.781   3.054  11.874  0.2259 -0.2092 -0.2858
 7770TIP3    H244726   1.869   3.039  11.751  0.4537  1.0136 -0.2893
 7771TIP3   OH244727   1.475   3.093  14.951 -0.4061  0.2944 -0.1608
 7771TIP3    H144728   1.449   3.001  14.942  2.1188 -0.3659 -1.7927
 7771TIP3    H244729   1.443   3.135  14.872  2.6482 -0.4163 -1.9375
 7772TIP3   OH244730   1.873   2.495   2.190 -0.3399 -0.5706 -0.5167
 7772TIP3    H144731   1.884   2.539   2.106 -0.0020 -0.6876 -0.5336
 7772TIP3    H244732   1.791   2.530   2.224 -0.0726  0.0928 -0.5226
 7773TIP3   OH244733   5.873   3.815   0.818 -0.5450 -0.1111 -0.0422
 7773TIP3    H144734   5.916   3.833   0.734 -0.2340  0.1800  0.1739
 7773TIP3    H244735   5.784   3.847   0.807 -0.6952 -0.6680 -0.4799
 7774TIP3   OH244736   6.313   1.744  13.519 -0.3158 -0.1083  0.4064
 7774TIP3    H144737   6.245   1.761  13.584  0.9379  0.6676  1.5787
 7774TIP3    H244738   6.395   1.747  13.569  0.6468 -0.2162 -1.0984
 7775TIP3   OH244739   3.983   4.493   1.521  0.2292  0.5106  0.5098
 7775TIP3    H144740   4.041   4.556   1.478  1.4450  0.4554  1.9993
 7775TIP3    H244741   3.999   4.411   1.475  1.4976  0.4583  1.0118
 7776TIP3   OH244742   3.950   5.699  15.813 -0.0031 -0.3402 -0.1282
 7776TIP3    H144743   4.023   5.729  15.865 -1.4726  0.9253  1.3085
 7776TIP3    H244744   3.958   5.747  15.730 -1.1700  2.6667  1.3694
 7777TIP3   OH244745   3.465   3.444   5.659  0.1515  0.4194  0.1601
 7777TIP3    H144746   3.380   3.404   5.641  0.9053 -0.7510 -0.9493
 7777TIP3    H244747   3.467   3.453   5.754 -0.6650 -0.7945  0.3133
 7778TIP3   OH244748   1.560   5.990   2.496 -0.0519  0.1112  0.3083
 7778TIP3    H144749   1.570   6.076   2.538  0.3076  0.2873 -0.1321
 7778TIP3    H244750   1.475   5.994   2.454 -0.2584  0.0655  0.7148
 7779TIP3   OH244751   4.986   2.162   3.765  0.4486 -0.4170 -0.2739
 7779TIP3    H144752   4.977   2.247   3.721  1.7602 -1.1634 -2.1402
 7779TIP3    H244753   5.080   2.154   3.783  0.0905 -0.6490  1.7341
 7780TIP3   OH244754   2.806   1.392  14.562 -0.3188 -0.6960 -0.2740
 7780TIP3    H144755   2.872   1.323  14.564  1.3034  0.7728 -0.2021
 7780TIP3    H244756   2.857   1.473  14.554 -1.9864  0.6959  2.0018
 7781TIP3   OH244757   2.171   1.683   0.716 -0.4055 -0.7121  0.7783
 7781TIP3    H144758   2.210   1.598   0.737 -0.9915 -0.8068  1.5287
 7781TIP3    H244759   2.207   1.743   0.780  2.0344  0.2305 -1.2992
 7782TIP3   OH244760   0.033   2.157  12.716  0.1992  0.9782  0.1945
 7782TIP3    H144761   0.083   2.155  12.634 -1.2024  0.1233 -0.6806
 7782TIP3    H244762  -0.057   2.143  12.689  0.0230 -3.2701  2.1218
 7783TIP3   OH244763   1.066   1.311  16.991  0.1346  0.5495  0.2761
 7783TIP3    H144764   1.068   1.402  16.961 -0.8530  0.5348  0.1114
 7783TIP3    H244765   1.129   1.266  16.935 -1.0149  0.7055 -1.2290
 7784TIP3   OH244766   0.420   5.554   1.877  0.6110 -0.0928  0.2443
 7784TIP3    H144767   0.426   5.634   1.825 -1.3197 -1.5993 -2.6196
 7784TIP3    H244768   0.370   5.580   1.955  1.1557  1.7160  0.0415
 7785TIP3   OH244769   2.579   2.831  13.073 -0.8257 -0.5389  0.4959
 7785TIP3    H144770   2.575   2.760  13.010 -1.3741 -0.0352 -0.0552
 7785TIP3    H244771   2.553   2.909  13.023  2.8938  0.7041  0.1964
 7786TIP3   OH244772   4.261   4.983   2.341 -0.1823  0.0068  0.2659
 7786TIP3    H144773   4.343   4.985   2.292 -0.7675 -2.2995 -0.9267
 7786TIP3    H244774   4.203   5.042   2.293 -0.1377 -0.7063 -0.6902
 7787TIP3   OH244775   2.773   2.004   1.145  0.0518 -0.5238 -0.0425
 7787TIP3    H144776   2.843   1.958   1.099 -0.9235 -0.8804 -1.2499
 7787TIP3    H244777   2.757   1.951   1.224  1.2452 -0.3257  0.3503
 7788TIP3   OH244778   5.699   6.044  16.612  0.4969 -0.4888 -0.5672
 7788TIP3    H144779   5.775   6.101  16.614 -0.4782  0.8428  0.2167
 7788TIP3    H244780   5.678   6.035  16.519 -0.4052  1.9827 -0.6723
 7789TIP3   OH244781   5.131   3.387   3.949 -0.3871 -0.3406 -0.1034
 7789TIP3    H144782   5.152   3.462   3.893  0.8995 -0.6261 -0.0318
 7789TIP3    H244783   5.086   3.425   4.024 -0.0477  0.3252 -0.2241
 7790TIP3   OH244784   4.622   6.566  12.844 -0.4463 -0.2447 -0.6473
 7790TIP3    H144785   4.584   6.546  12.759 -2.1929 -0.5626  0.1732
 7790TIP3    H244786   4.672   6.487  12.866  0.6936  0.1501 -1.7057
 7791TIP3   OH244787   5.406   6.471  10.797  0.2058  0.3409  0.1620
 7791TIP3    H144788   5.339   6.431  10.741 -0.9187  0.3406  1.4669
 7791TIP3    H244789   5.357   6.521  10.862  1.5140  1.2451  0.4969
 7792TIP3   OH244790   4.436   1.316  16.889  0.1524 -0.2508 -0.0935
 7792TIP3    H144791   4.518   1.267  16.880 -0.0580 -0.5415 -0.4448
 7792TIP3    H244792   4.450   1.395  16.837  0.1330 -0.3977 -0.3216
 7793TIP3   OH244793   2.542   0.559  16.700  0.4881 -0.4575  0.0433
 7793TIP3    H144794   2.473   0.500  16.669  1.9096 -1.8023 -0.7288
 7793TIP3    H244795   2.616   0.542  16.641  1.2926  1.3597  0.4732
 7794TIP3   OH244796   1.099   5.560   3.509 -0.0157  0.4700  0.1196
 7794TIP3    H144797   1.066   5.585   3.595 -0.7476 -0.2510  0.0591
 7794TIP3    H244798   1.194   5.572   3.515 -0.0877  0.6933  0.9299
 7795TIP3   OH244799   2.177   0.434   2.668 -0.4496  0.2410  0.0633
 7795TIP3    H144800   2.244   0.457   2.604 -0.4902  2.8366  0.8639
 7795TIP3    H244801   2.194   0.341   2.687  3.1425  0.8163  0.4746
 7796TIP3   OH244802   1.027   5.896  12.763 -0.2171  0.2826  0.1476
 7796TIP3    H144803   1.015   5.805  12.788  0.7193 -0.3137 -1.3909
 7796TIP3    H244804   0.941   5.925  12.733 -0.1852 -0.6479 -0.9305
 7797TIP3   OH244805   6.766   2.522   1.816  0.1848 -0.2259  0.5628
 7797TIP3    H144806   6.734   2.612   1.821  3.8651  1.2027  1.9324
 7797TIP3    H244807   6.703   2.472   1.868 -1.0415  1.8588  1.2301
 7798TIP3   OH244808   3.521   6.278  11.432 -0.2174  0.0828 -0.2146
 7798TIP3    H144809   3.469   6.256  11.355  0.2603  0.2374 -0.5870
 7798TIP3    H244810   3.562   6.361  11.410  2.9971 -1.6475 -1.4084
 7799TIP3   OH244811   2.379   3.549   5.604 -0.0896 -0.6013  0.1951
 7799TIP3    H144812   2.312   3.615   5.622  0.4936  0.0041  0.1533
 7799TIP3    H244813   2.353   3.512   5.519 -1.8302 -2.2145  1.3209
 7800TIP3   OH244814   5.996   4.157  15.770 -0.1332 -0.0222  0.4898
 7800TIP3    H144815   6.041   4.179  15.851 -0.6138 -1.2741  1.1254
 7800TIP3    H244816   5.990   4.061  15.771 -0.4842 -0.0420 -0.8418
 7801TIP3   OH244817   3.277   0.953   3.364 -0.5357 -0.5652 -0.6388
 7801TIP3    H144818   3.263   1.032   3.311  1.5258  0.1557 -0.2093
 7801TIP3    H244819   3.371   0.934   3.354 -0.5968 -1.7996  0.8355
 7802TIP3   OH244820   6.715   2.005  13.023 -0.5169  0.1118 -0.0349
 7802TIP3    H144821   6.644   1.941  13.019 -0.4636 -0.0087  0.7664
 7802TIP3    H244822   6.788   1.958  13.065 -0.6693  0.8463  1.1141
 7803TIP3   OH244823   1.267   3.027   6.045 -0.3051 -0.5015  0.0708
 7803TIP3    H144824   1.187   3.039   6.095 -0.0580 -1.4356  0.7130
 7803TIP3    H244825   1.240   3.031   5.953 -0.7370  1.4100  0.2410
 7804TIP3   OH244826   6.622   4.695  11.761 -0.3106  0.2955 -0.1070
 7804TIP3    H144827   6.691   4.693  11.694 -1.6971  0.3369 -1.5962
 7804TIP3    H244828   6.635   4.779  11.805  2.6413 -1.0814  1.9922
 7805TIP3   OH244829   2.233   1.901  13.782  0.7727 -0.9040  0.3700
 7805TIP3    H144830   2.250   1.974  13.722  3.1822  1.2476  3.3385
 7805TIP3    H244831   2.148   1.921  13.820  0.4348 -0.8461 -0.3894
 7806TIP3   OH244832   4.968   4.435   4.199 -0.8256  0.5376  0.0987
 7806TIP3    H144833   4.927   4.522   4.193 -0.5602  0.6658  0.1212
 7806TIP3    H244834   4.904   4.382   4.245 -1.6547  0.3051 -1.2782
 7807TIP3   OH244835   1.654   2.381   5.837 -0.4210 -0.3537  0.7757
 7807TIP3    H144836   1.673   2.343   5.922 -1.4506 -1.8538  0.3755
 7807TIP3    H244837   1.733   2.366   5.785  0.7503  1.7723  1.7845
 7808TIP3   OH244838   4.608   1.477  15.671  0.7557  0.2277 -0.1110
 7808TIP3    H144839   4.627   1.413  15.602  1.1621 -0.1015  0.2961
 7808TIP3    H244840   4.687   1.477  15.726  0.3804  0.3710  0.4376
 7809TIP3   OH244841   5.168   1.130   5.687 -0.0293 -0.1843 -0.9397
 7809TIP3    H144842   5.126   1.160   5.767  1.8556  3.0636 -0.9556
 7809TIP3    H244843   5.123   1.178   5.617  1.4482  0.7863 -1.2693
 7810TIP3   OH244844   2.635   0.333  14.348  0.1612 -0.0639  0.1344
 7810TIP3    H144845   2.662   0.262  14.407 -0.4401  1.2346  2.0735
 7810TIP3    H244846   2.710   0.346  14.291 -0.2010 -3.1624 -1.2957
 7811TIP3   OH244847   0.932   4.787  11.500  0.1440  0.2596  0.2159
 7811TIP3    H144848   0.932   4.726  11.574 -0.2687 -0.3978 -0.3103
 7811TIP3    H244849   0.887   4.865  11.533 -0.0687 -0.0395  0.6447
 7812TIP3   OH244850   4.838   2.961   1.031 -0.5306 -0.3052  0.3288
 7812TIP3    H144851   4.766   2.948   1.092 -0.0052  1.7254  1.4778
 7812TIP3    H244852   4.808   3.033   0.974  0.4382  0.3598  0.6357
 7813TIP3   OH244853   3.470   4.801  16.337 -0.3169 -0.4724 -0.2852
 7813TIP3    H144854   3.508   4.748  16.406 -1.4412 -1.5289 -0.4415
 7813TIP3    H244855   3.469   4.744  16.260 -2.0695 -0.4741 -0.3153
 7814TIP3   OH244856   5.531   4.538   0.962 -0.4032 -0.3146  0.3124
 7814TIP3    H144857   5.554   4.464   1.018  1.3131  0.3355  0.5218
 7814TIP3    H244858   5.464   4.586   1.012 -1.1678 -1.4151  0.3882
 7815TIP3   OH244859   6.416   4.323   4.821  0.8111 -1.0479  0.5085
 7815TIP3    H144860   6.412   4.404   4.771  2.3202 -1.3229 -0.1149
 7815TIP3    H244861   6.346   4.331   4.886  0.6500  0.5498  0.1756
 7816TIP3   OH244862   4.218   1.418   0.100 -0.0594 -0.0252 -0.0132
 7816TIP3    H144863   4.127   1.390   0.094  0.2434 -1.3097  0.9739
 7816TIP3    H244864   4.216   1.490   0.163 -0.5623  0.8813 -1.0321
 7817TIP3   OH244865   0.813   5.698  11.447 -0.0907 -0.4784  0.7390
 7817TIP3    H144866   0.835   5.649  11.526 -0.8681  0.7006  1.7145
 7817TIP3    H244867   0.744   5.646  11.405 -0.1104 -0.7917  1.1562
 7818TIP3   OH244868   1.925   4.640   1.111 -0.1770  0.1797 -0.0534
 7818TIP3    H144869   1.939   4.724   1.155  0.2605  0.3284 -0.4720
 7818TIP3    H244870   2.004   4.589   1.129 -0.9880 -0.6572  1.3163
 7819TIP3   OH244871   4.010   4.516  14.545  0.1281  0.0577 -0.2672
 7819TIP3    H144872   3.924   4.506  14.584  0.5371 -0.2790  0.5835
 7819TIP3    H244873   4.057   4.575  14.604  1.6249 -2.4963  1.2936
 7820TIP3   OH244874   2.178   6.268  14.290 -0.3104  0.3815 -0.2744
 7820TIP3    H144875   2.258   6.224  14.318 -0.0592  0.2269 -1.2181
 7820TIP3    H244876   2.183   6.354  14.333 -0.4384 -0.2026  0.9635
 7821TIP3   OH244877   5.973   6.755   5.840  0.2470  0.6756  0.9585
 7821TIP3    H144878   5.918   6.833   5.837  2.8480  2.6303 -0.6904
 7821TIP3    H244879   5.968   6.725   5.930 -1.3857  2.3608  1.4857
 7822TIP3   OH244880   1.400   6.592  12.768  0.3246 -0.5762 -0.1257
 7822TIP3    H144881   1.431   6.629  12.686  0.5844 -0.8730 -0.1621
 7822TIP3    H244882   1.368   6.668  12.818  0.2305 -0.3883 -0.4681
 7823TIP3   OH244883   3.302   6.781  13.898 -0.3378  0.0184  0.3374
 7823TIP3    H144884   3.248   6.848  13.856  0.1183  0.8643  1.0500
 7823TIP3    H244885   3.311   6.712  13.833  0.7997  1.5159 -1.1910
 7824TIP3   OH244886   5.526   2.888  11.365  0.0474  0.0048 -0.2097
 7824TIP3    H144887   5.443   2.848  11.391  0.8764 -0.7810  1.3936
 7824TIP3    H244888   5.532   2.872  11.271 -0.3106 -2.4843  0.1218
 7825TIP3   OH244889   0.393   1.281  16.756 -0.2412  0.1044 -0.0214
 7825TIP3    H144890   0.433   1.233  16.828 -0.9352 -0.1766  0.1802
 7825TIP3    H244891   0.455   1.270  16.683  0.8969  1.1205  0.7558
 7826TIP3   OH244892   0.235   4.864   2.784  0.9617 -0.3515  0.0155
 7826TIP3    H144893   0.304   4.854   2.849 -0.8800  0.9592  2.3453
 7826TIP3    H244894   0.163   4.905   2.832  0.2966  3.0466 -3.3655
 7827TIP3   OH244895   0.322   4.474  13.651  0.1498  0.4838  0.9339
 7827TIP3    H144896   0.302   4.382  13.638 -1.0393  1.1100 -3.2867
 7827TIP3    H244897   0.413   4.476  13.680  0.1859 -1.9458  1.1892
 7828TIP3   OH244898   4.819   0.221  10.462  0.2736  0.0662 -0.3205
 7828TIP3    H144899   4.857   0.135  10.478  0.7999  0.4314  0.4885
 7828TIP3    H244900   4.858   0.251  10.380  0.7746 -0.0903 -0.1383
 7829TIP3   OH244901   1.289   3.101  11.065 -0.5635  0.3993 -0.7201
 7829TIP3    H144902   1.198   3.081  11.042 -0.3963 -0.4882 -0.6751
 7829TIP3    H244903   1.339   3.026  11.031  0.0885  0.6469 -0.3269
 7830TIP3   OH244904   6.155   1.044   4.798  0.4926  0.0654  0.6111
 7830TIP3    H144905   6.222   1.006   4.856  0.5070  0.9665  1.2094
 7830TIP3    H244906   6.072   1.022   4.840  0.3647 -1.4978 -0.4038
 7831TIP3   OH244907   4.132   2.912   0.612 -0.5018 -0.2592  0.0877
 7831TIP3    H144908   4.131   2.993   0.561  0.7050  0.2345  0.8011
 7831TIP3    H244909   4.040   2.894   0.630 -0.7425  2.0601  1.5754
 7832TIP3   OH244910   2.311   3.158  13.134 -0.0136 -0.2426 -0.2557
 7832TIP3    H144911   2.353   3.095  13.077 -0.6491 -0.0008 -1.0030
 7832TIP3    H244912   2.325   3.243  13.092 -0.7016 -0.0889 -0.1899
 7833TIP3   OH244913   2.912   2.187   5.735  0.1039 -0.3226 -0.1144
 7833TIP3    H144914   2.823   2.194   5.701 -0.8138 -2.3689  1.6107
 7833TIP3    H244915   2.935   2.095   5.726  1.6388 -0.0364  0.4372
 7834TIP3   OH244916   6.358   6.058  13.439  0.3476 -0.1720  0.3108
 7834TIP3    H144917   6.343   6.126  13.505 -0.3792 -0.5477  0.5420
 7834TIP3    H244918   6.453   6.047  13.436  0.4946  1.0534  0.0656
 7835TIP3   OH244919   3.275   3.357   0.975 -0.2285 -0.0150 -0.5566
 7835TIP3    H144920   3.300   3.346   1.066 -3.7102  3.4941  1.1639
 7835TIP3    H244921   3.334   3.425   0.942 -0.9601  1.0309  0.2174
 7836TIP3   OH244922   0.377   6.682  13.112 -0.3276 -0.6487  0.0142
 7836TIP3    H144923   0.388   6.587  13.101  1.5380 -0.9442  2.9956
 7836TIP3    H244924   0.355   6.692  13.205  0.4570  1.8705 -0.0061
 7837TIP3   OH244925   6.787   3.758  13.424 -0.2666  0.1323  0.4817
 7837TIP3    H144926   6.832   3.679  13.454 -3.0902 -1.8023  0.0246
 7837TIP3    H244927   6.759   3.736  13.335  0.0813  2.2543 -0.2007
 7838TIP3   OH244928   2.579   3.615   1.389 -0.4756 -0.2034  0.0142
 7838TIP3    H144929   2.530   3.697   1.379  0.1138  0.3233  1.1952
 7838TIP3    H244930   2.670   3.640   1.373 -0.5433 -1.1755 -2.2050
 7839TIP3   OH244931   3.381   5.012  12.432  0.0110 -0.3518 -0.0785
 7839TIP3    H144932   3.445   5.048  12.371 -0.0904  0.5404  0.3179
 7839TIP3    H244933   3.400   4.918  12.436  2.9587  0.1919  1.9319
 7840TIP3   OH244934   0.318   5.274  14.349  0.1941 -0.1873  0.3297
 7840TIP3    H144935   0.292   5.343  14.288 -0.2161 -1.5389 -1.0978
 7840TIP3    H244936   0.299   5.193  14.302  2.0431 -1.2793  1.3440
 7841TIP3   OH244937   2.036   4.885  14.986 -0.1180  0.1861 -0.0545
 7841TIP3    H144938   1.965   4.930  14.940  1.3965  2.4675 -0.3169
 7841TIP3    H244939   2.006   4.794  14.992 -1.0713  0.0210 -4.2478
 7842TIP3   OH244940   6.216   4.715   1.549  0.3673  0.2938  0.2698
 7842TIP3    H144941   6.128   4.679   1.537 -0.9249  2.5664  2.1387
 7842TIP3    H244942   6.239   4.694   1.639  2.0933 -0.8217 -0.3749
 7843TIP3   OH244943   2.389   4.716  13.212  0.0296 -0.0964 -0.1776
 7843TIP3    H144944   2.466   4.767  13.238 -0.9686  1.6156 -0.4341
 7843TIP3    H244945   2.410   4.684  13.125  0.5522  0.1678 -0.1513
 7844TIP3   OH244946   4.830   3.849  10.987  0.2178  0.3510 -0.3829
 7844TIP3    H144947   4.742   3.852  10.950  0.8285  1.8629 -1.8546
 7844TIP3    H244948   4.828   3.909  11.061 -0.1805 -0.2694  0.1247
 7845TIP3   OH244949   3.670   6.704  15.085  0.1828 -0.0894  0.2071
 7845TIP3    H144950   3.606   6.721  15.154 -0.4501 -1.1011 -0.1156
 7845TIP3    H244951   3.627   6.642  15.027  1.7856 -1.4865  0.4438
 7846TIP3   OH244952   3.404   0.754  16.434 -0.3954 -0.3466 -0.3386
 7846TIP3    H144953   3.353   0.685  16.477 -2.3904  1.0326 -0.3339
 7846TIP3    H244954   3.395   0.830  16.492  1.1384  0.1628 -0.7115
 7847TIP3   OH244955   2.386   1.365  13.578 -0.1114 -0.0726  0.1117
 7847TIP3    H144956   2.394   1.388  13.671  0.6506 -0.1656  0.0699
 7847TIP3    H244957   2.444   1.426  13.533  1.6649 -1.7775 -0.0434
 7848TIP3   OH244958   5.253   1.978  12.655 -0.9429 -0.7210  0.2997
 7848TIP3    H144959   5.264   2.015  12.567 -1.1733 -2.3679 -0.4467
 7848TIP3    H244960   5.229   2.053  12.709  0.8053  0.6321 -0.6908
 7849TIP3   OH244961   4.064   6.028   5.066 -0.2418 -0.3150 -0.0967
 7849TIP3    H144962   4.134   5.962   5.065 -0.3315 -0.4263 -1.6666
 7849TIP3    H244963   3.999   5.993   5.127  0.0275 -1.3541 -0.3835
 7850TIP3   OH244964   4.456   3.336  12.885 -0.1988 -0.3829  0.2466
 7850TIP3    H144965   4.474   3.401  12.953 -0.8593 -0.2566  0.3075
 7850TIP3    H244966   4.381   3.373  12.836  0.3435 -0.4065 -0.6273
 7851TIP3   OH244967   3.575   4.771   0.543  0.0794 -0.3906  0.4632
 7851TIP3    H144968   3.566   4.683   0.505  1.3743  0.0023 -0.8634
 7851TIP3    H244969   3.502   4.820   0.506 -0.4344 -0.8107  0.9138
 7852TIP3   OH244970   2.375   6.440   2.369  0.6605 -0.1363 -0.0115
 7852TIP3    H144971   2.349   6.483   2.288 -0.7239 -2.5555 -0.9531
 7852TIP3    H244972   2.295   6.437   2.422  0.6266 -1.6804 -0.0898
 7853TIP3   OH244973   5.793   3.612  12.796  0.0372 -0.6311 -0.0054
 7853TIP3    H144974   5.833   3.583  12.878 -0.1685 -0.3842  0.1854
 7853TIP3    H244975   5.865   3.612  12.733  0.5375  0.6071  0.5318
 7854TIP3   OH244976   5.016   3.336   3.692 -0.0544 -0.4904 -0.0095
 7854TIP3    H144977   5.075   3.351   3.618  0.7320 -1.1295  0.4716
 7854TIP3    H244978   5.073   3.305   3.762 -1.0876 -2.0962  0.1607
 7855TIP3   OH244979   6.679   2.165  12.234 -0.0310 -0.2829  0.0320
 7855TIP3    H144980   6.762   2.124  12.258 -1.4053 -2.7123  1.0261
 7855TIP3    H244981   6.704   2.241  12.183  2.7795 -1.4353 -0.5039
 7856TIP3   OH244982   4.056   3.754  12.528 -0.0764 -0.3957 -0.8226
 7856TIP3    H144983   4.031   3.702  12.451 -0.3635  1.5484 -2.1073
 7856TIP3    H244984   3.973   3.771  12.573 -0.0717 -0.4479 -0.7938
 7857TIP3   OH244985   0.564   1.436   4.476  0.1918  1.0669 -0.3354
 7857TIP3    H144986   0.650   1.417   4.513 -0.2260  1.0256  0.6370
 7857TIP3    H244987   0.573   1.524   4.440  0.7698  0.8818 -0.6582
 7858TIP3   OH244988   5.117   5.100  11.959  0.0763 -0.6611  0.7568
 7858TIP3    H144989   5.090   5.126  11.870  0.9649 -0.5591  0.5052
 7858TIP3    H244990   5.197   5.150  11.975  0.0403 -0.8428  1.5391
 7859TIP3   OH244991   2.499   6.216  12.125 -0.0723  0.7042  0.2914
 7859TIP3    H144992   2.548   6.283  12.079 -1.5925  1.8846  0.3228
 7859TIP3    H244993   2.411   6.252  12.135 -0.4789 -0.5776  1.8417
 7860TIP3   OH244994   4.757   5.268   0.217 -0.7607 -0.5734  0.4870
 7860TIP3    H144995   4.797   5.181   0.208  1.3732  0.1328  2.1953
 7860TIP3    H244996   4.814   5.326   0.167 -1.9457 -0.0502 -0.3087
 7861TIP3   OH244997   5.099   0.026  16.997 -0.3923  0.6026  0.2803
 7861TIP3    H144998   5.028  -0.036  16.980  1.1181 -0.6103 -2.4219
 7861TIP3    H244999   5.092   0.090  16.927  0.4570  1.1494  0.6786
 7862TIP3   OH245000   2.037   0.463  16.209  0.1038 -0.3439 -0.3352
 7862TIP3    H145001   2.046   0.395  16.276  1.0101 -0.3607 -0.4603
 7862TIP3    H245002   2.048   0.416  16.126 -0.2643 -0.2005 -0.4669
 7863TIP3   OH245003   3.824   2.978   3.309 -0.4861  0.6226 -0.2700
 7863TIP3    H145004   3.767   2.903   3.292 -1.3204  1.0258  0.6859
 7863TIP3    H245005   3.799   3.043   3.242  0.7231 -0.1686 -1.5539
 7864TIP3   OH245006   4.910   3.198  15.452 -0.4999 -0.3102 -0.3835
 7864TIP3    H145007   4.973   3.128  15.436 -0.0681  0.4094 -2.0173
 7864TIP3    H245008   4.875   3.220  15.365 -1.4106  0.7685  0.2215
 7865TIP3   OH245009   0.169   0.230   3.418 -0.0629 -0.3862 -0.0316
 7865TIP3    H145010   0.195   0.159   3.477 -1.5635  0.9517  2.4169
 7865TIP3    H245011   0.194   0.310   3.463 -2.8363  0.7604 -0.2999
 7866TIP3   OH245012   0.714   5.705   3.626  0.1066  0.0316  0.4436
 7866TIP3    H145013   0.734   5.657   3.707  0.3825  0.5652  0.6920
 7866TIP3    H245014   0.793   5.755   3.608  0.5644 -1.1207 -0.9156
 7867TIP3   OH245015   4.102   0.072  12.436 -0.0374 -0.4691 -0.3088
 7867TIP3    H145016   4.105  -0.018  12.404  1.3899 -0.3857 -0.4451
 7867TIP3    H245017   4.015   0.103  12.411  0.0680 -1.2601 -1.7625
 7868TIP3   OH245018   2.939   2.015   4.093  0.0479 -0.3965 -0.1536
 7868TIP3    H145019   3.024   2.035   4.134  0.2157  0.3527 -0.8443
 7868TIP3    H245020   2.948   2.046   4.003  0.0348 -2.9309 -1.0988
 7869TIP3   OH245021   5.237   4.965   1.373 -0.4924  0.2585 -0.0297
 7869TIP3    H145022   5.301   4.984   1.304  1.1981  0.2228  1.4445
 7869TIP3    H245023   5.234   5.045   1.425 -0.9161 -0.0901  0.4873
 7870TIP3   OH245024   3.011   1.103  14.200 -0.2573  0.4822 -0.2480
 7870TIP3    H145025   2.937   1.044  14.218 -0.5379  0.3841 -1.6483
 7870TIP3    H245026   2.994   1.180  14.253 -1.5186  0.5696 -0.7551
 7871TIP3   OH245027   4.506   6.108  11.102 -0.9061 -0.5834 -0.4133
 7871TIP3    H145028   4.578   6.126  11.043 -1.0144  1.2641 -0.0337
 7871TIP3    H245029   4.435   6.164  11.072 -1.1583 -0.0483  1.0709
 7872TIP3   OH245030   6.205   0.648  15.015  0.0093  0.3878 -0.4653
 7872TIP3    H145031   6.195   0.592  15.092  0.2750  1.3106  0.2593
 7872TIP3    H245032   6.285   0.617  14.973  1.0181  1.1789  0.7809
 7873TIP3   OH245033   3.574   3.213   3.499 -0.6279 -0.3018  0.2288
 7873TIP3    H145034   3.527   3.295   3.485  1.0306  0.4425 -1.4239
 7873TIP3    H245035   3.629   3.229   3.576  1.3003  1.0101 -1.3052
 7874TIP3   OH245036   5.704   5.386  11.130  0.3211 -0.2377  0.4708
 7874TIP3    H145037   5.754   5.411  11.208  0.8202  2.1365 -0.4978
 7874TIP3    H245038   5.764   5.332  11.079  1.1222  0.7329  0.3530
 7875TIP3   OH245039   0.323   3.477   4.932  0.0523 -0.0168  0.0454
 7875TIP3    H145040   0.272   3.485   5.013 -2.8480 -0.4571 -1.5807
 7875TIP3    H245041   0.342   3.568   4.907 -0.8442  0.2213  0.1921
 7876TIP3   OH245042   6.465   3.686  11.196  0.1329 -0.0658 -0.9034
 7876TIP3    H145043   6.452   3.775  11.164  0.6987 -0.1857 -1.4682
 7876TIP3    H245044   6.378   3.659  11.227  0.2296  1.1607  0.5327
 7877TIP3   OH245045   0.687   6.431  13.208  0.5493  0.4438 -0.0089
 7877TIP3    H145046   0.632   6.438  13.130 -0.0986 -0.5268  0.3400
 7877TIP3    H245047   0.730   6.346  13.200 -0.6817 -0.3750  1.3821
 7878TIP3   OH245048   1.197   6.083   0.235 -0.6871  0.0315 -0.6938
 7878TIP3    H145049   1.239   6.003   0.204 -1.7822 -0.4886 -0.8900
 7878TIP3    H245050   1.202   6.076   0.331  1.6939  1.1046 -0.6546
 7879TIP3   OH245051   4.282   1.544   1.857 -0.1325  0.4001  0.3460
 7879TIP3    H145052   4.361   1.562   1.806  0.5369  1.1399  1.6077
 7879TIP3    H245053   4.221   1.507   1.794 -0.1882  3.4174 -1.5619
 7880TIP3   OH245054   5.917   0.805  13.760 -0.9204 -0.5623  0.1278
 7880TIP3    H145055   5.970   0.847  13.692 -0.8612  0.2142  0.6284
 7880TIP3    H245056   5.845   0.765  13.713 -0.6830 -0.3533 -0.4294
 7881TIP3   OH245057   2.831   2.881  14.122  0.7009  0.0094 -0.3280
 7881TIP3    H145058   2.880   2.807  14.160  0.6498  0.6329  0.9940
 7881TIP3    H245059   2.796   2.927  14.197 -2.2474 -0.5841 -1.2191
 7882TIP3   OH245060   1.555   6.692   1.283  0.7572 -0.1157  0.3031
 7882TIP3    H145061   1.520   6.720   1.367 -0.1742  1.9653 -0.7102
 7882TIP3    H245062   1.647   6.671   1.300  0.3712 -0.5164  1.9786
 7883TIP3   OH245063   4.720   5.398   3.463  0.0800 -0.5534 -0.0171
 7883TIP3    H145064   4.720   5.364   3.553 -2.2163 -1.9449 -0.4557
 7883TIP3    H245065   4.811   5.391   3.435  0.3402 -3.2889  1.1227
 7884TIP3   OH245066   1.531   2.366  14.724  0.0752 -0.0596  0.2103
 7884TIP3    H145067   1.520   2.286  14.673 -3.0190  1.4000 -1.7117
 7884TIP3    H245068   1.442   2.399  14.737  1.0711  2.0080  2.7920
 7885TIP3   OH245069   0.336   4.623  14.147 -0.5336  0.0682  0.6854
 7885TIP3    H145070   0.311   4.552  14.088 -1.1292  0.7664  0.0764
 7885TIP3    H245071   0.368   4.693  14.090 -2.2608  1.2247  1.0470
 7886TIP3   OH245072   0.937   5.752  15.824 -0.0382  0.1744  0.1692
 7886TIP3    H145073   0.925   5.742  15.729 -1.0621  0.6014  0.2325
 7886TIP3    H245074   0.848   5.749  15.859  0.0999  2.3711  0.8686
 7887TIP3   OH245075   2.658   0.568  16.984  0.2832 -0.2584  0.0799
 7887TIP3    H145076   2.626   0.515  16.911  0.8533  0.2783 -0.5695
 7887TIP3    H245077   2.752   0.577  16.968  0.1990  0.9721  0.1573
 7888TIP3   OH245078   3.432   1.953  12.045  0.2141  0.1305 -0.2465
 7888TIP3    H145079   3.379   2.027  12.013  0.7341  0.3432 -0.6416
 7888TIP3    H245080   3.483   1.926  11.969 -1.6232 -2.1511 -0.7641
 7889TIP3   OH245081   6.054   1.449  10.458  0.2224  0.7657  0.2405
 7889TIP3    H145082   6.055   1.355  10.474 -1.0899  0.4454 -1.2638
 7889TIP3    H245083   6.140   1.479  10.485  0.5415 -0.8051  1.0897
 7890TIP3   OH245084   0.843   6.556   0.262 -0.2834  0.7974  0.0240
 7890TIP3    H145085   0.938   6.550   0.277  0.0913  0.1608 -2.1146
 7890TIP3    H245086   0.820   6.471   0.223 -1.7576  0.9294  0.5503
 7891TIP3   OH245087   2.070   4.577   4.564  0.4222  0.3211  0.1243
 7891TIP3    H145088   2.121   4.654   4.591  2.2360 -0.3817 -1.0689
 7891TIP3    H245089   1.991   4.614   4.524  1.5118  1.6220 -0.9496
 7892TIP3   OH245090   6.449   4.610   5.027 -1.1195 -0.5021  0.1338
 7892TIP3    H145091   6.400   4.644   4.952 -0.5450  1.2727  0.5203
 7892TIP3    H245092   6.538   4.601   4.994 -1.0339 -0.5242  0.3744
 7893TIP3   OH245093   2.321   4.108   1.655 -0.0724  0.5649 -0.3973
 7893TIP3    H145094   2.227   4.096   1.648 -0.2134  1.7134 -0.5104
 7893TIP3    H245095   2.332   4.182   1.715  0.7729  0.1005  0.0421
 7894TIP3   OH245096   4.552   1.636   0.559 -0.0473 -0.1170 -0.2187
 7894TIP3    H145097   4.521   1.623   0.648  0.6155  0.9839  0.2017
 7894TIP3    H245098   4.502   1.574   0.506 -0.2712 -0.9588  0.9479
 7895TIP3   OH245099   3.205   1.819   4.407  0.4462 -0.2663  0.1217
 7895TIP3    H145100   3.274   1.805   4.343 -0.6279 -0.7504 -0.9723
 7895TIP3    H245101   3.134   1.761   4.379 -0.3672  0.1326  1.2714
 7896TIP3   OH245102   2.385   3.095   2.939 -0.0569  0.1829  0.4534
 7896TIP3    H145103   2.410   3.075   3.029  0.6991 -0.2113  0.1583
 7896TIP3    H245104   2.325   3.170   2.947 -0.1175  0.0514  1.2892
 7897TIP3   OH245105   3.787   2.635  11.821  0.0513  0.4555  0.0361
 7897TIP3    H145106   3.723   2.703  11.798 -1.3787 -1.0649 -0.6664
 7897TIP3    H245107   3.757   2.557  11.774  1.3453 -0.8082  1.2275
 7898TIP3   OH245108   3.893   0.859  11.904  0.3053 -0.2671 -0.9510
 7898TIP3    H145109   3.830   0.887  11.838  0.3588  2.6508  0.0707
 7898TIP3    H245110   3.840   0.840  11.982  0.5755  2.4108 -0.0218
 7899TIP3   OH245111   1.117   1.976  13.113  0.0991  0.2238  0.2388
 7899TIP3    H145112   1.125   2.068  13.141 -0.8614  0.3328  0.1917
 7899TIP3    H245113   1.142   1.977  13.021 -0.4963  0.5592  0.0714
 7900TIP3   OH245114   0.926   6.513   1.609  0.1285 -0.0632 -0.1942
 7900TIP3    H145115   0.956   6.428   1.576 -0.7961  0.0430 -1.3739
 7900TIP3    H245116   0.947   6.575   1.539 -1.6164  0.2204 -0.5164
 7901TIP3   OH245117   3.685   6.572   0.067 -0.0014  0.3158 -0.8075
 7901TIP3    H145118   3.640   6.545   0.147  0.5597  0.7683 -0.3294
 7901TIP3    H245119   3.695   6.491   0.017 -0.8992  0.1263 -0.7084
 7902TIP3   OH245120   3.344   6.253  11.199  0.2317 -0.4691  0.1941
 7902TIP3    H145121   3.258   6.278  11.234  0.4897 -1.8062  1.9182
 7902TIP3    H245122   3.325   6.185  11.135 -0.0543  0.1372 -0.3856
 7903TIP3   OH245123   5.218   4.586  10.565  0.0339 -0.4989  0.1706
 7903TIP3    H145124   5.191   4.662  10.513  0.1416 -0.7451 -0.2482
 7903TIP3    H245125   5.161   4.588  10.642  0.5211  0.4225  0.5250
 7904TIP3   OH245126   5.306   5.647  15.659 -0.1686 -0.8580 -0.2692
 7904TIP3    H145127   5.397   5.625  15.679 -0.2208 -0.3453  0.5822
 7904TIP3    H245128   5.305   5.663  15.565  1.4361  2.7268  0.1848
 7905TIP3   OH245129   6.367   0.848   3.677  0.3802  0.0811  0.1252
 7905TIP3    H145130   6.288   0.806   3.644  0.2040  0.7682 -0.3515
 7905TIP3    H245131   6.383   0.921   3.617 -0.3308  1.7928  1.8669
 7906TIP3   OH245132   0.303   4.326   5.939  0.2449  0.3766  0.5468
 7906TIP3    H145133   0.379   4.277   5.909 -0.3667 -1.0973  1.2913
 7906TIP3    H245134   0.334   4.416   5.948  1.1540  0.3636 -1.8119
 7907TIP3   OH245135   4.965   4.032  15.843  0.0113 -0.1042  0.2056
 7907TIP3    H145136   5.009   3.948  15.834  1.3230  0.0880  3.3542
 7907TIP3    H245137   4.872   4.010  15.852  0.0664 -0.9906 -1.1928
 7908TIP3   OH245138   3.951   2.950  10.957  0.2220 -0.0514  0.6496
 7908TIP3    H145139   4.001   2.875  10.924  1.3231  1.3661 -1.0857
 7908TIP3    H245140   3.900   2.980  10.882 -1.7465 -0.1908  1.8354
 7909TIP3   OH245141   1.963   0.074  14.529  0.5665 -0.2956  0.5422
 7909TIP3    H145142   2.035   0.039  14.477  0.2760  1.5329 -1.2494
 7909TIP3    H245143   1.999   0.084  14.617  2.3929  0.2207 -0.2185
 7910TIP3   OH245144   4.124   5.438  13.631 -0.1939 -0.7931  0.1420
 7910TIP3    H145145   4.048   5.381  13.645 -1.8064  1.3130  0.4978
 7910TIP3    H245146   4.125   5.453  13.536 -0.9020 -0.0180  0.2390
 7911TIP3   OH245147   2.336   6.019   5.897  0.2689  0.7282  0.1696
 7911TIP3    H145148   2.321   5.935   5.854 -2.3257  0.4663  1.3872
 7911TIP3    H245149   2.417   6.006   5.947  0.8053 -0.4715 -0.9346
 7912TIP3   OH245150   2.784   4.679   5.910  0.8622  0.4875 -0.1659
 7912TIP3    H145151   2.785   4.742   5.838  4.2611  1.1390  0.2997
 7912TIP3    H245152   2.801   4.595   5.868  1.5266  0.6751 -0.2886
 7913TIP3   OH245153   1.007   4.125  12.051  0.5141 -0.0899  0.6123
 7913TIP3    H145154   1.073   4.061  12.024  0.5608 -0.5593  1.7588
 7913TIP3    H245155   1.004   4.188  11.979  0.5276 -1.3265 -0.5205
 7914TIP3   OH245156   3.375   3.625  11.250 -0.1063  0.3136 -0.2217
 7914TIP3    H145157   3.435   3.600  11.320 -0.4260 -1.5726 -0.5488
 7914TIP3    H245158   3.423   3.607  11.169 -0.5892  0.1324 -0.4786
 7915TIP3   OH245159   5.708   1.193   3.163 -0.1698 -0.2376  0.3343
 7915TIP3    H145160   5.618   1.167   3.143 -0.7419  0.5722  1.6939
 7915TIP3    H245161   5.701   1.281   3.199  1.1652 -0.1635  0.4837
 7916TIP3   OH245162   4.969   1.815   4.277 -0.0517  0.7785  0.2558
 7916TIP3    H145163   4.878   1.837   4.295  0.4896  1.5653  2.4604
 7916TIP3    H245164   4.998   1.881   4.214 -1.1650  0.0546 -1.0688
 7917TIP3   OH245165   5.249   2.665   5.629 -0.4193 -0.0283  0.6927
 7917TIP3    H145166   5.181   2.728   5.602 -0.8491 -0.9301 -0.3966
 7917TIP3    H245167   5.279   2.697   5.714 -0.5800  1.6882  0.1384
 7918TIP3   OH245168   5.171   0.888   5.524 -0.0057 -0.2821 -0.2504
 7918TIP3    H145169   5.150   0.973   5.563 -0.4438 -0.2635 -0.5237
 7918TIP3    H245170   5.152   0.825   5.593  0.0204 -0.1854 -0.1534
 7919TIP3   OH245171   6.153   3.117   0.749  0.1575  0.4485  0.4812
 7919TIP3    H145172   6.141   3.118   0.654  0.8274  1.2423  0.3933
 7919TIP3    H245173   6.225   3.178   0.764  0.4883 -0.1634  1.4434
 7920TIP3   OH245174   1.937   1.605  15.062  0.0451 -0.5421  0.1829
 7920TIP3    H145175   1.845   1.632  15.051 -0.1355 -0.8560  0.8826
 7920TIP3    H245176   1.943   1.522  15.015 -0.0856 -0.6182  0.2970
 7921TIP3   OH245177   5.183   2.278   4.555  0.3331  0.2668 -0.2958
 7921TIP3    H145178   5.249   2.210   4.542  0.4985  0.7054 -2.0990
 7921TIP3    H245179   5.129   2.246   4.626  0.9829 -1.2978 -0.4540
 7922TIP3   OH245180   0.088   6.662  15.560  0.0073 -0.7205  0.2608
 7922TIP3    H145181   0.180   6.652  15.534  1.3161  1.6017  3.2664
 7922TIP3    H245182   0.072   6.757  15.553 -1.8010 -0.9520  0.8630
 7923TIP3   OH245183   1.393   5.102  16.383 -0.5286 -0.7201 -0.3862
 7923TIP3    H145184   1.309   5.145  16.370 -2.1669 -3.3547  0.6191
 7923TIP3    H245185   1.392   5.029  16.321  0.1683 -1.8737  0.9082
 7924TIP3   OH245186   1.405   0.906   3.799 -0.1247 -0.4061 -0.0197
 7924TIP3    H145187   1.323   0.856   3.808  0.0907 -0.8712 -0.5362
 7924TIP3    H245188   1.386   0.991   3.837 -0.8694 -0.4945 -0.1722
 7925TIP3   OH245189   1.917   5.616   5.395 -0.3752  0.1832  0.4118
 7925TIP3    H145190   1.842   5.559   5.380 -0.0735 -0.4169  1.1632
 7925TIP3    H245191   1.948   5.638   5.307  1.2840 -3.1479  0.0347
 7926TIP3   OH245192   4.967   1.529   6.150 -0.8186  0.3042  0.2270
 7926TIP3    H145193   4.913   1.453   6.171  0.3385 -1.0038 -1.3095
 7926TIP3    H245194   5.009   1.552   6.233 -0.1156 -1.6365  0.4771
 7927TIP3   OH245195   3.552   3.818  14.430 -0.2011  0.0336 -0.4006
 7927TIP3    H145196   3.534   3.866  14.511  0.5652  0.0481 -0.2308
 7927TIP3    H245197   3.611   3.748  14.457 -0.6797 -0.5296 -0.7906
 7928TIP3   OH245198   1.807   1.686   2.104  0.3300 -0.4117  0.0375
 7928TIP3    H145199   1.899   1.691   2.132  0.5688 -0.6598 -0.6696
 7928TIP3    H245200   1.806   1.614   2.041 -0.3083 -0.2623 -0.1260
 7929TIP3   OH245201   5.402   6.078   6.404 -0.7568 -0.3829 -0.0797
 7929TIP3    H145202   5.354   6.025   6.341  0.7479 -2.3548  0.3248
 7929TIP3    H245203   5.398   6.029   6.486  0.1695  0.4262  0.4835
 7930TIP3   OH245204   1.160   2.967  15.015  0.4101 -0.0978 -0.2678
 7930TIP3    H145205   1.248   2.934  15.030  0.0266 -1.4412 -0.8790
 7930TIP3    H245206   1.105   2.918  15.076  0.1218  1.0272  0.4046
 7931TIP3   OH245207   6.059   2.597  15.775 -0.1880  0.1649  0.0163
 7931TIP3    H145208   6.050   2.630  15.686  2.0950  0.0485 -0.3250
 7931TIP3    H245209   6.083   2.505  15.764  0.8005  0.3246  0.6923
 7932TIP3   OH245210   1.183   1.408   0.577  0.2530 -0.0297 -0.4187
 7932TIP3    H145211   1.221   1.322   0.596  2.5859  1.2421  1.0779
 7932TIP3    H245212   1.239   1.445   0.510 -0.5990  0.4638 -0.8811
 7933TIP3   OH245213   1.405   5.023   1.622  0.1133  0.3704 -0.8946
 7933TIP3    H145214   1.437   5.108   1.652  0.0221  0.2123 -0.3242
 7933TIP3    H245215   1.403   4.969   1.702  2.2063 -0.8323 -1.6005
 7934TIP3   OH245216   1.844   4.725   2.855 -0.5661  0.0224 -0.1753
 7934TIP3    H145217   1.821   4.633   2.841  2.1193 -0.9182  0.9027
 7934TIP3    H245218   1.899   4.748   2.780  1.3949 -0.3019  1.1103
 7935TIP3   OH245219   0.965   4.492  13.721  0.2998 -0.4832 -0.3475
 7935TIP3    H145220   0.973   4.511  13.815 -1.9645  0.7717 -0.3515
 7935TIP3    H245221   0.951   4.398  13.716 -3.0587 -0.1695  0.9302
 7936TIP3   OH245222   0.760   1.647  16.416 -0.1564  0.2955  0.6851
 7936TIP3    H145223   0.797   1.725  16.458  1.1739  0.5976 -0.9309
 7936TIP3    H245224   0.773   1.577  16.480  1.3064  0.8312  1.0219
 7937TIP3   OH245225   4.637   2.752   2.617  0.1555 -0.0974 -0.4953
 7937TIP3    H145226   4.697   2.765   2.544 -1.8892 -0.3142 -2.3328
 7937TIP3    H245227   4.553   2.784   2.585 -0.8354 -0.1771  1.8017
 7938TIP3   OH245228   6.090   4.937  10.899  0.1499 -0.3572  0.0926
 7938TIP3    H145229   6.001   4.934  10.865  0.0778 -0.2113  0.2691
 7938TIP3    H245230   6.091   4.873  10.971  0.7064 -1.7921 -1.1321
 7939TIP3   OH245231   4.098   2.372   4.060 -0.4573 -0.1103 -0.1537
 7939TIP3    H145232   4.054   2.451   4.028  1.6543  1.3510  0.3068
 7939TIP3    H245233   4.126   2.327   3.981  1.0399  1.2752 -0.4605
 7940TIP3   OH245234   5.055   0.892  13.085 -0.0609  0.0828  0.1131
 7940TIP3    H145235   5.076   0.821  13.145 -0.4512 -0.3814 -0.2906
 7940TIP3    H245236   4.989   0.855  13.026  1.3067  0.0730 -1.4729
 7941TIP3   OH245237   1.923   3.489   2.391 -0.3620 -0.3715 -0.0011
 7941TIP3    H145238   1.924   3.583   2.410  0.1823 -0.5118  0.7125
 7941TIP3    H245239   1.845   3.476   2.337 -0.9316  0.3536  0.6226
 7942TIP3   OH245240   6.157   6.552  12.634  0.3414  0.7359 -0.2641
 7942TIP3    H145241   6.165   6.639  12.595 -1.1722  0.7387 -0.6066
 7942TIP3    H245242   6.069   6.523  12.610 -0.3300  0.3529  2.3768
 7943TIP3   OH245243   1.216   6.740  16.968  0.5301 -0.1412 -0.0333
 7943TIP3    H145244   1.241   6.760  17.058  0.4313  0.1721 -0.0747
 7943TIP3    H245245   1.120   6.747  16.968  0.4842 -0.7562 -0.0155
 7944TIP3   OH245246   5.773   1.736  13.337  0.0026  0.6724 -0.4184
 7944TIP3    H145247   5.781   1.751  13.431 -1.5446  3.2919 -0.6140
 7944TIP3    H245248   5.692   1.686  13.327  0.5269 -0.2175 -0.3553
 7945TIP3   OH245249   3.514   4.502  12.347  0.4107  0.3597 -0.0914
 7945TIP3    H145250   3.567   4.525  12.271  1.0325 -1.5697 -0.3011
 7945TIP3    H245251   3.438   4.456  12.311  1.0539 -1.1939  0.4347
 7946TIP3   OH245252   5.134   5.528   5.602 -0.4012  0.6304  0.6958
 7946TIP3    H145253   5.130   5.587   5.677 -0.7043  0.5839  0.7170
 7946TIP3    H245254   5.115   5.441   5.638  0.7919  0.3927  0.7970
 7947TIP3   OH245255   0.206   3.118   4.043 -0.1835  0.2666 -0.0793
 7947TIP3    H145256   0.280   3.138   4.100  1.4307 -2.3179 -1.0873
 7947TIP3    H245257   0.228   3.160   3.960 -0.5450  0.6237 -0.0003
 7948TIP3   OH245258   0.365   5.538   5.321  0.1444  0.1309  0.2218
 7948TIP3    H145259   0.316   5.470   5.367 -1.2094  0.4289 -0.7063
 7948TIP3    H245260   0.309   5.560   5.246  1.6149  0.6510 -0.7581
 7949TIP3   OH245261   3.239   3.064  16.355  0.1139  0.0750 -0.3789
 7949TIP3    H145262   3.319   3.079  16.406  0.0425 -0.0474 -0.2340
 7949TIP3    H245263   3.177   3.026  16.417 -0.1002  0.2885 -0.4601
 7950TIP3   OH245264   0.361   4.162   0.232 -0.0191  0.3507 -0.0424
 7950TIP3    H145265   0.303   4.091   0.260 -0.3903  1.1854  1.3930
 7950TIP3    H245266   0.422   4.120   0.172 -0.8912 -0.9568 -0.0704
 7951TIP3   OH245267   5.684   4.007  14.497 -0.2745 -0.2284 -0.1546
 7951TIP3    H145268   5.664   3.987  14.588 -1.1912 -1.2425 -0.5650
 7951TIP3    H245269   5.747   3.940  14.471 -0.4114 -0.2561 -0.4178
 7952TIP3   OH245270   2.094   5.183  14.470 -0.6209  0.1473 -0.0096
 7952TIP3    H145271   2.117   5.143  14.554  0.1992  1.8666  0.6379
 7952TIP3    H245272   2.127   5.273  14.477 -1.1992  0.5423 -1.8979
 7953TIP3   OH245273   5.225   0.452  13.580 -0.1159  0.5380  0.0542
 7953TIP3    H145274   5.261   0.516  13.642  0.1981  0.6668 -0.2549
 7953TIP3    H245275   5.154   0.499  13.536 -0.6030  0.3170  0.5930
 7954TIP3   OH245276   6.126   6.299  12.964 -0.2983 -0.0677 -0.3367
 7954TIP3    H145277   6.131   6.328  13.055 -0.6390  0.7940 -0.5856
 7954TIP3    H245278   6.085   6.213  12.969  0.1932 -0.2766  0.3645
 7955TIP3   OH245279   5.430   2.798   0.054  0.1825 -0.4847  0.2913
 7955TIP3    H145280   5.434   2.703   0.059 -2.1379 -0.6071  1.2970
 7955TIP3    H245281   5.412   2.827   0.143 -2.6489  0.5586 -0.4992
 7956TIP3   OH245282   3.937   6.105  15.346  0.2482  0.3739  0.7384
 7956TIP3    H145283   3.870   6.125  15.412  0.9199  1.1443  1.2001
 7956TIP3    H245284   3.974   6.021  15.374 -0.7927 -0.2846  0.2414
 7957TIP3   OH245285   2.216   1.370   3.869 -0.0932  0.0008 -0.7550
 7957TIP3    H145286   2.284   1.436   3.878  4.3958 -4.0995 -0.3354
 7957TIP3    H245287   2.215   1.349   3.775 -0.4464 -0.2464 -0.6996
 7958TIP3   OH245288   3.331   4.406   3.643 -0.2852 -0.1772  0.8237
 7958TIP3    H145289   3.402   4.437   3.699 -1.2116  1.9174  0.9107
 7958TIP3    H245290   3.362   4.422   3.554 -0.2808 -0.0877  0.8408
 7959TIP3   OH245291   6.660   2.251  15.644  0.3145  0.0803 -0.0682
 7959TIP3    H145292   6.689   2.290  15.726  0.0814 -0.2943  0.1951
 7959TIP3    H245293   6.735   2.261  15.585  0.6887 -0.1636  0.3619
 7960TIP3   OH245294   3.904   1.046  14.667 -0.3894 -0.4690  0.2626
 7960TIP3    H145295   3.889   1.043  14.573  1.4050 -1.3666 -0.0398
 7960TIP3    H245296   3.957   1.125  14.680  0.0250 -0.7666  0.4002
 7961TIP3   OH245297   4.355   3.749  13.783  0.0318  0.5227 -0.3717
 7961TIP3    H145298   4.432   3.700  13.813 -0.1542  0.5844  0.2251
 7961TIP3    H245299   4.368   3.837  13.818 -0.3282  0.5220 -0.2332
 7962TIP3   OH245300   5.585   1.153  16.473 -0.0181 -0.3770 -0.5876
 7962TIP3    H145301   5.620   1.174  16.559  0.3457 -1.2178 -0.5144
 7962TIP3    H245302   5.514   1.215  16.459  1.6565  1.5646 -0.8533
 7963TIP3   OH245303   5.648   5.777  16.718  0.0984  0.3643  0.0789
 7963TIP3    H145304   5.626   5.866  16.690  1.0680 -0.1221 -2.6190
 7963TIP3    H245305   5.569   5.743  16.759 -1.2838  1.5265 -1.4904
 7964TIP3   OH245306   5.320   6.575  16.011  0.7248  0.1314  0.1644
 7964TIP3    H145307   5.394   6.632  16.029 -0.0759  1.1881  0.2520
 7964TIP3    H245308   5.302   6.533  16.095  1.2771 -0.2023  0.1188
 7965TIP3   OH245309   2.452   3.385  17.006 -0.0096  0.1422 -0.0435
 7965TIP3    H145310   2.420   3.474  16.995  1.5846  0.7439 -0.1003
 7965TIP3    H245311   2.464   3.375  17.100  1.5888  0.6797 -0.1628
 7966TIP3   OH245312   4.199   1.641   4.897  0.3461  0.3771  0.2429
 7966TIP3    H145313   4.288   1.646   4.932  1.2699  1.4857 -2.0768
 7966TIP3    H245314   4.153   1.714   4.937  0.4863 -0.1097  1.3365
 7967TIP3   OH245315   0.815   1.361   0.037 -0.1055 -0.1108  0.0474
 7967TIP3    H145316   0.907   1.362   0.012 -0.4972  0.6451 -1.5350
 7967TIP3    H245317   0.787   1.452   0.027 -0.7746 -0.1245  1.5813
 7968TIP3   OH245318   6.456   0.959   2.998  0.3243 -0.3792 -0.3415
 7968TIP3    H145319   6.529   0.936   2.941  1.6457  1.6080  0.4344
 7968TIP3    H245320   6.464   1.054   3.010 -1.3063 -0.3872  1.2317
 7969TIP3   OH245321   2.303   6.748  11.241  0.3190  0.0686 -0.3055
 7969TIP3    H145322   2.260   6.663  11.239  1.0895 -0.3265 -0.5073
 7969TIP3    H245323   2.292   6.782  11.152  0.7451 -0.2015 -0.4657
 7970TIP3   OH245324   0.684   1.418  13.870  0.2600 -0.4527 -0.0320
 7970TIP3    H145325   0.628   1.418  13.792 -1.1921 -1.1938  0.9707
 7970TIP3    H245326   0.700   1.325  13.888 -2.3864 -0.5571  2.5341
 7971TIP3   OH245327   3.337   3.521  14.454 -0.1656  0.1043 -0.2245
 7971TIP3    H145328   3.412   3.517  14.394  0.4318 -0.5418  0.5390
 7971TIP3    H245329   3.261   3.499  14.400  0.2979 -0.0002 -0.8433
 7972TIP3   OH245330   6.372   3.644  13.031  0.1371  0.0793 -0.9686
 7972TIP3    H145331   6.435   3.714  13.049  0.4975  0.7722 -4.2955
 7972TIP3    H245332   6.298   3.689  12.989 -1.0638 -1.1720 -0.2735
 7973TIP3   OH245333   0.481   1.440  12.500  0.3006 -0.3134  0.2817
 7973TIP3    H145334   0.385   1.439  12.497  0.1519  3.3497 -0.6332
 7973TIP3    H245335   0.502   1.478  12.585  0.6783  2.4132 -0.9093
 7974TIP3   OH245336   5.838   6.013   2.383  0.5828  0.0978 -0.3415
 7974TIP3    H145337   5.768   5.957   2.415  1.2709 -1.5880 -1.6679
 7974TIP3    H245338   5.825   6.018   2.289  0.7972  1.8698 -0.3170
 7975TIP3   OH245339   2.055   4.685   5.656 -0.4188 -0.3635 -0.4061
 7975TIP3    H145340   2.124   4.666   5.592 -0.4881 -1.5420 -0.1604
 7975TIP3    H245341   2.101   4.688   5.740 -0.8682 -3.3364  0.0719
 7976TIP3   OH245342   0.771   5.517  17.025 -0.7948  0.0822  0.2850
 7976TIP3    H145343   0.758   5.422  17.021 -1.7275  0.1015  2.1397
 7976TIP3    H245344   0.766   5.545  16.933 -0.7811 -1.6161 -0.2707
 7977TIP3   OH245345   4.396   5.483  16.220 -0.5361  0.2854  0.1313
 7977TIP3    H145346   4.396   5.388  16.234  0.9959  0.3991  1.0968
 7977TIP3    H245347   4.346   5.519  16.293 -0.6660  0.2647  0.0537
 7978TIP3   OH245348   6.374   3.609  10.392 -0.3931 -0.1309 -0.0595
 7978TIP3    H145349   6.395   3.576  10.480 -1.7330 -0.0211  0.3237
 7978TIP3    H245350   6.299   3.556  10.364 -0.4215  0.3124 -0.8531
 7979TIP3   OH245351   2.502   2.988   4.869 -0.0081  0.3770  0.1766
 7979TIP3    H145352   2.502   2.893   4.856 -0.1969  0.5095 -0.8338
 7979TIP3    H245353   2.411   3.008   4.892  0.1291  0.2599  0.8354
 7980TIP3   OH245354   5.619   5.062   4.876 -0.4383 -0.5128 -0.1650
 7980TIP3    H145355   5.656   4.978   4.904  1.2344  0.3260  0.2834
 7980TIP3    H245356   5.617   5.115   4.956 -0.5988  0.1734 -0.6146
 7981TIP3   OH245357   5.880   0.156  14.325  0.2032 -0.0594  0.1296
 7981TIP3    H145358   5.879   0.152  14.421  0.4138 -0.1597  0.1267
 7981TIP3    H245359   5.967   0.127  14.300  0.0908 -0.2030 -0.1013
 7982TIP3   OH245360   2.019   0.561   0.515 -0.0004 -0.7337  0.0349
 7982TIP3    H145361   1.973   0.644   0.503  0.0572 -0.6906  0.1095
 7982TIP3    H245362   2.098   0.569   0.462  0.5113 -0.3392  0.8518
 7983TIP3   OH245363   3.055   2.716   2.371  0.0160  0.0375 -0.3375
 7983TIP3    H145364   3.023   2.747   2.287 -0.8177  1.7189  0.5582
 7983TIP3    H245365   3.107   2.638   2.350 -0.9104 -0.1012 -2.2864
 7984TIP3   OH245366   2.802   2.093  13.810  0.5995 -0.4436 -1.0253
 7984TIP3    H145367   2.775   2.014  13.764  0.0286 -0.8906  0.0542
 7984TIP3    H245368   2.781   2.077  13.902  1.5049  0.5160 -0.6169
 7985TIP3   OH245369   5.578   4.623   2.455 -0.2951 -0.3270 -0.1126
 7985TIP3    H145370   5.657   4.618   2.509  0.7712 -0.2414 -1.6184
 7985TIP3    H245371   5.610   4.629   2.365 -1.9906 -3.5901 -1.0899
 7986TIP3   OH245372   3.044   0.503   1.272  0.3919  0.7305  0.5587
 7986TIP3    H145373   2.984   0.470   1.339  0.4591  0.9502  0.7276
 7986TIP3    H245374   2.989   0.515   1.194  0.6209 -1.1247  0.0461
 7987TIP3   OH245375   2.953   6.443  15.935 -0.0565 -0.6384  0.2183
 7987TIP3    H145376   2.922   6.426  15.846  0.7451 -0.7606 -0.0482
 7987TIP3    H245377   3.007   6.522  15.927 -1.0313  0.1064  0.8373
 7988TIP3   OH245378   0.024   2.068  16.705  1.0267  0.4977  0.1111
 7988TIP3    H145379   0.062   2.082  16.618 -1.9709 -0.8870 -1.5628
 7988TIP3    H245380   0.093   2.022  16.753  2.8315  1.4247 -1.4350
 7989TIP3   OH245381   5.129   3.654   6.114  0.2997  0.3042  0.2424
 7989TIP3    H145382   5.183   3.676   6.190  0.0293  0.6262  0.3408
 7989TIP3    H245383   5.135   3.558   6.109 -0.8017  0.1407  1.5096
 7990TIP3   OH245384   5.739   6.800  11.265 -0.2275  0.2946 -0.1010
 7990TIP3    H145385   5.667   6.854  11.299 -1.1853 -0.4968 -0.8359
 7990TIP3    H245386   5.704   6.759  11.187  0.7799 -0.7257 -0.0429
 7991TIP3   OH245387   3.635   2.346  11.365  0.4583  0.1751 -0.3430
 7991TIP3    H145388   3.643   2.407  11.292 -0.0479 -0.4058 -0.9015
 7991TIP3    H245389   3.543   2.318  11.362  0.1388  0.9954  1.2125
 7992TIP3   OH245390   1.474   1.190  12.039 -0.1621  0.0830  0.3205
 7992TIP3    H145391   1.454   1.099  12.016  2.8580 -0.8983  1.0681
 7992TIP3    H245392   1.425   1.242  11.975 -1.9240 -2.0241 -0.1895
 7993TIP3   OH245393   4.339   0.438  14.639 -0.1236  0.1985  0.2150
 7993TIP3    H145394   4.420   0.475  14.607  0.5138 -0.8337  0.5844
 7993TIP3    H245395   4.317   0.368  14.577  0.5999 -1.1589  1.4177
 7994TIP3   OH245396   2.811   1.486  12.306 -0.1594 -0.5835 -0.1157
 7994TIP3    H145397   2.812   1.465  12.213 -1.3043 -0.4214 -0.1713
 7994TIP3    H245398   2.812   1.401  12.350 -1.0545 -0.6969 -0.2986
 7995TIP3   OH245399   1.795   6.354   3.185  0.3224 -0.0601  0.4457
 7995TIP3    H145400   1.758   6.295   3.250  1.2829 -1.9969 -0.6863
 7995TIP3    H245401   1.726   6.365   3.120  0.8255 -1.6339 -0.3841
 7996TIP3   OH245402   5.129   2.770   1.527 -0.2113  0.8777  0.5749
 7996TIP3    H145403   5.065   2.802   1.463 -1.3134 -1.9611  0.1502
 7996TIP3    H245404   5.169   2.694   1.485  2.1843  1.4822  1.5915
 7997TIP3   OH245405   4.636   2.482   4.150  0.1369  0.4188 -0.6070
 7997TIP3    H145406   4.646   2.442   4.236 -0.2144 -0.3788 -0.9236
 7997TIP3    H245407   4.579   2.557   4.164 -0.9389 -0.4326 -0.3399
 7998TIP3   OH245408   2.374   6.140   2.393  0.4748 -0.4229  0.5091
 7998TIP3    H145409   2.290   6.110   2.359  0.6604  0.2776 -0.6387
 7998TIP3    H245410   2.371   6.235   2.382  2.1606 -0.5300 -1.3951
 7999TIP3   OH245411   2.684   2.287  15.507 -0.4249  0.0296  0.5179
 7999TIP3    H145412   2.668   2.291  15.412 -0.4558  1.3315  0.5589
 7999TIP3    H245413   2.687   2.378  15.534  1.5188 -0.2596  1.4548
 8000TIP3   OH245414   2.021   4.923  16.793  0.0533  0.2055 -0.3630
 8000TIP3    H145415   1.930   4.946  16.814 -0.2694 -1.4508  0.2077
 8000TIP3    H245416   2.074   4.975  16.854 -0.5234  0.8700 -0.4208
 8001TIP3   OH245417   4.971   2.655   5.801  0.2018 -0.0819 -0.4148
 8001TIP3    H145418   5.021   2.650   5.883 -1.1561  0.1073  0.4572
 8001TIP3    H245419   4.933   2.743   5.802 -1.0805 -0.6219 -0.4721
 8002TIP3   OH245420   3.338   6.004   2.678 -0.0394  0.9847  0.0670
 8002TIP3    H145421   3.351   5.986   2.585 -3.4510 -0.5870 -0.2626
 8002TIP3    H245422   3.392   5.940   2.723  0.3000  0.6066 -0.8681
 8003TIP3   OH245423   4.820   2.854   5.640  0.6147  0.4491  0.4077
 8003TIP3    H145424   4.797   2.947   5.640  0.1393  0.3388  1.3983
 8003TIP3    H245425   4.736   2.808   5.650  1.0653  0.0022  2.6983
 8004TIP3   OH245426   4.142   2.018   4.360 -0.0418  0.1078  0.0191
 8004TIP3    H145427   4.158   2.017   4.266 -0.7893  1.5494 -0.1482
 8004TIP3    H245428   4.208   2.078   4.395 -1.0979  1.2869  0.0977
 8005TIP3   OH245429   6.546   2.805   6.122  0.5611 -0.5176 -0.1864
 8005TIP3    H145430   6.496   2.846   6.193  1.0485 -0.9024  0.3862
 8005TIP3    H245431   6.611   2.871   6.098 -0.7847  0.3687 -1.5848
 8006TIP3   OH245432   4.313   3.133  13.889 -0.0094  0.5231  0.1561
 8006TIP3    H145433   4.324   3.116  13.796 -0.0705  2.0411 -0.1645
 8006TIP3    H245434   4.237   3.081  13.915  0.9550 -1.1491 -0.2541
 8007TIP3   OH245435   0.310   6.625   5.302 -0.5496 -0.0415  0.2427
 8007TIP3    H145436   0.278   6.585   5.383 -0.9291  0.4680  0.3472
 8007TIP3    H245437   0.397   6.586   5.289 -0.2641  0.2625  1.1690
 8008TIP3   OH245438   5.305   3.228  13.749 -0.0550  0.1087 -0.1856
 8008TIP3    H145439   5.371   3.217  13.818  0.1616  3.7679  0.3792
 8008TIP3    H245440   5.237   3.280  13.790 -0.3102  1.7073 -2.4939
 8009TIP3   OH245441   5.673   6.520   0.709 -0.0948 -0.2447  0.3065
 8009TIP3    H145442   5.642   6.609   0.697 -1.0986 -0.2765  2.2910
 8009TIP3    H245443   5.701   6.516   0.801 -0.6357 -2.1111  0.4444
 8010TIP3   OH245444   0.956   5.483  12.499 -0.5040  0.3246  0.3260
 8010TIP3    H145445   0.865   5.504  12.519 -0.1171  1.6770  0.7818
 8010TIP3    H245446   0.989   5.440  12.578 -0.5821  0.3738  0.3853
 8011TIP3   OH245447   3.239   2.013  11.758  0.1349 -0.0515  0.0946
 8011TIP3    H145448   3.264   2.010  11.851 -0.1470  0.1402  0.1777
 8011TIP3    H245449   3.153   1.972  11.755  0.5345 -0.8929 -0.2230
 8012TIP3   OH245450   6.555   5.905  14.473 -0.2845 -0.2459  0.0356
 8012TIP3    H145451   6.524   5.904  14.383  0.9459 -0.4083 -0.4085
 8012TIP3    H245452   6.482   5.870  14.524 -0.9112 -0.3703 -0.9239
 8013TIP3   OH245453   2.319   0.914   3.009  0.0745 -0.4058 -0.4972
 8013TIP3    H145454   2.381   0.876   2.947  1.8005  1.9792 -0.3706
 8013TIP3    H245455   2.237   0.922   2.960  0.2529 -2.1984 -1.1575
 8014TIP3   OH245456   3.414   2.346  15.173 -0.1968 -0.0880 -0.0082
 8014TIP3    H145457   3.321   2.371  15.169 -0.3335 -0.6365 -0.2369
 8014TIP3    H245458   3.440   2.336  15.082 -0.0590 -0.4807  0.0748
 8015TIP3   OH245459   4.159   4.334   1.056  0.0703  0.6926 -0.4983
 8015TIP3    H145460   4.165   4.333   0.960 -0.2329 -0.4777 -0.5118
 8015TIP3    H245461   4.154   4.427   1.078 -0.0480  0.9688 -1.6290
 8016TIP3   OH245462   6.241   5.526  16.105  0.1105  0.5719 -0.2445
 8016TIP3    H145463   6.225   5.485  16.020  1.8167 -0.3286 -0.1776
 8016TIP3    H245464   6.182   5.602  16.107 -2.1222 -1.0645 -0.9621
 8017TIP3   OH245465   1.676   3.843  11.678  0.2789  0.1639 -0.3191
 8017TIP3    H145466   1.600   3.866  11.625  0.7265 -0.5599 -1.2851
 8017TIP3    H245467   1.643   3.780  11.742 -0.2345  0.9481  0.2051
 8018TIP3   OH245468   6.519   4.604   3.597 -0.5449  0.7193 -0.3054
 8018TIP3    H145469   6.585   4.635   3.535 -1.1854  1.3698 -0.6785
 8018TIP3    H245470   6.497   4.682   3.649  0.9780 -0.0903  1.7128
 8019TIP3   OH245471   6.337   3.309   5.169 -0.6272 -0.0301 -0.0881
 8019TIP3    H145472   6.347   3.356   5.086 -1.3868 -0.8202 -0.6470
 8019TIP3    H245473   6.426   3.282   5.192 -0.5786 -1.3123 -1.5680
 8020TIP3   OH245474   1.498   1.046  11.156  0.3950  0.0532 -0.1463
 8020TIP3    H145475   1.515   1.141  11.151  3.0591 -0.4125 -2.1296
 8020TIP3    H245476   1.585   1.007  11.163 -0.4360 -2.3580 -2.1380
 8021TIP3   OH245477   5.332   3.217   3.431 -0.1392  0.0818  0.6345
 8021TIP3    H145478   5.298   3.152   3.370  0.2077  0.7047 -0.2317
 8021TIP3    H245479   5.302   3.186   3.517 -0.1901 -1.0821  0.2237
 8022TIP3   OH245480   3.630   4.972   3.073  0.2849 -0.3256 -0.3088
 8022TIP3    H145481   3.644   5.011   2.987  1.5974 -0.4337 -0.1633
 8022TIP3    H245482   3.718   4.958   3.108 -0.2142  0.1660  1.2564
 8023TIP3   OH245483   0.163   2.925   0.185  0.1110 -0.4530 -0.0263
 8023TIP3    H145484   0.197   3.013   0.169  0.5298 -0.5106  0.5115
 8023TIP3    H245485   0.068   2.936   0.190  0.2555  0.2690  1.7726
 8024TIP3   OH245486   3.131   4.216   2.853 -0.1225 -0.6715 -0.0064
 8024TIP3    H145487   3.118   4.203   2.759 -0.3195 -2.0723  0.1982
 8024TIP3    H245488   3.099   4.136   2.893 -0.3437  0.0430  1.2942
 8025TIP3   OH245489   1.302   2.307  14.450  0.2907 -0.3621  0.3087
 8025TIP3    H145490   1.379   2.249  14.457  0.3708 -0.1879  0.9183
 8025TIP3    H245491   1.250   2.269  14.379 -0.2726 -1.9200  1.4854
 8026TIP3   OH245492   4.824   0.630  14.939 -0.0429  0.5226  0.2941
 8026TIP3    H145493   4.825   0.682  15.019 -5.1934  0.8345  0.5001
 8026TIP3    H245494   4.820   0.695  14.869  0.6038  0.2789  0.0250
 8027TIP3   OH245495   3.139   0.691   2.102  0.1527  1.0835 -0.2297
 8027TIP3    H145496   3.096   0.644   2.030 -2.6276  0.1410  1.8845
 8027TIP3    H245497   3.106   0.781   2.094  2.4010  1.8690 -1.9207
 8028TIP3   OH245498   6.283   6.662   1.987 -0.3022 -0.0019 -0.5533
 8028TIP3    H145499   6.220   6.706   2.044  0.0037 -1.3444  0.8977
 8028TIP3    H245500   6.368   6.697   2.013 -0.0514 -1.3818  0.6424
 8029TIP3   OH245501   1.772   3.805   1.409 -0.2985  0.4878  0.1244
 8029TIP3    H145502   1.788   3.808   1.315 -1.5460 -0.2453 -0.1418
 8029TIP3    H245503   1.717   3.881   1.426  0.1034  0.7402  0.3048
 8030TIP3   OH245504   3.007   1.655  14.040  0.1463  0.2937 -0.1647
 8030TIP3    H145505   2.946   1.590  14.076 -0.6349 -0.4939 -2.7065
 8030TIP3    H245506   2.983   1.737  14.085 -0.0662 -0.7603  1.7775
 8031TIP3   OH245507   2.007   5.573   1.132  0.4847  0.1489  0.0455
 8031TIP3    H145508   2.007   5.495   1.187 -1.3733 -0.2847 -0.5062
 8031TIP3    H245509   2.065   5.551   1.059  0.3918 -0.5065  0.1658
 8032TIP3   OH245510   5.124   6.157  12.704 -0.4975  0.3742 -0.2850
 8032TIP3    H145511   5.080   6.139  12.621  0.4662 -0.1767 -0.6960
 8032TIP3    H245512   5.072   6.111  12.770  0.1886 -1.4165 -0.9380
 8033TIP3   OH245513   4.679   5.946  15.751  0.4443 -0.1889  0.1842
 8033TIP3    H145514   4.700   6.038  15.762  0.5178 -0.0373 -1.1345
 8033TIP3    H245515   4.590   5.945  15.716  0.4341 -0.6184  0.2136
 8034TIP3   OH245516   1.909   5.690  16.486  0.8974  0.7593 -0.7100
 8034TIP3    H145517   1.941   5.662  16.572  2.4990  3.1230 -0.4508
 8034TIP3    H245518   1.880   5.609  16.444  2.7296 -0.8798  0.9538
 8035TIP3   OH245519   3.685   5.904   3.066  0.0803 -0.3958 -0.0491
 8035TIP3    H145520   3.770   5.860   3.062  1.7845  2.5379  1.3281
 8035TIP3    H245521   3.650   5.880   3.152  0.4382 -0.0260  0.2004
 8036TIP3   OH245522   0.960   2.544   4.207 -0.4814  0.4305  0.2982
 8036TIP3    H145523   0.968   2.489   4.129  1.4615 -0.0812  0.7816
 8036TIP3    H245524   1.019   2.617   4.191 -1.3693  1.2311  0.5971
 8037TIP3   OH245525   1.283   4.177  11.585  0.0443 -0.6680 -0.1876
 8037TIP3    H145526   1.339   4.212  11.515  1.0273  1.2083  1.4243
 8037TIP3    H245527   1.201   4.226  11.577 -0.4560 -1.6258 -1.0131
 8038TIP3   OH245528   6.409   1.460  15.051 -0.0990  0.0590  0.1698
 8038TIP3    H145529   6.424   1.465  14.957 -0.1775 -0.6007  0.1130
 8038TIP3    H245530   6.448   1.540  15.087  2.7748 -1.1060 -0.0902
 8039TIP3   OH245531   1.262   3.051   1.681 -0.7435  0.3227  0.5031
 8039TIP3    H145532   1.258   3.100   1.763  0.4202  0.3027  0.5956
 8039TIP3    H245533   1.289   3.116   1.616  0.3208 -0.0673  0.5330
 8040TIP3   OH245534   1.655   5.968  16.330 -0.0262  0.2861 -0.3973
 8040TIP3    H145535   1.711   6.021  16.387 -1.2527 -0.7854  1.9538
 8040TIP3    H245536   1.711   5.895  16.303 -0.4202 -1.4183  2.8807
 8041TIP3   OH245537   3.604   6.325  17.066  0.2359  0.0153  0.5119
 8041TIP3    H145538   3.652   6.243  17.065 -0.2702 -0.3198 -1.8898
 8041TIP3    H245539   3.516   6.303  17.034 -0.4649  1.2155  1.4713
 8042TIP3   OH245540   5.045   6.084  14.013  0.7944 -0.5918 -0.2142
 8042TIP3    H145541   5.129   6.114  14.048 -0.1433  0.9741  0.8305
 8042TIP3    H245542   5.009   6.161  13.969  0.1641 -1.4248 -1.1985
 8043TIP3   OH245543   3.820   6.063  17.048  0.0714 -0.6277 -0.0934
 8043TIP3    H145544   3.877   5.987  17.061 -0.0503 -0.8743 -0.9482
 8043TIP3    H245545   3.877   6.138  17.061  0.2404 -0.8615  0.5527
 8044TIP3   OH245546   0.916   5.197  13.171  0.1082  0.9719  0.4181
 8044TIP3    H145547   0.912   5.145  13.091 -1.1832  0.2874  0.9013
 8044TIP3    H245548   0.860   5.272  13.154 -0.4131  0.6720  0.7683
 8045TIP3   OH245549   1.075   0.309  10.926 -0.2313  0.1873 -0.1984
 8045TIP3    H145550   1.152   0.336  10.876  0.4211  1.6665  1.4996
 8045TIP3    H245551   1.010   0.378  10.910  0.0231  0.7333  1.0259
 8046TIP3   OH245552   5.115   5.422   3.938  0.0378 -0.4003  0.5983
 8046TIP3    H145553   5.107   5.403   4.031  1.0188 -2.3695  0.3171
 8046TIP3    H245554   5.201   5.464   3.930 -0.5204  0.8302  0.6856
 8047TIP3   OH245555   1.878   2.128   4.486 -0.4593 -0.2440  0.6172
 8047TIP3    H145556   1.826   2.053   4.459  0.5607 -1.0794  0.9217
 8047TIP3    H245557   1.828   2.167   4.559 -0.5595 -1.1369  1.0327
 8048TIP3   OH245558   3.592   4.562  11.338  0.0885 -0.1124 -0.4001
 8048TIP3    H145559   3.670   4.526  11.296 -0.8841 -1.2377 -1.3006
 8048TIP3    H245560   3.524   4.495  11.326 -0.3270 -0.4765  2.8678
 8049TIP3   OH245561   0.239   4.163  12.455  0.0580 -0.3031 -0.5378
 8049TIP3    H145562   0.194   4.246  12.445  0.1320 -0.2158 -0.1760
 8049TIP3    H245563   0.239   4.124  12.367  0.1897  0.1614 -0.7472
 8050TIP3   OH245564   6.307   1.008   1.957 -0.1953 -0.9340 -0.4088
 8050TIP3    H145565   6.222   1.032   1.994 -0.1166 -0.7284 -0.3609
 8050TIP3    H245566   6.293   1.008   1.862 -0.7863 -2.8701 -0.3760
 8051TIP3   OH245567   0.483   5.397   4.687 -0.4086 -0.2695  0.1058
 8051TIP3    H145568   0.454   5.308   4.704 -1.2460  0.0860  0.5677
 8051TIP3    H245569   0.426   5.428   4.617  1.2501 -0.7876 -1.5832
 8052TIP3   OH245570   4.437   1.950   2.125 -0.7378  0.0053  0.9651
 8052TIP3    H145571   4.516   1.897   2.140 -0.4028  0.6206  1.3894
 8052TIP3    H245572   4.423   1.944   2.030 -0.1687 -0.0887  0.8824
 8053TIP3   OH245573   4.239   3.165   4.976 -0.2343 -0.0067 -0.6192
 8053TIP3    H145574   4.288   3.091   5.011  1.3352  0.3895 -1.8301
 8053TIP3    H245575   4.249   3.234   5.043 -0.3517 -0.3718 -0.2201
 8054TIP3   OH245576   3.991   1.056   5.115  0.4876  0.7140  0.7867
 8054TIP3    H145577   3.943   1.038   5.195  0.2439  0.7287  0.6460
 8054TIP3    H245578   3.939   1.016   5.046  1.8917 -1.3541  0.8606
 8055TIP3   OH245579   2.227   6.431  11.150 -0.2070 -0.3313 -0.5196
 8055TIP3    H145580   2.137   6.415  11.180 -0.1844  2.3164  1.2781
 8055TIP3    H245581   2.219   6.440  11.055 -1.5312 -1.7541 -0.5824
 8056TIP3   OH245582   4.965   5.221  12.669  0.4043 -0.4789  0.1452
 8056TIP3    H145583   5.050   5.179  12.656 -0.3866 -1.8965 -0.5774
 8056TIP3    H245584   4.929   5.232  12.581 -0.4402 -0.4627  0.4783
 8057TIP3   OH245585   4.053   6.707   5.798  0.4892 -0.0203 -0.3815
 8057TIP3    H145586   4.074   6.642   5.865 -0.7231  1.2719  1.3424
 8057TIP3    H245587   3.971   6.676   5.760  0.9614 -0.5278 -1.0353
 8058TIP3   OH245588   6.463   2.753   2.610 -0.3373  0.3880  0.1239
 8058TIP3    H145589   6.479   2.662   2.636 -0.3067  0.8503  1.8745
 8058TIP3    H245590   6.469   2.753   2.515 -0.5705 -1.4837  0.0882
 8059TIP3   OH245591   6.510   6.392  16.806 -0.1416  0.4007 -0.0754
 8059TIP3    H145592   6.527   6.454  16.735 -0.1842 -1.4510 -1.7811
 8059TIP3    H245593   6.597   6.361  16.833 -0.1892  0.2002 -0.1517
 8060TIP3   OH245594   5.299   2.353   5.587  0.1671 -0.2238 -0.3778
 8060TIP3    H145595   5.292   2.447   5.602  1.2139 -0.1858 -0.0359
 8060TIP3    H245596   5.341   2.319   5.666 -2.3307 -1.3573  0.5801
 8061TIP3   OH245597   6.110   1.937  15.760  0.1058 -0.2950  0.0334
 8061TIP3    H145598   6.031   1.985  15.738 -0.9972 -1.2252  1.7133
 8061TIP3    H245599   6.136   1.893  15.679 -0.1757  1.2296 -0.9248
 8062TIP3   OH245600   5.647   1.146   0.035  0.0524 -0.1924 -0.2315
 8062TIP3    H145601   5.728   1.145  -0.017 -0.1488  1.2734 -0.6291
 8062TIP3    H245602   5.632   1.239   0.053  0.0338 -0.6376  2.3746
 8063TIP3   OH245603   6.366   4.557  10.737  0.2690  0.0535  0.1720
 8063TIP3    H145604   6.460   4.560  10.754  0.4955  0.1002 -1.0331
 8063TIP3    H245605   6.355   4.486  10.674 -0.4390  0.3926 -0.0989
 8064TIP3   OH245606   5.922   4.836  13.685 -0.5159 -0.1780  0.2355
 8064TIP3    H145607   5.913   4.904  13.751  0.1183 -0.8945  1.0834
 8064TIP3    H245608   5.988   4.869  13.624  0.4484 -0.4044  1.1425
 8065TIP3   OH245609   2.142   3.159   1.109  0.6993  0.1054 -0.8176
 8065TIP3    H145610   2.099   3.174   1.024 -0.2927  2.1605 -0.0342
 8065TIP3    H245611   2.084   3.201   1.172  2.3586  0.2685  0.6623
 8066TIP3   OH245612   2.936   1.714  12.365 -0.1372  0.4435 -0.1873
 8066TIP3    H145613   3.025   1.705  12.329 -0.1267  0.4726 -0.1687
 8066TIP3    H245614   2.894   1.631  12.346  0.6309 -0.4926  1.8499
 8067TIP3   OH245615   1.962   2.919   4.620 -0.2531 -0.7286 -0.4782
 8067TIP3    H145616   1.954   2.920   4.715  1.0885 -1.6102 -0.3392
 8067TIP3    H245617   1.886   2.970   4.589  0.3662  1.2684  1.1118
 8068TIP3   OH245618   2.572   4.066   2.536 -0.3710 -0.1794  0.1935
 8068TIP3    H145619   2.559   4.103   2.623  0.4329 -1.0276  0.6954
 8068TIP3    H245620   2.610   3.979   2.552 -1.0868 -0.7353 -0.9822
 8069TIP3   OH245621   6.390   4.075   2.578  0.3049  0.3618 -0.2831
 8069TIP3    H145622   6.484   4.069   2.563  0.2336  1.4175 -1.3265
 8069TIP3    H245623   6.375   4.167   2.599 -0.1341 -0.3108  2.9653
 8070TIP3   OH245624   2.072   5.247  12.333  0.5062 -0.3423 -0.3583
 8070TIP3    H145625   2.100   5.190  12.262  3.0562  1.3200 -0.7942
 8070TIP3    H245626   2.117   5.214  12.411  0.6990  0.0866 -0.2836
 8071TIP3   OH245627   2.135   3.005  14.417  0.2192  0.7275 -0.2208
 8071TIP3    H145628   2.079   3.057  14.474  1.2921  0.1517  1.4579
 8071TIP3    H245629   2.195   2.961  14.477  0.4822 -1.0649 -1.7037
 8072TIP3   OH245630   3.134   2.322   6.381  0.6920 -0.2261  0.1486
 8072TIP3    H145631   3.205   2.260   6.363  0.6078 -0.7303  1.4582
 8072TIP3    H245632   3.075   2.313   6.306  2.0221  0.2536 -1.0016
 8073TIP3   OH245633   5.337   0.986  14.803  0.0658 -0.5542 -0.0591
 8073TIP3    H145634   5.277   0.980  14.728 -0.9946 -0.2562  0.7421
 8073TIP3    H245635   5.305   0.919  14.863  0.1644  0.0165  0.6373
 8074TIP3   OH245636   3.692   6.413  16.539  0.2323 -0.0082 -0.1281
 8074TIP3    H145637   3.606   6.454  16.536 -0.2001 -0.9261 -1.2166
 8074TIP3    H245638   3.688   6.343  16.473  1.2019 -1.2367  1.0427
 8075TIP3   OH245639   6.699   4.914  13.004 -0.2771 -0.0896 -0.2249
 8075TIP3    H145640   6.744   4.957  13.077 -0.3551  0.2262 -0.3616
 8075TIP3    H245641   6.734   4.956  12.926  1.0747 -1.6251 -0.4743
 8076TIP3   OH245642   4.557   6.587   1.860 -0.3184 -0.5080  0.1563
 8076TIP3    H145643   4.653   6.589   1.860 -0.3399  0.7164  0.4462
 8076TIP3    H245644   4.531   6.665   1.811 -1.1790 -0.2265  1.0327
 8077TIP3   OH245645   0.857   6.732   0.576 -0.2307  0.0125  0.3567
 8077TIP3    H145646   0.874   6.642   0.603  1.6534  0.0858 -0.4503
 8077TIP3    H245647   0.786   6.724   0.512 -0.2465 -0.8599  0.4696
 8078TIP3   OH245648   0.373   3.008   6.847 -0.3569  0.8019  0.1976
 8078TIP3    H145649   0.382   2.989   6.754  1.0356  0.8249  0.2939
 8078TIP3    H245650   0.370   2.922   6.889 -0.3388  0.7875  0.1694
 8079TIP3   OH245651   0.769   6.537  12.605 -0.4548 -0.4597  0.4323
 8079TIP3    H145652   0.676   6.557  12.592 -0.4478 -1.4403 -1.3540
 8079TIP3    H245653   0.815   6.597  12.547 -0.0918 -1.2873 -0.1490
 8080TIP3   OH245654   6.175   3.674  12.026  0.4303 -0.1541  0.2214
 8080TIP3    H145655   6.168   3.762  12.061 -1.6019 -0.6747  1.2872
 8080TIP3    H245656   6.219   3.624  12.095  0.4108 -0.2489  0.1661
 8081TIP3   OH245657   6.411   5.507   5.682 -0.1951 -0.1323 -0.1347
 8081TIP3    H145658   6.483   5.533   5.739 -0.2862 -0.4900  0.1535
 8081TIP3    H245659   6.402   5.412   5.698 -1.7761  0.1677  1.0539
 8082TIP3   OH245660   3.092   5.957  15.430  0.0913 -0.1712 -0.2762
 8082TIP3    H145661   3.048   6.037  15.401 -0.6091 -0.3387  0.3074
 8082TIP3    H245662   3.027   5.911  15.482  0.0342 -1.7784 -1.6784
 8083TIP3   OH245663   0.027   2.370   5.847 -0.4008 -0.0540  0.3479
 8083TIP3    H145664   0.002   2.353   5.938 -3.3304 -1.6426 -0.5998
 8083TIP3    H245665   0.085   2.297   5.824 -1.9767 -1.3274  0.2054
 8084TIP3   OH245666   0.041   4.807   5.525  0.5933  0.0297 -0.0244
 8084TIP3    H145667   0.092   4.731   5.554  0.9898  1.0212  2.0253
 8084TIP3    H245668   0.020   4.854   5.606 -0.8641  1.3549 -1.1221
 8085TIP3   OH245669   6.208   5.993   3.007  0.8637 -0.3062 -0.3236
 8085TIP3    H145670   6.257   6.041   3.073  0.7962  0.3103 -0.7167
 8085TIP3    H245671   6.123   5.975   3.047  1.1315 -0.7029  0.0734
 8086TIP3   OH245672   6.397   4.335  13.129  0.1352 -0.4076 -0.0487
 8086TIP3    H145673   6.477   4.290  13.155 -0.3098 -2.6773 -2.1687
 8086TIP3    H245674   6.328   4.293  13.182 -0.0971 -1.2437 -0.9863
 8087TIP3   OH245675   0.102   3.670  12.875  0.1774 -0.2465  0.4262
 8087TIP3    H145676   0.075   3.582  12.900 -0.1441  0.1261  1.4515
 8087TIP3    H245677   0.116   3.715  12.958  0.6465  0.5748 -0.0867
 8088TIP3   OH245678   3.746   2.362  12.973 -0.1418 -0.0158 -0.0722
 8088TIP3    H145679   3.752   2.357  12.877  0.8262  0.9215 -0.0845
 8088TIP3    H245680   3.787   2.282  13.004 -0.0834 -0.1323 -0.4441
 8089TIP3   OH245681   4.682   5.579   3.856 -0.7886 -0.1199 -0.2348
 8089TIP3    H145682   4.634   5.504   3.891 -2.3153  1.1244  0.4230
 8089TIP3    H245683   4.639   5.599   3.773 -0.6066  0.2335 -0.2470
 8090TIP3   OH245684   1.344   2.719   2.757 -0.0847 -0.2280  0.7798
 8090TIP3    H145685   1.269   2.767   2.793 -2.2619 -2.9733  0.2320
 8090TIP3    H245686   1.328   2.717   2.663  1.6229  0.5515  0.4416
 8091TIP3   OH245687   4.550   3.745  15.518  0.1674  0.0691  0.4688
 8091TIP3    H145688   4.517   3.823  15.563  1.8698  1.9138 -1.3047
 8091TIP3    H245689   4.636   3.730  15.557  1.1887  1.0291 -1.3172
 8092TIP3   OH245690   0.815   2.305   3.974 -0.1655 -0.3327  0.0141
 8092TIP3    H145691   0.746   2.239   3.984 -1.1119  0.7351  0.8522
 8092TIP3    H245692   0.809   2.331   3.882  0.3149 -1.4781 -0.3681
 8093TIP3   OH245693   5.765   5.710   4.939 -0.1553  0.3269 -0.0147
 8093TIP3    H145694   5.675   5.722   4.972 -0.1148  1.5806 -0.3187
 8093TIP3    H245695   5.761   5.740   4.848  0.2656 -0.9406 -0.4573
 8094TIP3   OH245696   6.239   1.507   4.110 -0.2348  0.2249  0.3326
 8094TIP3    H145697   6.165   1.564   4.129  0.7794  1.1149  1.7621
 8094TIP3    H245698   6.225   1.431   4.167 -0.1341  0.3170  0.4801
 8095TIP3   OH245699   6.552   6.798   6.157  0.3094  0.0951  0.1970
 8095TIP3    H145700   6.591   6.717   6.190 -0.9397 -0.8450 -0.5765
 8095TIP3    H245701   6.584   6.805   6.067  3.5602  2.5565  1.3123
 8096TIP3   OH245702   5.559   0.600   0.389  0.0874 -0.4746 -0.3069
 8096TIP3    H145703   5.498   0.586   0.316  1.4312 -2.0358 -1.2041
 8096TIP3    H245704   5.528   0.680   0.431 -1.5672 -0.2957 -1.7433
 8097TIP3   OH245705   3.555   1.104   2.479 -0.2205 -0.2457  0.1175
 8097TIP3    H145706   3.559   1.115   2.384  0.3838  0.0829  0.1771
 8097TIP3    H245707   3.635   1.146   2.512 -1.0297  0.7743  0.8759
 8098TIP3   OH245708   6.194   4.269  13.282 -0.2385  0.3549  0.0804
 8098TIP3    H145709   6.145   4.195  13.318 -0.3147  0.9943  1.3377
 8098TIP3    H245710   6.128   4.330  13.251 -0.1728 -0.6488 -2.2031
 8099TIP3   OH245711   0.325   1.935  11.875 -0.1607  0.1435  0.0844
 8099TIP3    H145712   0.393   1.998  11.851  0.3937 -0.5940 -0.3314
 8099TIP3    H245713   0.246   1.966  11.830  0.3397  0.0101 -0.9091
 8100TIP3   OH245714   4.214   3.077   6.060  0.2418  0.0096  0.4611
 8100TIP3    H145715   4.201   3.163   6.020  0.2866 -0.6285 -1.0132
 8100TIP3    H245716   4.299   3.083   6.104  0.5271  0.5436 -0.1490
 8101TIP3   OH245717   3.900   0.176   0.734 -0.2268  0.4634  0.3458
 8101TIP3    H145718   3.957   0.105   0.763 -0.9998  0.1824  1.2388
 8101TIP3    H245719   3.952   0.223   0.669  0.8420 -0.0559  0.7899
 8102TIP3   OH245720   0.633   3.681  10.908  0.0867 -0.3126 -0.1779
 8102TIP3    H145721   0.699   3.611  10.907  0.3450 -0.0968 -1.8865
 8102TIP3    H245722   0.570   3.654  10.842 -0.5373  0.4202  0.1189
 8103TIP3   OH245723   6.601   1.417  11.715 -0.2521  0.0032 -0.3649
 8103TIP3    H145724   6.618   1.455  11.628  0.9864 -0.7992 -0.4879
 8103TIP3    H245725   6.602   1.323  11.700 -0.5677 -0.1327  0.4435
 8104TIP3   OH245726   2.822   6.434   4.641 -0.1635  0.1949 -0.2574
 8104TIP3    H145727   2.830   6.392   4.555 -1.0405  1.2871 -0.9014
 8104TIP3    H245728   2.876   6.513   4.635 -0.4610  0.4292  0.0907
 8105TIP3   OH245729   1.295   3.969   1.254  0.5560 -0.1260 -0.4163
 8105TIP3    H145730   1.378   3.959   1.206  0.1890 -2.0913 -0.7119
 8105TIP3    H245731   1.288   3.890   1.307 -0.4318  0.7098  0.7517
 8106TIP3   OH245732   5.807   2.244   1.200 -0.1635 -0.3771 -0.0962
 8106TIP3    H145733   5.824   2.178   1.133  2.9603 -0.7114  0.8875
 8106TIP3    H245734   5.868   2.315   1.180  0.0244  0.0160  1.7078
 8107TIP3   OH245735   4.803   5.132  13.414  0.1123 -0.2854  0.3502
 8107TIP3    H145736   4.827   5.217  13.453  0.8896 -1.1628  1.8679
 8107TIP3    H245737   4.885   5.083  13.411 -0.1819 -0.7474 -1.2426
 8108TIP3   OH245738   3.760   5.718  16.545  0.2655 -0.1530  0.1653
 8108TIP3    H145739   3.763   5.671  16.629  1.4105 -0.1554  0.1356
 8108TIP3    H245740   3.740   5.808  16.569  0.7771 -0.1151  0.4596
 8109TIP3   OH245741   1.123   6.331  16.115 -0.7961  0.3765 -0.3101
 8109TIP3    H145742   1.137   6.240  16.141 -1.1109  0.3483 -0.2311
 8109TIP3    H245743   1.181   6.344  16.040 -2.6347 -0.6742 -2.0080
 8110TIP3   OH245744   5.046   2.853  14.332 -0.0759 -0.4997  0.1888
 8110TIP3    H145745   4.954   2.827  14.335 -0.4271  0.3862 -1.6075
 8110TIP3    H245746   5.093   2.774  14.358 -1.2846 -1.5376 -0.6148
 8111TIP3   OH245747   0.949   5.132   1.979 -0.2260  0.2813 -0.3202
 8111TIP3    H145748   1.008   5.104   1.909 -0.2834  1.1838 -0.7464
 8111TIP3    H245749   0.871   5.164   1.933 -0.7371 -0.1903  0.2092
 8112TIP3   OH245750   1.047   4.851   3.882  0.1509  0.3465 -0.1546
 8112TIP3    H145751   1.141   4.843   3.898  1.0816  2.2598 -3.6004
 8112TIP3    H245752   1.037   4.836   3.788 -2.7633  1.8142 -0.2191
 8113TIP3   OH245753   0.978   5.380   2.360 -0.4866 -0.2836  0.0586
 8113TIP3    H145754   1.025   5.301   2.385  2.2223  1.0708 -0.3905
 8113TIP3    H245755   1.005   5.396   2.270 -1.9323  0.5281 -0.2550
 8114TIP3   OH245756   0.314   1.980  11.333  0.2994 -0.0851 -0.4853
 8114TIP3    H145757   0.247   2.010  11.395  2.3263  1.7721  0.9560
 8114TIP3    H245758   0.363   1.913  11.381  0.1272 -0.6953 -1.1479
 8115TIP3   OH245759   3.649   4.619   4.741  0.6918  0.1024 -0.0124
 8115TIP3    H145760   3.740   4.648   4.731  0.3798  0.5133 -2.1621
 8115TIP3    H245761   3.610   4.632   4.654 -0.9842 -1.6296  0.4085
 8116TIP3   OH245762   2.268   5.635  11.868 -0.0168 -0.1731 -0.0050
 8116TIP3    H145763   2.302   5.551  11.900 -1.1519 -1.7324 -2.5463
 8116TIP3    H245764   2.266   5.625  11.773 -1.0162  2.4477 -0.3334
 8117TIP3   OH245765   5.194   2.095  11.350  0.2662 -0.7779  0.3373
 8117TIP3    H145766   5.215   2.088  11.443 -0.6201 -3.0906  0.4263
 8117TIP3    H245767   5.119   2.154  11.346  1.5674  1.0014  0.8199
 8118TIP3   OH245768   1.492   4.379  12.798 -0.2798  0.5274  0.1568
 8118TIP3    H145769   1.441   4.329  12.862  1.2839  0.5529  1.4891
 8118TIP3    H245770   1.536   4.446  12.849  0.3429  1.1121 -1.0951
 8119TIP3   OH245771   5.276   4.137   3.353 -0.2241  0.4857 -0.4418
 8119TIP3    H145772   5.246   4.047   3.349 -1.4969  0.9429 -3.3324
 8119TIP3    H245773   5.202   4.186   3.389 -0.4130  0.6838 -1.0921
 8120TIP3   OH245774   0.146   2.552  15.349 -0.3919  0.3346  0.1386
 8120TIP3    H145775   0.211   2.487  15.325  0.8598  1.4068  0.4840
 8120TIP3    H245776   0.101   2.574  15.267  0.7045  0.6508 -0.3898
 8121TIP3   OH245777   2.101   4.984   2.818 -0.2503 -0.0089 -0.4005
 8121TIP3    H145778   2.180   4.985   2.764 -0.2983 -1.0841 -0.5106
 8121TIP3    H245779   2.043   4.921   2.775 -1.2858  0.9495 -0.4688
 8122TIP3   OH245780   2.034   2.879   2.749 -0.2857  0.1443 -0.2485
 8122TIP3    H145781   2.015   2.830   2.668 -0.2689 -2.6013  1.2857
 8122TIP3    H245782   2.128   2.895   2.745 -0.0330 -1.1994 -0.1992
 8123TIP3   OH245783   5.576   2.155   5.824 -0.1228 -0.2636 -0.3219
 8123TIP3    H145784   5.577   2.150   5.728  0.8109 -0.1314 -0.3238
 8123TIP3    H245785   5.502   2.214   5.844 -0.3826 -0.3684 -0.9499
 8124TIP3   OH245786   5.094   0.874  11.255 -0.1784  0.1844 -0.0746
 8124TIP3    H145787   5.153   0.894  11.182  1.2268  0.8922  1.2037
 8124TIP3    H245788   5.012   0.917  11.232  0.4983  1.1023 -0.8840
 8125TIP3   OH245789   1.756   3.484  16.125  0.3005 -0.2816 -0.0745
 8125TIP3    H145790   1.833   3.540  16.135 -0.4099  1.4368 -2.9315
 8125TIP3    H245791   1.785   3.413  16.067 -0.0639 -0.0057 -0.6056
 8126TIP3   OH245792   2.984   6.632   4.800 -0.1342  0.0269  0.3799
 8126TIP3    H145793   3.000   6.685   4.722  0.3651 -0.0200  0.4475
 8126TIP3    H245794   3.007   6.689   4.873  2.0676 -0.8042  0.4176
 8127TIP3   OH245795   5.432   6.696  16.423  0.4190  0.1488 -0.1014
 8127TIP3    H145796   5.520   6.662  16.437  0.2385  0.4600  2.2112
 8127TIP3    H245797   5.374   6.632  16.463 -0.4709 -0.1353 -1.7410
 8128TIP3   OH245798   6.650   6.299   1.866  0.6445  0.0443  0.9025
 8128TIP3    H145799   6.644   6.252   1.950  1.5028 -0.3992  0.7347
 8128TIP3    H245800   6.600   6.246   1.805  2.4099 -1.2246  0.4918
 8129TIP3   OH245801   0.194   4.776   0.986 -0.2218 -0.5173 -0.0185
 8129TIP3    H145802   0.132   4.795   0.915 -0.2567 -1.7369 -0.3333
 8129TIP3    H245803   0.241   4.858   0.999 -1.1126  0.0971 -0.5651
 8130TIP3   OH245804   6.629   2.451  14.892  0.1040 -0.0048  0.1053
 8130TIP3    H145805   6.671   2.379  14.846  0.5756 -0.0166  0.5375
 8130TIP3    H245806   6.583   2.500  14.824 -0.0208 -0.5770 -0.2242
 8131TIP3   OH245807   4.858   3.285  15.972  0.1785  0.2578 -0.3437
 8131TIP3    H145808   4.788   3.260  15.912  0.6001 -2.0115  0.0288
 8131TIP3    H245809   4.855   3.219  16.042  1.1653  1.5098  0.9400
 8132TIP3   OH245810   6.546   4.386   4.429 -0.1278  0.2893 -0.8849
 8132TIP3    H145811   6.507   4.440   4.497  0.6113 -0.1974 -0.0468
 8132TIP3    H245812   6.498   4.408   4.349 -1.3703  0.4719 -0.1049
 8133TIP3   OH245813   3.678   1.652  16.354  0.0825  0.7861  0.1751
 8133TIP3    H145814   3.643   1.717  16.294 -1.5436  0.4343  0.6855
 8133TIP3    H245815   3.731   1.595  16.299  0.2924  1.6537 -0.5445
 8134TIP3   OH245816   1.091   2.421   0.340  0.2946  0.1464  0.3333
 8134TIP3    H145817   1.047   2.381   0.266 -0.2966  1.4872 -0.0704
 8134TIP3    H245818   1.059   2.372   0.416 -0.1934 -0.3203 -0.1636
 8135TIP3   OH245819   5.339   2.625  10.847 -0.0750 -0.1739 -0.4232
 8135TIP3    H145820   5.328   2.552  10.786  2.2031 -0.1721 -0.9463
 8135TIP3    H245821   5.432   2.623  10.870 -0.4347  1.1551  1.3938
 8136TIP3   OH245822   2.455   0.094  14.325 -0.1650  0.3515  0.7075
 8136TIP3    H145823   2.528   0.155  14.317 -0.7912  1.2217  1.4945
 8136TIP3    H245824   2.459   0.041  14.245  1.4013  0.2975  0.8025
 8137TIP3   OH245825   2.534   1.687   3.058 -0.4937 -0.3214 -0.1055
 8137TIP3    H145826   2.444   1.673   3.031 -0.6948 -2.8741  1.5981
 8137TIP3    H245827   2.537   1.779   3.084 -2.8075 -0.3687  0.5324
 8138TIP3   OH245828   0.033   5.556  15.455 -0.4092  0.0608 -0.1750
 8138TIP3    H145829  -0.039   5.573  15.394  0.3040  1.8151 -0.5851
 8138TIP3    H245830   0.111   5.557  15.399  0.1265  0.3177  0.5708
 8139TIP3   OH245831   6.489   0.679   4.933  0.1587  0.3653  0.2057
 8139TIP3    H145832   6.431   0.627   4.988 -0.9163  1.0645 -0.2288
 8139TIP3    H245833   6.574   0.676   4.978 -0.0988 -1.0233  0.6297
 8140TIP3   OH245834   0.604   2.094   4.465 -0.0889  0.4142 -0.0213
 8140TIP3    H145835   0.649   2.174   4.439  1.3349 -0.6833 -1.0922
 8140TIP3    H245836   0.593   2.045   4.384  0.0950 -0.9913  0.7729
 8141TIP3   OH245837   4.523   3.281  15.407  0.3802  0.5179 -0.0680
 8141TIP3    H145838   4.534   3.206  15.466 -0.0787  0.3467 -0.1949
 8141TIP3    H245839   4.480   3.244  15.330 -1.1483  1.1719  0.4467
 8142TIP3   OH245840   6.045   3.486   0.012  0.0467  0.1252 -0.1885
 8142TIP3    H145841   5.967   3.445  -0.025  0.0725 -0.6691  0.6224
 8142TIP3    H245842   6.022   3.579   0.017 -1.6660 -0.3227  1.8982
 8143TIP3   OH245843   1.644   2.425   0.555 -0.2715  0.0008  0.0477
 8143TIP3    H145844   1.660   2.373   0.476 -0.1735 -0.7407  0.5474
 8143TIP3    H245845   1.572   2.380   0.599 -0.4020  0.4765  0.3225
 8144TIP3   OH245846   6.691   1.983  11.469 -0.5581 -0.4777  0.1106
 8144TIP3    H145847   6.767   2.031  11.503 -1.9340  0.3135  2.2976
 8144TIP3    H245848   6.729   1.911  11.418  1.6194  0.5803  0.1148
 8145TIP3   OH245849   5.111   1.551   4.593 -0.2204 -0.2539  0.1861
 8145TIP3    H145850   5.087   1.459   4.602 -0.1195 -0.1393  1.9427
 8145TIP3    H245851   5.191   1.561   4.644 -1.3636  1.2145  1.8242
 8146TIP3   OH245852   1.439   4.894  15.746  0.5661  0.3717  0.7261
 8146TIP3    H145853   1.366   4.914  15.687  0.5484  1.5084  1.1128
 8146TIP3    H245854   1.505   4.854  15.689  0.6286  1.6351 -0.1370
 8147TIP3   OH245855   4.133   4.081  15.309  0.4968 -0.1371 -0.1161
 8147TIP3    H145856   4.132   3.985  15.317 -0.6624 -0.1289  0.0082
 8147TIP3    H245857   4.045   4.108  15.335  0.2848  0.8348 -1.7034
 8148TIP3   OH245858   0.928   4.721   2.384  0.7960  0.3234  0.2138
 8148TIP3    H145859   0.848   4.771   2.400  2.1737  2.5701  0.5155
 8148TIP3    H245860   0.960   4.755   2.301  1.4327 -0.5928  0.0764
 8149TIP3   OH245861   1.885   4.987   2.352  0.1743  0.7210 -0.3088
 8149TIP3    H145862   1.975   5.019   2.347 -0.2819  2.3261  0.7093
 8149TIP3    H245863   1.856   4.984   2.261  1.0798  0.7103 -0.6106
 8150TIP3   OH245864   1.504   6.755  12.571 -0.1102  0.0702 -0.2606
 8150TIP3    H145865   1.413   6.768  12.544  0.0846 -0.1827 -1.0826
 8150TIP3    H245866   1.541   6.843  12.573 -0.2519  0.1339 -0.3966
 8151TIP3   OH245867   3.943   6.217   4.042  0.5203 -0.0463 -0.5206
 8151TIP3    H145868   3.885   6.142   4.030  2.6016 -1.8314 -0.1502
 8151TIP3    H245869   3.969   6.213   4.135  2.0585  0.0050 -0.9167
 8152TIP3   OH245870   0.049   2.205  17.058  0.1979 -0.3027  0.5405
 8152TIP3    H145871  -0.044   2.223  17.041  0.8602  0.1669 -3.3956
 8152TIP3    H245872   0.096   2.255  16.992  3.2014 -1.9972  1.2060
 8153TIP3   OH245873   0.873   0.758   2.408 -0.2148  0.0679 -0.1520
 8153TIP3    H145874   0.807   0.819   2.375 -0.8567 -0.2253  0.5391
 8153TIP3    H245875   0.849   0.674   2.370 -0.8231 -0.2260  0.8597
 8154TIP3   OH245876   4.320   0.360  16.233  0.3089  0.2228  0.6393
 8154TIP3    H145877   4.313   0.289  16.296  1.2008 -1.1500 -0.7357
 8154TIP3    H245878   4.307   0.439  16.284  0.8237 -0.8409  2.5017
 8155TIP3   OH245879   3.855   3.138  12.826 -0.0627  0.0632 -0.2063
 8155TIP3    H145880   3.947   3.166  12.834  0.4327 -1.7366  1.0300
 8155TIP3    H245881   3.852   3.090  12.743 -0.1401  0.9664 -0.7359
 8156TIP3   OH245882   1.143   2.514  12.893  0.5874  0.1102 -0.1596
 8156TIP3    H145883   1.070   2.566  12.926 -0.3276 -1.2041 -0.0345
 8156TIP3    H245884   1.178   2.470  12.971  0.5591 -0.4142 -0.4396
 8157TIP3   OH245885   0.072   3.600   3.088 -0.8121 -0.2993  0.1072
 8157TIP3    H145886  -0.010   3.593   3.136 -0.2309 -3.1287  0.8856
 8157TIP3    H245887   0.048   3.585   2.997 -1.4303  1.4753 -0.0701
 8158TIP3   OH245888   4.541   6.557  10.999 -0.2992  0.2556 -0.6150
 8158TIP3    H145889   4.624   6.510  11.008 -1.0233 -0.8252  0.8027
 8158TIP3    H245890   4.562   6.647  11.024  0.5497  0.1276 -0.8133
 8159TIP3   OH245891   3.438   5.448   1.322  0.5626 -0.2581 -0.0231
 8159TIP3    H145892   3.390   5.417   1.246 -1.4418  1.0498  0.6255
 8159TIP3    H245893   3.464   5.368   1.369  0.2883 -1.0277 -1.1526
 8160TIP3   OH245894   4.268   0.188   0.496  0.7493 -1.1089 -0.3819
 8160TIP3    H145895   4.228   0.205   0.411  1.9828  0.5891 -0.6671
 8160TIP3    H245896   4.362   0.186   0.479  1.0159 -0.7747  0.9429
 8161TIP3   OH245897   2.349   4.191   0.271  0.1790 -0.1526 -0.7765
 8161TIP3    H145898   2.438   4.166   0.295 -0.8137 -4.3524 -0.7089
 8161TIP3    H245899   2.340   4.163   0.180 -0.4582  2.4740 -1.6317
 8162TIP3   OH245900   3.043   5.927   2.572 -0.9008  0.3235  0.4515
 8162TIP3    H145901   2.955   5.916   2.536 -1.0725 -1.0108  1.1809
 8162TIP3    H245902   3.102   5.896   2.503 -0.9757  1.4566 -0.1324
 8163TIP3   OH245903   4.410   3.620   3.846  0.6737 -0.2335  0.7875
 8163TIP3    H145904   4.418   3.685   3.776 -1.3765 -1.6455 -0.8910
 8163TIP3    H245905   4.476   3.554   3.825 -0.8748 -1.3950 -0.8160
 8164TIP3   OH245906   1.286   3.498  15.390  0.5937  0.0944  0.0338
 8164TIP3    H145907   1.371   3.491  15.433  0.0740 -1.2785  0.8880
 8164TIP3    H245908   1.307   3.501  15.297  1.6359  1.2685  0.2725
 8165TIP3   OH245909   5.634   4.838   0.490  0.6400 -0.0216 -0.2605
 8165TIP3    H145910   5.714   4.795   0.520  0.2969 -0.2618  0.3411
 8165TIP3    H245911   5.584   4.769   0.448  0.4814 -0.0095 -0.0922
 8166TIP3   OH245912   3.597   0.684   2.687  0.6029 -0.2694 -0.6216
 8166TIP3    H145913   3.554   0.686   2.601 -0.1500  1.4261 -0.2531
 8166TIP3    H245914   3.643   0.768   2.692  0.2744 -0.1584  0.8036
 8167TIP3   OH245915   0.141   4.149   1.625 -0.7363 -0.1098  0.4770
 8167TIP3    H145916   0.168   4.167   1.535  0.3504  0.8351  0.9722
 8167TIP3    H245917   0.183   4.217   1.677 -1.1071 -0.8143  1.7458
 8168TIP3   OH245918   5.310   4.374  13.646 -0.1950 -0.0921 -0.4574
 8168TIP3    H145919   5.348   4.295  13.683  0.1092 -0.3706 -1.3266
 8168TIP3    H245920   5.229   4.344  13.605 -0.5462  0.2157 -0.0013
 8169TIP3   OH245921   4.404   2.652   2.022  0.2863  0.6578  0.3731
 8169TIP3    H145922   4.426   2.686   1.935 -0.7981  1.4874  0.3946
 8169TIP3    H245923   4.408   2.729   2.079  0.1991  0.2710  0.9049
 8170TIP3   OH245924   1.595   2.087  13.048  0.0414 -0.7521  0.4823
 8170TIP3    H145925   1.583   2.148  13.120 -1.3504 -0.0466 -0.3090
 8170TIP3    H245926   1.671   2.120  13.000 -0.7106  0.4109  0.0461
 8171TIP3   OH245927   5.817   1.912  13.712 -0.5437 -0.7349 -0.0957
 8171TIP3    H145928   5.765   1.905  13.792 -1.7297  0.5408 -0.6982
 8171TIP3    H245929   5.753   1.899  13.641  0.1067  0.0930 -0.8518
 8172TIP3   OH245930   2.415   1.995   3.639 -0.2678  0.3520  0.5852
 8172TIP3    H145931   2.480   2.064   3.626 -0.4369  0.6197  1.1500
 8172TIP3    H245932   2.445   1.923   3.583  0.0040  0.8175  0.1232
 8173TIP3   OH245933   1.972   3.494  14.777  0.5370 -0.6614  0.0685
 8173TIP3    H145934   2.014   3.414  14.810  0.3993 -0.5005  0.6325
 8173TIP3    H245935   1.978   3.486  14.681 -2.7170 -3.1640 -0.1296
 8174TIP3   OH245936   5.905   1.324  14.746 -0.3501 -0.1274  0.2136
 8174TIP3    H145937   5.981   1.274  14.776 -0.8442  0.3275  2.4255
 8174TIP3    H245938   5.930   1.416  14.758 -1.2416  0.0289  1.0111
 8175TIP3   OH245939   0.724   0.219   2.628 -0.8018 -0.0836 -0.7853
 8175TIP3    H145940   0.727   0.241   2.534 -3.0067  0.2656 -0.8288
 8175TIP3    H245941   0.737   0.303   2.672 -2.2978  0.2177 -0.8560
 8176TIP3   OH245942   5.433   4.620  13.643  0.3683  0.0342  0.0491
 8176TIP3    H145943   5.422   4.642  13.551  0.5886 -0.6924 -0.1608
 8176TIP3    H245944   5.383   4.539  13.654 -1.2656  1.1337  1.0355
 8177TIP3   OH245945   3.079   4.672   3.387 -0.2017 -0.1621 -0.4793
 8177TIP3    H145946   3.098   4.637   3.474 -2.4999  0.2620  0.2702
 8177TIP3    H245947   3.010   4.614   3.353 -0.9915  1.0395 -0.9982
 8178TIP3   OH245948   2.795   4.379   2.418  0.0211 -0.0672  0.4821
 8178TIP3    H145949   2.701   4.385   2.437 -0.1124  1.1581 -0.3892
 8178TIP3    H245950   2.838   4.415   2.495 -0.1825 -1.2903  1.1800
 8179TIP3   OH245951   6.033   2.046  13.101  0.2654 -0.7362 -0.3510
 8179TIP3    H145952   6.039   2.141  13.110  0.0597 -0.8396  1.2217
 8179TIP3    H245953   5.955   2.022  13.150  0.7468 -1.7888 -0.0542
 8180TIP3   OH245954   0.372   5.978   0.963 -0.5209  0.0335  0.1242
 8180TIP3    H145955   0.334   5.989   1.050 -1.3681  0.5557 -0.2950
 8180TIP3    H245956   0.336   6.050   0.912  0.7427  0.3108 -0.4074
 8181TIP3   OH245957   4.233   6.664  12.744  0.2875  0.4486  0.1845
 8181TIP3    H145958   4.247   6.608  12.820  0.1425  1.9317  1.3638
 8181TIP3    H245959   4.252   6.608  12.669  0.7187 -0.9857  1.3104
 8182TIP3   OH245960   6.416   3.109  12.116 -0.4809 -0.6989 -0.5668
 8182TIP3    H145961   6.396   3.060  12.037 -0.4473 -1.1275 -0.3090
 8182TIP3    H245962   6.484   3.057  12.160 -0.9829 -0.8117  0.0849
 8183TIP3   OH245963   4.129   5.609   0.002 -0.1576 -0.0116 -0.4096
 8183TIP3    H145964   4.123   5.557  -0.078  0.6631  0.1505 -0.5809
 8183TIP3    H245965   4.047   5.590   0.048  0.2963 -1.8030 -0.2566
 8184TIP3   OH245966   0.856   5.958  12.150 -0.4215 -0.3321  0.2426
 8184TIP3    H145967   0.802   5.905  12.091  0.1855 -0.2015 -0.4372
 8184TIP3    H245968   0.925   5.898  12.180  1.5160  0.5332 -2.1494
 8185TIP3   OH245969   1.985   1.311   1.139 -0.2214 -0.1105 -0.0633
 8185TIP3    H145970   1.964   1.404   1.150  0.3860 -0.0523  0.6580
 8185TIP3    H245971   1.941   1.286   1.057 -3.4433 -0.0907  1.5011
 8186TIP3   OH245972   6.231   2.388  10.787  0.1056 -0.2769  0.2611
 8186TIP3    H145973   6.295   2.455  10.811  0.6615 -1.1046  1.1580
 8186TIP3    H245974   6.159   2.437  10.748  1.1014  0.7168 -0.4084
 8187TIP3   OH245975   6.789   2.462   0.238  0.3422 -0.4526 -0.3737
 8187TIP3    H145976   6.790   2.405   0.315  0.9475 -0.4973 -0.4109
 8187TIP3    H245977   6.705   2.509   0.244  0.8762  0.4059  0.9555
 8188TIP3   OH245978   6.510   0.512   1.572  0.0662 -0.3845 -0.3942
 8188TIP3    H145979   6.556   0.459   1.507  1.7379 -0.1458  0.5184
 8188TIP3    H245980   6.542   0.480   1.656  1.1763  2.0201  0.1961
 8189TIP3   OH245981   3.706   5.962   4.935 -0.0597  0.2410 -0.5717
 8189TIP3    H145982   3.612   5.976   4.947  0.0693  1.0756 -0.4379
 8189TIP3    H245983   3.730   6.020   4.863  0.3079 -0.1584 -0.7739
 8190TIP3   OH245984   3.025   0.127  11.762  0.3478 -0.5144 -0.0467
 8190TIP3    H145985   3.016   0.079  11.679  0.6481  0.0148 -0.3944
 8190TIP3    H245986   2.955   0.092  11.817  0.1250 -0.8602 -0.5321
 8191TIP3   OH245987   4.432   3.156  11.234  0.6882 -0.1721 -0.2895
 8191TIP3    H145988   4.522   3.126  11.247  0.2628 -0.5452  2.1758
 8191TIP3    H245989   4.430   3.243  11.274 -0.0365 -0.1256 -0.4296
 8192TIP3   OH245990   4.718   2.661  11.536 -0.2869  0.0035  0.7110
 8192TIP3    H145991   4.651   2.601  11.570  0.3321 -0.3537  1.3429
 8192TIP3    H245992   4.680   2.748  11.546 -0.6598 -0.1969  1.0754
 8193TIP3   OH245993   2.752   0.633  12.497  0.5678 -0.0995 -0.1823
 8193TIP3    H145994   2.754   0.572  12.424 -0.2561  1.1115 -1.2431
 8193TIP3    H245995   2.694   0.592  12.561  0.8972 -0.9240 -0.3925
 8194TIP3   OH245996   2.951   2.170  16.017 -0.2742 -0.1496 -0.4689
 8194TIP3    H145997   2.997   2.249  15.989 -0.7021  0.7982  1.3531
 8194TIP3    H245998   3.018   2.115  16.058 -0.5953  1.0707  1.8549
 8195TIP3   OH245999   1.780   4.324  16.660 -0.4779  0.0012  0.2886
 8195TIP3    H146000   1.726   4.248  16.638  0.3687 -0.7749  0.7879
 8195TIP3    H246001   1.790   4.371  16.577 -0.4725 -0.8092 -0.1825
 8196TIP3   OH246002   1.679   2.911   0.334  0.1662 -1.0001 -0.2279
 8196TIP3    H146003   1.607   2.974   0.331 -0.0992 -1.2136  1.0028
 8196TIP3    H246004   1.742   2.943   0.270  0.6146  1.2235  1.2448
 8197TIP3   OH246005   1.669   5.398   3.966 -0.3925  0.2791 -0.6902
 8197TIP3    H146006   1.590   5.414   4.018 -0.1681  0.4575 -0.3958
 8197TIP3    H246007   1.662   5.459   3.893  0.7207  2.2406  0.7173
 8198TIP3   OH246008   4.045   2.449   5.277  0.0795 -0.0922  0.1307
 8198TIP3    H146009   3.971   2.504   5.251 -1.1455 -2.0057 -0.6297
 8198TIP3    H246010   4.063   2.474   5.367 -0.5819  1.3657 -0.1095
 8199TIP3   OH246011   2.004   4.178   2.530  0.5620  0.0879  0.5503
 8199TIP3    H146012   1.956   4.210   2.607 -0.5607  1.5809 -0.7180
 8199TIP3    H246013   2.034   4.091   2.556  0.0572  0.4550  2.6074
 8200TIP3   OH246014   1.707   1.242   5.154  0.1568  0.1897 -0.2119
 8200TIP3    H146015   1.691   1.207   5.242  0.9047  0.4214  0.0216
 8200TIP3    H246016   1.685   1.335   5.161  3.0946  0.9068  0.5751
 8201TIP3   OH246017   2.115   1.248  15.230 -0.2405 -0.3717  0.7994
 8201TIP3    H146018   2.195   1.221  15.187  0.2968 -0.0331  1.5646
 8201TIP3    H246019   2.130   1.232  15.323 -0.9681 -0.0885  0.9787
 8202TIP3   OH246020   5.219   4.380   4.123 -0.2544 -0.3881  0.3543
 8202TIP3    H146021   5.230   4.287   4.139 -1.5136 -0.5171  0.5095
 8202TIP3    H246022   5.134   4.402   4.160 -0.4470  0.5992 -0.6014
 8203TIP3   OH246023   3.869   0.070  13.996 -0.3002 -0.4137 -0.1345
 8203TIP3    H146024   3.803   0.131  13.961 -0.5518 -0.1409  0.7865
 8203TIP3    H246025   3.842  -0.016  13.962 -0.9013 -0.2483 -0.1009
 8204TIP3   OH246026   4.982   3.682  15.293 -0.5866  0.3588  0.8624
 8204TIP3    H146027   5.041   3.630  15.238  0.2901  0.7182  1.4471
 8204TIP3    H246028   5.030   3.694  15.375 -1.7370  0.1035  1.6073
 8205TIP3   OH246029   4.802   4.493   3.201 -0.1807 -0.0920 -0.4911
 8205TIP3    H146030   4.775   4.523   3.114 -2.3563 -0.0418  0.1312
 8205TIP3    H246031   4.722   4.456   3.239  0.8276 -0.5211  1.3277
 8206TIP3   OH246032   5.224   5.300   1.183  0.5195 -0.2983 -0.4560
 8206TIP3    H146033   5.141   5.266   1.151 -0.2875  1.1877 -0.0086
 8206TIP3    H246034   5.283   5.224   1.181 -0.3986 -1.0357 -2.2301
 8207TIP3   OH246035   1.278   2.235   2.807  0.3070 -0.6716 -0.2226
 8207TIP3    H146036   1.267   2.316   2.759  0.6686  0.0784  0.9158
 8207TIP3    H246037   1.262   2.166   2.743 -0.6083  0.2932 -1.0610
 8208TIP3   OH246038   5.692   6.609   6.109 -0.1124 -0.4261  0.2814
 8208TIP3    H146039   5.686   6.648   6.197  0.5332  0.1804  0.0692
 8208TIP3    H246040   5.721   6.520   6.125  1.0472 -0.0054  0.6431
 8209TIP3   OH246041   5.343   0.801   4.862 -0.0226 -0.7073  0.3318
 8209TIP3    H146042   5.321   0.818   4.770 -3.4391 -0.9614  0.9744
 8209TIP3    H246043   5.366   0.708   4.864  1.4799 -0.3879 -0.4253
 8210TIP3   OH246044   4.885   0.087  11.208  0.0412  0.2533  0.5185
 8210TIP3    H146045   4.832   0.144  11.264  0.1333  0.7502  0.1105
 8210TIP3    H246046   4.917   0.018  11.267  1.9707  1.9757  1.6087
 8211TIP3   OH246047   2.237   3.537   2.288 -0.1624 -0.7908  0.0049
 8211TIP3    H146048   2.181   3.558   2.213 -0.0358  0.6692  0.2796
 8211TIP3    H246049   2.188   3.471   2.336 -3.0955  2.2802  1.6993
 8212TIP3   OH246050   5.099   4.624   0.318  0.4121  0.1366 -0.0681
 8212TIP3    H146051   5.109   4.567   0.242  0.8945  0.3202 -0.1445
 8212TIP3    H246052   5.090   4.712   0.281  1.1545  0.2864  0.1089
 8213TIP3   OH246053   0.110   5.318  15.957  0.1163 -0.0866 -0.0084
 8213TIP3    H146054   0.016   5.315  15.977  0.6527 -1.0032  2.7945
 8213TIP3    H246055   0.115   5.366  15.874 -2.8992 -1.1454 -0.9365
 8214TIP3   OH246056   1.056   6.488   3.337  0.1226 -0.0470  0.3675
 8214TIP3    H146057   1.031   6.469   3.428  0.0153  0.1322  0.3756
 8214TIP3    H246058   1.121   6.557   3.344 -0.6815  0.7487  0.2568
 8215TIP3   OH246059   0.356   6.706  14.425 -0.1168 -0.3006  0.1777
 8215TIP3    H146060   0.341   6.777  14.363 -1.9018 -0.4971  0.3497
 8215TIP3    H246061   0.269   6.678  14.452  0.5658  0.2187  3.3094
 8216TIP3   OH246062   6.643   6.757  16.419 -0.4637 -0.3433  0.6733
 8216TIP3    H146063   6.671   6.744  16.329  1.3072  1.4088  0.9017
 8216TIP3    H246064   6.705   6.706  16.471 -0.9993 -0.7254  0.9447
 8217TIP3   OH246065   5.502   0.169   0.450 -0.3522 -0.3343  0.2088
 8217TIP3    H146066   5.492   0.103   0.381  0.1859  1.1898 -1.3941
 8217TIP3    H246067   5.419   0.217   0.449 -0.5932 -0.7069  1.1111
 8218TIP3   OH246068   3.356   0.835   5.455  0.5105 -0.0085  0.0683
 8218TIP3    H146069   3.393   0.839   5.367 -0.4142  0.9893 -0.3013
 8218TIP3    H246070   3.428   0.803   5.510  1.4246  0.3693 -0.8758
 8219TIP3   OH246071   0.085   5.772   0.525  1.0608  0.4554  0.0722
 8219TIP3    H146072   0.131   5.689   0.511  1.9002  0.9003  0.1496
 8219TIP3    H246073   0.065   5.803   0.437 -1.1716 -0.8337  0.0237
 8220TIP3   OH246074   2.642   3.341   5.717  0.3754  0.1683 -0.2421
 8220TIP3    H146075   2.661   3.402   5.788 -1.9131  0.6946  0.0113
 8220TIP3    H246076   2.664   3.389   5.637 -1.0074  1.2147 -0.0292
 8221TIP3   OH246077   1.629   5.441   2.134 -0.0264  0.0350 -0.3190
 8221TIP3    H146078   1.687   5.489   2.193 -0.3055  0.2646 -0.2249
 8221TIP3    H246079   1.542   5.448   2.175 -0.2730  0.4445 -0.8976
 8222TIP3   OH246080   0.430   3.282   3.375 -0.4487  0.7148  0.4264
 8222TIP3    H146081   0.371   3.286   3.300 -0.6617  1.1966  0.6125
 8222TIP3    H246082   0.413   3.364   3.422  1.9543  1.9549 -0.7123
 8223TIP3   OH246083   2.634   4.278  15.789 -0.1821 -0.5930  0.0057
 8223TIP3    H146084   2.715   4.228  15.798  0.4177  0.6910  3.0371
 8223TIP3    H246085   2.579   4.246  15.861 -0.1292  2.3456  1.4991
 8224TIP3   OH246086   3.007   1.678   5.902 -0.2522  0.3949 -0.2513
 8224TIP3    H146087   2.953   1.606   5.870 -0.2038 -0.2079  0.9776
 8224TIP3    H246088   3.037   1.649   5.988 -0.0206  1.7802  0.1553
 8225TIP3   OH246089   2.870   1.550   1.961  0.1619  0.2202 -0.0091
 8225TIP3    H146090   2.925   1.513   1.892 -0.6174  2.5828 -2.0871
 8225TIP3    H246091   2.821   1.475   1.996  0.5832 -1.1077 -2.0671
 8226TIP3   OH246092   6.115   0.501   3.310 -0.0812  0.0433 -0.5817
 8226TIP3    H146093   6.049   0.455   3.362 -0.6835  1.3859 -0.0943
 8226TIP3    H246094   6.179   0.434   3.287 -0.8461 -0.9923  0.1947
 8227TIP3   OH246095   2.931   2.073   2.608  0.1731 -0.0798  0.1745
 8227TIP3    H146096   2.999   2.010   2.632 -0.4908 -1.1222 -0.6029
 8227TIP3    H246097   2.850   2.035   2.642 -0.2125  0.4367 -0.1528
 8228TIP3   OH246098   5.374   3.057  15.368 -0.7995  0.1179 -0.2050
 8228TIP3    H146099   5.309   3.122  15.341 -1.2880 -0.9970 -1.9009
 8228TIP3    H246100   5.401   3.085  15.455 -1.7563  1.9813 -0.4488
 8229TIP3   OH246101   1.330   1.339  11.838 -0.6068  0.2109  0.3723
 8229TIP3    H146102   1.402   1.356  11.777 -0.4505 -0.6681  0.2981
 8229TIP3    H246103   1.287   1.424  11.849 -0.6348  0.3795 -0.9508
 8230TIP3   OH246104   3.138   0.046  15.809  0.1131 -0.2754 -0.6867
 8230TIP3    H146105   3.221   0.059  15.764 -0.1049 -1.9134 -1.6399
 8230TIP3    H246106   3.083  -0.000  15.746 -1.0462 -0.4547  0.4125
 8231TIP3   OH246107   0.690   6.188  10.488 -0.2904 -0.0921 -0.3857
 8231TIP3    H146108   0.669   6.281  10.489  0.5691  0.1163 -0.9443
 8231TIP3    H246109   0.766   6.180  10.545  0.4832 -0.2302 -1.4158
 8232TIP3   OH246110   0.671   6.325   2.088  0.6052 -0.1361  0.2704
 8232TIP3    H146111   0.704   6.379   2.159  0.0113  2.8944 -1.5682
 8232TIP3    H246112   0.708   6.365   2.009  0.9563 -3.1138 -1.2139
 8233TIP3   OH246113   6.181   6.077  14.294  0.0646  0.2327  0.2481
 8233TIP3    H146114   6.213   6.126  14.370  0.8305 -0.8544  0.6514
 8233TIP3    H246115   6.255   6.022  14.269 -0.6141 -0.3536 -0.4974
 8234TIP3   OH246116   3.043   1.470   0.949 -0.6631  0.7792 -0.5327
 8234TIP3    H146117   3.069   1.380   0.969  0.1763  0.7792 -1.5404
 8234TIP3    H246118   3.092   1.523   1.011  0.0953  0.6351 -0.9958
 8235TIP3   OH246119   0.955   4.530   0.582 -0.0360  0.1297 -0.2096
 8235TIP3    H146120   1.004   4.544   0.663  0.8053  0.3053 -0.7451
 8235TIP3    H246121   1.020   4.499   0.519 -0.6648  0.0965 -0.8527
 8236TIP3   OH246122   2.945   1.431  14.232  0.1456 -0.0883  0.5465
 8236TIP3    H146123   2.927   1.378  14.310  2.3059 -0.7710  0.6533
 8236TIP3    H246124   3.033   1.466  14.246 -0.3550  1.7569 -0.5415
 8237TIP3   OH246125   1.276   6.789   3.286  0.1622  0.2587 -0.3666
 8237TIP3    H146126   1.372   6.791   3.278  0.1730 -0.0475 -0.3331
 8237TIP3    H246127   1.247   6.869   3.243  0.4687  0.6353  0.1189
 8238TIP3   OH246128   2.331   3.795  10.368 -0.1341  0.2426  0.0223
 8238TIP3    H146129   2.269   3.724  10.354 -1.3962  1.3976 -0.5440
 8238TIP3    H246130   2.385   3.766  10.441  1.4351 -2.6080 -2.0838
 8239TIP3   OH246131   5.637   6.672   1.639  0.2276 -0.3539  0.6067
 8239TIP3    H146132   5.708   6.732   1.617 -1.0396  0.7113 -0.7688
 8239TIP3    H246133   5.659   6.639   1.726  0.7228  2.5102  1.6656
 8240TIP3   OH246134   3.631   3.907  15.155 -0.5268 -0.1986 -0.4033
 8240TIP3    H146135   3.664   3.890  15.243  2.6927 -1.5311 -1.6952
 8240TIP3    H246136   3.589   3.825  15.128  0.3122 -0.5168 -0.7856
 8241TIP3   OH246137   0.976   1.602   5.543 -0.5786 -0.2806  0.3398
 8241TIP3    H146138   1.043   1.654   5.499 -1.7557 -0.1962 -1.4325
 8241TIP3    H246139   0.893   1.640   5.514 -1.4267 -1.4293  1.1729
 8242TIP3   OH246140   2.215   4.717   1.397 -0.8408  0.1041  0.0140
 8242TIP3    H146141   2.208   4.807   1.366 -0.5126 -0.3983 -1.6548
 8242TIP3    H246142   2.187   4.720   1.488 -0.5552  1.9348  0.0744
 8243TIP3   OH246143   0.445   2.428   4.239 -0.2986 -0.0973 -0.2251
 8243TIP3    H146144   0.391   2.423   4.318  1.2418 -1.0383  0.8273
 8243TIP3    H246145   0.418   2.354   4.186  0.4448 -1.0388  0.6625
 8244TIP3   OH246146   1.593   1.582  11.855 -0.4615 -0.6842  0.1793
 8244TIP3    H146147   1.640   1.663  11.834 -0.8437 -0.6487 -0.5941
 8244TIP3    H246148   1.652   1.534  11.913  1.3692 -1.4845 -2.1713
 8245TIP3   OH246149   4.627   1.124  12.870  0.3622 -0.1098 -0.4935
 8245TIP3    H146150   4.568   1.191  12.837 -0.9637 -0.2081  1.5069
 8245TIP3    H246151   4.580   1.042  12.858  1.3619 -0.5684 -1.5552
 8246TIP3   OH246152   3.932   4.721  16.510  0.0507 -0.2861 -0.4305
 8246TIP3    H146153   3.957   4.659  16.578  0.4354 -0.2745 -0.5657
 8246TIP3    H246154   3.865   4.776  16.552  0.2101 -0.3466 -0.0943
 8247TIP3   OH246155   6.764   2.214  10.238  0.1139  0.1537 -0.2395
 8247TIP3    H146156   6.687   2.207  10.293 -0.2504 -0.8292 -0.8404
 8247TIP3    H246157   6.803   2.299  10.260 -0.9970  0.5486  0.2364
 8248TIP3   OH246158   0.280   1.516  15.003  0.4560 -0.3207 -0.0210
 8248TIP3    H146159   0.198   1.540  15.045  0.6293  0.1705  0.0386
 8248TIP3    H246160   0.253   1.471  14.923  0.0737  1.8958 -1.2323
 8249TIP3   OH246161   2.678   6.342   3.195  0.2366 -0.6562 -0.2772
 8249TIP3    H146162   2.669   6.404   3.267 -2.3385 -0.2495 -0.8429
 8249TIP3    H246163   2.687   6.397   3.117  1.3245 -1.0811 -0.4738
 8250TIP3   OH246164   2.786   4.221   4.887  0.6481  0.2885  0.0653
 8250TIP3    H146165   2.853   4.259   4.829 -0.1275 -0.7434 -1.5883
 8250TIP3    H246166   2.727   4.175   4.827 -2.0982  1.9145  1.3240
 8251TIP3   OH246167   2.862   3.077  12.467  0.2481 -0.3257 -0.4409
 8251TIP3    H146168   2.892   3.147  12.410  2.4967  0.0059  1.0163
 8251TIP3    H246169   2.935   3.062  12.527 -1.0612 -2.3312  0.7784
 8252TIP3   OH246170   5.459   3.841   5.572  0.0834  0.4495 -0.4814
 8252TIP3    H146171   5.539   3.876   5.612 -1.1582  3.4914 -0.3892
 8252TIP3    H246172   5.389   3.895   5.607 -1.9353 -1.4468 -1.3692
 8253TIP3   OH246173   0.755   3.836   4.101 -0.1164 -0.1376 -0.0253
 8253TIP3    H146174   0.796   3.787   4.172 -0.7347 -0.0351  0.4089
 8253TIP3    H246175   0.804   3.918   4.096  0.9370 -0.7853 -0.7648
 8254TIP3   OH246176   0.363   1.118   5.745  0.2725 -0.3921  0.3418
 8254TIP3    H146177   0.365   1.180   5.818 -1.0615  0.4769 -0.3083
 8254TIP3    H246178   0.289   1.148   5.691  2.8424  0.7367 -2.8509
 8255TIP3   OH246179   0.429   4.686  15.300  0.0440  0.7317 -0.0079
 8255TIP3    H146180   0.475   4.637  15.232 -1.5003  1.8935 -2.0112
 8255TIP3    H246181   0.444   4.636  15.380  0.4163 -1.7566 -1.5189
 8256TIP3   OH246182   1.927   0.330   0.375 -0.3209 -0.5471  0.2914
 8256TIP3    H146183   1.968   0.253   0.414  0.6748 -0.1358  0.1066
 8256TIP3    H246184   1.974   0.404   0.414 -1.2142 -0.0315  0.4189
 8257TIP3   OH246185   4.872   6.232   5.585 -0.1633 -0.1138  0.4480
 8257TIP3    H146186   4.809   6.304   5.577 -0.9114 -0.9778 -3.7312
 8257TIP3    H246187   4.954   6.276   5.608 -0.8971  1.9080 -0.4965
 8258TIP3   OH246188   5.676   3.807  12.113  0.1869 -0.0716  0.2844
 8258TIP3    H146189   5.766   3.776  12.122  0.8411  0.7629 -2.4126
 8258TIP3    H246190   5.675   3.890  12.161 -0.0730 -1.4923  2.9118
 8259TIP3   OH246191   5.346   5.916  12.524  1.2414 -0.1524 -0.0933
 8259TIP3    H146192   5.388   5.866  12.594  0.5448  0.3652  0.7083
 8259TIP3    H246193   5.319   5.849  12.460  2.5433 -0.5560 -0.2350
 8260TIP3   OH246194   1.635   0.102  13.338  0.5298  0.6098 -0.6277
 8260TIP3    H146195   1.652   0.020  13.292 -0.3627  0.2151 -0.2691
 8260TIP3    H246196   1.716   0.152  13.328  1.0990 -0.3262 -0.8247
 8261TIP3   OH246197   5.310   5.643  14.463  0.3831  0.1160  0.3354
 8261TIP3    H146198   5.304   5.718  14.403  0.7581 -0.3503 -0.3049
 8261TIP3    H246199   5.267   5.572  14.416 -0.8262  0.1530  1.3450
 8262TIP3   OH246200   2.614   5.584  12.751 -0.3302  0.1936 -0.3776
 8262TIP3    H146201   2.620   5.489  12.762  1.6988  0.0684 -1.9308
 8262TIP3    H246202   2.703   5.616  12.767 -0.9844  1.8663  0.1700
 8263TIP3   OH246203   1.393   1.551   0.107 -0.3394 -0.1262 -0.0925
 8263TIP3    H146204   1.393   1.479   0.044  1.1275 -1.4730  1.3410
 8263TIP3    H246205   1.386   1.630   0.053 -1.2658 -1.2891 -1.7630
 8264TIP3   OH246206   1.674   4.630  11.331 -0.2982 -1.1453  0.2166
 8264TIP3    H146207   1.612   4.617  11.402 -0.6694  2.0060  0.6302
 8264TIP3    H246208   1.621   4.665  11.259  0.4565 -1.9073 -0.7353
 8265TIP3   OH246209   6.482   4.620  13.988 -0.3291 -0.3214 -0.3443
 8265TIP3    H146210   6.522   4.609  14.074  1.1159  0.1917 -0.9211
 8265TIP3    H246211   6.474   4.531  13.954  2.5405 -0.3683 -1.1448
 8266TIP3   OH246212   1.665   6.738  16.555 -0.2743  0.5229  0.2939
 8266TIP3    H146213   1.607   6.662  16.560  1.3478 -0.9573 -1.9504
 8266TIP3    H246214   1.656   6.770  16.466  0.9388  1.4379  0.4717
 8267TIP3   OH246215   0.026   6.622   4.874  0.0294  0.0466 -0.0298
 8267TIP3    H146216   0.051   6.585   4.958  0.9626  1.4624  0.3450
 8267TIP3    H246217   0.016   6.546   4.816  0.2429 -0.8762  1.1158
 8268TIP3   OH246218   0.948   2.913  15.562 -0.5777  0.0605  0.1947
 8268TIP3    H146219   1.024   2.885  15.614  0.3548  1.9396 -0.0778
 8268TIP3    H246220   0.978   2.908  15.471 -1.1999 -0.3459  0.0104
 8269TIP3   OH246221   3.753   6.616   3.992 -0.2980 -0.1445 -0.5727
 8269TIP3    H146222   3.719   6.566   3.918  0.5531  1.3591 -2.0435
 8269TIP3    H246223   3.840   6.579   4.007 -0.0113  0.3120 -1.0931
 8270TIP3   OH246224   2.327   0.672  14.749 -0.0021  0.4432 -0.7128
 8270TIP3    H146225   2.390   0.610  14.711 -0.4641 -1.5214  1.4616
 8270TIP3    H246226   2.381   0.742  14.784  0.6590  0.5875 -1.9563
 8271TIP3   OH246227   3.591   1.581   1.947 -0.5526  0.0887 -0.3551
 8271TIP3    H146228   3.589   1.669   1.986  1.4946  0.1479 -0.2738
 8271TIP3    H246229   3.583   1.596   1.853 -1.2884  0.2584 -0.2735
 8272TIP3   OH246230   4.582   3.575   1.244  0.1597  0.0371 -0.5398
 8272TIP3    H146231   4.674   3.595   1.232  0.1872 -0.1147 -0.5779
 8272TIP3    H246232   4.539   3.661   1.248  0.4192  0.1292  0.4366
 8273TIP3   OH246233   1.221   0.693  16.474 -0.1511  0.0906  0.1460
 8273TIP3    H146234   1.233   0.612  16.524  0.0699  0.5703  0.8965
 8273TIP3    H246235   1.303   0.741  16.486 -0.1837  0.3141 -0.5050
 8274TIP3   OH246236   0.486   6.696  11.620 -0.8955  0.0526 -0.2021
 8274TIP3    H146237   0.524   6.783  11.630  0.8267 -0.5720 -0.8857
 8274TIP3    H246238   0.431   6.703  11.543 -3.0681  1.2320  1.3545
 8275TIP3   OH246239   3.102   1.928   5.445 -0.0130 -0.1607  0.0506
 8275TIP3    H146240   3.028   1.989   5.436 -0.9045 -1.1113  0.6727
 8275TIP3    H246241   3.068   1.858   5.501  1.5754 -0.2887  0.9176
 8276TIP3   OH246242   3.130   0.937   0.644  0.6246 -0.0993 -1.3364
 8276TIP3    H146243   3.101   0.846   0.654  2.6486 -0.7484 -0.8166
 8276TIP3    H246244   3.082   0.985   0.711 -0.1014 -0.8819 -1.2777
 8277TIP3   OH246245   0.830   4.350   3.600  0.2921  0.3098  0.3957
 8277TIP3    H146246   0.788   4.395   3.674 -0.1961 -0.0281  0.3330
 8277TIP3    H246247   0.787   4.387   3.523 -0.9924 -1.0825  0.3817
 8278TIP3   OH246248   2.292   4.409  15.381  0.1319 -0.1168 -0.0707
 8278TIP3    H146249   2.370   4.368  15.419  2.7063  2.2397 -2.3456
 8278TIP3    H246250   2.316   4.501  15.369 -3.7323  1.1816  0.7416
 8279TIP3   OH246251   1.416   5.428  16.805 -0.1471 -0.1457 -0.1012
 8279TIP3    H146252   1.329   5.466  16.811 -0.2304 -0.2992 -0.3056
 8279TIP3    H246253   1.444   5.447  16.715  0.8017  1.5606  0.5099
 8280TIP3   OH246254   3.678   2.817  12.353  0.1088 -0.2770 -0.2846
 8280TIP3    H146255   3.660   2.736  12.400 -0.2175 -0.2748 -0.4027
 8280TIP3    H246256   3.768   2.806  12.320 -0.0224 -0.7018 -0.5172
 8281TIP3   OH246257   0.497   4.369  16.087 -0.4533 -0.0266 -0.0397
 8281TIP3    H146258   0.431   4.406  16.027 -0.8693 -0.9095 -0.1450
 8281TIP3    H246259   0.540   4.446  16.125 -0.6284  0.5574 -0.9819
 8282TIP3   OH246260   6.748   1.943   3.208 -0.1528 -0.7692 -0.1178
 8282TIP3    H146261   6.731   1.863   3.158 -0.7728 -0.3156 -0.6428
 8282TIP3    H246262   6.827   1.923   3.258 -1.6319 -2.5929  1.6342
 8283TIP3   OH246263   0.207   3.920   5.839  0.3420  0.2292  0.1661
 8283TIP3    H146264   0.282   3.977   5.820 -0.1554  0.2197 -2.0043
 8283TIP3    H246265   0.152   3.972   5.898  1.0319  1.0740  0.0822
 8284TIP3   OH246266   5.507   0.834  16.614 -0.1985 -0.1308 -0.1587
 8284TIP3    H146267   5.448   0.767  16.649  0.6281 -0.7978 -0.0049
 8284TIP3    H246268   5.551   0.869  16.691 -0.6532  0.6289 -0.2376
 8285TIP3   OH246269   0.141   6.769   5.803 -0.0874  0.1001  0.4831
 8285TIP3    H146270   0.207   6.701   5.788  0.3262  0.4792  0.5594
 8285TIP3    H246271   0.170   6.843   5.749 -0.8174  0.0414 -0.0069
 8286TIP3   OH246272   4.445   4.414   1.572 -0.1433 -0.0744  0.2012
 8286TIP3    H146273   4.529   4.451   1.598  0.5078 -1.0506 -0.4041
 8286TIP3    H246274   4.425   4.458   1.489  0.3662 -0.6529 -0.2462
 8287TIP3   OH246275   2.170   4.108  12.142 -0.5533 -0.1823  0.2268
 8287TIP3    H146276   2.220   4.156  12.076  0.1150  0.3933  1.1409
 8287TIP3    H246277   2.085   4.152  12.144  0.1835  1.2740  1.3460
 8288TIP3   OH246278   1.781   4.658   3.451  0.1669  0.5360 -0.4559
 8288TIP3    H146279   1.741   4.698   3.528  0.2007 -2.0397  1.0132
 8288TIP3    H246280   1.707   4.640   3.393 -0.3226 -0.4651  0.4419
 8289TIP3   OH246281   0.826   3.837   1.026 -0.2702  0.5161 -0.2187
 8289TIP3    H146282   0.853   3.925   1.049  1.8710 -0.0973 -0.1275
 8289TIP3    H246283   0.842   3.831   0.932  1.3699 -0.2838  0.0669
 8290TIP3   OH246284   0.055   2.299  15.492 -0.3721 -0.0925  0.3618
 8290TIP3    H146285   0.112   2.371  15.518 -0.8923  0.3335  0.3459
 8290TIP3    H246286   0.082   2.277  15.403  0.4885 -0.6241  0.7470
 8291TIP3   OH246287   4.963   6.681   2.950 -0.0395  0.1410 -0.7587
 8291TIP3    H146288   4.940   6.597   2.912 -0.8039 -0.7006  1.4425
 8291TIP3    H246289   5.027   6.718   2.888 -1.3504 -0.9994 -2.9130
 8292TIP3   OH246290   2.436   4.922  15.239 -0.5524 -0.1295  0.0650
 8292TIP3    H146291   2.357   4.959  15.200  0.2880  2.6600  0.7780
 8292TIP3    H246292   2.508   4.969  15.198  0.6502 -1.1800  0.8870
 8293TIP3   OH246293   3.067   3.963   5.367 -0.1513  0.2784  0.7991
 8293TIP3    H146294   3.090   4.032   5.305 -1.7241  0.3130  0.2230
 8293TIP3    H246295   3.151   3.935   5.403  0.8885 -0.1120 -1.7366
 8294TIP3   OH246296   5.960   1.373  12.125 -0.2778 -0.1012  0.0918
 8294TIP3    H146297   6.019   1.442  12.093  0.7842 -0.4019  1.3102
 8294TIP3    H246298   5.875   1.416  12.131  0.0535  0.6817 -0.6121
 8295TIP3   OH246299   6.155   3.361  13.577  0.1286  0.1967 -0.0472
 8295TIP3    H146300   6.098   3.323  13.644 -0.4532 -0.1177 -0.7021
 8295TIP3    H246301   6.239   3.316  13.588 -0.2468 -0.5441 -0.1415
 8296TIP3   OH246302   3.827   1.283   3.628  0.4459 -0.1823 -0.3476
 8296TIP3    H146303   3.844   1.347   3.559  1.1826  1.5450  1.3586
 8296TIP3    H246304   3.755   1.230   3.594 -1.0233  2.3098 -1.3665
 8297TIP3   OH246305   5.757   2.289   2.590  0.0214 -0.2126  0.0154
 8297TIP3    H146306   5.752   2.379   2.559 -0.4961 -0.2532 -0.0240
 8297TIP3    H246307   5.813   2.245   2.525 -0.4217 -0.1172 -0.4434
 8298TIP3   OH246308   5.576   1.770   5.122 -0.5149 -0.4524  0.6284
 8298TIP3    H146309   5.641   1.703   5.103 -2.0140 -1.7962  0.1108
 8298TIP3    H246310   5.495   1.737   5.085 -1.0682  2.2368 -0.7912
 8299TIP3   OH246311   2.604   3.064  16.763  0.3155  0.0371  0.1317
 8299TIP3    H146312   2.532   3.037  16.820  0.4919 -0.3086  0.1918
 8299TIP3    H246313   2.585   3.156  16.743  0.3234  0.2017  0.8574
 8300TIP3   OH246314   4.216   4.642   5.539 -0.3076 -0.3854 -0.3986
 8300TIP3    H146315   4.198   4.652   5.633 -4.0436 -0.6151 -0.9197
 8300TIP3    H246316   4.205   4.548   5.522  1.0370 -0.4621 -1.0144
 8301TIP3   OH246317   4.251   5.086  16.433 -0.0588  0.8755  0.2365
 8301TIP3    H146318   4.306   5.036  16.372  0.6537  0.1908  1.3910
 8301TIP3    H246319   4.165   5.088  16.392  0.3053  0.0847 -0.5974
 8302TIP3   OH246320   1.577   5.684   4.700  0.0142 -0.2254  0.1932
 8302TIP3    H146321   1.597   5.591   4.686  0.6642 -0.1777  0.7621
 8302TIP3    H246322   1.483   5.685   4.719  0.2253 -0.9169  1.3910
 8303TIP3   OH246323   0.742   3.646  15.134  0.3161  0.3779  0.0428
 8303TIP3    H146324   0.825   3.643  15.182 -0.8757 -1.4028  2.2202
 8303TIP3    H246325   0.682   3.692  15.193 -0.8411 -0.5537 -0.3511
 8304TIP3   OH246326   4.307   4.027  16.002 -0.7309 -0.0219  0.3204
 8304TIP3    H146327   4.256   3.976  16.064 -0.7694  1.0646  1.2099
 8304TIP3    H246328   4.271   4.116  16.008  0.4814  0.5096  0.1016
 8305TIP3   OH246329   3.532   6.581  14.361  0.4267  0.1446 -0.5099
 8305TIP3    H146330   3.452   6.540  14.330 -0.8238  0.1160  2.3751
 8305TIP3    H246331   3.519   6.675  14.347  0.1177  0.0942 -0.5500
 8306TIP3   OH246332   6.326   5.521   2.079  0.1709 -0.0332  0.1380
 8306TIP3    H146333   6.260   5.458   2.051 -1.0687  1.2828 -0.0744
 8306TIP3    H246334   6.405   5.497   2.032 -0.7223 -0.4383 -1.2009
 8307TIP3   OH246335   4.894   4.428   1.124 -0.3724  0.5458  0.1398
 8307TIP3    H146336   4.963   4.362   1.122  0.1515  1.0878  0.1349
 8307TIP3    H246337   4.925   4.498   1.068 -1.2446  0.5012 -0.4227
 8308TIP3   OH246338   5.864   2.206  15.998  0.1585  0.0626  0.7224
 8308TIP3    H146339   5.916   2.189  16.076  0.6299 -0.4540  0.3108
 8308TIP3    H246340   5.925   2.249  15.938  0.6207 -2.0342 -0.3875
 8309TIP3   OH246341   4.658   1.843   4.290  0.3087  0.4423 -0.3516
 8309TIP3    H146342   4.686   1.922   4.337 -0.8611  1.0955 -0.7039
 8309TIP3    H246343   4.632   1.875   4.203 -2.7540  0.1584  0.3352
 8310TIP3   OH246344   4.943   6.050  12.885  0.4705 -0.1672 -0.1496
 8310TIP3    H146345   4.989   6.030  12.966 -1.4400 -1.2960  0.7268
 8310TIP3    H246346   4.888   6.125  12.907 -1.9683 -2.0237  0.4495
 8311TIP3   OH246347   2.267   1.864   2.528  0.0912  0.3619 -0.2270
 8311TIP3    H146348   2.255   1.777   2.489  2.8454 -1.0755  1.7740
 8311TIP3    H246349   2.194   1.874   2.588 -0.6032 -0.2782 -0.9399
 8312TIP3   OH246350   3.379   2.514   1.563  0.4233 -0.1951 -0.4336
 8312TIP3    H146351   3.467   2.478   1.573  0.7075  0.8741  1.1602
 8312TIP3    H246352   3.393   2.603   1.529 -0.0748 -0.2360 -0.7579
 8313TIP3   OH246353   3.879   0.636  15.123  0.0256  0.3850 -0.0006
 8313TIP3    H146354   3.841   0.548  15.117 -0.1344  0.5278 -1.6468
 8313TIP3    H246355   3.803   0.694  15.129  0.0988  0.4639  0.1609
 8314TIP3   OH246356   0.518   4.200   5.845  0.1045 -0.1274  0.3650
 8314TIP3    H146357   0.519   4.114   5.803  1.5873  0.9137 -1.9138
 8314TIP3    H246358   0.548   4.184   5.934 -0.3894 -2.0594  0.2233
 8315TIP3   OH246359   3.620   0.026   1.978 -0.5286  0.4714 -0.0748
 8315TIP3    H146360   3.694  -0.001   1.924 -0.7570 -2.1909  0.8009
 8315TIP3    H246361   3.583   0.101   1.932  1.2164  0.3418 -1.8381
 8316TIP3   OH246362   2.652   2.767   3.480  0.3586  0.4443 -0.3060
 8316TIP3    H146363   2.665   2.689   3.533  0.8530  0.2110 -0.7671
 8316TIP3    H246364   2.700   2.836   3.526  1.7700 -0.0114 -1.0418
 8317TIP3   OH246365   6.774   5.088   2.517  0.4407 -0.0227 -0.1935
 8317TIP3    H146366   6.814   5.001   2.513 -1.8536 -1.3769  2.7366
 8317TIP3    H246367   6.769   5.108   2.610 -0.1236  2.8108 -0.7465
 8318TIP3   OH246368   3.948   3.143   1.027  0.2963  0.2294 -0.1988
 8318TIP3    H146369   3.931   3.079   0.957 -0.2633  0.0312  0.1072
 8318TIP3    H246370   3.919   3.099   1.107  1.7881  0.0835  0.3064
 8319TIP3   OH246371   2.133   4.049   0.897  0.3332 -0.0046  0.1108
 8319TIP3    H146372   2.077   4.089   0.830 -1.0135  0.1154  1.2668
 8319TIP3    H246373   2.116   3.955   0.889  1.8816 -0.2202 -1.1740
 8320TIP3   OH246374   5.399   6.128   3.003  0.1886 -0.2433 -0.5259
 8320TIP3    H146375   5.304   6.143   3.008 -0.3162 -2.5501 -1.6935
 8320TIP3    H246376   5.434   6.207   2.962 -1.4195  0.1294 -1.2635
 8321TIP3   OH246377   0.503   2.558  12.184 -0.2251 -0.2151  0.2581
 8321TIP3    H146378   0.416   2.595  12.172 -0.4693 -1.1454 -0.9860
 8321TIP3    H246379   0.488   2.465  12.200  0.4994 -0.2081  1.0837
 8322TIP3   OH246380   1.931   4.066  14.008  0.7296 -0.5877  0.0805
 8322TIP3    H146381   1.861   4.088  14.069 -0.5578 -2.2860 -0.6801
 8322TIP3    H246382   2.009   4.109  14.043 -0.2005 -0.5643  2.2582
 8323TIP3   OH246383   2.425   2.714  14.889 -0.6881  0.2970 -0.0382
 8323TIP3    H146384   2.501   2.734  14.834 -0.3980 -1.7608 -0.4672
 8323TIP3    H246385   2.395   2.799  14.920  1.6912  1.1999  0.0278
 8324TIP3   OH246386   2.991   1.691  16.342 -0.1932  0.3086 -0.1968
 8324TIP3    H146387   3.032   1.685  16.256  1.4544 -0.4679  0.5937
 8324TIP3    H246388   2.902   1.658  16.329  0.0412  0.1661 -1.5800
 8325TIP3   OH246389   1.818   6.774  13.667  0.4027 -0.3170 -0.0623
 8325TIP3    H146390   1.889   6.726  13.625  1.1732 -0.8075  1.7129
 8325TIP3    H246391   1.745   6.711  13.669 -0.2251  0.2571 -2.0766
 8326TIP3   OH246392   1.589   0.672   2.047  0.2014 -0.1934 -0.3523
 8326TIP3    H146393   1.581   0.729   1.971  1.9113  0.0865 -0.3712
 8326TIP3    H246394   1.516   0.610   2.039 -0.2093  0.4243 -1.6796
 8327TIP3   OH246395   2.279   0.046  15.737 -0.3840  0.6340 -0.4871
 8327TIP3    H146396   2.298  -0.004  15.658 -0.0256 -2.2173  1.2403
 8327TIP3    H246397   2.242  -0.019  15.797 -1.4263  2.8497  1.4174
 8328TIP3   OH246398   0.976   2.130  12.714  0.1747  0.4734  0.3515
 8328TIP3    H146399   0.930   2.208  12.682 -0.2525  0.1146  0.0772
 8328TIP3    H246400   1.055   2.125  12.660  0.6703  1.2299  0.9864
 8329TIP3   OH246401   4.615   4.069   1.000 -0.0812 -0.7679  0.1965
 8329TIP3    H146402   4.569   3.995   1.040 -0.2538  0.2054  1.9346
 8329TIP3    H246403   4.702   4.067   1.038  0.2072 -0.6145 -0.4498
 8330TIP3   OH246404   0.823   0.781  13.174 -0.1570 -1.1608  0.6461
 8330TIP3    H146405   0.729   0.798  13.187 -0.0298 -0.5288  0.7679
 8330TIP3    H246406   0.858   0.772  13.262  0.2442  0.5968  0.7102
 8331TIP3   OH246407   2.654   0.843   5.480  0.3010 -0.2816 -0.8232
 8331TIP3    H146408   2.637   0.915   5.541  1.7936 -1.6078  1.3003
 8331TIP3    H246409   2.567   0.814   5.452 -0.4364  0.3920  0.6781
 8332TIP3   OH246410   1.853   5.392  11.527 -0.5181 -0.2936  0.0222
 8332TIP3    H146411   1.913   5.427  11.594  0.9911 -1.0729 -0.8783
 8332TIP3    H246412   1.877   5.439  11.447 -1.9551  0.2482 -0.1161
 8333TIP3   OH246413   4.161   4.643   5.798 -0.2992 -0.1148  0.0522
 8333TIP3    H146414   4.185   4.670   5.886  2.4794  0.6451 -0.8513
 8333TIP3    H246415   4.197   4.555   5.788 -1.2221 -0.4854 -0.1180
 8334TIP3   OH246416   1.491   5.247  11.691  0.2605 -0.0259 -0.1219
 8334TIP3    H146417   1.439   5.167  11.684  0.5391 -0.2552  0.3809
 8334TIP3    H246418   1.431   5.317  11.666  0.5395 -0.5448 -2.4200
 8335TIP3   OH246419   4.319   3.601  12.462  0.4791 -0.1845  0.0637
 8335TIP3    H146420   4.362   3.558  12.536 -0.9786 -1.3511  0.2863
 8335TIP3    H246421   4.374   3.580  12.387  1.1563 -0.2991  0.5854
 8336TIP3   OH246422   3.721   1.547  16.958 -0.2412  0.5557  0.2862
 8336TIP3    H146423   3.801   1.585  16.994 -0.8459  1.1572  1.0297
 8336TIP3    H246424   3.693   1.483  17.024  0.9109 -1.4453 -1.0695
 8337TIP3   OH246425   6.693   3.869   4.972  0.4673 -0.6067 -0.0783
 8337TIP3    H146426   6.621   3.925   4.943  0.5734 -1.3732 -1.9741
 8337TIP3    H246427   6.764   3.930   4.993  0.1791  0.0313 -0.8980
 8338TIP3   OH246428   0.348   6.639   1.942 -0.0549  0.1869  0.0519
 8338TIP3    H146429   0.267   6.675   1.907  0.5743  1.2058 -0.4180
 8338TIP3    H246430   0.341   6.545   1.927 -1.5641  0.1324  0.9395
 8339TIP3   OH246431   3.484   6.112  13.651 -0.1840 -0.5105 -0.0697
 8339TIP3    H146432   3.578   6.094  13.641 -0.0500 -0.2693  0.7172
 8339TIP3    H246433   3.442   6.026  13.641  0.1474 -0.6735 -0.0776
 8340TIP3   OH246434   1.698   0.511  11.607 -0.3527  0.1065  0.1469
 8340TIP3    H146435   1.651   0.575  11.659  1.0348  1.1224  0.2166
 8340TIP3    H246436   1.736   0.561  11.535 -0.8446 -0.9850 -0.9107
 8341TIP3   OH246437   5.790   4.738  14.487 -0.3636  0.4201 -0.5359
 8341TIP3    H146438   5.789   4.808  14.421 -0.6505  3.3592  2.3059
 8341TIP3    H246439   5.881   4.732  14.514 -0.7798  2.3335  1.6150
 8342TIP3   OH246440   2.816   1.660  15.933  0.2363  0.9121 -0.7913
 8342TIP3    H146441   2.737   1.615  15.962  0.5492 -0.3989 -1.8790
 8342TIP3    H246442   2.820   1.739  15.987 -0.6400 -0.0760  0.7862
 8343TIP3   OH246443   1.234   2.046  12.862 -0.0869 -0.3849  0.5752
 8343TIP3    H146444   1.235   2.116  12.927  0.3716 -0.2987  0.4783
 8343TIP3    H246445   1.222   2.091  12.778  2.3536 -0.1822  0.2545
 8344TIP3   OH246446   0.036   5.601   2.764 -0.2894 -0.3995 -0.3948
 8344TIP3    H146447  -0.033   5.537   2.783 -0.2862 -0.1236  0.5846
 8344TIP3    H246448   0.113   5.568   2.809 -0.8533  1.4292  2.0967
 8345TIP3   OH246449   5.680   6.398   2.076 -0.3443 -0.4528 -0.3243
 8345TIP3    H146450   5.595   6.369   2.109  0.3934  0.2234  2.4202
 8345TIP3    H246451   5.743   6.367   2.141  1.9429 -3.1453 -3.4905
 8346TIP3   OH246452   0.296   5.871  12.800 -0.4352  0.2748 -0.1373
 8346TIP3    H146453   0.223   5.838  12.852 -1.5826  0.5846 -1.4829
 8346TIP3    H246454   0.268   5.859  12.709  1.9125 -1.2272 -0.7674
 8347TIP3   OH246455   1.659   1.482   4.000  0.5604  0.0741 -0.0752
 8347TIP3    H146456   1.650   1.557   3.941  1.7073 -0.8749 -1.5302
 8347TIP3    H246457   1.691   1.519   4.082 -1.0446  1.4204 -0.0093
 8348TIP3   OH246458   0.672   3.230   0.842 -0.2822 -0.1029  0.4516
 8348TIP3    H146459   0.719   3.280   0.909 -0.8320  0.0679  0.7119
 8348TIP3    H246460   0.605   3.290   0.811  2.2114  1.2816 -2.9376
 8349TIP3   OH246461   6.155   2.116  10.871 -0.3688 -0.7621 -0.4814
 8349TIP3    H146462   6.088   2.136  10.937 -0.0027 -1.1186  0.0053
 8349TIP3    H246463   6.177   2.201  10.833 -1.2994 -0.6719 -0.8479
 8350TIP3   OH246464   6.708   0.433   1.780  0.1684  0.3735  0.4270
 8350TIP3    H146465   6.737   0.524   1.787  0.4403  0.2000  1.9565
 8350TIP3    H246466   6.782   0.383   1.815 -0.3327 -0.3589  0.4412
 8351TIP3   OH246467   4.698   5.692  13.127 -0.3096  0.0757  0.2475
 8351TIP3    H146468   4.761   5.751  13.170  1.0838 -1.0687 -0.1714
 8351TIP3    H246469   4.662   5.744  13.055 -1.9899  1.7139  2.1311
 8352TIP3   OH246470   6.690   1.978  16.277  0.3309 -0.2738 -0.2952
 8352TIP3    H146471   6.702   1.908  16.341  1.2531  0.8517  0.8347
 8352TIP3    H246472   6.615   2.028  16.310  1.8784  1.3527  1.0014
 8353TIP3   OH246473   4.980   6.671   1.643  0.6694  0.5274 -0.3748
 8353TIP3    H146474   4.902   6.631   1.681 -0.4708  0.2972 -2.7461
 8353TIP3    H246475   5.053   6.640   1.697 -0.7837  0.2083  1.4927
 8354TIP3   OH246476   0.829   4.153   5.942 -0.4468 -0.1722  0.0908
 8354TIP3    H146477   0.812   4.068   5.982 -0.2676 -0.4946 -0.5162
 8354TIP3    H246478   0.910   4.141   5.892  0.1800  0.6541  0.8833
 8355TIP3   OH246479   5.773   4.775  15.554 -0.3391  0.8421  0.1780
 8355TIP3    H146480   5.781   4.680  15.561  1.3171  1.0425  2.1165
 8355TIP3    H246481   5.854   4.803  15.513 -0.4776  1.4785  0.3286
 8356TIP3   OH246482   3.861   3.163  13.850 -0.3704  0.0064 -0.4324
 8356TIP3    H146483   3.848   3.149  13.756 -0.6308  0.1641 -0.4235
 8356TIP3    H246484   3.773   3.184  13.883 -0.6122 -1.7993  0.1691
 8357TIP3   OH246485   2.248   0.155  13.741 -0.0266 -0.4401 -0.1966
 8357TIP3    H146486   2.315   0.193  13.683  0.9549 -1.6587  0.0974
 8357TIP3    H246487   2.286   0.161  13.828 -0.8467 -0.0193  0.1431
 8358TIP3   OH246488   5.536   6.427  11.837 -0.4194 -0.0462  0.1514
 8358TIP3    H146489   5.450   6.385  11.828 -1.1398  1.4595 -0.2676
 8358TIP3    H246490   5.564   6.404  11.926 -2.3541  1.3581  1.2005
 8359TIP3   OH246491   6.722   5.918  11.303  0.1593  0.1151  0.1164
 8359TIP3    H146492   6.660   5.968  11.250  0.7868  0.9020  0.1080
 8359TIP3    H246493   6.671   5.887  11.378 -0.6323 -0.6326 -0.7006
 8360TIP3   OH246494   0.090   0.635   4.015  0.9783 -0.3844 -0.0037
 8360TIP3    H146495   0.117   0.681   4.094  0.6678  0.3165 -0.2989
 8360TIP3    H246496   0.127   0.547   4.025 -0.2139 -0.7514  1.5508
 8361TIP3   OH246497   2.902   6.175   5.821  0.4192  0.2062  0.3237
 8361TIP3    H146498   2.990   6.137   5.812  0.1122 -0.3033 -0.6590
 8361TIP3    H246499   2.860   6.120   5.887  1.0074  0.7945  1.2141
 8362TIP3   OH246500   4.459   6.523   1.365  0.3667 -0.4412 -0.3445
 8362TIP3    H146501   4.504   6.607   1.358  0.8149 -0.5208  1.2472
 8362TIP3    H246502   4.409   6.515   1.283  0.6377  1.1734 -0.6882
 8363TIP3   OH246503   3.341   0.420  15.544  0.0720 -0.4847  0.0577
 8363TIP3    H146504   3.372   0.477  15.473  3.3683 -1.7611  0.3289
 8363TIP3    H246505   3.322   0.337  15.501  1.5099 -1.0821  0.5233
 8364TIP3   OH246506   6.332   1.457   3.870 -0.6157  0.7663 -0.4754
 8364TIP3    H146507   6.376   1.372   3.868  0.1473  1.1563 -1.7308
 8364TIP3    H246508   6.311   1.472   3.962  1.1595  0.1808  0.0636
 8365TIP3   OH246509   5.570   5.470  16.508 -0.2700  0.4083  0.0207
 8365TIP3    H146510   5.636   5.534  16.531 -0.2832 -0.2273  1.9839
 8365TIP3    H246511   5.545   5.492  16.418 -0.1257  2.9886  0.5371
 8366TIP3   OH246512   4.679   0.867  15.531  0.0211  0.1999  0.3742
 8366TIP3    H146513   4.589   0.891  15.555  0.1105  0.6586  0.2565
 8366TIP3    H246514   4.669   0.797  15.467 -0.2377 -0.3986  1.0522
 8367TIP3   OH246515   6.419   5.958   5.035  0.0087 -0.5801 -0.4908
 8367TIP3    H146516   6.375   5.905   5.101 -1.9944  1.1788 -0.2881
 8367TIP3    H246517   6.347   5.993   4.981  1.2024  1.7882 -0.6625
 8368TIP3   OH246518   2.347   2.717  13.737  0.0354  0.2070 -0.6266
 8368TIP3    H146519   2.438   2.729  13.711 -0.0475  0.5095 -0.7831
 8368TIP3    H246520   2.348   2.722  13.833 -0.2773  3.7094 -0.6937
 8369TIP3   OH246521   2.330   3.517  14.669 -0.2787 -0.1567 -0.2023
 8369TIP3    H146522   2.351   3.474  14.586 -1.6387  0.3095 -0.8138
 8369TIP3    H246523   2.265   3.583  14.646  0.4989  1.0635  1.0029
 8370TIP3   OH246524   6.294   6.752  17.043  0.0044  0.5130  0.7823
 8370TIP3    H146525   6.295   6.664  17.081 -0.0469  0.5818  0.9438
 8370TIP3    H246526   6.205   6.784  17.060  0.5448  1.2932  2.3286
 8371TIP3   OH246527   6.605   2.195  11.223  0.3259  0.9073  0.3213
 8371TIP3    H146528   6.680   2.185  11.164 -0.8804  2.3354 -1.5952
 8371TIP3    H246529   6.543   2.128  11.194 -0.9539  2.6722 -1.2923
 8372TIP3   OH246530   3.045   4.553  17.068 -0.0389  0.3796  0.0253
 8372TIP3    H146531   2.981   4.512  17.126  0.5384 -1.2752 -0.4677
 8372TIP3    H246532   3.018   4.528  16.980  1.4340 -0.6247 -0.1757
 8373TIP3   OH246533   0.376   0.580  14.360  0.0628  0.3535  0.6577
 8373TIP3    H146534   0.361   0.673  14.346 -0.4483  0.3496  1.1092
 8373TIP3    H246535   0.291   0.546  14.389  0.2632 -0.2358  0.5846
 8374TIP3   OH246536   6.705   5.665   5.720 -0.4513  0.0887  0.0133
 8374TIP3    H146537   6.731   5.616   5.642  0.5455 -1.5665  1.3192
 8374TIP3    H246538   6.782   5.663   5.776 -1.4971  0.2859  1.5153
 8375TIP3   OH246539   4.915   0.103  13.294  0.1755  0.5959  0.3046
 8375TIP3    H146540   4.822   0.119  13.277  0.1920  0.5384  0.1526
 8375TIP3    H246541   4.926   0.009  13.282  0.2007  0.5636  0.5878
 8376TIP3   OH246542   2.087   1.262   2.345  0.3885 -0.1103 -0.0069
 8376TIP3    H146543   1.998   1.246   2.313  0.0567  1.4320  0.0763
 8376TIP3    H246544   2.143   1.244   2.270 -0.2663  2.0748 -1.0897
 8377TIP3   OH246545   5.080   3.988  10.008  0.1579  0.3519 -0.1428
 8377TIP3    H146546   5.023   3.965  10.081 -1.6485 -0.9491 -1.8737
 8377TIP3    H246547   5.164   4.012  10.049 -0.9017  0.0670  2.3312
 8378TIP3   OH246548   1.958   6.165  14.389 -0.6701 -0.0600  0.1138
 8378TIP3    H146549   2.027   6.191  14.328  0.0756 -0.1824  0.8818
 8378TIP3    H246550   1.917   6.248  14.415 -0.9234  0.0011 -0.4626
 8379TIP3   OH246551   1.578   4.319   0.951 -0.2295 -0.0567  0.4153
 8379TIP3    H146552   1.542   4.341   0.865  2.1977  3.0657  0.0352
 8379TIP3    H246553   1.509   4.341   1.013 -0.8043  0.8965 -0.5499
 8380TIP3   OH246554   5.957   5.349   3.192  0.4688  0.5496 -0.5491
 8380TIP3    H146555   6.044   5.389   3.194  0.2200  1.1001 -0.7254
 8380TIP3    H246556   5.920   5.374   3.108  0.0937  0.4055 -0.4312
 8381TIP3   OH246557   2.416   1.600   2.085 -0.0212 -0.3255 -0.1035
 8381TIP3    H146558   2.418   1.631   1.994 -0.8038 -0.2837 -0.1113
 8381TIP3    H246559   2.465   1.666   2.133 -0.5576  0.2455 -0.3262
 8382TIP3   OH246560   0.819   0.305   2.976 -0.3354 -0.3297 -0.3195
 8382TIP3    H146561   0.749   0.242   2.957 -0.3294 -0.4171 -0.0504
 8382TIP3    H246562   0.797   0.341   3.061 -1.1284  1.1112 -1.0947
 8383TIP3   OH246563   1.836   2.913   2.944 -0.2849 -0.6647  0.8392
 8383TIP3    H146564   1.843   2.838   3.003  0.5662  0.4648  2.2342
 8383TIP3    H246565   1.911   2.903   2.885  1.3547  0.3429  2.6069
 8384TIP3   OH246566   0.296   5.725  16.319  0.0100 -0.4243 -0.1118
 8384TIP3    H146567   0.274   5.702  16.228  0.3091  0.7894 -0.5100
 8384TIP3    H246568   0.357   5.798  16.311  0.3702 -0.5728  1.0724
 8385TIP3   OH246569   1.418   0.848   6.443 -0.6656  0.5337  0.3180
 8385TIP3    H146570   1.489   0.790   6.471  0.1810  0.9907 -0.8152
 8385TIP3    H246571   1.411   0.834   6.349 -1.1464  1.5175  0.1926
 8386TIP3   OH246572   0.114   4.245  16.795  0.0807 -0.2319  0.3980
 8386TIP3    H146573   0.146   4.206  16.713  0.5836  0.1291  0.4143
 8386TIP3    H246574   0.081   4.170  16.846  0.0175 -0.4923 -0.0193
 8387TIP3   OH246575   2.732   0.268   4.766 -0.0937  0.2060 -0.3648
 8387TIP3    H146576   2.672   0.232   4.701 -1.2339 -0.5165  1.0119
 8387TIP3    H246577   2.816   0.276   4.721 -0.8749 -0.1308 -1.9329
 8388TIP3   OH246578   6.347   0.095   2.659  0.6096  0.1061 -0.2362
 8388TIP3    H146579   6.297   0.018   2.687 -1.1025  0.3312 -2.4906
 8388TIP3    H246580   6.439   0.067   2.667  0.0566 -1.7239  0.1938
 8389TIP3   OH246581   6.231   0.129  16.767 -0.1757  0.4936  0.5629
 8389TIP3    H146582   6.321   0.146  16.740  0.0682 -1.9718 -0.4729
 8389TIP3    H246583   6.234   0.131  16.863  0.7482  1.4369  0.5255
 8390TIP3   OH246584   4.551   6.011   2.323  0.4773  0.8682 -0.4685
 8390TIP3    H146585   4.506   6.090   2.294  1.1756  1.2751 -0.4590
 8390TIP3    H246586   4.643   6.038   2.333  0.6707  0.1262 -0.2114
 8391TIP3   OH246587   1.015   2.159   5.343 -0.0747  0.0202  0.2272
 8391TIP3    H146588   0.979   2.246   5.360 -2.4043 -0.3009 -2.3100
 8391TIP3    H246589   1.001   2.146   5.249  0.4849 -2.9647  0.4768
 8392TIP3   OH246590   5.554   2.470   5.097  0.1615 -0.7108  0.0478
 8392TIP3    H146591   5.581   2.389   5.141  2.9110  0.4468  0.7038
 8392TIP3    H246592   5.624   2.487   5.033 -0.9875  0.5288 -0.9433
 8393TIP3   OH246593   2.399   4.222   1.410 -0.6708  0.3198  0.2366
 8393TIP3    H146594   2.417   4.251   1.500  0.5102 -1.7273  0.7291
 8393TIP3    H246595   2.378   4.129   1.419  0.9236 -0.2906 -1.7327
 8394TIP3   OH246596   5.518   1.482   2.845 -0.4421 -0.2838  0.1717
 8394TIP3    H146597   5.509   1.549   2.913  0.2421 -2.3400  2.4322
 8394TIP3    H246598   5.612   1.466   2.840 -0.6561 -1.8167  0.5117
 8395TIP3   OH246599   4.827   2.659  16.787  0.1568 -0.6246  0.1219
 8395TIP3    H146600   4.849   2.745  16.820 -0.1032 -1.6344  3.1972
 8395TIP3    H246601   4.910   2.612  16.785  0.0311 -0.8485  0.1447
 8396TIP3   OH246602   5.591   2.735  10.476 -0.7619 -0.3841 -0.0504
 8396TIP3    H146603   5.684   2.754  10.486 -0.7484 -1.5199  3.1110
 8396TIP3    H246604   5.551   2.819  10.454  0.8031  0.4605  0.2196
 8397TIP3   OH246605   6.186   1.493  14.318 -0.4322  0.5125  0.0390
 8397TIP3    H146606   6.112   1.551  14.299  0.5014  2.1477  1.2198
 8397TIP3    H246607   6.162   1.450  14.400 -0.7161 -0.1302 -0.3668
 8398TIP3   OH246608   1.389   5.890  14.579  0.4399  0.0066  0.0505
 8398TIP3    H146609   1.358   5.945  14.506  1.1701  0.6861  0.2363
 8398TIP3    H246610   1.461   5.940  14.618  0.0974 -0.3764  1.2130
 8399TIP3   OH246611   3.477   4.833   4.066  0.6862  0.1683 -0.1335
 8399TIP3    H146612   3.503   4.907   4.120  0.7741 -0.2869  0.4680
 8399TIP3    H246613   3.442   4.871   3.986 -1.4998  0.9302  1.1204
 8400TIP3   OH246614   0.045   0.646   0.803  0.0389  0.4491 -0.2487
 8400TIP3    H146615   0.093   0.708   0.857  0.0747  0.5695 -0.4162
 8400TIP3    H246616   0.005   0.701   0.735 -0.1127  0.3160 -0.2652
 8401TIP3   OH246617   1.430   3.847  13.378  0.0452 -0.3968 -0.0048
 8401TIP3    H146618   1.516   3.823  13.344 -0.5325 -1.5653 -0.6893
 8401TIP3    H246619   1.368   3.812  13.314 -0.9252  1.3193 -0.0599
 8402TIP3   OH246620   6.704   2.466  12.087  0.5870  0.3572 -0.2655
 8402TIP3    H146621   6.762   2.531  12.126 -0.7034  0.8015  1.0031
 8402TIP3    H246622   6.617   2.487  12.123 -0.1256 -1.1159 -1.0421
 8403TIP3   OH246623   0.276   0.734   0.324  0.3350  0.0952 -0.0577
 8403TIP3    H146624   0.190   0.774   0.313  0.9533  1.3334 -0.5305
 8403TIP3    H246625   0.298   0.750   0.416 -0.8213 -2.1107  0.6840
 8404TIP3   OH246626   6.255   4.707  12.273 -0.4696 -0.2637  0.1502
 8404TIP3    H146627   6.160   4.699  12.277 -0.4007 -0.6266  1.0758
 8404TIP3    H246628   6.285   4.693  12.362  0.3310  1.4856  0.2062
 8405TIP3   OH246629   4.122   0.057  13.482  0.1676  0.0572  0.6643
 8405TIP3    H146630   4.208   0.017  13.466 -0.5076 -1.6570  1.0882
 8405TIP3    H246631   4.091   0.082  13.395  2.5429  4.1417  0.7029
 8406TIP3   OH246632   0.703   0.125  11.649 -0.0646 -0.5615  0.4293
 8406TIP3    H146633   0.757   0.204  11.642  0.7758 -1.0667  1.0251
 8406TIP3    H246634   0.662   0.116  11.563 -2.0694  1.8310  1.0051
 8407TIP3   OH246635   0.352   0.334  12.206 -0.2126 -0.0959 -0.0681
 8407TIP3    H146636   0.273   0.371  12.167  0.0176 -0.5882 -1.0500
 8407TIP3    H246637   0.336   0.239  12.209  0.3009 -0.1934 -0.2133
 8408TIP3   OH246638   2.220   3.511   0.797 -0.0597 -0.3349  0.0027
 8408TIP3    H146639   2.222   3.584   0.736 -0.5084  0.0822  0.4856
 8408TIP3    H246640   2.251   3.436   0.745 -2.5392 -0.4869 -1.4248
 8409TIP3   OH246641   6.797   6.792   2.110  0.3561 -0.0678  0.5527
 8409TIP3    H146642   6.769   6.729   2.043 -1.9377  1.3825  0.0285
 8409TIP3    H246643   6.797   6.742   2.191  2.9346 -1.8084 -0.3897
 8410TIP3   OH246644   6.451   5.583  12.463 -0.1439  0.3885 -0.0792
 8410TIP3    H146645   6.515   5.519  12.434 -2.1380 -1.1741 -1.3138
 8410TIP3    H246646   6.489   5.668  12.440  1.0714 -0.5277 -1.6368
 8411TIP3   OH246647   4.672   6.588   5.351  0.5281 -0.4613 -0.0351
 8411TIP3    H146648   4.589   6.541   5.351  0.1216  0.2063 -1.5156
 8411TIP3    H246649   4.648   6.680   5.342  1.3847 -0.0938  1.0960
 8412TIP3   OH246650   0.511   6.516   3.558  0.3826 -0.2228  0.0967
 8412TIP3    H146651   0.536   6.596   3.511 -0.3890 -0.7510 -1.2637
 8412TIP3    H246652   0.501   6.544   3.649 -0.6135  1.4217 -0.4768
 8413TIP3   OH246653   4.823   5.129  11.002 -0.6305 -0.5701  0.1847
 8413TIP3    H146654   4.760   5.199  11.015 -0.4087  0.6056 -3.7677
 8413TIP3    H246655   4.770   5.049  11.006 -2.0919  0.2675 -1.2300
 8414TIP3   OH246656   0.934   2.279  16.262  0.0565 -0.3904  0.2990
 8414TIP3    H146657   0.843   2.298  16.285  0.8961  1.6340  2.3236
 8414TIP3    H246658   0.967   2.226  16.335  0.4346 -1.4246 -0.5930
 8415TIP3   OH246659   5.277   0.918  16.019 -0.1339 -0.1249  0.1490
 8415TIP3    H146660   5.366   0.912  16.054 -0.3121  0.0215  0.6246
 8415TIP3    H246661   5.225   0.862  16.076 -0.7379  1.3853  1.1322
 8416TIP3   OH246662   2.944   0.756   2.950 -0.7133  0.6331 -0.8879
 8416TIP3    H146663   2.885   0.794   3.015 -0.7952 -2.1437  0.8670
 8416TIP3    H246664   3.031   0.771   2.986 -0.7960 -1.8679  0.6367
 8417TIP3   OH246665   3.439   3.107  16.548 -0.0202 -0.0226  1.3626
 8417TIP3    H146666   3.534   3.101  16.533  0.2259 -0.0093  2.7677
 8417TIP3    H246667   3.429   3.184  16.603 -0.9933  0.6614  0.2598
 8418TIP3   OH246668   6.358   4.111   3.674 -0.0053 -1.2328 -0.8226
 8418TIP3    H146669   6.388   4.197   3.646 -0.3963 -0.9276 -0.3153
 8418TIP3    H246670   6.380   4.053   3.601  1.2607 -0.9140 -0.7174
 8419TIP3   OH246671   5.986   5.470  15.525 -0.6699  0.1422  0.2284
 8419TIP3    H146672   6.019   5.393  15.570  0.0926  0.8278  0.8910
 8419TIP3    H246673   6.019   5.462  15.436  0.7094  0.4261  0.6812
 8420TIP3   OH246674   5.396   6.319   5.074 -0.5296 -0.3569 -0.0941
 8420TIP3    H146675   5.450   6.245   5.102 -1.1281 -1.1249 -0.8926
 8420TIP3    H246676   5.446   6.396   5.098 -0.2133 -0.9994  1.4424
 8421TIP3   OH246677   4.877   5.327   2.938 -0.9247 -0.4659  0.6227
 8421TIP3    H146678   4.828   5.316   2.856 -0.2965  0.2457  0.1442
 8421TIP3    H246679   4.967   5.304   2.916 -0.5041  0.9409  0.7791
 8422TIP3   OH246680   0.677   6.491  16.073  0.2713 -0.3166 -0.7617
 8422TIP3    H146681   0.673   6.397  16.053 -1.1375 -0.4629  0.0814
 8422TIP3    H246682   0.701   6.494  16.166 -0.7877  0.0998 -0.4840
 8423TIP3   OH246683   2.371   6.783   6.900 -0.2320  0.0223 -0.5405
 8423TIP3    H146684   2.427   6.705   6.899  1.2758  1.0762 -0.0480
 8423TIP3    H246685   2.422   6.850   6.945 -2.0683  0.9105  0.3365
 8424TIP3   OH246686   0.688   3.346  11.418  0.4063 -0.0518  0.2640
 8424TIP3    H146687   0.753   3.289  11.376 -0.3510 -0.1196 -0.8745
 8424TIP3    H246688   0.616   3.287  11.441  0.5811  0.0833  1.1881
 8425TIP3   OH246689   3.134   6.481  11.074 -0.4394 -0.1456 -0.1390
 8425TIP3    H146690   3.131   6.423  11.150 -0.6284 -0.2259 -0.2077
 8425TIP3    H246691   3.215   6.458  11.029  0.0295  0.3744  0.4132
 8426TIP3   OH246692   0.663   2.751   5.613  0.2801 -0.0121 -0.6868
 8426TIP3    H146693   0.697   2.713   5.532 -1.4840 -0.2053 -1.3860
 8426TIP3    H246694   0.568   2.757   5.599  0.1173  1.4934  0.7382
 8427TIP3   OH246695   3.561   3.429  14.243 -0.1834  0.7069  0.3904
 8427TIP3    H146696   3.501   3.410  14.171 -2.7433 -1.3986  2.8192
 8427TIP3    H246697   3.627   3.360  14.238 -0.5640  0.3462  0.2187
 8428TIP3   OH246698   0.832   6.199  10.725 -0.0750  0.1688  0.1969
 8428TIP3    H146699   0.888   6.259  10.677 -2.1261  1.5203 -0.6153
 8428TIP3    H246700   0.892   6.130  10.755  2.2773  2.2340  0.6609
 8429TIP3   OH246701   3.774   5.519  12.579 -0.1241  0.2135  0.1420
 8429TIP3    H146702   3.778   5.469  12.660  0.4315  0.2792  0.1587
 8429TIP3    H246703   3.739   5.458  12.514  0.4879 -0.1833  0.1767
 8430TIP3   OH246704   0.367   2.802   5.532  0.0567  0.0473  0.2765
 8430TIP3    H146705   0.428   2.876   5.537  0.8841 -0.6090  0.1543
 8430TIP3    H246706   0.311   2.823   5.458 -1.2175  1.6406  1.6225
 8431TIP3   OH246707   5.884   5.041   1.412  0.6036  0.2926  0.2966
 8431TIP3    H146708   5.887   4.945   1.402  2.0060  0.0800  2.2002
 8431TIP3    H246709   5.938   5.058   1.489 -0.2486  2.5810  0.4407
 8432TIP3   OH246710   6.284   2.222   4.151 -0.4805 -0.3719 -0.0288
 8432TIP3    H146711   6.224   2.174   4.094 -0.3333 -0.9217  0.2734
 8432TIP3    H246712   6.227   2.262   4.217 -0.3893 -2.7942  1.6648
 8433TIP3   OH246713   6.334   3.429   2.224  0.3284 -0.4784 -0.8731
 8433TIP3    H146714   6.394   3.442   2.151  0.5657  1.3578 -0.4002
 8433TIP3    H246715   6.247   3.431   2.184  0.5018 -1.5853 -1.3500
 8434TIP3   OH246716   3.936   3.631  15.082 -0.1519 -0.0543 -0.2612
 8434TIP3    H146717   3.898   3.706  15.036 -2.7679 -1.4008 -0.4816
 8434TIP3    H246718   3.953   3.566  15.013 -2.0150 -1.2464  0.3381
 8435TIP3   OH246719   4.230   6.769   3.685  0.6312 -0.5731  0.0270
 8435TIP3    H146720   4.251   6.807   3.771  1.4323 -1.7441  0.3709
 8435TIP3    H246721   4.315   6.747   3.647  0.4219  1.5190 -1.8637
 8436TIP3   OH246722   5.230   5.486  15.321 -0.0009 -0.1102  0.0061
 8436TIP3    H146723   5.224   5.450  15.232  0.7128 -0.2027 -0.0136
 8436TIP3    H246724   5.204   5.414  15.378  0.6645 -0.4226 -0.0739
 8437TIP3   OH246725   4.119   6.357  15.407 -0.1085  0.2901  0.6632
 8437TIP3    H146726   4.175   6.279  15.418 -1.9588 -1.4087 -1.1259
 8437TIP3    H246727   4.168   6.413  15.346  0.7311 -0.0020  1.0536
 8438TIP3   OH246728   3.424   6.190   1.820 -0.1464  0.6794  0.5329
 8438TIP3    H146729   3.391   6.118   1.766  2.7032  0.7955 -1.5978
 8438TIP3    H246730   3.437   6.151   1.906  0.6546 -1.1970 -0.3754
 8439TIP3   OH246731   0.701   4.175   2.668  0.0563  0.0442  0.2289
 8439TIP3    H146732   0.616   4.218   2.657  0.3184  0.6043  0.3899
 8439TIP3    H246733   0.729   4.154   2.579  0.7761  1.8629 -0.0018
 8440TIP3   OH246734   3.668   3.518  14.556  0.3895 -0.0014  0.6396
 8440TIP3    H146735   3.665   3.586  14.623  1.2364  0.1625  0.5209
 8440TIP3    H246736   3.713   3.559  14.482 -1.2420  0.0839 -0.3532
 8441TIP3   OH246737   1.226   5.005   5.325 -0.3260 -0.0146 -0.6256
 8441TIP3    H146738   1.236   4.985   5.418 -2.4446  1.5203  0.0119
 8441TIP3    H246739   1.203   4.920   5.285 -0.7700 -0.4437  0.4983
 8442TIP3   OH246740   2.608   5.988  12.249 -0.2618 -0.1178  0.0242
 8442TIP3    H146741   2.554   6.060  12.218  0.5297  0.4211 -0.1224
 8442TIP3    H246742   2.695   6.006  12.214 -0.0139 -1.0497  0.1323
 8443TIP3   OH246743   2.694   4.430  15.131  0.3065  0.0721  0.3370
 8443TIP3    H146744   2.676   4.474  15.214 -0.9453 -0.7397  0.5172
 8443TIP3    H246745   2.661   4.341  15.143 -0.3074  0.0697 -1.1856
 8444TIP3   OH246746   2.090   0.884   3.873  0.2679  0.5147 -0.2858
 8444TIP3    H146747   2.094   0.818   3.943 -1.8540 -0.3903 -0.9346
 8444TIP3    H246748   2.092   0.833   3.792 -1.6751  1.1754 -0.8014
 8445TIP3   OH246749   4.108   4.744  13.454  0.4206 -0.6682 -0.9453
 8445TIP3    H146750   4.181   4.804  13.467  0.4139 -0.5551 -1.4158
 8445TIP3    H246751   4.148   4.657  13.454  0.5207 -0.6223 -0.9407
 8446TIP3   OH246752   3.203   1.696  12.207 -0.0010 -0.9469  0.4803
 8446TIP3    H146753   3.291   1.707  12.170  0.5566  1.3513  2.2460
 8446TIP3    H246754   3.211   1.625  12.270  0.5828 -0.8264  0.5438
 8447TIP3   OH246755   2.591   2.783   0.435 -0.1669  0.1233 -0.2487
 8447TIP3    H146756   2.570   2.760   0.526  0.7585  0.6518  0.1077
 8447TIP3    H246757   2.591   2.878   0.434  0.5904  0.1243 -0.6120
 8448TIP3   OH246758   1.936   5.341   5.618 -0.1543 -0.3726  0.0930
 8448TIP3    H146759   1.974   5.261   5.653 -1.3371 -0.4476  1.2601
 8448TIP3    H246760   1.845   5.318   5.600 -0.6043  0.8143  0.8000
 8449TIP3   OH246761   4.129   1.779  14.900 -0.5505  0.1150  0.5360
 8449TIP3    H146762   4.162   1.783  14.990  2.0587 -1.5328 -0.2432
 8449TIP3    H246763   4.191   1.831  14.849 -0.6047 -0.9279 -0.6417
 8450TIP3   OH246764   2.674   6.443  12.040  0.0248  0.1974 -0.2360
 8450TIP3    H146765   2.726   6.429  12.119 -0.5607 -0.0460  0.1220
 8450TIP3    H246766   2.737   6.442  11.968  0.5080 -0.0595  0.1856
 8451TIP3   OH246767   4.692   0.018   1.696  0.1221 -0.2139 -0.8937
 8451TIP3    H146768   4.622   0.007   1.632  1.1094  1.0613 -2.2896
 8451TIP3    H246769   4.759   0.068   1.649  2.0347 -1.5146  0.3296
 8452TIP3   OH246770   1.033   2.618   2.267  0.0956  0.7762  0.2264
 8452TIP3    H146771   1.084   2.555   2.216  0.3130  0.2971  1.0095
 8452TIP3    H246772   1.003   2.682   2.203 -0.8299 -0.5686 -0.7312
 8453TIP3   OH246773   1.270   3.582  13.737 -0.0426 -0.4853  0.1955
 8453TIP3    H146774   1.283   3.650  13.804  0.2614 -0.3607  0.0082
 8453TIP3    H246775   1.175   3.573  13.732 -0.0951  0.0714  0.0817
 8454TIP3   OH246776   3.945   5.524  16.415 -0.5665  0.8662  0.1249
 8454TIP3    H146777   3.902   5.591  16.468 -3.0332  0.2071 -0.8756
 8454TIP3    H246778   3.880   5.500  16.349  0.3546 -2.1558  0.1355
 8455TIP3   OH246779   0.272   3.527  11.790 -0.5771 -0.4152  0.2548
 8455TIP3    H146780   0.270   3.488  11.877  3.1568 -0.1979  0.5972
 8455TIP3    H246781   0.242   3.457  11.731 -0.2427 -1.5712  1.4336
 8456TIP3   OH246782   6.349   1.708   1.756  0.1912  0.1886  0.2749
 8456TIP3    H146783   6.256   1.690   1.764  0.0727 -0.9148 -2.6252
 8456TIP3    H246784   6.357   1.761   1.677  2.1017 -0.5260 -0.0655
 8457TIP3   OH246785   5.997   0.036   0.761  0.1560  0.1038 -0.4590
 8457TIP3    H146786   5.934   0.008   0.695 -1.5080 -0.9230  1.4337
 8457TIP3    H246787   6.039  -0.045   0.791 -0.2173  0.3265  0.7497
 8458TIP3   OH246788   0.646   5.128   3.359  0.2385  0.5464 -0.6551
 8458TIP3    H146789   0.723   5.171   3.323 -0.9595  1.5371 -2.1923
 8458TIP3    H246790   0.677   5.042   3.388  2.4173  1.8481  1.2009
 8459TIP3   OH246791   0.979   1.624  15.663  0.2115 -0.5249  0.3975
 8459TIP3    H146792   0.963   1.604  15.571  0.2831 -0.6592  0.4140
 8459TIP3    H246793   0.930   1.558  15.711  0.8973 -1.0136  0.4487
 8460TIP3   OH246794   5.030   1.707   4.940  0.6386 -0.3749  0.0534
 8460TIP3    H146795   5.068   1.724   5.027  0.9000 -0.5159 -0.0346
 8460TIP3    H246796   4.957   1.648   4.957  0.7497 -0.4794  0.1658
 8461TIP3   OH246797   4.719   5.101  13.136 -0.6574 -0.1944  0.5536
 8461TIP3    H146798   4.770   5.175  13.169 -1.6306  1.6185 -1.7737
 8461TIP3    H246799   4.630   5.118  13.169 -1.3378  0.9007 -1.6385
 8462TIP3   OH246800   1.945   3.584   1.177  0.3254  0.2203 -0.3961
 8462TIP3    H146801   1.957   3.604   1.270 -1.9764  3.2015 -0.6023
 8462TIP3    H246802   2.032   3.596   1.139  0.7983  1.5247  0.9924
 8463TIP3   OH246803   6.219   5.720  11.434  0.0210  0.0348  0.2100
 8463TIP3    H146804   6.182   5.671  11.360 -1.2843  0.0000  0.8549
 8463TIP3    H246805   6.204   5.663  11.510 -1.5717  1.3871  0.9837
 8464TIP3   OH246806   4.923   6.233   2.529  0.2563  0.5525 -0.1191
 8464TIP3    H146807   4.904   6.300   2.595  0.3698  0.6040 -0.1390
 8464TIP3    H246808   4.876   6.262   2.451  0.9694  1.0430 -0.3777
 8465TIP3   OH246809   1.427   2.236  15.389 -0.5926 -0.2140  0.3111
 8465TIP3    H146810   1.349   2.208  15.340 -0.9620 -1.1980  1.4123
 8465TIP3    H246811   1.398   2.315  15.436 -0.2170  0.7756 -1.0346
 8466TIP3   OH246812   1.947   4.758  15.320 -0.5670 -0.0574  0.2776
 8466TIP3    H146813   2.005   4.772  15.395  0.2992 -1.1420 -0.1518
 8466TIP3    H246814   1.904   4.842  15.306  1.8916  1.2056 -0.1891
 8467TIP3   OH246815   1.867   5.058  15.592  0.9382 -0.2787 -0.3180
 8467TIP3    H146816   1.937   5.102  15.641 -0.5789 -0.6270  2.3757
 8467TIP3    H246817   1.786   5.093  15.630 -0.3318 -2.0504 -1.2436
 8468TIP3   OH246818   2.030   1.806  12.128  1.0523  0.4286  0.2383
 8468TIP3    H146819   2.004   1.876  12.069  1.6672  0.8360  0.4462
 8468TIP3    H246820   2.021   1.844  12.216 -0.4855 -0.3669  0.4770
 8469TIP3   OH246821   3.105   2.124   4.510 -0.4000 -0.6377  0.0380
 8469TIP3    H146822   3.169   2.054   4.504 -0.3581 -0.5086 -1.9180
 8469TIP3    H246823   3.022   2.080   4.530 -0.1324 -1.0810  0.1710
 8470TIP3   OH246824   0.904   3.262   2.302  1.2338  0.0441 -0.7256
 8470TIP3    H146825   0.863   3.177   2.321 -0.1397  1.1369  1.6090
 8470TIP3    H246826   0.899   3.270   2.206 -0.3553 -1.6631 -0.8442
 8471TIP3   OH246827   2.138   0.736   6.344 -0.3716 -0.4320 -0.0729
 8471TIP3    H146828   2.141   0.740   6.249 -2.0017  0.3243 -0.1165
 8471TIP3    H246829   2.144   0.643   6.365 -2.9036 -0.8839 -1.0735
 8472TIP3   OH246830   1.974   6.434   1.304  0.3671 -0.1312  0.4643
 8472TIP3    H146831   1.937   6.523   1.309 -1.9533 -1.1006  2.5514
 8472TIP3    H246832   1.919   6.390   1.239  2.3623  0.2307 -1.5822
 8473TIP3   OH246833   2.558   0.102  16.643  0.0047 -0.2478 -0.7360
 8473TIP3    H146834   2.643   0.064  16.624 -0.6316 -2.5518  0.5576
 8473TIP3    H246835   2.564   0.129  16.735 -0.3667  0.4688 -0.9170
 8474TIP3   OH246836   1.419   6.335  12.576  0.1240  0.0724 -0.1740
 8474TIP3    H146837   1.498   6.389  12.580 -0.0973  0.3836  0.0628
 8474TIP3    H246838   1.445   6.259  12.524  0.4963  0.3105 -0.3437
 8475TIP3   OH246839   3.517   4.809   4.952  0.2944 -0.2373  0.0724
 8475TIP3    H146840   3.600   4.809   5.000  0.9331  0.6282 -1.0034
 8475TIP3    H246841   3.533   4.752   4.876 -0.6626 -1.4781  0.7573
 8476TIP3   OH246842   3.388   3.103   3.268  0.2821 -0.2161  0.0599
 8476TIP3    H146843   3.300   3.068   3.254  0.0407 -0.0694  1.0917
 8476TIP3    H246844   3.399   3.102   3.363  0.7602  1.3203  0.0431
 8477TIP3   OH246845   5.496   6.374   4.070 -0.4708  1.0321 -0.0704
 8477TIP3    H146846   5.413   6.421   4.057 -1.8844 -1.5717 -1.1686
 8477TIP3    H246847   5.562   6.443   4.075 -2.2540  3.1260 -2.6718
 8478TIP3   OH246848   2.431   3.449   3.627 -0.2650 -0.2539  0.1754
 8478TIP3    H146849   2.365   3.390   3.591 -0.2535  0.0715 -0.3927
 8478TIP3    H246850   2.410   3.534   3.589  0.7835 -0.2464 -0.4426
 8479TIP3   OH246851   4.383   3.763   0.035 -0.2771  0.1751  0.1454
 8479TIP3    H146852   4.310   3.822   0.054  0.2839  0.1286  2.8957
 8479TIP3    H246853   4.456   3.821   0.012 -0.5256  0.3720 -0.1450
 8480TIP3   OH246854   2.815   5.316  16.712 -0.2405  0.2308  0.0050
 8480TIP3    H146855   2.853   5.272  16.788 -1.7151  1.4739  1.5697
 8480TIP3    H246856   2.881   5.379  16.685  0.0167  0.3024  0.7668
 8481TIP3   OH246857   0.723   1.948  14.415 -0.1654  0.2045 -0.1649
 8481TIP3    H146858   0.666   1.985  14.349  0.4478 -1.2897 -1.6115
 8481TIP3    H246859   0.678   1.869  14.444 -0.4339  0.8473  1.2615
 8482TIP3   OH246860   6.055   3.199   2.443  0.1576 -0.7253 -0.3238
 8482TIP3    H146861   6.073   3.271   2.503  0.5740  0.0200 -1.3110
 8482TIP3    H246862   6.140   3.178   2.404 -0.0364 -1.4681 -0.3656
 8483TIP3   OH246863   2.095   3.460  15.552  0.0979 -0.4861  0.4343
 8483TIP3    H146864   2.083   3.496  15.640 -2.4676  1.5116 -0.5795
 8483TIP3    H246865   2.134   3.532  15.502 -0.5322 -0.8087 -0.5496
 8484TIP3   OH246866   4.778   3.551  11.193  0.2707  0.4204 -0.4243
 8484TIP3    H146867   4.862   3.597  11.190  0.4872 -0.0512 -2.1972
 8484TIP3    H246868   4.724   3.606  11.250  1.8399  0.5738  1.0230
 8485TIP3   OH246869   0.636   1.996   2.220  0.2614  0.0903  0.1498
 8485TIP3    H146870   0.543   1.973   2.220  0.4097 -0.7149  2.2870
 8485TIP3    H246871   0.637   2.092   2.224 -0.4338  0.1579 -0.8742
 8486TIP3   OH246872   0.349   0.253  12.766  0.5356 -0.0648  0.1258
 8486TIP3    H146873   0.419   0.187  12.768  1.4088  0.8588  0.5492
 8486TIP3    H246874   0.372   0.314  12.835 -1.6447 -0.6816  1.4750
 8487TIP3   OH246875   3.670   5.078  15.046  0.3171 -0.6265 -0.2283
 8487TIP3    H146876   3.749   5.028  15.069  1.5236  1.2115 -0.1279
 8487TIP3    H246877   3.652   5.132  15.123 -1.3956 -1.3924 -0.0531
 8488TIP3   OH246878   1.683   5.231  13.525 -0.0436 -0.2166  0.1779
 8488TIP3    H146879   1.597   5.190  13.515 -0.4916  0.7217  0.0434
 8488TIP3    H246880   1.706   5.261  13.437  1.9568 -3.3250 -0.4937
 8489TIP3   OH246881   4.308   6.394  11.074 -0.1759 -0.5406  0.3824
 8489TIP3    H146882   4.390   6.441  11.057  0.5235 -1.6959  0.5095
 8489TIP3    H246883   4.283   6.356  10.990 -1.5030  1.1784 -0.0587
 8490TIP3   OH246884   5.736   2.187  15.049 -0.0969  0.5082 -0.0979
 8490TIP3    H146885   5.713   2.197  14.957  0.0282  0.1566 -0.1685
 8490TIP3    H246886   5.768   2.273  15.075 -2.2513  1.2855  0.2218
 8491TIP3   OH246887   6.753   5.047   1.484 -0.5076 -0.2372 -0.1332
 8491TIP3    H146888   6.816   4.997   1.536 -1.4115  0.0920  1.3406
 8491TIP3    H246889   6.805   5.113   1.439  0.3923 -1.0045 -0.2562
 8492TIP3   OH246890   4.691   2.655  11.107 -0.7056  0.2840  0.0496
 8492TIP3    H146891   4.620   2.643  11.169 -1.4120  0.6869 -0.6532
 8492TIP3    H246892   4.654   2.712  11.039  0.1356  0.1073 -0.5775
 8493TIP3   OH246893   1.980   1.707  13.278 -0.3512 -0.1896 -0.0981
 8493TIP3    H146894   1.960   1.757  13.357 -0.5356 -1.2676  0.5575
 8493TIP3    H246895   2.039   1.763  13.228  1.0398 -0.1240  1.5462
 8494TIP3   OH246896   4.540   3.469  11.831  0.3983  0.3848 -0.2979
 8494TIP3    H146897   4.615   3.522  11.859  2.0846 -1.9168 -0.1416
 8494TIP3    H246898   4.537   3.397  11.895 -1.5183  0.0295 -0.7358
 8495TIP3   OH246899   5.275   4.621   2.620  0.2371 -0.2523  0.2207
 8495TIP3    H146900   5.348   4.649   2.565  1.6040 -1.0062  1.6039
 8495TIP3    H246901   5.254   4.698   2.673 -2.4716  1.2134 -2.5900
 8496TIP3   OH246902   1.500   4.807   5.120 -0.0202 -0.7025 -0.2193
 8496TIP3    H146903   1.450   4.727   5.101 -2.1416  0.3193  0.7073
 8496TIP3    H246904   1.580   4.775   5.162  0.6472 -2.4550 -2.6413
 8497TIP3   OH246905   5.036   2.324   5.856 -0.1555  0.2055  0.6252
 8497TIP3    H146906   5.093   2.393   5.822 -1.3198  1.6848  1.5932
 8497TIP3    H246907   5.032   2.340   5.950 -0.0590 -1.5114  0.9547
 8498TIP3   OH246908   2.682   3.245  16.423  0.0977  0.2239 -0.1877
 8498TIP3    H146909   2.709   3.291  16.503 -0.8948  0.6765 -0.0989
 8498TIP3    H246910   2.652   3.159  16.453  2.0027 -0.5546 -0.3613
 8499TIP3   OH246911   4.194   6.272   1.744 -0.6652 -0.2071  0.1446
 8499TIP3    H146912   4.113   6.300   1.786  1.2229  2.5987  2.3519
 8499TIP3    H246913   4.232   6.209   1.804  0.0669  0.6489  0.6129
 8500TIP3   OH246914   0.110   1.495   3.921  0.5696 -0.0968 -0.3507
 8500TIP3    H146915   0.114   1.476   3.827  1.7771 -0.5397 -0.2221
 8500TIP3    H246916   0.177   1.439   3.960  0.0518  0.0502  0.7925
 8501TIP3   OH246917   2.328   6.236  13.945 -0.3388 -0.3967 -0.2186
 8501TIP3    H146918   2.396   6.223  14.011 -0.6048  0.7987  0.3194
 8501TIP3    H246919   2.369   6.208  13.863 -0.2862 -2.6903  0.5399
 8502TIP3   OH246920   3.600   6.690   1.659 -0.4774 -0.2885 -0.6422
 8502TIP3    H146921   3.620   6.614   1.713 -2.3360 -0.3171  0.0689
 8502TIP3    H246922   3.685   6.731   1.644  0.3597 -1.5705  0.3497
 8503TIP3   OH246923   4.126   3.903   1.129 -0.2246  0.5122  0.1726
 8503TIP3    H146924   4.090   3.844   1.195 -0.2740  1.3681  0.9296
 8503TIP3    H246925   4.103   3.862   1.045 -0.2313 -0.5466  0.6740
 8504TIP3   OH246926   3.093   3.175  16.635 -0.1393  0.0547  0.3779
 8504TIP3    H146927   3.036   3.101  16.653  0.9457 -1.1627 -0.9965
 8504TIP3    H246928   3.169   3.162  16.693 -0.9044  1.3394  1.7543
 8505TIP3   OH246929   6.189   2.432   3.611 -0.3891  0.2287  0.0305
 8505TIP3    H146930   6.238   2.352   3.593 -2.0961 -1.0624  0.8922
 8505TIP3    H246931   6.097   2.407   3.602 -1.0658  1.4346  2.6908
 8506TIP3   OH246932   2.843   1.077   2.908  0.0135  0.3673  0.0428
 8506TIP3    H146933   2.935   1.057   2.889  0.0816  0.7255 -0.0045
 8506TIP3    H246934   2.843   1.109   2.998 -0.3816 -1.8373  0.8992
 8507TIP3   OH246935   5.969   3.693   5.252  0.1333  0.2598 -0.5210
 8507TIP3    H146936   5.975   3.655   5.340 -0.4561  0.1100 -0.5416
 8507TIP3    H246937   6.009   3.627   5.195  0.7384  0.4627 -0.3423
 8508TIP3   OH246938   1.181   1.427  16.539 -0.2399  0.0320 -0.1716
 8508TIP3    H146939   1.096   1.449  16.575 -0.1574 -0.0750  0.0894
 8508TIP3    H246940   1.163   1.359  16.474 -0.3895  0.2376 -0.3482
 8509TIP3   OH246941   4.156   2.405   3.404  0.1503 -0.1022  0.2449
 8509TIP3    H146942   4.215   2.330   3.414 -0.4716 -0.3851  1.9995
 8509TIP3    H246943   4.212   2.475   3.371  1.6736 -0.1395  2.5949
 8510TIP3   OH246944   3.928   5.301   2.670 -0.1963 -0.0919 -0.0919
 8510TIP3    H146945   3.945   5.208   2.660 -1.4926 -0.4267  0.5120
 8510TIP3    H246946   3.943   5.338   2.583  2.5828 -0.4304  0.1643
 8511TIP3   OH246947   0.347   4.403   3.302 -0.1578  0.9666 -0.0782
 8511TIP3    H146948   0.420   4.427   3.245  0.5380  0.3823  0.5602
 8511TIP3    H246949   0.305   4.329   3.257 -0.3754  1.3078 -0.4491
 8512TIP3   OH246950   1.376   2.679   0.787  0.0992 -0.1848  0.8221
 8512TIP3    H146951   1.388   2.652   0.878  1.1429 -2.5598  0.0702
 8512TIP3    H246952   1.307   2.621   0.754 -0.3128  0.7000  0.0945
 8513TIP3   OH246953   5.255   0.371   1.969  0.0924  0.2936  0.0067
 8513TIP3    H146954   5.348   0.395   1.968 -0.0495  0.8686  0.0509
 8513TIP3    H246955   5.233   0.358   1.877 -0.3129  2.3253 -0.2176
 8514TIP3   OH246956   0.357   2.176  16.063 -0.3169  0.4187 -0.0098
 8514TIP3    H146957   0.307   2.183  15.981 -0.5859  0.1481  0.1303
 8514TIP3    H246958   0.300   2.126  16.121  0.0629  0.2282  0.1997
 8515TIP3   OH246959   5.812   5.437  14.476  0.0891 -0.2769  0.3024
 8515TIP3    H146960   5.723   5.438  14.511 -0.5542  1.4973 -1.2201
 8515TIP3    H246961   5.857   5.506  14.524 -0.4401  1.2995 -1.3487
 8516TIP3   OH246962   3.797   2.073   2.304  0.3151 -0.4671  0.1581
 8516TIP3    H146963   3.884   2.070   2.264 -0.0292  0.1613 -0.6692
 8516TIP3    H246964   3.799   2.151   2.360  0.3272 -0.5249  0.2380
 8517TIP3   OH246965   5.236   2.408   3.924 -0.0329 -0.3279 -0.3987
 8517TIP3    H146966   5.312   2.434   3.976 -0.1057  0.0197 -0.4651
 8517TIP3    H246967   5.245   2.313   3.915  1.7832 -0.0252 -2.5734
 8518TIP3   OH246968   1.052   2.179  13.371 -0.2715 -0.4980 -0.2065
 8518TIP3    H146969   1.097   2.228  13.302  1.3277 -1.1662  0.3062
 8518TIP3    H246970   0.987   2.240  13.406 -0.0481  0.3738 -1.2440
 8519TIP3   OH246971   5.384   5.749  16.166 -0.0556  0.0453 -0.1211
 8519TIP3    H146972   5.394   5.784  16.078 -0.8018 -1.0118 -0.6369
 8519TIP3    H246973   5.343   5.821  16.215 -0.5138  0.3056 -0.8705
 8520TIP3   OH246974   2.213   4.983   0.779  0.0692 -0.0514 -0.6278
 8520TIP3    H146975   2.208   5.019   0.867 -1.3865  1.6582 -1.3449
 8520TIP3    H246976   2.306   4.966   0.765  0.5107  1.1152  0.6842
 8521TIP3   OH246977   2.666   5.377  13.094  0.6578 -0.0409  0.0580
 8521TIP3    H146978   2.757   5.388  13.067  0.5773  0.3344 -0.0611
 8521TIP3    H246979   2.625   5.460  13.073  0.6332  0.3234  1.4743
 8522TIP3   OH246980   0.128   5.035  12.846 -0.5307  0.0409 -0.4134
 8522TIP3    H146981   0.192   5.105  12.836  1.9669 -2.0962 -0.4444
 8522TIP3    H246982   0.109   5.006  12.756  0.8164 -1.2773 -0.2992
 8523TIP3   OH246983   5.925   1.898   2.560 -0.2979 -0.2081 -0.5745
 8523TIP3    H146984   5.897   1.913   2.650 -0.7032  1.0184 -0.8950
 8523TIP3    H246985   5.986   1.825   2.566 -0.7395 -0.4974  0.6185
 8524TIP3   OH246986   4.917   0.049  11.596  0.4946  0.5618  0.5102
 8524TIP3    H146987   4.903   0.143  11.590 -1.1336  0.5070  2.5396
 8524TIP3    H246988   4.998   0.041  11.647 -0.2720  0.8799  1.8032
 8525TIP3   OH246989   2.789   2.505  11.478  0.1391 -0.1607 -0.1943
 8525TIP3    H146990   2.863   2.561  11.456 -0.1295  0.6398  0.8327
 8525TIP3    H246991   2.732   2.507  11.401  0.6904  0.0380 -0.5979
 8526TIP3   OH246992   6.773   2.367   6.104 -0.5006  0.2846  0.1521
 8526TIP3    H146993   6.817   2.417   6.173  0.4421  0.8529 -0.8307
 8526TIP3    H246994   6.683   2.355   6.136 -0.8949  2.9982  0.2406
 8527TIP3   OH246995   1.496   5.345  11.406  0.1327  0.1056 -0.4522
 8527TIP3    H146996   1.567   5.325  11.345 -0.6662  0.8792 -1.6817
 8527TIP3    H246997   1.445   5.264  11.411 -0.7897  0.5044 -2.2443
 8528TIP3   OH246998   1.670   0.601   4.611  0.1525  0.2766 -0.7019
 8528TIP3    H146999   1.633   0.603   4.699  1.9984 -0.0205  0.1451
 8528TIP3    H247000   1.674   0.692   4.584 -0.7300  0.3441 -0.6345
 8529TIP3   OH247001   0.483   1.683  10.826  0.1145  0.4919 -0.1385
 8529TIP3    H147002   0.464   1.776  10.838  0.6509  0.8789 -1.9152
 8529TIP3    H247003   0.435   1.659  10.746 -2.3746 -1.5343  1.8109
 8530TIP3   OH247004   1.786   1.359   4.762  0.2161  0.0551 -1.0178
 8530TIP3    H147005   1.704   1.353   4.713  0.6151  1.3782 -1.9200
 8530TIP3    H247006   1.770   1.430   4.825  0.1986 -0.6703 -0.1805
 8531TIP3   OH247007   5.673   3.678  14.774 -0.7200  0.1634 -0.2146
 8531TIP3    H147008   5.609   3.747  14.759 -2.2288 -0.9635  0.6857
 8531TIP3    H247009   5.643   3.605  14.719  0.6198  0.0616 -0.8549
 8532TIP3   OH247010   5.515   2.081   4.904 -0.1693 -0.1105  0.2321
 8532TIP3    H147011   5.524   2.087   4.999  0.4795 -1.2275  0.2550
 8532TIP3    H247012   5.422   2.066   4.889 -0.0628 -1.4858  0.8030
 8533TIP3   OH247013   0.253   0.011  16.594 -0.1936 -0.0214 -0.2753
 8533TIP3    H147014   0.323   0.067  16.629 -2.2041  2.6547 -0.1767
 8533TIP3    H247015   0.215  -0.031  16.672  0.2979 -0.2469 -0.1550
 8534TIP3   OH247016   3.562   5.377   3.471  0.0055 -0.1281  0.3607
 8534TIP3    H147017   3.530   5.287   3.467  1.0023 -0.4678 -0.2335
 8534TIP3    H247018   3.558   5.408   3.381  1.7381 -0.3412  0.1724
 8535TIP3   OH247019   6.081   3.988   3.180 -0.8818 -0.4941  0.0740
 8535TIP3    H147020   6.058   3.895   3.186  1.0561 -0.9673  1.3079
 8535TIP3    H247021   6.064   4.022   3.268  1.7016 -0.5945  0.6963
 8536TIP3   OH247022   4.820   3.289  10.615  0.0536  0.2498 -0.0526
 8536TIP3    H147023   4.786   3.350  10.549 -0.3992 -0.9093 -0.9286
 8536TIP3    H247024   4.883   3.235  10.567  0.5776  0.1306  0.7525
 8537TIP3   OH247025   3.524   5.062  13.432  0.5574 -0.7190 -0.2932
 8537TIP3    H147026   3.551   5.016  13.352  0.9004  0.7291 -1.0481
 8537TIP3    H247027   3.544   5.154  13.415 -0.8676 -0.1515  0.8358
 8538TIP3   OH247028   4.623   0.285  10.690  0.0673  0.2418  0.6114
 8538TIP3    H147029   4.707   0.281  10.644 -0.3509  0.3058 -0.1790
 8538TIP3    H247030   4.643   0.253  10.778  1.0766  1.0072  0.6800
 8539TIP3   OH247031   6.676   4.393   4.982 -0.0578 -0.1344  0.2977
 8539TIP3    H147032   6.656   4.344   4.902  0.6740  1.7749 -1.1157
 8539TIP3    H247033   6.624   4.349   5.050 -1.4784 -1.2062 -1.3869
 8540TIP3   OH247034   2.120   0.774  15.817  0.4755  0.4182 -0.2519
 8540TIP3    H147035   2.189   0.711  15.794  2.2488  1.2859  2.2331
 8540TIP3    H247036   2.160   0.860  15.802 -1.2010  1.0228 -1.6308
 8541TIP3   OH247037   1.645   5.213  16.396 -0.5652  0.8307  0.2776
 8541TIP3    H147038   1.556   5.180  16.382 -0.2859 -1.1442  2.4446
 8541TIP3    H247039   1.694   5.187  16.318 -1.0670 -1.4951  0.6654
 8542TIP3   OH247040   4.482   0.093   2.456 -0.1844 -0.4396 -0.2345
 8542TIP3    H147041   4.512   0.116   2.544  0.0615  0.4516 -0.5312
 8542TIP3    H247042   4.551   0.036   2.421  1.0885  1.3480 -0.7959
 8543TIP3   OH247043   1.348   3.897   3.591 -0.3379 -0.1677 -0.2145
 8543TIP3    H147044   1.399   3.921   3.668  2.2675  1.1368 -2.1846
 8543TIP3    H247045   1.404   3.921   3.517 -2.0412 -2.7886 -2.5410
 8544TIP3   OH247046   6.527   0.896   0.374  0.5687  0.1747 -0.1601
 8544TIP3    H147047   6.554   0.957   0.306 -0.0478 -0.3887 -0.9198
 8544TIP3    H247048   6.464   0.838   0.332 -1.4704  1.1280  1.3826
 8545TIP3   OH247049   0.493   5.640   1.110 -0.0283 -0.1125  0.6976
 8545TIP3    H147050   0.489   5.655   1.016  0.2241  0.5460  0.7875
 8545TIP3    H247051   0.443   5.559   1.124  1.2591 -1.1122 -0.1946
 8546TIP3   OH247052   3.755   1.432   0.982 -0.1040  0.3489 -0.0175
 8546TIP3    H147053   3.732   1.363   0.920  0.4671 -0.2682  0.4379
 8546TIP3    H247054   3.732   1.396   1.068  0.2072  0.7167  0.2251
 8547TIP3   OH247055   0.058   5.918   4.438 -0.5336  0.0543  0.3279
 8547TIP3    H147056   0.131   5.857   4.449  0.1175  0.5976 -0.7946
 8547TIP3    H247057   0.005   5.907   4.517 -0.0380 -1.4127  0.4775
 8548TIP3   OH247058   0.096   2.442   2.053 -0.2893  0.2116  0.2718
 8548TIP3    H147059   0.168   2.463   1.993 -0.8611  0.4791 -0.3284
 8548TIP3    H247060   0.057   2.362   2.018 -1.2781  0.9345 -0.3297
 8549TIP3   OH247061   4.081   4.555   3.580 -0.0266  0.0004  0.0170
 8549TIP3    H147062   4.086   4.467   3.544 -1.0092  0.2712 -0.8517
 8549TIP3    H247063   4.005   4.554   3.637 -0.3000  0.3865 -0.3310
 8550TIP3   OH247064   6.204   0.618   1.929 -0.0388  0.3616 -0.4882
 8550TIP3    H147065   6.145   0.556   1.887 -0.1989  0.5127 -0.4876
 8550TIP3    H247066   6.279   0.565   1.956 -0.6900 -0.0590  0.5550
 8551TIP3   OH247067   1.026   4.091  15.610  0.4067 -0.1850  0.1071
 8551TIP3    H147068   1.057   4.128  15.527 -0.1551 -0.6163 -0.3038
 8551TIP3    H247069   0.935   4.117  15.615  0.4987  0.0280  0.7080
 8552TIP3   OH247070   5.558   5.064  14.599  0.1286  0.9042 -0.1230
 8552TIP3    H147071   5.534   5.042  14.689 -0.7276  0.6783 -0.3953
 8552TIP3    H247072   5.653   5.059  14.597  0.0708 -0.7786  0.3463
 8553TIP3   OH247073   4.864   1.077  14.004 -0.5720 -0.4425 -0.1564
 8553TIP3    H147074   4.836   1.071  13.912 -2.2338  1.8568  0.0988
 8553TIP3    H247075   4.951   1.118  13.999 -0.4233 -0.8053 -0.7131
 8554TIP3   OH247076   0.462   5.987  15.591  0.4475  0.5429 -0.5681
 8554TIP3    H147077   0.492   5.898  15.572 -1.2556 -0.2144  0.0227
 8554TIP3    H247078   0.504   6.042  15.525  1.7509 -0.6479 -0.7796
 8555TIP3   OH247079   5.573   3.722   3.975 -0.2850 -0.1816 -0.0241
 8555TIP3    H147080   5.547   3.641   3.932 -0.5942  0.6278 -1.4456
 8555TIP3    H247081   5.596   3.696   4.064  1.2009 -2.0713 -0.8843
 8556TIP3   OH247082   6.199   1.331   4.324  0.4677  0.3123  0.0334
 8556TIP3    H147083   6.143   1.273   4.376  0.8376 -1.3803 -1.3600
 8556TIP3    H247084   6.259   1.370   4.387 -1.2989  1.0132  1.3423
 8557TIP3   OH247085   3.964   3.721  13.142 -0.1933 -0.4305  0.5498
 8557TIP3    H147086   3.973   3.635  13.181 -1.8371 -0.4093  1.0511
 8557TIP3    H247087   3.879   3.753  13.173  0.6312  1.6110  0.8439
 8558TIP3   OH247088   2.255   2.406   1.737  0.0053  0.0807  0.4728
 8558TIP3    H147089   2.205   2.372   1.811 -0.5677  0.8688  0.4650
 8558TIP3    H247090   2.336   2.440   1.776 -0.3404  0.5846  0.7572
 8559TIP3   OH247091   0.459   2.453  16.809  0.3652 -0.2787  0.4479
 8559TIP3    H147092   0.490   2.468  16.719  0.0158  0.8673  0.5048
 8559TIP3    H247093   0.520   2.388  16.844  1.6912  0.6831  0.0065
 8560TIP3   OH247094   3.293   5.587   3.403 -0.3990  0.1198 -0.8181
 8560TIP3    H147095   3.262   5.562   3.490 -0.2719  0.2385 -0.7391
 8560TIP3    H247096   3.387   5.568   3.404  0.1895  2.7917  0.0454
 8561TIP3   OH247097   6.464   1.348  15.755  0.0527 -0.0926 -0.0484
 8561TIP3    H147098   6.459   1.344  15.660  0.1810 -0.4047 -0.0419
 8561TIP3    H247099   6.395   1.409  15.780 -0.3564 -0.4502 -0.3002
 8562TIP3   OH247100   1.722   3.430   2.852  0.3989 -0.1105  0.1747
 8562TIP3    H147101   1.682   3.424   2.766  2.3955  2.1500 -1.0284
 8562TIP3    H247102   1.660   3.385   2.910 -0.7291 -2.2559 -2.4520
 8563TIP3   OH247103   0.644   1.131   5.696  0.5014 -0.2793  0.4006
 8563TIP3    H147104   0.627   1.175   5.612 -2.4304  0.6974  1.3775
 8563TIP3    H247105   0.561   1.090   5.718  1.0466 -0.1375  3.0334
 8564TIP3   OH247106   3.367   0.107  15.010 -0.4304 -0.2290  0.4195
 8564TIP3    H147107   3.274   0.093  15.027 -0.5461 -0.0602 -0.0653
 8564TIP3    H247108   3.386   0.052  14.934 -0.5790  1.1971 -0.6790
 8565TIP3   OH247109   3.897   0.031  11.897 -0.3111 -0.9755 -0.2060
 8565TIP3    H147110   3.904   0.047  11.803  1.4641 -0.1980  0.0177
 8565TIP3    H247111   3.984   0.052  11.932 -0.7607 -1.7835  1.5359
 8566TIP3   OH247112   0.095   2.596  15.062 -0.2479 -0.3119 -0.3615
 8566TIP3    H147113   0.007   2.570  15.091 -0.0822 -0.8907 -0.3564
 8566TIP3    H247114   0.084   2.685  15.029 -0.5793  0.1095  0.8245
 8567TIP3   OH247115   2.106   0.752   3.572  0.4285  0.2878  0.2922
 8567TIP3    H147116   2.171   0.687   3.544  2.0405  1.2544  1.5618
 8567TIP3    H247117   2.142   0.836   3.542  0.3498  0.9583  1.9273
 8568TIP3   OH247118   2.253   1.495   0.161 -0.1378 -0.0975  0.2672
 8568TIP3    H147119   2.245   1.494   0.066 -0.1043  0.4739  0.2567
 8568TIP3    H247120   2.339   1.532   0.178  0.3290 -1.2270  0.5046
 8569TIP3   OH247121   6.119   2.724  15.237 -0.1926 -0.3281  0.2252
 8569TIP3    H147122   6.159   2.701  15.321 -0.9174 -0.8914  0.4270
 8569TIP3    H247123   6.124   2.644  15.185  2.3916  0.6316 -1.1707
 8570TIP3   OH247124   6.063   3.622  12.747 -0.2625 -0.3966 -0.0010
 8570TIP3    H147125   6.067   3.530  12.771 -2.5601 -0.0963  2.0293
 8570TIP3    H247126   6.088   3.625  12.655  0.2544 -2.9661 -0.0096
 8571TIP3   OH247127   6.071   1.223   2.741  0.2421 -0.4126 -0.4586
 8571TIP3    H147128   6.076   1.208   2.646  0.5495  0.8470 -0.6636
 8571TIP3    H247129   6.153   1.267   2.762  0.4269 -1.1830  0.5093
 8572TIP3   OH247130   2.817   2.896  13.826  0.4484 -0.1766 -0.2465
 8572TIP3    H147131   2.812   2.924  13.917 -1.1952 -0.1737 -0.3060
 8572TIP3    H247132   2.819   2.978  13.776  0.1447 -0.1766 -0.2581
 8573TIP3   OH247133   4.762   2.114  12.266 -0.2528  0.4364  0.2759
 8573TIP3    H147134   4.701   2.180  12.233  0.2256  0.7320 -0.0198
 8573TIP3    H247135   4.722   2.083  12.347 -0.4641  1.1160  0.4359
 8574TIP3   OH247136   0.716   5.489  13.472 -0.0520  0.3609  0.5266
 8574TIP3    H147137   0.626   5.464  13.493  0.3054 -0.3477  1.2785
 8574TIP3    H247138   0.767   5.409  13.487  0.5012  0.3346 -1.3120
 8575TIP3   OH247139   5.717   6.152   2.720 -0.5666 -0.2181 -0.4379
 8575TIP3    H147140   5.675   6.113   2.797 -1.6186 -0.2619 -1.0124
 8575TIP3    H247141   5.810   6.153   2.741 -0.9240  0.7042  1.2601
 8576TIP3   OH247142   1.767   4.937  13.775 -0.1813 -0.1640 -0.1098
 8576TIP3    H147143   1.719   4.960  13.695  0.1384  1.9105  0.2550
 8576TIP3    H247144   1.771   5.018  13.825  0.4251 -1.2043  1.6233
 8577TIP3   OH247145   0.691   4.221  14.835 -0.2437 -0.2121 -0.8898
 8577TIP3    H147146   0.717   4.305  14.871  1.2425 -0.3269 -1.6084
 8577TIP3    H247147   0.766   4.192  14.783 -0.5947 -2.1151 -0.4375
 8578TIP3   OH247148   2.398   6.046   3.718 -0.2216 -0.6204 -0.0695
 8578TIP3    H147149   2.409   6.121   3.659  0.4508 -0.9194 -0.3345
 8578TIP3    H247150   2.464   5.983   3.689  1.0075 -0.2760  1.8165
 8579TIP3   OH247151   2.453   1.349  15.395 -0.0892 -0.2854 -1.0832
 8579TIP3    H147152   2.374   1.385  15.436 -0.0250 -0.8154 -0.4809
 8579TIP3    H247153   2.449   1.380  15.305 -1.3521 -0.8866 -1.2553
 8580TIP3   OH247154   2.688   2.996  11.325 -0.2031 -0.3688 -0.5242
 8580TIP3    H147155   2.773   2.952  11.337 -0.0728  0.0023 -0.0333
 8580TIP3    H247156   2.626   2.926  11.309 -0.4053 -0.9687  2.4095
 8581TIP3   OH247157   4.554   5.513  12.166  0.2234 -0.4646  0.1773
 8581TIP3    H147158   4.525   5.460  12.092  0.0721  0.1876 -0.2391
 8581TIP3    H247159   4.473   5.547  12.204  0.3643  0.2440 -0.1449
 8582TIP3   OH247160   1.242   5.226   1.501 -0.3166 -0.7087  0.6501
 8582TIP3    H147161   1.298   5.302   1.515 -1.7114  0.1933  1.5193
 8582TIP3    H247162   1.303   5.156   1.476  0.8165  1.1802 -2.5013
 8583TIP3   OH247163   3.149   1.145  12.728 -0.8216 -0.1464  0.4159
 8583TIP3    H147164   3.211   1.077  12.754 -1.3447  0.1955  2.8200
 8583TIP3    H247165   3.101   1.107  12.655  2.3259 -0.3025 -1.7698
 8584TIP3   OH247166   5.839   4.761   4.161  0.1650  0.1999  0.3615
 8584TIP3    H147167   5.838   4.667   4.179 -0.9143  0.1024 -0.0916
 8584TIP3    H247168   5.878   4.801   4.239  0.0558 -0.5764  0.8184
 8585TIP3   OH247169   1.941   2.190   1.811 -0.1290  0.3831 -0.3457
 8585TIP3    H147170   1.912   2.236   1.733 -1.3608  1.8283  0.9021
 8585TIP3    H247171   1.953   2.259   1.877 -1.1911 -0.9619  1.3435
 8586TIP3   OH247172   0.447   5.992   0.512 -0.1164  0.2161 -0.6000
 8586TIP3    H147173   0.452   6.088   0.519  0.9532  0.0846  0.9328
 8586TIP3    H247174   0.379   5.968   0.576 -0.0994 -0.0773 -0.6944
 8587TIP3   OH247175   0.774   0.363  14.182 -0.2339 -0.2696 -0.2363
 8587TIP3    H147176   0.760   0.457  14.186  1.7297  0.0748 -0.9876
 8587TIP3    H247177   0.686   0.327  14.166 -1.3368  1.2487  1.8168
 8588TIP3   OH247178   4.976   1.000   1.392  0.2271 -0.4604 -0.6396
 8588TIP3    H147179   4.899   0.944   1.378  1.0993 -1.7849 -0.3783
 8588TIP3    H247180   4.974   1.061   1.319 -0.3435 -1.3417 -1.3968
 8589TIP3   OH247181   0.600   3.070  11.356 -0.7670  0.1484 -0.2078
 8589TIP3    H147182   0.575   3.088  11.447 -0.2622 -0.1140 -0.0129
 8589TIP3    H247183   0.669   3.004  11.363 -0.2312  0.6417 -0.7488
 8590TIP3   OH247184   6.013   4.685   2.928  0.1745  0.5432  0.5250
 8590TIP3    H147185   6.099   4.716   2.900  0.6036  1.3025  2.4789
 8590TIP3    H247186   5.979   4.636   2.853  2.6498 -0.4903 -0.0265
 8591TIP3   OH247187   4.398   0.827   5.291  0.6187  0.6436 -0.7672
 8591TIP3    H147188   4.335   0.846   5.221 -1.9570  0.3272  1.3218
 8591TIP3    H247189   4.431   0.912   5.317 -0.0705  0.9647 -0.9177
 8592TIP3   OH247190   6.731   4.485  13.657 -0.1501  0.8005 -1.0829
 8592TIP3    H147191   6.777   4.440  13.586 -0.3959  0.4172 -0.9985
 8592TIP3    H247192   6.723   4.420  13.727  0.0660  1.1681 -0.7105
 8593TIP3   OH247193   6.087   0.603   6.105 -0.0695 -0.0968  0.0661
 8593TIP3    H147194   6.031   0.659   6.159 -1.4592 -0.2459 -1.1713
 8593TIP3    H247195   6.121   0.538   6.166 -0.7519  0.3720  0.9694
 8594TIP3   OH247196   0.980   6.140   0.099  0.4748 -0.5279 -0.4291
 8594TIP3    H147197   0.899   6.150   0.149  1.1422 -1.5246  0.9187
 8594TIP3    H247198   1.044   6.109   0.163  2.3855  1.8096 -1.0745
 8595TIP3   OH247199   4.002   6.393  11.034 -0.3014  0.0044 -0.3178
 8595TIP3    H147200   4.047   6.330  11.091 -2.1556 -0.6990  0.4539
 8595TIP3    H247201   3.959   6.339  10.967  0.8253  0.7364 -1.6695
 8596TIP3   OH247202   4.013   5.720   4.928 -0.3500 -0.3789 -0.3824
 8596TIP3    H147203   4.063   5.641   4.908  0.4609  0.0588 -0.1620
 8596TIP3    H247204   4.068   5.767   4.991 -1.2954 -0.1334  0.2696
 8597TIP3   OH247205   4.388   5.283  15.531  0.3423 -0.2591  0.0196
 8597TIP3    H147206   4.323   5.216  15.551  0.0601  0.0304  0.0663
 8597TIP3    H247207   4.337   5.360  15.507  0.6482 -0.6343 -2.0113
 8598TIP3   OH247208   4.848   4.294   4.790  0.3362  0.0110  0.2462
 8598TIP3    H147209   4.877   4.386   4.791  0.6464 -0.0559 -1.2269
 8598TIP3    H247210   4.765   4.296   4.742 -1.3538 -0.0562  2.9520
 8599TIP3   OH247211   6.687   1.212   4.846  0.0572  0.3117 -0.0118
 8599TIP3    H147212   6.763   1.246   4.798  2.3372 -0.5360  2.6928
 8599TIP3    H247213   6.668   1.128   4.803 -0.2469  1.1194 -1.5293
 8600TIP3   OH247214   0.512   5.828   5.623  0.0085  0.3489  0.2088
 8600TIP3    H147215   0.418   5.834   5.604  0.4280  1.0052 -1.9901
 8600TIP3    H247216   0.528   5.734   5.635 -0.7791  0.1241 -0.4040
 8601TIP3   OH247217   5.766   1.537  12.797 -0.0842 -0.6099 -0.5667
 8601TIP3    H147218   5.833   1.565  12.860  0.4481 -0.3317 -1.2543
 8601TIP3    H247219   5.757   1.443  12.812 -0.0544 -0.5227  0.0192
 8602TIP3   OH247220   5.255   5.547  14.934 -0.2571 -0.5794 -0.4173
 8602TIP3    H147221   5.206   5.596  15.001 -0.4386  0.9685 -1.6209
 8602TIP3    H247222   5.291   5.615  14.877  1.6187 -1.7710 -0.7423
 8603TIP3   OH247223   0.587   1.675  12.410 -0.0496 -0.7147 -0.0991
 8603TIP3    H147224   0.661   1.684  12.469  1.1453  0.3190 -1.6816
 8603TIP3    H247225   0.549   1.590  12.432  0.5608 -0.5303  1.8681
 8604TIP3   OH247226   3.778   3.801  10.452 -0.5182  0.4363 -0.1029
 8604TIP3    H147227   3.753   3.728  10.396  0.7613 -0.1780  0.0929
 8604TIP3    H247228   3.830   3.857  10.395 -0.1897  0.4037  0.1653
 8605TIP3   OH247229   1.888   2.835   5.337 -0.3400 -0.5052  0.0002
 8605TIP3    H147230   1.840   2.903   5.384  0.1747  0.5106 -0.8699
 8605TIP3    H247231   1.940   2.884   5.273  0.0715 -1.7335 -0.6288
 8606TIP3   OH247232   5.166   3.652   1.978  0.1344 -0.3355  0.2845
 8606TIP3    H147233   5.188   3.667   1.886  0.2517 -2.3508 -0.0767
 8606TIP3    H247234   5.238   3.693   2.027  1.6491 -1.6970 -0.6740
 8607TIP3   OH247235   3.147   5.880   5.041 -0.2875 -0.5496  0.1087
 8607TIP3    H147236   3.147   5.826   4.962  2.0205  0.0248 -0.3516
 8607TIP3    H247237   3.124   5.968   5.009  1.9849 -0.0204 -0.2316
 8608TIP3   OH247238   6.273   1.147  15.847  0.2109 -0.1437 -0.1337
 8608TIP3    H147239   6.346   1.208  15.838  0.9557 -0.9765  0.1051
 8608TIP3    H247240   6.278   1.117  15.938 -0.9092  0.3574  0.1176
 8609TIP3   OH247241   2.269   5.981  15.372 -0.3440  0.2056  0.1716
 8609TIP3    H147242   2.306   6.040  15.436  0.2605 -1.3596  1.3349
 8609TIP3    H247243   2.265   6.032  15.291 -0.3960  1.9796  1.2434
 8610TIP3   OH247244   4.549   1.171   0.336 -0.8661 -0.6090  0.2762
 8610TIP3    H147245   4.476   1.159   0.275 -1.0302 -0.6539  0.4799
 8610TIP3    H247246   4.575   1.082   0.359 -2.1351 -0.6125  1.8517
 8611TIP3   OH247247   6.795   4.332  13.908  0.3963 -0.1559  0.5221
 8611TIP3    H147248   6.788   4.312  14.002 -2.1648  1.0012  0.6481
 8611TIP3    H247249   6.863   4.399  13.903  0.0281  0.3162  1.6392
 8612TIP3   OH247250   2.466   3.025  16.158  0.2715 -0.4418 -0.3129
 8612TIP3    H147251   2.414   3.029  16.238  0.1147  0.8757 -0.4670
 8612TIP3    H247252   2.405   2.995  16.091 -0.3507  1.1281 -0.5005
 8613TIP3   OH247253   0.166   4.579   0.059  0.4137 -0.4421  0.5328
 8613TIP3    H147254   0.235   4.630   0.016  0.8985 -2.3326 -1.0640
 8613TIP3    H247255   0.202   4.491   0.067 -1.3615 -1.1904  0.7941
 8614TIP3   OH247256   0.237   0.526  11.189 -0.3337 -0.0540  0.0080
 8614TIP3    H147257   0.191   0.602  11.224  0.4364  1.2143 -1.6011
 8614TIP3    H247258   0.172   0.483  11.133 -0.3347  0.2680 -0.2415
 8615TIP3   OH247259   5.253   1.032   0.620  0.3185  0.5058  0.4641
 8615TIP3    H147260   5.206   0.965   0.670  0.3013 -0.6196 -0.9726
 8615TIP3    H247261   5.217   1.115   0.651 -2.4568 -0.2737 -0.3698
 8616TIP3   OH247262   0.809   5.497  14.568 -0.3978 -0.8243 -0.4413
 8616TIP3    H147263   0.816   5.592  14.561  0.6551 -0.9534 -1.5464
 8616TIP3    H247264   0.900   5.467  14.570 -0.6982 -1.8553 -1.2180
 8617TIP3   OH247265   4.425   6.239   3.830 -0.0647 -0.2436  0.4178
 8617TIP3    H147266   4.366   6.180   3.784  2.0782 -1.9852 -0.2918
 8617TIP3    H247267   4.468   6.288   3.761  1.1416 -0.8636  0.6921
 8618TIP3   OH247268   3.861   4.267  12.276  0.1257  0.8372 -0.0420
 8618TIP3    H147269   3.825   4.298  12.359 -1.2263 -0.3927 -0.1167
 8618TIP3    H247270   3.863   4.172  12.285  2.8563  0.7975 -0.3127
 8619TIP3   OH247271   2.808   5.270  11.302 -0.1070  0.7852  0.0889
 8619TIP3    H147272   2.898   5.280  11.333 -0.2840  1.4009  0.4193
 8619TIP3    H247273   2.785   5.356  11.267 -0.9319  0.9642  1.0234
 8620TIP3   OH247274   1.231   5.950   4.917 -0.4396  0.1610 -0.2357
 8620TIP3    H147275   1.236   5.895   4.995  1.4622  0.5311 -0.0544
 8620TIP3    H247276   1.322   5.966   4.892 -0.9397  2.1332 -1.0545
 8621TIP3   OH247277   0.107   5.401   2.258  0.0169  0.2186 -0.1871
 8621TIP3    H147278   0.061   5.481   2.231 -0.4650  0.3932  1.0726
 8621TIP3    H247279   0.056   5.330   2.219  0.0564  0.4971 -0.7581
 8622TIP3   OH247280   6.095   1.732  14.007 -0.0500 -0.1556 -0.2137
 8622TIP3    H147281   6.080   1.763  14.096 -0.2384  0.1595 -0.3531
 8622TIP3    H247282   6.186   1.703  14.007 -0.4713 -1.5643  0.4933
 8623TIP3   OH247283   1.931   3.420   3.435  0.2653 -0.2769 -0.3292
 8623TIP3    H147284   1.848   3.452   3.400  1.0323  1.4719 -0.6639
 8623TIP3    H247285   1.998   3.469   3.387  1.4724 -0.9385  0.6128
 8624TIP3   OH247286   2.620   1.873  14.372 -0.4959  0.2886 -0.2948
 8624TIP3    H147287   2.543   1.853  14.318 -1.1563  0.9893  0.3597
 8624TIP3    H247288   2.592   1.854  14.461  0.1787  0.3002 -0.0808
 8625TIP3   OH247289   4.850   1.328  11.550  0.3023  0.1691 -0.1058
 8625TIP3    H147290   4.890   1.244  11.573  1.7873  1.1103  0.8996
 8625TIP3    H247291   4.895   1.355  11.470  0.9245  0.7004  0.4104
 8626TIP3   OH247292   2.778   1.639  15.415 -0.3091 -0.0782  0.1027
 8626TIP3    H147293   2.714   1.660  15.484 -0.2393 -0.3662  0.2593
 8626TIP3    H247294   2.742   1.680  15.336 -0.1173  0.7143  0.4168
 8627TIP3   OH247295   2.056   0.308  14.051  0.2715  0.3017  0.9489
 8627TIP3    H147296   2.015   0.309  13.964  0.1884 -0.4148  0.9748
 8627TIP3    H247297   2.041   0.396  14.085  1.5163  1.0392 -0.3134
 8628TIP3   OH247298   2.359   4.885   2.729 -0.0995  0.0189  0.3008
 8628TIP3    H147299   2.348   4.815   2.794  0.6346 -0.0906  0.3089
 8628TIP3    H247300   2.422   4.945   2.768 -1.1736  1.0093  0.5502
 8629TIP3   OH247301   4.283   6.286  16.546 -0.3925 -0.4883 -0.2281
 8629TIP3    H147302   4.206   6.235  16.569 -0.4752 -0.1844  0.1775
 8629TIP3    H247303   4.258   6.332  16.466 -1.3702  1.1618  0.9614
 8630TIP3   OH247304   6.085   6.463  11.071  0.0182  0.4197 -0.4148
 8630TIP3    H147305   6.165   6.436  11.027  0.0062 -0.5630  0.1502
 8630TIP3    H247306   6.110   6.541  11.121  0.1513  1.2548 -1.7141
 8631TIP3   OH247307   2.230   1.427   1.346 -0.0710 -0.2236  0.2124
 8631TIP3    H147308   2.232   1.353   1.287  1.8132 -1.2966  1.5183
 8631TIP3    H247309   2.149   1.416   1.396 -0.8187 -0.2321 -0.9660
 8632TIP3   OH247310   3.993   5.015  14.072  0.3803  0.6239 -0.2735
 8632TIP3    H147311   4.087   5.007  14.056  0.9689 -0.2437  2.8429
 8632TIP3    H247312   3.955   4.937  14.033  1.2429  0.0748 -0.0471
 8633TIP3   OH247313   2.894   0.304  13.777  0.2684 -0.0398  0.0932
 8633TIP3    H147314   2.824   0.240  13.761 -0.8045  1.0391  0.2873
 8633TIP3    H247315   2.857   0.387  13.747  1.5273  0.5399  0.1065
 8634TIP3   OH247316   0.236   0.236   2.945  0.1279  0.0899  0.4320
 8634TIP3    H147317   0.148   0.204   2.967  0.6937  0.0117  2.9651
 8634TIP3    H247318   0.276   0.164   2.896 -0.8279 -0.3742  0.3079
 8635TIP3   OH247319   1.717   0.236   1.635 -0.2109 -0.4944  0.2430
 8635TIP3    H147320   1.775   0.241   1.711  1.6644  0.7010 -1.1792
 8635TIP3    H247321   1.775   0.241   1.560 -2.1392  0.4255 -1.2771
 8636TIP3   OH247322   1.982   5.111   3.073 -0.0003  0.1141 -0.5284
 8636TIP3    H147323   2.038   5.071   3.006  0.8054 -0.9795  0.7306
 8636TIP3    H247324   1.963   5.039   3.134 -2.1414  0.6589 -0.4693
 8637TIP3   OH247325   0.469   4.854   2.937  0.3204 -0.7591 -0.1489
 8637TIP3    H147326   0.468   4.914   3.012  1.3571 -1.1504  0.1918
 8637TIP3    H247327   0.533   4.891   2.877 -0.4456 -0.4958 -0.8163
 8638TIP3   OH247328   6.030   1.800  13.332  0.6478 -0.3689  0.0801
 8638TIP3    H147329   6.050   1.714  13.369  3.1826 -0.9232 -2.2330
 8638TIP3    H247330   5.940   1.794  13.302 -0.1405 -1.2069  2.3976
 8639TIP3   OH247331   5.984   4.756   5.941 -0.4573 -0.2058  0.3332
 8639TIP3    H147332   5.964   4.850   5.943  0.3075 -0.0157 -0.1812
 8639TIP3    H247333   6.071   4.750   5.980 -0.9707 -0.8550  1.4308
 8640TIP3   OH247334   4.678   4.228   2.928 -0.4178 -0.3013 -0.2376
 8640TIP3    H147335   4.687   4.323   2.927  0.2162 -0.2863 -3.6293
 8640TIP3    H247336   4.598   4.210   2.879  0.6202 -1.5376 -1.5635
 8641TIP3   OH247337   6.523   4.515  14.979  0.1913  0.2225 -0.0938
 8641TIP3    H147338   6.514   4.439  15.037 -0.8204 -0.0796 -0.6150
 8641TIP3    H247339   6.448   4.570  15.000  0.2554  0.4973 -0.5599
 8642TIP3   OH247340   0.197   0.990  13.368 -0.6478 -0.2152 -0.3647
 8642TIP3    H147341   0.109   1.002  13.332 -0.2170 -0.6027 -1.5852
 8642TIP3    H247342   0.229   1.080  13.382 -1.7955 -0.0634  1.5727
 8643TIP3   OH247343   5.111   0.222  15.253  0.1022  0.4173 -0.2392
 8643TIP3    H147344   5.206   0.213  15.241  0.1289 -1.1200  0.8303
 8643TIP3    H247345   5.079   0.132  15.254 -1.1562  0.8540  0.9519
 8644TIP3   OH247346   2.856   5.859  11.356  0.0390 -0.3740 -0.4688
 8644TIP3    H147347   2.863   5.862  11.261 -0.6486  1.1513 -0.5001
 8644TIP3    H247348   2.886   5.945  11.385 -0.0713 -0.6997  0.6813
 8645TIP3   OH247349   1.751   5.222  17.011  0.6707 -0.2911 -0.4374
 8645TIP3    H147350   1.661   5.215  16.979  1.1846  0.8392 -2.2746
 8645TIP3    H247351   1.742   5.253  17.101 -0.7747 -0.3409 -0.5402
 8646TIP3   OH247352   6.711   6.599   2.296  0.2043 -0.2617  0.6969
 8646TIP3    H147353   6.713   6.546   2.375  0.5986  0.1554  0.9684
 8646TIP3    H247354   6.691   6.537   2.226 -0.0285 -0.6494  1.1053
 8647TIP3   OH247355   4.717   5.280  11.312  0.0953 -0.1046 -0.4143
 8647TIP3    H147356   4.760   5.366  11.317 -0.4673  0.1472  0.2837
 8647TIP3    H247357   4.749   5.233  11.389  1.6885 -1.1642 -1.6443
 8648TIP3   OH247358   0.979   4.834   5.534 -0.2088  0.0430  0.0782
 8648TIP3    H147359   1.053   4.842   5.594  1.1602  0.0760 -1.5049
 8648TIP3    H247360   0.905   4.870   5.581  1.1869  1.7757  1.0888
 8649TIP3   OH247361   6.096   5.414   0.656  0.5795 -0.0072  0.1154
 8649TIP3    H147362   6.049   5.497   0.645  0.5049 -0.2259 -1.3929
 8649TIP3    H247363   6.138   5.399   0.572 -0.5926 -2.2355 -0.1532
 8650TIP3   OH247364   5.532   3.975   3.866 -0.2493  0.2916  0.0472
 8650TIP3    H147365   5.459   3.983   3.806  0.2230 -0.6718 -0.6770
 8650TIP3    H247366   5.525   3.887   3.902  0.8219 -0.0016 -0.4158
 8651TIP3   OH247367   2.586   1.470   2.910 -0.5614 -0.0935 -0.0112
 8651TIP3    H147368   2.588   1.560   2.943 -0.1587 -0.1600  0.1602
 8651TIP3    H247369   2.537   1.475   2.829 -0.9391  0.2026  0.2331
 8652TIP3   OH247370   3.040   1.852  13.693  0.0012  0.1999  0.1015
 8652TIP3    H147371   3.099   1.856  13.618 -0.3973  0.8202 -0.1908
 8652TIP3    H247372   2.953   1.863  13.655 -0.4149 -1.7216  0.4087
 8653TIP3   OH247373   0.738   6.344   3.619  0.4692 -0.2801  0.2042
 8653TIP3    H147374   0.795   6.326   3.545 -0.2071 -1.1183 -0.1355
 8653TIP3    H247375   0.688   6.421   3.593  1.0154  0.0968  0.2579
 8654TIP3   OH247376   5.933   1.529   3.740 -0.1609 -0.3145 -0.2205
 8654TIP3    H147377   5.978   1.606   3.704  1.8196 -1.1519  0.3263
 8654TIP3    H247378   5.892   1.561   3.820 -2.1352  0.8718 -1.5977
 8655TIP3   OH247379   6.346   2.073  15.253  0.1540  0.4232  0.1630
 8655TIP3    H147380   6.418   2.102  15.198  1.2183 -0.6571  0.9320
 8655TIP3    H247381   6.350   1.978  15.250 -0.2976  0.3447  1.4042
 8656TIP3   OH247382   0.240   0.658  14.780 -0.0466  0.0630 -0.0496
 8656TIP3    H147383   0.298   0.584  14.762 -1.6961 -1.2992 -0.0556
 8656TIP3    H247384   0.192   0.671  14.698 -1.9681 -0.9651  0.8267
 8657TIP3   OH247385   3.434   4.799  17.012  0.2870 -0.3876 -0.4011
 8657TIP3    H147386   3.356   4.833  17.055  0.6394  0.9986 -0.8082
 8657TIP3    H247387   3.462   4.726  17.067  0.2525  0.7996  1.2669
 8658TIP3   OH247388   1.884   6.418  14.445 -0.0300  0.5923 -0.3908
 8658TIP3    H147389   1.844   6.469  14.516 -0.3336 -0.8953  0.5531
 8658TIP3    H247390   1.975   6.446  14.444  0.0262  0.4783  0.7390
 8659TIP3   OH247391   3.298   5.846  15.104  0.0176 -0.5714 -0.3734
 8659TIP3    H147392   3.303   5.928  15.053 -0.4498 -0.2384  0.1051
 8659TIP3    H247393   3.305   5.874  15.195  4.1939 -1.4354 -0.2595
 8660TIP3   OH247394   3.670   4.513  10.573 -0.7115 -0.0686 -0.1032
 8660TIP3    H147395   3.585   4.470  10.566 -0.5627 -0.3812 -0.0208
 8660TIP3    H247396   3.654   4.603  10.546 -1.8998  0.9230  3.3468
 8661TIP3   OH247397   2.615   3.488   5.462  0.1212  0.3991  0.2458
 8661TIP3    H147398   2.616   3.547   5.386 -0.8982 -0.6597 -0.6287
 8661TIP3    H247399   2.538   3.516   5.512 -0.1005  0.1007  0.0707
 8662TIP3   OH247400   6.208   2.254   5.218 -0.1692  0.2699 -0.3264
 8662TIP3    H147401   6.275   2.212   5.273 -1.9787  0.2162  1.9879
 8662TIP3    H247402   6.216   2.211   5.133  0.1410 -2.5700  1.0237
 8663TIP3   OH247403   4.518   3.434   0.171  0.0368 -0.0908  0.5721
 8663TIP3    H147404   4.569   3.487   0.109 -1.8915  0.0141 -1.0112
 8663TIP3    H247405   4.564   3.350   0.172  0.2403 -0.0329 -0.8866
 8664TIP3   OH247406   5.690   2.837   5.624 -0.3176  0.3546 -0.3166
 8664TIP3    H147407   5.738   2.801   5.550  2.9473 -0.3162  1.8979
 8664TIP3    H247408   5.703   2.773   5.694 -0.6632  2.3515  1.6898
 8665TIP3   OH247409   5.603   5.303   1.500  0.1305  0.1174 -0.1510
 8665TIP3    H147410   5.644   5.227   1.458 -0.9658 -0.2683 -0.5450
 8665TIP3    H247411   5.591   5.277   1.591 -1.8709 -0.9147 -0.6487
 8666TIP3   OH247412   0.361   5.401   1.117 -0.1415  0.0423 -0.4407
 8666TIP3    H147413   0.429   5.333   1.116  1.5859  1.6657 -1.0347
 8666TIP3    H247414   0.315   5.389   1.033 -0.0911 -0.5983 -0.3841
 8667TIP3   OH247415   3.409   3.493  14.733 -0.1639  0.2050  0.1885
 8667TIP3    H147416   3.387   3.463  14.644 -0.5973  1.1818 -0.0536
 8667TIP3    H247417   3.424   3.413  14.782  1.8184 -0.3357 -1.1991
 8668TIP3   OH247418   4.090   6.483   3.110  0.3080  0.0624  0.3217
 8668TIP3    H147419   4.002   6.514   3.090 -0.1579 -0.4884  1.3684
 8668TIP3    H247420   4.085   6.459   3.203  1.6642  0.3503  0.4838
 8669TIP3   OH247421   1.720   6.024   1.537 -0.5991  0.0528  0.5761
 8669TIP3    H147422   1.768   5.963   1.593 -0.7868 -0.2070  0.4596
 8669TIP3    H247423   1.728   6.109   1.581 -0.4927 -0.0921  0.8386
 8670TIP3   OH247424   3.392   1.035  12.265 -0.0187 -0.4263  0.0106
 8670TIP3    H147425   3.321   1.069  12.319  1.1141 -1.8005  2.6042
 8670TIP3    H247426   3.459   1.104  12.267 -0.1531 -0.2961  0.0060
 8671TIP3   OH247427   5.100   1.231  13.983 -0.2087  0.1676 -0.4107
 8671TIP3    H147428   5.136   1.285  14.052 -1.2007 -0.7851  0.9085
 8671TIP3    H247429   5.176   1.204  13.931  0.3767  2.1716 -0.6836
 8672TIP3   OH247430   4.436   4.865   0.191 -0.1396  0.9954  0.1732
 8672TIP3    H147431   4.529   4.844   0.184 -0.5387 -0.7896 -0.0724
 8672TIP3    H247432   4.409   4.830   0.275 -1.1540 -0.9139 -0.8929
 8673TIP3   OH247433   0.439   6.500   4.056 -0.3585  0.5155  0.6437
 8673TIP3    H147434   0.490   6.448   3.995 -0.0140  1.1011  0.4245
 8673TIP3    H247435   0.372   6.440   4.090  0.3032 -0.1824  0.7316
 8674TIP3   OH247436   3.712   3.927  15.439  0.0386 -0.0927  0.3360
 8674TIP3    H147437   3.801   3.893  15.428 -0.3925 -1.0965 -0.1767
 8674TIP3    H247438   3.723   4.006  15.491  1.2202 -0.2749  0.3925
 8675TIP3   OH247439   5.870   4.495  16.503 -0.1657 -0.2110 -0.3035
 8675TIP3    H147440   5.850   4.406  16.533  0.7924 -0.2849  0.1475
 8675TIP3    H247441   5.962   4.491  16.476  0.9575  1.4032  2.8245
 8676TIP3   OH247442   5.960   3.550  13.551  0.1832 -0.1092  0.3535
 8676TIP3    H147443   6.030   3.498  13.591 -0.4201 -0.2453  1.2605
 8676TIP3    H247444   5.928   3.496  13.479  0.6777 -0.2702  0.2548
 8677TIP3   OH247445   5.316   3.325  12.868 -0.0845 -0.3316  0.0168
 8677TIP3    H147446   5.300   3.417  12.889  0.3643  0.0273 -1.1722
 8677TIP3    H247447   5.368   3.327  12.788  3.1588 -1.5237  1.9188
 8678TIP3   OH247448   3.211   4.885  11.107  0.1249  0.1152  0.1987
 8678TIP3    H147449   3.126   4.871  11.148  0.0553 -0.7701 -0.2416
 8678TIP3    H247450   3.235   4.800  11.071  0.3827  0.7758 -1.2418
 8679TIP3   OH247451   3.883   6.573  15.718  0.0710 -0.4038  0.1884
 8679TIP3    H147452   3.893   6.505  15.652 -0.3380  0.7032 -1.0755
 8679TIP3    H247453   3.969   6.616  15.720  0.8410 -1.9085  2.1504
 8680TIP3   OH247454   4.665   0.574   4.892  0.1458 -0.0333  0.0392
 8680TIP3    H147455   4.722   0.596   4.819 -1.2365 -2.2734 -1.8759
 8680TIP3    H247456   4.587   0.536   4.851 -1.4037  0.0629  2.6401
 8681TIP3   OH247457   4.942   2.707  14.631 -0.0973 -0.5964 -0.0064
 8681TIP3    H147458   4.858   2.708  14.677 -0.8107  0.5253 -1.2593
 8681TIP3    H247459   4.956   2.615  14.609  0.3027 -1.2008  2.4036
 8682TIP3   OH247460   3.042   6.319   3.770 -0.4635 -0.3935  0.2639
 8682TIP3    H147461   2.954   6.330   3.806 -0.2199  0.5029  0.6134
 8682TIP3    H247462   3.086   6.260   3.832 -0.2482  0.6374  1.1376
 8683TIP3   OH247463   1.965   3.584  15.151  0.3525  0.1854 -0.0153
 8683TIP3    H147464   1.922   3.500  15.133  0.2496 -0.3328  2.3632
 8683TIP3    H247465   1.971   3.626  15.065 -1.9057 -1.1358 -0.9123
 8684TIP3   OH247466   2.280   1.569   4.370  0.5054  0.6953 -0.1741
 8684TIP3    H147467   2.375   1.557   4.371  0.5535  1.0617  1.4145
 8684TIP3    H247468   2.246   1.479   4.370  0.8283  0.5537 -1.3163
 8685TIP3   OH247469   3.996   3.457  14.182 -0.8929  0.3185 -0.2748
 8685TIP3    H147470   3.993   3.378  14.128 -2.2771  0.9149 -1.1202
 8685TIP3    H247471   4.010   3.528  14.119 -0.4703  0.8400  0.3892
 8686TIP3   OH247472   4.355   2.684   1.531 -0.3172 -0.3022 -0.1609
 8686TIP3    H147473   4.329   2.599   1.567 -2.5142  0.3777 -0.0299
 8686TIP3    H247474   4.415   2.662   1.459 -0.0213 -1.8937  0.5201
 8687TIP3   OH247475   3.204   4.334  11.149  0.4351 -0.0453 -0.3870
 8687TIP3    H147476   3.161   4.394  11.087 -0.0254  0.2036  0.1586
 8687TIP3    H247477   3.214   4.252  11.101  0.4796  0.2742 -0.9308
 8688TIP3   OH247478   3.571   2.786   1.838  0.6079  0.4587  0.2076
 8688TIP3    H147479   3.526   2.777   1.922 -0.0845  1.1419 -0.0786
 8688TIP3    H247480   3.613   2.872   1.843  1.2192  0.1714  0.1509
 8689TIP3   OH247481   4.433   3.382   1.797 -0.1338  0.0280 -0.3952
 8689TIP3    H147482   4.354   3.384   1.742  0.3539 -0.8608 -1.1453
 8689TIP3    H247483   4.490   3.450   1.759 -0.8160  1.2208  0.6232
 8690TIP3   OH247484   3.434   1.553  15.379 -0.2942 -0.2835  0.0933
 8690TIP3    H147485   3.441   1.506  15.296 -1.1486 -0.1349 -0.0704
 8690TIP3    H247486   3.345   1.534  15.411 -0.9059  1.7001 -0.2969
 8691TIP3   OH247487   3.357   3.150  14.222 -0.2251 -0.1255  0.3727
 8691TIP3    H147488   3.275   3.105  14.241 -0.4616  0.5251  0.9527
 8691TIP3    H247489   3.341   3.195  14.139  0.1224 -1.3411 -0.3789
 8692TIP3   OH247490   2.496   1.137  16.758 -0.1571  0.1434 -0.1734
 8692TIP3    H147491   2.445   1.085  16.820  1.3260 -1.7988 -0.4533
 8692TIP3    H247492   2.551   1.193  16.812 -1.1228  0.7951  0.1608
 8693TIP3   OH247493   4.993   2.261  15.601 -0.4860  0.0808 -0.1741
 8693TIP3    H147494   5.018   2.350  15.628 -0.1834 -0.0915  0.1159
 8693TIP3    H247495   4.975   2.215  15.683 -0.3694 -0.2081 -0.3095
 8694TIP3   OH247496   4.430   0.693  13.412  0.4277  0.3947  0.0622
 8694TIP3    H147497   4.476   0.665  13.333  2.1382  0.7737  0.8833
 8694TIP3    H247498   4.431   0.789  13.407  0.9717  0.4315  0.7625
 8695TIP3   OH247499   2.716   2.585   3.214  0.1823  0.3359 -0.0768
 8695TIP3    H147500   2.722   2.665   3.266 -0.6670 -0.3348  1.0868
 8695TIP3    H247501   2.623   2.561   3.217  0.3702 -0.5216 -0.6865
 8696TIP3   OH247502   2.124   3.216   5.445  0.5076 -0.3241  0.1646
 8696TIP3    H147503   2.060   3.287   5.451  0.9721  0.2659 -1.3998
 8696TIP3    H247504   2.134   3.199   5.352 -0.1456 -3.0034  0.4893
 8697TIP3   OH247505   0.930   0.617  11.753 -0.2511  0.1337  0.0498
 8697TIP3    H147506   0.953   0.682  11.688 -0.0080  0.7639  0.7532
 8697TIP3    H247507   0.977   0.643  11.832 -0.1126 -0.9203  0.3375
 8698TIP3   OH247508   6.765   0.946   3.151  0.2716 -0.4287 -0.2083
 8698TIP3    H147509   6.817   0.897   3.214  0.1012 -1.4847 -0.8799
 8698TIP3    H247510   6.809   1.031   3.144  2.4992 -1.6019 -1.4747
 8699TIP3   OH247511   5.906   1.667   0.854 -0.1667 -0.5003 -0.8528
 8699TIP3    H147512   5.929   1.619   0.774  2.1375 -1.3247  0.2146
 8699TIP3    H247513   5.849   1.737   0.824 -0.2707 -1.4488 -3.0625
 8700TIP3   OH247514   0.897   0.099   6.092  0.5255  0.2734  0.3474
 8700TIP3    H147515   0.860   0.072   6.176  0.6465 -0.0164  0.3088
 8700TIP3    H247516   0.920   0.191   6.105  0.3393  0.2918  0.5597
 8701TIP3   OH247517   5.377   4.901  13.952  0.2837  0.2169  0.0129
 8701TIP3    H147518   5.367   4.985  13.907  0.7843  1.0260  1.3752
 8701TIP3    H247519   5.352   4.919  14.042 -0.7188 -1.3837  0.0929
 8702TIP3   OH247520   2.593   1.767  15.164 -0.5141  0.4409 -0.5767
 8702TIP3    H147521   2.635   1.737  15.084 -1.3226 -0.5176 -0.6612
 8702TIP3    H247522   2.549   1.689  15.199  0.3573  0.6724  1.1480
 8703TIP3   OH247523   2.577   0.474  12.623  0.4599 -0.1737 -0.5098
 8703TIP3    H147524   2.575   0.384  12.655  0.2083 -0.0651 -0.2154
 8703TIP3    H247525   2.586   0.528  12.702 -0.1744  0.0958 -0.6137
 8704TIP3   OH247526   4.982   2.628  12.603 -0.0497  0.0599  0.4063
 8704TIP3    H147527   4.969   2.610  12.697  0.9424  0.1421  0.5738
 8704TIP3    H247528   5.043   2.559  12.575  0.9203  0.9697  0.2079
 8705TIP3   OH247529   4.704   4.553   2.968 -0.1742 -0.1828 -0.8929
 8705TIP3    H147530   4.708   4.621   2.901  0.6287  0.6631 -0.0136
 8705TIP3    H247531   4.610   4.544   2.986 -0.3318  0.2804 -1.4305
 8706TIP3   OH247532   0.188   1.256   3.279  0.1185  0.4811  0.0413
 8706TIP3    H147533   0.112   1.228   3.229 -1.2954  0.6007  2.0174
 8706TIP3    H247534   0.254   1.188   3.262 -0.1014  0.7781 -2.3016
 8707TIP3   OH247535   5.095   5.189   5.805 -0.0160  0.1812  0.7618
 8707TIP3    H147536   5.050   5.112   5.770  0.4854  0.6415 -0.9835
 8707TIP3    H247537   5.026   5.237   5.851 -0.9502  0.0219 -0.4244
 8708TIP3   OH247538   6.455   0.866   1.535  0.9550  0.1541 -0.8688
 8708TIP3    H147539   6.509   0.934   1.574  0.8736  0.2771 -0.9705
 8708TIP3    H247540   6.372   0.908   1.517  0.5230 -0.2598  0.0821
 8709TIP3   OH247541   2.073   0.629   0.774 -0.5551  0.1797 -0.5084
 8709TIP3    H147542   2.024   0.614   0.692 -0.7424  1.1460 -0.5846
 8709TIP3    H247543   2.165   0.624   0.748 -0.6151 -0.2725 -0.6345
 8710TIP3   OH247544   5.762   6.365   6.210  0.6991  0.3544 -0.0842
 8710TIP3    H147545   5.731   6.397   6.294 -3.2579 -0.7867 -0.8985
 8710TIP3    H247546   5.829   6.300   6.232  0.9028  1.2042  2.0508
 8711TIP3   OH247547   5.172   2.996   1.059  0.0971  0.1253 -0.1574
 8711TIP3    H147548   5.101   3.039   1.107  0.2221 -2.5383  2.8017
 8711TIP3    H247549   5.131   2.919   1.020  0.8454  0.0244 -0.7486
 8712TIP3   OH247550   3.983   4.701  12.611  0.4559  0.1750 -0.0210
 8712TIP3    H147551   4.039   4.664  12.679  0.3195  1.0338  0.5738
 8712TIP3    H247552   3.993   4.796  12.620 -1.4823  0.3817  0.4742
 8713TIP3   OH247553   4.944   1.468  12.634 -0.0733  0.1942 -0.5813
 8713TIP3    H147554   4.906   1.470  12.546 -0.4938  1.5153 -0.3899
 8713TIP3    H247555   5.037   1.488  12.621 -0.6543  3.3431 -0.5170
 8714TIP3   OH247556   4.171   0.344  12.266 -0.0282 -0.0797  0.2814
 8714TIP3    H147557   4.217   0.354  12.349  1.4268  0.0857 -0.5134
 8714TIP3    H247558   4.126   0.260  12.273  1.1641 -0.6892  0.7322
 8715TIP3   OH247559   1.554   2.830   2.405 -0.0047 -0.2303  0.9206
 8715TIP3    H147560   1.507   2.913   2.399  1.2833  0.4636 -0.4301
 8715TIP3    H247561   1.574   2.821   2.499 -2.9002 -0.6776  1.5765
 8716TIP3   OH247562   5.665   1.482  15.809 -0.0786 -0.1680 -0.4512
 8716TIP3    H147563   5.691   1.418  15.743  0.8845 -1.2360  0.8975
 8716TIP3    H247564   5.584   1.520  15.776 -0.2894 -1.5848 -1.6315
 8717TIP3   OH247565   2.751   3.665   3.179  0.3299 -0.6832 -0.3348
 8717TIP3    H147566   2.837   3.707   3.172 -0.1220  1.2136  3.0343
 8717TIP3    H247567   2.690   3.730   3.144 -0.0103 -0.2436  1.0006
 8718TIP3   OH247568   4.879   6.295  13.624 -0.1558 -0.0269 -0.0727
 8718TIP3    H147569   4.795   6.310  13.668  0.3861  0.6976  0.7661
 8718TIP3    H247570   4.917   6.383  13.616  0.9320 -0.4309  0.4205
 8719TIP3   OH247571   2.742   6.056   4.881  0.2190  0.0350 -0.2241
 8719TIP3    H147572   2.720   5.964   4.893 -1.1457  0.4188  0.5678
 8719TIP3    H247573   2.745   6.091   4.970  0.7067  0.7626 -0.5175
 8720TIP3   OH247574   4.195   0.196   2.975  0.0034 -0.0432  0.1194
 8720TIP3    H147575   4.144   0.233   3.046  0.3064 -1.8247  1.3156
 8720TIP3    H247576   4.219   0.108   3.005 -0.3218 -1.0817 -2.3895
 8721TIP3   OH247577   3.310   2.225  14.670  0.1238 -0.1716  0.8660
 8721TIP3    H147578   3.257   2.273  14.606 -1.8369 -2.5616  0.5517
 8721TIP3    H247579   3.363   2.165  14.618  1.0768  0.2522  1.3329
 8722TIP3   OH247580   6.434   2.543  14.048  0.4620  0.2623 -0.0444
 8722TIP3    H147581   6.522   2.575  14.026  1.0883  0.1425  2.0845
 8722TIP3    H247582   6.438   2.449  14.029  0.5727  0.3647 -0.5567
 8723TIP3   OH247583   2.732   4.597  12.981  0.1443  0.1086 -0.0599
 8723TIP3    H147584   2.771   4.672  12.937  0.2671  0.6643  0.9549
 8723TIP3    H247585   2.805   4.536  12.994  0.1367  0.0070 -0.4804
 8724TIP3   OH247586   0.884   3.239   2.034 -0.1940  0.0298 -0.6932
 8724TIP3    H147587   0.900   3.154   1.993  0.4519  0.7627 -2.0331
 8724TIP3    H247588   0.838   3.290   1.968  1.3904  1.4511 -0.7780
 8725TIP3   OH247589   0.636   0.810   5.619  0.4361 -0.1578 -0.8151
 8725TIP3    H147590   0.548   0.840   5.641  0.4484 -1.2075  0.8790
 8725TIP3    H247591   0.690   0.888   5.625 -0.3579  0.5013 -1.8746
 8726TIP3   OH247592   4.936   2.465   4.558 -0.6977  0.1146 -0.2473
 8726TIP3    H147593   4.925   2.377   4.593  1.3866  0.0966  0.5310
 8726TIP3    H247594   4.975   2.451   4.471 -0.2064  0.2591 -0.0535
 8727TIP3   OH247595   1.286   0.209  15.153 -0.1423  0.2817  0.2096
 8727TIP3    H147596   1.273   0.151  15.228 -0.6389  0.8105  0.5424
 8727TIP3    H247597   1.335   0.156  15.091  1.2387  0.1740  1.3396
 8728TIP3   OH247598   3.630   5.509   6.539 -0.6572  0.2887 -0.0400
 8728TIP3    H147599   3.582   5.426   6.533 -0.2300  0.0854 -0.8096
 8728TIP3    H247600   3.717   5.488   6.505 -0.4577  0.9862  0.0378
 8729TIP3   OH247601   6.485   1.471   5.986 -0.1681 -0.2516 -0.0279
 8729TIP3    H147602   6.508   1.485   6.078  0.2156  0.0096 -0.1625
 8729TIP3    H247603   6.403   1.422   5.990 -0.5250  0.3552  0.4594
 8730TIP3   OH247604   3.311   3.280  11.645 -0.0531  0.1270 -0.1977
 8730TIP3    H147605   3.381   3.254  11.584 -0.4669  0.1019 -0.6653
 8730TIP3    H247606   3.236   3.226  11.621 -0.5689  0.9257 -0.4177
 8731TIP3   OH247607   6.704   4.120  11.053  0.0585  0.0858 -0.3063
 8731TIP3    H147608   6.781   4.097  11.105  0.8467  2.1023 -0.4752
 8731TIP3    H247609   6.702   4.216  11.056 -2.0566  0.1065 -0.8904
 8732TIP3   OH247610   3.178   6.297  12.804 -0.1704 -0.5467  0.5869
 8732TIP3    H147611   3.220   6.280  12.719 -1.4516 -1.8897  0.1856
 8732TIP3    H247612   3.195   6.390  12.821 -0.0332 -0.2071 -1.2289
 8733TIP3   OH247613   0.062   1.995   1.229 -0.4587  0.1094  0.3232
 8733TIP3    H147614   0.101   2.063   1.283 -0.0003  0.0248  0.1012
 8733TIP3    H247615   0.031   2.041   1.151 -1.9279  0.3788  1.0390
 8734TIP3   OH247616   1.021   2.825   4.160  0.2559  0.1308  0.7377
 8734TIP3    H147617   0.950   2.857   4.215 -0.6185 -0.7669  0.1712
 8734TIP3    H247618   1.074   2.902   4.140 -0.2356  0.7067  1.6416
 8735TIP3   OH247619   5.867   6.573  12.548  0.2671 -0.0101  0.0360
 8735TIP3    H147620   5.782   6.604  12.579  0.4657 -0.8115  1.4859
 8735TIP3    H247621   5.867   6.479  12.570  1.1671 -0.2059 -0.7763
 8736TIP3   OH247622   4.438   1.864   0.759  0.1277  0.0321 -0.0701
 8736TIP3    H147623   4.382   1.937   0.784  2.2731  1.6738  0.3259
 8736TIP3    H247624   4.421   1.852   0.665 -1.8044 -0.4516  0.3054
 8737TIP3   OH247625   5.974   5.683   6.217  0.2756  0.0313  0.2471
 8737TIP3    H147626   5.921   5.622   6.267 -0.4175 -0.0225 -0.5272
 8737TIP3    H247627   6.038   5.627   6.171 -1.1078 -0.2994 -1.3997
 8738TIP3   OH247628   3.684   0.285   5.279  0.2288 -0.0769 -0.3878
 8738TIP3    H147629   3.666   0.196   5.307  0.5116 -1.5164 -4.1492
 8738TIP3    H247630   3.770   0.279   5.235  0.8210  2.3411  0.2920
 8739TIP3   OH247631   2.914   6.160   3.335  0.1828 -0.5737  0.3122
 8739TIP3    H147632   2.870   6.245   3.329  1.5178  0.1163 -0.0380
 8739TIP3    H247633   2.986   6.166   3.272  2.1121 -0.8458  2.4044
 8740TIP3   OH247634   2.403   6.451  11.471  0.7739  0.5895  0.5118
 8740TIP3    H147635   2.359   6.410  11.546 -1.3778 -0.8576 -1.3778
 8740TIP3    H247636   2.335   6.505  11.430  1.6063  0.6011 -0.9263
 8741TIP3   OH247637   3.814   0.931  15.425 -0.3286 -0.4513  0.0555
 8741TIP3    H147638   3.897   0.886  15.414 -0.0234 -0.0081  0.5134
 8741TIP3    H247639   3.828   0.992  15.498 -1.0301 -0.3277  0.1009
 8742TIP3   OH247640   0.392   2.827   3.027 -0.0006 -0.5189  0.6274
 8742TIP3    H147641   0.412   2.906   2.978 -1.1514 -0.6810 -0.1270
 8742TIP3    H247642   0.399   2.854   3.119  1.2801  0.0074  0.3953
 8743TIP3   OH247643   3.691   4.738  15.043  0.0908 -0.5696 -0.4717
 8743TIP3    H147644   3.753   4.674  15.077  0.8994  1.1316  1.5081
 8743TIP3    H247645   3.744   4.795  14.987  0.2997  0.6075  0.8518
 8744TIP3   OH247646   2.751   5.630   6.094  0.0235  0.1399 -0.2017
 8744TIP3    H147647   2.755   5.675   6.009 -2.7082 -1.9979 -1.6477
 8744TIP3    H247648   2.841   5.632   6.126  1.9716 -1.6471 -4.6811
 8745TIP3   OH247649   5.050   0.355   5.298  0.6279  0.3518  0.0311
 8745TIP3    H147650   4.997   0.278   5.317  0.8743  0.2646  0.3801
 8745TIP3    H247651   5.102   0.369   5.378  1.9605 -0.2353 -0.6977
 8746TIP3   OH247652   4.937   1.265   1.538  0.0219 -0.1520  0.3916
 8746TIP3    H147653   4.996   1.325   1.584  1.4277 -1.5429  0.5144
 8746TIP3    H247654   4.920   1.308   1.454 -1.8201  1.9746  1.7644
 8747TIP3   OH247655   3.091   2.738  13.888  0.7319 -0.1468  0.2162
 8747TIP3    H147656   3.130   2.778  13.966  2.0034 -0.3904 -0.2677
 8747TIP3    H247657   3.002   2.773  13.885  1.4329  1.7687  0.4352
 8748TIP3   OH247658   1.658   6.217  10.578 -0.3233  0.1684 -0.2475
 8748TIP3    H147659   1.686   6.220  10.670  0.3294  0.7575 -0.4638
 8748TIP3    H247660   1.684   6.301  10.542  1.4613 -0.8866 -1.5709
 8749TIP3   OH247661   5.469   2.835  11.827 -0.2484 -0.0796  0.2814
 8749TIP3    H147662   5.404   2.807  11.763  0.0294 -1.5445  0.6174
 8749TIP3    H247663   5.480   2.760  11.885  0.1721  0.9058  1.5135
 8750TIP3   OH247664   4.299   3.251   0.738  0.2877  0.0458  0.1087
 8750TIP3    H147665   4.378   3.295   0.769  1.6401 -1.4154 -1.0801
 8750TIP3    H247666   4.307   3.162   0.770 -1.1077 -0.0213  0.3111
 8751TIP3   OH247667   0.894   5.187   3.230  0.0854  0.2006 -0.2507
 8751TIP3    H147668   0.964   5.214   3.289  0.9719 -0.7322 -0.8415
 8751TIP3    H247669   0.860   5.269   3.195 -1.1344  0.8464  2.2428
 8752TIP3   OH247670   4.409   2.054   3.058 -0.9361 -0.0921 -0.4171
 8752TIP3    H147671   4.419   2.100   3.142 -0.6833  2.8318 -1.9272
 8752TIP3    H247672   4.315   2.047   3.045 -0.9842  0.4133 -0.3593
 8753TIP3   OH247673   2.302   3.786   5.022 -0.2956  0.2167  0.2714
 8753TIP3    H147674   2.242   3.820   5.087 -2.0275 -1.9309 -0.0727
 8753TIP3    H247675   2.361   3.728   5.071  0.4011  0.9902  0.3585
 8754TIP3   OH247676   3.159   4.165  13.035 -0.0413  0.3032  0.6484
 8754TIP3    H147677   3.093   4.105  13.001 -0.6184  1.5318 -0.4743
 8754TIP3    H247678   3.212   4.111  13.095 -0.4218 -1.3413 -0.4348
 8755TIP3   OH247679   1.628   1.969   3.892 -0.2820  0.2419  0.4886
 8755TIP3    H147680   1.634   2.020   3.973  0.6906  1.2622 -0.1889
 8755TIP3    H247681   1.711   1.986   3.847 -0.1332 -1.5895  0.0064
 8756TIP3   OH247682   0.774   2.858  10.830  0.2319  0.0563 -1.1437
 8756TIP3    H147683   0.837   2.804  10.781 -0.6818 -1.3823 -0.8109
 8756TIP3    H247684   0.695   2.804  10.833 -0.3616  0.9686  0.2103
 8757TIP3   OH247685   4.269   2.687  10.374  0.5887  0.1163  0.4801
 8757TIP3    H147686   4.323   2.750  10.327 -0.3611  1.1261  0.7251
 8757TIP3    H247687   4.197   2.738  10.410  0.3692 -0.9278  1.5971
 8758TIP3   OH247688   4.621   6.459   4.126  0.6892 -0.0624 -0.4233
 8758TIP3    H147689   4.618   6.431   4.034  1.2580 -1.8301  0.0338
 8758TIP3    H247690   4.707   6.500   4.135  0.0846  1.3707 -0.9764
 8759TIP3   OH247691   1.345   1.158   3.900  0.0840  0.6617 -0.2635
 8759TIP3    H147692   1.281   1.177   3.832 -1.6884  2.6666  1.7757
 8759TIP3    H247693   1.346   1.237   3.954  2.0778 -0.4715  1.5209
 8760TIP3   OH247694   3.907   0.509   3.871  0.3985  0.3657 -0.2699
 8760TIP3    H147695   3.966   0.574   3.832 -0.7865  2.5399  1.3683
 8760TIP3    H247696   3.947   0.488   3.955  0.0340  0.0500 -0.1723
 8761TIP3   OH247697   4.701   0.296  14.631 -0.3696 -0.0606 -0.0283
 8761TIP3    H147698   4.793   0.324  14.628  0.0254 -1.1241  1.2795
 8761TIP3    H247699   4.652   0.373  14.600  0.8589  1.1075  0.8031
 8762TIP3   OH247700   0.769   5.555  15.638 -0.0121 -0.5244  0.2921
 8762TIP3    H147701   0.838   5.497  15.609  1.1741 -0.3410  2.5021
 8762TIP3    H247702   0.702   5.497  15.674  0.6420 -0.6142  1.4158
 8763TIP3   OH247703   3.946   5.894  10.896 -0.2490 -0.4469  0.6613
 8763TIP3    H147704   4.013   5.841  10.852  0.2603  0.4018  0.3670
 8763TIP3    H247705   3.937   5.856  10.983  0.6520 -0.5493  0.7147
 8764TIP3   OH247706   3.473   0.314  16.437 -0.1671  0.1966  0.1629
 8764TIP3    H147707   3.530   0.263  16.380  0.0599  3.3019 -2.7141
 8764TIP3    H247708   3.404   0.347  16.378 -1.2517  1.7523  2.1869
 8765TIP3   OH247709   0.362   0.803   5.137 -0.0639 -0.4636 -0.3563
 8765TIP3    H147710   0.408   0.809   5.221 -1.6764  0.3342  0.5083
 8765TIP3    H247711   0.356   0.708   5.120  0.9124 -0.6061  0.0424
 8766TIP3   OH247712   4.137   2.484  14.181  0.4081 -0.0940  0.2473
 8766TIP3    H147713   4.157   2.534  14.260 -0.1730  2.1619 -0.9316
 8766TIP3    H247714   4.217   2.436  14.161  0.4863 -0.8968  2.2934
 8767TIP3   OH247715   3.879   3.884  12.712 -0.0363 -0.2230  0.3929
 8767TIP3    H147716   3.969   3.908  12.732 -0.7125  1.7106  1.3586
 8767TIP3    H247717   3.852   3.946  12.645 -0.5223 -1.0987 -0.2409
 8768TIP3   OH247718   1.253   1.756  16.925  0.0418 -0.4074  0.1549
 8768TIP3    H147719   1.339   1.723  16.898 -0.8491 -1.3010 -1.8653
 8768TIP3    H247720   1.263   1.778  17.018  3.4233  2.9664 -0.7678
 8769TIP3   OH247721   5.316   1.196   3.945 -0.3792  0.0126  0.1755
 8769TIP3    H147722   5.292   1.149   4.025  0.2309 -0.1635  0.2569
 8769TIP3    H247723   5.233   1.232   3.913 -0.5410  0.6618  1.2499
 8770TIP3   OH247724   3.715   2.301   4.792 -0.3659 -0.1022 -0.3794
 8770TIP3    H147725   3.659   2.369   4.829  1.3491  0.9083  0.5146
 8770TIP3    H247726   3.781   2.349   4.743 -0.1094 -1.2338 -1.1824
 8771TIP3   OH247727   4.157   2.539  15.240  0.0086  0.4089  0.5298
 8771TIP3    H147728   4.188   2.478  15.173 -0.6015 -0.6274  1.1753
 8771TIP3    H247729   4.236   2.574  15.280  0.3975  1.2585 -0.8949
 8772TIP3   OH247730   2.186   4.636  14.414 -0.5679 -0.1558  0.1468
 8772TIP3    H147731   2.124   4.668  14.348 -0.7919  1.0269  0.9050
 8772TIP3    H247732   2.146   4.555  14.447 -0.8466 -0.3286 -0.5992
 8773TIP3   OH247733   0.124   3.208   0.216  0.0315  0.0551  0.3238
 8773TIP3    H147734   0.064   3.256   0.273 -0.2166  0.8176 -0.5646
 8773TIP3    H247735   0.197   3.267   0.201  0.5230 -0.4790  0.5508
 8774TIP3   OH247736   6.373   6.571  13.820  0.3421 -0.1013  0.0368
 8774TIP3    H147737   6.341   6.489  13.858  0.1338 -0.8946 -1.7537
 8774TIP3    H247738   6.336   6.640  13.876  0.0434 -1.1969  1.2268
 8775TIP3   OH247739   2.505   3.520  14.448  0.0192 -0.5994 -0.0029
 8775TIP3    H147740   2.524   3.610  14.475  0.5487 -0.7057 -0.0030
 8775TIP3    H247741   2.425   3.527  14.397 -0.1459 -0.1782  0.3081
 8776TIP3   OH247742   4.312   4.648  11.909  0.5094  0.2836 -0.2388
 8776TIP3    H147743   4.314   4.738  11.876  1.6070 -1.0081 -4.1804
 8776TIP3    H247744   4.223   4.638  11.945 -0.9122  1.9655 -2.9382
 8777TIP3   OH247745   4.019   3.557   4.595  0.2419 -0.3472  0.1379
 8777TIP3    H147746   4.005   3.511   4.678  0.7974 -1.1767 -0.2086
 8777TIP3    H247747   4.065   3.493   4.540  1.0067  0.6189 -0.3771
 8778TIP3   OH247748   3.726   3.792  12.440 -0.0260  0.7312 -0.1860
 8778TIP3    H147749   3.754   3.730  12.373  1.0360  0.4886  0.4559
 8778TIP3    H247750   3.688   3.738  12.509 -0.5464  0.9287 -0.3127
 8779TIP3   OH247751   4.055   4.317  11.123  0.0812 -0.3945 -0.3162
 8779TIP3    H147752   4.042   4.384  11.190 -1.8850 -0.5663 -0.4548
 8779TIP3    H247753   4.149   4.317  11.107  0.4862  0.2885  1.7639
 8780TIP3   OH247754   2.505   1.393  12.901  0.7156 -0.2791 -0.3441
 8780TIP3    H147755   2.417   1.385  12.936  1.0227 -0.0093  0.5055
 8780TIP3    H247756   2.539   1.303  12.901  1.3770 -0.0859  1.8511
 8781TIP3   OH247757   5.579   1.463   5.236 -0.0236  0.4849 -0.2203
 8781TIP3    H147758   5.525   1.529   5.279 -1.2858 -0.2912 -0.5561
 8781TIP3    H247759   5.667   1.502   5.231 -0.8507  2.3651 -0.9422
 8782TIP3   OH247760   4.394   6.343  12.771 -0.2346  0.1074  0.4506
 8782TIP3    H147761   4.316   6.343  12.827 -0.9171 -1.6361 -0.4229
 8782TIP3    H247762   4.398   6.253  12.737  0.7738  0.8249 -1.4207
 8783TIP3   OH247763   4.988   5.679  11.587 -0.3138  0.4926 -0.6215
 8783TIP3    H147764   5.000   5.640  11.673  1.8075  1.2326 -0.5280
 8783TIP3    H247765   4.896   5.705  11.585 -1.0040 -1.6298  0.4843
 8784TIP3   OH247766   4.941   2.418   3.624  0.5019 -0.1300 -0.1640
 8784TIP3    H147767   5.008   2.480   3.594  1.3946 -1.3327 -0.7117
 8784TIP3    H247768   4.911   2.375   3.545 -1.0767  0.5027  0.0579
 8785TIP3   OH247769   4.290   6.457   3.992 -0.0504 -0.2363 -0.3519
 8785TIP3    H147770   4.284   6.391   3.923 -1.6210 -2.0237  1.3651
 8785TIP3    H247771   4.308   6.407   4.072  1.5382  1.7360  0.6284
 8786TIP3   OH247772   6.444   0.568   5.700 -0.2501 -0.1113  0.4513
 8786TIP3    H147773   6.479   0.586   5.788 -0.6555  0.7355  0.4525
 8786TIP3    H247774   6.402   0.650   5.675  0.2382 -0.2034 -0.7165
 8787TIP3   OH247775   3.850   1.994  16.441 -0.2408 -0.0139 -0.1031
 8787TIP3    H147776   3.781   2.018  16.380 -0.4575  1.2608  0.6126
 8787TIP3    H247777   3.815   1.917  16.488 -1.1531  0.5733  0.2038
 8788TIP3   OH247778   0.392   5.827   1.772  0.0392 -0.1270  0.1747
 8788TIP3    H147779   0.304   5.835   1.808 -0.4559 -0.5720 -0.8857
 8788TIP3    H247780   0.402   5.903   1.715  0.5694  0.2354  0.7462
 8789TIP3   OH247781   3.780   0.169   1.263  0.3479  0.4101  0.6702
 8789TIP3    H147782   3.768   0.224   1.185 -1.0821 -0.2004  0.4300
 8789TIP3    H247783   3.692   0.146   1.290  0.8853 -1.2103  1.1634
 8790TIP3   OH247784   5.719   0.148   4.194 -0.2663 -0.4957  0.3416
 8790TIP3    H147785   5.653   0.130   4.127 -0.0804 -0.0775  0.0393
 8790TIP3    H247786   5.697   0.235   4.227 -1.2564 -1.3020  1.9127
 8791TIP3   OH247787   0.942   5.505   4.543 -0.2342 -0.3131  0.1113
 8791TIP3    H147788   0.983   5.538   4.623 -0.9842 -1.6285  1.0697
 8791TIP3    H247789   0.910   5.584   4.499  0.0769  0.4346  1.1710
 8792TIP3   OH247790   2.016   1.761  12.428 -0.1869 -0.2635 -0.0575
 8792TIP3    H147791   2.036   1.833  12.488 -1.1321 -0.7476  0.8768
 8792TIP3    H247792   1.920   1.762  12.421 -0.0967  0.9866 -3.0915
 8793TIP3   OH247793   5.216   5.240   2.993  0.6876 -0.7058  0.2484
 8793TIP3    H147794   5.207   5.145   3.007 -1.3700 -0.6339 -0.2980
 8793TIP3    H247795   5.276   5.248   2.919 -0.3841 -1.6655 -0.7546
 8794TIP3   OH247796   3.437   3.721  16.774  0.1378  0.3491 -0.1357
 8794TIP3    H147797   3.454   3.633  16.807  0.9189 -0.0158 -1.4456
 8794TIP3    H247798   3.495   3.730  16.698 -1.5709  1.1180 -1.4221
 8795TIP3   OH247799   1.311   4.785  16.303 -0.0688  0.0930 -0.0099
 8795TIP3    H147800   1.249   4.796  16.231 -0.5930 -0.5449  0.3314
 8795TIP3    H247801   1.262   4.809  16.381  0.6537  1.2821  0.1014
 8796TIP3   OH247802   1.222   4.525   5.893  0.3876 -0.2707 -0.4517
 8796TIP3    H147803   1.261   4.453   5.844  1.2689  0.0782 -0.2782
 8796TIP3    H247804   1.172   4.482   5.963  0.8012 -0.7188 -0.4272
 8797TIP3   OH247805   6.579   2.822   3.923 -0.3062 -1.0795 -0.4021
 8797TIP3    H147806   6.616   2.884   3.860  2.3769 -0.7384  1.3314
 8797TIP3    H247807   6.645   2.817   3.992 -2.7448 -2.0258  2.0145
 8798TIP3   OH247808   6.257   0.290  11.247 -0.3126  0.0281  0.6182
 8798TIP3    H147809   6.219   0.243  11.173  1.1885 -1.4310  0.7158
 8798TIP3    H247810   6.324   0.347  11.209 -0.7474  0.6035  0.6991
 8799TIP3   OH247811   3.360   2.100  16.993  0.4842  1.2831 -0.2773
 8799TIP3    H147812   3.394   2.127  16.908 -1.3971  2.9506 -0.5704
 8799TIP3    H247813   3.291   2.038  16.972  1.7469 -0.3538  0.2092
 8800TIP3   OH247814   4.528   0.178  14.346  0.2842 -0.0807  0.6348
 8800TIP3    H147815   4.620   0.197  14.331  0.4501 -0.8837  0.5561
 8800TIP3    H247816   4.487   0.181  14.260 -0.0782  1.7488  0.8348
 8801TIP3   OH247817   1.872   0.289   1.874  0.4999 -0.0346  0.0255
 8801TIP3    H147818   1.947   0.245   1.914  0.7289  0.9908  0.7465
 8801TIP3    H247819   1.879   0.380   1.902 -0.4404  0.2941 -0.7491
 8802TIP3   OH247820   4.540   6.626  13.614 -0.3172  0.4544 -0.2013
 8802TIP3    H147821   4.541   6.587  13.701  1.1559  0.5683 -0.1508
 8802TIP3    H247822   4.515   6.717  13.629  1.0282  0.7684  0.2523
 8803TIP3   OH247823   5.187   6.253   3.108 -0.3918  0.0818 -0.2585
 8803TIP3    H147824   5.121   6.191   3.138  0.2095 -0.2303  0.4524
 8803TIP3    H247825   5.143   6.338   3.109  0.1289  0.4888  3.6506
 8804TIP3   OH247826   2.119   5.027   2.244  0.0454 -0.0598 -0.4705
 8804TIP3    H147827   2.171   5.049   2.166 -0.0514 -0.3905 -0.6318
 8804TIP3    H247828   2.170   5.060   2.317 -0.0602  0.6334 -0.7006
 8805TIP3   OH247829   3.224   3.618  11.585  0.0964 -0.6294 -0.4683
 8805TIP3    H147830   3.160   3.570  11.533  0.4065 -0.6648 -0.8240
 8805TIP3    H247831   3.235   3.565  11.665 -1.9001  0.4553  0.5953
 8806TIP3   OH247832   4.996   4.148  16.071 -0.4675  0.1041  0.4603
 8806TIP3    H147833   4.982   4.087  15.999  1.6085  1.2916 -1.0457
 8806TIP3    H247834   4.921   4.134  16.129 -1.7392 -1.5379 -1.4459
 8807TIP3   OH247835   5.181   5.666  16.396  0.8004  0.9376 -0.5882
 8807TIP3    H147836   5.244   5.710  16.453  0.0488  1.0868  0.1540
 8807TIP3    H247837   5.123   5.620  16.456  0.9924 -0.2832 -1.3184
 8808TIP3   OH247838   4.471   3.924  13.038  0.4166 -0.3033 -0.0816
 8808TIP3    H147839   4.510   4.010  13.028  1.3960 -0.6039  0.9057
 8808TIP3    H247840   4.400   3.937  13.101  1.1454 -0.3543  0.7794
 8809TIP3   OH247841   4.902   0.332  12.524  0.4349 -0.2742 -0.2107
 8809TIP3    H147842   4.850   0.350  12.601  1.0936  0.6360  0.0347
 8809TIP3    H247843   4.861   0.383  12.454 -0.4365 -1.4563 -0.5865
 8810TIP3   OH247844   0.856   5.679  13.723  0.2431 -0.0075 -0.2949
 8810TIP3    H147845   0.785   5.631  13.765  0.7018 -0.8816 -0.4915
 8810TIP3    H247846   0.824   5.769  13.716  0.0031  0.0800  1.5373
 8811TIP3   OH247847   1.434   5.846   4.026 -0.1830  0.1046 -0.1101
 8811TIP3    H147848   1.423   5.810   3.938  2.2310 -0.7624 -0.1363
 8811TIP3    H247849   1.465   5.772   4.079  0.5664  1.1033  0.9145
 8812TIP3   OH247850   3.617   0.140   3.136 -0.2931  0.5064 -0.3180
 8812TIP3    H147851   3.677   0.082   3.183 -1.0147 -1.4638 -1.6516
 8812TIP3    H247852   3.561   0.080   3.086 -1.3397  2.3720 -1.5070
 8813TIP3   OH247853   1.284   0.759   4.051 -0.1321 -0.1957 -0.9042
 8813TIP3    H147854   1.348   0.695   4.081  1.1721  1.3660 -0.2334
 8813TIP3    H247855   1.211   0.750   4.113  0.9512  0.4202  0.5098
 8814TIP3   OH247856   6.526   5.593   6.039  0.4341 -0.0260  0.1032
 8814TIP3    H147857   6.518   5.677   6.084  1.9717  0.0532  0.2814
 8814TIP3    H247858   6.554   5.532   6.108  1.8429 -0.1097 -0.4959
 8815TIP3   OH247859   0.666   3.742  11.824  0.1826  0.3617  0.0654
 8815TIP3    H147860   0.760   3.760  11.816  0.0422  1.0371 -0.1409
 8815TIP3    H247861   0.645   3.767  11.914  0.5341 -1.4487  0.7023
 8816TIP3   OH247862   5.147   6.769  11.883 -0.3886  0.4901  0.0900
 8816TIP3    H147863   5.144   6.692  11.827  0.1028 -0.0871  0.8305
 8816TIP3    H247864   5.079   6.754  11.949 -0.6640  0.9557 -0.0797
 8817TIP3   OH247865   4.430   2.142  16.450  0.0252  0.3381  0.7947
 8817TIP3    H147866   4.516   2.102  16.435  0.2481  0.8361  0.7127
 8817TIP3    H247867   4.411   2.124  16.542 -0.3227 -0.7868  0.5205
 8818TIP3   OH247868   3.446   5.844   4.367 -0.2099 -0.7963 -0.0876
 8818TIP3    H147869   3.455   5.753   4.396  1.1115 -0.5463  0.3363
 8818TIP3    H247870   3.467   5.842   4.274 -0.6635 -1.0010 -0.1858
 8819TIP3   OH247871   3.315   1.490  16.744  0.2399 -0.6275  0.0033
 8819TIP3    H147872   3.256   1.564  16.754 -0.6843 -1.4870  1.2370
 8819TIP3    H247873   3.288   1.428  16.812  2.0913 -1.3714  0.1166
 8820TIP3   OH247874   5.556   3.118  11.958  0.1501  0.0874 -0.0727
 8820TIP3    H147875   5.499   3.061  11.907 -0.1038  1.1642 -1.0328
 8820TIP3    H247876   5.643   3.079  11.948 -0.3040 -1.2431  0.9402
 8821TIP3   OH247877   6.494   3.196  13.851  0.2269  0.2204  0.3670
 8821TIP3    H147878   6.463   3.270  13.904 -0.2668  0.5837 -0.4131
 8821TIP3    H247879   6.588   3.212  13.840  0.3447  0.1192  1.1500
 8822TIP3   OH247880   2.551   1.083   5.555  0.3455 -0.2179 -0.8596
 8822TIP3    H147881   2.539   1.174   5.526 -0.7774  0.6280  1.9156
 8822TIP3    H247882   2.462   1.050   5.569  0.7391 -1.8083 -1.8830
 8823TIP3   OH247883   0.049   3.124   1.384  0.1195  1.5199  0.1057
 8823TIP3    H147884  -0.021   3.112   1.320  0.5867  0.5482 -0.2473
 8823TIP3    H247885   0.101   3.197   1.350  0.6361  0.7103 -0.8937
 8824TIP3   OH247886   6.607   1.601   6.184 -0.0524  0.9548 -0.3257
 8824TIP3    H147887   6.575   1.691   6.188 -3.5318 -0.0912 -0.8139
 8824TIP3    H247888   6.642   1.585   6.272 -0.4318  2.4568  0.1424
 8825TIP3   OH247889   4.804   2.522  13.734 -0.3248 -0.5413  0.3602
 8825TIP3    H147890   4.873   2.467  13.770 -1.2070 -1.1566  1.1792
 8825TIP3    H247891   4.842   2.610  13.731  0.2745 -0.7487  1.4174
 8826TIP3   OH247892   4.584   2.788   4.214  0.0424 -0.1921  0.1719
 8826TIP3    H147893   4.624   2.805   4.299 -3.0401  2.5787  1.2898
 8826TIP3    H247894   4.648   2.820   4.151  1.0803  0.7187  1.6230
 8827TIP3   OH247895   4.135   0.848   2.672  0.0239 -0.7806  0.1398
 8827TIP3    H147896   4.222   0.887   2.684 -0.1521  0.1745 -1.5029
 8827TIP3    H247897   4.124   0.841   2.578 -0.9024 -2.7531  0.3366
 8828TIP3   OH247898   0.991   3.392   4.062 -0.4393 -0.0292  0.3593
 8828TIP3    H147899   1.078   3.352   4.062  0.0345  0.9542  0.7382
 8828TIP3    H247900   0.980   3.427   3.974 -1.7173 -2.6984 -0.6493
 8829TIP3   OH247901   4.551   3.947  11.580 -0.6714  0.2395 -0.1743
 8829TIP3    H147902   4.575   4.021  11.525  0.7802  0.6780  1.0150
 8829TIP3    H247903   4.602   3.958  11.660 -1.2166 -1.4771  0.4520
 8830TIP3   OH247904   0.863   6.238   4.656  0.2695  0.6244 -0.7391
 8830TIP3    H147905   0.821   6.267   4.738  1.0550  1.6775 -0.6840
 8830TIP3    H247906   0.792   6.196   4.607 -0.0305 -0.8213  0.8236
 8831TIP3   OH247907   0.019   2.111  11.786  0.2754  0.2355  0.7097
 8831TIP3    H147908  -0.067   2.069  11.788  0.5091 -0.3220 -0.3327
 8831TIP3    H247909   0.002   2.203  11.808 -0.3921 -0.1462  1.9096
 8832TIP3   OH247910   2.385   5.090   3.151 -0.0280 -0.1485 -0.1538
 8832TIP3    H147911   2.422   5.099   3.238  0.5386  0.2448 -0.4360
 8832TIP3    H247912   2.305   5.038   3.165 -0.8361  1.2912  0.8206
 8833TIP3   OH247913   3.316   2.761  12.063 -0.1022  0.0665  0.1296
 8833TIP3    H147914   3.286   2.693  12.003 -0.0617  0.4655 -0.3480
 8833TIP3    H247915   3.302   2.724  12.150 -0.2923 -0.4611 -0.1230
 8834TIP3   OH247916   4.679   6.547  11.849 -0.0380  0.3787  0.1897
 8834TIP3    H147917   4.698   6.626  11.799 -0.2133  0.7799  0.7480
 8834TIP3    H247918   4.587   6.554  11.873 -0.2026 -0.2674 -0.2261
 8835TIP3   OH247919   0.391   3.109   0.395 -0.0221 -0.8879 -0.5099
 8835TIP3    H147920   0.305   3.090   0.433  0.1556 -1.9702 -0.6127
 8835TIP3    H247921   0.433   3.023   0.387  0.5909 -0.5059 -1.6052
 8836TIP3   OH247922   1.391   3.651   6.404 -0.8916 -0.0680 -0.9256
 8836TIP3    H147923   1.428   3.722   6.458 -0.4751 -1.1406  0.2442
 8836TIP3    H247924   1.467   3.598   6.380 -1.2831 -0.5036 -1.2031
 8837TIP3   OH247925   2.353   5.797   5.755  0.2138 -0.3547  0.2039
 8837TIP3    H147926   2.319   5.719   5.800 -0.1324 -0.2107  0.1930
 8837TIP3    H247927   2.421   5.762   5.697  0.4683 -0.5757  0.6262
 8838TIP3   OH247928   6.087   0.926  12.609 -0.0095 -0.3094 -0.1143
 8838TIP3    H147929   6.154   0.988  12.638 -0.3793  1.2727 -2.3916
 8838TIP3    H247930   6.136   0.858  12.562  0.0594  1.7089 -3.2629
 8839TIP3   OH247931   5.780   6.145   0.085  0.2807  0.2420 -0.1569
 8839TIP3    H147932   5.828   6.067   0.113  2.1818  1.3971 -0.0016
 8839TIP3    H247933   5.691   6.131   0.116  1.1756 -0.6925  2.2190
 8840TIP3   OH247934   6.484   2.211  11.822  0.1811 -0.5016  0.2207
 8840TIP3    H147935   6.446   2.192  11.908  0.4619 -2.0959  0.0120
 8840TIP3    H247936   6.520   2.128  11.792  0.8607  0.2255 -1.0714
 8841TIP3   OH247937   4.835   1.364  12.882 -0.1865 -0.2024 -0.6384
 8841TIP3    H147938   4.753   1.343  12.837 -0.8213  0.0693  0.3460
 8841TIP3    H247939   4.893   1.395  12.813 -0.6055 -1.2430 -1.4940
 8842TIP3   OH247940   6.093   1.439   4.639 -0.6362  0.2277 -0.1041
 8842TIP3    H147941   6.068   1.347   4.632 -0.2532  0.0344  0.8093
 8842TIP3    H247942   6.047   1.483   4.568  0.8287 -0.9978 -1.9173
 8843TIP3   OH247943   1.555   4.657  15.083 -0.7355 -0.3642 -0.3371
 8843TIP3    H147944   1.484   4.605  15.119 -0.3798  0.5315  1.8469
 8843TIP3    H247945   1.551   4.740  15.132  2.1923 -0.5456  0.4006
 8844TIP3   OH247946   1.880   1.203   0.917 -0.1301 -0.2295  0.6805
 8844TIP3    H147947   1.880   1.130   0.855 -2.3981 -0.3525  0.7126
 8844TIP3    H247948   1.889   1.281   0.862  0.3109 -0.4418  0.4494
 8845TIP3   OH247949   4.432   5.358   4.959 -0.0002 -0.5914  0.0441
 8845TIP3    H147950   4.486   5.401   5.025 -0.5700 -0.8515  0.6991
 8845TIP3    H247951   4.465   5.268   4.955 -1.2240 -1.1661  1.4705
 8846TIP3   OH247952   3.378   0.472   2.401 -0.1271 -0.7349  0.5671
 8846TIP3    H147953   3.357   0.442   2.489 -1.2953 -1.9255 -0.1007
 8846TIP3    H247954   3.297   0.510   2.368  0.7476  1.3186  0.6020
 8847TIP3   OH247955   2.380   2.677  10.980 -0.5408 -0.2182  0.3088
 8847TIP3    H147956   2.354   2.766  10.958 -2.9015 -1.1451 -1.0494
 8847TIP3    H247957   2.372   2.629  10.898  2.3991 -1.3925  0.5908
 8848TIP3   OH247958   5.348   5.938   3.417  0.1275 -0.5650 -0.2222
 8848TIP3    H147959   5.346   5.881   3.495 -1.0099 -0.6223 -0.2706
 8848TIP3    H247960   5.319   6.023   3.450  2.5579  0.2530  0.0087
 8849TIP3   OH247961   0.679   3.399   1.292 -0.3742  0.2115 -0.6263
 8849TIP3    H147962   0.657   3.480   1.247 -1.6662  0.2937  0.1080
 8849TIP3    H247963   0.603   3.380   1.347  2.0877  1.5232  3.6354
 8850TIP3   OH247964   6.068   0.552   3.793  0.0119 -0.8070  0.2939
 8850TIP3    H147965   6.148   0.571   3.744 -0.1187 -0.5694  0.1730
 8850TIP3    H247966   5.998   0.587   3.739 -0.0735  0.1785  1.0324
 8851TIP3   OH247967   1.396   2.089  15.977 -0.2332  0.6592  0.0337
 8851TIP3    H147968   1.365   2.157  16.037  0.0973  0.4025  0.4982
 8851TIP3    H247969   1.486   2.113  15.957 -0.1265  0.3761  0.1709
 8852TIP3   OH247970   0.465   6.425   5.014 -0.0269  0.6932  0.1756
 8852TIP3    H147971   0.387   6.448   4.963  0.7839  1.4088 -0.7850
 8852TIP3    H247972   0.485   6.335   4.988 -0.4602  0.5469  0.3396
 8853TIP3   OH247973   4.043   1.610  15.189  0.0801  0.2995  0.2661
 8853TIP3    H147974   4.120   1.586  15.241  0.7432  0.1801 -0.7379
 8853TIP3    H247975   4.062   1.699  15.159 -1.7695  1.7239  2.8909
 8854TIP3   OH247976   4.404   0.443  13.539 -0.1945  0.3921  0.1467
 8854TIP3    H147977   4.403   0.519  13.481 -2.1785 -0.3731 -0.9314
 8854TIP3    H247978   4.346   0.380  13.496 -0.6653 -0.7356  2.3077
 8855TIP3   OH247979   0.227   1.796  14.716 -0.5271  0.0540 -0.0423
 8855TIP3    H147980   0.254   1.794  14.625 -0.7963 -0.4781 -0.1161
 8855TIP3    H247981   0.263   1.716  14.754 -1.9919 -0.6838 -0.1512
 8856TIP3   OH247982   0.691   0.409   4.635  0.5714 -0.4402  0.0408
 8856TIP3    H147983   0.717   0.360   4.713 -1.4909 -0.6422  0.6525
 8856TIP3    H247984   0.646   0.345   4.580 -1.8533  0.6135  0.6935
 8857TIP3   OH247985   3.555   1.685   1.702  0.0586 -0.6519  0.3009
 8857TIP3    H147986   3.540   1.771   1.742  0.2614 -1.0244  1.2221
 8857TIP3    H247987   3.494   1.682   1.628 -0.2773  0.1049  0.5302
 8858TIP3   OH247988   5.512   5.172  11.266  0.1523  0.8178  0.2945
 8858TIP3    H147989   5.457   5.251  11.264 -0.5349  0.3409 -0.1955
 8858TIP3    H247990   5.481   5.120  11.192  0.0027 -0.3070  1.1294
 8859TIP3   OH247991   4.698   0.586   1.039 -0.4096  0.2769 -0.1612
 8859TIP3    H147992   4.786   0.623   1.047 -0.5313  0.4948  0.2042
 8859TIP3    H247993   4.711   0.501   0.996  0.0974 -0.1540  0.7970
 8860TIP3   OH247994   0.019   3.424   4.100 -0.1146  0.2795 -0.0396
 8860TIP3    H147995   0.075   3.363   4.053  0.5877  1.2926 -0.5752
 8860TIP3    H247996   0.055   3.427   4.189  0.3708  0.5279 -0.2401
 8861TIP3   OH247997   6.060   4.777   2.600  0.4587  0.1009  0.7070
 8861TIP3    H147998   6.098   4.842   2.658  0.6050 -0.7691  1.6139
 8861TIP3    H247999   6.131   4.755   2.539  0.8417 -0.1778  1.2459
 8862TIP3   OH248000   1.057   4.713  13.570  0.4208 -0.4800 -0.3380
 8862TIP3    H148001   1.027   4.624  13.590 -0.3221  0.0220  0.9486
 8862TIP3    H248002   0.980   4.767  13.584  1.0802  0.4609 -0.2863
 8863TIP3   OH248003   4.808   6.591   3.403  0.0635 -0.0471  0.2431
 8863TIP3    H148004   4.875   6.541   3.356  0.2085 -0.0156  0.4184
 8863TIP3    H248005   4.797   6.671   3.351 -0.1429 -0.2410 -0.0182
 8864TIP3   OH248006   5.404   0.659   0.766 -0.4710  0.1635 -0.3710
 8864TIP3    H148007   5.498   0.648   0.782 -0.0610  0.6549 -2.2897
 8864TIP3    H248008   5.364   0.648   0.853  1.1458 -2.0511  0.1883
 8865TIP3   OH248009   6.106   5.457  16.342  0.5903  0.7681  0.0349
 8865TIP3    H148010   6.012   5.465  16.323  0.1095  0.0397  1.9508
 8865TIP3    H248011   6.148   5.466  16.256 -1.2747  0.2211 -0.9913
 8866TIP3   OH248012   1.395   2.544   3.333  0.1470  0.5186 -0.4544
 8866TIP3    H148013   1.464   2.568   3.271 -0.9142  1.7615 -1.2237
 8866TIP3    H248014   1.320   2.523   3.278 -0.8515  1.7457  0.3698
 8867TIP3   OH248015   0.943   5.844   0.308  0.4451  0.6530  0.3031
 8867TIP3    H148016   0.898   5.836   0.224 -0.7012 -0.6056  1.0065
 8867TIP3    H248017   0.937   5.937   0.329 -2.0627  0.5137  0.4774
 8868TIP3   OH248018   2.457   2.430  14.267  0.5885  0.2130  0.6937
 8868TIP3    H148019   2.523   2.415  14.199  0.6367 -0.3841  0.8712
 8868TIP3    H248020   2.416   2.344  14.280  0.6090  0.3178  1.4511
 8869TIP3   OH248021   6.191   5.533  11.651  0.3408 -0.5088  0.0534
 8869TIP3    H148022   6.285   5.530  11.633  0.2875  1.0415 -0.6624
 8869TIP3    H248023   6.178   5.470  11.722  1.7950 -1.2456 -0.2858
 8870TIP3   OH248024   6.451   4.528   1.912  0.5238  0.0240 -0.3706
 8870TIP3    H148025   6.459   4.516   1.818  0.0487 -2.6278 -0.1475
 8870TIP3    H248026   6.506   4.460   1.950 -2.4144 -1.6833  1.1998
 8871TIP3   OH248027   2.143   5.121   2.496  0.2233  0.0534  0.4804
 8871TIP3    H148028   2.063   5.157   2.535  0.6490 -0.7919  2.1809
 8871TIP3    H248029   2.194   5.198   2.471 -0.9133  0.6031 -0.2278
 8872TIP3   OH248030   1.644   1.744   4.120 -0.5024  0.3645  0.4215
 8872TIP3    H148031   1.609   1.772   4.036 -0.3445  2.0191  0.8811
 8872TIP3    H248032   1.738   1.754   4.112 -0.3701 -0.7150  0.3866
 8873TIP3   OH248033   5.176   1.640   0.967  0.1885 -0.1754 -0.5969
 8873TIP3    H148034   5.104   1.635   0.904  0.6768 -2.1637 -1.0734
 8873TIP3    H248035   5.186   1.733   0.985 -2.3990  0.1619 -0.5964
 8874TIP3   OH248036   4.453   4.484  13.900  0.5571 -0.5663 -0.2595
 8874TIP3    H148037   4.398   4.505  13.825  0.9284  1.1062 -0.0876
 8874TIP3    H248038   4.391   4.465  13.971  0.0329  3.2325  0.4922
 8875TIP3   OH248039   5.362   5.847   1.426 -0.3384  0.2095 -0.2498
 8875TIP3    H148040   5.329   5.869   1.340 -2.5017 -0.4648  0.3511
 8875TIP3    H248041   5.442   5.798   1.409  0.8890  2.5304 -1.7474
 8876TIP3   OH248042   0.338   0.992  16.679  0.4250 -0.2677  0.4547
 8876TIP3    H148043   0.368   1.082  16.667  2.2820 -0.8205  0.5779
 8876TIP3    H248044   0.355   0.949  16.595  0.1120 -0.6336  0.5764
 8877TIP3   OH248045   5.403   6.678  12.433 -0.6278  0.1918  0.4098
 8877TIP3    H148046   5.448   6.658  12.350 -1.6765  0.2215 -0.1835
 8877TIP3    H248047   5.449   6.754  12.467 -1.2431  1.2444 -1.0186
 8878TIP3   OH248048   6.727   3.538  14.559  0.7066 -0.5057 -0.3197
 8878TIP3    H148049   6.810   3.585  14.546 -0.2254  1.5176  0.6337
 8878TIP3    H248050   6.664   3.587  14.507 -0.7925  0.9284  2.5931
 8879TIP3   OH248051   2.278   4.621   3.697 -0.1281 -0.2818  0.1846
 8879TIP3    H148052   2.271   4.618   3.792 -0.9756 -1.7926  0.0988
 8879TIP3    H248053   2.361   4.576   3.678 -0.0269 -0.1011  0.1946
 8880TIP3   OH248054   5.788   3.371   0.718  0.2273  0.9858  0.3052
 8880TIP3    H148055   5.831   3.335   0.796 -0.7709  1.3337  1.0491
 8880TIP3    H248056   5.701   3.332   0.720  0.9105 -0.8509 -1.9641
 8881TIP3   OH248057   1.337   0.473   4.264  0.2690  0.0530 -0.1262
 8881TIP3    H148058   1.251   0.508   4.242  0.5990  0.6046 -0.5601
 8881TIP3    H248059   1.319   0.401   4.325 -0.5186 -0.0745 -0.5006
 8882TIP3   OH248060   6.505   3.682  16.816  0.0184  0.1808  0.0345
 8882TIP3    H148061   6.596   3.696  16.790  0.1066  0.0700  0.2827
 8882TIP3    H248062   6.454   3.712  16.741  0.3167 -2.3509 -1.3221
 8883TIP3   OH248063   5.704   3.714   4.236 -0.5872 -0.3382 -0.2709
 8883TIP3    H148064   5.659   3.632   4.257  0.1871 -0.9678 -0.9517
 8883TIP3    H248065   5.769   3.689   4.170 -2.2021  1.3333 -2.6515
 8884TIP3   OH248066   6.780   5.986  10.443  0.0922 -0.1417  0.4631
 8884TIP3    H148067   6.853   6.036  10.479 -0.0850  1.1823 -0.9129
 8884TIP3    H248068   6.709   6.050  10.433 -0.6819 -1.0175  0.1554
 8885TIP3   OH248069   3.787   0.369  13.686  0.2349  0.6448  0.4716
 8885TIP3    H148070   3.872   0.400  13.718  0.0130  2.8163 -0.8268
 8885TIP3    H248071   3.744   0.331  13.763  3.6803 -4.0024  0.5380
 8886TIP3   OH248072   6.419   2.136  14.617  0.3232 -0.2748 -0.0205
 8886TIP3    H148073   6.329   2.166  14.610 -0.0867 -1.4433 -0.0113
 8886TIP3    H248074   6.455   2.148  14.529  0.4665  1.0853  0.2078
 8887TIP3   OH248075   4.187   3.902   0.158 -0.4188 -0.8933  0.7120
 8887TIP3    H148076   4.188   3.854   0.240  3.6082 -1.8735  0.3282
 8887TIP3    H248077   4.242   3.979   0.175  0.9232 -1.3783 -1.0909
 8888TIP3   OH248078   0.797   1.708   0.687 -0.6760  0.3808 -0.0764
 8888TIP3    H148079   0.777   1.765   0.613 -2.0711 -0.0122 -0.0190
 8888TIP3    H248080   0.714   1.697   0.733  0.2031  0.7904  1.7019
 8889TIP3   OH248081   2.808   4.756   0.909 -0.1292  0.0196  0.1197
 8889TIP3    H148082   2.879   4.750   0.973 -0.1977 -0.7540  0.1344
 8889TIP3    H248083   2.748   4.821   0.946  0.5121  0.6103  0.1530
 8890TIP3   OH248084   2.817   0.371  16.735 -0.1617  0.6546  0.2771
 8890TIP3    H148085   2.823   0.456  16.691  0.2928  1.0853  1.1539
 8890TIP3    H248086   2.875   0.314  16.684 -1.6519  0.4242 -1.2612
 8891TIP3   OH248087   3.228   2.307  12.635 -0.7146  0.1307 -0.3754
 8891TIP3    H148088   3.230   2.370  12.708  1.3632 -1.3200  0.9553
 8891TIP3    H248089   3.166   2.345  12.572 -0.8430  2.6148  1.0938
 8892TIP3   OH248090   4.010   1.812  13.091  0.6407  0.2732 -0.2064
 8892TIP3    H148091   4.029   1.900  13.059  1.9011  0.7291  1.6575
 8892TIP3    H248092   4.085   1.789  13.147  0.1450 -1.8163 -0.2866
 8893TIP3   OH248093   5.270   3.478  14.000 -0.4368  0.0394  0.5994
 8893TIP3    H148094   5.324   3.555  13.980 -1.1819  0.2812 -0.6489
 8893TIP3    H248095   5.321   3.404  13.967 -0.8054  0.2625 -0.5329
 8894TIP3   OH248096   5.568   1.737  16.481 -0.5007 -0.1542 -0.6253
 8894TIP3    H148097   5.491   1.683  16.467  0.7851 -1.9374 -1.1737
 8894TIP3    H248098   5.640   1.689  16.440  1.4058  0.0947  2.0966
 8895TIP3   OH248099   5.771   6.314   1.107  0.3037  0.1534 -0.0505
 8895TIP3    H148100   5.769   6.224   1.075  0.3735  0.5593 -1.2449
 8895TIP3    H248101   5.780   6.306   1.202 -0.2567 -1.0987 -0.0906
 8896TIP3   OH248102   3.881   6.103  16.383  0.7655  0.2408  0.1647
 8896TIP3    H148103   3.809   6.070  16.438  0.5238  0.4403 -0.0307
 8896TIP3    H248104   3.960   6.083  16.433  0.4871  1.4485  1.1280
 8897TIP3   OH248105   6.078   2.043  14.241  0.9913 -0.2676  0.6426
 8897TIP3    H148106   6.112   1.955  14.260  0.7428 -0.2921  0.9789
 8897TIP3    H248107   6.132   2.074  14.167  1.1334 -0.6679  0.5748
 8898TIP3   OH248108   3.310   5.893  13.673  0.1961  0.0633  0.2199
 8898TIP3    H148109   3.250   5.850  13.612 -0.9005  1.1940  0.4522
 8898TIP3    H248110   3.367   5.823  13.704 -0.4111 -0.8757 -0.7008
 8899TIP3   OH248111   5.816   1.042   2.977 -0.0488  0.5915  0.5516
 8899TIP3    H148112   5.740   1.029   2.920  0.5003  1.5668 -0.4444
 8899TIP3    H248113   5.788   1.110   3.038 -0.0876  0.7519  0.3593
 8900TIP3   OH248114   1.832   3.430   0.619 -0.1105 -0.3489 -0.0776
 8900TIP3    H148115   1.778   3.406   0.694 -0.0734 -0.6108 -0.1356
 8900TIP3    H248116   1.921   3.434   0.653 -0.2041  0.4010  0.0917
 8901TIP3   OH248117   0.871   6.213  16.151  0.7097  0.1542  0.1889
 8901TIP3    H148118   0.960   6.198  16.120  1.1255  2.6323 -0.0721
 8901TIP3    H248119   0.826   6.253  16.076 -0.8441 -1.5923  0.1212
 8902TIP3   OH248120   1.165   0.450   5.493 -0.2697  0.2662  0.5049
 8902TIP3    H148121   1.259   0.462   5.507 -0.5950  0.7153  2.6669
 8902TIP3    H248122   1.129   0.438   5.581 -2.2128 -0.2264 -0.2969
 8903TIP3   OH248123   5.809   6.586  13.455 -0.2294  0.3862  0.0376
 8903TIP3    H148124   5.719   6.618  13.444 -0.6577 -0.8023  0.0219
 8903TIP3    H248125   5.855   6.618  13.377 -0.8987  0.1081 -0.4783
 8904TIP3   OH248126   4.745   5.981   3.316  0.1762  0.4646 -0.4536
 8904TIP3    H148127   4.696   6.016   3.242 -0.4941 -1.6670 -1.1088
 8904TIP3    H248128   4.735   5.886   3.308 -1.1764  0.1572  3.2394
 8905TIP3   OH248129   0.266   1.933  13.584 -0.9227  0.0828  0.3897
 8905TIP3    H148130   0.221   2.017  13.581 -1.9445 -0.4906 -1.4156
 8905TIP3    H248131   0.350   1.950  13.543 -0.4565  0.5575  1.4797
 8906TIP3   OH248132   2.278   3.986  13.602  0.1979  0.0075 -0.4377
 8906TIP3    H148133   2.194   4.033  13.602  0.2381  0.0872  0.1510
 8906TIP3    H248134   2.344   4.055  13.607  0.2564 -0.1059  0.4706
 8907TIP3   OH248135   5.884   3.595   1.529  0.4082 -0.4419 -0.1686
 8907TIP3    H148136   5.889   3.537   1.453 -1.5225 -0.5996 -0.2317
 8907TIP3    H248137   5.965   3.645   1.526  1.5019 -2.1696 -0.9007
 8908TIP3   OH248138   4.105   2.481  11.855  0.4219 -0.4511 -0.7677
 8908TIP3    H148139   4.080   2.544  11.923  0.3431 -1.0208 -0.2677
 8908TIP3    H248140   4.103   2.532  11.774  0.4281  0.2107 -0.3579
 8909TIP3   OH248141   2.449   2.438   6.457  0.2323 -0.0751 -0.1768
 8909TIP3    H148142   2.524   2.399   6.411  0.5614 -0.1066  0.3717
 8909TIP3    H248143   2.469   2.531   6.462  0.1877 -0.0680 -0.1266
 8910TIP3   OH248144   1.758   0.688  16.382 -0.5849  0.4047 -0.5783
 8910TIP3    H148145   1.774   0.689  16.476 -2.5815 -3.3642 -0.0125
 8910TIP3    H248146   1.701   0.764  16.367  0.0574  1.2914  1.1008
 8911TIP3   OH248147   4.149   1.944   2.398  0.5934  0.0272  0.3444
 8911TIP3    H148148   4.198   1.867   2.369  0.7876 -0.3620  1.6660
 8911TIP3    H248149   4.113   1.980   2.317 -1.8425 -3.0084 -0.1372
 8912TIP3   OH248150   4.664   4.630   4.936  0.2054 -0.6236 -0.5000
 8912TIP3    H148151   4.594   4.667   4.882 -0.5179  0.2090  0.9501
 8912TIP3    H248152   4.627   4.549   4.971 -0.8030  0.7485  1.7742
 8913TIP3   OH248153   3.213   5.371  14.462  0.3722  0.6198 -0.4203
 8913TIP3    H148154   3.263   5.301  14.420 -0.3576  0.5190 -1.1377
 8913TIP3    H248155   3.277   5.440  14.478  1.1906 -0.3394  0.6614
 8914TIP3   OH248156   3.370   4.481   3.356  0.5945  0.5268 -0.6975
 8914TIP3    H148157   3.361   4.574   3.376 -1.0236  0.0500  1.0878
 8914TIP3    H248158   3.299   4.462   3.295  1.2059  0.5275 -1.4280
 8915TIP3   OH248159   3.246   6.336   0.135 -0.0547  0.1321  0.5095
 8915TIP3    H148160   3.158   6.370   0.119  0.2081  0.3218 -0.5710
 8915TIP3    H248161   3.277   6.308   0.050  1.2888  0.9250  0.7125
 8916TIP3   OH248162   5.570   3.229  17.077 -0.3629  0.7388 -0.3488
 8916TIP3    H148163   5.550   3.277  17.157 -0.2555 -1.2923  0.9605
 8916TIP3    H248164   5.655   3.262  17.049  0.1139  0.7249  1.0141
 8917TIP3   OH248165   0.042   0.406  14.104  0.0953 -0.4644 -0.0721
 8917TIP3    H148166   0.051   0.444  14.192  0.7629 -0.0109 -0.3345
 8917TIP3    H248167   0.090   0.465  14.047  0.1732 -1.0876 -0.6614
 8918TIP3   OH248168   5.512   4.621   1.580  0.3314  0.5298  0.4772
 8918TIP3    H148169   5.509   4.560   1.654  1.7015 -1.1903 -0.7925
 8918TIP3    H248170   5.602   4.652   1.579  0.1045  1.1906  0.0318
 8919TIP3   OH248171   1.937   5.137  13.548  0.0391  0.3133 -0.2521
 8919TIP3    H148172   1.972   5.226  13.547 -0.1237  0.3747 -0.4365
 8919TIP3    H248173   1.851   5.145  13.589 -0.3895  0.3954 -1.1581
 8920TIP3   OH248174   5.345   1.589  16.477  0.5560  0.3550  0.3226
 8920TIP3    H148175   5.322   1.601  16.569 -0.6642 -1.0431  0.2306
 8920TIP3    H248176   5.272   1.626  16.428 -0.0535 -1.2631 -0.0281
 8921TIP3   OH248177   2.373   3.144  14.917 -0.2222 -0.3217  0.4977
 8921TIP3    H148178   2.386   3.233  14.951 -0.1673  0.1908 -0.8361
 8921TIP3    H248179   2.377   3.154  14.822  0.7454 -1.9026  0.3497
 8922TIP3   OH248180   0.012   2.013   5.485  0.0361  0.2229  0.7745
 8922TIP3    H148181   0.057   2.044   5.563 -1.8445  0.8153  1.6573
 8922TIP3    H248182  -0.047   2.084   5.460 -0.9161 -0.7769  0.0540
 8923TIP3   OH248183   4.208   2.163   0.276 -0.0431  0.3695 -0.0352
 8923TIP3    H148184   4.302   2.161   0.296  0.8478  0.8315 -3.5453
 8923TIP3    H248185   4.181   2.071   0.282  1.0746 -0.0174 -0.6126
 8924TIP3   OH248186   5.383   5.996   5.571 -1.1516 -0.3554 -0.2976
 8924TIP3    H148187   5.354   5.924   5.627 -0.6480 -0.9120 -0.7438
 8924TIP3    H248188   5.309   6.057   5.571 -0.3295  0.8601  2.8960
 8925TIP3   OH248189   4.641   5.326   1.774  0.1336 -0.0489 -0.2380
 8925TIP3    H148190   4.694   5.347   1.851  0.0708  1.0064 -0.4676
 8925TIP3    H248191   4.705   5.297   1.709  0.1319 -1.5044  0.3729
 8926TIP3   OH248192   4.979   2.662  15.980 -0.4286 -0.1884 -0.1938
 8926TIP3    H148193   4.957   2.603  16.052  2.2867 -2.1883 -0.8302
 8926TIP3    H248194   4.970   2.750  16.017  1.2537 -1.1136  2.7804
 8927TIP3   OH248195   5.588   2.014   0.894  0.2477 -0.7630  0.5069
 8927TIP3    H148196   5.555   2.047   0.978  0.1738 -0.1207  0.2322
 8927TIP3    H248197   5.511   2.012   0.837  0.4278 -0.5166  0.2503
 8928TIP3   OH248198   5.697   1.714   0.394 -0.1835 -0.1348  0.0064
 8928TIP3    H148199   5.731   1.802   0.408  0.6612 -0.6691  1.5863
 8928TIP3    H248200   5.678   1.681   0.482 -1.3702 -1.1980 -0.6114
 8929TIP3   OH248201   6.197   4.726  11.404 -0.4531  0.4207  0.2880
 8929TIP3    H148202   6.181   4.819  11.390  1.2519  0.8943  1.1262
 8929TIP3    H248203   6.284   4.710  11.367 -0.1578 -0.5276  1.3044
 8930TIP3   OH248204   2.201   1.202   6.115 -0.0817  0.6111  0.3761
 8930TIP3    H148205   2.279   1.256   6.124  0.3517 -0.1408  1.2978
 8930TIP3    H248206   2.190   1.162   6.201 -1.7145  1.0109  0.3836
 8931TIP3   OH248207   2.419   5.047   3.432 -0.3390  0.2596 -0.4393
 8931TIP3    H148208   2.462   4.963   3.416 -0.3787  0.2618 -0.5622
 8931TIP3    H248209   2.331   5.024   3.462  0.2975  0.2296  1.4899
 8932TIP3   OH248210   1.089   3.257  11.623 -0.0860 -0.0901  0.1981
 8932TIP3    H148211   1.170   3.302  11.647 -0.1793  0.4194 -0.4119
 8932TIP3    H248212   1.019   3.316  11.649 -0.2049  0.1938 -0.7162
 8933TIP3   OH248213   3.073   2.494  17.042 -0.0892  0.4842  0.3185
 8933TIP3    H148214   3.073   2.406  17.003  1.6085  0.5243  0.1241
 8933TIP3    H248215   2.993   2.535  17.010 -0.1171 -0.4536 -0.8938
 8934TIP3   OH248216   6.548   5.099  11.322  0.1514 -0.1136 -0.1918
 8934TIP3    H148217   6.619   5.163  11.330  0.4258 -0.4759  0.3292
 8934TIP3    H248218   6.551   5.050  11.404 -2.4158  1.5920  1.0576
 8935TIP3   OH248219   2.867   3.941  12.428 -0.0512  0.9998  0.2351
 8935TIP3    H148220   2.863   3.852  12.463 -1.1136  0.5590 -0.9309
 8935TIP3    H248221   2.900   3.994  12.500 -2.6150  0.2479  2.0886
 8936TIP3   OH248222   4.330   6.104  13.989 -0.3705  0.0060  0.3605
 8936TIP3    H148223   4.281   6.183  13.967 -0.0716  0.9333  2.7460
 8936TIP3    H248224   4.268   6.033  13.979 -1.6616  0.9401  1.4331
 8937TIP3   OH248225   0.599   1.869   3.873  0.7315  0.2932 -0.0454
 8937TIP3    H148226   0.694   1.868   3.869  0.6826 -0.4832 -1.3621
 8937TIP3    H248227   0.576   1.783   3.909  0.5318  0.8714  1.3037
 8938TIP3   OH248228   5.917   2.391   1.693  0.6168  0.2666  0.2281
 8938TIP3    H148229   5.977   2.432   1.631  0.8530 -1.3398 -0.6282
 8938TIP3    H248230   5.930   2.297   1.682 -1.7024 -0.1350  0.3586
 8939TIP3   OH248231   0.773   1.650  13.600  0.2058 -0.3117 -0.5954
 8939TIP3    H148232   0.856   1.605  13.615  0.0132 -0.4857 -0.0296
 8939TIP3    H248233   0.747   1.683  13.687 -1.0137 -1.4771 -0.4760
 8940TIP3   OH248234   6.613   5.195   1.988  0.4484 -0.4199 -0.1044
 8940TIP3    H148235   6.554   5.120   1.994  0.9138 -0.7392  0.6198
 8940TIP3    H248236   6.684   5.175   2.048  0.0844  1.0594  0.8819
 8941TIP3   OH248237   2.009   2.914   1.670 -0.5526 -0.1741 -0.2970
 8941TIP3    H148238   1.929   2.865   1.684 -1.4831  1.7200  1.7384
 8941TIP3    H248239   2.076   2.848   1.652 -1.8631 -2.1281  1.5251
 8942TIP3   OH248240   3.069   2.082   5.991 -0.2670 -0.0091  0.4258
 8942TIP3    H148241   3.102   2.005   6.038 -0.9854 -0.5501  0.0679
 8942TIP3    H248242   3.074   2.056   5.898 -0.9525  0.1983  0.3304
 8943TIP3   OH248243   5.197   4.742  13.387  0.1190 -0.0921  0.0264
 8943TIP3    H148244   5.164   4.785  13.309 -1.1219  0.3357  0.7584
 8943TIP3    H248245   5.259   4.804  13.425 -2.5953  1.7450  1.7730
 8944TIP3   OH248246   4.889   6.329  11.996 -0.1392  0.2782 -0.5556
 8944TIP3    H148247   4.892   6.422  12.021  0.1659  0.1533 -0.1301
 8944TIP3    H248248   4.966   6.317  11.941 -0.2876  0.3212 -0.7759
 8945TIP3   OH248249   2.549   5.966  15.274 -0.2701 -0.2323 -0.1595
 8945TIP3    H148250   2.468   5.950  15.320 -0.8737 -1.4944 -1.5736
 8945TIP3    H248251   2.527   6.032  15.208 -0.2153 -0.6995 -0.6576
 8946TIP3   OH248252   3.229   4.660  11.926  0.4497  0.0791 -0.6802
 8946TIP3    H148253   3.306   4.608  11.950  0.1193 -0.2853 -0.3911
 8946TIP3    H248254   3.157   4.620  11.974 -0.1484 -0.3374 -1.8857
 8947TIP3   OH248255   0.890   2.266  15.445  0.0370 -0.0152  0.1398
 8947TIP3    H148256   0.965   2.213  15.417 -0.5546 -0.8962  0.1990
 8947TIP3    H248257   0.838   2.279  15.366  0.7696  1.5124 -0.1410
 8948TIP3   OH248258   0.037   1.947  10.209  0.0030 -0.1120 -0.2548
 8948TIP3    H148259   0.118   1.945  10.261  1.3882  0.7553 -2.2475
 8948TIP3    H248260   0.018   2.040  10.198 -0.7745 -0.3004 -0.5532
 8949TIP3   OH248261   0.834   2.132  11.774  0.3198  0.3636 -0.6596
 8949TIP3    H148262   0.928   2.136  11.759  0.3729  0.2752 -0.3566
 8949TIP3    H248263   0.825   2.099  11.863 -0.0185 -1.4796 -1.3316
 8950TIP3   OH248264   3.150   5.959  13.102 -0.5992  0.2258 -1.0665
 8950TIP3    H148265   3.056   5.977  13.093 -0.5548  0.5209 -0.9664
 8950TIP3    H248266   3.192   6.033  13.059 -0.4127 -0.0774 -1.4078
 8951TIP3   OH248267   5.627   6.626  12.651  0.1995  0.7872  0.7364
 8951TIP3    H148268   5.600   6.536  12.637  0.7382  0.7186  0.0806
 8951TIP3    H248269   5.560   6.679  12.608  0.4733  0.6605  0.1527
 8952TIP3   OH248270   0.956   2.449  12.427  0.2801 -0.2904 -0.1120
 8952TIP3    H148271   0.914   2.511  12.485  0.7580 -0.6977  0.6891
 8952TIP3    H248272   1.027   2.498  12.385  0.2744 -0.1386  0.0581
 8953TIP3   OH248273   0.541   3.604   4.066 -0.4178  0.2276 -0.7177
 8953TIP3    H148274   0.545   3.669   3.996 -1.6422  1.2797  0.1453
 8953TIP3    H248275   0.451   3.572   4.064  0.1149 -1.3002 -0.9770
 8954TIP3   OH248276   2.285   3.899   0.518 -0.2350  0.1773 -0.2480
 8954TIP3    H148277   2.371   3.916   0.557  0.0567 -4.2062  1.6545
 8954TIP3    H248278   2.250   3.986   0.497  3.3204  2.3313  1.7391
 8955TIP3   OH248279   4.463   1.274   2.868 -0.0479 -0.4361 -0.2391
 8955TIP3    H148280   4.522   1.321   2.928 -1.7680  0.5984  0.7326
 8955TIP3    H248281   4.399   1.232   2.926  0.6398 -2.8998 -1.1749
 8956TIP3   OH248282   0.493   3.548   3.307 -0.4316  0.3585 -0.4235
 8956TIP3    H148283   0.528   3.599   3.233 -0.7203  0.1141 -0.7335
 8956TIP3    H248284   0.398   3.552   3.295 -0.4936  0.6360  0.1541
 8957TIP3   OH248285   1.891   4.205   3.617  0.3531  0.4185 -0.2879
 8957TIP3    H148286   1.874   4.286   3.569 -0.2958  0.1922 -0.4385
 8957TIP3    H248287   1.981   4.182   3.593  0.9274  1.6496  0.5762
 8958TIP3   OH248288   0.444   5.417  12.921 -0.0986  0.0003 -0.2746
 8958TIP3    H148289   0.390   5.465  12.858 -1.0835 -0.7109 -0.0088
 8958TIP3    H248290   0.422   5.456  13.006  0.0414 -0.0792 -0.2014
 8959TIP3   OH248291   0.306   4.823  14.444 -0.0438  0.1879 -0.0999
 8959TIP3    H148292   0.233   4.820  14.381 -1.9426  0.7925  1.9167
 8959TIP3    H248293   0.294   4.744  14.497  1.1296  0.0224 -0.0677
 8960TIP3   OH248294   4.616   3.706  16.758 -0.3170 -0.0074 -0.2526
 8960TIP3    H148295   4.689   3.760  16.727 -0.5302  0.8275  0.6544
 8960TIP3    H248296   4.553   3.707  16.685  0.2772 -0.1734 -0.7769
 8961TIP3   OH248297   3.423   5.516   2.232  0.2222 -0.4191  0.2443
 8961TIP3    H148298   3.371   5.435   2.233  0.7577 -0.7758 -0.2083
 8961TIP3    H248299   3.360   5.585   2.252 -0.2638 -0.9337  0.5394
 8962TIP3   OH248300   5.919   1.055   1.910  0.7352 -0.2875  0.3089
 8962TIP3    H148301   5.976   1.131   1.924 -1.0397  0.8105  1.9857
 8962TIP3    H248302   5.980   0.983   1.893  2.4766  1.4714 -1.5215
 8963TIP3   OH248303   3.813   4.533  11.613  0.2824  0.1260  0.4306
 8963TIP3    H148304   3.908   4.544  11.617  0.0933  2.3884 -0.0879
 8963TIP3    H248305   3.785   4.591  11.542 -1.3417 -1.7729 -0.5651
 8964TIP3   OH248306   3.557   2.963   5.499 -0.0900 -0.1121  0.2009
 8964TIP3    H148307   3.521   2.894   5.445  0.3425  0.9437 -1.5138
 8964TIP3    H248308   3.595   2.918   5.575 -1.2199 -1.5760 -0.0773
 8965TIP3   OH248309   4.687   5.513  13.324 -0.0883  0.2580 -0.3636
 8965TIP3    H148310   4.687   5.586  13.262 -2.1560  0.2660 -0.4030
 8965TIP3    H248311   4.740   5.446  13.282 -0.2442  0.8096 -1.4716
 8966TIP3   OH248312   0.948   0.814   3.907  0.3583 -0.3341  0.1792
 8966TIP3    H148313   0.912   0.729   3.933 -0.6179 -0.6019 -1.9183
 8966TIP3    H248314   0.923   0.872   3.979 -0.7969 -1.3746  0.6673
 8967TIP3   OH248315   1.458   3.113  13.029  0.2654  0.2909  0.3740
 8967TIP3    H148316   1.466   3.050  12.957 -1.1329  0.5184  0.0023
 8967TIP3    H248317   1.502   3.070  13.103  0.6663 -0.4588 -0.2874
 8968TIP3   OH248318   2.276   2.375  15.801 -0.7805 -0.6118  0.0044
 8968TIP3    H148319   2.315   2.317  15.735 -2.4542 -0.2857 -1.3469
 8968TIP3    H248320   2.330   2.454  15.798  0.6798 -1.5292  0.8709
 8969TIP3   OH248321   6.173   5.237  16.615  0.0837  0.1956 -0.0156
 8969TIP3    H148322   6.230   5.313  16.621  0.6795 -0.1591 -1.0947
 8969TIP3    H248323   6.085   5.273  16.627  0.3651  1.0373 -0.3894
 8970TIP3   OH248324   6.346   4.525  12.899 -0.6517  0.2675  0.6039
 8970TIP3    H148325   6.357   4.466  12.972  0.2880 -0.2565  0.0584
 8970TIP3    H248326   6.347   4.469  12.821 -0.5828  0.9037  0.1282
 8971TIP3   OH248327   0.339   3.083  13.561  0.2352  0.6620  0.2701
 8971TIP3    H148328   0.305   3.105  13.647  0.8614 -1.0674  0.9963
 8971TIP3    H248329   0.417   3.138  13.551 -0.1612  1.2795  0.5549
 8972TIP3   OH248330   6.779   0.999  14.743  0.2123  0.1088 -0.2477
 8972TIP3    H148331   6.869   0.972  14.723  0.9894  0.0317  2.7562
 8972TIP3    H248332   6.756   0.948  14.821 -1.6534  1.6291  0.2781
 8973TIP3   OH248333   3.265   2.094   6.316 -0.1429  0.3009 -0.4443
 8973TIP3    H148334   3.222   2.032   6.257  1.7610 -0.8323 -0.7432
 8973TIP3    H248335   3.358   2.086   6.295  0.1715  3.7746 -0.9461
 8974TIP3   OH248336   3.835   2.268   2.491  0.0730 -0.2710  0.2086
 8974TIP3    H148337   3.775   2.227   2.554  0.4612 -1.5147 -0.1924
 8974TIP3    H248338   3.901   2.312   2.545  0.2992 -1.1740  0.6886
 8975TIP3   OH248339   1.974   2.398  10.627  0.5031  0.7157 -0.2989
 8975TIP3    H148340   2.054   2.447  10.649  0.3191  0.4999  0.9531
 8975TIP3    H248341   1.910   2.466  10.605  0.8908  0.9163 -0.8211
 8976TIP3   OH248342   1.293   3.983  12.238  0.8714 -0.0492  0.1855
 8976TIP3    H148343   1.289   3.972  12.143  1.7277 -0.7851  0.2148
 8976TIP3    H248344   1.209   3.948  12.270  0.5231  0.3322 -0.3021
 8977TIP3   OH248345   1.816   3.057  14.105 -0.0812  0.2119  0.5039
 8977TIP3    H148346   1.844   3.147  14.117 -0.8102  0.6408 -0.7902
 8977TIP3    H248347   1.894   3.004  14.124  1.2366  1.2731 -1.5402
 8978TIP3   OH248348   4.928   5.074   3.420  0.0663 -0.4531  0.2684
 8978TIP3    H148349   4.857   5.046   3.477 -0.8167 -2.6925 -1.7462
 8978TIP3    H248350   4.884   5.106   3.341  1.2364 -1.0525 -0.6684
 8979TIP3   OH248351   3.510   2.269   2.467 -0.1975  0.1555 -0.1432
 8979TIP3    H148352   3.552   2.274   2.553  0.9086  1.1920 -0.7087
 8979TIP3    H248353   3.446   2.340   2.468  0.9419  1.2460 -0.7086
 8980TIP3   OH248354   6.505   3.641  15.937  0.3227  0.6281  0.2363
 8980TIP3    H148355   6.426   3.693  15.946 -0.4127 -0.1102 -1.5761
 8980TIP3    H248356   6.527   3.615  16.027 -0.6712  1.9816  0.9070
 8981TIP3   OH248357   1.630   0.270  14.196  0.4774  0.4174  0.2284
 8981TIP3    H148358   1.649   0.182  14.165 -0.8882 -0.6308  2.2125
 8981TIP3    H248359   1.626   0.323  14.116 -1.0807 -1.7660 -1.2552
 8982TIP3   OH248360   4.770   4.243  11.141  0.0108 -0.3786 -0.1877
 8982TIP3    H148361   4.692   4.216  11.094  0.1443  0.3358 -0.8448
 8982TIP3    H248362   4.819   4.162  11.156 -0.7167 -0.7950 -0.0021
 8983TIP3   OH248363   1.932   3.282  11.603  0.0760 -0.1419 -0.1778
 8983TIP3    H148364   2.003   3.221  11.585 -0.0644  0.0574 -1.5010
 8983TIP3    H248365   1.875   3.235  11.664 -0.4292 -1.6683 -1.7420
 8984TIP3   OH248366   0.261   6.141  13.970  0.3692 -0.1580 -0.0870
 8984TIP3    H148367   0.180   6.184  13.940  1.0133  1.5972  0.5144
 8984TIP3    H248368   0.270   6.065  13.914 -1.5088 -0.2012 -0.4151
 8985TIP3   OH248369   4.384   1.761  12.571  0.6012  0.4099  0.2159
 8985TIP3    H148370   4.325   1.809  12.513  0.7472 -0.2140 -0.4590
 8985TIP3    H248371   4.397   1.676  12.528  0.7437 -0.0485  1.1438
 8986TIP3   OH248372   0.649   5.937   5.230 -0.0264 -0.5035  0.0806
 8986TIP3    H148373   0.685   5.919   5.317 -0.0053 -1.0398 -0.0357
 8986TIP3    H248374   0.726   5.941   5.173 -0.0237  0.0617  0.1222
 8987TIP3   OH248375   3.194   0.597   1.510 -0.0175 -0.0809  1.0066
 8987TIP3    H148376   3.136   0.657   1.557 -1.0792  1.2223 -1.7092
 8987TIP3    H248377   3.144   0.572   1.432  2.2978 -0.4833 -0.4550
 8988TIP3   OH248378   4.890   5.684   2.535 -0.9353  0.1495 -0.4934
 8988TIP3    H148379   4.879   5.775   2.508  0.9851  0.5311 -0.1032
 8988TIP3    H248380   4.958   5.686   2.602  0.0585 -1.7200 -1.3637
 8989TIP3   OH248381   5.885   1.045   3.765 -0.0045  0.4335  0.0493
 8989TIP3    H148382   5.923   0.958   3.749  1.6529  1.2310 -0.6334
 8989TIP3    H248383   5.819   1.056   3.698 -1.9348 -1.1931  1.5492
 8990TIP3   OH248384   0.646   2.090  12.732  0.4288 -0.3016  0.7760
 8990TIP3    H148385   0.717   2.037  12.768  0.6104 -0.6144 -0.0107
 8990TIP3    H248386   0.684   2.178  12.725  0.9594 -0.5857 -0.1839
 8991TIP3   OH248387   0.469   3.592   2.253 -0.4239 -0.1495 -0.3503
 8991TIP3    H148388   0.383   3.623   2.228 -0.7369 -1.5815 -1.1785
 8991TIP3    H248389   0.498   3.653   2.321 -1.3339  1.3653 -1.2774
 8992TIP3   OH248390   2.661   5.713  10.589  0.8284 -0.0733 -0.3306
 8992TIP3    H148391   2.723   5.678  10.526  0.7900 -0.0019 -0.4092
 8992TIP3    H248392   2.576   5.711  10.543  0.7745 -0.1645 -0.2264
 8993TIP3   OH248393   5.906   6.560   4.906 -0.0798  0.4447  0.4711
 8993TIP3    H148394   5.943   6.540   4.820 -2.8272 -0.1325 -0.6923
 8993TIP3    H248395   5.958   6.507   4.967  0.3462 -1.1242 -1.1566
 8994TIP3   OH248396   6.484   6.780   5.409 -0.5855  0.1811  0.2247
 8994TIP3    H148397   6.526   6.766   5.324 -0.5255 -1.1161  0.4540
 8994TIP3    H248398   6.440   6.865   5.400 -0.9739 -0.1472 -1.2615
 8995TIP3   OH248399   6.070   5.100   3.203 -0.0138 -0.1636  0.0510
 8995TIP3    H148400   6.065   5.192   3.176  1.0557 -0.8120 -2.6702
 8995TIP3    H248401   5.989   5.061   3.168 -0.2936 -0.3591  0.8906
 8996TIP3   OH248402   5.711   4.826   2.861 -0.5000  0.1466 -0.8242
 8996TIP3    H148403   5.766   4.860   2.791  0.4565  1.7573  0.6294
 8996TIP3    H248404   5.743   4.737   2.877  0.3992  0.3860 -1.2647
 8997TIP3   OH248405   6.296   4.013  13.086 -0.2982 -0.0113  0.2862
 8997TIP3    H148406   6.254   4.072  13.023  3.0732  0.6781 -1.5690
 8997TIP3    H248407   6.283   3.926  13.050  1.5618  0.3733 -1.5209
 8998TIP3   OH248408   3.915   4.998   6.369  0.0073 -0.2391  0.1063
 8998TIP3    H148409   3.833   4.982   6.416  0.0856  1.9048  1.1160
 8998TIP3    H248410   3.967   5.052   6.428  1.5887 -0.3637 -1.0802
 8999TIP3   OH248411   4.847   1.598   2.001  0.8370  0.1122 -0.0862
 8999TIP3    H148412   4.847   1.621   1.908  2.7028  1.9119  0.2728
 8999TIP3    H248413   4.793   1.520   2.007 -1.0550  1.1127 -2.3774
 9000TIP3   OH248414   4.179   4.289  15.102 -0.4030  0.4442 -0.6153
 9000TIP3    H148415   4.212   4.230  15.170 -0.8913  1.2186  0.3263
 9000TIP3    H248416   4.136   4.232  15.039  1.8548 -0.5031 -1.3908
 9001TIP3   OH248417   1.292   5.787   5.129 -0.5076  0.0848  0.4161
 9001TIP3    H148418   1.372   5.754   5.088 -1.6168 -0.7739 -1.1585
 9001TIP3    H248419   1.285   5.738   5.211  1.8231  1.9275  1.8607
 9002TIP3   OH248420   6.295   1.203  15.062  0.4782  0.3007 -0.1578
 9002TIP3    H148421   6.338   1.139  15.118  0.8056  0.6824  0.0327
 9002TIP3    H248422   6.328   1.288  15.093  0.3534  0.5363 -0.6674
 9003TIP3   OH248423   6.119   5.724  15.165  0.4396  0.7434  0.3953
 9003TIP3    H148424   6.151   5.673  15.239 -2.0294  0.6416  1.4796
 9003TIP3    H248425   6.106   5.660  15.095  1.6762  0.6609  0.2161
 9004TIP3   OH248426   3.654   1.188  16.619  0.4274  0.3786 -0.1193
 9004TIP3    H148427   3.558   1.189  16.623  0.4027 -0.1255 -0.4392
 9004TIP3    H248428   3.675   1.233  16.536  0.4732  0.6218  0.0241
 9005TIP3   OH248429   2.774   4.966  11.878 -0.0716 -0.3107 -0.3949
 9005TIP3    H148430   2.839   4.964  11.948 -2.2361 -0.4071  1.7188
 9005TIP3    H248431   2.781   5.054  11.842 -0.0809  0.3490  1.1413
 9006TIP3   OH248432   1.995   6.003   5.107  0.1913 -0.4754 -0.0641
 9006TIP3    H148433   2.008   6.082   5.055 -0.6159 -1.4174 -1.7900
 9006TIP3    H248434   2.039   6.021   5.190  2.0124  0.9173 -1.2449
 9007TIP3   OH248435   3.526   5.855   2.824  0.8493 -0.0844  0.2990
 9007TIP3    H148436   3.490   5.771   2.853 -0.3657  0.0276 -0.8025
 9007TIP3    H248437   3.597   5.832   2.764  1.1084 -0.3151  0.6911
 9008TIP3   OH248438   4.698   2.728  15.719  0.3036  0.4532 -0.1893
 9008TIP3    H148439   4.759   2.776  15.775 -0.4923  2.9841 -1.3203
 9008TIP3    H248440   4.639   2.685  15.781  1.4647  0.3485  0.8995
 9009TIP3   OH248441   6.467   6.017  12.592 -0.2604 -0.1285  0.2995
 9009TIP3    H148442   6.395   5.985  12.645 -1.1963 -0.7634 -1.2754
 9009TIP3    H248443   6.458   6.112  12.594 -1.1803 -0.2021  0.0956
 9010TIP3   OH248444   6.300   6.533   5.838  0.5170  0.4194 -0.8004
 9010TIP3    H148445   6.372   6.510   5.896 -0.2755  1.4390  0.6324
 9010TIP3    H248446   6.241   6.585   5.892 -0.4849  1.0063 -2.3996
 9011TIP3   OH248447   6.751   3.242  13.409  0.3131  0.4949  0.4887
 9011TIP3    H148448   6.743   3.161  13.460  0.5293 -1.1154 -1.8493
 9011TIP3    H248449   6.660   3.265  13.388  0.2915 -1.2526 -1.7747
 9012TIP3   OH248450   2.023   4.447   2.468  0.1214 -0.2560 -0.0253
 9012TIP3    H148451   1.993   4.456   2.377 -1.8919 -2.4999  0.3230
 9012TIP3    H248452   2.027   4.353   2.483  2.7239  0.0041  1.5674
 9013TIP3   OH248453   4.120   5.386  16.864  0.2352  0.1028  0.6047
 9013TIP3    H148454   4.152   5.305  16.903  2.4633  1.2284  1.2718
 9013TIP3    H248455   4.145   5.380  16.772  0.3041  0.0098  0.6304
 9014TIP3   OH248456   0.562   0.589   0.170 -0.3974  0.5388  0.5852
 9014TIP3    H148457   0.533   0.681   0.167 -0.7497  0.4703  1.4797
 9014TIP3    H248458   0.487   0.542   0.205 -0.2716 -0.1298 -0.0246
 9015TIP3   OH248459   3.614   6.245   4.598 -0.3834 -0.4222  0.2589
 9015TIP3    H148460   3.527   6.263   4.635 -0.9437 -0.3871 -1.0320
 9015TIP3    H248461   3.602   6.255   4.504  0.8752 -1.0772  0.0181
 9016TIP3   OH248462   2.466   4.542   1.391  0.1758 -0.5058 -0.0207
 9016TIP3    H148463   2.377   4.550   1.424 -0.4427 -0.6060 -1.5691
 9016TIP3    H248464   2.480   4.448   1.381 -0.2893 -0.4474 -1.5742
 9017TIP3   OH248465   1.612   0.708   2.909  0.5075 -0.1842  0.2526
 9017TIP3    H148466   1.619   0.755   2.826  2.2720  1.8793  1.4526
 9017TIP3    H248467   1.661   0.627   2.895 -1.8665 -1.4567 -1.5988
 9018TIP3   OH248468   0.115   2.946   1.036  0.6146  0.0758  0.5903
 9018TIP3    H148469   0.121   2.991   0.952  1.2353  1.2105  1.2137
 9018TIP3    H248470   0.201   2.959   1.076  1.2833 -2.8038  0.2809
 9019TIP3   OH248471   5.336   5.805   3.675  0.0102  0.0190 -0.2362
 9019TIP3    H148472   5.314   5.716   3.647  1.7147 -0.7067  0.6271
 9019TIP3    H248473   5.255   5.838   3.715 -0.7809 -0.9480 -0.9794
 9020TIP3   OH248474   1.355   6.020   3.048  0.8982 -0.5533 -0.1602
 9020TIP3    H148475   1.341   5.927   3.035  0.9720 -0.7252  0.8862
 9020TIP3    H248476   1.374   6.054   2.961 -2.5393 -0.8675 -1.1754
 9021TIP3   OH248477   1.632   6.063  13.530 -0.5454 -0.1045  0.0039
 9021TIP3    H148478   1.645   6.155  13.508 -0.2968 -0.3116 -0.7356
 9021TIP3    H248479   1.637   6.017  13.446 -2.1866 -0.6297  0.1714
 9022TIP3   OH248480   6.600   6.643  15.297  0.5111 -0.4086 -0.2458
 9022TIP3    H148481   6.610   6.588  15.219 -0.7461 -0.0131 -0.7133
 9022TIP3    H248482   6.665   6.712  15.287 -1.8036  1.6187 -2.7266
 9023TIP3   OH248483   5.986   0.642  15.838 -0.5493  0.0208 -0.5049
 9023TIP3    H148484   5.923   0.611  15.903  1.5277 -0.9269  1.1732
 9023TIP3    H248485   6.033   0.713  15.883  1.5615 -1.2774 -0.5153
 9024TIP3   OH248486   0.081   1.823   4.303 -0.0102  0.2456  0.2423
 9024TIP3    H148487   0.041   1.764   4.239  0.2399 -0.2097  0.5051
 9024TIP3    H248488   0.116   1.766   4.371 -1.6490  0.7582  1.6184
 9025TIP3   OH248489   4.081   4.735   1.438  0.1372  0.3306  0.2158
 9025TIP3    H148490   4.134   4.780   1.504  1.2212  0.9121 -0.9929
 9025TIP3    H248491   4.041   4.805   1.387  1.7094 -0.0060 -1.5877
 9026TIP3   OH248492   5.668   5.382   2.285 -0.4876  0.3993  0.2810
 9026TIP3    H148493   5.681   5.295   2.248 -0.0682  0.2841  0.6843
 9026TIP3    H248494   5.734   5.388   2.355  1.3341  2.0308 -1.4240
 9027TIP3   OH248495   4.681   2.061  16.471  0.6675  0.5602 -0.2775
 9027TIP3    H148496   4.755   2.122  16.471  1.1502 -0.0138  0.8045
 9027TIP3    H248497   4.691   2.011  16.551 -0.5732  0.0650 -0.4187
 9028TIP3   OH248498   4.552   4.774   6.024 -0.1108 -0.3973  0.1146
 9028TIP3    H148499   4.593   4.777   6.110 -1.5993  2.2339  0.8237
 9028TIP3    H248500   4.471   4.726   6.037 -1.0377  1.2314  0.5681
 9029TIP3   OH248501   2.642   4.270   1.820  0.4125 -0.2018  0.7419
 9029TIP3    H148502   2.550   4.298   1.812  0.2810 -0.9546 -0.8864
 9029TIP3    H248503   2.646   4.189   1.770  2.1598  0.2828  0.0362
 9030TIP3   OH248504   5.473   1.048   1.740 -0.4399  0.0689 -0.5450
 9030TIP3    H148505   5.562   1.012   1.735 -0.8189 -0.8723 -0.6971
 9030TIP3    H248506   5.429   0.994   1.805 -1.4819 -0.7606 -1.9076
 9031TIP3   OH248507   5.205   1.498   4.902 -0.6657  0.0308  0.1572
 9031TIP3    H148508   5.148   1.439   4.852 -1.8224  0.9353  0.3512
 9031TIP3    H248509   5.147   1.569   4.930  0.6179  1.0926  0.2191
 9032TIP3   OH248510   1.429   0.788   0.260  0.2022 -0.0615 -0.3334
 9032TIP3    H148511   1.356   0.737   0.294 -1.4822  1.8496 -0.9140
 9032TIP3    H248512   1.424   0.777   0.165  1.2742 -0.6717 -0.3310
 9033TIP3   OH248513   2.994   3.265  13.963  0.0776 -0.4103  0.4689
 9033TIP3    H148514   3.011   3.284  14.055  0.2359  0.9439  0.1728
 9033TIP3    H248515   3.024   3.343  13.916  1.1817 -1.5855 -0.8600
 9034TIP3   OH248516   3.047   4.298   0.265  0.0135 -0.1913 -0.0460
 9034TIP3    H148517   3.045   4.214   0.312  0.8815 -1.0090 -1.4081
 9034TIP3    H248518   3.110   4.351   0.313  0.8957 -1.0199 -0.2612
 9035TIP3   OH248519   3.159   1.178  11.754  0.7042 -0.3528 -0.2768
 9035TIP3    H148520   3.191   1.131  11.831 -0.5855 -0.1491  0.4075
 9035TIP3    H248521   3.069   1.203  11.776  0.2570 -0.4040 -1.9011
 9036TIP3   OH248522   1.706   4.112   1.187 -0.1084 -0.2466 -0.0322
 9036TIP3    H148523   1.690   4.205   1.202 -0.5553 -0.4703  0.9666
 9036TIP3    H248524   1.731   4.107   1.095  1.1843  1.0079  0.2206
 9037TIP3   OH248525   3.815   5.983  10.630 -0.6054  0.1629  0.1284
 9037TIP3    H148526   3.876   6.047  10.596 -0.8534 -0.8835 -2.4903
 9037TIP3    H248527   3.853   5.954  10.713  1.5968  0.7025 -0.6521
 9038TIP3   OH248528   1.195   5.805  11.806  0.3443  0.4050 -0.4231
 9038TIP3    H148529   1.229   5.846  11.726  1.8963  1.3217  0.6545
 9038TIP3    H248530   1.250   5.727  11.817 -1.1755 -0.8391 -1.2880
 9039TIP3   OH248531   2.675   2.596  16.660 -0.2973 -0.0306  0.3521
 9039TIP3    H148532   2.579   2.591  16.664 -0.3287  0.6965  0.5401
 9039TIP3    H248533   2.704   2.528  16.722 -0.7117  0.8012  1.5027
 9040TIP3   OH248534   4.292   6.455   1.043 -0.0184  0.0047  0.0984
 9040TIP3    H148535   4.345   6.399   1.100  2.0419  0.1635 -1.5555
 9040TIP3    H248536   4.237   6.395   0.994 -0.1143 -0.3034  0.5779
 9041TIP3   OH248537   1.390   1.663  11.594  0.0881 -0.4259 -0.5027
 9041TIP3    H148538   1.375   1.721  11.519  0.2075 -2.2252 -1.9833
 9041TIP3    H248539   1.305   1.623  11.611 -0.1492  0.5783  0.9410
 9042TIP3   OH248540   5.866   3.590   2.122 -0.7092  0.1571 -0.3945
 9042TIP3    H148541   5.793   3.638   2.160 -1.2818 -1.1407  0.1941
 9042TIP3    H248542   5.870   3.621   2.031 -0.2021  2.2658  0.2885
 9043TIP3   OH248543   3.838   1.540   2.395  0.4534 -0.0782  0.6972
 9043TIP3    H148544   3.758   1.585   2.422  2.1120  2.2908  2.0372
 9043TIP3    H248545   3.807   1.467   2.340 -2.5183  1.4586  0.1199
 9044TIP3   OH248546   3.771   3.667   1.585 -0.5919 -0.3583 -0.1683
 9044TIP3    H148547   3.786   3.699   1.496 -0.8196 -0.3355 -0.1985
 9044TIP3    H248548   3.682   3.633   1.583  0.4543 -3.3787 -0.8747
 9045TIP3   OH248549   3.527   1.524  14.361  0.5103  0.6056  0.2170
 9045TIP3    H148550   3.552   1.616  14.371  1.0224  0.4001  0.8872
 9045TIP3    H248551   3.531   1.489  14.449  0.9564 -0.2227 -0.1243
 9046TIP3   OH248552   5.915   5.029   5.936  0.1796  0.0296  0.2193
 9046TIP3    H148553   5.964   5.108   5.915  0.8923 -0.2980  0.6030
 9046TIP3    H248554   5.825   5.059   5.948  0.3025  0.6627 -0.3646
 9047TIP3   OH248555   0.490   1.416   3.767  0.4444  0.4018  0.4322
 9047TIP3    H148556   0.444   1.482   3.715 -2.7119 -1.3524  0.6785
 9047TIP3    H248557   0.542   1.368   3.703  0.0307  0.9736 -0.3545
 9048TIP3   OH248558   6.583   3.475  11.697  0.5734  0.0957 -0.8126
 9048TIP3    H148559   6.507   3.534  11.702  0.0064 -0.6101 -0.8589
 9048TIP3    H248560   6.558   3.400  11.751  1.6004  0.2350 -0.1226
 9049TIP3   OH248561   0.799   1.223   5.904  0.2832 -0.2954  0.4123
 9049TIP3    H148562   0.847   1.304   5.884 -0.4368 -0.0425 -0.3525
 9049TIP3    H248563   0.762   1.197   5.820 -0.5406 -0.7289  0.9095
 9050TIP3   OH248564   4.742   6.329   6.811 -0.4108 -0.6124  0.0213
 9050TIP3    H148565   4.825   6.350   6.769 -0.1839  1.4570  1.3640
 9050TIP3    H248566   4.679   6.388   6.770 -0.2342  1.2591  2.2642
 9051TIP3   OH248567   3.892   3.509   2.747 -0.0326 -0.0749 -0.0176
 9051TIP3    H148568   3.938   3.502   2.663  0.4974 -0.3491  0.2867
 9051TIP3    H248569   3.805   3.473   2.730  0.1483 -0.3410 -0.3920
 9052TIP3   OH248570   0.501   4.257   3.647 -0.7562  0.0758  0.0934
 9052TIP3    H148571   0.487   4.346   3.679 -1.3651  0.0896 -0.1858
 9052TIP3    H248572   0.412   4.223   3.634 -0.5326 -0.6345  0.3743
 9053TIP3   OH248573   4.749   4.896  14.907  0.0006 -0.7531 -0.3624
 9053TIP3    H148574   4.666   4.880  14.862 -0.0011 -0.1393 -0.5909
 9053TIP3    H248575   4.723   4.931  14.993  0.0089 -1.6588  0.0211
 9054TIP3   OH248576   1.094   1.905   2.447 -0.4808 -0.1203 -0.0971
 9054TIP3    H148577   1.000   1.890   2.435 -0.3181 -1.2204 -0.0766
 9054TIP3    H248578   1.123   1.832   2.501  0.4882 -0.0621 -0.5304
 9055TIP3   OH248579   4.338   3.390   2.329  0.4734  0.6570  0.3726
 9055TIP3    H148580   4.332   3.389   2.233 -3.1195  0.8571  0.4773
 9055TIP3    H248581   4.319   3.480   2.353  1.0395  0.5341  1.3407
 9056TIP3   OH248582   4.219   1.857   1.457 -0.3033 -0.0260 -0.0453
 9056TIP3    H148583   4.258   1.931   1.410  0.8330 -0.7695 -0.2965
 9056TIP3    H248584   4.279   1.784   1.443 -0.4234 -0.5293  1.7744
 9057TIP3   OH248585   6.381   2.615   1.436  0.5883  0.3304 -0.2191
 9057TIP3    H148586   6.319   2.604   1.365  1.5548 -1.1651 -0.8824
 9057TIP3    H248587   6.464   2.633   1.393  0.7903  1.5289  0.6256
 9058TIP3   OH248588   3.622   2.760  14.663  0.7220 -0.1797 -0.3347
 9058TIP3    H148589   3.716   2.766  14.646  0.5580  0.1204 -1.2019
 9058TIP3    H248590   3.581   2.804  14.588 -0.0438  1.7452  1.0937
 9059TIP3   OH248591   2.900   0.920   0.977 -0.0742  0.2725  0.6279
 9059TIP3    H148592   2.984   0.875   0.981  0.1388  0.7473  2.3129
 9059TIP3    H248593   2.863   0.895   0.892  1.4320 -0.5196  0.1741
 9060TIP3   OH248594   0.320   1.121  10.725  0.1653 -0.0610 -1.2712
 9060TIP3    H148595   0.237   1.093  10.686 -0.0944 -0.5576 -0.3936
 9060TIP3    H248596   0.316   1.216  10.726 -0.6171 -0.0903 -0.7907
 9061TIP3   OH248597   3.855   3.599  11.935  0.7814 -0.3270  0.4011
 9061TIP3    H148598   3.903   3.639  11.862  3.0602  0.7391  2.3565
 9061TIP3    H248599   3.865   3.505  11.921  1.7707 -0.1361 -0.3060
 9062TIP3   OH248600   2.351   3.297   3.387  0.0277 -0.9326  0.2247
 9062TIP3    H148601   2.315   3.298   3.298  0.5366 -0.0121  0.0130
 9062TIP3    H248602   2.446   3.287   3.373  0.0571 -1.3584  0.6955
 9063TIP3   OH248603   0.131   2.599   3.878  0.0860  0.0982  0.1160
 9063TIP3    H148604   0.196   2.621   3.945  0.8340 -0.7187 -0.3174
 9063TIP3    H248605   0.047   2.610   3.922  0.5760 -2.2137  1.8086
 9064TIP3   OH248606   2.982   2.379   1.388  0.1104 -0.0324  0.3168
 9064TIP3    H148607   2.933   2.331   1.321  1.8943  0.0530 -1.1445
 9064TIP3    H248608   3.057   2.322   1.407  1.0440  1.1340  0.2361
 9065TIP3   OH248609   4.302   2.962  12.001 -0.0827  0.1261  0.4333
 9065TIP3    H148610   4.286   3.000  11.915  0.6493  0.6434  0.5136
 9065TIP3    H248611   4.360   2.888  11.985  0.7823  0.7542  0.5513
 9066TIP3   OH248612   5.676   5.586  11.610 -0.0782 -0.3464  0.5418
 9066TIP3    H148613   5.674   5.671  11.655  1.0464 -0.5461  1.0001
 9066TIP3    H248614   5.743   5.596  11.543  0.9955 -1.2714  1.4507
 9067TIP3   OH248615   0.984   4.605  16.622 -0.0935 -1.2302  0.0518
 9067TIP3    H148616   0.942   4.620  16.706  1.0734 -2.3168  0.8694
 9067TIP3    H248617   1.054   4.671  16.618 -1.3272  0.0737 -0.9611
 9068TIP3   OH248618   2.108   0.858  12.568  0.4324  0.1603  0.1197
 9068TIP3    H148619   2.115   0.784  12.508  0.6897  0.3190 -0.0488
 9068TIP3    H248620   2.132   0.823  12.653 -0.3637 -0.1745  0.2150
 9069TIP3   OH248621   1.927   1.279   3.831 -0.0169  0.2734  0.1937
 9069TIP3    H148622   1.882   1.216   3.775 -1.0649  0.5669  0.6737
 9069TIP3    H248623   2.018   1.250   3.832  0.1303  0.4883 -1.9854
 9070TIP3   OH248624   3.295   5.106  12.689 -0.1920 -0.0264 -0.0225
 9070TIP3    H148625   3.328   5.096  12.600  1.1628 -0.6015  0.5073
 9070TIP3    H248626   3.364   5.067  12.744 -1.7849 -1.3226  1.1599
 9071TIP3   OH248627   1.202   3.980   2.187 -0.3210  0.3502  0.0044
 9071TIP3    H148628   1.116   3.937   2.190 -0.9126  1.1903 -2.4634
 9071TIP3    H248629   1.247   3.938   2.114  0.7350  1.0439  0.2334
 9072TIP3   OH248630   5.403   0.702   1.244  0.1470  0.1272  0.0623
 9072TIP3    H148631   5.411   0.608   1.263 -0.2853 -0.0483 -0.6150
 9072TIP3    H248632   5.454   0.715   1.164 -0.4802  0.3135 -0.3110
 9073TIP3   OH248633   5.927   3.702  12.159 -0.2934  0.3494  0.1694
 9073TIP3    H148634   5.969   3.767  12.217  0.6419  0.9107 -1.0732
 9073TIP3    H248635   5.991   3.690  12.088 -1.4082 -0.2949 -0.7469
 9074TIP3   OH248636   4.535   0.707   4.367 -0.1158 -0.1520 -0.3974
 9074TIP3    H148637   4.616   0.755   4.346  0.4278 -0.0353  1.6556
 9074TIP3    H248638   4.549   0.619   4.333  1.7940 -0.7156  1.6147
 9075TIP3   OH248639   6.042   2.070  11.863 -0.2429 -0.3142 -0.9782
 9075TIP3    H148640   6.002   2.080  11.949 -0.1065 -1.4296 -0.7689
 9075TIP3    H248641   6.065   2.159  11.836 -1.3614  0.1753 -0.3874
 9076TIP3   OH248642   1.520   1.661   3.007  0.5353 -0.2009 -0.6083
 9076TIP3    H148643   1.552   1.684   3.094  0.2000  1.1970 -0.8422
 9076TIP3    H248644   1.566   1.721   2.948 -0.7660  0.2611 -1.1828
 9077TIP3   OH248645   0.241   1.350  14.791 -0.1758  0.5828 -0.1933
 9077TIP3    H148646   0.309   1.354  14.724 -1.7508  2.2300 -1.8097
 9077TIP3    H248647   0.161   1.380  14.746 -1.4500  1.0889  2.2370
 9078TIP3   OH248648   3.512   3.457   2.361  0.1366  0.2879 -0.1670
 9078TIP3    H148649   3.579   3.391   2.378  2.4227  1.8560 -2.3230
 9078TIP3    H248650   3.435   3.408   2.332  1.2212 -1.4803 -0.1365
 9079TIP3   OH248651   4.975   3.297  12.442  0.1330 -0.8503  0.2965
 9079TIP3    H148652   5.068   3.316  12.449 -0.1615  0.4061  1.0009
 9079TIP3    H248653   4.947   3.337  12.360 -0.2827  1.0756  1.3111
 9080TIP3   OH248654   5.825   5.747   0.879 -0.3133  0.3702 -0.0014
 9080TIP3    H148655   5.745   5.797   0.898 -0.7985 -0.2294 -0.3858
 9080TIP3    H248656   5.878   5.756   0.957  0.9702  3.9320 -1.0991
 9081TIP3   OH248657   1.328   1.098  13.475 -0.5929  0.0047  0.2494
 9081TIP3    H148658   1.368   1.176  13.514  0.3698 -0.5104  0.3325
 9081TIP3    H248659   1.302   1.045  13.551 -1.4062  0.3171  0.1946
 9082TIP3   OH248660   4.999   6.182   0.222  0.1046  0.2889  0.8199
 9082TIP3    H148661   4.930   6.175   0.156 -0.3454  0.5394  1.2615
 9082TIP3    H248662   4.986   6.106   0.279  0.6716 -0.0895  0.4650
 9083TIP3   OH248663   4.441   3.059   2.929  0.3180 -0.2198 -0.0010
 9083TIP3    H148664   4.495   3.050   3.007 -0.0724  1.3702  0.4796
 9083TIP3    H248665   4.497   3.103   2.865  0.7572 -1.8304 -0.7954
 9084TIP3   OH248666   2.311   3.621   5.893  0.0113  0.1485  0.2003
 9084TIP3    H148667   2.403   3.638   5.911  0.1128  0.1615 -0.3207
 9084TIP3    H248668   2.294   3.664   5.809 -0.4255  0.0038  0.2107
 9085TIP3   OH248669   1.975   3.923   1.189  0.3934  0.6278  0.8267
 9085TIP3    H148670   1.925   3.879   1.120  2.3840 -0.7206  0.1642
 9085TIP3    H248671   1.929   4.006   1.203 -0.4206  0.6800 -1.7046
 9086TIP3   OH248672   5.695   1.024  14.042 -0.3642  0.1008  0.8171
 9086TIP3    H148673   5.762   1.081  14.003 -0.5383 -0.1584  0.1396
 9086TIP3    H248674   5.727   0.935  14.026 -1.3727 -0.0645 -0.4537
 9087TIP3   OH248675   3.982   4.709  10.683 -0.0826 -0.1156 -0.0072
 9087TIP3    H148676   4.042   4.643  10.716  0.4873 -0.6460 -1.9537
 9087TIP3    H248677   3.991   4.704  10.588 -1.5933  1.3193 -0.2761
 9088TIP3   OH248678   2.991   0.973  14.538  0.1565 -0.1556  0.4162
 9088TIP3    H148679   3.025   0.962  14.627  0.4613  0.5290  0.3879
 9088TIP3    H248680   3.042   0.912  14.486 -1.6702 -2.3883  1.0818
 9089TIP3   OH248681   1.212   0.006   5.023 -0.2922 -0.1292 -0.0086
 9089TIP3    H148682   1.175   0.093   5.008  0.3351  0.1568  0.0791
 9089TIP3    H248683   1.201  -0.039   4.939 -0.5045  0.0734 -0.0933
 9090TIP3   OH248684   0.401   0.071   1.664  0.1733 -0.1038  0.4047
 9090TIP3    H148685   0.485   0.052   1.622  0.3460 -0.4838  0.9165
 9090TIP3    H248686   0.423   0.093   1.754 -0.2633 -0.0545  0.5016
 9091TIP3   OH248687   2.972   4.246  15.903  0.0750  0.2842  0.8246
 9091TIP3    H148688   2.981   4.164  15.854  2.1097  0.0452  1.4983
 9091TIP3    H248689   3.044   4.244  15.965 -0.2634  2.2819  1.3322
 9092TIP3   OH248690   2.030   2.829  16.138 -0.4669  0.3701  0.2774
 9092TIP3    H148691   1.977   2.765  16.186 -0.7185 -0.4918 -1.1080
 9092TIP3    H248692   2.111   2.836  16.190 -1.4168  0.8105  1.7726
 9093TIP3   OH248693   0.637   1.025  16.353 -0.2767 -0.2047 -0.3029
 9093TIP3    H148694   0.642   1.087  16.280 -0.6677 -1.2521 -1.2457
 9093TIP3    H248695   0.723   0.983  16.355  0.0626  0.5135  0.4764
 9094TIP3   OH248696   4.581   5.057   5.399  0.1885  0.8155 -0.0145
 9094TIP3    H148697   4.514   5.087   5.338 -1.7649  0.4821  1.8328
 9094TIP3    H248698   4.584   4.962   5.387 -1.0095  0.6055  1.0951
 9095TIP3   OH248699   2.931   5.809   3.204 -0.6683 -0.3611 -0.1456
 9095TIP3    H148700   3.020   5.811   3.237 -0.6994  1.7095 -0.0270
 9095TIP3    H248701   2.940   5.821   3.110 -0.7945 -1.2227 -0.2755
 9096TIP3   OH248702   3.097   2.933   1.637  0.2946  0.3319 -0.5711
 9096TIP3    H148703   3.067   2.850   1.675  0.9055  0.6686  0.6923
 9096TIP3    H248704   3.192   2.931   1.648  0.3483  1.0462 -0.8716
 9097TIP3   OH248705   5.654   6.542  12.081 -0.0649  0.7287  0.2182
 9097TIP3    H148706   5.673   6.616  12.138 -3.1454  2.3379 -0.6258
 9097TIP3    H248707   5.582   6.572  12.026 -1.3783 -2.8675 -0.2863
 9098TIP3   OH248708   6.385   1.823   1.287  0.1109  0.0847  0.0175
 9098TIP3    H148709   6.301   1.867   1.299  1.2129  2.2252  0.3341
 9098TIP3    H248710   6.388   1.799   1.195 -0.4971  0.7468 -0.1758
 9099TIP3   OH248711   6.168   2.128   1.068  0.1527  0.2144  0.2139
 9099TIP3    H148712   6.121   2.051   1.036 -1.3078 -0.2956  3.2109
 9099TIP3    H248713   6.260   2.107   1.057 -0.2217 -2.0025  0.9230
 9100TIP3   OH248714   2.529   5.653   5.181 -0.2042  0.2382 -0.2668
 9100TIP3    H148715   2.489   5.568   5.167 -0.0137 -0.3852  2.3741
 9100TIP3    H248716   2.477   5.714   5.129 -1.6923 -1.1991 -0.5133
 9101TIP3   OH248717   2.770   3.396  16.643  0.2487 -0.7110  0.1358
 9101TIP3    H148718   2.824   3.458  16.692 -1.1744  1.4676 -0.8993
 9101TIP3    H248719   2.700   3.372  16.703  0.2841 -0.5875  0.2273
 9102TIP3   OH248720   5.702   0.913  16.337  0.1299  0.1334  0.1746
 9102TIP3    H148721   5.721   0.989  16.392  1.4225  0.1905 -0.3329
 9102TIP3    H248722   5.631   0.868  16.384  0.4033  0.8070  1.2817
 9103TIP3   OH248723   3.596   6.502   3.757  0.3763  0.6334 -0.5853
 9103TIP3    H148724   3.529   6.481   3.692 -0.9975 -0.0600  0.9910
 9103TIP3    H248725   3.562   6.466   3.839  2.1813  1.2386  0.4809
 9104TIP3   OH248726   3.418   1.389   2.627 -0.0075 -0.1511  0.8318
 9104TIP3    H148727   3.506   1.355   2.644  0.0780 -0.3123  0.1297
 9104TIP3    H248728   3.427   1.438   2.544 -0.8330 -1.2105  0.0842
 9105TIP3   OH248729   5.515   6.179  10.906  0.0201 -0.1054 -0.7662
 9105TIP3    H148730   5.551   6.164  10.993 -1.7403  0.9354  0.1899
 9105TIP3    H248731   5.492   6.272  10.905 -1.4512 -0.4452 -1.7612
 9106TIP3   OH248732   5.431   2.421  12.836 -0.1695  0.1320  0.2045
 9106TIP3    H148733   5.497   2.396  12.771 -0.6252 -1.8128  0.4319
 9106TIP3    H248734   5.471   2.494  12.883  0.7974  0.5990 -1.2576
 9107TIP3   OH248735   0.740   4.595  16.501  0.4341  0.1998 -0.1714
 9107TIP3    H148736   0.719   4.501  16.496 -0.0986  0.3614 -1.2174
 9107TIP3    H248737   0.831   4.598  16.531  0.2253 -0.6285  0.5933
 9108TIP3   OH248738   5.228   3.606  14.521 -0.4734 -0.2189  0.4167
 9108TIP3    H148739   5.199   3.533  14.466  0.4876 -0.5588  0.3365
 9108TIP3    H248740   5.323   3.604  14.514 -0.4478  1.3144  0.0807
 9109TIP3   OH248741   4.471   1.546  16.750 -0.2146  0.0463 -0.4530
 9109TIP3    H148742   4.427   1.570  16.668  0.6954 -1.2705 -1.3619
 9109TIP3    H248743   4.417   1.586  16.819 -2.7445 -1.3002 -1.5208
 9110TIP3   OH248744   4.033   6.366   0.956 -0.2986  0.0821  0.3885
 9110TIP3    H148745   3.968   6.371   1.026  0.6199  0.7132  1.2300
 9110TIP3    H248746   3.989   6.317   0.886 -1.1928 -0.7067  1.4539
 9111TIP3   OH248747   6.061   1.884  16.821  0.7480  1.1067 -0.0258
 9111TIP3    H148748   6.083   1.972  16.791 -0.5433  0.8118 -2.0433
 9111TIP3    H248749   6.052   1.833  16.741 -1.4611 -0.1345  0.9283
 9112TIP3   OH248750   1.086   3.156   5.614 -0.1162  0.5188  0.1231
 9112TIP3    H148751   1.095   3.236   5.563  0.7616  0.4364  0.1352
 9112TIP3    H248752   1.014   3.174   5.675 -0.1962  1.1452 -0.1536
 9113TIP3   OH248753   4.109   2.929  15.757  0.2108 -0.8080 -0.2601
 9113TIP3    H148754   4.082   2.880  15.679 -0.4170  0.1897 -0.6907
 9113TIP3    H248755   4.133   2.861  15.820 -0.4577 -1.6638 -0.8922
 9114TIP3   OH248756   5.569   0.805  15.632 -0.1214  0.0226 -0.1063
 9114TIP3    H148757   5.483   0.848  15.628  0.1251  0.4957 -3.3994
 9114TIP3    H248758   5.631   0.873  15.605  0.8348 -1.2012 -1.1060
 9115TIP3   OH248759   1.430   6.556  17.038  0.2109  0.9807  0.0765
 9115TIP3    H148760   1.467   6.639  17.067 -0.4563  0.5611  2.3425
 9115TIP3    H248761   1.340   6.578  17.013 -0.7162  0.7041  2.7854
 9116TIP3   OH248762   5.508   5.800  11.706  0.5310 -0.3185 -0.9156
 9116TIP3    H148763   5.530   5.713  11.739  1.1789 -0.0970 -0.7630
 9116TIP3    H248764   5.464   5.784  11.622  1.6369 -0.7497 -1.4285
 9117TIP3   OH248765   0.192   1.773  11.000  0.5212  0.7395  0.4021
 9117TIP3    H148766   0.255   1.823  11.052 -2.0432  1.8180  2.7367
 9117TIP3    H248767   0.170   1.830  10.927  2.7329  0.0048 -0.9422
 9118TIP3   OH248768   1.757   6.807  14.901  0.1036 -0.5100 -0.0830
 9118TIP3    H148769   1.836   6.755  14.887 -0.6818 -1.8452  0.2821
 9118TIP3    H248770   1.742   6.803  14.996  0.9284  1.8023  0.2250
 9119TIP3   OH248771   1.924   6.324  12.798 -0.5067  0.0161  0.1328
 9119TIP3    H148772   1.851   6.347  12.857 -0.2113  2.0905 -0.2315
 9119TIP3    H248773   1.992   6.291  12.857 -0.5167  1.2819  0.9081
 9120TIP3   OH248774   3.450   2.733   1.412 -0.3831 -0.1007  0.1882
 9120TIP3    H148775   3.538   2.763   1.437 -1.0554  0.3648  2.2315
 9120TIP3    H248776   3.463   2.687   1.329  2.0412 -1.3989  1.1668
 9121TIP3   OH248777   0.929   3.294  11.036 -0.6029  0.4763 -0.4701
 9121TIP3    H148778   0.884   3.268  11.117 -1.1470  0.1120 -0.8785
 9121TIP3    H248779   1.001   3.232  11.027  0.9653  1.9900  0.9894
 9122TIP3   OH248780   1.095   6.427   3.671  0.1956 -0.0880 -0.5642
 9122TIP3    H148781   1.078   6.334   3.656  0.0767  0.0929 -1.6313
 9122TIP3    H248782   1.175   6.445   3.621 -0.9648  0.8506 -2.1947
 9123TIP3   OH248783   4.110   3.428  13.007  0.2957  0.0063  0.2537
 9123TIP3    H148784   4.171   3.395  13.073  0.4349  1.3064  0.8150
 9123TIP3    H248785   4.149   3.404  12.923 -0.4105 -2.6320  0.5792
 9124TIP3   OH248786   6.716   6.777   1.680  0.3670  0.5074  0.1594
 9124TIP3    H148787   6.662   6.836   1.731 -1.5167 -0.0631 -1.0527
 9124TIP3    H248788   6.678   6.690   1.695  1.9818 -0.1688  0.5393
 9125TIP3   OH248789   0.851   4.414  17.066 -0.4046  0.1121 -0.3021
 9125TIP3    H148790   0.771   4.465  17.072 -1.1928 -1.1073 -0.0636
 9125TIP3    H248791   0.824   4.332  17.024  1.1405  0.5368 -2.2981
 9126TIP3   OH248792   6.394   1.901  10.995  0.8161 -0.0808  0.1617
 9126TIP3    H148793   6.316   1.895  11.050  2.4952 -0.5923  2.6381
 9126TIP3    H248794   6.362   1.940  10.913 -2.5821 -2.9758 -0.1616
 9127TIP3   OH248795   4.498   4.692   3.373  0.3085 -0.0876  0.0653
 9127TIP3    H148796   4.505   4.617   3.314 -0.2689 -0.3891  0.3797
 9127TIP3    H248797   4.458   4.657   3.452  0.8724  0.3651  0.5611
 9128TIP3   OH248798   5.277   1.612  15.185 -0.7278 -0.5891  0.2648
 9128TIP3    H148799   5.304   1.562  15.109  0.3510  0.0380  0.2238
 9128TIP3    H248800   5.240   1.546  15.245 -1.3053 -1.1227 -0.6555
 9129TIP3   OH248801   2.378   3.387  12.516 -0.0732  0.0329 -0.2036
 9129TIP3    H148802   2.385   3.344  12.601 -0.0899 -1.3879 -0.8892
 9129TIP3    H248803   2.286   3.380  12.492  0.4646 -2.9523 -1.9472
 9130TIP3   OH248804   6.151   4.530  10.932  0.4263  0.1968 -0.2089
 9130TIP3    H148805   6.180   4.458  10.988  0.2955  0.3330  0.0364
 9130TIP3    H248806   6.222   4.541  10.869 -0.0969 -0.9714 -1.0433
 9131TIP3   OH248807   0.794   6.317   6.061 -0.0923 -0.9646  0.1159
 9131TIP3    H148808   0.708   6.286   6.091 -0.0583 -1.6092 -0.4356
 9131TIP3    H248809   0.844   6.237   6.046 -0.0380 -0.6529 -1.4558
 9132TIP3   OH248810   4.893   0.968   0.850  0.1607 -0.2922 -0.0164
 9132TIP3    H148811   4.858   1.042   0.899  0.4207 -0.0796 -0.1505
 9132TIP3    H248812   4.885   0.994   0.758 -0.3810 -0.7128 -0.0958
 9133TIP3   OH248813   0.919   1.533   2.483 -0.5405  0.7284  0.3779
 9133TIP3    H148814   0.825   1.541   2.471 -0.7114  0.5562  1.4963
 9133TIP3    H248815   0.937   1.440   2.474 -0.4644  0.7651  0.1300
 9134TIP3   OH248816   6.363   0.198   5.288  0.1922  0.1081 -0.3625
 9134TIP3    H148817   6.435   0.193   5.225  1.0043 -0.2199  0.5619
 9134TIP3    H248818   6.307   0.269   5.256  2.9136  3.0515  0.8957
 9135TIP3   OH248819   1.886   2.594   0.037  0.1552  0.4947 -0.2553
 9135TIP3    H148820   1.968   2.612  -0.010  0.3777 -0.3398 -0.1993
 9135TIP3    H248821   1.817   2.609  -0.029  0.4043  0.3616 -0.5473
 9136TIP3   OH248822   5.083   2.304  15.358 -0.2073  0.1696  0.0527
 9136TIP3    H148823   5.146   2.232  15.357 -0.7682 -0.3402 -1.2968
 9136TIP3    H248824   5.043   2.299  15.445  0.2951 -0.6666  0.2476
 9137TIP3   OH248825   3.429   5.582   5.311  0.2962  0.3693 -0.5040
 9137TIP3    H148826   3.337   5.572   5.334  0.2880 -0.3305 -0.7944
 9137TIP3    H248827   3.460   5.655   5.364 -0.1057 -0.1929  0.5259
 9138TIP3   OH248828   0.494   3.777  15.263  0.6264 -0.0652  0.1530
 9138TIP3    H148829   0.473   3.689  15.231 -1.9362  0.9187 -1.1178
 9138TIP3    H248830   0.449   3.784  15.347 -1.1768  0.7848 -0.8432
 9139TIP3   OH248831   2.681   5.862   1.835  0.5647 -0.2683 -0.6284
 9139TIP3    H148832   2.725   5.778   1.823 -1.3584 -1.4807  0.3454
 9139TIP3    H248833   2.637   5.878   1.751  0.2365 -0.6442 -0.5249
 9140TIP3   OH248834   3.424   6.692  13.227 -0.3341 -0.0355  0.1568
 9140TIP3    H148835   3.357   6.665  13.163 -0.5261  0.3906  0.1732
 9140TIP3    H248836   3.436   6.786  13.211  1.0862 -0.3232 -0.6037
 9141TIP3   OH248837   3.755   5.716   5.134  0.2053 -0.2954  0.0063
 9141TIP3    H148838   3.667   5.755   5.140 -0.2363 -1.0654 -1.0667
 9141TIP3    H248839   3.772   5.709   5.040  2.1945  1.4758  0.1810
 9142TIP3   OH248840   3.146   2.165   1.372 -0.0474 -0.1884 -0.5574
 9142TIP3    H148841   3.097   2.098   1.420 -1.1038  2.8464  3.1341
 9142TIP3    H248842   3.238   2.146   1.392 -0.1213 -1.7694 -1.5346
 9143TIP3   OH248843   3.649   0.061   2.621  0.5135  0.6078  0.1910
 9143TIP3    H148844   3.730   0.054   2.570 -0.5596 -0.0864 -1.5102
 9143TIP3    H248845   3.627   0.155   2.618 -0.0679  0.4458 -1.5692
 9144TIP3   OH248846   0.574   4.611  16.186 -0.0945  0.3805 -0.0039
 9144TIP3    H148847   0.544   4.659  16.109 -1.7024 -0.7348 -0.1217
 9144TIP3    H248848   0.530   4.654  16.259 -0.9385 -0.3796 -0.0384
 9145TIP3   OH248849   6.557   0.057  14.857  0.1047 -0.3494  0.2856
 9145TIP3    H148850   6.526   0.128  14.913  1.1927  1.2291 -1.0309
 9145TIP3    H248851   6.637   0.026  14.900 -0.0118 -0.3420  0.5122
 9146TIP3   OH248852   4.407   5.602   5.747 -0.6619 -0.3053  0.0519
 9146TIP3    H148853   4.333   5.610   5.687 -1.2540 -1.9950  0.4934
 9146TIP3    H248854   4.368   5.606   5.834  0.0136  0.7017  0.3201
 9147TIP3   OH248855   6.590   5.580   4.466  0.4044 -0.2720 -0.2909
 9147TIP3    H148856   6.513   5.561   4.412  1.2161  0.8801 -1.9458
 9147TIP3    H248857   6.665   5.558   4.411  1.2821 -0.8328  1.0776
 9148TIP3   OH248858   5.556   4.368  10.768 -0.2278  0.4248  0.1643
 9148TIP3    H148859   5.598   4.454  10.765 -0.0606  0.3364 -0.0432
 9148TIP3    H248860   5.504   4.363  10.688  0.9452 -0.2603 -0.5935
 9149TIP3   OH248861   1.426   6.180  12.856  0.4332 -0.2262 -0.1439
 9149TIP3    H148862   1.467   6.257  12.815 -2.5776  1.0822 -0.9843
 9149TIP3    H248863   1.392   6.129  12.782 -0.1782 -0.8220  0.5345
 9150TIP3   OH248864   0.141   6.421  13.971  0.0324  0.2423 -0.1530
 9150TIP3    H148865   0.051   6.419  13.939 -0.5148  0.2217  1.2856
 9150TIP3    H248866   0.132   6.426  14.066  1.5318 -2.7483  0.2660
 9151TIP3   OH248867   2.572   3.993  15.450  0.7990 -0.1707  0.9439
 9151TIP3    H148868   2.592   4.086  15.444  0.7789 -0.2609 -1.6451
 9151TIP3    H248869   2.605   3.956  15.368 -0.5119 -2.1825  1.2538
 9152TIP3   OH248870   1.323   2.470  14.950 -0.5592 -0.3795 -0.1235
 9152TIP3    H148871   1.297   2.450  14.860 -0.9379  1.9674 -0.6026
 9152TIP3    H248872   1.246   2.511  14.989  0.3181  0.7248  0.5181
 9153TIP3   OH248873   5.400   2.161   3.023 -0.0944  0.1050  0.3716
 9153TIP3    H148874   5.329   2.141   2.962  0.8754  0.4984 -0.9292
 9153TIP3    H248875   5.477   2.172   2.967  0.7580  0.8146  1.6405
 9154TIP3   OH248876   2.266   2.914   5.312 -0.4669  0.0585  0.4309
 9154TIP3    H148877   2.254   2.987   5.372  2.6990  0.3683  0.8631
 9154TIP3    H248878   2.214   2.937   5.235  0.0685  2.5841  0.7452
 9155TIP3   OH248879   1.924   3.203   2.300  0.6675 -0.3042 -0.0543
 9155TIP3    H148880   1.835   3.200   2.266  1.2026  1.1284 -1.7205
 9155TIP3    H248881   1.927   3.283   2.353  1.1491  0.1123 -0.6835
 9156TIP3   OH248882   5.086   4.486   4.671  0.6920 -0.1739  0.0406
 9156TIP3    H148883   5.143   4.434   4.728 -1.4979 -1.8111  0.8813
 9156TIP3    H248884   5.021   4.524   4.730 -0.5834 -0.4592 -1.1290
 9157TIP3   OH248885   1.452   1.806  15.083 -0.0105 -1.0072  0.2587
 9157TIP3    H148886   1.399   1.732  15.052 -0.7994 -0.4878  0.3313
 9157TIP3    H248887   1.424   1.879  15.028 -1.7668  0.0550  2.4396
 9158TIP3   OH248888   2.330   2.912   4.621 -0.5241 -0.0981  0.1902
 9158TIP3    H148889   2.323   2.842   4.686 -1.1300 -0.1664  0.0581
 9158TIP3    H248890   2.314   2.992   4.670 -0.0122 -0.0636  0.3066
 9159TIP3   OH248891   1.149   1.389   1.990 -0.2368  0.2154  1.3038
 9159TIP3    H148892   1.162   1.474   1.950 -0.3083 -0.6467 -0.6472
 9159TIP3    H248893   1.180   1.326   1.925 -1.7808 -1.3286  1.9785
 9160TIP3   OH248894   6.089   5.013  12.303  0.2523 -0.3129  0.0306
 9160TIP3    H148895   6.161   5.077  12.306 -0.6760  0.7563  1.5322
 9160TIP3    H248896   6.014   5.062  12.337 -1.6124 -0.9252 -2.9273
 9161TIP3   OH248897   6.507   4.324  17.026  0.1934 -0.3696  0.0001
 9161TIP3    H148898   6.499   4.230  17.046 -1.3059 -0.8012 -2.2072
 9161TIP3    H248899   6.545   4.326  16.938 -1.4418  1.0082 -0.7146
 9162TIP3   OH248900   0.380   1.140  11.086  0.4314 -0.2463 -0.2524
 9162TIP3    H148901   0.337   1.128  11.001 -2.5574  1.8347  0.7800
 9162TIP3    H248902   0.454   1.198  11.069  1.1618 -1.5689 -1.7085
 9163TIP3   OH248903   5.190   4.607  12.061  0.7365 -0.3609  0.7790
 9163TIP3    H148904   5.199   4.579  12.152 -0.7119 -0.5910  0.8767
 9163TIP3    H248905   5.254   4.555  12.013  0.6142 -1.1890  1.4907
 9164TIP3   OH248906   3.992   4.205  10.091  0.0694  0.4403  0.1574
 9164TIP3    H148907   4.012   4.178  10.001 -2.1725 -0.3287 -0.1636
 9164TIP3    H248908   4.062   4.266  10.113  0.4249  1.0293 -2.2859
 9165TIP3   OH248909   6.620   2.026  15.142 -0.3679  0.2524 -0.1328
 9165TIP3    H148910   6.703   1.989  15.113 -1.0144 -1.9258  0.6237
 9165TIP3    H248911   6.629   2.035  15.237 -0.5491  1.2853 -0.1972
 9166TIP3   OH248912   4.723   2.782  12.272  0.5433 -0.1738 -0.2732
 9166TIP3    H148913   4.812   2.768  12.304  0.0164 -0.3780  1.1522
 9166TIP3    H248914   4.696   2.865  12.311  0.6599  0.7513 -2.0222
 9167TIP3   OH248915   3.778   6.180   5.120 -0.0793 -0.0363 -0.0013
 9167TIP3    H148916   3.772   6.088   5.095 -2.7412  0.6547 -2.3542
 9167TIP3    H248917   3.841   6.218   5.059 -0.1795  0.0166 -0.0719
 9168TIP3   OH248918   4.492   5.003  12.020 -0.0742 -0.3497  0.0615
 9168TIP3    H148919   4.529   4.949  12.090  0.8817 -0.3702 -0.4497
 9168TIP3    H248920   4.414   5.042  12.059  1.2410  0.8252  1.6401
 9169TIP3   OH248921   0.170   6.513  15.785 -0.0401 -0.0938  0.1585
 9169TIP3    H148922   0.115   6.545  15.714  0.5771 -0.2680 -0.4079
 9169TIP3    H248923   0.161   6.578  15.854 -0.4862  0.1805 -0.1583
 9170TIP3   OH248924   1.209   3.869  12.597  0.0282  0.0562  0.1658
 9170TIP3    H148925   1.155   3.946  12.582  1.2603  0.8604 -0.2960
 9170TIP3    H248926   1.256   3.888  12.678  2.0385  0.8347 -1.1202
 9171TIP3   OH248927   3.822   5.717   5.526  0.2134  0.0525  0.0454
 9171TIP3    H148928   3.819   5.810   5.545 -0.9651 -0.0899  0.6570
 9171TIP3    H248929   3.880   5.681   5.593  0.9589  0.3794 -0.4105
 9172TIP3   OH248930   4.662   3.260   5.258  0.3122  0.2940  0.5322
 9172TIP3    H148931   4.653   3.185   5.317  0.4040  0.6212  0.9697
 9172TIP3    H248932   4.640   3.336   5.312 -1.1029  0.4821 -0.2497
 9173TIP3   OH248933   5.711   2.141  13.906 -0.3974 -0.2807 -0.0083
 9173TIP3    H148934   5.706   2.148  13.811 -0.6917 -1.4213 -0.0849
 9173TIP3    H248935   5.790   2.190  13.929 -0.4479  0.1961 -0.8089
 9174TIP3   OH248936   1.196   1.299  14.929  0.1721 -0.0784  0.7780
 9174TIP3    H148937   1.139   1.319  14.855  0.1972  1.0636  1.0417
 9174TIP3    H248938   1.140   1.251  14.990  0.8377 -3.4915 -1.0509
 9175TIP3   OH248939   3.893   4.768  16.251 -0.5038  0.1757  0.2232
 9175TIP3    H148940   3.915   4.778  16.343  0.4499  0.2563 -0.0072
 9175TIP3    H248941   3.844   4.685  16.247 -0.5687  0.1816  0.7942
 9176TIP3   OH248942   2.067   4.918   3.260  0.0103  0.1008 -0.4611
 9176TIP3    H148943   2.121   4.874   3.325 -1.2857  0.0247  0.6144
 9176TIP3    H248944   2.037   4.847   3.202 -2.7787 -0.7625  1.7677
 9177TIP3   OH248945   0.236   2.299   0.577  0.6414  0.4823  0.2160
 9177TIP3    H148946   0.202   2.301   0.487  0.7932 -0.0086  0.1460
 9177TIP3    H248947   0.316   2.247   0.571  0.3213 -0.0864  0.7478
 9178TIP3   OH248948   4.304   3.859  11.545 -0.2437 -0.1611  0.0211
 9178TIP3    H148949   4.297   3.796  11.616 -0.2665  0.5543  0.6581
 9178TIP3    H248950   4.390   3.899  11.556 -0.6710  0.7027  0.2825
 9179TIP3   OH248951   2.767   4.513   0.800  0.0935 -0.0977  0.0255
 9179TIP3    H148952   2.792   4.466   0.880  0.6560 -0.7010 -0.4892
 9179TIP3    H248953   2.767   4.605   0.826  1.4824 -0.1814  0.4309
 9180TIP3   OH248954   6.295   1.885   5.227 -0.2596 -0.0236  0.2954
 9180TIP3    H148955   6.301   1.793   5.199  0.9595 -0.1749  0.9848
 9180TIP3    H248956   6.205   1.894   5.258 -0.8519 -0.5634 -1.1566
 9181TIP3   OH248957   5.790   1.485  11.495  0.1805  0.2202 -0.2820
 9181TIP3    H148958   5.763   1.501  11.586  1.9401 -0.9687  0.4985
 9181TIP3    H248959   5.711   1.452  11.452 -0.5351  0.2567  0.9556
 9182TIP3   OH248960   4.773   2.571   3.827  0.1676 -0.7754 -0.1144
 9182TIP3    H148961   4.717   2.500   3.858  1.9466 -1.1487  2.6510
 9182TIP3    H248962   4.829   2.531   3.760  0.4501 -1.7499  0.6790
 9183TIP3   OH248963   0.598   5.083  12.681 -0.0438  0.3790  0.2431
 9183TIP3    H148964   0.569   5.145  12.615 -1.6169 -0.8567 -0.3073
 9183TIP3    H248965   0.547   5.105  12.759  0.1893  0.4550  0.3743
 9184TIP3   OH248966   1.355   2.448  16.363  0.0403 -0.2390  0.2002
 9184TIP3    H148967   1.423   2.503  16.402  0.3668 -0.8815  0.5562
 9184TIP3    H248968   1.312   2.406  16.438  0.9984 -1.8710 -0.1171
 9185TIP3   OH248969   3.082   1.287  15.232 -0.1117  0.2762  0.2226
 9185TIP3    H148970   3.124   1.215  15.184 -1.1998 -0.0616 -0.2767
 9185TIP3    H248971   3.121   1.285  15.319  0.5236 -0.3456 -0.0687
 9186TIP3   OH248972   2.171   5.736  14.359  0.3075 -0.2174 -0.3256
 9186TIP3    H148973   2.095   5.776  14.317 -0.6254 -2.9521 -1.5120
 9186TIP3    H248974   2.161   5.756  14.452 -0.8737  0.9633 -0.6767
 9187TIP3   OH248975   2.667   2.433  13.019  0.5780  0.4198 -0.1233
 9187TIP3    H148976   2.591   2.420  13.077  1.0352 -3.5510 -0.1056
 9187TIP3    H248977   2.639   2.500  12.957 -1.6815  1.4290  1.8285
 9188TIP3   OH248978   3.007   0.067  16.644  0.2608 -0.0086  0.4128
 9188TIP3    H148979   3.018   0.149  16.691  1.3477 -0.0544  0.2617
 9188TIP3    H248980   2.974   0.092  16.558 -1.4977  0.0928  1.0744
 9189TIP3   OH248981   0.344   3.696   1.154 -0.2277 -0.3220 -0.0877
 9189TIP3    H148982   0.353   3.648   1.236 -0.1217  1.1990  0.8136
 9189TIP3    H248983   0.253   3.681   1.127 -0.6067  0.0983  0.9108
 9190TIP3   OH248984   5.591   5.348  13.083 -0.2839 -0.0095  0.1132
 9190TIP3    H148985   5.605   5.285  13.013  1.4324  2.3538 -1.8751
 9190TIP3    H248986   5.654   5.324  13.151 -0.2701 -0.9224 -0.2184
 9191TIP3   OH248987   5.498   0.972   1.483  0.2878 -0.0254 -0.4528
 9191TIP3    H148988   5.410   0.941   1.460  0.8579 -1.4545 -0.8465
 9191TIP3    H248989   5.488   1.008   1.571 -0.8785  0.7421 -0.8737
 9192TIP3   OH248990   1.970   6.711   1.588 -0.2416 -0.3916  0.0320
 9192TIP3    H148991   2.019   6.683   1.665 -0.9440 -2.0285 -0.0694
 9192TIP3    H248992   1.887   6.663   1.593 -1.6448  1.8686 -0.0893
 9193TIP3   OH248993   1.750   3.788   4.271  0.0146 -0.3231 -0.2306
 9193TIP3    H148994   1.692   3.823   4.338  1.1658  0.6898  0.2663
 9193TIP3    H248995   1.748   3.693   4.284 -1.0624 -0.2592  0.1362
 9194TIP3   OH248996   1.641   4.235  11.806 -0.1694  0.2476 -0.0597
 9194TIP3    H148997   1.607   4.322  11.785 -1.3527  0.5096  2.5382
 9194TIP3    H248998   1.564   4.178  11.800 -0.2381  0.0949  1.8827
 9195TIP3   OH248999   0.999   5.582   4.797 -0.3952 -0.0566 -0.4895
 9195TIP3    H149000   1.031   5.519   4.862 -0.0516 -0.3708 -0.9615
 9195TIP3    H249001   0.991   5.664   4.846  0.7220 -0.0689 -0.2507
 9196TIP3   OH249002   6.795   1.460  12.420 -0.0916  0.5045  0.5468
 9196TIP3    H149003   6.852   1.406  12.365  1.1454 -1.2060  3.2988
 9196TIP3    H249004   6.734   1.500  12.358  0.9980 -1.4788 -2.0245
 9197TIP3   OH249005   5.659   0.971   4.466 -0.4994  0.5270 -0.3298
 9197TIP3    H149006   5.628   1.033   4.401  2.9932  0.5362 -2.2132
 9197TIP3    H249007   5.688   0.895   4.416 -0.7536 -0.8932  1.5518
 9198TIP3   OH249008   0.636   0.570  16.674  0.3648 -0.0875 -0.6498
 9198TIP3    H149009   0.663   0.551  16.764 -1.1358 -1.7773 -0.5097
 9198TIP3    H249010   0.642   0.485  16.629 -3.2661 -0.3444 -0.9335
 9199TIP3   OH249011   2.905   6.391   2.520 -0.2379 -0.0310 -0.4703
 9199TIP3    H149012   2.996   6.399   2.550  0.0391  1.3191 -1.5597
 9199TIP3    H249013   2.893   6.465   2.460 -1.6681 -0.9319 -1.3518
 9200TIP3   OH249014   5.863   2.482  16.193  0.5500 -0.9440 -0.2315
 9200TIP3    H149015   5.920   2.406  16.207 -0.4120 -1.5677  0.4644
 9200TIP3    H249016   5.781   2.458  16.237  0.8930  1.3276  1.8869
 9201TIP3   OH249017   3.812   6.493  10.472  0.5754 -0.3600 -0.1350
 9201TIP3    H149018   3.764   6.418  10.506 -1.1436  1.3547  1.4778
 9201TIP3    H249019   3.900   6.483  10.508  0.5969 -1.9181 -0.5360
 9202TIP3   OH249020   6.242   0.941   3.931 -0.4210  0.5629  0.3766
 9202TIP3    H149021   6.262   0.874   3.866 -1.3500 -0.5111  1.1633
 9202TIP3    H249022   6.327   0.963   3.970 -0.0574  0.1367 -0.1591
 9203TIP3   OH249023   5.272   5.496   1.585  0.7157 -0.1340  0.2097
 9203TIP3    H149024   5.272   5.538   1.671 -1.1825  2.6765 -1.0054
 9203TIP3    H249025   5.216   5.419   1.596  1.3910 -0.4429  1.7014
 9204TIP3   OH249026   3.855   1.294   3.980  0.8888 -0.0012  0.8386
 9204TIP3    H149027   3.897   1.371   4.018 -0.3802  1.2226 -0.1334
 9204TIP3    H249028   3.762   1.317   3.978  0.7110 -0.7377 -1.3007
 9205TIP3   OH249029   1.151   4.820  16.655  0.5084 -0.1997 -0.6241
 9205TIP3    H149030   1.183   4.899  16.698  0.9132 -0.4498 -0.4639
 9205TIP3    H249031   1.203   4.749  16.693  0.1137 -0.5494 -0.7293
 9206TIP3   OH249032   1.154   6.629   4.228 -0.3965 -0.0196 -0.2099
 9206TIP3    H149033   1.211   6.554   4.247 -0.3867 -0.3796 -1.6072
 9206TIP3    H249034   1.118   6.611   4.142 -2.7252  0.1484  0.6569
 9207TIP3   OH249035   0.873   1.121  16.945 -0.2820  0.0726 -0.7418
 9207TIP3    H149036   0.892   1.073  17.026 -1.4243 -0.9421 -1.0352
 9207TIP3    H249037   0.921   1.203  16.953 -1.2999  0.5152  1.4979
 9208TIP3   OH249038   6.130   6.600  16.617 -0.2727  0.4140  0.1349
 9208TIP3    H149039   6.215   6.642  16.604 -0.7662  1.3770 -0.0944
 9208TIP3    H249040   6.114   6.553  16.535 -0.3710  0.9875 -0.1789
 9209TIP3   OH249041   4.277   3.585  16.147  0.8509 -0.0053  0.0880
 9209TIP3    H149042   4.322   3.568  16.230 -1.2832  0.7674  1.5091
 9209TIP3    H249043   4.227   3.506  16.130  1.5163 -0.2785 -0.6661
 9210TIP3   OH249044   3.163   2.470  13.177 -0.4769 -0.5284 -0.1595
 9210TIP3    H149045   3.073   2.476  13.146 -0.1835 -1.1608 -1.2033
 9210TIP3    H249046   3.203   2.553  13.150 -0.9998  0.2210  1.2654
 9211TIP3   OH249047   3.117   1.343   2.982  0.7020  0.2896 -0.0243
 9211TIP3    H149048   3.196   1.396   2.980 -0.5856  2.3678  0.5558
 9211TIP3    H249049   3.051   1.396   2.938 -0.6907 -0.7844  0.6715
 9212TIP3   OH249050   0.370   5.467   5.853  0.5351  0.3798  0.1782
 9212TIP3    H149051   0.298   5.502   5.801 -1.2237 -1.3850  1.2727
 9212TIP3    H249052   0.374   5.524   5.930  1.0263  1.0960 -0.3666
 9213TIP3   OH249053   6.471   2.806  11.559 -0.2294  0.5152 -0.4456
 9213TIP3    H149054   6.457   2.900  11.572  1.4447  0.9255 -1.3062
 9213TIP3    H249055   6.560   2.800  11.525 -0.8829 -1.2632 -2.0107
 9214TIP3   OH249056   5.952   4.767  14.158  0.0641 -0.6562  0.1327
 9214TIP3    H149057   5.866   4.801  14.180  0.5987  0.4972  0.5395
 9214TIP3    H249058   5.947   4.744  14.065 -0.1447  1.1804 -0.3393
 9215TIP3   OH249059   5.584   6.155  10.638 -0.0347  0.3127  0.0903
 9215TIP3    H149060   5.577   6.165  10.733  1.6409  2.6912  0.0417
 9215TIP3    H249061   5.652   6.218  10.612  0.8650 -1.5542 -2.4792
 9216TIP3   OH249062   3.844   3.425   5.693  0.5825  0.0567  0.7058
 9216TIP3    H149063   3.894   3.372   5.755  2.2455  0.3992 -0.2897
 9216TIP3    H249064   3.770   3.369   5.668  0.1659 -0.2880  2.5401
 9217TIP3   OH249065   4.579   0.815  16.651  0.4463 -0.3964 -0.2611
 9217TIP3    H149066   4.568   0.821  16.746 -0.1056 -0.3798 -0.3236
 9217TIP3    H249067   4.650   0.752  16.639  0.2053 -0.7490  0.1555
 9218TIP3   OH249068   5.932   6.810  13.243 -0.0229 -0.0683 -0.0878
 9218TIP3    H149069   5.978   6.874  13.297  0.3372  0.7164 -1.2795
 9218TIP3    H249070   6.001   6.759  13.201 -0.2980 -0.6417  0.1415
 9219TIP3   OH249071   4.263   5.327  14.905  0.5685  0.1094 -0.3495
 9219TIP3    H149072   4.256   5.309  14.811  1.6317 -2.3911 -0.0151
 9219TIP3    H249073   4.332   5.393  14.912  0.8589 -0.0832 -1.2978
 9220TIP3   OH249074   6.716   5.657   3.922 -0.1483  0.2459  0.6664
 9220TIP3    H149075   6.673   5.741   3.933 -0.3585  0.2912 -0.3755
 9220TIP3    H249076   6.799   5.665   3.969  0.7879  1.7766 -1.1472
 9221TIP3   OH249077   1.617   5.937   5.934 -0.3499  0.0390  0.1730
 9221TIP3    H149078   1.702   5.923   5.975  0.0495 -2.6126 -1.3804
 9221TIP3    H249079   1.555   5.934   6.007  0.7750  1.3251  1.2347
 9222TIP3   OH249080   6.656   2.633  14.253 -0.1125  0.8859  0.0525
 9222TIP3    H149081   6.711   2.653  14.177 -0.9843 -0.3751 -0.9461
 9222TIP3    H249082   6.634   2.541  14.243 -1.2671  1.0131  1.1857
 9223TIP3   OH249083   2.035   2.803  13.453  0.5422 -0.2207  0.5735
 9223TIP3    H149084   2.038   2.863  13.527  1.2575  0.0590  0.3256
 9223TIP3    H249085   2.104   2.833  13.394 -0.1144 -0.3344 -0.2910
 9224TIP3   OH249086   0.161   5.275  15.408 -0.1095 -0.0797  0.0418
 9224TIP3    H149087   0.215   5.346  15.374  0.4722 -0.0691  0.9599
 9224TIP3    H249088   0.095   5.320  15.461 -0.4045 -0.1604 -0.2547
 9225TIP3   OH249089   2.224   4.677   5.458  0.0126 -0.1485  0.0297
 9225TIP3    H149090   2.171   4.634   5.390 -0.1767  0.3329 -0.1310
 9225TIP3    H249091   2.307   4.630   5.456 -0.9880 -2.1208  1.5300
 9226TIP3   OH249092   3.864   6.165   0.864 -0.5499 -0.2247 -0.4084
 9226TIP3    H149093   3.776   6.200   0.879  0.1232  1.0177  0.8214
 9226TIP3    H249094   3.862   6.133   0.774 -1.2059  3.0669 -1.6832
 9227TIP3   OH249095   3.469   6.715  15.273  0.0396 -0.5585  0.3555
 9227TIP3    H149096   3.383   6.734  15.238 -0.9528 -2.8244  1.3422
 9227TIP3    H249097   3.455   6.640  15.332  2.5439 -0.5090  1.1415
 9228TIP3   OH249098   1.247   2.598   1.733 -0.7551  0.0351 -0.1401
 9228TIP3    H149099   1.306   2.673   1.744 -0.1641 -0.2136 -1.3880
 9228TIP3    H249100   1.305   2.525   1.709 -1.2743 -0.9438  1.4751
 9229TIP3   OH249101   2.893   1.564  13.685 -0.3152  0.6375  0.4160
 9229TIP3    H149102   2.908   1.549  13.592  2.4578  0.9082  0.7139
 9229TIP3    H249103   2.908   1.658  13.696  1.5767  0.2745  1.3917
 9230TIP3   OH249104   6.753   4.329  14.165  0.4055 -0.0883 -0.1487
 9230TIP3    H149105   6.728   4.386  14.238 -1.2855  0.8144 -1.3409
 9230TIP3    H249106   6.814   4.266  14.203  0.6418  1.1766  1.7203
 9231TIP3   OH249107   4.882   5.427  11.032  0.0356  0.0394 -0.2142
 9231TIP3    H149108   4.925   5.502  10.991  0.6176  0.0070  0.3132
 9231TIP3    H249109   4.920   5.423  11.120 -0.7357 -0.2593  0.1145
 9232TIP3   OH249110   1.097   2.868  12.219 -0.2347  0.6697 -0.0157
 9232TIP3    H149111   1.131   2.842  12.305 -1.3985 -0.6007  0.0865
 9232TIP3    H249112   1.022   2.811  12.204  0.1319  0.6309 -2.0397
 9233TIP3   OH249113   0.086   1.723   5.310 -0.1289 -0.2678  0.3486
 9233TIP3    H149114   0.127   1.783   5.372  0.9780 -2.0244  1.3911
 9233TIP3    H249115   0.114   1.636   5.339 -0.4618 -1.2133 -1.9934
 9234TIP3   OH249116   5.282   3.338  13.150  0.5575  0.1335 -0.1185
 9234TIP3    H149117   5.219   3.410  13.150  0.7649  0.3524 -1.8055
 9234TIP3    H249118   5.292   3.314  13.057  1.9815 -0.7459  0.2250
 9235TIP3   OH249119   1.339   5.518  11.144  0.4338 -0.7856  0.2429
 9235TIP3    H149120   1.315   5.540  11.234  0.1072 -0.0375 -0.0159
 9235TIP3    H249121   1.258   5.527  11.095  1.1023  1.3666 -0.5768
 9236TIP3   OH249122   4.081   3.073  16.548  0.0994  0.4177  0.0069
 9236TIP3    H149123   4.043   3.139  16.606 -0.1816  0.2193  0.0497
 9236TIP3    H249124   4.159   3.042  16.594  1.7685  2.5907 -1.1447
 9237TIP3   OH249125   3.763   6.044  12.221 -0.4608  0.1935 -0.0184
 9237TIP3    H149126   3.739   5.952  12.215 -1.5186  0.5363 -2.2229
 9237TIP3    H249127   3.852   6.048  12.185  0.1168 -0.0989  1.3120
 9238TIP3   OH249128   3.901   3.598   2.226  0.3130 -0.4316 -0.0344
 9238TIP3    H149129   3.934   3.686   2.241 -0.2319 -0.4544  1.5596
 9238TIP3    H249130   3.819   3.610   2.179  1.0931 -0.2188 -1.4017
 9239TIP3   OH249131   1.904   0.743   5.479 -0.4409  0.3226  0.2430
 9239TIP3    H149132   1.978   0.804   5.485 -0.6976  0.4899  2.1883
 9239TIP3    H249133   1.834   0.785   5.529 -0.7744 -1.3521  1.2458
 9240TIP3   OH249134   5.693   2.298   4.714  0.3318 -0.0567 -0.5398
 9240TIP3    H149135   5.619   2.353   4.687 -0.9502 -1.1988  0.4615
 9240TIP3    H249136   5.722   2.337   4.797 -0.4574 -0.7467  0.0761
 9241TIP3   OH249137   5.186   5.425  12.089  0.2634  0.1723  0.1390
 9241TIP3    H149138   5.241   5.368  12.142 -0.9693  0.6328  1.9888
 9241TIP3    H249139   5.242   5.500  12.068  2.3748 -2.0995 -3.4817
 9242TIP3   OH249140   5.143   3.085  14.503 -0.5496 -0.1620 -0.6450
 9242TIP3    H149141   5.110   3.055  14.587  0.4959 -2.2696 -0.9161
 9242TIP3    H249142   5.131   3.010  14.445  0.5157  0.5880 -1.8864
 9243TIP3   OH249143   5.306   5.644  12.373  0.7139 -0.3224  0.1036
 9243TIP3    H149144   5.232   5.693  12.408  0.8609  1.2108 -1.5732
 9243TIP3    H249145   5.274   5.554  12.365 -1.1837  0.3986 -1.0986
 9244TIP3   OH249146   4.501   0.335   3.899 -0.2528  0.4281  0.2313
 9244TIP3    H149147   4.595   0.317   3.897 -0.3089  0.1528  0.0188
 9244TIP3    H249148   4.494   0.429   3.881 -0.0206  0.4460  0.2317
 9245TIP3   OH249149   0.580   6.195  10.802  0.4827 -0.1622 -0.5993
 9245TIP3    H149150   0.518   6.215  10.731 -0.8528  1.3594  0.9002
 9245TIP3    H249151   0.666   6.211  10.764 -0.1813  0.4838 -1.9189
 9246TIP3   OH249152   4.852   4.564   5.168  0.8974 -0.0362  0.0092
 9246TIP3    H149153   4.787   4.557   5.098  0.9514  2.7822 -0.4380
 9246TIP3    H249154   4.806   4.533   5.246 -0.9234  1.4617 -0.3760
 9247TIP3   OH249155   0.002   1.055   2.284  0.3198 -0.0948  1.0989
 9247TIP3    H149156  -0.055   0.982   2.304 -0.5395  0.1277 -0.3366
 9247TIP3    H249157   0.086   1.015   2.260 -0.6459 -0.8108 -1.4339
 9248TIP3   OH249158   4.747   0.265   2.231  0.7606 -0.1861  0.2711
 9248TIP3    H149159   4.834   0.280   2.195 -0.0870 -0.1582 -1.9465
 9248TIP3    H249160   4.748   0.309   2.316  2.4949  0.9309 -0.2771
 9249TIP3   OH249161   0.084   4.655  11.388 -0.7288 -0.5198 -0.2051
 9249TIP3    H149162   0.039   4.724  11.437  0.8864 -1.4539  2.8742
 9249TIP3    H249163   0.174   4.686  11.379 -0.4770 -1.3283 -0.6349
 9250TIP3   OH249164   1.325   2.327   2.459  0.3812 -0.0797 -0.6305
 9250TIP3    H149165   1.252   2.353   2.515 -1.2146 -2.2226 -1.5710
 9250TIP3    H249166   1.370   2.259   2.510 -0.6000 -1.4619 -1.5286
 9251TIP3   OH249167   0.085   1.594  14.348 -0.4065  0.6283 -0.0372
 9251TIP3    H149168   0.051   1.523  14.402  0.0700  0.7312  0.4084
 9251TIP3    H249169   0.094   1.556  14.260  0.4031 -0.0419  0.3216
 9252TIP3   OH249170   6.752   0.515   0.490  0.4887  0.4565 -0.6346
 9252TIP3    H149171   6.737   0.512   0.396  0.1879  1.1509 -0.6107
 9252TIP3    H249172   6.701   0.590   0.521 -0.8199 -0.7772  0.3421
 9253TIP3   OH249173   0.884   2.170   1.024 -0.2602  0.3795  0.0461
 9253TIP3    H149174   0.794   2.137   1.020 -0.3505  0.5117  0.8348
 9253TIP3    H249175   0.924   2.119   1.094  0.6003 -0.4297 -1.0092
 9254TIP3   OH249176   5.281   5.003   5.933 -0.4605 -0.4432 -1.2317
 9254TIP3    H149177   5.309   5.081   5.982 -0.4142  0.0302 -1.9984
 9254TIP3    H249178   5.212   5.034   5.875 -0.2108 -0.8994 -1.7867
 9255TIP3   OH249179   3.390   0.169   0.277 -0.2402 -0.3844  0.0269
 9255TIP3    H149180   3.416   0.109   0.207 -0.8814 -0.5474 -0.0828
 9255TIP3    H249181   3.347   0.242   0.232 -2.2424 -1.3115  0.3141
 9256TIP3   OH249182   3.888   4.369  12.547 -0.3229 -0.1990 -0.1407
 9256TIP3    H149183   3.972   4.408  12.522  0.2276 -0.3957  1.2977
 9256TIP3    H249184   3.855   4.427  12.616 -1.2015 -0.3292 -0.4440
 9257TIP3   OH249185   0.778   4.221  15.652 -0.6136  0.5997  0.8582
 9257TIP3    H149186   0.842   4.292  15.654  1.0469 -0.8003  0.3097
 9257TIP3    H249187   0.708   4.249  15.711  0.4928  2.2128  1.4585
 9258TIP3   OH249188   5.808   4.146   4.744  0.0566 -0.8756  0.7034
 9258TIP3    H149189   5.848   4.232   4.732  0.3672 -0.9701  1.0542
 9258TIP3    H249190   5.746   4.159   4.816 -1.1877 -0.5159 -0.3913
 9259TIP3   OH249191   0.354   3.844   0.194 -0.2344  0.4351 -0.0673
 9259TIP3    H149192   0.320   3.859   0.106  0.4084  0.6589 -0.2814
 9259TIP3    H249193   0.287   3.881   0.252 -0.4261  0.7286 -0.4723
 9260TIP3   OH249194   2.359   6.799   0.330 -0.0616  0.2892  0.0882
 9260TIP3    H149195   2.276   6.820   0.286 -0.1137  1.4040  0.6939
 9260TIP3    H249196   2.367   6.704   0.320 -1.5949  0.1038  0.3330
 9261TIP3   OH249197   2.457   2.727  12.450 -0.1720  0.4153  0.3647
 9261TIP3    H149198   2.541   2.758  12.417 -0.6660  1.5213  0.1031
 9261TIP3    H249199   2.400   2.725  12.373  0.0424 -2.0244  0.1738
 9262TIP3   OH249200   4.297   3.317  13.197 -0.0588  0.8126  0.0450
 9262TIP3    H149201   4.378   3.303  13.247  1.3369 -1.0970 -2.4674
 9262TIP3    H249202   4.235   3.254  13.233  1.4367 -1.6988 -1.4274
 9263TIP3   OH249203   1.640   4.993  13.321 -0.2746  0.0303  0.6121
 9263TIP3    H149204   1.566   4.948  13.280 -2.0968  0.8647  2.8351
 9263TIP3    H249205   1.713   4.978  13.260 -2.2869 -0.5724 -1.8168
 9264TIP3   OH249206   1.243   0.336  12.605 -0.4459  0.1314  0.2517
 9264TIP3    H149207   1.240   0.327  12.701 -0.3329 -0.3829  0.2065
 9264TIP3    H249208   1.326   0.381  12.588 -0.5010  0.2927  0.3976
 9265TIP3   OH249209   3.725   4.339  14.342  0.3219  0.8624 -0.1837
 9265TIP3    H149210   3.708   4.307  14.431  0.2623  2.6668  0.5072
 9265TIP3    H249211   3.762   4.264  14.296  1.4388  0.1757  1.6944
 9266TIP3   OH249212   2.784   0.594  16.557 -0.7393 -0.2059 -0.2776
 9266TIP3    H149213   2.728   0.667  16.584  1.1548  0.6991  1.4869
 9266TIP3    H249214   2.860   0.636  16.518 -0.7437 -1.3755 -1.6265
 9267TIP3   OH249215   1.088   5.739   2.693 -0.3216 -0.1972  0.0322
 9267TIP3    H149216   1.015   5.799   2.713 -1.6624 -0.8004 -2.5738
 9267TIP3    H249217   1.056   5.653   2.721  0.0260 -0.2602  0.2403
 9268TIP3   OH249218   2.116   3.356  16.873 -0.1344  0.4545 -0.1348
 9268TIP3    H149219   2.156   3.386  16.792  0.0944 -1.4578 -0.7823
 9268TIP3    H249220   2.028   3.330  16.849 -0.3817  0.7235  0.4390
 9269TIP3   OH249221   2.390   3.793  11.504 -0.3522  0.3174 -0.4238
 9269TIP3    H149222   2.471   3.779  11.553 -0.6512 -0.4248 -0.1244
 9269TIP3    H249223   2.322   3.799  11.571 -0.8840 -1.5333 -0.7541
 9270TIP3   OH249224   5.043   4.155   0.954  0.2837 -0.6622 -0.4286
 9270TIP3    H149225   5.092   4.202   1.022 -2.2671  2.0836 -0.2635
 9270TIP3    H249226   5.012   4.224   0.896 -2.3065 -2.3371 -1.1823
 9271TIP3   OH249227   3.705   0.230   2.890  0.2365 -0.4246 -0.1317
 9271TIP3    H149228   3.630   0.231   2.831  0.1854  1.1644 -0.0893
 9271TIP3    H249229   3.673   0.183   2.967 -0.3820 -0.6594 -0.5202
 9272TIP3   OH249230   0.179   6.449   1.203 -0.1795 -0.4631  0.2867
 9272TIP3    H149231   0.092   6.432   1.166 -0.8502  0.0228  1.5547
 9272TIP3    H249232   0.163   6.515   1.271  1.3792  0.6002 -0.3131
 9273TIP3   OH249233   5.366   4.386   0.336 -0.1465 -0.0523  0.0045
 9273TIP3    H149234   5.288   4.423   0.294  0.1814  2.0468  1.0892
 9273TIP3    H249235   5.356   4.292   0.326 -1.6366  0.2400 -1.9495
 9274TIP3   OH249236   0.765   2.092   3.591 -0.3114 -0.3081 -0.3200
 9274TIP3    H149237   0.775   2.059   3.501  0.3656 -0.2325 -0.2707
 9274TIP3    H249238   0.781   2.016   3.646  1.7697  0.1891 -0.1876
 9275TIP3   OH249239   1.863   4.244  14.894 -0.5995  0.2945 -0.3058
 9275TIP3    H149240   1.899   4.330  14.870  2.6328 -0.5859  0.9501
 9275TIP3    H249241   1.819   4.259  14.977 -1.3205  0.9648 -0.7849
 9276TIP3   OH249242   5.503   2.423   2.944  0.0300  0.2113  0.5320
 9276TIP3    H149243   5.527   2.399   2.855 -1.0428  2.9374 -0.6070
 9276TIP3    H249244   5.417   2.385   2.958 -0.2276  0.6034  0.0149
 9277TIP3   OH249245   2.866   3.806  12.665  0.2596 -0.1138  0.2330
 9277TIP3    H149246   2.912   3.889  12.677  1.7340 -1.0475  1.3576
 9277TIP3    H249247   2.884   3.757  12.744 -0.9760 -1.3492 -0.2181
 9278TIP3   OH249248   4.635   6.367  13.072 -0.4378  0.0465 -0.0347
 9278TIP3    H149249   4.620   6.295  13.133 -0.7534 -0.4271 -0.6544
 9278TIP3    H249250   4.550   6.382  13.031  0.2745 -1.5319 -2.3623
 9279TIP3   OH249251   6.680   2.638  11.013  0.6020 -0.2549 -0.2868
 9279TIP3    H149252   6.662   2.732  11.005  0.1992 -0.1458  1.4220
 9279TIP3    H249253   6.773   2.633  11.035  0.5718 -0.2275 -0.1487
 9280TIP3   OH249254   6.527   5.443  15.590 -0.1526  0.0042  0.2234
 9280TIP3    H149255   6.556   5.529  15.620  0.3048 -0.0008 -0.2022
 9280TIP3    H249256   6.577   5.381  15.643 -0.8808 -0.0017  0.9112
 9281TIP3   OH249257   2.899   4.070  14.282 -0.1700 -0.2353  0.1058
 9281TIP3    H149258   2.975   4.015  14.265 -0.4729 -1.0131  1.1335
 9281TIP3    H249259   2.920   4.154  14.242  1.5254 -0.2262  0.9235
 9282TIP3   OH249260   5.871   6.208  15.339  0.2244  0.2744  0.0169
 9282TIP3    H149261   5.920   6.147  15.283 -0.6874  2.1143 -3.0072
 9282TIP3    H249262   5.780   6.195  15.314 -0.2737  0.8636  1.4514
 9283TIP3   OH249263   4.406   1.053  14.523  0.1861 -0.2282 -0.7185
 9283TIP3    H149264   4.357   1.031  14.444 -1.5441  0.0600  0.2341
 9283TIP3    H249265   4.339   1.072  14.588  1.5830  0.1464  0.6567
 9284TIP3   OH249266   0.402   4.945  11.638 -0.3089  0.0085 -0.2855
 9284TIP3    H149267   0.414   4.899  11.720 -0.4445  0.5694  0.0562
 9284TIP3    H249268   0.364   4.880  11.579  0.8519 -0.7253 -0.2602
 9285TIP3   OH249269   0.959   6.437   4.259 -0.1966  0.6273 -0.1088
 9285TIP3    H149270   1.004   6.355   4.279  0.2702  0.6528 -1.0015
 9285TIP3    H249271   1.022   6.505   4.282 -0.3208  0.7160 -0.0268
 9286TIP3   OH249272   4.306   1.064  12.736 -0.3130 -0.8684 -0.7694
 9286TIP3    H149273   4.267   1.151  12.742 -0.1675 -0.8610  0.5423
 9286TIP3    H249274   4.269   1.026  12.657 -1.9715 -0.3736 -0.2713
 9287TIP3   OH249275   3.627   2.019  16.842 -0.6660 -0.0392  0.1258
 9287TIP3    H149276   3.636   2.114  16.852 -0.5511 -0.0353 -0.0216
 9287TIP3    H249277   3.629   1.986  16.932 -0.8699  0.1130  0.1877
 9288TIP3   OH249278   3.820   0.701   1.301  0.1802  0.1423 -0.8061
 9288TIP3    H149279   3.777   0.781   1.333  1.3076  0.9765 -1.2989
 9288TIP3    H249280   3.767   0.673   1.227  0.3237  1.0157 -1.2504
 9289TIP3   OH249281   4.266   0.329   4.042  0.0319  0.4943  0.0854
 9289TIP3    H149282   4.342   0.368   3.999 -0.4245  1.9596  0.5380
 9289TIP3    H249283   4.303   0.271   4.109  0.7358  0.4278 -0.3450
 9290TIP3   OH249284   6.639   4.698   6.521  0.1859  0.6653  0.0166
 9290TIP3    H149285   6.597   4.718   6.605  0.3272  0.0431  0.2409
 9290TIP3    H249286   6.604   4.612   6.497  0.4418  0.6681 -0.3745
 9291TIP3   OH249287   3.510   2.124   4.789  0.1367  0.0200  0.3252
 9291TIP3    H149288   3.581   2.184   4.767 -1.0271  1.1077 -0.5843
 9291TIP3    H249289   3.489   2.081   4.706 -1.7882  1.4144  0.0305
 9292TIP3   OH249290   3.663   5.641   3.578  0.2746  0.5371  0.2594
 9292TIP3    H149291   3.607   5.565   3.565  0.7306 -0.1630  2.0766
 9292TIP3    H249292   3.727   5.637   3.507  0.8931 -1.3757  0.8794
 9293TIP3   OH249293   5.474   5.943  14.080 -0.0011  0.0567 -0.0460
 9293TIP3    H149294   5.448   5.858  14.044  0.8593 -0.6951  1.0419
 9293TIP3    H249295   5.441   5.942  14.170 -0.0100  0.9030 -0.0293
 9294TIP3   OH249296   0.212   2.868   5.315  0.6815 -0.2421  0.2320
 9294TIP3    H149297   0.121   2.871   5.345  0.5503 -0.5803 -0.1300
 9294TIP3    H249298   0.208   2.893   5.223  0.6578 -2.5235 -0.4264
 9295TIP3   OH249299   5.487   3.700  13.447 -0.0791  0.0624  0.1891
 9295TIP3    H149300   5.541   3.775  13.420 -0.8257  0.9269  1.0035
 9295TIP3    H249301   5.490   3.640  13.373  1.2068  0.5157 -0.1604
 9296TIP3   OH249302   2.227   5.141  16.348  0.5334  0.3574  0.0705
 9296TIP3    H149303   2.316   5.172  16.333  0.7448 -0.1420  0.2406
 9296TIP3    H249304   2.228   5.111  16.439  0.4549 -0.5017 -0.2050
 9297TIP3   OH249305   0.374   6.805  12.201  0.2591 -0.1695 -0.2078
 9297TIP3    H149306   0.398   6.722  12.159 -0.7331 -1.1045  0.9844
 9297TIP3    H249307   0.352   6.863  12.128  0.6849 -1.0493 -1.0566
 9298TIP3   OH249308   3.482   1.663   3.873 -0.3058 -0.1887 -0.7343
 9298TIP3    H149309   3.550   1.716   3.912 -1.2074  0.8781 -0.5679
 9298TIP3    H249310   3.526   1.581   3.849  1.0409  0.5064 -0.7373
 9299TIP3   OH249311   3.391   1.026  15.923 -0.0813  0.4153  0.4530
 9299TIP3    H149312   3.483   1.039  15.898  0.5214 -0.7543  1.8845
 9299TIP3    H249313   3.348   0.999  15.843  1.5961 -2.4542  0.3989
 9300TIP3   OH249314   2.052   2.016  14.390 -0.3271 -0.2579  0.6014
 9300TIP3    H149315   2.068   1.938  14.338 -2.3150 -0.8740  0.8231
 9300TIP3    H249316   2.018   2.080  14.328  1.8686  0.7022  0.3034
 9301TIP3   OH249317   4.457   6.779   2.144  0.4548 -0.6604  0.1618
 9301TIP3    H149318   4.379   6.766   2.091 -0.3259  1.7655  0.5811
 9301TIP3    H249319   4.426   6.781   2.234  1.0137  0.1303  0.3476
 9302TIP3   OH249320   6.003   0.792  14.727  0.1632 -0.0191  0.3247
 9302TIP3    H149321   5.974   0.846  14.653  0.9905  0.5113  0.3688
 9302TIP3    H249322   5.927   0.790  14.786 -0.0265  0.7416  0.1180
 9303TIP3   OH249323   3.756   4.159   4.601  0.1277 -0.0472 -0.2763
 9303TIP3    H149324   3.772   4.149   4.507  1.7899 -1.5590  0.1167
 9303TIP3    H249325   3.664   4.186   4.606 -1.0667 -3.1221 -2.2623
 9304TIP3   OH249326   4.033   1.204  15.790  0.0609 -0.4060  0.4730
 9304TIP3    H149327   3.950   1.252  15.793 -0.1122 -0.7261  1.0844
 9304TIP3    H249328   4.041   1.166  15.878  1.6582  0.9653  0.9675
 9305TIP3   OH249329   1.212   2.688  12.556  0.0846  0.0036  0.2674
 9305TIP3    H149330   1.244   2.623  12.618  1.3889  0.3644  0.0027
 9305TIP3    H249331   1.177   2.636  12.484 -1.9435 -0.4218  1.5054
 9306TIP3   OH249332   5.119   0.127  13.086  1.0263  0.6149  0.3322
 9306TIP3    H149333   5.095   0.087  13.169  2.4283  2.4173  1.6899
 9306TIP3    H249334   5.036   0.157  13.049  0.5710  1.7703  2.1817
 9307TIP3   OH249335   0.408   3.728  10.746  0.1906  0.2933 -0.1299
 9307TIP3    H149336   0.326   3.769  10.775  0.0064 -0.1106 -0.0708
 9307TIP3    H249337   0.447   3.792  10.686 -1.0022 -0.1964 -1.4964
 9308TIP3   OH249338   0.477   0.597   5.704 -0.5112 -0.0934  0.5583
 9308TIP3    H149339   0.543   0.656   5.668 -0.3849 -1.4933 -1.6594
 9308TIP3    H249340   0.412   0.655   5.743  1.2168  1.3650  1.4354
 9309TIP3   OH249341   4.588   6.631  10.608  0.9955 -0.6690  0.3906
 9309TIP3    H149342   4.647   6.661  10.538  2.5694  0.8419  2.2675
 9309TIP3    H249343   4.564   6.542  10.582  3.3092 -0.9823 -0.9549
 9310TIP3   OH249344   5.403   2.682  16.116 -0.5736 -0.2110  0.2635
 9310TIP3    H149345   5.411   2.599  16.070  0.0395 -0.8555  1.4805
 9310TIP3    H249346   5.348   2.661  16.192 -0.2424  0.4381  0.6905
 9311TIP3   OH249347   0.942   5.965   2.793 -0.1064 -0.0553 -0.3403
 9311TIP3    H149348   0.859   5.998   2.760 -0.8560 -1.7812 -0.2865
 9311TIP3    H249349   0.962   6.022   2.868 -0.7850  0.9159 -0.8804
 9312TIP3   OH249350   1.892   5.847   5.789 -0.1823 -0.2196 -0.1007
 9312TIP3    H149351   1.967   5.904   5.803 -0.9055  0.8250 -0.3522
 9312TIP3    H249352   1.845   5.847   5.872  0.1856 -1.0217  0.1144
 9313TIP3   OH249353   6.420   4.757  15.235  0.7750 -0.0323  0.0022
 9313TIP3    H149354   6.397   4.850  15.230  0.1427 -0.1951 -0.2503
 9313TIP3    H249355   6.514   4.755  15.216  0.8883  0.5949  0.4619
 9314TIP3   OH249356   4.992   0.667   1.844 -0.2643  0.6897 -0.1058
 9314TIP3    H149357   4.963   0.647   1.755 -0.7082 -1.4630  0.4725
 9314TIP3    H249358   4.911   0.670   1.895  0.1952 -1.5332  0.8265
 9315TIP3   OH249359   4.845   3.337   1.867 -0.4764 -0.4907  0.3414
 9315TIP3    H149360   4.815   3.383   1.945 -0.3291 -0.7914  0.5765
 9315TIP3    H249361   4.909   3.274   1.899 -0.1578 -0.3766 -0.0648
 9316TIP3   OH249362   1.156   5.609   2.180 -0.2685  0.2446 -0.5025
 9316TIP3    H149363   1.091   5.644   2.241  0.0904 -0.6664  0.4517
 9316TIP3    H249364   1.123   5.521   2.159 -0.1744  0.3988 -1.2979
 9317TIP3   OH249365   3.691   5.090   2.806  0.1147 -0.3692 -0.7906
 9317TIP3    H149366   3.720   5.181   2.800 -0.8476 -0.0715 -1.1050
 9317TIP3    H249367   3.660   5.069   2.718  0.0371 -0.9067 -0.6395
 9318TIP3   OH249368   4.048   1.245  10.454  0.5186  0.2317 -0.2448
 9318TIP3    H149369   4.037   1.340  10.460 -0.0902  0.1331  0.3501
 9318TIP3    H249370   3.959   1.211  10.445  0.4018 -0.4682  2.6025
 9319TIP3   OH249371   2.396   3.402   2.658 -0.1442  0.0489  0.1348
 9319TIP3    H149372   2.383   3.496   2.672 -0.2478  0.1415 -0.5831
 9319TIP3    H249373   2.417   3.393   2.565 -0.1909 -0.6471  0.1834
 9320TIP3   OH249374   2.451   0.462  13.964 -0.0703 -0.2806 -0.3283
 9320TIP3    H149375   2.537   0.505  13.961 -1.3776  2.5910  0.1756
 9320TIP3    H249376   2.422   0.460  13.873 -0.5052  1.1801 -0.2599
 9321TIP3   OH249377   0.171   2.513   1.446 -0.0923  0.4123 -0.7262
 9321TIP3    H149378   0.155   2.522   1.540 -2.3289  0.9369 -1.1012
 9321TIP3    H249379   0.267   2.512   1.438  0.1512  0.0814  1.5583
 9322TIP3   OH249380   1.081   5.282  14.651  0.3077  0.0663 -0.0962
 9322TIP3    H149381   1.145   5.227  14.606 -0.8449 -0.8140 -0.7190
 9322TIP3    H249382   1.075   5.361  14.597  2.3098  1.0858  1.0508
 9323TIP3   OH249383   2.932   2.835   2.849  0.0588  0.3488 -0.1605
 9323TIP3    H149384   2.944   2.911   2.792  0.0916 -0.3179 -1.0562
 9323TIP3    H249385   2.932   2.760   2.790 -2.2241 -0.2081  0.4531
 9324TIP3   OH249386   3.551   0.964   3.262  0.4396  0.1194  0.2139
 9324TIP3    H149387   3.580   0.893   3.204 -2.9825  0.9469 -2.9144
 9324TIP3    H249388   3.612   1.036   3.245  0.3888 -0.1594 -1.2463
 9325TIP3   OH249389   3.801   4.529   3.704  0.1026 -0.3069  0.1365
 9325TIP3    H149390   3.868   4.541   3.772  2.2389 -1.2784 -1.6741
 9325TIP3    H249391   3.785   4.435   3.703  0.1725 -0.3191 -0.7302
 9326TIP3   OH249392   0.590   4.429   3.177 -0.3442  0.0718  0.2121
 9326TIP3    H149393   0.540   4.488   3.120  2.0075  2.2912  0.2343
 9326TIP3    H249394   0.638   4.373   3.117 -1.3030 -0.7187  0.1575
 9327TIP3   OH249395   1.409   4.271   3.491  0.7982 -0.0709  0.1009
 9327TIP3    H149396   1.356   4.263   3.570 -0.0903  0.8745 -0.3811
 9327TIP3    H249397   1.346   4.269   3.419  0.9538  4.3253 -0.3925
 9328TIP3   OH249398   5.538   1.096   4.238  0.0720 -1.0842  0.0181
 9328TIP3    H149399   5.579   1.076   4.154 -1.4043 -1.9821 -0.5255
 9328TIP3    H249400   5.445   1.080   4.224 -0.5589  1.2053  1.0984
 9329TIP3   OH249401   1.047   3.800  12.972 -0.2537  0.0505 -0.3887
 9329TIP3    H149402   0.995   3.723  12.994 -2.1262  1.3305 -0.1484
 9329TIP3    H249403   1.029   3.817  12.880 -1.0576  1.0528 -0.0678
 9330TIP3   OH249404   0.068   6.165   1.772 -0.1183  0.3402 -0.2118
 9330TIP3    H149405   0.073   6.186   1.679  1.5454  1.7481  0.1432
 9330TIP3    H249406   0.015   6.235   1.810 -1.6330 -0.7636 -0.2003
 9331TIP3   OH249407   5.861   1.809   5.643 -0.0122  0.2699  0.4248
 9331TIP3    H149408   5.877   1.881   5.583  1.6212 -1.1275 -0.9403
 9331TIP3    H249409   5.907   1.833   5.724 -0.4539  1.2407  0.3908
 9332TIP3   OH249410   1.969   5.643  11.364 -0.0681 -0.3399  0.0153
 9332TIP3    H149411   1.955   5.727  11.407 -0.0173 -0.9984  1.3878
 9332TIP3    H249412   2.064   5.631  11.366  0.0243  0.1009 -1.2563
 9333TIP3   OH249413   1.131   5.829  13.443 -0.1749 -0.1982  0.1356
 9333TIP3    H149414   1.121   5.753  13.386 -0.3736 -0.6339  0.7427
 9333TIP3    H249415   1.102   5.903  13.390 -1.1567 -0.7009 -0.0508
 9334TIP3   OH249416   5.212   5.487  14.265 -0.1250 -0.2301 -0.6203
 9334TIP3    H149417   5.160   5.415  14.301  0.6205 -0.8152 -0.6736
 9334TIP3    H249418   5.148   5.548  14.230 -0.7589 -1.3713 -1.5167
 9335TIP3   OH249419   2.430   2.964   1.652  0.1962  0.8504 -0.0168
 9335TIP3    H149420   2.456   2.972   1.744  1.1029  2.2445 -0.3497
 9335TIP3    H249421   2.512   2.975   1.604 -0.3434  0.6031 -1.0039
 9336TIP3   OH249422   4.529   1.837  14.375  0.3432 -0.6175  0.4046
 9336TIP3    H149423   4.540   1.763  14.435 -0.0294 -0.9444  0.0671
 9336TIP3    H249424   4.609   1.836  14.322  0.3545 -0.7465  0.4250
 9337TIP3   OH249425   2.659   3.428   3.095 -0.1114  0.2416  0.5841
 9337TIP3    H149426   2.713   3.495   3.137 -0.8943  1.4382 -0.2611
 9337TIP3    H249427   2.620   3.472   3.020 -0.4796 -1.2381 -0.1304
 9338TIP3   OH249428   0.005   1.164   3.912  0.0920  0.3479  0.0838
 9338TIP3    H149429  -0.032   1.082   3.878 -0.9022  1.0347 -0.5258
 9338TIP3    H249430   0.095   1.165   3.879 -0.2240  0.0140 -0.8023
 9339TIP3   OH249431   3.921   0.750  13.175  0.8083  0.2407  0.6566
 9339TIP3    H149432   3.838   0.705  13.162  0.8414  0.7012 -1.6151
 9339TIP3    H249433   3.923   0.772  13.268  0.2844 -3.3333  1.6616
 9340TIP3   OH249434   5.830   0.353  11.326  0.4711  0.2949  0.2560
 9340TIP3    H149435   5.910   0.349  11.378  2.0283  0.7195 -1.9923
 9340TIP3    H249436   5.837   0.434  11.276 -0.1107 -0.8965 -1.8777
 9341TIP3   OH249437   0.614   3.308  15.249  0.0707  0.1117 -0.4532
 9341TIP3    H149438   0.668   3.298  15.327  0.3658  0.3328 -0.6272
 9341TIP3    H249439   0.541   3.364  15.278 -0.0283 -0.1298 -0.2375
 9342TIP3   OH249440   4.817   3.135  14.701 -0.1419  0.4348  0.0711
 9342TIP3    H149441   4.800   3.220  14.741 -1.2357 -0.3747  1.3751
 9342TIP3    H249442   4.883   3.094  14.757 -1.6537 -0.6911  1.0989
 9343TIP3   OH249443   6.509   0.668   0.951  0.3413  0.0170 -0.1201
 9343TIP3    H149444   6.486   0.663   1.043  2.4311 -0.1198  0.4456
 9343TIP3    H249445   6.556   0.751   0.942 -3.2151  2.0854 -1.9641
 9344TIP3   OH249446   6.001   5.621   5.904  0.5049 -0.2848 -0.1655
 9344TIP3    H149447   6.070   5.588   5.962  0.6835 -1.0519 -0.7874
 9344TIP3    H249448   5.934   5.553   5.907 -0.3104  0.5308  0.5597
 9345TIP3   OH249449   2.857   1.593  15.077  0.1909 -0.6123 -0.5130
 9345TIP3    H149450   2.827   1.517  15.127 -0.8777  1.0997  1.6255
 9345TIP3    H249451   2.794   1.602  15.005 -1.3256 -0.2313  0.8006
 9346TIP3   OH249452   1.649   4.109  16.627 -0.2930  0.3116  0.4880
 9346TIP3    H149453   1.620   4.077  16.541  0.1132 -0.1711  0.5287
 9346TIP3    H249454   1.725   4.055  16.649  0.6733  1.5634  0.3635
 9347TIP3   OH249455   2.692   2.353  13.819  0.1548 -0.7931  0.1654
 9347TIP3    H149456   2.727   2.269  13.789  0.2870 -0.4470 -0.6860
 9347TIP3    H249457   2.744   2.418  13.773 -2.2553 -0.2440 -2.0191
 9348TIP3   OH249458   5.709   3.094   4.341  0.4507 -0.4646 -0.2406
 9348TIP3    H149459   5.796   3.118   4.309 -0.3134  0.3568 -1.8984
 9348TIP3    H249460   5.670   3.046   4.268 -1.1452  0.8621 -0.3154
 9349TIP3   OH249461   4.971   5.367  16.944 -0.2152  0.7103 -0.2144
 9349TIP3    H149462   5.023   5.311  17.002 -0.7381 -0.1610 -0.5810
 9349TIP3    H249463   5.034   5.398  16.879  0.3715  1.6613  0.7635
 9350TIP3   OH249464   4.578   4.627  14.294 -0.5463 -0.3156 -0.0140
 9350TIP3    H149465   4.497   4.653  14.250 -0.3808  0.8571  0.3144
 9350TIP3    H249466   4.646   4.639  14.228 -0.5382 -0.4837 -0.0364
 9351TIP3   OH249467   4.511   5.452   2.798 -0.1980 -0.1252 -0.5590
 9351TIP3    H149468   4.541   5.496   2.719  2.2879 -1.4508 -0.4636
 9351TIP3    H249469   4.423   5.420   2.776 -0.2434  0.9855 -2.1551
 9352TIP3   OH249470   1.537   2.193   0.712  0.1862  0.5417  0.0152
 9352TIP3    H149471   1.458   2.166   0.666  0.8979 -1.6463 -0.0421
 9352TIP3    H249472   1.507   2.214   0.801 -0.4209 -0.7856  0.1523
 9353TIP3   OH249473   1.407   1.958  14.876  0.1429 -0.6194 -0.8424
 9353TIP3    H149474   1.486   2.008  14.854  0.2988 -1.8029 -3.3672
 9353TIP3    H249475   1.371   1.932  14.791 -4.4127  1.8715  0.0033
 9354TIP3   OH249476   3.664   1.577  10.891 -0.1297 -0.1020  0.6893
 9354TIP3    H149477   3.570   1.562  10.882 -0.1348  0.0032  0.5570
 9354TIP3    H249478   3.692   1.518  10.960 -0.5691  0.9671  1.8137
 9355TIP3   OH249479   5.598   0.054  10.455  0.4717  0.1591  0.1746
 9355TIP3    H149480   5.538   0.129  10.459  0.0693 -0.0780 -1.1233
 9355TIP3    H249481   5.541  -0.021  10.435  1.0921 -0.2170 -0.1866
 9356TIP3   OH249482   5.160   1.692  15.844 -0.3827 -0.4257 -0.6523
 9356TIP3    H149483   5.115   1.614  15.810  0.7340 -0.6284 -1.7681
 9356TIP3    H249484   5.244   1.659  15.875 -0.3335  0.1768 -0.1372
 9357TIP3   OH249485   3.838   6.416  12.967  0.1743  0.1712 -0.2509
 9357TIP3    H149486   3.922   6.372  12.981  0.6782  1.2374  0.1969
 9357TIP3    H249487   3.843   6.450  12.878  0.5031  0.8023 -0.0001
 9358TIP3   OH249488   6.134   6.525   3.257 -0.3927  0.3154  0.0237
 9358TIP3    H149489   6.189   6.457   3.296 -0.0452  0.2175 -0.6191
 9358TIP3    H249490   6.065   6.539   3.321  0.5792  0.7077  1.0222
 9359TIP3   OH249491   6.241   4.469   5.900  0.2316 -0.3652  0.4466
 9359TIP3    H149492   6.234   4.445   5.993  0.2338 -0.8396  0.3239
 9359TIP3    H249493   6.267   4.561   5.902  0.7139 -0.5036  0.9197
 9360TIP3   OH249494   0.411   0.464   2.767 -0.1936  0.3515 -0.1563
 9360TIP3    H149495   0.431   0.536   2.706 -0.1876 -1.0385 -1.8964
 9360TIP3    H249496   0.470   0.393   2.741 -1.2286 -0.7966  0.4952
 9361TIP3   OH249497   5.584   0.656   4.652 -0.1107  0.4961 -0.3155
 9361TIP3    H149498   5.635   0.700   4.720  0.5233  0.3848 -0.7172
 9361TIP3    H249499   5.506   0.624   4.698  0.1517  0.7112  0.2882
 9362TIP3   OH249500   5.732   1.414   4.632  0.0631  0.1667 -0.2134
 9362TIP3    H149501   5.758   1.394   4.542  0.2216  1.6204 -0.5125
 9362TIP3    H249502   5.640   1.386   4.637 -0.0155  0.2782 -0.8999
 9363TIP3   OH249503   0.752   0.548  11.302 -0.1460 -0.2834  0.2034
 9363TIP3    H149504   0.826   0.490  11.282  0.3333  0.4245 -0.1029
 9363TIP3    H249505   0.725   0.522  11.390  2.3271  1.3615  1.5561
 9364TIP3   OH249506   6.348   6.598   2.638  0.0423 -0.1039 -0.1532
 9364TIP3    H149507   6.422   6.649   2.673 -1.7146  2.9556 -0.5393
 9364TIP3    H249508   6.349   6.517   2.689  0.9357  1.7568  3.1256
 9365TIP3   OH249509   1.563   2.310  16.568 -0.1389 -0.0166 -0.0096
 9365TIP3    H149510   1.568   2.281  16.477  0.4284  0.5152 -0.1547
 9365TIP3    H249511   1.532   2.233  16.616 -0.0581 -0.4192 -0.5926
 9366TIP3   OH249512   3.920   5.265  11.611 -0.1045 -0.3222 -0.7047
 9366TIP3    H149513   3.917   5.236  11.520 -2.0054 -0.7745 -0.5349
 9366TIP3    H249514   3.910   5.360  11.607  1.3362 -0.1482 -1.0024
 9367TIP3   OH249515   1.118   4.640   1.857 -0.4589  0.1981 -0.1477
 9367TIP3    H149516   1.047   4.703   1.841 -2.1496 -2.1970 -3.0587
 9367TIP3    H249517   1.090   4.593   1.935  0.5582  2.5136  1.7390
 9368TIP3   OH249518   6.194   0.518  11.551 -0.6517 -0.6849 -0.1924
 9368TIP3    H149519   6.149   0.560  11.478 -0.1233 -0.3706 -0.3411
 9368TIP3    H249520   6.160   0.429  11.552 -0.2908 -0.8411 -1.1400
 9369TIP3   OH249521   5.280   1.934  14.918 -0.1387 -1.2296 -0.1700
 9369TIP3    H149522   5.332   2.013  14.904 -2.1664  0.3542  0.7828
 9369TIP3    H249523   5.269   1.928  15.013 -0.8343 -2.0795 -0.2870
 9370TIP3   OH249524   6.358   5.012  16.616 -0.6956  0.3002  0.5458
 9370TIP3    H149525   6.287   4.948  16.619 -0.8629  0.4868  0.5738
 9370TIP3    H249526   6.323   5.084  16.564  0.4933 -0.8420 -1.9941
 9371TIP3   OH249527   4.447   1.500   2.142 -0.3233 -0.1737  0.1160
 9371TIP3    H149528   4.519   1.562   2.127  0.1735 -0.6072  0.6349
 9371TIP3    H249529   4.395   1.541   2.211 -1.6260  0.9951 -1.4639
 9372TIP3   OH249530   1.494   0.550  11.143  0.2268  0.5823  0.3639
 9372TIP3    H149531   1.473   0.568  11.234  0.2893 -0.0764  0.5125
 9372TIP3    H249532   1.565   0.611  11.122  0.6867  0.2579  0.9583
 9373TIP3   OH249533   3.602   4.290   1.533  0.1850 -0.2213 -0.0952
 9373TIP3    H149534   3.618   4.209   1.583 -0.9527 -0.2300  0.2829
 9373TIP3    H249535   3.578   4.259   1.446  2.0898 -0.2091 -0.6721
 9374TIP3   OH249536   4.236   5.635  16.718  0.4436  0.2763  0.2974
 9374TIP3    H149537   4.282   5.627  16.635 -0.7047 -0.1023 -0.3195
 9374TIP3    H249538   4.295   5.687  16.773  1.9711 -0.8564 -0.1848
 9375TIP3   OH249539   2.500   4.532   5.443  0.2389  0.9081  0.2521
 9375TIP3    H149540   2.503   4.444   5.405  1.8541  1.2564 -0.4886
 9375TIP3    H249541   2.556   4.585   5.387 -0.2806  2.3121  0.9961
 9376TIP3   OH249542   6.114   4.344  13.854 -0.7314  0.2642 -0.1222
 9376TIP3    H149543   6.118   4.349  13.950  0.9850  1.2467 -0.2204
 9376TIP3    H249544   6.161   4.263  13.833  1.3817  1.4565 -0.2324
 9377TIP3   OH249545   1.608   4.118  15.360 -0.4363  0.2108  0.3349
 9377TIP3    H149546   1.588   4.105  15.267 -2.4510  0.8676  0.6230
 9377TIP3    H249547   1.691   4.072  15.374 -0.3410 -0.3069 -1.6740
 9378TIP3   OH249548   6.059   0.474  14.067  0.2324 -0.0289  0.3166
 9378TIP3    H149549   6.042   0.475  14.162 -2.1900  0.9826 -0.0626
 9378TIP3    H249550   5.990   0.420  14.030 -1.5682  3.0730 -1.2202
 9379TIP3   OH249551   5.570   3.047  12.339  0.1739 -0.5249 -0.0727
 9379TIP3    H149552   5.573   3.011  12.428  0.9272  0.0972  0.1589
 9379TIP3    H249553   5.649   3.012  12.297 -0.3691 -1.1165 -0.6219
 9380TIP3   OH249554   6.173   0.845   6.454 -0.2937  0.1319 -0.0204
 9380TIP3    H149555   6.254   0.895   6.448  0.0330 -0.2715  0.7720
 9380TIP3    H249556   6.180   0.799   6.538 -0.2486 -1.8006 -1.0235
 9381TIP3   OH249557   0.182   4.928   0.328  0.1751  0.4301  0.2904
 9381TIP3    H149558   0.243   4.901   0.259 -3.5168 -3.7925 -1.8673
 9381TIP3    H249559   0.127   4.995   0.286 -0.0336  0.2514  0.2776
 9382TIP3   OH249560   2.253   1.987  11.808  0.3226 -0.3113 -1.0880
 9382TIP3    H149561   2.289   1.917  11.862  0.3383 -0.5125 -1.3516
 9382TIP3    H249562   2.285   2.068  11.847 -0.2513 -0.4217 -0.3798
 9383TIP3   OH249563   2.452   1.850   2.202 -0.2847  0.0823 -0.1621
 9383TIP3    H149564   2.385   1.898   2.251 -0.7310  0.8904 -1.4986
 9383TIP3    H249565   2.446   1.885   2.113  0.2159 -1.6114 -0.9061
 9384TIP3   OH249566   1.931   3.701   3.265  0.5466 -0.0496  0.1994
 9384TIP3    H149567   1.928   3.768   3.333 -2.1557  1.4094 -1.1818
 9384TIP3    H249568   1.854   3.647   3.279  0.8985 -0.8155 -0.6619
 9385TIP3   OH249569   1.466   2.453   0.049 -0.6560  0.2457 -0.1292
 9385TIP3    H149570   1.531   2.457   0.120 -0.4827 -2.7524 -0.0043
 9385TIP3    H249571   1.506   2.396  -0.017 -2.4824 -0.3632 -0.7662
 9386TIP3   OH249572   4.247   1.958   5.046 -0.3826  0.3210  0.1926
 9386TIP3    H149573   4.191   1.925   5.116 -1.0725  1.4176  0.1667
 9386TIP3    H249574   4.190   1.959   4.968  0.0519  0.1906 -0.1309
 9387TIP3   OH249575   2.563   1.235   4.751  0.2847  0.6955 -0.6292
 9387TIP3    H149576   2.648   1.276   4.764  0.1395  0.3490  1.8722
 9387TIP3    H249577   2.503   1.286   4.806 -0.8393  0.0304 -1.2018
 9388TIP3   OH249578   6.155   3.279   2.918  0.2234 -1.1094  0.1204
 9388TIP3    H149579   6.103   3.341   2.969 -1.5028 -0.9514 -1.7118
 9388TIP3    H249580   6.139   3.194   2.958  0.4058 -0.7490  0.9641
 9389TIP3   OH249581   3.153   2.697  16.317  0.8996 -0.2839 -0.1692
 9389TIP3    H149582   3.084   2.630  16.312  0.5220  0.2136 -2.2079
 9389TIP3    H249583   3.108   2.775  16.347  0.1508  0.4684 -2.9750
 9390TIP3   OH249584   2.584   2.440  12.205 -0.0062 -0.1656  0.6170
 9390TIP3    H149585   2.505   2.494  12.206  0.9994  1.3792  1.3475
 9390TIP3    H249586   2.552   2.351  12.216 -1.6795  0.3587  0.3663
 9391TIP3   OH249587   3.200   6.197   2.290 -0.1259  0.2154 -0.2589
 9391TIP3    H149588   3.125   6.159   2.336 -0.3540  0.4859 -0.4018
 9391TIP3    H249589   3.274   6.143   2.316 -0.5859 -0.8822 -1.1215
 9392TIP3   OH249590   6.448   6.349   4.468 -0.1915 -0.1850  0.0155
 9392TIP3    H149591   6.452   6.303   4.552  2.4890 -0.4544 -0.1628
 9392TIP3    H249592   6.518   6.310   4.416 -0.1069  1.7375 -1.4243
 9393TIP3   OH249593   4.293   2.252   4.522 -0.9491  0.5593  0.1279
 9393TIP3    H149594   4.259   2.338   4.498  0.6181  0.8068 -1.4619
 9393TIP3    H249595   4.370   2.272   4.576  0.5002  0.2947 -1.7252
 9394TIP3   OH249596   6.559   2.701   5.668 -0.0105  0.0195 -0.7084
 9394TIP3    H149597   6.496   2.629   5.672 -2.0969  1.7003 -1.4159
 9394TIP3    H249598   6.629   2.674   5.727 -2.7315 -0.7317  2.4877
 9395TIP3   OH249599   3.467   1.488  12.906 -0.2473  0.0360 -0.4266
 9395TIP3    H149600   3.492   1.459  12.993 -1.7137  1.6589  0.6041
 9395TIP3    H249601   3.464   1.583  12.912 -3.8915  0.1187 -1.1410
 9396TIP3   OH249602   5.067   2.859  11.357  0.5218  0.2019  0.0886
 9396TIP3    H149603   5.022   2.788  11.311  2.7138 -1.7892  0.8180
 9396TIP3    H249604   5.037   2.851  11.448 -0.4590  1.3116 -0.1131
 9397TIP3   OH249605   3.814   6.103   2.501 -0.4202  0.1862  0.7900
 9397TIP3    H149606   3.785   6.038   2.438  1.6325  1.1662 -1.3165
 9397TIP3    H249607   3.901   6.074   2.528  1.0371  2.4405 -1.0401
 9398TIP3   OH249608   1.599   3.840  12.783  0.2789  0.1786  0.0612
 9398TIP3    H149609   1.543   3.781  12.733 -0.3615  0.6334  0.2347
 9398TIP3    H249610   1.660   3.783  12.829 -1.2789 -0.4640  1.4220
 9399TIP3   OH249611   1.526   1.578   2.292 -0.6190  0.2608 -1.0850
 9399TIP3    H149612   1.552   1.636   2.364 -1.6163 -0.3597 -0.1941
 9399TIP3    H249613   1.574   1.611   2.216  3.1434 -1.0787  0.4705
 9400TIP3   OH249614   5.844   4.318   5.357 -0.2910 -0.1777  0.5225
 9400TIP3    H149615   5.794   4.398   5.342 -0.7055 -0.6065 -0.4589
 9400TIP3    H249616   5.820   4.291   5.446 -0.6585  0.4273  0.6117
 9401TIP3   OH249617   4.542   1.779   3.033 -0.3048 -0.0573 -0.0693
 9401TIP3    H149618   4.484   1.855   3.033 -0.8048 -0.4302  0.6841
 9401TIP3    H249619   4.622   1.810   2.990  0.2474  1.4745  1.9152
 9402TIP3   OH249620   6.126   6.682   4.144 -0.4908  0.5290 -0.3154
 9402TIP3    H149621   6.076   6.730   4.077 -0.1772  1.2634 -0.0399
 9402TIP3    H249622   6.156   6.750   4.204 -0.5138 -0.0909  0.4102
 9403TIP3   OH249623   5.012   3.314  16.719 -0.0678 -0.3154 -0.4372
 9403TIP3    H149624   4.975   3.255  16.654 -0.7364 -1.5910  1.0510
 9403TIP3    H249625   5.003   3.268  16.802  0.8771  1.2075  0.5673
 9404TIP3   OH249626   6.566   0.161   1.809 -0.1200  0.0182  0.6364
 9404TIP3    H149627   6.591   0.252   1.795 -1.6990  0.4830  0.6957
 9404TIP3    H249628   6.601   0.140   1.896 -2.1464  1.5044  1.8985
 9405TIP3   OH249629   4.135   3.147   0.439  0.1101 -0.7022 -0.2184
 9405TIP3    H149630   4.117   3.235   0.407  0.3401  0.0303  1.5531
 9405TIP3    H249631   4.084   3.089   0.381 -2.8705  0.8098  0.6771
 9406TIP3   OH249632   3.798   6.572  11.938  0.4507  0.1100 -0.4237
 9406TIP3    H149633   3.854   6.644  11.909 -0.3937  0.2654 -1.7864
 9406TIP3    H249634   3.787   6.518  11.859 -0.6879 -0.3206  0.0163
 9407TIP3   OH249635   2.401   0.850   5.350  0.0183 -0.4550 -0.0859
 9407TIP3    H149636   2.359   0.926   5.310  0.6841 -0.6358 -1.2067
 9407TIP3    H249637   2.394   0.782   5.283  1.6054 -0.6336 -0.1101
 9408TIP3   OH249638   6.250   6.140   3.709 -0.0390 -0.2493  0.7844
 9408TIP3    H149639   6.266   6.083   3.633 -0.6058  0.2906  0.2412
 9408TIP3    H249640   6.281   6.226   3.681 -0.9258  0.1158  0.8747
 9409TIP3   OH249641   0.141   2.949   1.579  0.5175  0.5516  0.0523
 9409TIP3    H149642   0.112   2.998   1.502  0.9094  2.2092  0.9156
 9409TIP3    H249643   0.233   2.929   1.563  0.1596 -0.6292 -0.6423
 9410TIP3   OH249644   1.790   6.631  17.009  0.2318 -0.2224 -0.4861
 9410TIP3    H149645   1.800   6.559  17.071  0.5456 -0.3488 -0.6832
 9410TIP3    H249646   1.821   6.596  16.926  2.3874  0.7363 -0.1844
 9411TIP3   OH249647   6.312   4.956   3.524  0.7469 -0.2800 -0.5558
 9411TIP3    H149648   6.222   4.961   3.492 -0.0743 -1.7448  1.2900
 9411TIP3    H249649   6.323   4.864   3.551  2.0640  0.3289  1.2063
 9412TIP3   OH249650   6.191   1.053  12.079 -0.0625 -0.2235 -0.1401
 9412TIP3    H149651   6.107   1.080  12.041 -0.5336  0.7781  1.5443
 9412TIP3    H249652   6.236   1.010  12.006 -1.7265 -0.1567 -1.2860
 9413TIP3   OH249653   5.435   5.120   5.495  0.4662 -0.2428 -0.1474
 9413TIP3    H149654   5.383   5.066   5.556  4.4970 -1.1792  2.8608
 9413TIP3    H249655   5.445   5.064   5.418 -0.0200 -1.5200  0.6709
 9414TIP3   OH249656   1.456   0.187   4.334  0.6950 -0.4114  0.3118
 9414TIP3    H149657   1.460   0.232   4.418 -1.1455 -3.2159  2.0623
 9414TIP3    H249658   1.532   0.129   4.333  1.8308  1.0126 -0.9448
 9415TIP3   OH249659   4.932   3.901   4.628  0.4835 -0.1914 -0.1671
 9415TIP3    H149660   4.984   3.834   4.584  0.6383  0.0680 -0.3758
 9415TIP3    H249661   4.892   3.855   4.702  0.3048 -0.5986 -0.5136
 9416TIP3   OH249662   2.981   3.458  11.884  0.4377 -0.1569 -0.5947
 9416TIP3    H149663   2.930   3.539  11.890 -0.2393 -0.5243 -1.2119
 9416TIP3    H249664   3.068   3.486  11.856 -0.1998  0.2301 -2.2633
 9417TIP3   OH249665   2.325   0.840  16.108  0.1777 -0.0804 -0.4525
 9417TIP3    H149666   2.324   0.814  16.200  2.9110  0.8532 -0.0636
 9417TIP3    H249667   2.343   0.759  16.060 -1.1371 -0.5489 -0.2105
 9418TIP3   OH249668   2.946   6.073   2.304 -0.6002  0.5395 -0.0652
 9418TIP3    H149669   2.961   6.120   2.223  1.6904 -0.7317 -0.4542
 9418TIP3    H249670   2.865   6.111   2.339 -1.9316  0.8217 -3.1103
 9419TIP3   OH249671   2.239   1.308  12.990 -0.5106  0.2087 -0.0669
 9419TIP3    H149672   2.271   1.224  12.957  2.6130  1.5265 -0.7301
 9419TIP3    H249673   2.165   1.329  12.933  0.2150 -0.9619 -1.5182
 9420TIP3   OH249674   3.366   4.232   4.074 -0.1328  0.1283  0.0067
 9420TIP3    H149675   3.377   4.255   4.166 -0.0880 -0.8843  0.2686
 9420TIP3    H249676   3.309   4.155   4.075 -1.7371  1.2545 -0.9396
 9421TIP3   OH249677   5.507   0.257   3.585 -0.0117  0.1655 -0.3759
 9421TIP3    H149678   5.553   0.189   3.536  0.1904 -0.0907  0.1597
 9421TIP3    H249679   5.576   0.319   3.610  0.2858 -0.8192  1.4477
 9422TIP3   OH249680   0.760   4.854  11.075 -0.0262 -0.1020 -0.5326
 9422TIP3    H149681   0.718   4.796  11.139 -1.5516 -0.9954 -2.2335
 9422TIP3    H249682   0.743   4.812  10.990  0.5703  1.8113 -1.6587
 9423TIP3   OH249683   5.807   4.652   1.172  0.0459 -0.2509  0.0071
 9423TIP3    H149684   5.734   4.606   1.213 -0.3000  0.2061 -0.0984
 9423TIP3    H249685   5.787   4.745   1.182  0.7249 -0.1198  0.1768
 9424TIP3   OH249686   1.614   2.262   1.921  0.0016  0.2150  0.2090
 9424TIP3    H149687   1.653   2.201   1.859  1.5276  1.8077 -0.4768
 9424TIP3    H249688   1.682   2.278   1.986  0.4324  2.7303 -0.7668
 9425TIP3   OH249689   4.239   6.506   2.040  0.1581  0.3703  0.3486
 9425TIP3    H149690   4.225   6.486   2.133 -1.7980 -0.7560 -0.1316
 9425TIP3    H249691   4.323   6.463   2.019  0.3744  0.2090  1.4601
 9426TIP3   OH249692   0.093   6.450   1.534 -0.6387  0.4355 -0.0706
 9426TIP3    H149693   0.180   6.417   1.510 -0.7749 -0.1519  0.2238
 9426TIP3    H249694   0.107   6.495   1.617 -0.7415 -0.3038  0.3573
 9427TIP3   OH249695   3.520   5.798   2.181  0.2696 -0.6284 -0.3245
 9427TIP3    H149696   3.426   5.806   2.166  0.0091 -1.4022  0.7562
 9427TIP3    H249697   3.532   5.707   2.208  1.0242 -0.0249  1.5493
 9428TIP3   OH249698   3.095   0.911   4.294  0.2365 -0.3890  0.3621
 9428TIP3    H149699   3.187   0.900   4.319  0.8649  1.3532 -0.9853
 9428TIP3    H249700   3.087   0.867   4.210  0.4875  1.3589 -0.6404
 9429TIP3   OH249701   5.396   5.081   1.176 -0.4441 -0.0581 -1.0810
 9429TIP3    H149702   5.437   5.107   1.094  0.6151  1.5698 -0.1075
 9429TIP3    H249703   5.446   5.006   1.206 -0.0672  0.0890 -1.3409
 9430TIP3   OH249704   0.203   2.264   3.513 -0.2451 -0.2015 -0.5099
 9430TIP3    H149705   0.186   2.277   3.420  2.0343  0.9768 -0.8288
 9430TIP3    H249706   0.298   2.260   3.520 -0.3033  0.8655  1.9235
 9431TIP3   OH249707   0.466   2.743   5.119 -0.0153  0.8361  0.2975
 9431TIP3    H149708   0.551   2.703   5.139 -0.1212 -0.6978 -1.9830
 9431TIP3    H249709   0.404   2.671   5.121 -0.5610  1.1885 -1.9059
 9432TIP3   OH249710   3.752   5.532   5.337  0.3626 -0.3650  0.4064
 9432TIP3    H149711   3.745   5.586   5.258 -1.2374  0.4949  1.0945
 9432TIP3    H249712   3.769   5.595   5.408  1.0915 -1.0567  0.8613
 9433TIP3   OH249713   4.164   1.529   0.564  0.5517 -0.2019 -0.2299
 9433TIP3    H149714   4.155   1.620   0.592  0.5683 -0.0613 -0.6692
 9433TIP3    H249715   4.149   1.478   0.643 -0.6472  0.1482 -0.2082
 9434TIP3   OH249716   4.654   1.922  16.688  0.1967  0.2455  0.0719
 9434TIP3    H149717   4.612   1.967  16.760  0.1539 -0.7926  0.7247
 9434TIP3    H249718   4.675   1.835  16.723  0.2318 -0.2617 -1.1403
 9435TIP3   OH249719   4.882   3.902  14.607  0.5634  0.0421  0.0301
 9435TIP3    H149720   4.867   3.996  14.598  1.3660  0.0847 -0.9557
 9435TIP3    H249721   4.970   3.887  14.572  0.9861 -0.8885  1.4010
 9436TIP3   OH249722   3.223   0.510   5.293 -0.0929  0.1395  0.0863
 9436TIP3    H149723   3.318   0.500   5.289 -0.1329  0.2589 -1.6821
 9436TIP3    H249724   3.204   0.580   5.231 -1.1949  1.3791  1.7086
 9437TIP3   OH249725   6.522   4.040  11.441 -0.4022 -0.5966 -0.1389
 9437TIP3    H149726   6.570   3.997  11.512  0.5762 -0.5735 -0.7576
 9437TIP3    H249727   6.437   4.060  11.478  0.2058 -0.2651  1.1350
 9438TIP3   OH249728   3.922   4.747  14.890 -0.1481  0.1587 -0.1835
 9438TIP3    H149729   3.940   4.841  14.898 -2.5623  0.6666 -0.1280
 9438TIP3    H249730   3.994   4.705  14.938  1.1722  1.9313 -0.4990
 9439TIP3   OH249731   6.053   0.360  17.035 -0.0294  0.6112  0.4233
 9439TIP3    H149732   6.140   0.358  17.075  0.6184 -0.1617 -0.9219
 9439TIP3    H249733   6.020   0.271  17.046  0.1581  0.3869 -0.6902
 9440TIP3   OH249734   1.825   2.250  16.799  0.3961 -0.1293 -0.4277
 9440TIP3    H149735   1.756   2.192  16.831  0.1455 -0.7936 -2.0645
 9440TIP3    H249736   1.861   2.204  16.723  2.8628  0.0677  0.5607
 9441TIP3   OH249737   2.607   3.905  14.140  0.6618  0.3295 -0.5662
 9441TIP3    H149738   2.633   3.995  14.125 -0.3434  0.4123 -2.0493
 9441TIP3    H249739   2.535   3.890  14.079  0.7026 -1.4317 -0.2532
 9442TIP3   OH249740   1.340   1.136  15.514  0.3849 -0.5770 -0.1286
 9442TIP3    H149741   1.379   1.209  15.561 -1.2432  0.6032 -0.5196
 9442TIP3    H249742   1.374   1.144  15.425 -0.4522  0.2682 -0.3925
 9443TIP3   OH249743   4.836   1.998   0.333 -0.1550  0.6078 -0.3827
 9443TIP3    H149744   4.758   1.943   0.334  0.2972 -0.1030 -1.5219
 9443TIP3    H249745   4.891   1.964   0.404  0.0676 -0.3687 -0.9963
 9444TIP3   OH249746   1.485   3.978  11.552  0.0182  0.4369 -0.1719
 9444TIP3    H149747   1.397   4.016  11.557 -0.9932 -1.4889 -1.6388
 9444TIP3    H249748   1.511   3.988  11.461  0.4720 -0.7219 -0.1955
 9445TIP3   OH249749   1.329   5.728   6.111  0.3508  0.6163 -0.1809
 9445TIP3    H149750   1.274   5.669   6.060 -0.2439  0.1424  0.9620
 9445TIP3    H249751   1.370   5.672   6.177  0.4558  1.3397  0.3856
 9446TIP3   OH249752   0.843   3.160  11.276  0.0809 -0.5792  0.1857
 9446TIP3    H149753   0.908   3.114  11.329 -1.2032 -0.0866  2.3173
 9446TIP3    H249754   0.766   3.103  11.276 -0.9784  0.7698  1.5053
 9447TIP3   OH249755   3.381   1.055  15.335 -0.8566 -0.3076 -0.0589
 9447TIP3    H149756   3.452   0.997  15.308 -0.9804 -0.0595 -0.9479
 9447TIP3    H249757   3.306   0.996  15.349 -0.9313 -0.3941 -0.7764
 9448TIP3   OH249758   2.970   2.287  13.719  0.4814  0.4579  0.1578
 9448TIP3    H149759   2.929   2.218  13.771  2.6987 -1.8085 -0.8785
 9448TIP3    H249760   2.987   2.357  13.782 -1.4899 -0.0559  1.3447
 9449TIP3   OH249761   3.289   2.451  16.141 -0.2906  0.0577  0.0615
 9449TIP3    H149762   3.219   2.513  16.119 -1.0054  0.0249  2.0802
 9449TIP3    H249763   3.259   2.408  16.221  0.6996 -2.1219 -0.6633
 9450TIP3   OH249764   6.572   3.706  12.401 -0.1465  0.4410  0.6105
 9450TIP3    H149765   6.604   3.787  12.361  1.3078 -0.0136  0.8051
 9450TIP3    H249766   6.479   3.702  12.376  0.0202  1.6254 -0.2753
 9451TIP3   OH249767   5.525   5.368  11.630  0.4326  0.2788 -0.1380
 9451TIP3    H149768   5.473   5.383  11.551  1.8353  2.3927 -0.7571
 9451TIP3    H249769   5.598   5.430  11.623  2.4663 -1.7965  1.1963
 9452TIP3   OH249770   4.223   1.918   5.885 -0.1192  0.3059 -0.1863
 9452TIP3    H149771   4.136   1.881   5.897  0.3978 -1.5992 -1.7467
 9452TIP3    H249772   4.207   2.007   5.852 -1.5425 -0.4697 -1.7519
 9453TIP3   OH249773   0.639   2.109   6.232 -0.1567 -0.2092 -0.3644
 9453TIP3    H149774   0.602   2.023   6.215 -1.6682  0.5144 -0.9195
 9453TIP3    H249775   0.626   2.157   6.150  0.2304  0.6927  0.0858
 9454TIP3   OH249776   0.751   6.486   6.787  0.0881  0.2024 -0.1193
 9454TIP3    H149777   0.675   6.542   6.801  1.1264  2.0101 -1.3696
 9454TIP3    H249778   0.800   6.491   6.869  0.8757  2.3143 -0.6608
 9455TIP3   OH249779   4.034   1.325  11.366 -0.0845 -0.7522  0.3228
 9455TIP3    H149780   4.079   1.264  11.308  0.7558 -0.7557  0.9565
 9455TIP3    H249781   4.074   1.311  11.452 -1.1879 -0.6366  0.8862
 9456TIP3   OH249782   5.322   1.346   2.721 -0.0542 -0.0090 -0.3466
 9456TIP3    H149783   5.400   1.376   2.768 -0.3763  2.0343 -1.0417
 9456TIP3    H249784   5.253   1.407   2.746 -0.6869  0.0247 -2.0300
 9457TIP3   OH249785   1.135   2.182  11.413 -0.0352  0.3265 -0.0786
 9457TIP3    H149786   1.135   2.090  11.386 -3.1009  0.6575 -1.6449
 9457TIP3    H249787   1.209   2.221  11.366 -0.3905 -0.7950 -1.6257
 9458TIP3   OH249788   2.855   5.630  10.845  0.4935 -0.7866  0.1804
 9458TIP3    H149789   2.935   5.581  10.865  1.2223 -0.0348 -0.7759
 9458TIP3    H249790   2.839   5.613  10.752  0.2488  0.0478  0.0601
 9459TIP3   OH249791   2.906   2.989  16.743 -0.1699 -0.4148 -0.2204
 9459TIP3    H149792   2.819   2.954  16.724  0.1577 -2.7779  2.0033
 9459TIP3    H249793   2.893   3.048  16.817  0.0112 -0.0396 -0.4824
 9460TIP3   OH249794   4.532   2.016  11.107 -0.2600  0.4000  0.4078
 9460TIP3    H149795   4.582   2.084  11.063  1.1394 -0.4290  0.6530
 9460TIP3    H249796   4.441   2.047  11.104  0.3393  2.2974  0.5855
 9461TIP3   OH249797   1.763   6.155  11.703 -0.4142 -0.0118 -0.0177
 9461TIP3    H149798   1.722   6.126  11.784  0.4097 -0.0529  0.3926
 9461TIP3    H249799   1.692   6.195  11.653 -0.7574  0.8019  1.0880
 9462TIP3   OH249800   5.838   6.584   2.880  0.0681 -0.2962 -0.1523
 9462TIP3    H149801   5.837   6.673   2.845 -0.5602 -0.0340  0.5133
 9462TIP3    H249802   5.784   6.533   2.819 -1.2844  0.2233  0.5733
 9463TIP3   OH249803   4.978   4.448   6.583  0.1001  0.4164 -0.7748
 9463TIP3    H149804   5.009   4.483   6.666  0.8551  0.0779 -0.9112
 9463TIP3    H249805   5.056   4.415   6.540 -0.3027  0.4733 -1.5687
 9464TIP3   OH249806   3.865   5.259   3.811  0.0127  0.0936  0.0606
 9464TIP3    H149807   3.911   5.338   3.840  0.1326  0.2855 -0.6380
 9464TIP3    H249808   3.826   5.283   3.727 -0.4995 -0.3900  0.1548
 9465TIP3   OH249809   2.188   1.158   0.846  0.3366  0.0281 -0.4023
 9465TIP3    H149810   2.180   1.150   0.751 -0.1264  0.4146 -0.4034
 9465TIP3    H249811   2.113   1.109   0.880  0.0267  0.5880 -0.2687
 9466TIP3   OH249812   4.993   6.232   0.628 -0.3830 -0.4466 -0.1961
 9466TIP3    H149813   5.053   6.168   0.589 -0.1021 -0.3412  0.0599
 9466TIP3    H249814   4.977   6.295   0.557  1.5536  0.7483  0.3442
 9467TIP3   OH249815   0.847   0.031   5.419 -0.3523 -0.2491 -0.5521
 9467TIP3    H149816   0.796  -0.047   5.397 -0.1403 -0.8693  1.0150
 9467TIP3    H249817   0.927  -0.004   5.460  0.1679  0.7761 -0.6741
 9468TIP3   OH249818   1.917   4.194  11.493 -0.3305  0.1821 -0.8732
 9468TIP3    H149819   2.005   4.158  11.507 -0.4308 -0.0375 -0.7938
 9468TIP3    H249820   1.859   4.118  11.500 -0.5200  0.3135 -1.0026
 9469TIP3   OH249821   1.889   3.353   5.979  0.0140  0.1355 -0.1293
 9469TIP3    H149822   1.869   3.412   6.051  1.1029  0.4386 -0.0629
 9469TIP3    H249823   1.851   3.269   6.005  2.1751 -0.3224  1.7741
 9470TIP3   OH249824   3.454   6.260  11.767  0.2992 -0.0278  0.1619
 9470TIP3    H149825   3.363   6.264  11.797  0.4631 -2.2962  1.1181
 9470TIP3    H249826   3.504   6.231  11.843  1.8148  0.8671 -0.4432
 9471TIP3   OH249827   6.278   5.998  17.066 -0.2653 -0.4581 -0.0782
 9471TIP3    H149828   6.238   5.969  16.984 -1.6262 -0.2715  0.4849
 9471TIP3    H249829   6.329   6.076  17.042  0.1305 -0.9549 -0.8936
 9472TIP3   OH249830   2.818   5.693  16.627 -0.7204  0.2761  0.1259
 9472TIP3    H149831   2.844   5.721  16.540 -1.6462 -1.7457 -0.8697
 9472TIP3    H249832   2.893   5.644  16.660  0.1736  2.1940  1.1020
 9473TIP3   OH249833   5.547   1.559   3.921  0.0064 -0.1678  0.0649
 9473TIP3    H149834   5.570   1.553   4.014  0.2839 -0.3635 -0.0144
 9473TIP3    H249835   5.452   1.552   3.920 -0.3220  2.8965  0.5990
 9474TIP3   OH249836   6.305   6.658   4.878 -0.1026 -0.1795 -0.1846
 9474TIP3    H149837   6.299   6.584   4.939 -1.8238  2.0025  2.5981
 9474TIP3    H249838   6.334   6.620   4.796  2.3116 -3.4216  1.9318
 9475TIP3   OH249839   4.346   6.627  12.264 -0.1606  0.4053 -0.2649
 9475TIP3    H149840   4.360   6.707  12.315 -2.4265 -0.3037  1.6798
 9475TIP3    H249841   4.417   6.569  12.292 -0.6202  0.4956  1.2033
 9476TIP3   OH249842   1.423   6.711  13.809 -0.5130  0.0571 -0.4892
 9476TIP3    H149843   1.342   6.676  13.770 -0.6326 -0.8545  0.5261
 9476TIP3    H249844   1.488   6.704  13.739 -1.4893  1.6355 -1.6148
 9477TIP3   OH249845   2.109   0.220   1.660  0.7942 -0.1339 -0.4946
 9477TIP3    H149846   2.063   0.303   1.670 -2.5679 -1.8551 -0.3738
 9477TIP3    H249847   2.108   0.182   1.748 -0.0810 -1.4066 -1.0251
 9478TIP3   OH249848   3.671   5.580   2.088 -0.0295  0.2193 -0.3631
 9478TIP3    H149849   3.595   5.529   2.115 -1.0860  2.6249  1.6201
 9478TIP3    H249850   3.746   5.523   2.106 -1.2476 -1.5972 -0.8132
 9479TIP3   OH249851   2.845   4.297  11.225 -0.3380  0.9012  0.2823
 9479TIP3    H149852   2.850   4.385  11.187 -0.0346  1.1294  0.8337
 9479TIP3    H249853   2.868   4.238  11.153  1.6428  1.4032  0.4331
 9480TIP3   OH249854   0.928   6.670  12.100  0.2145  0.2996  0.2406
 9480TIP3    H149855   0.964   6.758  12.091  0.4450  0.2889  1.0027
 9480TIP3    H249856   0.984   6.627  12.165 -0.7759  0.0730  0.9735
 9481TIP3   OH249857   5.172   5.555   2.371 -0.1693 -0.0660 -0.0669
 9481TIP3    H149858   5.266   5.564   2.385  0.1356  0.3663 -2.0893
 9481TIP3    H249859   5.157   5.461   2.366  0.1096 -0.1423  0.5109
 9482TIP3   OH249860   0.724   4.594  11.172  0.3725  0.1821  0.8529
 9482TIP3    H149861   0.706   4.608  11.080 -1.8242 -1.1452  1.0195
 9482TIP3    H249862   0.801   4.537  11.173 -0.2000 -0.6468 -0.2186
 9483TIP3   OH249863   1.851   4.733  12.532  0.0434  0.8364 -0.5306
 9483TIP3    H149864   1.761   4.743  12.563 -0.5619  2.2548 -2.5483
 9483TIP3    H249865   1.850   4.653  12.479  0.3451  0.0973  0.5392
 9484TIP3   OH249866   4.567   1.815  16.140  0.2212 -0.0897  0.0117
 9484TIP3    H149867   4.552   1.901  16.180 -1.4156  0.0295 -0.7587
 9484TIP3    H249868   4.499   1.759  16.178 -1.5800  0.0915 -2.6120
 9485TIP3   OH249869   3.071   2.317  10.334 -0.4819  0.2293 -0.1037
 9485TIP3    H149870   3.137   2.286  10.273 -0.9812  1.3631 -1.2802
 9485TIP3    H249871   3.055   2.408  10.308  0.9215  1.5885  3.1631
 9486TIP3   OH249872   2.488   5.407  16.046  0.7218 -0.1405  0.3177
 9486TIP3    H149873   2.526   5.319  16.044  0.7616 -0.1160 -0.1296
 9486TIP3    H249874   2.521   5.446  16.127  0.8904 -0.4578  0.4012
 9487TIP3   OH249875   5.831   1.955  15.179 -0.0287  0.8918  0.2229
 9487TIP3    H149876   5.810   1.962  15.272  0.7051  3.2027  0.2872
 9487TIP3    H249877   5.809   2.041  15.143  0.4961  0.3180 -1.5755
 9488TIP3   OH249878   3.376   2.097   0.291 -0.0673  0.2524  0.1990
 9488TIP3    H149879   3.350   2.164   0.228  1.1464  0.9722  0.4264
 9488TIP3    H249880   3.342   2.016   0.255  0.0760  0.7393 -1.0754
 9489TIP3   OH249881   6.386   0.263  16.175 -0.1967  0.2975 -0.2634
 9489TIP3    H149882   6.403   0.356  16.159  0.2259  0.4686  1.0682
 9489TIP3    H249883   6.312   0.262  16.236  0.2472 -0.2029  0.2847
 9490TIP3   OH249884   1.504   3.289  14.445  0.0093 -0.0892 -0.3765
 9490TIP3    H149885   1.496   3.291  14.350 -1.3925  1.1356 -0.2791
 9490TIP3    H249886   1.414   3.296  14.477  0.4834 -0.0496  1.0372
 9491TIP3   OH249887   3.726   1.292   0.439 -0.2739 -0.6769  0.1330
 9491TIP3    H149888   3.802   1.235   0.429  1.1254  1.2810 -1.1489
 9491TIP3    H249889   3.757   1.363   0.496 -1.3617 -0.2056  0.1568
 9492TIP3   OH249890   6.293   4.082   0.515  0.5328  0.7144  0.7466
 9492TIP3    H149891   6.262   4.164   0.552 -0.2224  1.0415 -0.5875
 9492TIP3    H249892   6.327   4.105   0.429  0.5704 -0.3194  0.4724
 9493TIP3   OH249893   3.221   5.538  15.920 -0.3119 -0.5205 -0.0581
 9493TIP3    H149894   3.212   5.455  15.966 -1.9415  1.1842  3.0382
 9493TIP3    H249895   3.279   5.519  15.846 -2.0266 -4.7307 -0.5674
 9494TIP3   OH249896   3.903   2.982   1.564 -0.2057  0.1684 -0.0754
 9494TIP3    H149897   3.934   3.030   1.641 -0.3340 -1.7288  1.2221
 9494TIP3    H249898   3.981   2.937   1.531 -0.8546 -2.2521  1.4365
 9495TIP3   OH249899   2.570   4.565   4.419 -0.0055  0.5205  0.0051
 9495TIP3    H149900   2.496   4.587   4.363  0.0851  0.1248 -0.2804
 9495TIP3    H249901   2.646   4.600   4.373  0.0554  0.3043 -0.0642
 9496TIP3   OH249902   1.203   0.504  11.392 -0.2332 -0.2583  0.2085
 9496TIP3    H149903   1.123   0.462  11.421  0.1094 -0.9500  0.1757
 9496TIP3    H249904   1.179   0.551  11.312 -0.4464 -1.0657 -0.2087
 9497TIP3   OH249905   4.896   4.277   5.544  0.0174  0.5967  0.3695
 9497TIP3    H149906   4.985   4.274   5.510 -0.0816 -2.2204  0.1255
 9497TIP3    H249907   4.864   4.364   5.521  2.0716  1.0079 -1.1747
 9498TIP3   OH249908   1.327   1.767   1.544 -0.1073 -0.5596 -0.2192
 9498TIP3    H149909   1.354   1.850   1.504  2.0590 -1.3159 -0.4683
 9498TIP3    H249910   1.402   1.741   1.598 -1.2611 -1.7300  0.8941
 9499TIP3   OH249911   4.813   5.604   3.004  0.2943 -0.3635  0.0072
 9499TIP3    H149912   4.799   5.510   2.993 -1.7328  0.0427 -1.3165
 9499TIP3    H249913   4.882   5.625   2.941 -1.2466 -0.5234 -1.8125
 9500TIP3   OH249914   5.736   0.351   1.614  0.1252 -0.3787 -0.5492
 9500TIP3    H149915   5.793   0.368   1.539 -0.3425 -0.4151 -0.9153
 9500TIP3    H249916   5.702   0.263   1.598  0.5558 -0.6643  0.0536
 9501TIP3   OH249917   5.352   5.363  13.199 -0.4601 -0.4011  0.3896
 9501TIP3    H149918   5.300   5.443  13.195  0.6678  0.3722  0.7740
 9501TIP3    H249919   5.431   5.383  13.150  0.2475 -0.9503  1.2732
 9502TIP3   OH249920   5.855   0.254  10.934 -0.2705 -0.0332 -0.0010
 9502TIP3    H149921   5.820   0.172  10.900 -1.4680  0.6002 -0.3564
 9502TIP3    H249922   5.838   0.318  10.865 -1.0162  0.8786  0.9851
 9503TIP3   OH249923   4.930   2.497  11.407 -0.0194 -0.3235  0.5751
 9503TIP3    H149924   4.884   2.554  11.469  0.2874 -0.5103  0.9819
 9503TIP3    H249925   4.943   2.552  11.330 -3.1660 -1.0066 -0.5989
 9504TIP3   OH249926   1.799   4.059   0.944 -0.3905 -0.5579 -0.5316
 9504TIP3    H149927   1.867   4.076   0.879  0.1724 -1.7994 -0.3035
 9504TIP3    H249928   1.768   3.970   0.922 -0.6896 -0.7031  0.4586
 9505TIP3   OH249929   5.744   5.462  12.089  0.1813 -0.0294 -0.0555
 9505TIP3    H149930   5.665   5.515  12.096  0.8192  0.7972  1.3878
 9505TIP3    H249931   5.787   5.493  12.009 -0.6314 -0.0790 -0.5260
 9506TIP3   OH249932   2.099   1.815  14.086  0.1583  0.4645  0.2816
 9506TIP3    H149933   2.042   1.760  14.032  0.5396  0.4637 -0.1325
 9506TIP3    H249934   2.181   1.765  14.093  1.3604  1.9054 -2.0273
 9507TIP3   OH249935   3.265   6.234  12.546  0.0673 -0.1898  0.1707
 9507TIP3    H149936   3.295   6.225  12.455 -1.7742 -0.7929 -0.4171
 9507TIP3    H249937   3.286   6.149  12.586 -1.1474 -0.7575 -0.3496
 9508TIP3   OH249938   4.227   2.786  14.293 -0.3374 -0.4565  0.1128
 9508TIP3    H149939   4.313   2.825  14.277 -0.0178 -0.9309  0.6040
 9508TIP3    H249940   4.178   2.854  14.339 -0.5756  0.1728 -1.0333
 9509TIP3   OH249941   0.147   5.919   1.903  0.1796  0.4267  0.3568
 9509TIP3    H149942   0.168   6.012   1.890 -0.5360  0.5957  0.4035
 9509TIP3    H249943   0.052   5.915   1.900  0.1929 -0.2536  0.7356
 9510TIP3   OH249944   1.213   4.227  15.115  0.2829 -0.0860  0.0205
 9510TIP3    H149945   1.238   4.289  15.046 -1.0521  1.5292  0.8930
 9510TIP3    H249946   1.119   4.242  15.126  0.5471  0.1481  2.5614
 9511TIP3   OH249947   1.049   0.488  15.740 -0.0244  0.3203  0.0406
 9511TIP3    H149948   1.047   0.582  15.724  0.5851  0.6008  1.4415
 9511TIP3    H249949   1.135   0.473  15.780  0.2769 -0.9899 -1.0251
 9512TIP3   OH249950   5.697   4.652   2.178 -0.2231 -0.4632  0.0030
 9512TIP3    H149951   5.780   4.686   2.212 -0.1761 -1.4295  0.9041
 9512TIP3    H249952   5.701   4.669   2.084 -0.7339  3.0966  0.4837
 9513TIP3   OH249953   2.925   0.134  14.194 -0.3562 -0.0793  0.3930
 9513TIP3    H149954   2.880   0.084  14.262  0.0400 -0.7082  0.2010
 9513TIP3    H249955   2.967   0.206  14.241 -1.6408  0.5941  0.5661
 9514TIP3   OH249956   6.157   4.105  15.180  0.3548  0.0214  0.2680
 9514TIP3    H149957   6.110   4.140  15.104  1.2793  1.2347  0.2168
 9514TIP3    H249958   6.156   4.010  15.168  0.3266  0.1834 -1.1563
 9515TIP3   OH249959   0.105   5.369  13.068 -0.5033  0.0819 -0.1994
 9515TIP3    H149960   0.147   5.288  13.095 -2.0171 -0.5334  0.4422
 9515TIP3    H249961   0.029   5.378  13.127 -1.5694  0.8349 -1.6111
 9516TIP3   OH249962   2.228   1.680  12.856  0.2377  0.5489 -0.5507
 9516TIP3    H149963   2.174   1.715  12.785  0.0542  1.6022  0.0926
 9516TIP3    H249964   2.304   1.642  12.813 -0.5234 -0.0437 -1.4029
 9517TIP3   OH249965   2.582   0.293  15.700 -0.0175  0.5035  0.3055
 9517TIP3    H149966   2.551   0.282  15.610 -1.3588  1.0148  0.6739
 9517TIP3    H249967   2.673   0.322  15.692 -0.0481  0.2807 -0.8741
 9518TIP3   OH249968   4.862   1.900   5.149 -0.0706  0.0674 -0.0115
 9518TIP3    H149969   4.794   1.833   5.158 -1.8535  2.0209  3.0693
 9518TIP3    H249970   4.944   1.855   5.170 -0.7525 -1.7435 -1.0354
 9519TIP3   OH249971   0.651   0.989   1.309 -0.6130  0.0039  0.2170
 9519TIP3    H149972   0.745   0.998   1.294 -0.2790 -1.5450  1.1540
 9519TIP3    H249973   0.637   1.023   1.398 -1.1859  1.4517 -0.3967
 9520TIP3   OH249974   1.570   5.158   6.251  0.1463 -0.0475 -0.2275
 9520TIP3    H149975   1.514   5.228   6.217  0.8151  0.0653 -1.1358
 9520TIP3    H249976   1.622   5.200   6.319  0.5796  0.3602 -0.8024
 9521TIP3   OH249977   5.482   1.092   0.325 -0.6892  0.1455  0.0944
 9521TIP3    H149978   5.484   1.173   0.274  1.3165 -0.6041 -1.0977
 9521TIP3    H249979   5.573   1.066   0.333 -1.2493 -1.6803  1.0262
 9522TIP3   OH249980   4.126   3.763  16.495 -0.0901  0.1506  0.4279
 9522TIP3    H149981   4.084   3.828  16.440 -1.6838  0.2926  1.7517
 9522TIP3    H249982   4.152   3.810  16.574  2.0165 -0.0813 -0.0601
 9523TIP3   OH249983   5.563   5.640  11.268 -0.1608  0.2949 -0.4602
 9523TIP3    H149984   5.519   5.557  11.287  1.1511  0.0656  1.8612
 9523TIP3    H249985   5.649   5.614  11.237  0.3497  0.7681  0.5244
 9524TIP3   OH249986   0.053   2.091   3.645 -0.0102  0.3854  0.3777
 9524TIP3    H149987   0.134   2.117   3.601  1.1009 -2.8465  0.2450
 9524TIP3    H249988   0.068   2.112   3.738  1.1913 -0.5190  0.4152
 9525TIP3   OH249989   0.371   5.344  10.533  0.2970 -0.2790 -0.3131
 9525TIP3    H149990   0.337   5.432  10.515 -2.3971 -1.2182 -0.3159
 9525TIP3    H249991   0.353   5.330  10.626  1.4360 -0.5759 -0.1183
 9526TIP3   OH249992   6.303   6.560   4.629  0.0895 -0.0498  0.1239
 9526TIP3    H149993   6.219   6.519   4.650 -0.8544 -0.1668 -3.2688
 9526TIP3    H249994   6.364   6.486   4.625  0.0919 -0.1278  1.3565
 9527TIP3   OH249995   3.309   5.941   6.443  0.0246 -0.2791 -0.1968
 9527TIP3    H149996   3.226   5.894   6.448 -0.6851  0.9891  0.4900
 9527TIP3    H249997   3.332   5.960   6.534  1.0789 -0.6186 -0.3789
 9528TIP3   OH249998   0.341   2.816  10.764  0.0978  0.0595 -0.2458
 9528TIP3    H149999   0.401   2.887  10.785 -0.4217  0.5581 -0.4349
 9528TIP3    H250000   0.256   2.858  10.752 -0.1524 -0.5493 -0.6882
 9529TIP3   OH250001   6.213   1.729   2.810 -0.4559 -0.2481  0.5657
 9529TIP3    H150002   6.227   1.758   2.719 -0.1632  0.4355  0.8221
 9529TIP3    H250003   6.162   1.800   2.850 -0.4351 -0.4686  0.9814
 9530TIP3   OH250004   1.745   2.922  11.422 -0.2017 -0.3119 -0.6818
 9530TIP3    H150005   1.739   3.017  11.420  3.1566  0.0736  1.2425
 9530TIP3    H250006   1.777   2.899  11.335  1.3058  0.6323 -0.4196
 9531TIP3   OH250007   6.754   4.336   0.259  0.3342 -0.3703 -0.6959
 9531TIP3    H150008   6.794   4.301   0.338 -0.3052 -0.8884 -0.5973
 9531TIP3    H250009   6.727   4.259   0.209 -2.5691 -0.0926  0.2653
 9532TIP3   OH250010   0.403   6.321  16.925  0.5474 -0.8180 -0.0384
 9532TIP3    H150011   0.407   6.237  16.972  0.2245 -0.1510  1.2162
 9532TIP3    H250012   0.391   6.386  16.993 -0.7435  0.1212 -1.1155
 9533TIP3   OH250013   3.869   0.719   5.712  0.2789 -0.1144  0.2553
 9533TIP3    H150014   3.872   0.718   5.808 -3.7441 -3.1823  0.6101
 9533TIP3    H250015   3.887   0.629   5.687  0.2100  0.4024 -1.8045
 9534TIP3   OH250016   4.993   5.751   0.747  0.5565 -0.1256  0.0033
 9534TIP3    H150017   4.973   5.718   0.660 -2.2975 -1.1319  0.9339
 9534TIP3    H250018   5.089   5.761   0.748  0.6454  0.2256 -3.2830
 9535TIP3   OH250019   4.742   5.357  11.814  0.4918 -0.0482  0.1160
 9535TIP3    H150020   4.666   5.412  11.834  1.0091  0.7759 -0.1404
 9535TIP3    H250021   4.719   5.315  11.732  0.6676  0.8866 -0.4245
 9536TIP3   OH250022   4.342   5.390   0.759 -0.5972 -0.0408  0.8876
 9536TIP3    H150023   4.359   5.336   0.682 -1.9198 -0.1722  0.6685
 9536TIP3    H250024   4.357   5.480   0.730 -0.6290 -0.1263  0.6040
 9537TIP3   OH250025   2.682   1.946  16.659 -0.2040 -0.0914 -0.0753
 9537TIP3    H150026   2.596   1.933  16.701 -0.3178 -0.8159 -0.5165
 9537TIP3    H250027   2.662   1.992  16.578 -0.0287  0.9132  0.4356
 9538TIP3   OH250028   5.583   5.579  15.689  0.7644  0.1499 -0.7734
 9538TIP3    H150029   5.620   5.491  15.703  2.7358  0.7788 -1.6194
 9538TIP3    H250030   5.638   5.617  15.620  0.5029  2.3573  0.1609
 9539TIP3   OH250031   2.680   0.043  12.222  0.0848 -0.2573  0.0961
 9539TIP3    H150032   2.602  -0.012  12.217 -1.0438  1.2901  0.1123
 9539TIP3    H250033   2.656   0.113  12.283  0.7906  1.2960 -1.3503
 9540TIP3   OH250034   4.281   0.716  16.586 -0.1671 -0.6749 -0.0741
 9540TIP3    H150035   4.377   0.716  16.579 -0.0802  0.7001  0.7249
 9540TIP3    H250036   4.251   0.672  16.507  1.0861  0.7788 -1.4296
 9541TIP3   OH250037   6.757   3.755   4.542 -0.0364 -0.4608  0.4184
 9541TIP3    H150038   6.850   3.744   4.566  0.3809  2.7592  0.7368
 9541TIP3    H250039   6.710   3.695   4.601  1.7934 -2.2090  0.2149
 9542TIP3   OH250040   0.577   2.433   3.416  0.3265 -0.0573  0.4923
 9542TIP3    H150041   0.619   2.390   3.342 -0.2914  0.5163 -0.1975
 9542TIP3    H250042   0.572   2.525   3.392 -1.8341 -0.1801  0.2910
 9543TIP3   OH250043   3.612   2.509   2.711  0.0283  0.1240  0.1248
 9543TIP3    H150044   3.623   2.568   2.636  0.2914 -0.2740 -0.1537
 9543TIP3    H250045   3.522   2.477   2.703  0.2763 -0.4535 -0.4207
 9544TIP3   OH250046   1.606   5.404   4.623  0.3778  0.3125  0.0616
 9544TIP3    H150047   1.625   5.336   4.559 -0.9557 -0.1536  0.1196
 9544TIP3    H250048   1.593   5.356   4.706 -0.0697  0.6734  0.2074
 9545TIP3   OH250049   0.243   5.515  14.205 -0.7387 -0.6256 -0.3051
 9545TIP3    H150050   0.219   5.576  14.275 -0.5969 -1.2812  0.3283
 9545TIP3    H250051   0.247   5.569  14.126 -2.6679 -0.1745 -0.1430
 9546TIP3   OH250052   6.730   1.204  12.262 -0.3826  0.2542  0.5781
 9546TIP3    H150053   6.653   1.254  12.237 -0.5187  0.1563  0.7968
 9546TIP3    H250054   6.803   1.250  12.221 -0.6784 -0.4254 -0.7776
 9547TIP3   OH250055   4.620   2.360  11.118 -0.4250 -0.5483  0.7815
 9547TIP3    H150056   4.525   2.367  11.113 -0.7469 -3.4007  1.0536
 9547TIP3    H250057   4.650   2.392  11.033 -1.6726 -0.2037  0.4464
 9548TIP3   OH250058   1.049   3.262  14.684 -0.5758 -0.3349 -0.8872
 9548TIP3    H150059   0.979   3.291  14.743  0.9862  0.8813  0.4990
 9548TIP3    H250060   1.071   3.340  14.633  0.4832 -0.3545 -0.4974
 9549TIP3   OH250061   1.089   4.592  14.354 -0.3609  0.1103  0.2812
 9549TIP3    H150062   1.028   4.605  14.426 -1.6255  1.4009 -0.9639
 9549TIP3    H250063   1.124   4.680  14.337  1.8352 -0.5633  0.8920
 9550TIP3   OH250064   6.460   1.750   2.001  0.2258  0.3670  0.2164
 9550TIP3    H150065   6.428   1.738   1.911  0.2456  0.7998  0.1504
 9550TIP3    H250066   6.405   1.818   2.037  0.2234  0.1981  0.5348
 9551TIP3   OH250067   2.126   0.655  16.894 -0.1370  0.6904 -0.0475
 9551TIP3    H150068   2.157   0.683  16.808 -2.5706 -0.3872 -1.3785
 9551TIP3    H250069   2.102   0.737  16.938  0.2555  1.2067 -0.7619
 9552TIP3   OH250070   2.773   5.838   3.522  0.7595  0.0670  0.0555
 9552TIP3    H150071   2.761   5.910   3.584  0.6565  0.2979 -0.2309
 9552TIP3    H250072   2.867   5.839   3.502  0.7136  0.2970 -0.1566
 9553TIP3   OH250073   1.901   3.816   3.015  0.1307 -0.1865  0.4761
 9553TIP3    H150074   1.921   3.756   3.086 -0.5477 -0.3463  0.5328
 9553TIP3    H250075   1.894   3.760   2.937  1.8125  0.0830  0.0763
 9554TIP3   OH250076   0.566   5.255  13.943 -0.5885 -0.2926  0.4324
 9554TIP3    H150077   0.614   5.186  13.988 -0.3300  0.6189  1.6061
 9554TIP3    H250078   0.568   5.329  14.004 -0.7641  0.7883 -0.8436
 9555TIP3   OH250079   5.561   4.355   2.180 -0.6367  0.3326  0.4178
 9555TIP3    H150080   5.639   4.379   2.129 -0.7858  2.2826  1.0209
 9555TIP3    H250081   5.579   4.387   2.268 -0.6873 -2.3581  1.5066
 9556TIP3   OH250082   6.523   0.395  14.477  0.2648 -0.4807  0.3092
 9556TIP3    H150083   6.501   0.326  14.540 -0.0535 -0.5288  0.1482
 9556TIP3    H250084   6.523   0.350  14.392  2.5245 -0.8303  0.4525
 9557TIP3   OH250085   3.560   6.304   5.515  0.7878 -0.1690 -0.0952
 9557TIP3    H150086   3.563   6.258   5.431  1.4815 -0.3964  0.0491
 9557TIP3    H250087   3.468   6.297   5.542  0.6374 -0.4385 -0.6405
 9558TIP3   OH250088   5.422   2.183  12.295 -0.1552 -0.1717  0.7061
 9558TIP3    H150089   5.409   2.122  12.368 -0.1271  0.3034  1.1083
 9558TIP3    H250090   5.387   2.136  12.219 -3.5801  0.7356  1.5669
 9559TIP3   OH250091   1.332   2.722  14.138 -0.1637 -0.5885 -0.2068
 9559TIP3    H150092   1.404   2.747  14.195  0.7234 -1.8978 -0.7150
 9559TIP3    H250093   1.307   2.803  14.093  2.0550 -0.3943 -1.1962
 9560TIP3   OH250094   6.753   5.251   5.223  0.3907 -0.1913  0.0471
 9560TIP3    H150095   6.728   5.261   5.131 -1.6880 -1.9205  0.3343
 9560TIP3    H250096   6.747   5.157   5.239  0.2479  0.1235  2.0703
 9561TIP3   OH250097   6.784   1.215   3.117 -0.3651  0.3907  0.2894
 9561TIP3    H150098   6.703   1.196   3.163  0.2761 -2.1021  0.5243
 9561TIP3    H250099   6.756   1.259   3.036 -2.3007 -2.9473 -1.0554
 9562TIP3   OH250100   2.556   2.625  12.877  0.3939 -0.2236  0.0620
 9562TIP3    H150101   2.589   2.572  12.804 -0.4941  0.5629 -0.9532
 9562TIP3    H250102   2.486   2.678  12.838  1.2686  1.7356  0.9941
 9563TIP3   OH250103   3.243   5.253  14.906  0.5167 -0.2388 -0.1727
 9563TIP3    H150104   3.321   5.197  14.901  0.5602 -0.1407 -0.5833
 9563TIP3    H250105   3.212   5.241  14.996 -1.0365 -3.0460 -0.9749
 9564TIP3   OH250106   2.965   5.601   5.250 -0.5891 -0.2006  0.1492
 9564TIP3    H150107   2.921   5.577   5.332 -0.9543 -0.4011 -0.0999
 9564TIP3    H250108   2.894   5.634   5.194 -0.5357 -1.1125 -0.4789
 9565TIP3   OH250109   3.017   3.721   3.370  0.4739  0.5240 -0.6415
 9565TIP3    H150110   3.031   3.641   3.320 -0.3945  0.0567 -0.1539
 9565TIP3    H250111   3.088   3.723   3.434  0.4569  0.1077 -0.6081
 9566TIP3   OH250112   1.665   5.771  15.868  0.1443 -0.8894 -0.3408
 9566TIP3    H150113   1.637   5.830  15.798  0.9048 -1.5600 -1.2366
 9566TIP3    H250114   1.760   5.764  15.857  0.6908  0.8730  2.2291
 9567TIP3   OH250115   5.296   2.626  11.685 -0.1033 -0.1415  0.1958
 9567TIP3    H150116   5.329   2.591  11.767 -0.3983 -0.2386  0.2736
 9567TIP3    H250117   5.206   2.595  11.680 -0.5358  1.0168  0.5036
 9568TIP3   OH250118   5.814   4.595  13.550  0.6533 -0.4653  0.2450
 9568TIP3    H150119   5.859   4.517  13.582  0.1616 -0.7623  0.2248
 9568TIP3    H250120   5.841   4.665  13.610  3.2093 -0.0346 -1.2756
 9569TIP3   OH250121   0.660   5.440  11.994 -0.3235  0.4316 -0.1757
 9569TIP3    H150122   0.607   5.470  12.068  0.0821  0.4186  0.1258
 9569TIP3    H250123   0.706   5.518  11.965  0.4551  0.1920  0.3769
 9570TIP3   OH250124   2.807   2.800   0.763  0.0276 -0.4635 -0.6664
 9570TIP3    H150125   2.820   2.841   0.677 -0.2622  0.3779 -0.3182
 9570TIP3    H250126   2.822   2.707   0.747 -0.3613 -0.3681 -1.7099
 9571TIP3   OH250127   0.739   6.283   4.888 -0.4037  0.0525  0.5839
 9571TIP3    H150128   0.790   6.211   4.926 -0.6740 -2.5753 -3.3913
 9571TIP3    H250129   0.659   6.285   4.939  0.5091 -0.9716  2.1450
 9572TIP3   OH250130   3.604   3.158   0.812  0.2144 -0.5605 -0.6933
 9572TIP3    H150131   3.556   3.080   0.841  0.0084  0.0827  0.7785
 9572TIP3    H250132   3.696   3.136   0.826  0.1228 -0.2958  0.4277
 9573TIP3   OH250133   2.529   5.777   3.627 -0.3050 -0.0727 -0.2840
 9573TIP3    H150134   2.455   5.791   3.567 -0.5065 -0.0729 -0.0377
 9573TIP3    H250135   2.603   5.820   3.585 -0.6596  0.7507 -0.0791
 9574TIP3   OH250136   6.136   0.071   2.099  0.1027  0.1142 -0.1118
 9574TIP3    H150137   6.195   0.080   2.173  2.0169 -0.3827 -1.4937
 9574TIP3    H250138   6.048   0.082   2.136  1.0394  0.8963  2.0180
 9575TIP3   OH250139   1.383   6.192  16.904  0.0508 -0.2975  0.2268
 9575TIP3    H150140   1.426   6.125  16.852 -2.3747  0.0607 -2.5155
 9575TIP3    H250141   1.419   6.275  16.871  0.2733 -0.1079  0.9187
 9576TIP3   OH250142   0.147   0.206   0.130  0.1744 -0.4150 -0.1055
 9576TIP3    H150143   0.136   0.274   0.063  0.5719 -1.2030 -0.9900
 9576TIP3    H250144   0.111   0.127   0.090  1.0573 -1.0530  0.3370
 9577TIP3   OH250145   6.214   6.500  12.269  0.6447 -0.2850 -0.3012
 9577TIP3    H150146   6.251   6.467  12.187  3.4884  1.2830  0.2298
 9577TIP3    H250147   6.252   6.444  12.337  2.5302  1.5833  0.2872
 9578TIP3   OH250148   6.321   5.209   2.365 -0.2156  0.5257  0.2530
 9578TIP3    H150149   6.411   5.237   2.381 -0.2452  2.6074 -2.4727
 9578TIP3    H250150   6.328   5.144   2.295 -0.8361  1.6764 -0.9273
 9579TIP3   OH250151   5.802   0.551  16.023  0.8674 -0.1676 -0.1333
 9579TIP3    H150152   5.742   0.619  15.991 -0.3621 -0.4447  1.5078
 9579TIP3    H250153   5.747   0.475  16.039  1.7008 -0.5533  1.0470
 9580TIP3   OH250154   0.051   4.578   3.591  0.6666  0.0723 -0.0088
 9580TIP3    H150155   0.132   4.588   3.541  0.7993 -0.7323  0.0298
 9580TIP3    H250156   0.043   4.484   3.604 -0.2579  0.1521  0.0268
 9581TIP3   OH250157   3.440   3.184  13.519 -0.3129  0.0045  0.3735
 9581TIP3    H150158   3.390   3.121  13.467 -0.1105  0.0946  0.0703
 9581TIP3    H250159   3.374   3.231  13.570 -0.7063  1.2726 -1.2328
 9582TIP3   OH250160   2.879   2.039   1.657  0.5511 -0.4137  0.4535
 9582TIP3    H150161   2.806   2.101   1.650 -0.3561 -1.3014  1.5792
 9582TIP3    H250162   2.850   1.975   1.722  1.1638 -2.4139 -1.1353
 9583TIP3   OH250163   1.285   2.252   5.266 -0.5910 -0.5789  0.3746
 9583TIP3    H150164   1.196   2.219   5.277 -1.5160  1.9214  1.1077
 9583TIP3    H250165   1.274   2.347   5.258  2.0721 -0.1161  1.2916
 9584TIP3   OH250166   3.382   1.925   2.163  0.5559 -0.3001  0.0603
 9584TIP3    H150167   3.381   1.851   2.223  0.5334 -1.1192 -0.9311
 9584TIP3    H250168   3.427   1.892   2.085  1.6913  1.1093  0.0751
 9585TIP3   OH250169   2.280   5.332   3.070  0.1362  0.3176  0.5897
 9585TIP3    H150170   2.372   5.317   3.052  0.1560  0.7420  0.3202
 9585TIP3    H250171   2.233   5.274   3.011  0.2068  1.3585 -0.5231
 9586TIP3   OH250172   0.424   4.015   6.135 -0.0137  0.6887  0.3265
 9586TIP3    H150173   0.471   4.097   6.150 -0.2454  0.3511  3.7001
 9586TIP3    H250174   0.342   4.025   6.184 -0.8257 -0.9165 -0.6172
 9587TIP3   OH250175   2.813   4.972  16.312 -0.0576  0.9459 -0.0059
 9587TIP3    H150176   2.843   4.932  16.394  0.6377 -0.0977 -0.7588
 9587TIP3    H250177   2.754   5.042  16.341 -0.7573 -0.1539  1.3529
 9588TIP3   OH250178   5.245   4.808  13.738 -0.3684  0.2685  0.2497
 9588TIP3    H150179   5.308   4.743  13.707  0.4145  0.7360  0.8175
 9588TIP3    H250180   5.292   4.855  13.807 -1.8238 -0.2727  1.6596
 9589TIP3   OH250181   6.008   6.579   6.134 -0.3473 -0.0061 -0.0471
 9589TIP3    H150182   5.984   6.671   6.130  1.6192  0.6657  1.7928
 9589TIP3    H250183   5.987   6.552   6.223  0.8211 -0.7791  0.0223
 9590TIP3   OH250184   4.660   4.165  14.173 -0.0625  0.3510 -0.5782
 9590TIP3    H150185   4.677   4.124  14.258  1.5929  2.0092 -0.0291
 9590TIP3    H250186   4.636   4.092  14.116  0.2877 -1.0171  0.9277
 9591TIP3   OH250187   3.384   2.354   4.619 -0.5784  0.4573 -0.1054
 9591TIP3    H150188   3.362   2.444   4.596  0.4949  0.8258  0.2270
 9591TIP3    H250189   3.370   2.349   4.713 -3.2920 -0.5508 -0.4783
 9592TIP3   OH250190   3.943   2.288  16.467 -0.0752 -0.1109 -0.2000
 9592TIP3    H150191   3.966   2.294  16.374  1.4508 -1.4219  0.0617
 9592TIP3    H250192   3.928   2.195  16.482  2.1610 -0.2891  1.3843
 9593TIP3   OH250193   6.250   4.801   2.827  0.0181  0.2023  0.6320
 9593TIP3    H150194   6.258   4.862   2.901  2.6482  0.1883  0.4700
 9593TIP3    H250195   6.332   4.752   2.828 -1.3797 -2.3553 -0.1519
 9594TIP3   OH250196   2.091   5.633  14.625 -0.3727 -0.1653 -0.1551
 9594TIP3    H150197   2.047   5.603  14.546 -0.7803  0.8630 -0.3343
 9594TIP3    H250198   2.031   5.696  14.663  0.1778 -0.0533  0.5511
 9595TIP3   OH250199   2.948   2.410   1.793 -0.2237  0.3803  0.1135
 9595TIP3    H150200   2.935   2.504   1.783 -0.1761  0.2801 -1.0529
 9595TIP3    H250201   3.034   2.401   1.834 -0.9207  0.8679  1.7832
 9596TIP3   OH250202   2.493   6.777  16.307  0.4523  0.2800  0.5184
 9596TIP3    H150203   2.418   6.794  16.250  0.1600  1.7028  1.2774
 9596TIP3    H250204   2.569   6.794  16.251  0.2426 -1.2562 -0.2808
 9597TIP3   OH250205   6.392   5.416   6.701  0.1680  0.6676  0.1582
 9597TIP3    H150206   6.397   5.464   6.619 -0.9397  2.7110  1.2145
 9597TIP3    H250207   6.415   5.325   6.678  2.6669  1.6949 -1.8673
 9598TIP3   OH250208   1.861   1.439  11.522 -0.2691  0.0446 -0.9877
 9598TIP3    H150209   1.832   1.372  11.583 -0.5596  1.9576  1.1249
 9598TIP3    H250210   1.788   1.501  11.518  0.7895  1.3467 -1.1014
 9599TIP3   OH250211   4.613   6.105   0.532  0.5388  0.7032 -0.5561
 9599TIP3    H150212   4.628   6.199   0.543  2.5265  0.3260  0.2584
 9599TIP3    H250213   4.592   6.073   0.620  1.0111  0.2083 -0.6175
 9600TIP3   OH250214   3.194   3.895  12.383 -0.3142  0.3148  0.1123
 9600TIP3    H150215   3.232   3.962  12.440  0.1188  0.2151 -0.0586
 9600TIP3    H250216   3.117   3.938  12.344  0.2922  0.9127 -0.4471
 9601TIP3   OH250217   2.180   4.546  11.006  0.4822 -0.0267 -0.1776
 9601TIP3    H150218   2.215   4.473  10.954 -0.5323 -0.1930 -0.6508
 9601TIP3    H250219   2.118   4.589  10.948 -0.6222 -0.1591  0.8573
 9602TIP3   OH250220   4.789   3.891  16.615 -0.0042 -0.0266  0.3107
 9602TIP3    H150221   4.831   3.944  16.682 -0.3201 -0.6621  1.0253
 9602TIP3    H250222   4.839   3.908  16.535  0.9320  0.0519  0.9027
 9603TIP3   OH250223   1.711   5.136   1.537  0.2115 -0.8613  0.2364
 9603TIP3    H150224   1.763   5.058   1.553 -0.5270 -1.1702  1.2387
 9603TIP3    H250225   1.698   5.174   1.624  0.0995  0.0804 -0.1797
 9604TIP3   OH250226   4.824   0.352  15.390  0.1812  0.2866  0.4265
 9604TIP3    H150227   4.747   0.362  15.335 -0.8857  2.4974  2.1382
 9604TIP3    H250228   4.865   0.270  15.361 -1.0207  0.6526 -2.6460
 9605TIP3   OH250229   4.091   6.763   5.222 -0.1606  0.1252 -0.0858
 9605TIP3    H150230   4.144   6.687   5.199 -0.2071  0.2937 -0.7838
 9605TIP3    H250231   4.072   6.752   5.315  1.4152  0.2705  0.2724
 9606TIP3   OH250232   6.115   3.718  13.403  0.4137  0.6705 -0.0005
 9606TIP3    H150233   6.059   3.673  13.467 -0.3252  0.2343 -0.9224
 9606TIP3    H250234   6.202   3.681  13.417  0.0228 -0.2939 -0.0279
 9607TIP3   OH250235   2.975   5.507  12.557  0.0960 -0.0177 -0.0920
 9607TIP3    H150236   2.950   5.510  12.649  2.0885 -1.3078  0.5395
 9607TIP3    H250237   2.936   5.426  12.523  1.2810 -0.7467  0.2480
 9608TIP3   OH250238   6.191   2.626  15.505  0.1542 -0.2453  0.1287
 9608TIP3    H150239   6.275   2.591  15.533  1.4772  2.3801 -0.2878
 9608TIP3    H250240   6.185   2.712  15.545 -2.7012 -0.5796  0.6892
 9609TIP3   OH250241   3.500   2.402  11.900 -0.2131  0.3375  0.0243
 9609TIP3    H150242   3.543   2.317  11.911  1.5495  1.3055  1.1682
 9609TIP3    H250243   3.532   2.434  11.816 -0.4208  0.1182 -0.1391
 9610TIP3   OH250244   1.041   1.711   4.822  0.4647  0.0074 -0.7441
 9610TIP3    H150245   1.044   1.800   4.787 -1.6518  0.0007 -1.0245
 9610TIP3    H250246   1.037   1.723   4.917 -1.2992  0.3000 -0.8276
 9611TIP3   OH250247   0.973   1.000  14.236 -0.3391  0.1888 -0.0371
 9611TIP3    H150248   1.022   1.080  14.253 -1.8046  1.0265  0.4704
 9611TIP3    H250249   0.938   0.975  14.322 -2.9637  1.1491 -0.7140
 9612TIP3   OH250250   4.342   1.829   5.338  0.6840 -0.5123 -0.5483
 9612TIP3    H150251   4.360   1.745   5.381  1.8270  0.6648  1.4244
 9612TIP3    H250252   4.418   1.845   5.283 -0.5768 -1.8000 -2.8261
 9613TIP3   OH250253   3.194   5.593  13.755 -0.2640  0.1714 -0.1860
 9613TIP3    H150254   3.203   5.503  13.723  0.6431 -0.1793  0.9710
 9613TIP3    H250255   3.171   5.643  13.678 -1.6212 -1.1737 -0.7063
 9614TIP3   OH250256   2.962   0.601  14.671 -0.0629  0.4622 -0.0653
 9614TIP3    H150257   3.041   0.614  14.723 -0.8742  1.4404  0.9601
 9614TIP3    H250258   2.994   0.580  14.583  1.3279  0.8551  0.3270
 9615TIP3   OH250259   2.661   4.347   1.506 -0.0423  0.0971  0.0106
 9615TIP3    H150260   2.694   4.325   1.593 -0.1871 -0.3629 -0.0480
 9615TIP3    H250261   2.735   4.335   1.447 -0.0334  0.0827  0.0249
 9616TIP3   OH250262   4.233   1.941   4.108  0.2126  0.2514  0.1707
 9616TIP3    H150263   4.298   2.002   4.143  0.9392 -0.3200 -0.1440
 9616TIP3    H250264   4.285   1.871   4.068 -0.5392  1.1091 -2.5656
 9617TIP3   OH250265   5.387   6.143   0.457 -0.3779  0.6074 -0.9310
 9617TIP3    H150266   5.310   6.090   0.474  1.0522 -1.0355  1.0656
 9617TIP3    H250267   5.366   6.229   0.492 -1.0164 -0.0799  0.4347
 9618TIP3   OH250268   6.576   2.080   1.860  0.1270  0.1644  0.4525
 9618TIP3    H150269   6.651   2.032   1.827 -0.3322 -0.6458  0.5719
 9618TIP3    H250270   6.529   2.109   1.782 -0.5002 -1.0246  0.3736
 9619TIP3   OH250271   4.700   5.849  12.883 -0.0848 -0.3593 -0.1287
 9619TIP3    H150272   4.697   5.820  12.792 -0.9706 -0.4454 -0.0753
 9619TIP3    H250273   4.690   5.944  12.878 -1.8668 -0.5234 -0.0276
 9620TIP3   OH250274   5.649   3.606   0.636  0.2339  0.0407  0.4101
 9620TIP3    H150275   5.579   3.633   0.695 -0.6811 -2.2277  0.4607
 9620TIP3    H250276   5.692   3.533   0.680  0.5658 -0.6635 -1.0043
 9621TIP3   OH250277   0.408   3.404  16.361 -0.6675 -0.0101 -0.9077
 9621TIP3    H150278   0.417   3.408  16.265 -2.0573 -2.4407 -1.2213
 9621TIP3    H250279   0.315   3.419  16.377 -0.4650  0.2628  0.0572
 9622TIP3   OH250280   5.279   5.215  15.038  0.3183 -0.2350  0.3819
 9622TIP3    H150281   5.235   5.131  15.049  0.6090 -0.1870  2.1633
 9622TIP3    H250282   5.352   5.212  15.100 -0.3670  1.7845  1.3497
 9623TIP3   OH250283   1.327   3.305  14.816 -0.7741 -0.2550  0.0046
 9623TIP3    H150284   1.369   3.388  14.792 -1.4665 -0.3609 -1.7319
 9623TIP3    H250285   1.243   3.307  14.771 -1.2583 -1.4510  0.8101
 9624TIP3   OH250286   1.849   1.964  13.164 -0.2339 -0.1783 -0.0908
 9624TIP3    H150287   1.787   2.036  13.154  1.4848  1.4327  0.2385
 9624TIP3    H250288   1.812   1.893  13.112 -3.2672  0.0238  1.6109
 9625TIP3   OH250289   5.358   3.600  14.947  0.0085  0.2776 -0.2988
 9625TIP3    H150290   5.433   3.653  14.971  0.7515 -0.3843 -1.0814
 9625TIP3    H250291   5.344   3.542  15.022 -1.0762  1.7918  0.7486
 9626TIP3   OH250292   2.532   4.514   2.171 -0.0740 -0.2237 -0.6058
 9626TIP3    H150293   2.562   4.593   2.126 -2.7707  0.2588 -1.7111
 9626TIP3    H250294   2.439   4.527   2.184 -0.2224 -2.3774  1.0443
 9627TIP3   OH250295   2.645   6.051   3.227  0.4320  0.0374 -0.0616
 9627TIP3    H150296   2.666   6.140   3.199  0.8629 -0.0613 -0.0576
 9627TIP3    H250297   2.708   6.031   3.296  0.7470 -0.4909 -0.4835
 9628TIP3   OH250298   0.654   1.363   1.330 -0.1266  0.1438  0.0017
 9628TIP3    H150299   0.707   1.328   1.402 -0.5184 -0.5732 -0.0470
 9628TIP3    H250300   0.654   1.458   1.344  0.6417  0.0948  0.3607
 9629TIP3   OH250301   5.403   2.582   1.733  0.1605 -0.8224  0.0241
 9629TIP3    H150302   5.398   2.489   1.710 -0.4827 -0.3972 -1.7063
 9629TIP3    H250303   5.496   2.604   1.725  0.2925 -1.2635  0.2883
 9630TIP3   OH250304   1.546   1.694  14.085 -0.0789  0.4287  0.0454
 9630TIP3    H150305   1.519   1.707  13.994  1.3889 -0.3068 -0.5331
 9630TIP3    H250306   1.567   1.782  14.116  0.2035  0.6052 -0.6150
 9631TIP3   OH250307   1.905   4.953  16.358 -0.1673 -0.5285 -0.3118
 9631TIP3    H150308   1.944   4.929  16.274 -0.1758  2.7276 -1.4132
 9631TIP3    H250309   1.977   4.946  16.421  0.7230  0.0441 -1.2344
 9632TIP3   OH250310   0.809   2.769  14.955 -0.0092  0.2796 -0.1595
 9632TIP3    H150311   0.755   2.697  14.921 -0.8191  0.6577  0.3085
 9632TIP3    H250312   0.807   2.835  14.886  1.2554 -0.3752 -0.8669
 9633TIP3   OH250313   0.073   3.561  15.182 -0.5997  0.1395  0.3177
 9633TIP3    H150314  -0.003   3.547  15.125  0.3684  1.3037 -1.3132
 9633TIP3    H250315   0.049   3.636  15.235 -1.9211 -1.5554  2.2959
 9634TIP3   OH250316   2.839   4.396  16.161 -0.4447 -0.2019 -0.2051
 9634TIP3    H150317   2.851   4.310  16.119  1.0376 -0.4098  0.5948
 9634TIP3    H250318   2.744   4.404  16.170 -0.6663 -1.3307 -1.1574
 9635TIP3   OH250319   4.960   0.852  14.396  0.2682  0.0257 -0.6282
 9635TIP3    H150320   4.878   0.868  14.443  0.4902  0.1525 -0.2832
 9635TIP3    H250321   4.934   0.799  14.320  0.0339 -0.9237  0.1033
 9636TIP3   OH250322   2.905   2.916   1.016 -0.2217  0.5159  0.4164
 9636TIP3    H150323   2.849   2.856   1.066 -0.4871  1.2597  1.0268
 9636TIP3    H250324   2.901   2.883   0.926  1.4244 -1.7311  1.0868
 9637TIP3   OH250325   3.836   5.144  15.667 -0.1930  0.3870  0.0578
 9637TIP3    H150326   3.887   5.225  15.659  0.4337 -0.1748 -2.4097
 9637TIP3    H250327   3.885   5.090  15.728  0.3294  1.1758  0.3534
 9638TIP3   OH250328   0.512   2.487   2.282  0.4257 -0.0937 -0.5419
 9638TIP3    H150329   0.505   2.539   2.201  0.0734 -0.3853 -0.7053
 9638TIP3    H250330   0.499   2.550   2.352 -0.7257 -0.0653 -0.7587
 9639TIP3   OH250331   4.289   4.829   1.991  0.7434 -0.0706  0.0102
 9639TIP3    H150332   4.217   4.768   2.007 -0.1964  1.0977  0.3784
 9639TIP3    H250333   4.247   4.906   1.952  1.9521  0.1990 -0.8292
 9640TIP3   OH250334   1.864   5.663  17.044  0.3299  0.4832 -0.5806
 9640TIP3    H150335   1.936   5.606  17.071  0.1170  0.8359  0.8456
 9640TIP3    H250336   1.814   5.612  16.981  0.3537 -0.7805  0.4003
 9641TIP3   OH250337   4.571   6.718  11.323  0.5482 -0.0802 -0.6587
 9641TIP3    H150338   4.569   6.785  11.255  2.1589 -1.3434 -2.0265
 9641TIP3    H250339   4.661   6.686  11.323  0.8354  0.3651  2.6273
 9642TIP3   OH250340   1.779   4.255   2.687 -0.4750  0.7595 -0.3138
 9642TIP3    H150341   1.747   4.271   2.776 -0.0557  1.5020 -0.2904
 9642TIP3    H250342   1.709   4.287   2.630 -1.3120 -0.8852 -0.2726
 9643TIP3   OH250343   6.768   1.105  15.980  0.2479  0.5742 -0.5475
 9643TIP3    H150344   6.731   1.076  15.896 -1.5961 -0.5201  0.5933
 9643TIP3    H250345   6.703   1.163  16.017  2.0753  2.9763 -0.8550
 9644TIP3   OH250346   4.670   5.306   3.741 -0.4545  0.2177 -0.2212
 9644TIP3    H150347   4.739   5.309   3.807 -0.1076  2.2162 -0.6166
 9644TIP3    H250348   4.632   5.219   3.750  1.1489 -0.4052  0.9922
 9645TIP3   OH250349   0.423   5.287   3.310 -0.5543  0.2290  0.0418
 9645TIP3    H150350   0.508   5.272   3.352 -0.7799  0.5782  0.6347
 9645TIP3    H250351   0.444   5.341   3.233 -0.1532 -0.3231 -0.2447
 9646TIP3   OH250352   6.228   6.808   3.671  0.0158  0.2148 -0.4576
 9646TIP3    H150353   6.207   6.839   3.583  0.3056 -0.5931 -0.8244
 9646TIP3    H250354   6.180   6.866   3.730 -1.8788 -0.4995 -1.2099
 9647TIP3   OH250355   0.702   4.137   0.766 -0.6743  0.3409  0.2580
 9647TIP3    H150356   0.739   4.142   0.678 -0.2823  0.2492  0.4167
 9647TIP3    H250357   0.673   4.046   0.775  0.2050  0.0863  0.5894
 9648TIP3   OH250358   4.769   6.588  13.440  0.2340 -1.3716 -0.1631
 9648TIP3    H150359   4.771   6.565  13.348 -0.9642 -0.8574 -0.3382
 9648TIP3    H250360   4.693   6.646  13.449  0.4025 -1.3097  1.1166
 9649TIP3   OH250361   2.086   5.244  12.778  0.3092  0.3241  0.1284
 9649TIP3    H150362   2.067   5.334  12.752 -0.2263  1.0724  2.8263
 9649TIP3    H250363   2.001   5.208  12.803  0.5926 -0.7929 -0.4421
 9650TIP3   OH250364   0.407   4.814  13.966 -0.2401 -0.8512  0.0755
 9650TIP3    H150365   0.353   4.893  13.971  0.6542 -0.2071 -0.0839
 9650TIP3    H250366   0.391   4.779  13.879  1.0991  0.4861 -0.7757
 9651TIP3   OH250367   1.040   3.574  16.241  0.2784 -0.3914 -0.0600
 9651TIP3    H150368   1.022   3.563  16.148  0.5967  1.6369 -0.4147
 9651TIP3    H250369   1.113   3.515  16.259  1.0116  0.0700 -1.4070
 9652TIP3   OH250370   3.426   5.838  15.620 -0.1395  0.1289  0.1557
 9652TIP3    H150371   3.418   5.760  15.675 -2.2555 -0.3832 -0.7524
 9652TIP3    H250372   3.367   5.901  15.659  0.1982  0.6358 -0.1446
 9653TIP3   OH250373   1.909   0.352  15.713 -0.1764 -0.0209 -0.2157
 9653TIP3    H150374   1.939   0.354  15.622  0.2760 -0.4451 -0.0793
 9653TIP3    H250375   1.824   0.395  15.711  0.1321  0.5828 -0.7270
 9654TIP3   OH250376   4.074   0.676   3.711  0.6691  0.4027 -0.0530
 9654TIP3    H150377   4.081   0.698   3.619 -0.8704  0.0566 -0.2850
 9654TIP3    H250378   4.160   0.643   3.735  0.5399 -1.4918 -1.9309
 9655TIP3   OH250379   2.975   4.839  12.041  0.0863 -0.3248  0.2852
 9655TIP3    H150380   3.021   4.850  12.125  0.0993  0.0553  0.2310
 9655TIP3    H250381   2.952   4.746  12.038 -1.1274 -0.0995  1.3479
 9656TIP3   OH250382   4.826   4.459  13.590 -0.5300  0.0269 -0.3444
 9656TIP3    H150383   4.879   4.538  13.581 -0.2455 -0.0825  0.3422
 9656TIP3    H250384   4.736   4.488  13.576 -0.5373  0.6755  0.9554
 9657TIP3   OH250385   2.359   6.761   5.846  0.3699  0.3371  0.2584
 9657TIP3    H150386   2.382   6.839   5.795 -1.5814 -0.2198 -1.6272
 9657TIP3    H250387   2.266   6.747   5.828  0.5194 -2.0829  1.0042
 9658TIP3   OH250388   0.797   2.850   4.829  0.1441 -0.2410  0.0125
 9658TIP3    H150389   0.773   2.772   4.778  0.9233  0.7758 -2.0254
 9658TIP3    H250390   0.892   2.857   4.817  0.6372 -0.7612  2.8872
 9659TIP3   OH250391   3.884   5.770  11.140  0.0418  0.5810 -0.0783
 9659TIP3    H150392   3.945   5.812  11.201 -1.2994  0.9256  1.0772
 9659TIP3    H250393   3.915   5.679  11.135  1.5187  1.0835 -0.6912
 9660TIP3   OH250394   3.698   0.542   3.664  0.1550 -0.3731 -0.2975
 9660TIP3    H150395   3.752   0.523   3.741  0.5407 -0.8374 -0.6784
 9660TIP3    H250396   3.648   0.461   3.650 -1.3650  0.3497  0.6144
 9661TIP3   OH250397   0.202   3.375  14.517 -0.2960 -0.3321 -0.2112
 9661TIP3    H150398   0.216   3.411  14.429 -0.3815  0.7402  0.1961
 9661TIP3    H250399   0.150   3.441  14.562  0.2712 -0.5763  0.8450
 9662TIP3   OH250400   0.542   0.845  14.709  0.0894  0.3695 -0.0865
 9662TIP3    H150401   0.579   0.873  14.625 -0.0715 -1.6409 -0.8987
 9662TIP3    H250402   0.478   0.912  14.731  0.1579  0.9590 -1.5563
 9663TIP3   OH250403   6.786   3.177   3.928  0.3295  0.2333 -0.1141
 9663TIP3    H150404   6.873   3.159   3.964 -0.2745 -1.8689  0.3913
 9663TIP3    H250405   6.731   3.193   4.004 -0.1206 -0.3388 -0.3120
 9664TIP3   OH250406   2.789   2.500  12.405 -0.2124  0.1971 -0.0500
 9664TIP3    H150407   2.838   2.421  12.382  0.6892  0.6922  0.1008
 9664TIP3    H250408   2.724   2.509  12.336 -1.2811 -1.4557  0.6938
 9665TIP3   OH250409   2.039   1.022  11.666 -0.2812 -0.6639 -0.2047
 9665TIP3    H150410   2.092   1.035  11.745 -1.1801  0.8948  0.1636
 9665TIP3    H250411   2.102   1.029  11.594  0.3087 -0.6717  0.2982
 9666TIP3   OH250412   6.662   1.720   3.082 -0.0758 -0.2248  0.2936
 9666TIP3    H150413   6.655   1.627   3.060 -0.1895 -0.3303  0.7756
 9666TIP3    H250414   6.572   1.746   3.103 -0.3306  0.3868 -1.3765
 9667TIP3   OH250415   2.571   0.715   4.625  0.3762 -0.5958 -0.0679
 9667TIP3    H150416   2.618   0.679   4.550 -0.4336  0.1083 -0.9400
 9667TIP3    H250417   2.494   0.758   4.587  0.8133  1.2292  0.9994
 9668TIP3   OH250418   6.066   6.303   1.103 -0.3672 -0.0529 -0.1165
 9668TIP3    H150419   5.974   6.323   1.087 -0.4934 -0.1322  0.4820
 9668TIP3    H250420   6.074   6.209   1.086 -0.9825 -0.6086  2.2843
 9669TIP3   OH250421   6.421   4.991   0.056  0.0798  0.3354  0.4736
 9669TIP3    H150422   6.482   4.921   0.081  0.2116  0.5110  0.6473
 9669TIP3    H250423   6.432   4.999  -0.039 -0.2438 -0.1661  0.3890
 9670TIP3   OH250424   0.579   4.027   3.044  0.5006 -0.2065  0.8016
 9670TIP3    H150425   0.550   3.995   3.130 -1.1514  0.9179  0.6949
 9670TIP3    H250426   0.595   3.947   2.993  3.2033 -0.9552  2.6137
 9671TIP3   OH250427   5.749   3.300   4.024 -0.1555 -0.0535 -0.0675
 9671TIP3    H150428   5.684   3.356   4.066 -1.1654 -0.8445 -0.5509
 9671TIP3    H250429   5.825   3.305   4.081 -0.4911  1.1781  0.3167
 9672TIP3   OH250430   1.095   6.638   6.493  0.1520  0.3561 -0.3486
 9672TIP3    H150431   1.038   6.713   6.505 -0.2492  0.2615 -1.4867
 9672TIP3    H250432   1.040   6.562   6.513  0.2098  0.3140 -0.3466
 9673TIP3   OH250433   5.312   3.671   3.516  0.1346  0.3577  0.4520
 9673TIP3    H150434   5.301   3.737   3.448  1.3716  0.2443  0.1209
 9673TIP3    H250435   5.403   3.680   3.544 -0.0116 -0.4261  1.2300
 9674TIP3   OH250436   0.858   5.534  11.656 -0.0828 -0.0892  0.4878
 9674TIP3    H150437   0.776   5.484  11.665  0.0342 -0.2855  0.4530
 9674TIP3    H250438   0.863   5.586  11.736 -0.5838  0.4315  0.1917
 9675TIP3   OH250439   5.131   1.394  14.247 -0.1258  0.4274  0.0081
 9675TIP3    H150440   5.092   1.382  14.334 -0.2423  0.0570 -0.0963
 9675TIP3    H250441   5.224   1.378  14.261 -0.0004  1.2836  0.2515
 9676TIP3   OH250442   3.136   3.628   1.111 -0.2874 -0.3622 -0.0593
 9676TIP3    H150443   3.119   3.550   1.163 -0.0613 -0.2737  0.1489
 9676TIP3    H250444   3.135   3.597   1.020 -0.7535 -0.5040 -0.0105
 9677TIP3   OH250445   0.017   5.848   5.438 -0.2745 -0.4116 -0.1209
 9677TIP3    H150446   0.056   5.879   5.357  0.5611  0.1671  0.4805
 9677TIP3    H250447  -0.055   5.791   5.411 -0.0928 -0.1135 -1.2534
 9678TIP3   OH250448   3.033   0.938   2.105 -1.1667 -0.1057 -0.1106
 9678TIP3    H150449   2.975   0.894   2.168 -0.1017 -0.2860  0.7645
 9678TIP3    H250450   2.982   1.012   2.073 -1.6112  0.1781  1.2134
 9679TIP3   OH250451   6.169   2.224  15.081  0.2660  0.1050  0.0230
 9679TIP3    H150452   6.103   2.203  15.014  1.2233  1.1512 -1.2881
 9679TIP3    H250453   6.185   2.141  15.125  1.0706 -1.1292 -2.4014
 9680TIP3   OH250454   4.135   2.461   1.006  0.5829  0.6843 -0.0480
 9680TIP3    H150455   4.109   2.466   1.098  0.2310  3.4474 -0.2192
 9680TIP3    H250456   4.058   2.425   0.961  0.2434  0.6391  0.5648
 9681TIP3   OH250457   2.427   4.841   2.212  0.3655 -0.5018  0.2123
 9681TIP3    H150458   2.378   4.862   2.291 -1.5189  2.3417 -1.5610
 9681TIP3    H250459   2.518   4.835   2.242 -0.3067  0.0936  2.6326
 9682TIP3   OH250460   2.880   5.132  12.926 -0.0135  0.0991 -0.4492
 9682TIP3    H150461   2.842   5.149  12.840  0.8716 -2.1731 -1.3898
 9682TIP3    H250462   2.806   5.104  12.979 -0.1526 -1.9718 -1.5821
 9683TIP3   OH250463   0.076   1.446  13.531  0.4586 -0.3431 -0.1509
 9683TIP3    H150464   0.017   1.370  13.537  0.5224 -0.3658  0.2266
 9683TIP3    H250465   0.021   1.516  13.496 -0.4160  0.2466  2.2066
 9684TIP3   OH250466   4.579   6.398   1.582  0.0803  0.3397  0.0854
 9684TIP3    H150467   4.514   6.373   1.647  0.2907 -0.6243 -0.0620
 9684TIP3    H250468   4.529   6.435   1.509 -0.4852 -2.1028 -0.8348
 9685TIP3   OH250469   4.539   2.427   3.198  0.3018  0.1495  0.1584
 9685TIP3    H150470   4.493   2.479   3.264  1.3188 -1.0072  1.8541
 9685TIP3    H250471   4.502   2.339   3.208 -0.4943  0.1953 -1.7993
 9686TIP3   OH250472   4.547   1.383  12.776 -0.4225  0.0649  0.3398
 9686TIP3    H150473   4.469   1.393  12.830 -1.4576  1.3626 -1.3062
 9686TIP3    H250474   4.583   1.471  12.770  0.1186 -0.2027 -0.4592
 9687TIP3   OH250475   1.114   4.970  12.478  0.6950  0.2271  0.4323
 9687TIP3    H150476   1.166   5.040  12.439 -0.9784  0.8566 -0.7536
 9687TIP3    H250477   1.179   4.903  12.502  2.0888  1.2001 -0.4704
 9688TIP3   OH250478   3.818   6.287  13.491  0.1750 -0.0068 -0.6706
 9688TIP3    H150479   3.905   6.294  13.452  1.7235 -0.4490  2.3906
 9688TIP3    H250480   3.827   6.218  13.557 -2.0300  0.9769  0.7805
 9689TIP3   OH250481   4.431   6.237   0.323 -0.5091  0.1257 -0.0225
 9689TIP3    H150482   4.486   6.312   0.344  0.3720 -0.5817  0.2495
 9689TIP3    H250483   4.469   6.165   0.373 -2.4190 -0.1340  1.1731
 9690TIP3   OH250484   4.880   5.444   0.889 -0.0551  0.3807 -0.7558
 9690TIP3    H150485   4.910   5.390   0.816 -2.7882 -1.6128 -0.5633
 9690TIP3    H250486   4.801   5.487   0.856  0.5203  2.1297  0.0207
 9691TIP3   OH250487   5.080   1.276   3.818 -0.4143  0.3383 -0.1531
 9691TIP3    H150488   5.051   1.255   3.729 -1.1682 -0.8200  0.3480
 9691TIP3    H250489   5.001   1.270   3.871  0.1453  0.3796  0.7025
 9692TIP3   OH250490   0.350   4.742  11.437  0.3523 -0.0572 -0.1804
 9692TIP3    H150491   0.444   4.744  11.419  0.2061  1.3682 -0.9908
 9692TIP3    H250492   0.336   4.663  11.489  2.4665  1.2089  2.5912
 9693TIP3   OH250493   2.767   2.300   1.213 -0.0372  0.2120 -0.3666
 9693TIP3    H150494   2.796   2.209   1.211 -0.9498 -0.0853 -0.4764
 9693TIP3    H250495   2.673   2.296   1.196 -0.8602  0.8715  3.2144
 9694TIP3   OH250496   0.691   1.701   4.870  0.3378 -0.0740 -0.4736
 9694TIP3    H150497   0.689   1.796   4.854  1.8403  0.2267  0.8604
 9694TIP3    H250498   0.701   1.692   4.964  0.0805 -1.5775 -0.5635
 9695TIP3   OH250499   1.036   0.150   4.467  0.2357  0.3664 -0.2511
 9695TIP3    H150500   1.122   0.116   4.443  0.2375  0.8268 -0.9215
 9695TIP3    H250501   0.981   0.073   4.475  0.7389  0.0547  0.3337
 9696TIP3   OH250502   3.251   3.732  14.610 -0.4482 -0.3796  0.3079
 9696TIP3    H150503   3.274   3.662  14.549  0.4712 -0.3473  0.6037
 9696TIP3    H250504   3.305   3.806  14.583 -0.3190 -0.2447  0.9033
 9697TIP3   OH250505   0.164   3.989   0.326  0.1797 -0.0624  0.1274
 9697TIP3    H150506   0.186   4.004   0.418  0.5304  1.7762 -0.2177
 9697TIP3    H250507   0.069   3.973   0.327  0.2080 -0.2260  0.8182
 9698TIP3   OH250508   1.300   2.884  12.008  0.8430 -0.0580  0.1939
 9698TIP3    H150509   1.367   2.816  12.011 -1.1446 -2.1776 -0.8837
 9698TIP3    H250510   1.239   2.861  12.079 -0.5155 -0.1778 -0.9691
 9699TIP3   OH250511   0.175   1.358  12.242 -0.1644 -0.2158 -0.0562
 9699TIP3    H150512   0.267   1.334  12.230 -0.4513 -0.4424 -2.2518
 9699TIP3    H250513   0.155   1.414  12.166 -1.7076  0.2171  0.6354
 9700TIP3   OH250514   0.809   3.255   1.570 -0.0559  0.1868  0.0012
 9700TIP3    H150515   0.793   3.345   1.598 -2.6057 -0.7104  1.8129
 9700TIP3    H250516   0.741   3.238   1.505  0.3706 -0.4585 -0.2834
 9701TIP3   OH250517   2.668   0.435   1.672 -0.5126  0.2376 -0.0004
 9701TIP3    H150518   2.588   0.483   1.692  0.6503  0.9422  3.7477
 9701TIP3    H250519   2.653   0.348   1.709  1.1258  1.0450  2.8214
 9702TIP3   OH250520   0.038   2.474  12.694 -0.0021  0.0515 -0.1986
 9702TIP3    H150521   0.079   2.552  12.731 -2.2341  1.2174  0.0100
 9702TIP3    H250522   0.094   2.401  12.723  1.3240  1.4214  0.8599
 9703TIP3   OH250523   5.131   6.033   0.009  0.6741  0.1424 -0.0570
 9703TIP3    H150524   5.218   6.064  -0.016  1.7911 -2.3048  0.5083
 9703TIP3    H250525   5.109   6.084   0.086  2.6248 -0.6705  1.1064
 9704TIP3   OH250526   6.664   4.278  13.185 -0.4320  0.3570  0.1096
 9704TIP3    H150527   6.755   4.282  13.154 -0.4055 -0.5193  0.0373
 9704TIP3    H250528   6.672   4.270  13.280 -0.4611  1.2368  0.1862
 9705TIP3   OH250529   2.494   1.266   4.160 -0.3118  0.3078  0.1767
 9705TIP3    H150530   2.488   1.361   4.146  0.0638  0.2551 -0.4147
 9705TIP3    H250531   2.484   1.255   4.254  2.2162  1.2036  0.6501
 9706TIP3   OH250532   0.161   4.029  16.228  0.0251 -0.0655 -0.0692
 9706TIP3    H150533   0.173   4.109  16.280  0.3567 -1.4030  2.0207
 9706TIP3    H250534   0.248   4.006  16.197  0.3948 -1.0406  1.6013
 9707TIP3   OH250535   3.444   4.691  12.928 -0.1670 -0.2523  0.0149
 9707TIP3    H150536   3.366   4.680  12.983 -0.6384  1.6217 -0.2223
 9707TIP3    H250537   3.514   4.714  12.990 -0.1653 -0.3645  0.0554
 9708TIP3   OH250538   5.351   3.002   0.571 -0.0560 -0.1559  0.2733
 9708TIP3    H150539   5.406   3.012   0.649  1.1168  0.2877 -0.5891
 9708TIP3    H250540   5.261   3.010   0.604  0.3235 -1.6506  1.8326
 9709TIP3   OH250541   0.942   2.091  16.024  0.2322 -0.2525  0.0616
 9709TIP3    H150542   0.904   2.160  16.080  1.5459  0.5164  0.0499
 9709TIP3    H250543   1.026   2.070  16.065  0.2380 -1.2432 -0.4292
 9710TIP3   OH250544   6.020   6.627   4.510 -0.7917 -0.3358  0.2925
 9710TIP3    H150545   5.926   6.609   4.510 -1.2017  1.4924 -0.9769
 9710TIP3    H250546   6.027   6.720   4.487  1.3526 -0.8550 -1.5866
 9711TIP3   OH250547   4.337   2.665   4.006 -0.5177 -0.1739 -0.1459
 9711TIP3    H150548   4.339   2.760   3.993  0.7115 -0.3596 -1.6315
 9711TIP3    H250549   4.355   2.653   4.099  0.6704  1.0177 -0.1929
 9712TIP3   OH250550   2.362   4.491  15.062 -0.5696  0.1225  0.2421
 9712TIP3    H150551   2.341   4.471  15.154 -2.2806  1.5694  0.2195
 9712TIP3    H250552   2.409   4.574  15.065 -1.9563  0.9670 -0.2354
 9713TIP3   OH250553   2.026   5.471   2.413 -0.5696 -0.1726 -0.7582
 9713TIP3    H150554   2.096   5.527   2.380  0.2223 -0.7785 -0.1556
 9713TIP3    H250555   2.051   5.454   2.504 -2.1271  0.5779 -0.1470
 9714TIP3   OH250556   3.294   6.239   5.527  0.1767 -0.0520 -0.0528
 9714TIP3    H150557   3.250   6.323   5.511  1.4537  0.8991  1.1816
 9714TIP3    H250558   3.290   6.194   5.443  1.0473  2.0109 -1.2773
 9715TIP3   OH250559   2.517   3.642  16.821 -0.3997 -0.4186 -0.1850
 9715TIP3    H150560   2.578   3.599  16.762  1.2793  2.5632 -0.8481
 9715TIP3    H250561   2.565   3.653  16.903  0.0604  1.8398 -0.6698
 9716TIP3   OH250562   5.656   3.779  10.195 -0.0521  0.1293  0.2360
 9716TIP3    H150563   5.748   3.800  10.214 -0.0199  0.3521 -0.1505
 9716TIP3    H250564   5.649   3.685  10.212  0.7402 -0.2939 -1.5727
 9717TIP3   OH250565   4.940   4.632   5.812 -0.1255  0.1244  0.0735
 9717TIP3    H150566   4.902   4.617   5.898  1.7487  2.2154  1.3760
 9717TIP3    H250567   5.032   4.609   5.821  0.3798  1.5461 -0.9736
 9718TIP3   OH250568   5.102   5.345   4.220  0.4117  0.4363 -0.4968
 9718TIP3    H150569   5.136   5.255   4.222 -0.8349 -0.1134  2.4964
 9718TIP3    H250570   5.165   5.396   4.271 -0.2506  0.6479  0.1278
 9719TIP3   OH250571   5.108   0.381  11.109 -0.5860  0.4643 -0.6373
 9719TIP3    H150572   5.130   0.340  11.026  0.7676 -0.9215  0.3547
 9719TIP3    H250573   5.046   0.321  11.150 -2.0444  1.6437 -1.0465
 9720TIP3   OH250574   5.859   2.504   3.493 -0.0802  0.1139 -1.0145
 9720TIP3    H150575   5.771   2.501   3.455 -0.6120 -2.0703  0.2257
 9720TIP3    H250576   5.845   2.514   3.587  1.1089  1.8108 -0.9603
 9721TIP3   OH250577   6.032   2.086  14.868  0.5723  0.3139  0.3149
 9721TIP3    H150578   5.985   2.163  14.836 -1.2403 -0.8592  0.0169
 9721TIP3    H250579   6.008   2.015  14.808  0.7036 -0.9055  1.6311
 9722TIP3   OH250580   2.088   2.585  10.792  0.1957  0.1733  0.0518
 9722TIP3    H150581   2.105   2.673  10.826 -1.2232 -0.3848  2.4380
 9722TIP3    H250582   2.129   2.527  10.856  1.5053 -0.9659 -1.7300
 9723TIP3   OH250583   5.474   2.746  15.815 -0.2068 -0.0922 -0.5623
 9723TIP3    H150584   5.527   2.680  15.861 -1.1238  0.1415  0.9153
 9723TIP3    H250585   5.390   2.745  15.861 -0.3774  1.8164 -0.7484
 9724TIP3   OH250586   3.557   2.474   0.322  0.5602 -0.0744 -0.2766
 9724TIP3    H150587   3.567   2.487   0.228 -0.4116  2.4361 -0.1019
 9724TIP3    H250588   3.644   2.493   0.358  0.6666  0.0292 -0.5825
 9725TIP3   OH250589   5.212   6.508   1.285  0.0962 -0.0967 -0.1030
 9725TIP3    H150590   5.266   6.475   1.357  0.4401 -0.5687 -0.5759
 9725TIP3    H250591   5.129   6.462   1.294  0.1349 -0.1460 -0.0022
 9726TIP3   OH250592   3.163   3.109   5.108 -0.2402  0.3729  0.3160
 9726TIP3    H150593   3.249   3.078   5.137  0.4193  0.7609 -1.1540
 9726TIP3    H250594   3.116   3.127   5.190  0.5409 -1.2220  1.1785
 9727TIP3   OH250595   0.542   6.609   1.186  0.0324 -0.3399  0.2761
 9727TIP3    H150596   0.581   6.524   1.167  1.8100  0.2830  0.9029
 9727TIP3    H250597   0.614   6.672   1.176 -1.2394  1.1071 -0.2185
 9728TIP3   OH250598   6.232   4.728   4.265 -0.6158 -0.2937  0.0296
 9728TIP3    H150599   6.233   4.822   4.247  0.1986 -0.0160  1.3702
 9728TIP3    H250600   6.184   4.690   4.192 -1.9107  1.2770  0.0130
 9729TIP3   OH250601   1.268   5.265  12.914 -0.0502  0.3247  0.0670
 9729TIP3    H150602   1.259   5.176  12.881  1.4863  0.7246 -1.5586
 9729TIP3    H250603   1.182   5.286  12.950 -1.0759 -1.0293 -1.4749
 9730TIP3   OH250604   4.274   4.463  15.757 -0.0824  0.1612  0.1145
 9730TIP3    H150605   4.265   4.540  15.813  2.0345 -1.3472  2.7383
 9730TIP3    H250606   4.359   4.426  15.779 -1.4798 -3.6577 -0.0893
 9731TIP3   OH250607   0.816   0.281   4.365  0.1858 -0.3036 -0.2999
 9731TIP3    H150608   0.894   0.242   4.403  0.2707 -0.1357 -0.3032
 9731TIP3    H250609   0.743   0.241   4.413  0.3476  1.8330  1.8964
 9732TIP3   OH250610   4.624   2.668  12.710  0.1780  0.3816 -0.0992
 9732TIP3    H150611   4.670   2.585  12.699  2.3353  1.3053  1.2227
 9732TIP3    H250612   4.684   2.733  12.673 -1.5551  1.3760 -1.2964
 9733TIP3   OH250613   1.017   1.756  14.549 -0.5621  0.1984 -0.6299
 9733TIP3    H150614   1.072   1.824  14.586 -0.0195 -0.2327 -0.6202
 9733TIP3    H250615   0.930   1.772  14.584 -0.1850  0.1584  0.3387
 9734TIP3   OH250616   4.058   3.356   0.268  0.3646  0.2075  0.2090
 9734TIP3    H150617   3.975   3.391   0.235  0.1793 -1.6976 -1.4975
 9734TIP3    H250618   4.124   3.419   0.240 -0.4534  1.8391  1.7316
 9735TIP3   OH250619   3.043   3.857  13.636  0.0835 -0.6996 -0.2916
 9735TIP3    H150620   3.082   3.936  13.597 -0.0035 -0.4168  0.1764
 9735TIP3    H250621   3.078   3.855  13.725 -1.2921 -0.1905  0.2967
 9736TIP3   OH250622   2.070   1.863   5.596  0.0810 -0.6981  0.0254
 9736TIP3    H150623   2.054   1.781   5.549  1.2610 -1.1741  0.4177
 9736TIP3    H250624   2.140   1.841   5.658 -0.8844  0.1331  1.4351
 9737TIP3   OH250625   1.452   3.547   4.677 -0.2891  0.3571 -0.1328
 9737TIP3    H150626   1.503   3.482   4.724 -0.1381  0.6898  0.1632
 9737TIP3    H250627   1.364   3.543   4.716 -0.6809 -0.6646 -1.0684
 9738TIP3   OH250628   1.890   3.967  16.647 -0.1250 -0.1977  0.0327
 9738TIP3    H150629   1.942   3.898  16.606 -1.5072 -0.6645 -1.0368
 9738TIP3    H250630   1.951   4.039  16.661  1.6344 -1.9470  2.1617
 9739TIP3   OH250631   6.335   6.470  14.783 -0.4409  0.5108  0.0084
 9739TIP3    H150632   6.302   6.380  14.785  2.0933 -0.5482 -0.6986
 9739TIP3    H250633   6.280   6.515  14.719 -1.2070 -0.7649 -0.2603
 9740TIP3   OH250634   1.362   5.628  13.449 -0.2627  0.1198  0.3296
 9740TIP3    H150635   1.322   5.611  13.534  0.4322 -1.1071  0.4309
 9740TIP3    H250636   1.346   5.548  13.398 -1.7881  1.2955 -1.1659
 9741TIP3   OH250637   1.007   4.353  12.920  0.4919 -0.4293  0.2625
 9741TIP3    H150638   1.072   4.284  12.929  1.3134  0.3070  0.0734
 9741TIP3    H250639   0.924   4.310  12.941  0.9196 -1.6001 -0.3350
 9742TIP3   OH250640   6.038   5.646   3.882 -0.7301 -0.2221  0.6189
 9742TIP3    H150641   6.101   5.719   3.882 -1.5256  0.4800  0.6322
 9742TIP3    H250642   6.092   5.568   3.889  0.2773  0.2242 -1.4950
 9743TIP3   OH250643   1.975   0.966   0.828  0.1059  0.1000 -0.5342
 9743TIP3    H150644   1.943   0.918   0.752  1.9537 -1.2844 -0.4994
 9743TIP3    H250645   2.047   0.913   0.862 -0.0798  1.1279  1.6668
 9744TIP3   OH250646   5.919   1.879  16.272  0.2006 -0.5636 -0.0115
 9744TIP3    H150647   5.994   1.827  16.300 -0.7004 -2.4254 -0.8828
 9744TIP3    H250648   5.918   1.872  16.177 -1.2859 -0.9300 -0.0013
 9745TIP3   OH250649   0.485   2.461   4.932 -0.0030  0.2745 -0.2888
 9745TIP3    H150650   0.436   2.474   5.013  0.2112  0.4281 -0.1818
 9745TIP3    H250651   0.445   2.522   4.870 -1.9797 -1.7327 -1.1243
 9746TIP3   OH250652   4.063   0.117   2.475  0.0429  0.5371  0.3810
 9746TIP3    H150653   4.140   0.065   2.500  0.9648 -0.4249 -3.6655
 9746TIP3    H250654   3.989   0.070   2.511  1.2010  0.7398  3.2573
 9747TIP3   OH250655   2.945   1.614  14.629 -0.0948 -0.1433  0.1110
 9747TIP3    H150656   2.899   1.696  14.615  0.5698 -0.0490 -1.7910
 9747TIP3    H250657   3.028   1.624  14.582  0.9073 -1.1530  1.5554
 9748TIP3   OH250658   4.145   3.476  15.273  0.0364  0.1453  0.6025
 9748TIP3    H150659   4.073   3.426  15.235  1.1411  0.1394 -1.6674
 9748TIP3    H250660   4.114   3.566  15.275  0.1863  0.2653 -1.1003
 9749TIP3   OH250661   6.316   5.245  13.815  0.1438  0.1457 -0.1465
 9749TIP3    H150662   6.299   5.151  13.810  2.3157 -0.3047  0.1374
 9749TIP3    H250663   6.234   5.283  13.848 -1.1038 -1.4951 -1.2282
 9750TIP3   OH250664   5.387   1.364  17.018 -0.1400  0.2491 -0.6426
 9750TIP3    H150665   5.301   1.323  17.006  0.1192 -0.5101  0.0250
 9750TIP3    H250666   5.387   1.392  17.109  0.9946 -1.3913 -0.1032
 9751TIP3   OH250667   1.616   2.196   0.357 -0.7843 -0.0052 -0.4859
 9751TIP3    H150668   1.657   2.244   0.285  0.2649 -0.8772 -0.5067
 9751TIP3    H250669   1.523   2.214   0.348 -0.4849  1.4715 -0.8800
 9752TIP3   OH250670   0.641   5.978   2.725 -0.4936 -0.2082  0.3328
 9752TIP3    H150671   0.612   6.061   2.688  1.0551  0.5981  0.8616
 9752TIP3    H250672   0.616   5.982   2.817  1.6513  0.7692  0.9560
 9753TIP3   OH250673   4.729   2.618  12.045 -0.3142 -0.4278  0.2246
 9753TIP3    H150674   4.665   2.670  11.995 -0.1841  0.1044  0.6016
 9753TIP3    H250675   4.750   2.672  12.121 -1.8833 -1.9747  1.8664
 9754TIP3   OH250676   4.095   3.336  13.872 -0.1556  0.5357 -0.3773
 9754TIP3    H150677   4.174   3.286  13.893 -0.8665  0.4773  2.5574
 9754TIP3    H250678   4.027   3.269  13.859 -0.3865  0.6374  0.2640
 9755TIP3   OH250679   5.285   0.862   1.907 -0.2376  0.7686 -0.0863
 9755TIP3    H150680   5.262   0.775   1.941 -1.5946  0.1157 -2.4825
 9755TIP3    H250681   5.344   0.898   1.973  1.7444 -2.6471  0.2608
 9756TIP3   OH250682   3.220   3.950  16.761 -0.6451 -0.0086  0.2477
 9756TIP3    H150683   3.226   3.953  16.856  1.2080  1.8836  0.1504
 9756TIP3    H250684   3.288   3.888  16.735  0.6632  1.4266  0.1099
 9757TIP3   OH250685   6.661   2.936   1.489  0.0763 -0.2189 -0.4363
 9757TIP3    H150686   6.670   3.029   1.506  1.3301 -0.2630 -0.7051
 9757TIP3    H250687   6.585   2.908   1.540 -0.9933  1.1519 -1.2221
 9758TIP3   OH250688   4.467   1.374   5.295 -0.3359 -0.1739  0.2722
 9758TIP3    H150689   4.551   1.367   5.250 -0.4798  1.4274 -0.3106
 9758TIP3    H250690   4.439   1.283   5.307  1.7913 -0.7642  1.1374
 9759TIP3   OH250691   4.354   0.583  10.979  0.0260  0.6020  0.2376
 9759TIP3    H150692   4.409   0.554  10.906  2.9638  1.0728  2.0997
 9759TIP3    H250693   4.272   0.537  10.967  1.2408 -1.1873 -2.0416
 9760TIP3   OH250694   4.672   0.161   4.843  0.0547 -0.0423 -0.7688
 9760TIP3    H150695   4.666   0.105   4.920 -0.8837 -0.9193 -1.4529
 9760TIP3    H250696   4.696   0.247   4.878  3.2211 -1.1674  0.1573
 9761TIP3   OH250697   0.921   4.070   3.633 -0.1671 -0.1022 -0.3259
 9761TIP3    H150698   0.994   4.086   3.574 -0.1276  0.5902 -0.1032
 9761TIP3    H250699   0.868   4.150   3.628 -0.6703 -0.4148 -0.1465
 9762TIP3   OH250700   3.537   0.672   3.145 -0.4306  0.3078  0.1206
 9762TIP3    H150701   3.461   0.658   3.089 -2.2328  1.4384  2.1013
 9762TIP3    H250702   3.521   0.615   3.221 -0.1298  1.7182  1.2814
 9763TIP3   OH250703   5.821   6.406  11.758 -0.6025  0.4973  0.1052
 9763TIP3    H150704   5.799   6.338  11.694  1.7337  1.1354 -1.5011
 9763TIP3    H250705   5.737   6.432  11.795 -1.6437 -3.4782  1.1276
 9764TIP3   OH250706   1.498   0.350   5.747 -0.2059 -0.3588  0.2893
 9764TIP3    H150707   1.541   0.300   5.678 -0.1802 -2.9259  2.0480
 9764TIP3    H250708   1.405   0.345   5.726 -0.2087 -1.2368  0.4858
 9765TIP3   OH250709   6.396   2.851   3.009  0.4498  0.1091  0.1637
 9765TIP3    H150710   6.464   2.916   3.020  0.0878  0.4648  0.3280
 9765TIP3    H250711   6.353   2.846   3.095 -0.9002  1.2191 -0.3982
 9766TIP3   OH250712   0.957   0.311  12.885  0.0314  0.1765 -0.1667
 9766TIP3    H150713   1.014   0.355  12.823 -0.1755  0.3052 -0.2686
 9766TIP3    H250714   1.016   0.268  12.947  0.2329  1.8133  0.8192
 9767TIP3   OH250715   0.912   2.154   6.277  0.6729 -0.8013  0.5402
 9767TIP3    H150716   0.824   2.116   6.281  0.5444 -0.7487 -1.0721
 9767TIP3    H250717   0.965   2.098   6.335  0.0766 -2.3314 -0.3181
 9768TIP3   OH250718   2.275   1.106  11.802  0.1243  0.2283 -0.4479
 9768TIP3    H150719   2.253   1.177  11.862 -0.4607 -1.4365  1.3884
 9768TIP3    H250720   2.348   1.061  11.843 -0.3706 -1.0268 -0.9059
 9769TIP3   OH250721   0.477   3.398   5.756  0.0899  0.3179  0.1444
 9769TIP3    H150722   0.407   3.430   5.813 -0.2358 -1.1338  0.6162
 9769TIP3    H250723   0.552   3.386   5.814  0.6143  1.4199 -0.2739
 9770TIP3   OH250724   5.657   3.698  10.976  0.2313 -0.2868 -0.1626
 9770TIP3    H150725   5.674   3.666  11.064 -0.9663  0.1064  0.2341
 9770TIP3    H250726   5.601   3.775  10.988 -0.9984 -0.9524 -1.2950
 9771TIP3   OH250727   6.780   2.714  13.021 -0.2233 -0.4089 -0.5125
 9771TIP3    H150728   6.829   2.672  13.092 -0.7596 -0.7243 -0.3295
 9771TIP3    H250729   6.711   2.652  12.998 -0.4744 -0.0155 -0.8496
 9772TIP3   OH250730   2.856   1.924  12.204  0.8307  0.7845  0.0109
 9772TIP3    H150731   2.880   1.844  12.251  2.1850  1.7323  1.0234
 9772TIP3    H250732   2.762   1.917  12.192  1.0791 -1.5344 -1.0573
 9773TIP3   OH250733   0.618   2.366  11.870 -0.5459 -0.1454  0.1927
 9773TIP3    H150734   0.705   2.394  11.900 -0.1640 -1.3403  0.2645
 9773TIP3    H250735   0.589   2.304  11.937 -1.0019 -0.5414 -0.3610
 9774TIP3   OH250736   6.572   5.832  12.411  0.7800  0.0017 -0.4093
 9774TIP3    H150737   6.517   5.854  12.335 -0.2399  0.3075  0.3877
 9774TIP3    H250738   6.533   5.882  12.483  1.5583 -0.5002  0.3744
 9775TIP3   OH250739   1.570   0.877  15.912 -0.0614  0.0935  0.0436
 9775TIP3    H150740   1.554   0.913  15.825 -2.1398 -0.5046  0.1380
 9775TIP3    H250741   1.529   0.939  15.972  0.2605 -0.1420  0.5116
 9776TIP3   OH250742   0.713   3.162   3.620  0.1528  0.0562 -0.6422
 9776TIP3    H150743   0.761   3.082   3.597  0.9686  0.4229 -0.2673
 9776TIP3    H250744   0.753   3.230   3.566  1.0520  0.6364  0.6818
 9777TIP3   OH250745   1.321   6.764   2.619  0.3335 -0.5550  0.6898
 9777TIP3    H150746   1.286   6.675   2.610 -1.5984  0.3174 -1.4982
 9777TIP3    H250747   1.288   6.793   2.704 -1.8741 -0.8644  0.0194
 9778TIP3   OH250748   0.672   6.017  16.181 -0.2097 -0.2015 -0.2967
 9778TIP3    H150749   0.603   6.061  16.131 -1.8535  1.3059  2.9481
 9778TIP3    H250750   0.744   6.080  16.184 -0.6096  0.2432  0.2260
 9779TIP3   OH250751   2.911   6.150  11.472 -0.1960  0.0012 -0.1437
 9779TIP3    H150752   2.897   6.239  11.438  1.7655  0.4644  0.1107
 9779TIP3    H250753   2.844   6.139  11.538 -0.2764  1.4526  0.0642
 9780TIP3   OH250754   3.896   2.261  13.682 -0.0071  0.1600  0.5044
 9780TIP3    H150755   3.949   2.242  13.604 -0.5413  0.0625  0.1556
 9780TIP3    H250756   3.956   2.249  13.755 -0.3309 -3.3979  0.3979
 9781TIP3   OH250757   2.936   3.996   0.779  0.8532 -0.7542 -0.0692
 9781TIP3    H150758   2.885   4.002   0.860  2.4587 -0.3601  0.9577
 9781TIP3    H250759   3.002   3.929   0.797  0.8763 -1.0825 -1.2793
 9782TIP3   OH250760   4.473   2.331  14.469 -0.3126  0.5527  0.3295
 9782TIP3    H150761   4.449   2.423  14.474 -2.0245  0.1177  1.2787
 9782TIP3    H250762   4.567   2.330  14.451 -0.1233  2.4752  1.0482
 9783TIP3   OH250763   0.467   4.562   2.532  0.2054 -0.3601 -0.2097
 9783TIP3    H150764   0.507   4.481   2.564  0.0881 -0.1080  0.5963
 9783TIP3    H250765   0.537   4.607   2.486  1.3154  0.7518  2.3786
 9784TIP3   OH250766   3.601   2.793   3.777  0.2403 -0.2112 -0.6276
 9784TIP3    H150767   3.578   2.834   3.694  0.7798  2.6413  0.4827
 9784TIP3    H250768   3.517   2.783   3.823  0.0678 -0.7043 -1.0390
 9785TIP3   OH250769   6.018   2.704  12.318  0.2315 -0.7977  0.0715
 9785TIP3    H150770   5.952   2.751  12.370 -0.4236 -0.1655 -1.2687
 9785TIP3    H250771   6.066   2.774  12.273  1.9906 -1.2355  1.1744
 9786TIP3   OH250772   0.302   3.700  15.448  0.4760  0.1201 -0.0559
 9786TIP3    H150773   0.224   3.686  15.395  0.1507  1.0093  0.1681
 9786TIP3    H250774   0.335   3.612  15.466 -1.0492 -0.3394  0.7019
 9787TIP3   OH250775   0.274   3.028  15.658  0.6611  0.4834  0.0431
 9787TIP3    H150776   0.344   3.076  15.613 -0.5745  1.8216 -0.5148
 9787TIP3    H250777   0.200   3.031  15.599 -0.8738  1.9065  1.8903
 9788TIP3   OH250778   1.269   3.859  10.997 -0.0554  0.1931 -0.3203
 9788TIP3    H150779   1.209   3.846  10.924  0.4566  3.5139 -1.4972
 9788TIP3    H250780   1.327   3.931  10.969  3.9919 -2.1799  1.0703
 9789TIP3   OH250781   2.382   5.714  15.051 -0.3570  0.5343 -0.3524
 9789TIP3    H150782   2.343   5.642  15.100  0.3057  0.9748  0.8587
 9789TIP3    H250783   2.366   5.692  14.959 -0.2565 -1.0901 -0.0057
 9790TIP3   OH250784   1.967   1.605  14.544 -0.1036  0.1877 -0.9672
 9790TIP3    H150785   2.046   1.644  14.582 -0.3994 -0.6050  0.5359
 9790TIP3    H250786   1.951   1.655  14.464  1.2062  1.1707 -0.6371
 9791TIP3   OH250787   4.946   5.980   6.398 -0.1320 -0.2779  0.1729
 9791TIP3    H150788   4.890   5.903   6.387  1.2456 -1.4698  1.1909
 9791TIP3    H250789   4.905   6.029   6.469 -1.4670  0.4017 -1.0087
 9792TIP3   OH250790   4.349   1.048  16.983  0.3134  0.0411 -0.1756
 9792TIP3    H150791   4.344   1.115  16.915 -1.6700  0.0576 -0.0813
 9792TIP3    H250792   4.436   1.011  16.974  2.0772  3.5099  0.6598
 9793TIP3   OH250793   3.420   5.662  16.051  0.4256  0.1183  0.1977
 9793TIP3    H150794   3.456   5.713  15.978  0.6985 -0.0785  0.1923
 9793TIP3    H250795   3.344   5.616  16.013  0.9221 -0.4540 -0.1271
 9794TIP3   OH250796   2.282   3.548  14.279  0.4358  0.3255  0.3648
 9794TIP3    H150797   2.306   3.502  14.199  0.4068  0.3161  0.3612
 9794TIP3    H250798   2.239   3.628  14.249 -1.7565 -0.7854  0.3489
 9795TIP3   OH250799   1.250   1.949  12.345  0.1484  0.8454  0.1734
 9795TIP3    H150800   1.224   1.896  12.270 -1.6671  2.0657 -0.1321
 9795TIP3    H250801   1.199   1.914  12.418 -0.9084  1.9791  0.0127
 9796TIP3   OH250802   0.554   6.735  13.768  0.2036 -0.4298 -0.2890
 9796TIP3    H150803   0.614   6.776  13.830 -0.5368 -1.0598  0.8991
 9796TIP3    H250804   0.558   6.790  13.690  1.0699  0.4728  0.3690
 9797TIP3   OH250805   0.545   5.478  14.100  0.6010  0.0426 -0.3933
 9797TIP3    H150806   0.491   5.448  14.173  0.9489 -1.3890 -0.6838
 9797TIP3    H250807   0.571   5.566  14.123 -1.4386  0.6023 -0.0034
 9798TIP3   OH250808   6.728   5.230   3.137  0.4482 -0.0096 -0.1099
 9798TIP3    H150809   6.819   5.200   3.142 -0.2065 -1.9949  1.3008
 9798TIP3    H250810   6.677   5.149   3.143 -1.4266  0.9617 -1.8817
 9799TIP3   OH250811   3.237   5.682  15.354 -0.1403 -0.4679 -0.0952
 9799TIP3    H150812   3.154   5.731  15.347 -1.4740 -2.5196  0.4857
 9799TIP3    H250813   3.249   5.643  15.268 -0.2733 -0.9138  0.0864
 9800TIP3   OH250814   4.755   0.796   5.364 -0.3802  0.0672 -0.3208
 9800TIP3    H150815   4.709   0.712   5.366 -1.3014  0.5498 -0.7237
 9800TIP3    H250816   4.772   0.816   5.456  0.2371 -0.7603 -0.2423
 9801TIP3   OH250817   1.114   6.690  15.008  0.2156  0.3154  0.2987
 9801TIP3    H150818   1.184   6.626  14.994 -1.4759 -1.3268 -1.2418
 9801TIP3    H250819   1.131   6.759  14.944  1.2401  0.7431  0.9945
 9802TIP3   OH250820   2.088   0.312  15.964  0.2206  0.1921  0.3560
 9802TIP3    H150821   2.018   0.308  15.899 -0.0005 -1.6745  0.6713
 9802TIP3    H250822   2.157   0.362  15.920 -0.5777  0.4432 -0.6563
 9803TIP3   OH250823   3.209   2.348   1.030 -0.5828  0.0690 -0.0374
 9803TIP3    H150824   3.272   2.313   0.966 -0.2184 -1.2027  0.9740
 9803TIP3    H250825   3.161   2.415   0.982  2.1848  1.8232 -0.6203
 9804TIP3   OH250826   3.143   0.500   4.354 -0.4937  0.2148 -0.4594
 9804TIP3    H150827   3.113   0.415   4.321 -0.8282 -0.7122  1.9562
 9804TIP3    H250828   3.065   0.554   4.356 -0.0878  1.0076 -2.9962
 9805TIP3   OH250829   4.616   0.734  14.045 -0.0276  0.0408 -0.0447
 9805TIP3    H150830   4.548   0.695  14.099 -0.2447  0.3113 -0.1217
 9805TIP3    H250831   4.569   0.772  13.971  0.0495  1.5505  0.6494
 9806TIP3   OH250832   4.425   3.199   4.715  0.0649  0.4249 -0.7427
 9806TIP3    H150833   4.388   3.282   4.747 -0.0609  0.3103 -0.5915
 9806TIP3    H250834   4.433   3.144   4.793 -2.1976 -0.6205 -1.1837
 9807TIP3   OH250835   0.134   0.040  13.004 -0.4954 -0.2642 -0.2018
 9807TIP3    H150836   0.070   0.033  13.075 -0.9810 -0.9836 -0.7111
 9807TIP3    H250837   0.218   0.025  13.047 -0.4623  2.1632  0.7619
 9808TIP3   OH250838   5.490   6.271  16.634 -0.0795  0.4884 -0.1249
 9808TIP3    H150839   5.455   6.270  16.723  3.1688  1.2257  1.2898
 9808TIP3    H250840   5.552   6.199  16.632 -0.9820 -0.2999 -2.2659
 9809TIP3   OH250841   6.519   6.186  12.312  0.6823 -0.0433 -0.4495
 9809TIP3    H150842   6.471   6.125  12.257  1.7491  0.6594 -2.2357
 9809TIP3    H250843   6.456   6.214  12.378 -1.2360  0.4914 -2.4312
 9810TIP3   OH250844   5.299   6.173  14.097  0.3900 -0.1604  0.6128
 9810TIP3    H150845   5.392   6.161  14.076  0.3343  0.7550 -0.2252
 9810TIP3    H250846   5.294   6.261  14.133 -0.3678  0.3566 -0.7111
 9811TIP3   OH250847   2.405   6.401  16.409  0.1832  0.1620 -0.1819
 9811TIP3    H150848   2.427   6.487  16.445  0.1067 -0.6357  1.9055
 9811TIP3    H250849   2.314   6.410  16.379  0.2123  0.8422 -0.0749
 9812TIP3   OH250850   6.425   4.565  14.514 -0.6815 -0.7118  0.3136
 9812TIP3    H150851   6.425   4.501  14.442  2.1259  0.3043 -0.7171
 9812TIP3    H250852   6.476   4.523  14.583 -0.6183 -0.4046  0.4535
 9813TIP3   OH250853   4.507   3.084  14.112  0.5907  0.5629 -0.2300
 9813TIP3    H150854   4.428   3.087  14.058 -0.1373  1.7684  0.8600
 9813TIP3    H250855   4.569   3.141  14.065 -0.5119  2.7755  0.8412
 9814TIP3   OH250856   2.545   4.393   2.532  0.0578  0.1693  0.2319
 9814TIP3    H150857   2.469   4.448   2.511 -0.3166 -0.4923 -0.2125
 9814TIP3    H250858   2.528   4.361   2.620 -1.2750 -1.6943 -0.6438
 9815TIP3   OH250859   4.928   1.921  13.961  0.0067 -0.4903 -0.3315
 9815TIP3    H150860   4.961   1.909  13.872  0.9138  0.4469 -0.1266
 9815TIP3    H250861   5.004   1.949  14.012 -0.4675 -1.1706  0.7830
 9816TIP3   OH250862   4.543   3.309  14.461  0.1214  0.0423  0.4934
 9816TIP3    H150863   4.521   3.222  14.429  2.3022  0.1778 -1.6416
 9816TIP3    H250864   4.631   3.325  14.429 -0.1245  2.9648  1.0119
 9817TIP3   OH250865   5.574   5.707  14.332  0.4976  0.1610 -0.0073
 9817TIP3    H150866   5.534   5.792  14.351  0.3872  0.1233 -0.0679
 9817TIP3    H250867   5.535   5.648  14.396  1.7640  0.4681  1.0875
 9818TIP3   OH250868   5.030   4.757   2.656 -0.6653 -0.8427  0.3666
 9818TIP3    H150869   5.099   4.753   2.722 -1.2749  1.5043  1.2419
 9818TIP3    H250870   4.979   4.677   2.669  0.3023 -1.3016  1.5012
 9819TIP3   OH250871   1.189   5.513  15.501  0.5228  0.3911 -1.0158
 9819TIP3    H150872   1.271   5.554  15.475  0.5290  3.3151  2.8001
 9819TIP3    H250873   1.127   5.585  15.508 -0.9654 -0.9716  1.0281
 9820TIP3   OH250874   4.610   5.533  16.900  0.2425  0.3049  0.6897
 9820TIP3    H150875   4.619   5.506  16.809 -0.9596 -1.2993  0.9940
 9820TIP3    H250876   4.697   5.566  16.924  0.3531  1.5398 -1.2442
 9821TIP3   OH250877   3.626   2.499  11.061 -0.1886 -0.5763 -0.6175
 9821TIP3    H150878   3.557   2.557  11.030 -1.0515  0.0769  2.1681
 9821TIP3    H250879   3.703   2.554  11.068 -0.5453 -0.1721  0.3265
 9822TIP3   OH250880   5.965   0.541  12.890  0.7104  0.4234 -0.3234
 9822TIP3    H150881   5.889   0.483  12.882  0.4186  0.6004  1.0516
 9822TIP3    H250882   5.990   0.559  12.799 -0.0395 -0.7352 -0.7869
 9823TIP3   OH250883   1.453   2.359  11.565  0.0804 -0.1557  0.0679
 9823TIP3    H150884   1.447   2.275  11.613  1.3851  1.0418  2.5348
 9823TIP3    H250885   1.526   2.346  11.504  0.7813 -0.6256  0.9640
 9824TIP3   OH250886   5.395   2.084   2.196  0.2735  0.4343 -0.2744
 9824TIP3    H150887   5.396   2.146   2.269  1.8237 -0.3325  0.4005
 9824TIP3    H250888   5.461   2.118   2.135  1.4984 -0.7685  0.3348
 9825TIP3   OH250889   0.135   4.257   4.090  0.3931 -0.0895 -0.6130
 9825TIP3    H150890   0.199   4.257   4.161 -1.3379 -0.1281  1.0150
 9825TIP3    H250891   0.151   4.339   4.044  0.6974  0.5753  0.6308
 9826TIP3   OH250892   4.967   0.031  12.775 -0.2010 -0.3567  0.6270
 9826TIP3    H150893   5.055   0.065  12.763  0.1771 -0.3480  2.9237
 9826TIP3    H250894   4.972  -0.059  12.742  0.4065 -0.0873 -0.0499
 9827TIP3   OH250895   4.811   4.818   3.498 -0.4323 -0.4969 -0.0691
 9827TIP3    H150896   4.771   4.852   3.418 -0.0433  0.1480  0.0065
 9827TIP3    H250897   4.864   4.743   3.469 -0.5667 -0.4752 -0.3644
 9828TIP3   OH250898   6.629   5.006   2.266  0.4355 -0.5718  0.1853
 9828TIP3    H150899   6.617   4.913   2.250 -0.7916 -0.4050  0.0238
 9828TIP3    H250900   6.577   5.024   2.344 -0.6284  0.2662 -0.6921
 9829TIP3   OH250901   1.185   1.963  15.563  0.3002 -0.3627  0.3741
 9829TIP3    H150902   1.193   1.883  15.615 -0.1537 -0.7560 -0.1485
 9829TIP3    H250903   1.229   2.030  15.615 -0.3706 -0.6892  1.3896
 9830TIP3   OH250904   3.082   5.670  13.504 -0.0380 -0.5933  0.1498
 9830TIP3    H150905   3.092   5.588  13.457  2.0754 -0.9275  1.0667
 9830TIP3    H250906   3.134   5.733  13.454 -1.2744  0.1125 -0.2953
 9831TIP3   OH250907   4.549   4.190  13.024  0.2276  0.5259 -0.5361
 9831TIP3    H150908   4.566   4.201  13.117  1.8381  0.9493 -0.8410
 9831TIP3    H250909   4.522   4.276  12.993 -1.5316  0.1081 -0.2647
 9832TIP3   OH250910   0.676   3.877   1.903 -0.4020  0.0203 -0.0183
 9832TIP3    H150911   0.612   3.882   1.832 -0.4559  0.1834  0.0418
 9832TIP3    H250912   0.644   3.807   1.959 -0.7508  0.3724  0.2297
 9833TIP3   OH250913   5.362   0.894   2.808 -0.5765  0.8771  0.3143
 9833TIP3    H150914   5.380   0.811   2.762 -0.0108  1.0025  0.2975
 9833TIP3    H250915   5.420   0.892   2.884  1.3214  2.3641 -1.0135
 9834TIP3   OH250916   5.364   5.023  15.382 -0.2501 -0.2877  0.8049
 9834TIP3    H150917   5.345   4.974  15.462 -1.8534  0.5491  0.9742
 9834TIP3    H250918   5.457   5.047  15.389 -0.2060 -0.7757  2.0938
 9835TIP3   OH250919   2.392   5.493  11.286  0.1920 -0.4575  0.1667
 9835TIP3    H150920   2.410   5.404  11.255 -0.3877 -0.3655 -0.4569
 9835TIP3    H250921   2.332   5.481  11.360 -0.7991 -0.5425 -0.6309
 9836TIP3   OH250922   5.551   1.767  15.228 -0.1552 -0.2677  0.2417
 9836TIP3    H150923   5.624   1.731  15.179 -0.1359 -1.5154  1.1274
 9836TIP3    H250924   5.485   1.697  15.229 -0.4979  0.0399  1.2153
 9837TIP3   OH250925   6.242   6.268   5.449  0.3141  0.7521  0.3531
 9837TIP3    H150926   6.209   6.215   5.376  1.0099  1.2162 -0.3076
 9837TIP3    H250927   6.173   6.332   5.465 -0.5609 -0.3514  1.1914
 9838TIP3   OH250928   4.781   1.887   2.964 -0.1165 -0.8847  0.5834
 9838TIP3    H150929   4.763   1.957   3.027  1.3553 -0.3143  0.4109
 9838TIP3    H250930   4.860   1.845   2.997  0.1354 -1.1788 -0.3786
 9839TIP3   OH250931   1.389   4.069  14.999  0.0061  0.6665 -0.1889
 9839TIP3    H150932   1.476   4.107  14.999  0.7253 -0.5305  3.9780
 9839TIP3    H250933   1.335   4.132  15.047 -0.1079 -0.7996  1.7511
 9840TIP3   OH250934   1.698   5.872   0.946 -0.3754  0.1033  0.3876
 9840TIP3    H150935   1.700   5.956   0.992 -0.3440  0.6279 -0.5371
 9840TIP3    H250936   1.697   5.896   0.853  0.9513 -0.9304  0.0771
 9841TIP3   OH250937   2.205   1.185   3.643 -0.2568 -0.2646  0.2495
 9841TIP3    H150938   2.174   1.100   3.610 -0.4166 -0.5071  1.0091
 9841TIP3    H250939   2.285   1.202   3.593 -1.0404 -0.1300 -0.9986
 9842TIP3   OH250940   5.744   2.584  15.932  0.0425  0.0714 -0.5000
 9842TIP3    H150941   5.773   2.538  16.011  0.6384  2.3671  0.7428
 9842TIP3    H250942   5.742   2.517  15.864 -1.5447 -2.2721  1.6480
 9843TIP3   OH250943   3.634   2.128   5.366  0.0914  0.0519 -0.2253
 9843TIP3    H150944   3.650   2.077   5.446 -0.9602 -0.6643 -0.4450
 9843TIP3    H250945   3.556   2.087   5.327 -0.2299  1.2597 -0.8990
 9844TIP3   OH250946   1.970   2.973   5.647 -0.4765  0.3062 -0.5919
 9844TIP3    H150947   1.920   2.990   5.726  0.1899  3.0349 -0.6465
 9844TIP3    H250948   2.025   2.898   5.668 -0.9324  0.4480  1.2119
 9845TIP3   OH250949   5.228   5.188  16.712  1.0990  0.7017 -0.2795
 9845TIP3    H150950   5.269   5.143  16.638  0.2693 -0.5398  0.0062
 9845TIP3    H250951   5.141   5.211  16.681  0.5464 -0.3097  0.4772
 9846TIP3   OH250952   4.547   3.590  13.867  0.7436  0.0561 -0.2177
 9846TIP3    H150953   4.521   3.507  13.829 -0.2375 -0.2263  1.0285
 9846TIP3    H250954   4.625   3.616  13.817  0.0517 -0.7409 -1.7623
 9847TIP3   OH250955   1.285   6.313  13.824  0.4153 -0.6849 -0.4993
 9847TIP3    H150956   1.315   6.301  13.914  0.8846  0.0129 -0.5521
 9847TIP3    H250957   1.363   6.343  13.777 -0.4360  1.6431 -0.5410
 9848TIP3   OH250958   4.966   4.530  15.468 -0.0475  0.3079  0.1133
 9848TIP3    H150959   4.906   4.474  15.419 -0.8493  1.2067  0.0518
 9848TIP3    H250960   4.970   4.490  15.555 -1.2312  0.5859  0.3099
 9849TIP3   OH250961   0.678   4.277  11.294  0.8633  0.0329 -0.6593
 9849TIP3    H150962   0.762   4.310  11.263  1.3880  0.4628  1.1375
 9849TIP3    H250963   0.701   4.205  11.353 -0.1069 -0.8223 -1.2889
 9850TIP3   OH250964   2.211   1.474   5.829 -0.3922  0.1039 -0.1535
 9850TIP3    H150965   2.201   1.569   5.833 -3.0378 -0.0590 -0.8472
 9850TIP3    H250966   2.233   1.449   5.919  0.1207  1.3233  0.0877
 9851TIP3   OH250967   6.757   1.632   4.464  0.0946  0.3877 -0.1919
 9851TIP3    H150968   6.664   1.644   4.483  0.0755  0.1719 -0.1508
 9851TIP3    H250969   6.761   1.617   4.370 -0.0569 -1.0473  0.0133
 9852TIP3   OH250970   3.898   3.542   3.575 -0.5112 -0.2829  0.4523
 9852TIP3    H150971   3.958   3.602   3.620 -0.9769 -0.2123  0.9921
 9852TIP3    H250972   3.937   3.528   3.489 -1.0499  1.8287 -0.1892
 9853TIP3   OH250973   6.298   5.299   5.456 -0.2351 -0.3097  0.8190
 9853TIP3    H150974   6.309   5.319   5.363  0.7837 -1.8039  0.5833
 9853TIP3    H250975   6.219   5.346   5.482 -1.0362 -0.5739 -1.0221
 9854TIP3   OH250976   3.734   0.599  16.471  0.3186  0.5593  0.0863
 9854TIP3    H150977   3.733   0.617  16.377  0.2873 -2.3414 -0.5576
 9854TIP3    H250978   3.662   0.651  16.506  0.8539  2.3338 -1.3317
 9855TIP3   OH250979   2.708   1.046   4.035  0.0901  0.5319  0.3466
 9855TIP3    H150980   2.717   1.118   3.973 -0.2495 -0.0076 -0.3373
 9855TIP3    H250981   2.615   1.022   4.031 -0.2915  1.4696  2.1840
 9856TIP3   OH250982   4.127   1.327  15.051  0.5321  0.6654 -0.2596
 9856TIP3    H150983   4.102   1.368  15.134  2.7926 -0.7011  1.1857
 9856TIP3    H250984   4.076   1.374  14.985 -2.8726  0.5414  2.0060
 9857TIP3   OH250985   1.179   4.103  11.227  0.5408 -0.4345 -0.0490
 9857TIP3    H150986   1.141   4.183  11.262 -0.2842 -0.6074 -0.5173
 9857TIP3    H250987   1.254   4.132  11.174  0.4074 -0.0030  0.0024
 9858TIP3   OH250988   1.988   4.163   0.012 -0.2382 -0.4386 -0.2475
 9858TIP3    H150989   1.986   4.135   0.104  2.1592  1.6834  0.5648
 9858TIP3    H250990   1.955   4.253   0.015  0.9132  0.0341 -1.2629
 9859TIP3   OH250991   3.257   4.267   2.130 -0.2822  0.7757 -0.2654
 9859TIP3    H150992   3.197   4.327   2.174 -0.8431  0.1585 -0.1637
 9859TIP3    H250993   3.205   4.230   2.058 -0.2444 -0.2614  0.2262
 9860TIP3   OH250994   3.794   1.737  16.057  0.6469  0.6496  0.2623
 9860TIP3    H150995   3.786   1.642  16.070 -0.6868  0.7585  0.3128
 9860TIP3    H250996   3.884   1.749  16.026  0.4249 -0.7815 -1.0831
 9861TIP3   OH250997   1.945   6.753   2.826 -0.0625  0.0119 -0.4085
 9861TIP3    H150998   1.984   6.723   2.909  0.2747  0.9555 -0.2152
 9861TIP3    H250999   1.896   6.831   2.850  1.0476  1.0118 -1.2996
 9862TIP3   OH251000   6.666   0.376   5.398 -0.2399  0.6055 -0.1509
 9862TIP3    H151001   6.699   0.458   5.436  0.6863 -0.0444  0.4649
 9862TIP3    H251002   6.620   0.404   5.318  1.4219  1.5828 -0.8119
 9863TIP3   OH251003   5.932   5.723   1.151  0.2709  0.1994 -0.2071
 9863TIP3    H151004   5.866   5.698   1.216  0.3502 -0.2508 -0.2944
 9863TIP3    H251005   6.002   5.762   1.203  0.0905  0.3526 -0.0780
 9864TIP3   OH251006   3.774   0.974   1.777  0.7891  0.6147  0.0762
 9864TIP3    H151007   3.804   0.897   1.826 -1.2133 -0.1039  0.2946
 9864TIP3    H251008   3.765   1.042   1.844  0.1973  0.2824  0.3513
 9865TIP3   OH251009   2.278   3.301   2.028 -0.2938  0.0980  0.2302
 9865TIP3    H151010   2.319   3.304   2.114 -0.1787 -0.1628  0.1852
 9865TIP3    H251011   2.192   3.343   2.041  0.6329  2.2094 -0.0433
 9866TIP3   OH251012   5.284   1.387  10.667 -0.0826 -0.2067 -0.6321
 9866TIP3    H151013   5.208   1.386  10.607 -1.0359  2.6848  0.3308
 9866TIP3    H251014   5.358   1.406  10.610 -0.5447 -0.2207 -1.2568
 9867TIP3   OH251015   1.139   4.522  15.582 -0.1344  0.3762  0.2701
 9867TIP3    H151016   1.193   4.544  15.658  0.8530 -0.5243 -0.1529
 9867TIP3    H251017   1.134   4.603  15.531 -0.6940  0.9512  1.2052
 9868TIP3   OH251018   4.771   6.269   1.453  0.0161  0.6162  0.4186
 9868TIP3    H151019   4.717   6.307   1.522 -1.6963 -0.5294 -0.2229
 9868TIP3    H251020   4.708   6.229   1.393  1.5476  0.1037 -0.9128
 9869TIP3   OH251021   3.126   4.310   5.811 -0.4237  0.0982  0.2125
 9869TIP3    H151022   3.167   4.228   5.783 -0.0012  1.0162 -2.0761
 9869TIP3    H251023   3.078   4.286   5.890 -1.0781 -2.5820 -0.8565
 9870TIP3   OH251024   4.209   1.479  13.499 -0.9074 -0.2772 -0.3196
 9870TIP3    H151025   4.139   1.542  13.511 -2.5217 -2.1866  0.8486
 9870TIP3    H251026   4.166   1.393  13.504  1.5173 -1.5444  0.7073
 9871TIP3   OH251027   6.406   6.200  15.665 -0.4589  0.1080 -0.1615
 9871TIP3    H151028   6.494   6.182  15.698 -0.4007  1.7044  0.6466
 9871TIP3    H251029   6.419   6.226  15.574 -0.0043  0.9842  0.1458
 9872TIP3   OH251030   5.641   4.397  11.788 -0.1107  0.1134 -0.1949
 9872TIP3    H151031   5.552   4.399  11.823  0.0343  0.3142  0.1653
 9872TIP3    H251032   5.673   4.309  11.811 -0.4672 -0.2306 -0.9688
 9873TIP3   OH251033   3.740   2.566  12.501  0.0766 -0.8903  0.3280
 9873TIP3    H151034   3.797   2.530  12.433  0.3687 -1.3460  0.8125
 9873TIP3    H251035   3.794   2.567  12.580  0.6702  2.1352  0.0200
 9874TIP3   OH251036   6.674   5.657  15.726 -0.1612 -0.1405  0.0121
 9874TIP3    H151037   6.697   5.705  15.806 -0.1364  0.0467 -0.1070
 9874TIP3    H251038   6.735   5.690  15.660 -0.7307  0.3253 -0.2928
 9875TIP3   OH251039   2.649   6.797  15.821 -0.0733 -0.1302  0.8119
 9875TIP3    H151040   2.579   6.860  15.807 -0.6946 -1.0871 -0.5818
 9875TIP3    H251041   2.654   6.748  15.739 -0.0471 -2.3399  2.0797
 9876TIP3   OH251042   2.189   0.192  12.485 -0.3822  0.6440 -0.0656
 9876TIP3    H151043   2.103   0.214  12.520 -0.1286  2.9689 -0.7458
 9876TIP3    H251044   2.226   0.276  12.456  1.5512 -0.4693 -1.0574
 9877TIP3   OH251045   3.498   0.195  12.949  0.5113 -0.1223 -0.0267
 9877TIP3    H151046   3.482   0.116  12.897  0.5924 -0.5808  0.6254
 9877TIP3    H251047   3.532   0.258  12.887 -0.0053 -0.4502 -0.6522
 9878TIP3   OH251048   4.870   3.902  12.872 -0.8955  0.0683  0.3780
 9878TIP3    H151049   4.854   3.900  12.966 -1.0226  1.0607  0.3897
 9878TIP3    H251050   4.802   3.961  12.838 -0.5404  0.1072 -0.2636
 9879TIP3   OH251051   2.150   1.536  12.309 -0.1951 -0.2879  0.3840
 9879TIP3    H151052   2.126   1.621  12.345  0.5713  0.9153 -1.7482
 9879TIP3    H251053   2.159   1.479  12.385  0.7077  1.8912  2.0175
 9880TIP3   OH251054   6.738   6.726   0.838  0.0809  0.6231 -0.6182
 9880TIP3    H151055   6.703   6.813   0.821  0.1175  0.8951  0.6115
 9880TIP3    H251056   6.812   6.741   0.897  0.3538 -0.2031 -0.7389
 9881TIP3   OH251057   1.504   0.130   2.539  0.3327 -0.0363  0.5713
 9881TIP3    H151058   1.442   0.072   2.581  0.2924  0.4995  1.2645
 9881TIP3    H251059   1.450   0.192   2.491  0.3847 -1.1377 -0.9947
 9882TIP3   OH251060   6.555   6.720  15.584 -0.2301  0.0280 -0.5689
 9882TIP3    H151061   6.584   6.691  15.498  0.1622 -1.2330 -0.0353
 9882TIP3    H251062   6.460   6.710  15.582 -0.1205 -1.1887 -0.4595
 9883TIP3   OH251063   4.518   5.649  13.879 -0.0089  0.6699 -0.2084
 9883TIP3    H151064   4.522   5.698  13.798 -1.1702  2.0180  0.5050
 9883TIP3    H251065   4.456   5.578  13.861 -0.2652  0.9674 -0.5004
 9884TIP3   OH251066   0.343   5.238  13.800 -0.1154  0.0336 -0.8008
 9884TIP3    H151067   0.352   5.235  13.704  0.0451  1.5352 -0.8571
 9884TIP3    H251068   0.433   5.251  13.831 -0.4803  3.0028 -0.6821
 9885TIP3   OH251069   1.695   2.147  10.730 -0.3245 -0.3454  0.7533
 9885TIP3    H151070   1.646   2.071  10.698 -0.8120  0.4244 -0.4026
 9885TIP3    H251071   1.639   2.184  10.799 -0.9219 -0.0414  0.1194
 9886TIP3   OH251072   0.858   1.456  15.857 -0.3085 -0.1564  0.0497
 9886TIP3    H151073   0.840   1.513  15.932 -2.0889  0.2002 -0.6051
 9886TIP3    H251074   0.786   1.393  15.857 -3.2845  2.7607 -4.0717
 9887TIP3   OH251075   2.457   1.634   4.903 -0.2014 -0.1389 -0.0321
 9887TIP3    H151076   2.468   1.652   4.810  2.2178 -0.4159  0.1412
 9887TIP3    H251077   2.504   1.705   4.947 -2.0539  0.4789  1.0386
 9888TIP3   OH251078   2.467   0.962   3.767 -0.3177  0.0499  0.1583
 9888TIP3    H151079   2.445   1.007   3.848 -0.7068 -1.2673  0.8190
 9888TIP3    H251080   2.441   0.871   3.783  1.9337 -0.7752 -0.5008
 9889TIP3   OH251081   2.089   5.525  12.714 -0.1487  1.0444 -0.3300
 9889TIP3    H151082   2.177   5.560  12.729 -0.1328  1.3923 -1.2041
 9889TIP3    H251083   2.031   5.586  12.761  0.1975 -0.4237  2.1742
 9890TIP3   OH251084   6.698   0.172   0.785 -0.2862 -0.1126 -0.4424
 9890TIP3    H151085   6.756   0.245   0.807  0.7776 -0.3779 -2.1768
 9890TIP3    H251086   6.695   0.172   0.689 -0.5095 -2.1576 -0.4761
 9891TIP3   OH251087   6.046   6.325   2.749 -0.5267  0.6224 -0.0799
 9891TIP3    H151088   6.087   6.335   2.835  1.2068  0.6388 -0.8713
 9891TIP3    H251089   6.004   6.239   2.753 -0.8334  0.7998  0.9075
 9892TIP3   OH251090   1.908   5.944   3.199 -0.2319 -0.2816  0.4672
 9892TIP3    H151091   1.907   5.878   3.130  2.0835  1.1130 -1.0587
 9892TIP3    H251092   1.826   5.932   3.246 -2.0435 -1.1827 -2.6453
 9893TIP3   OH251093   6.457   6.650   0.680 -0.0008 -0.5626  0.1144
 9893TIP3    H151094   6.421   6.567   0.712  1.1216 -1.6486 -1.3240
 9893TIP3    H251095   6.548   6.650   0.711 -0.2786  0.6464  0.9912
 9894TIP3   OH251096   6.668   1.350   0.364 -0.0844 -0.0978 -0.2613
 9894TIP3    H151097   6.721   1.425   0.393 -1.0596  1.1205 -1.4704
 9894TIP3    H251098   6.602   1.339   0.432 -0.7408  1.0164 -0.7000
 9895TIP3   OH251099   4.545   2.667  14.235 -0.8952 -0.3745 -0.0536
 9895TIP3    H151100   4.485   2.709  14.174 -1.6928 -0.7343  0.4665
 9895TIP3    H251101   4.602   2.613  14.180  1.1539  2.4629 -0.9119
 9896TIP3   OH251102   1.631   2.334   3.736 -0.3379 -0.0894 -0.0716
 9896TIP3    H151103   1.554   2.356   3.788  0.7770  1.0443  1.1691
 9896TIP3    H251104   1.705   2.347   3.795  0.7441 -2.6523 -0.7505
 9897TIP3   OH251105   5.800   0.403   2.259  0.2120 -0.4876 -0.8059
 9897TIP3    H151106   5.861   0.460   2.307  0.9657 -0.0126 -2.2584
 9897TIP3    H251107   5.713   0.437   2.280  0.4600 -0.8122  0.8504
 9898TIP3   OH251108   4.190   3.830   3.576  0.1165  0.2485  0.1168
 9898TIP3    H151109   4.213   3.812   3.485  1.0184  0.4157  0.3015
 9898TIP3    H251110   4.162   3.746   3.611 -1.9002  0.4946 -0.7646
 9899TIP3   OH251111   3.943   4.328  12.913  0.4438  0.6635 -0.3011
 9899TIP3    H151112   3.992   4.409  12.900  1.6902 -0.0992 -0.4763
 9899TIP3    H251113   3.854   4.349  12.884  0.8513  1.8350 -0.7577
 9900TIP3   OH251114   0.386   1.915   1.660 -0.2381  0.5707  0.1838
 9900TIP3    H151115   0.427   1.830   1.650 -1.2557  0.0381  0.3822
 9900TIP3    H251116   0.357   1.939   1.572  0.5342  0.9765  0.0326
 9901TIP3   OH251117   4.939   5.112  16.424 -0.8687 -0.0021 -0.2344
 9901TIP3    H151118   4.942   5.023  16.390  0.5786 -1.1521  2.5734
 9901TIP3    H251119   4.985   5.165  16.359  1.0016 -1.8945 -0.5618
 9902TIP3   OH251120   4.386   5.752   1.711  0.1604  0.3284  0.0579
 9902TIP3    H151121   4.304   5.799   1.722 -1.2996 -2.3847  1.8565
 9902TIP3    H251122   4.450   5.803   1.760 -1.1404  0.9482  1.1764
 9903TIP3   OH251123   5.305   1.326   2.443 -0.4857 -0.3742 -0.1802
 9903TIP3    H151124   5.378   1.269   2.422 -0.1744 -0.4579  1.0563
 9903TIP3    H251125   5.296   1.321   2.538 -1.5161  0.3434 -0.2099
 9904TIP3   OH251126   2.035   6.748  12.418 -0.0418 -0.3008  0.2629
 9904TIP3    H151127   2.105   6.741  12.484  1.1799  1.0972 -0.7923
 9904TIP3    H251128   1.956   6.767  12.469  0.8029  0.4119  1.3730
 9905TIP3   OH251129   5.796   2.956  13.671 -0.0797 -0.0084 -0.1473
 9905TIP3    H151130   5.785   3.041  13.629 -0.6688 -0.3356 -0.6798
 9905TIP3    H251131   5.773   2.972  13.763 -1.4228  0.1569 -0.4881
 9906TIP3   OH251132   3.302   3.139  15.665 -0.5767 -0.0314 -0.5518
 9906TIP3    H151133   3.209   3.119  15.657 -0.6323  0.2241 -0.5431
 9906TIP3    H251134   3.341   3.058  15.700 -0.9277  0.1490  0.2794
 9907TIP3   OH251135   3.143   5.406  11.697 -0.1575  0.1580 -0.6582
 9907TIP3    H151136   3.116   5.315  11.684  1.1061 -0.4240  0.5928
 9907TIP3    H251137   3.235   5.401  11.721  0.2809  1.8745 -1.8060
 9908TIP3   OH251138   4.897   3.087  12.192  0.3937  0.9551  0.3439
 9908TIP3    H151139   4.978   3.041  12.215  0.7423  1.1420 -0.4823
 9908TIP3    H251140   4.835   3.062  12.261  0.9481  0.2558  0.6004
 9909TIP3   OH251141   6.684   4.879  13.545  0.3305 -0.0964  0.0605
 9909TIP3    H151142   6.704   4.790  13.516  0.0691  0.0561 -0.5998
 9909TIP3    H251143   6.612   4.868  13.608 -0.7233 -0.2414 -1.1291
 9910TIP3   OH251144   1.360   6.545   5.959  0.7328  0.2693  0.4197
 9910TIP3    H151145   1.434   6.565   6.017  0.8148  1.3460 -0.0331
 9910TIP3    H251146   1.381   6.592   5.878 -0.0333 -0.1301 -0.0137
 9911TIP3   OH251147   0.488   3.672  13.151 -0.2503  0.0268 -0.2492
 9911TIP3    H151148   0.497   3.757  13.106 -0.1006  0.4885  0.6287
 9911TIP3    H251149   0.448   3.694  13.235  0.2096 -0.7204  0.1723
 9912TIP3   OH251150   3.631   3.879   0.989  0.2718 -0.6775  0.7956
 9912TIP3    H151151   3.618   3.865   0.895  2.5243  0.3523  0.2613
 9912TIP3    H251152   3.710   3.933   0.995  0.4690 -1.1115  3.3225
 9913TIP3   OH251153   0.529   3.444  16.116  0.1672 -0.3758 -0.2617
 9913TIP3    H151154   0.521   3.540  16.113 -1.0645 -0.4491 -0.0514
 9913TIP3    H251155   0.578   3.422  16.037 -0.5407  0.3679 -0.9401
 9914TIP3   OH251156   3.844   2.406   2.238  0.2540 -0.1282  0.0552
 9914TIP3    H151157   3.835   2.374   2.328  1.0549  1.2864  0.6689
 9914TIP3    H251158   3.911   2.474   2.244  0.2850  0.0161 -1.6141
 9915TIP3   OH251159   2.008   2.296  15.717 -1.0489  0.0393 -0.3485
 9915TIP3    H151160   2.033   2.333  15.632 -2.1993  1.2920 -0.1825
 9915TIP3    H251161   2.072   2.332  15.779  1.6875 -3.2145 -0.9824
 9916TIP3   OH251162   1.525   3.020  16.856  0.1534  0.5856  0.2373
 9916TIP3    H151163   1.429   3.015  16.851  0.2136  0.4764 -1.3243
 9916TIP3    H251164   1.546   2.983  16.942 -1.3096  2.5266  1.5213
 9917TIP3   OH251165   2.149   3.303   3.860  0.1229  0.3250  0.4260
 9917TIP3    H151166   2.194   3.245   3.799 -0.5914 -0.5136  0.6754
 9917TIP3    H251167   2.142   3.386   3.813  0.2725 -0.0803 -0.3285
 9918TIP3   OH251168   3.224   0.556  15.075  0.6820  0.0308 -0.3063
 9918TIP3    H151169   3.299   0.508  15.111 -0.6089 -0.2119  2.3270
 9918TIP3    H251170   3.152   0.493  15.079 -0.5845  1.4936  1.2522
 9919TIP3   OH251171   5.398   4.320  15.160 -0.9242 -0.0964  0.5120
 9919TIP3    H151172   5.465   4.375  15.118 -1.0034 -1.6520 -1.8613
 9919TIP3    H251173   5.329   4.381  15.184 -0.2475  1.0839 -0.3901
 9920TIP3   OH251174   2.528   0.069  11.364 -0.6352  0.5133 -0.2959
 9920TIP3    H151175   2.577   0.100  11.287 -0.2784 -1.7781 -1.0612
 9920TIP3    H251176   2.440   0.051  11.330 -0.9480  1.0544  0.2219
 9921TIP3   OH251177   1.916   1.695   0.151  0.7168  0.2205  0.7085
 9921TIP3    H151178   1.896   1.750   0.227 -0.1749 -0.0736  0.7038
 9921TIP3    H251179   1.838   1.640   0.140  1.1305 -0.2505  0.0221
 9922TIP3   OH251180   0.191   2.722   2.578  0.1229 -0.1502 -0.0905
 9922TIP3    H151181   0.178   2.634   2.542  1.1841 -0.1556 -0.4898
 9922TIP3    H251182   0.153   2.718   2.665  1.4958 -1.4687  0.4999
 9923TIP3   OH251183   4.499   4.299   3.849  0.3511 -0.0351  0.2098
 9923TIP3    H151184   4.474   4.218   3.895 -0.3729  0.2124  0.2654
 9923TIP3    H251185   4.569   4.336   3.903 -0.2480  0.0756  0.9361
 9924TIP3   OH251186   4.653   0.197  11.350  0.5747  0.1066  0.4218
 9924TIP3    H151187   4.615   0.163  11.431  0.3262 -0.4577  0.0698
 9924TIP3    H251188   4.664   0.291  11.367 -2.6729  0.6977 -0.0439
 9925TIP3   OH251189   1.732   3.480   0.896  0.2136 -0.4370  0.2500
 9925TIP3    H151190   1.758   3.548   0.834  1.1343 -0.2655  0.8108
 9925TIP3    H251191   1.637   3.489   0.904  0.3797  1.0757  0.6704
 9926TIP3   OH251192   1.394   3.745  10.745 -0.1779  0.3848  0.1086
 9926TIP3    H151193   1.303   3.772  10.736 -0.5160 -0.8255 -0.2320
 9926TIP3    H251194   1.390   3.650  10.756  0.9559  0.4468  1.4286
 9927TIP3   OH251195   1.921   2.567  16.233  0.2319  0.4098  0.0316
 9927TIP3    H151196   1.967   2.537  16.312 -0.7583 -0.6923  0.2124
 9927TIP3    H251197   1.837   2.599  16.266 -0.4074 -0.5578 -0.6151
 9928TIP3   OH251198   1.304   6.024  14.083 -0.2837  0.6830  0.1009
 9928TIP3    H151199   1.251   6.033  14.004 -1.2561 -0.3629  0.6128
 9928TIP3    H251200   1.346   6.109  14.093 -0.3914  0.9365 -1.3582
 9929TIP3   OH251201   6.444   5.359  11.323  0.1460 -0.0923 -0.1930
 9929TIP3    H151202   6.413   5.270  11.341 -1.4245  0.1897 -1.2679
 9929TIP3    H251203   6.413   5.377  11.234 -0.6411  1.9777  0.4653
 9930TIP3   OH251204   1.930   4.875   5.806 -0.6066 -0.6166  0.1744
 9930TIP3    H151205   1.990   4.931   5.855 -0.6396 -0.5686  0.1598
 9930TIP3    H251206   1.987   4.817   5.755 -0.5718 -0.8008  0.4224
 9931TIP3   OH251207   3.654   2.751   3.314 -0.7661  0.7159 -0.0160
 9931TIP3    H151208   3.569   2.752   3.271 -0.3614  0.4654 -0.8339
 9931TIP3    H251209   3.672   2.659   3.330  0.0491  0.6269 -1.2817
 9932TIP3   OH251210   1.242   3.275   6.260  0.0386 -0.2962 -0.3403
 9932TIP3    H151211   1.317   3.219   6.238 -0.0656  0.5196 -3.1576
 9932TIP3    H251212   1.167   3.229   6.223 -0.3640  0.5754 -0.6090
 9933TIP3   OH251213   5.625   5.809   0.605 -0.3639 -0.2995 -0.1384
 9933TIP3    H151214   5.599   5.896   0.634  1.1321  0.5330 -1.1349
 9933TIP3    H251215   5.578   5.795   0.523 -0.9713 -0.6479  0.2631
 9934TIP3   OH251216   1.237   2.751   1.429  0.0885  0.4480 -0.4780
 9934TIP3    H151217   1.150   2.720   1.405  0.9667 -0.6424 -2.4155
 9934TIP3    H251218   1.247   2.726   1.521 -0.8325 -1.3802 -0.8325
 9935TIP3   OH251219   2.538   1.710   4.661  0.0495 -0.0094  0.4019
 9935TIP3    H151220   2.622   1.729   4.703 -0.7340 -1.1699  2.5753
 9935TIP3    H251221   2.562   1.662   4.581  1.4697  0.2932  0.6171
 9936TIP3   OH251222   4.069   2.636  11.313 -0.4127 -0.2054 -0.4250
 9936TIP3    H151223   4.006   2.599  11.251  0.1500 -0.2320 -0.9894
 9936TIP3    H251224   4.016   2.690  11.372 -1.1065 -1.0851 -0.2256
 9937TIP3   OH251225   2.309   4.262   1.909  0.3590 -0.3779  0.3820
 9937TIP3    H151226   2.226   4.299   1.937  1.1249 -0.4191  2.8939
 9937TIP3    H251227   2.342   4.214   1.985  2.6963 -0.3474 -0.5124
 9938TIP3   OH251228   1.843   6.268  15.662 -0.1483  0.8625 -0.2663
 9938TIP3    H151229   1.763   6.243  15.709  0.4032  1.2519  0.9162
 9938TIP3    H251230   1.890   6.324  15.723  0.5387  1.5070 -1.3531
 9939TIP3   OH251231   0.738   2.629  12.048  0.3816 -1.0847  0.2048
 9939TIP3    H151232   0.743   2.706  11.992 -2.3789 -0.6021  0.4568
 9939TIP3    H251233   0.644   2.617  12.063  0.8284 -3.5002  1.5694
 9940TIP3   OH251234   1.539   5.833  14.057  0.1043 -0.0281 -0.6733
 9940TIP3    H151235   1.478   5.902  14.081  0.2167 -0.0318 -0.3654
 9940TIP3    H251236   1.551   5.783  14.138  0.6680  0.0946 -0.6753
 9941TIP3   OH251237   6.321   3.762   1.362  0.3439 -0.0224 -0.6305
 9941TIP3    H151238   6.359   3.706   1.294  1.8613  2.5108 -2.0128
 9941TIP3    H251239   6.303   3.845   1.318 -2.5683  0.4210  1.1405
 9942TIP3   OH251240   5.599   1.069  15.821  0.2180 -0.2846 -0.9077
 9942TIP3    H151241   5.547   1.032  15.892 -1.2333  0.8015 -1.3463
 9942TIP3    H251242   5.689   1.066  15.853 -0.6117  3.4227  2.6567
 9943TIP3   OH251243   3.380   6.468   2.027 -0.5695  0.1453 -0.1971
 9943TIP3    H151244   3.296   6.422   2.036 -0.7928  0.7202  0.7254
 9943TIP3    H251245   3.363   6.556   2.060  0.2835  0.4090 -0.4377
 9944TIP3   OH251246   1.017   4.162   3.127 -0.1759 -0.7108  0.0400
 9944TIP3    H151247   0.979   4.227   3.068  0.8204  0.9053  1.0973
 9944TIP3    H251248   0.941   4.122   3.171 -0.8603 -1.1506 -1.4867
 9945TIP3   OH251249   0.711   0.640   3.064 -0.0563 -0.8542  0.0858
 9945TIP3    H151250   0.763   0.578   3.117 -0.6155 -0.0331  1.6677
 9945TIP3    H251251   0.622   0.632   3.099  0.0850  1.7546  1.2809
 9946TIP3   OH251252   3.453   4.125  14.878 -0.3528 -0.2841 -0.5039
 9946TIP3    H151253   3.397   4.193  14.842  0.5265  3.1361  3.7346
 9946TIP3    H251254   3.417   4.107  14.965  1.0524 -3.4123 -0.4151
 9947TIP3   OH251255   2.410   2.973  11.162  0.1597 -0.2009 -0.2314
 9947TIP3    H151256   2.378   2.946  11.076 -1.5219 -0.3848  0.4018
 9947TIP3    H251257   2.441   2.893  11.203 -0.6237 -0.4129 -0.0430
 9948TIP3   OH251258   4.321   5.852   0.952 -0.1292 -0.0555  0.7084
 9948TIP3    H151259   4.385   5.884   0.889  0.6558 -0.0939  1.4603
 9948TIP3    H251260   4.249   5.916   0.948  0.5395  0.7223  0.7846
 9949TIP3   OH251261   2.438   1.991   2.843  0.7469  0.0426  0.0965
 9949TIP3    H151262   2.354   1.973   2.884  1.4324 -0.8714  1.1971
 9949TIP3    H251263   2.444   2.086   2.840 -0.3875  0.1169 -0.1590
 9950TIP3   OH251264   5.623   5.179   6.359  0.3375 -0.2711  0.0523
 9950TIP3    H151265   5.582   5.098   6.331  0.5238 -0.7286  1.0947
 9950TIP3    H251266   5.552   5.244   6.358 -0.5194 -1.1002  2.0658
 9951TIP3   OH251267   0.454   1.806   2.479 -0.3990  0.6221  0.3837
 9951TIP3    H151268   0.426   1.797   2.388  3.4599 -2.1454 -0.7665
 9951TIP3    H251269   0.423   1.893   2.505 -2.9498  0.9110 -2.9920
 9952TIP3   OH251270   0.668   5.582   5.370 -0.0488  0.4490  0.0357
 9952TIP3    H151271   0.591   5.527   5.354  0.9651 -0.8064 -0.6881
 9952TIP3    H251272   0.658   5.610   5.461 -1.8284  1.0942 -0.3123
 9953TIP3   OH251273   1.557   1.728  16.933  0.4190  0.3673 -0.0162
 9953TIP3    H151274   1.588   1.770  17.014  3.0444 -1.2563 -0.0804
 9953TIP3    H251275   1.619   1.758  16.866 -0.3126 -0.1523 -0.9368
 9954TIP3   OH251276   3.927   5.308   6.578 -0.2093  0.1676  0.3940
 9954TIP3    H151277   3.971   5.377   6.628 -1.9388  0.4296  1.6294
 9954TIP3    H251278   3.996   5.243   6.561  1.1956  1.6513  0.1413
 9955TIP3   OH251279   0.561   5.075   0.301  0.1347  0.2602 -0.1658
 9955TIP3    H151280   0.535   5.157   0.260  2.2637  0.6024 -0.9673
 9955TIP3    H251281   0.509   5.008   0.255 -0.5077  1.0179 -0.5675
 9956TIP3   OH251282   0.905   2.143  14.941 -0.4605  0.2062 -0.0034
 9956TIP3    H151283   0.883   2.051  14.952  2.0892 -0.2503  2.3736
 9956TIP3    H251284   0.994   2.151  14.976  0.0103  3.3015 -1.5223
 9957TIP3   OH251285   4.006   2.376  12.754 -0.2788  0.5337 -0.2079
 9957TIP3    H151286   4.025   2.287  12.723 -0.6696  1.3317 -3.0128
 9957TIP3    H251287   4.086   2.403  12.799  0.1926 -0.8979 -0.1272
 9958TIP3   OH251288   5.108   1.389  16.430 -0.1976  0.5485  0.5191
 9958TIP3    H151289   5.176   1.370  16.495 -0.0620 -1.3315 -0.1368
 9958TIP3    H251290   5.156   1.417  16.352 -0.2143 -0.0848  0.2827
 9959TIP3   OH251291   1.498   5.848  12.246 -0.1431 -0.4487  0.2726
 9959TIP3    H151292   1.574   5.892  12.283 -0.3699  0.1489  0.0455
 9959TIP3    H251293   1.424   5.880  12.297 -0.4446  0.2884 -0.5872
 9960TIP3   OH251294   6.720   1.196   1.312  0.5490  0.2165  0.4537
 9960TIP3    H151295   6.667   1.145   1.373 -0.2327 -0.1166 -0.4793
 9960TIP3    H251296   6.681   1.284   1.314  0.0475  0.0106 -0.1196
 9961TIP3   OH251297   4.385   0.335   5.257 -0.3186 -0.4639 -0.1106
 9961TIP3    H151298   4.312   0.279   5.281  0.2212 -1.5310 -0.8493
 9961TIP3    H251299   4.391   0.328   5.162  0.0905  0.4537 -0.1706
 9962TIP3   OH251300   5.254   3.125  12.570  0.2135 -0.3483  0.8314
 9962TIP3    H151301   5.286   3.051  12.519 -1.1232  0.2295 -0.9258
 9962TIP3    H251302   5.159   3.113  12.573 -0.4317  2.7379 -2.0130
 9963TIP3   OH251303   4.277   2.888  16.247 -0.1393  0.2238 -0.6221
 9963TIP3    H151304   4.220   2.863  16.320 -0.0417  1.0403 -0.2548
 9963TIP3    H251305   4.364   2.895  16.286  0.2387 -1.0138 -1.1794
 9964TIP3   OH251306   1.453   5.764   0.987 -0.4930 -0.6527 -0.1902
 9964TIP3    H151307   1.538   5.808   0.987 -0.4925 -0.6397  0.8981
 9964TIP3    H251308   1.407   5.800   0.911 -0.5288  1.3027  0.7035
 9965TIP3   OH251309   2.656   0.595  11.272  0.4625  0.1439 -0.4725
 9965TIP3    H151310   2.650   0.684  11.309  0.7429 -0.5622  1.3769
 9965TIP3    H251311   2.705   0.606  11.191  1.6283  1.5295  0.3595
 9966TIP3   OH251312   5.581   2.745  13.535  0.4210  0.5700 -0.0089
 9966TIP3    H151313   5.515   2.747  13.466  1.1207 -0.4241 -0.7363
 9966TIP3    H251314   5.634   2.823  13.520 -0.4979  1.3305  0.5284
 9967TIP3   OH251315   0.781   6.139   1.456  0.1808  0.3294 -0.1330
 9967TIP3    H151316   0.708   6.145   1.394 -1.2280  2.3556  1.5760
 9967TIP3    H251317   0.769   6.054   1.499  0.4418 -0.5291 -1.6881
 9968TIP3   OH251318   5.629   3.930   0.824 -0.1926 -0.1590  0.2013
 9968TIP3    H151319   5.599   3.927   0.733 -0.3923 -1.4384  0.2960
 9968TIP3    H251320   5.572   3.994   0.866  0.4547  1.0896 -0.7533
 9969TIP3   OH251321   1.464   5.387   1.515  0.0561  0.2249  0.2493
 9969TIP3    H151322   1.513   5.343   1.446  1.5244  2.4050 -0.1871
 9969TIP3    H251323   1.498   5.350   1.597  0.8573  0.1661 -0.1114
 9970TIP3   OH251324   2.570   4.969   2.974  0.5335 -0.7518 -0.0027
 9970TIP3    H151325   2.584   5.023   2.896 -0.3483  2.2946  1.7403
 9970TIP3    H251326   2.480   4.989   3.000 -0.2933 -4.1223  0.1610
 9971TIP3   OH251327   1.632   4.141   4.189  0.0880 -0.4710  0.3155
 9971TIP3    H151328   1.569   4.098   4.247 -1.6563  0.9707 -0.4154
 9971TIP3    H251329   1.654   4.074   4.124  1.1134 -1.7118  1.8692
 9972TIP3   OH251330   0.027   6.715  12.452 -0.2964  0.0201  0.0396
 9972TIP3    H151331   0.024   6.630  12.494  1.7250  0.8940  2.1521
 9972TIP3    H251332  -0.023   6.773  12.510  0.2708  0.7307 -0.1600
 9973TIP3   OH251333   3.952   2.990  16.110  0.0533 -0.1209  0.1356
 9973TIP3    H151334   3.891   3.013  16.181  1.8799 -0.6560  1.9493
 9973TIP3    H251335   3.921   2.905  16.080 -0.2199 -0.3091  0.9056
 9974TIP3   OH251336   2.745   6.104   6.179  0.4827  0.2300  0.2345
 9974TIP3    H151337   2.772   6.196   6.167 -1.7235  1.2128  2.0902
 9974TIP3    H251338   2.818   6.064   6.227  1.2720  1.1255 -0.1851
 9975TIP3   OH251339   3.488   4.236   4.615  0.5046  0.4750 -0.0547
 9975TIP3    H151340   3.409   4.200   4.574  2.0011 -0.4925 -2.2208
 9975TIP3    H251341   3.474   4.222   4.709 -1.5091 -0.4588 -0.4422
 9976TIP3   OH251342   6.227   4.676   0.820  0.7611  0.0583 -0.6512
 9976TIP3    H151343   6.202   4.643   0.733 -0.0823  0.0289 -0.4012
 9976TIP3    H251344   6.147   4.669   0.872  1.1929  0.3380  0.0539
 9977TIP3   OH251345   1.846   0.717   3.271  0.6644  0.3174  0.5212
 9977TIP3    H151346   1.775   0.747   3.214  0.1642 -0.3842  0.7558
 9977TIP3    H251347   1.915   0.691   3.211 -0.3894 -1.7666  0.1179
 9978TIP3   OH251348   3.799   5.464  15.171 -0.4327  0.2691  0.0422
 9978TIP3    H151349   3.793   5.527  15.243 -1.6142 -0.2285  0.3931
 9978TIP3    H251350   3.891   5.467  15.145 -0.3619  1.7943  0.3640
 9979TIP3   OH251351   0.694   3.359  15.884 -0.7854 -0.4290 -0.5199
 9979TIP3    H151352   0.672   3.382  15.793 -0.1611 -1.2513 -0.8946
 9979TIP3    H251353   0.735   3.273  15.877  1.9656  0.7330  0.1995
 9980TIP3   OH251354   4.494   1.776   3.511 -0.0209 -0.0263 -0.0768
 9980TIP3    H151355   4.562   1.732   3.563  0.4257  0.4852 -0.2293
 9980TIP3    H251356   4.529   1.777   3.422  0.3528  1.3864  0.0693
 9981TIP3   OH251357   2.351   4.298  16.619  0.1779 -0.0978  0.1336
 9981TIP3    H151358   2.283   4.277  16.683 -1.4041  1.3725 -0.9712
 9981TIP3    H251359   2.424   4.331  16.672 -0.7208  0.1775  1.2393
 9982TIP3   OH251360   4.775   6.267   0.817 -0.3113 -0.6270  0.3582
 9982TIP3    H151361   4.852   6.271   0.761 -0.5560  1.7628  0.0534
 9982TIP3    H251362   4.808   6.293   0.904 -0.3167 -2.2375  0.8636
 9983TIP3   OH251363   4.484   2.455  12.977 -0.3415  0.2186 -0.3598
 9983TIP3    H151364   4.546   2.481  13.045 -0.8033 -1.3137  0.7161
 9983TIP3    H251365   4.536   2.454  12.896  1.0405 -0.9254  0.4879
 9984TIP3   OH251366   3.589   3.991  12.749 -0.3826  0.0885  0.2170
 9984TIP3    H151367   3.651   3.929  12.786 -1.3339 -1.1633 -0.2062
 9984TIP3    H251368   3.641   4.047  12.692  0.5538 -0.0592  0.9053
 9985TIP3   OH251369   5.273   2.710   2.862  0.2621  0.2316 -0.2837
 9985TIP3    H151370   5.270   2.639   2.797 -0.7650  1.1219 -1.2438
 9985TIP3    H251371   5.362   2.708   2.895  0.5617 -0.8163 -1.0871
 9986TIP3   OH251372   4.614   6.658  16.538 -0.2172 -0.1938 -0.6273
 9986TIP3    H151373   4.528   6.615  16.542 -1.0490  1.4900  1.2420
 9986TIP3    H251374   4.618   6.696  16.450 -1.3805 -0.2877 -0.7378
 9987TIP3   OH251375   2.223   4.562   2.170 -0.3916 -0.1261  0.4367
 9987TIP3    H151376   2.211   4.587   2.079  0.1759 -1.4723 -0.0358
 9987TIP3    H251377   2.162   4.618   2.219 -0.6846  0.6284 -0.7487
 9988TIP3   OH251378   5.845   5.192  14.380 -0.4774 -0.3420  0.1176
 9988TIP3    H151379   5.756   5.220  14.359 -0.7655 -0.5210  1.0832
 9988TIP3    H251380   5.895   5.273  14.389 -0.8581 -0.1985  0.9442
 9989TIP3   OH251381   6.687   4.993  15.535  0.0687  0.2413 -0.4340
 9989TIP3    H151382   6.593   4.973  15.538  0.0535 -0.1295 -2.2200
 9989TIP3    H251383   6.729   4.916  15.573 -0.2061 -1.5782 -3.4781
 9990TIP3   OH251384   1.881   1.241  13.351 -0.4561  0.0062 -0.1824
 9990TIP3    H151385   1.872   1.177  13.421  0.1784 -0.2332 -0.3107
 9990TIP3    H251386   1.817   1.309  13.371 -0.5355 -0.2457  0.4253
 9991TIP3   OH251387   2.093   6.653   2.073 -0.1174 -0.1560 -0.3883
 9991TIP3    H151388   2.042   6.657   2.154  0.3455  0.7064 -0.1321
 9991TIP3    H251389   2.169   6.600   2.095 -1.1771 -2.0253 -0.9527
 9992TIP3   OH251390   4.892   1.515  16.473  0.1494 -0.9655 -0.0855
 9992TIP3    H151391   4.985   1.498  16.455  0.3284 -0.8138  0.6520
 9992TIP3    H251392   4.858   1.432  16.505  0.0941 -0.9547 -0.1160
 9993TIP3   OH251393   6.369   4.030   3.178 -0.4358  0.7228  0.3573
 9993TIP3    H151394   6.405   3.945   3.153  0.0046  1.4299 -1.5116
 9993TIP3    H251395   6.274   4.019   3.171 -0.3533  1.1398 -2.7885
 9994TIP3   OH251396   0.263   5.500  13.841 -0.4855  0.1096  0.3207
 9994TIP3    H151397   0.292   5.409  13.841 -0.2178  0.1914 -0.3155
 9994TIP3    H251398   0.180   5.499  13.889 -1.1634 -0.6923 -0.8158
 9995TIP3   OH251399   3.604   3.570   3.267 -0.3849 -0.3373 -0.4918
 9995TIP3    H151400   3.571   3.503   3.207 -0.9834  0.0805 -0.6442
 9995TIP3    H251401   3.633   3.641   3.209 -0.6676 -0.0672 -0.3086
 9996TIP3   OH251402   5.836   5.695  14.658 -0.0887  0.7324 -0.6202
 9996TIP3    H151403   5.786   5.767  14.620 -0.2657  1.7296  1.4109
 9996TIP3    H251404   5.782   5.662  14.729  1.1461  0.3192  0.1556
 9997TIP3   OH251405   2.912   0.130  12.532  0.2855 -0.1433  0.2631
 9997TIP3    H151406   2.898   0.043  12.496  0.5213  0.2778 -0.9020
 9997TIP3    H251407   2.971   0.173  12.470  0.7714  0.6038  1.2053
 9998TIP3   OH251408   4.774   6.535   2.550 -0.1737 -0.1074 -0.0710
 9998TIP3    H151409   4.854   6.498   2.589  0.4430  0.5920 -0.6392
 9998TIP3    H251410   4.703   6.503   2.606  0.6478  0.5882  1.4335
 9999TIP3   OH251411   4.188   0.975  11.964  0.2375  0.5958  0.3336
 9999TIP3    H151412   4.207   1.065  11.935 -2.6687  0.3148 -3.2019
 9999TIP3    H251413   4.093   0.971  11.968  0.1279 -2.8324 -1.8992
10000TIP3   OH251414   5.727   5.741  15.324  0.0025 -0.6053  0.4499
10000TIP3    H151415   5.784   5.731  15.399  0.8727 -0.5769 -0.1873
10000TIP3    H251416   5.651   5.687  15.343  0.7142 -1.4855  0.8560
10001TIP3   OH251417   0.002   2.067  14.089  0.2606 -0.2090 -0.0099
10001TIP3    H151418   0.024   2.143  14.142  1.8449 -1.8784  1.9315
10001TIP3    H251419   0.077   2.008  14.101 -0.9995 -2.1688 -1.2276
10002TIP3   OH251420   1.315   2.590  11.425  0.4722  0.5082 -0.2848
10002TIP3    H151421   1.341   2.680  11.443  0.8410  0.5655 -1.0811
10002TIP3    H251422   1.363   2.539  11.491  2.0314  0.6937 -1.2307
10003TIP3   OH251423   0.287   1.667   4.437 -0.0671  0.2461  0.2076
10003TIP3    H151424   0.296   1.572   4.442 -0.2055  0.1857 -0.5442
10003TIP3    H251425   0.368   1.697   4.397 -0.0179  0.4446  0.4552
10004TIP3   OH251426   2.517   5.102   2.726  0.1180 -0.2301 -0.7853
10004TIP3    H151427   2.606   5.139   2.726 -0.0338  0.2001  0.7569
10004TIP3    H251428   2.464   5.169   2.683  0.3567 -0.0048 -0.7344
10005TIP3   OH251429   5.442   0.987  14.156 -0.2791 -0.5034 -0.6083
10005TIP3    H151430   5.510   0.983  14.089  0.2605  0.4922 -0.1365
10005TIP3    H251431   5.486   0.959  14.236 -0.8123 -1.2748 -0.5784
10006TIP3   OH251432   4.357   3.810   0.413 -0.9159 -0.2488  0.2999
10006TIP3    H151433   4.363   3.845   0.501 -2.5181  0.4829  0.1646
10006TIP3    H251434   4.447   3.790   0.388 -0.1152  1.9550  1.1384
10007TIP3   OH251435   1.770   4.962  16.899  0.5209 -0.4664  0.0755
10007TIP3    H151436   1.691   4.990  16.853  1.3457 -1.0052 -1.7515
10007TIP3    H251437   1.790   5.034  16.958 -1.7668 -0.6697  1.2123
10008TIP3   OH251438   0.918   3.215   4.995  0.5924 -0.5452  0.5112
10008TIP3    H151439   0.863   3.187   5.067 -0.4416 -0.8565 -0.3676
10008TIP3    H251440   0.947   3.303   5.019 -2.5301  0.8007 -0.1596
10009TIP3   OH251441   2.261   2.646  14.311 -0.3014  0.3608 -0.0162
10009TIP3    H151442   2.323   2.575  14.289  0.5563  0.2892  2.3093
10009TIP3    H251443   2.211   2.611  14.385  0.0788  2.1145  1.1286
10010TIP3   OH251444   5.508   2.338   0.327 -0.1619  0.3105 -0.3077
10010TIP3    H151445   5.487   2.407   0.263  0.2253 -0.4425 -1.2732
10010TIP3    H251446   5.442   2.349   0.396 -0.5768  1.1629 -0.8202
10011TIP3   OH251447   2.452   6.546   3.780 -0.0029  0.0318 -0.0830
10011TIP3    H151448   2.509   6.621   3.796  0.1059  0.2457 -1.4175
10011TIP3    H251449   2.394   6.573   3.709  0.4936 -1.3634 -1.0573
10012TIP3   OH251450   5.686   6.376   4.375  0.1037 -0.3329  0.2613
10012TIP3    H151451   5.612   6.317   4.361  0.3004 -0.4222 -0.4330
10012TIP3    H251452   5.647   6.462   4.383 -0.1884 -0.5469  1.2924
10013TIP3   OH251453   2.871   1.422  13.067  0.3001 -0.4675 -0.3551
10013TIP3    H151454   2.875   1.404  12.973  0.7835  3.0761 -1.1247
10013TIP3    H251455   2.834   1.342  13.104 -1.1905 -1.5190 -3.6836
10014TIP3   OH251456   0.284   6.146   2.157 -0.1279  0.5289 -0.3170
10014TIP3    H151457   0.341   6.123   2.084 -0.1460  0.1664 -0.2184
10014TIP3    H251458   0.207   6.090   2.146 -0.7306  1.4204 -0.7807
10015TIP3   OH251459   4.476   3.857   2.999  0.6948 -0.2993 -0.2091
10015TIP3    H151460   4.502   3.859   2.907  0.0174 -0.8172 -0.4194
10015TIP3    H251461   4.435   3.771   3.010 -0.1575  0.1726  0.3166
10016TIP3   OH251462   5.200   3.020   3.935 -0.0269  0.4072 -0.4800
10016TIP3    H151463   5.110   3.048   3.955 -0.2730 -1.3439  1.2567
10016TIP3    H251464   5.244   3.020   4.020  0.8670 -1.1483 -0.9016
10017TIP3   OH251465   4.906   1.708   5.403 -0.4996  0.2496 -0.2125
10017TIP3    H151466   4.979   1.685   5.346 -0.7476  0.9532 -0.8306
10017TIP3    H251467   4.901   1.637   5.467  0.9244  0.3471  0.0310
10018TIP3   OH251468   0.632   3.636   2.001 -0.3867 -0.3370  0.1776
10018TIP3    H151469   0.715   3.588   1.992 -0.2082 -0.4940  2.2142
10018TIP3    H251470   0.590   3.597   2.077 -0.4970  2.3104  1.6086
10019TIP3   OH251471   6.325   5.620   5.442 -0.1629 -0.7653  0.1323
10019TIP3    H151472   6.391   5.570   5.490 -0.0134  0.5425  1.3694
10019TIP3    H251473   6.269   5.657   5.510  0.0879  1.1908 -0.6550
10020TIP3   OH251474   2.543   2.364  10.963 -0.4265 -0.4523 -0.4329
10020TIP3    H151475   2.523   2.450  10.926 -1.3807 -0.4187  0.1070
10020TIP3    H251476   2.565   2.310  10.888  0.6456  0.3701 -0.7373
10021TIP3   OH251477   1.362   4.244  11.071  0.3225 -0.5376 -0.1045
10021TIP3    H151478   1.328   4.215  10.986 -0.7151  1.6431 -0.5059
10021TIP3    H251479   1.409   4.325  11.051 -0.4350  0.3253  1.4513
10022TIP3   OH251480   3.870   1.730  14.849  0.9741  0.2149  0.3198
10022TIP3    H151481   3.957   1.771  14.845  1.1965 -0.2993 -0.2396
10022TIP3    H251482   3.888   1.637  14.861  0.5272 -0.0108 -0.6862
10023TIP3   OH251483   1.919   2.528   0.619  0.3370  0.6909 -0.1810
10023TIP3    H151484   1.848   2.522   0.555  0.2496 -0.6221  0.0149
10023TIP3    H251485   1.998   2.541   0.565 -0.0309  2.2359 -0.3925
10024TIP3   OH251486   4.930   0.399  14.893 -0.0333  0.0811  0.0801
10024TIP3    H151487   4.915   0.492  14.907 -0.5862 -0.1360  1.0708
10024TIP3    H251488   4.850   0.357  14.925  0.0761 -0.7202 -0.6465
10025TIP3   OH251489   1.563   5.684  14.532  0.0248  0.4551  0.0451
10025TIP3    H151490   1.517   5.768  14.522 -1.4141 -0.0052  2.0690
10025TIP3    H251491   1.640   5.705  14.584 -1.6544  0.2664  2.8310
10026TIP3   OH251492   2.983   5.736  16.844 -0.4069 -0.7300  0.3533
10026TIP3    H151493   2.896   5.771  16.825  0.2980  0.2371 -1.3740
10026TIP3    H251494   3.026   5.805  16.895  0.5539  0.5465 -1.9882
10027TIP3   OH251495   0.218   3.660  13.328  0.0941  0.0973  0.2058
10027TIP3    H151496   0.263   3.676  13.411  0.1552 -0.5111  0.2961
10027TIP3    H251497   0.161   3.585  13.345 -1.5471  1.3215  0.3044
10028TIP3   OH251498   2.899   1.275  15.831 -0.0559 -0.0063  0.2289
10028TIP3    H151499   2.909   1.367  15.807 -0.4730 -0.2713 -1.0571
10028TIP3    H251500   2.899   1.274  15.927 -1.5502  1.5061  0.2744
10029TIP3   OH251501   5.927   1.008  14.249  0.1052 -0.4526  0.5573
10029TIP3    H151502   5.888   0.923  14.271 -1.3763  0.3635  1.2539
10029TIP3    H251503   5.857   1.055  14.203 -0.3326  1.5983  3.1011
10030TIP3   OH251504   2.462   5.151   4.844 -0.3644 -0.5177  0.2395
10030TIP3    H151505   2.485   5.145   4.937 -0.7024 -0.8830  0.3045
10030TIP3    H251506   2.517   5.221   4.810 -1.5170  0.8721  1.1120
10031TIP3   OH251507   0.913   1.082  16.338 -0.0658  0.1707  0.4336
10031TIP3    H151508   0.987   1.078  16.277 -2.1917 -0.4486 -2.2569
10031TIP3    H251509   0.872   1.166  16.320 -1.0422 -0.2574  0.6199
10032TIP3   OH251510   5.255   3.860  12.269  0.0810  0.2934 -0.3603
10032TIP3    H151511   5.195   3.834  12.199 -0.6470  0.9119  0.0235
10032TIP3    H251512   5.324   3.908  12.224 -0.7476  1.2977 -0.5904
10033TIP3   OH251513   4.641   4.713  13.972 -0.0513  0.2412 -0.3304
10033TIP3    H151514   4.682   4.733  13.887 -0.6948  1.0014 -0.4812
10033TIP3    H251515   4.613   4.622  13.964  1.6198 -0.3076 -0.2068
10034TIP3   OH251516   2.986   0.727  13.093  0.6251  0.0975 -0.4892
10034TIP3    H151517   2.977   0.697  13.002 -1.2644 -0.4855 -0.1646
10034TIP3    H251518   3.047   0.800  13.088 -0.3647  0.8851 -2.4321
10035TIP3   OH251519   3.748   6.455   2.622  0.1912 -0.2905 -0.2081
10035TIP3    H151520   3.686   6.427   2.555  1.6962 -1.3267 -1.2608
10035TIP3    H251521   3.827   6.479   2.572  0.1158  2.6758  0.9342
10036TIP3   OH251522   0.738   5.392   0.569 -0.1088  0.1035  0.3555
10036TIP3    H151523   0.771   5.441   0.494 -0.4892  0.2440  0.2763
10036TIP3    H251524   0.655   5.435   0.590 -1.0602 -1.2673 -0.4741
10037TIP3   OH251525   1.751   1.771  12.423 -0.8665  0.2727  0.2629
10037TIP3    H151526   1.750   1.834  12.496  0.4787  0.6815 -0.0413
10037TIP3    H251527   1.659   1.760  12.399 -1.3381  0.0920  2.0450
10038TIP3   OH251528   4.931   1.014   0.575  1.0216  0.5933  0.2593
10038TIP3    H151529   4.942   0.982   0.485  0.9359  0.9984  0.1036
10038TIP3    H251530   4.902   1.104   0.565 -1.2582 -0.0180  0.6597
10039TIP3   OH251531   2.275   3.532  16.032 -0.0811  0.4208  0.4190
10039TIP3    H151532   2.269   3.451  15.983 -1.4981  1.0269 -0.4871
10039TIP3    H251533   2.369   3.544  16.048  0.1972 -1.0460  0.0191
10040TIP3   OH251534   0.231   4.223  11.540 -0.3360 -0.2607  0.1724
10040TIP3    H151535   0.216   4.272  11.621 -0.0380  0.0125  0.0643
10040TIP3    H251536   0.278   4.145  11.567 -2.3414 -1.3937  0.5962
10041TIP3   OH251537   3.857   3.935  14.620 -0.8421  0.0555 -0.8537
10041TIP3    H151538   3.828   3.996  14.687 -0.7375 -0.3307 -0.4520
10041TIP3    H251539   3.938   3.972  14.586 -0.3973 -0.2212 -0.1065
10042TIP3   OH251540   2.525   5.062  12.206 -0.1482 -0.1601  0.4720
10042TIP3    H151541   2.451   5.044  12.264 -2.2534  1.1501 -1.6349
10042TIP3    H251542   2.553   5.150  12.229  0.0471 -0.2429  0.5528
10043TIP3   OH251543   2.791   0.355  16.042  0.1969 -0.1398  0.0691
10043TIP3    H151544   2.706   0.359  16.086  0.6373  0.5320  0.8851
10043TIP3    H251545   2.799   0.263  16.015 -0.2202 -0.5131  1.1511
10044TIP3   OH251546   6.711   2.466   1.332  0.1603 -0.0471 -0.5920
10044TIP3    H151547   6.691   2.520   1.256 -0.7030 -1.4128 -1.3675
10044TIP3    H251548   6.806   2.475   1.343  0.3027  0.1707 -1.8361
10045TIP3   OH251549   5.916   2.614   5.171 -0.5905  0.6214  0.7415
10045TIP3    H151550   5.999   2.647   5.138 -1.3500  2.2058  0.3409
10045TIP3    H251551   5.938   2.531   5.214  0.8290 -0.1778 -1.4119
10046TIP3   OH251552   4.493   6.385  10.529  0.3510 -0.5149  0.1612
10046TIP3    H151553   4.516   6.310  10.584  0.0250 -0.7949 -0.0745
10046TIP3    H251554   4.402   6.404  10.551 -0.8157 -2.5092 -2.3122
10047TIP3   OH251555   5.962   6.800   6.528 -0.4110 -0.7982  0.6922
10047TIP3    H151556   5.930   6.851   6.454  0.9230 -1.7021 -0.5590
10047TIP3    H251557   6.044   6.843   6.553  0.6367 -2.1522 -0.2575
10048TIP3   OH251558   5.244   3.751   5.408 -0.5546 -0.4055  0.4364
10048TIP3    H151559   5.297   3.815   5.455  0.4202  1.0149 -2.3627
10048TIP3    H251560   5.176   3.803   5.365  0.5358 -1.0383 -2.2920
10049TIP3   OH251561   3.408   5.177   2.709  0.8319  0.4860  0.5292
10049TIP3    H151562   3.391   5.248   2.648 -2.4726 -1.7076 -1.4548
10049TIP3    H251563   3.461   5.114   2.660  0.5182 -0.0703  0.8821
10050TIP3   OH251564   4.719   0.387  12.778 -0.5829 -0.1447 -0.3809
10050TIP3    H151565   4.707   0.476  12.811 -0.2822 -0.3016  0.1521
10050TIP3    H251566   4.630   0.351  12.774 -0.5006 -0.7867  2.1312
10051TIP3   OH251567   0.277   5.853   2.912 -0.6576  0.0127  0.6204
10051TIP3    H151568   0.319   5.837   2.827  1.1756 -1.3297  1.7223
10051TIP3    H251569   0.293   5.946   2.929  3.7414 -0.7307  1.8077
10052TIP3   OH251570   2.271   0.316   2.004  0.0814 -0.0953  0.0535
10052TIP3    H151571   2.212   0.256   1.958 -0.0822  0.5458 -0.5933
10052TIP3    H251572   2.250   0.402   1.968 -0.0247  0.4310  1.3059
10053TIP3   OH251573   1.596   6.638   4.895  0.2982 -0.3811  0.1979
10053TIP3    H151574   1.524   6.691   4.930  0.6651  1.3191 -1.4342
10053TIP3    H251575   1.565   6.609   4.810  1.4080  0.1356 -0.4017
10054TIP3   OH251576   3.558   4.725   0.829  0.8396  0.6112 -0.3367
10054TIP3    H151577   3.559   4.661   0.758  0.9248 -1.8961  1.7693
10054TIP3    H251578   3.486   4.784   0.808  0.2326 -0.6676 -1.9829
10055TIP3   OH251579   3.249   0.642   4.806  0.5753  0.5122 -0.2328
10055TIP3    H151580   3.316   0.677   4.747  1.0635 -2.1699 -1.4015
10055TIP3    H251581   3.258   0.547   4.799 -3.0320  0.0339 -0.0577
10056TIP3   OH251582   4.573   1.408  16.317 -0.1951 -0.1110 -0.0247
10056TIP3    H151583   4.598   1.391  16.227 -3.1515  0.2095 -0.9930
10056TIP3    H251584   4.578   1.322  16.360  1.1603 -0.2732 -0.4507
10057TIP3   OH251585   1.690   3.476  14.466 -0.5703 -0.3737 -0.0849
10057TIP3    H151586   1.689   3.502  14.374  0.5787  0.7464  0.1857
10057TIP3    H251587   1.629   3.403  14.471 -1.4714  0.2364 -1.5218
10058TIP3   OH251588   2.019   5.851   4.160  0.1622 -0.3889  0.1338
10058TIP3    H151589   1.933   5.830   4.123  0.1048  0.1662 -0.0604
10058TIP3    H251590   2.075   5.865   4.084  0.0514  0.7167  0.2372
10059TIP3   OH251591   6.401   3.599  13.333 -0.5177  0.3684 -0.0685
10059TIP3    H151592   6.467   3.668  13.347 -0.9724  0.5565  1.2658
10059TIP3    H251593   6.404   3.583  13.238  1.8525 -0.0475  0.0011
10060TIP3   OH251594   1.678   1.142   6.336 -0.5169 -0.4654  0.2447
10060TIP3    H151595   1.717   1.202   6.272 -1.5155 -0.1248 -0.0730
10060TIP3    H251596   1.584   1.144   6.316 -0.4288 -3.7006 -1.1319
10061TIP3   OH251597   6.424   3.106   4.872  0.5004  0.5649  0.1118
10061TIP3    H151598   6.423   3.080   4.780  0.8682 -1.4570  0.6438
10061TIP3    H251599   6.434   3.202   4.870 -1.0762  0.7467 -1.9560
10062TIP3   OH251600   6.173   5.122   2.064 -0.2276 -0.1630  0.2248
10062TIP3    H151601   6.160   5.205   2.108  0.2513  0.8398 -1.4443
10062TIP3    H251602   6.220   5.068   2.128  1.1322  1.4885  0.6891
10063TIP3   OH251603   2.998   2.325   4.651  0.2383 -0.8320  0.7871
10063TIP3    H151604   2.932   2.366   4.595  0.1473  0.2698  1.6708
10063TIP3    H251605   3.034   2.254   4.597 -0.3126 -0.2344 -0.4169
10064TIP3   OH251606   1.721   1.574   4.934 -0.3724 -0.3617 -0.4452
10064TIP3    H151607   1.681   1.660   4.931  1.7279  0.6652 -3.4155
10064TIP3    H251608   1.711   1.546   5.025 -3.0620  2.0006  0.0981
10065TIP3   OH251609   6.012   5.446  12.820  0.1351 -0.2208  0.0558
10065TIP3    H151610   5.970   5.499  12.752  1.2005  0.5529 -0.0077
10065TIP3    H251611   6.103   5.439  12.792  0.0644 -2.0165  0.1083
10066TIP3   OH251612   1.482   3.601   1.232  0.4063  0.0850 -0.1516
10066TIP3    H151613   1.574   3.603   1.258 -0.1207 -0.1924  1.9068
10066TIP3    H251614   1.482   3.553   1.149  2.4002  2.5861 -1.7630
10067TIP3   OH251615   2.374   2.913  15.577  0.0733 -0.0412  0.2302
10067TIP3    H151616   2.359   2.856  15.501 -1.3083  1.0389 -0.3465
10067TIP3    H251617   2.445   2.870  15.625  1.3482 -0.4967 -1.9270
10068TIP3   OH251618   3.842   1.389  13.393  0.2086  0.2035 -0.4561
10068TIP3    H151619   3.826   1.390  13.299  0.5392 -0.3047 -0.5248
10068TIP3    H251620   3.925   1.343  13.403 -0.8531 -1.6961  0.2032
10069TIP3   OH251621   4.270   3.107   2.374 -0.4100 -0.6745  0.1778
10069TIP3    H151622   4.186   3.140   2.407 -0.1473 -1.4748  1.7296
10069TIP3    H251623   4.320   3.187   2.354 -1.2514 -0.1808 -0.0035
10070TIP3   OH251624   0.403   0.615  12.334  0.4694  0.0779  0.4452
10070TIP3    H151625   0.410   0.524  12.305 -1.0419  0.0222  0.1760
10070TIP3    H251626   0.491   0.650  12.324  0.4776 -0.4756 -2.5432
10071TIP3   OH251627   3.542   4.166  12.393  0.6589  0.5381  0.3997
10071TIP3    H151628   3.455   4.128  12.381  0.6245  0.9997 -0.9266
10071TIP3    H251629   3.584   4.158  12.307  0.9638  2.7027  0.3026
10072TIP3   OH251630   2.956   1.183   2.248 -0.1054  0.7953 -0.2857
10072TIP3    H151631   3.033   1.218   2.204  1.0893 -0.5132  0.6637
10072TIP3    H251632   2.928   1.253   2.307  0.7155  1.0698 -0.2135
10073TIP3   OH251633   1.239   4.660   4.644 -0.3349  0.6545 -0.3219
10073TIP3    H151634   1.207   4.663   4.734  0.4450 -2.5873  0.1718
10073TIP3    H251635   1.169   4.701   4.593 -2.3007 -0.3826  1.3975
10074TIP3   OH251636   1.126   0.335  14.762  0.4247  0.5372 -0.2890
10074TIP3    H151637   1.117   0.425  14.792  1.7252  0.3023  0.8882
10074TIP3    H251638   1.091   0.282  14.834  0.1378  0.0729 -0.7618
10075TIP3   OH251639   1.728   2.558  12.974  0.1242 -0.0475  0.0184
10075TIP3    H151640   1.816   2.522  12.960  0.1123  0.2447 -0.8411
10075TIP3    H251641   1.727   2.579  13.068  0.5274 -1.1944  0.3055
10076TIP3   OH251642   1.759   2.505  15.028  0.7485 -0.1064  0.2722
10076TIP3    H151643   1.803   2.429  15.066  0.5472 -0.0958  0.5278
10076TIP3    H251644   1.683   2.520  15.085  0.5871  0.0652  0.0143
10077TIP3   OH251645   6.395   3.347   4.070  0.1814 -0.5097  0.0016
10077TIP3    H151646   6.460   3.408   4.036 -0.5170  2.2175  3.0442
10077TIP3    H251647   6.315   3.399   4.079 -1.2393 -2.6022  0.3212
10078TIP3   OH251648   2.692   4.220   1.239 -0.2302  0.0280 -0.2699
10078TIP3    H151649   2.605   4.253   1.264  0.7919  2.1809  0.7586
10078TIP3    H251650   2.686   4.125   1.250 -2.4172  0.1326 -0.1647
10079TIP3   OH251651   3.725   2.816  13.919 -0.3849 -0.2024 -0.1457
10079TIP3    H151652   3.813   2.824  13.956 -0.6727  1.3307  0.3017
10079TIP3    H251653   3.715   2.723  13.899  0.8244 -0.6204  1.0621
10080TIP3   OH251654   1.365   6.463  10.460  0.0231  0.1406  0.1826
10080TIP3    H151655   1.290   6.451  10.519 -0.8314  1.6780 -0.5410
10080TIP3    H251656   1.333   6.523  10.392  1.7445  0.3582 -0.4820
10081TIP3   OH251657   1.755   5.747  10.975 -0.6603  0.2184  0.2649
10081TIP3    H151658   1.839   5.703  10.963 -0.3870  0.8506 -0.1618
10081TIP3    H251659   1.723   5.761  10.886 -2.0955 -1.6634  0.4188
10082TIP3   OH251660   3.827   4.549  14.748 -0.3324 -0.4633 -0.0980
10082TIP3    H151661   3.798   4.505  14.827 -0.8230 -3.1492 -1.6378
10082TIP3    H251662   3.864   4.632  14.778 -1.9481 -0.6543  2.7343
10083TIP3   OH251663   3.728   6.087   1.917  0.3679  0.0954 -0.2004
10083TIP3    H151664   3.673   6.158   1.885 -0.1433  0.1794  0.8427
10083TIP3    H251665   3.680   6.007   1.895 -0.6997  0.1982  1.6144
10084TIP3   OH251666   6.230   5.577  13.139 -0.0586 -0.0965  0.0703
10084TIP3    H151667   6.218   5.657  13.088  2.7647  0.8162  0.6783
10084TIP3    H251668   6.171   5.586  13.213 -1.0399  0.5833 -0.7772
10085TIP3   OH251669   2.834   1.475  11.489  0.9718  0.6478  0.4065
10085TIP3    H151670   2.818   1.488  11.582  3.4502 -1.0139  1.1686
10085TIP3    H251671   2.792   1.392  11.468 -1.5078  2.0537 -0.5998
10086TIP3   OH251672   1.010   4.542   4.122  0.0959 -0.6313  0.2024
10086TIP3    H151673   1.080   4.477   4.133  0.8156  0.2061  0.6433
10086TIP3    H251674   1.046   4.623   4.158 -0.5758  0.1687 -0.8615
10087TIP3   OH251675   3.627   6.249  16.089 -0.4039 -0.6628 -0.1353
10087TIP3    H151676   3.563   6.255  16.160 -0.0500 -0.1302  0.1509
10087TIP3    H251677   3.662   6.338  16.082 -2.1850 -0.0523 -2.6523
10088TIP3   OH251678   3.177   3.171  10.646 -0.2450  0.2501  0.0590
10088TIP3    H151679   3.214   3.091  10.684 -0.1426  1.3331  2.4365
10088TIP3    H251680   3.092   3.143  10.611 -0.0128 -0.9844  0.4095
10089TIP3   OH251681   0.599   4.217  10.656  0.3767 -0.1985 -0.4198
10089TIP3    H151682   0.617   4.234  10.564  2.0549 -0.1166 -0.1129
10089TIP3    H251683   0.639   4.291  10.702 -1.8547  0.6469  0.3315
10090TIP3   OH251684   4.500   1.498  10.886  0.0057 -0.3159 -0.2606
10090TIP3    H151685   4.434   1.529  10.824  0.9256 -0.8073 -1.5177
10090TIP3    H251686   4.517   1.574  10.942 -0.3640  0.3509 -1.0253
10091TIP3   OH251687   1.345   3.742   0.881 -0.4474  0.7024 -0.5716
10091TIP3    H151688   1.401   3.665   0.868 -0.7022  0.4302 -0.0694
10091TIP3    H251689   1.391   3.793   0.947 -0.1145  1.1470 -1.1404
10092TIP3   OH251690   6.000   5.008   1.838 -0.1463  0.5192  0.2424
10092TIP3    H151691   5.997   4.918   1.868  0.8599  0.5439  0.4313
10092TIP3    H251692   6.057   5.053   1.900 -0.1474  1.1486 -0.1999
10093TIP3   OH251693   1.276   1.051  14.164 -0.7812 -0.0798  0.8701
10093TIP3    H151694   1.240   1.136  14.138  0.5431  0.1297 -0.3878
10093TIP3    H251695   1.338   1.072  14.233 -0.7738 -0.0867  0.8655
10094TIP3   OH251696   5.185   1.717   6.340  0.1972  0.4764 -0.0753
10094TIP3    H151697   5.147   1.799   6.307  0.8717  0.5236 -0.7687
10094TIP3    H251698   5.262   1.703   6.285  0.5887 -0.1632  0.6260
10095TIP3   OH251699   2.565   5.264  12.514  0.0991 -0.1539 -0.3379
10095TIP3    H151700   2.492   5.226  12.562 -0.2802  1.0930  0.0892
10095TIP3    H251701   2.525   5.331  12.458  0.6876 -0.7415 -1.4918
10096TIP3   OH251702   6.183   3.173   5.543  0.3481 -0.6799 -0.8918
10096TIP3    H151703   6.267   3.213   5.522  0.5466 -0.5578  0.0641
10096TIP3    H251704   6.118   3.239   5.518  0.7280  1.0579  2.1172
10097TIP3   OH251705   4.624   6.707   6.396  0.5742  0.6366 -0.0143
10097TIP3    H151706   4.676   6.709   6.316  0.3445  0.6907 -0.1619
10097TIP3    H251707   4.597   6.615   6.405  0.5627  0.6391 -0.0241
10098TIP3   OH251708   6.519   2.975  16.997  0.0328 -0.2429  0.2053
10098TIP3    H151709   6.456   3.045  17.019  1.3203  1.2468 -0.6153
10098TIP3    H251710   6.507   2.962  16.903 -0.2594 -1.2183  0.3725
10099TIP3   OH251711   5.970   1.200  10.988 -0.5656  0.0465  0.5046
10099TIP3    H151712   5.998   1.291  10.974  0.5724 -0.2885  0.5571
10099TIP3    H251713   5.923   1.177  10.907 -1.0980  0.7539  0.5986
10100TIP3   OH251714   4.195   6.187   2.052 -0.3089 -0.2826  0.2790
10100TIP3    H151715   4.112   6.140   2.054 -0.2036 -0.4659  0.4599
10100TIP3    H251716   4.258   6.127   2.094 -0.0286 -0.2536 -0.0982
10101TIP3   OH251717   3.871   5.821   1.858 -0.1130  0.2246 -0.6067
10101TIP3    H151718   3.777   5.834   1.864 -0.2363 -0.9306  0.6396
10101TIP3    H251719   3.906   5.906   1.831 -1.6753  0.0212 -3.6660
10102TIP3   OH251720   1.017   5.714   2.385  0.0373  0.1760 -0.2388
10102TIP3    H151721   0.940   5.763   2.414 -0.3190 -0.8735  0.6990
10102TIP3    H251722   1.058   5.683   2.466  0.4534 -0.7361 -0.7744
10103TIP3   OH251723   4.926   3.442   0.309 -0.3050  0.1506 -0.1000
10103TIP3    H151724   4.910   3.378   0.240  1.6774  0.2386 -0.6968
10103TIP3    H251725   4.877   3.409   0.384 -2.2605 -0.1070 -1.3936
10104TIP3   OH251726   0.968   5.189   2.882 -0.5776  0.2184  0.2500
10104TIP3    H151727   0.982   5.107   2.835 -0.4730  0.8890 -0.9311
10104TIP3    H251728   1.040   5.192   2.945  0.2650  0.0669 -0.6704
10105TIP3   OH251729   1.712   5.605  11.255 -0.7078 -0.2973 -0.0911
10105TIP3    H151730   1.791   5.627  11.306 -0.5963 -0.3776 -0.2297
10105TIP3    H251731   1.710   5.509  11.254 -1.7657 -0.3381  1.4105
10106TIP3   OH251732   3.175   1.600  14.490 -0.6778 -0.2680  0.3526
10106TIP3    H151733   3.214   1.687  14.498 -1.5947  0.1835  0.0980
10106TIP3    H251734   3.210   1.565  14.408  1.7045 -1.2317  1.6614
10107TIP3   OH251735   0.887   4.722  15.301 -0.2856  0.0855  0.1056
10107TIP3    H151736   0.866   4.790  15.237 -0.7723  1.0833  1.2801
10107TIP3    H251737   0.880   4.640  15.252  0.4054  0.8596 -1.3751
10108TIP3   OH251738   1.501   3.998   4.364  0.0637  0.2729 -0.3542
10108TIP3    H151739   1.413   4.007   4.400 -0.4244  1.0684 -1.6613
10108TIP3    H251740   1.548   3.945   4.428 -0.7645  1.5064  1.3528
10109TIP3   OH251741   3.516   4.194   1.272  0.7223  0.0864  0.7269
10109TIP3    H151742   3.570   4.145   1.211  0.4206 -0.9092  1.2315
10109TIP3    H251743   3.434   4.210   1.224  0.2190 -1.2996  1.0848
10110TIP3   OH251744   2.064   0.158   2.211  0.0436  0.3986 -0.3862
10110TIP3    H151745   2.014   0.093   2.260 -0.1539  0.6901 -0.1896
10110TIP3    H251746   2.024   0.242   2.237 -1.6202  0.4598 -2.8064
10111TIP3   OH251747   2.620   1.496   5.092  1.0686  0.0043 -0.1286
10111TIP3    H151748   2.562   1.531   5.025  1.0819 -1.0770 -0.7314
10111TIP3    H251749   2.564   1.480   5.167  0.5846 -0.8780 -0.6531
10112TIP3   OH251750   0.139   5.888  12.183 -0.5859  0.0567  0.2038
10112TIP3    H151751   0.162   5.939  12.106  0.8267  0.3693  0.8045
10112TIP3    H251752   0.153   5.948  12.256  0.5106 -0.9819  0.8798
10113TIP3   OH251753   0.494   4.097  15.974 -0.1010  0.2582  0.1253
10113TIP3    H151754   0.508   4.156  16.048 -0.7919 -0.2466  0.6774
10113TIP3    H251755   0.478   4.156  15.900  2.4018  0.8135 -0.0618
10114TIP3   OH251756   6.512   3.952  11.169 -0.4835 -0.1977 -0.3563
10114TIP3    H151757   6.511   3.983  11.259  0.7905 -0.7788 -0.1154
10114TIP3    H251758   6.597   3.980  11.134 -0.2774 -1.3463 -0.8569
10115TIP3   OH251759   1.369   1.320   2.139 -0.2743  0.2844 -0.3812
10115TIP3    H151760   1.430   1.274   2.081 -0.0292 -0.6951  0.6351
10115TIP3    H251761   1.293   1.338   2.084  0.5915  0.8104 -1.4486
10116TIP3   OH251762   6.216   0.627   3.035 -0.3181  0.1383  0.2148
10116TIP3    H151763   6.209   0.701   3.096 -0.9818  0.8107 -0.6533
10116TIP3    H251764   6.195   0.550   3.088  0.8826  0.4896  1.2621
10117TIP3   OH251765   6.180   3.475  16.589 -0.4469  0.0541 -0.1766
10117TIP3    H151766   6.206   3.463  16.680 -1.4923 -1.0929 -0.0137
10117TIP3    H251767   6.113   3.544  16.592  0.0195  0.5110 -0.1698
10118TIP3   OH251768   1.466   1.829   2.597  0.4781 -0.2114 -0.2303
10118TIP3    H151769   1.382   1.820   2.642  1.5833 -2.3459  1.6877
10118TIP3    H251770   1.444   1.839   2.505 -1.8801 -2.1852  0.0216
10119TIP3   OH251771   4.756   3.045  12.419  0.1100  0.0522 -0.4608
10119TIP3    H151772   4.717   3.131  12.406  1.0554  0.7427  1.0766
10119TIP3    H251773   4.785   3.045  12.510  1.3000 -1.4142 -0.8008
10120TIP3   OH251774   1.163   0.797  14.681 -0.6208  0.3316 -0.2242
10120TIP3    H151775   1.232   0.837  14.626 -0.9785  1.6405  0.2346
10120TIP3    H251776   1.115   0.872  14.716 -1.1785 -0.5248  0.8868
10121TIP3   OH251777   3.401   0.966   2.135 -0.5356  0.1754  0.1215
10121TIP3    H151778   3.357   0.992   2.054 -1.5265  1.1441  0.9269
10121TIP3    H251779   3.418   0.873   2.125 -4.4088 -0.7387  0.3858
10122TIP3   OH251780   5.877   5.919   0.218 -0.0635  0.0540  0.2000
10122TIP3    H151781   5.864   5.901   0.311 -1.8444  2.0011  0.3858
10122TIP3    H251782   5.967   5.952   0.213  0.3903 -0.9615  1.0311
10123TIP3   OH251783   3.498   4.747  11.817  0.3868  0.1659 -0.3449
10123TIP3    H151784   3.415   4.745  11.771 -0.5004  2.8860  0.8824
10123TIP3    H251785   3.487   4.685  11.889 -0.4658  0.2465 -0.3946
10124TIP3   OH251786   3.969   3.137   6.469  0.0526  0.6027 -0.0152
10124TIP3    H151787   3.924   3.094   6.542  0.3892  0.2588 -0.0072
10124TIP3    H251788   3.939   3.089   6.392  1.0347 -0.1687  0.0693
10125TIP3   OH251789   6.136   0.754   3.568  0.1875  0.4585  0.1501
10125TIP3    H151790   6.042   0.771   3.567 -0.1466 -1.1182 -1.9233
10125TIP3    H251791   6.149   0.687   3.501  2.5104 -0.9164  1.8095
10126TIP3   OH251792   0.200   4.386  13.145  0.4325  0.1078 -0.6647
10126TIP3    H151793   0.277   4.442  13.146  0.7087 -0.2780  0.0144
10126TIP3    H251794   0.128   4.444  13.120  0.7869  0.6661 -0.3972
10127TIP3   OH251795   5.403   3.442  14.242 -0.0793 -0.4932  0.1204
10127TIP3    H151796   5.451   3.524  14.233 -0.4491 -0.1487  1.1569
10127TIP3    H251797   5.354   3.434  14.160  0.5103 -0.0489 -0.2856
10128TIP3   OH251798   1.298   3.593   5.993 -0.0385  0.2868 -0.5848
10128TIP3    H151799   1.262   3.597   5.904 -3.0316  0.7018  0.4921
10128TIP3    H251800   1.307   3.685   6.019 -0.3505  0.1814 -0.0757
10129TIP3   OH251801   5.693   3.952   5.660  0.0130  0.0596 -1.3695
10129TIP3    H151802   5.737   3.979   5.741  0.3416 -0.6961 -1.2832
10129TIP3    H251803   5.765   3.944   5.596 -0.1550 -0.0190 -1.5484
10130TIP3   OH251804   2.046   3.527   3.687  0.0538 -0.2019  0.1531
10130TIP3    H151805   1.956   3.538   3.720 -1.2070 -0.8287 -2.7787
10130TIP3    H251806   2.035   3.489   3.600  3.1799  0.2587 -0.5452
10131TIP3   OH251807   1.072   6.677  11.124  0.2224  0.2230  0.5325
10131TIP3    H151808   1.150   6.732  11.137 -0.1131  1.2423 -1.5098
10131TIP3    H251809   1.029   6.714  11.048 -0.7020 -2.1426 -0.1612
10132TIP3   OH251810   4.874   3.641   1.897  0.1833 -0.2139  0.3925
10132TIP3    H151811   4.864   3.718   1.840  1.0253 -0.0873  0.4039
10132TIP3    H251812   4.968   3.635   1.913 -0.0336 -0.2611  1.7716
10133TIP3   OH251813   4.794   4.771  13.724  0.2115 -0.3322  0.2397
10133TIP3    H151814   4.866   4.732  13.674  0.9900 -0.6565  1.5679
10133TIP3    H251815   4.718   4.717  13.701  0.8063 -1.2347  0.3228
10134TIP3   OH251816   4.346   1.172   0.146  0.9845  0.4363 -0.1513
10134TIP3    H151817   4.311   1.247   0.098 -0.8336  0.0057  0.4246
10134TIP3    H251818   4.346   1.101   0.082  1.4363  0.5952 -0.3300
10135TIP3   OH251819   1.576   4.529  15.566 -0.3397  0.4508 -0.3501
10135TIP3    H151820   1.516   4.548  15.493 -1.2699  0.3397  0.3670
10135TIP3    H251821   1.523   4.544  15.644 -0.1140 -1.8216  0.2909
10136TIP3   OH251822   6.272   2.228  16.457  0.5676  0.4033 -0.1163
10136TIP3    H151823   6.278   2.145  16.409  1.4853  1.3301 -1.7209
10136TIP3    H251824   6.361   2.246  16.486  0.1083  0.1257  1.5124
10137TIP3   OH251825   2.980   6.401   0.084  0.5454  0.5064 -0.2408
10137TIP3    H151826   2.916   6.407   0.156 -0.2611  2.1811 -1.0407
10137TIP3    H251827   2.987   6.491   0.051  0.5586 -0.2745 -2.5292
10138TIP3   OH251828   5.568   3.009   3.704  0.2673 -0.3197  0.0512
10138TIP3    H151829   5.657   3.043   3.716 -0.2404  0.5652  1.5823
10138TIP3    H251830   5.542   2.978   3.791 -1.2230  0.2088 -0.1776
10139TIP3   OH251831   0.145   1.018   2.703  0.1132 -0.9394  0.2872
10139TIP3    H151832   0.135   0.935   2.749 -0.2475  0.5330  3.0863
10139TIP3    H251833   0.056   1.049   2.689  0.2123 -1.3596 -1.5485
10140TIP3   OH251834   4.327   6.158   0.704 -0.0986 -0.7482 -0.5884
10140TIP3    H151835   4.379   6.085   0.737 -1.9752 -1.8407  0.0847
10140TIP3    H251836   4.247   6.157   0.757 -1.1485  0.3849 -2.0689
10141TIP3   OH251837   4.307   4.104  11.842 -0.0696 -0.1170 -0.2549
10141TIP3    H151838   4.310   4.200  11.835 -1.2181  0.1707  1.9688
10141TIP3    H251839   4.215   4.082  11.827 -0.0064 -0.7519  0.2404
10142TIP3   OH251840   4.678   6.258  15.884  0.0291 -0.1207  0.7667
10142TIP3    H151841   4.601   6.240  15.938  0.3124 -1.3580  0.7966
10142TIP3    H251842   4.644   6.306  15.809 -0.3347  1.8900  2.1329
10143TIP3   OH251843   6.655   4.792  14.275 -0.2193 -0.3775 -0.3083
10143TIP3    H151844   6.611   4.826  14.197  0.2332 -0.6072 -0.6688
10143TIP3    H251845   6.747   4.815  14.261  0.0158 -1.2870 -0.3112
10144TIP3   OH251846   5.385   4.903   2.570  0.3345 -0.2384  0.0599
10144TIP3    H151847   5.464   4.851   2.556  0.3554 -0.9867  2.4514
10144TIP3    H251848   5.410   4.992   2.544  1.9223 -0.4888  0.6007
10145TIP3   OH251849   6.420   2.056  11.399 -0.1135 -0.1228 -0.1458
10145TIP3    H151850   6.373   2.126  11.445 -1.2671 -1.3515  0.6047
10145TIP3    H251851   6.509   2.060  11.435 -0.3607  0.4847  0.4254
10146TIP3   OH251852   4.660   5.202  11.594  0.6470 -0.2888 -0.0622
10146TIP3    H151853   4.639   5.130  11.653  2.7630 -0.9429 -0.0627
10146TIP3    H251854   4.584   5.207  11.536 -0.3334 -1.3176  1.0659
10147TIP3   OH251855   3.326   6.186  13.037  0.2486  0.6830 -0.2386
10147TIP3    H151856   3.272   6.247  12.986  0.2601  0.2957 -0.7162
10147TIP3    H251857   3.416   6.212  13.018  0.2620  0.2634 -0.7600
10148TIP3   OH251858   3.116   1.055   2.943 -0.6049 -0.5473 -0.3785
10148TIP3    H151859   3.095   1.148   2.951  0.7679 -0.2810  0.5485
10148TIP3    H251860   3.103   1.019   3.032  1.7051 -0.5595  0.0202
10149TIP3   OH251861   5.172   0.874  16.405  0.6300 -0.4717 -0.0049
10149TIP3    H151862   5.170   0.969  16.397 -1.4622 -0.4558  0.0483
10149TIP3    H251863   5.080   0.849  16.418  1.0788 -2.5332 -0.3928
10150TIP3   OH251864   1.455   0.121  10.727  0.2330  0.0589  0.5778
10150TIP3    H151865   1.479   0.102  10.636  0.6514 -1.7703  1.0277
10150TIP3    H251866   1.520   0.073  10.779  0.0279  1.1148  1.8498
10151TIP3   OH251867   1.382   2.819  15.021  0.0953  0.2635 -0.6059
10151TIP3    H151868   1.439   2.809  15.097 -0.8350  2.2158  0.4360
10151TIP3    H251869   1.413   2.754  14.958  0.5600 -1.8063  1.6189
10152TIP3   OH251870   2.827   2.480   3.896  0.1843  0.3291  0.4157
10152TIP3    H151871   2.900   2.520   3.945 -0.4459  1.7926  0.2153
10152TIP3    H251872   2.754   2.480   3.957  0.0793 -0.1899  0.2904
10153TIP3   OH251873   4.309   2.526   4.957 -0.5226 -0.0475  0.3700
10153TIP3    H151874   4.267   2.601   4.999 -2.2109 -1.0418  0.5730
10153TIP3    H251875   4.319   2.552   4.865 -2.2239  0.0151  0.1700
10154TIP3   OH251876   3.380   4.746   1.261  0.6752  0.0507  0.1032
10154TIP3    H151877   3.370   4.679   1.193  1.2775  0.3084 -0.2447
10154TIP3    H251878   3.428   4.817   1.219  1.4740  0.0182  0.9299
10155TIP3   OH251879   0.315   0.452   0.231  0.2208 -0.5805 -0.0268
10155TIP3    H151880   0.294   0.524   0.289  1.1260  0.9435 -1.4947
10155TIP3    H251881   0.230   0.412   0.209 -0.1909 -0.6603  1.6093
10156TIP3   OH251882   6.050   3.051  13.397 -0.0751 -0.0837  0.6250
10156TIP3    H151883   5.982   3.108  13.362 -0.6267 -0.8957  0.3578
10156TIP3    H251884   6.126   3.067  13.340 -0.1884  0.4454  0.6115
10157TIP3   OH251885   5.189   4.115  14.498 -0.4717 -0.0015  0.0977
10157TIP3    H151886   5.229   4.111  14.585 -0.8469  0.9133  0.3278
10157TIP3    H251887   5.150   4.029  14.485  0.9699 -0.6930  0.1446
10158TIP3   OH251888   5.416   4.473   3.828 -0.2539 -0.0514  0.0837
10158TIP3    H151889   5.345   4.495   3.768 -0.6261 -0.4375  0.3696
10158TIP3    H251890   5.477   4.421   3.776 -0.9640 -1.0636  0.2235
10159TIP3   OH251891   5.143   1.770  10.658 -0.7198 -0.2700 -0.3910
10159TIP3    H151892   5.137   1.823  10.578 -1.6093  3.2965  1.7860
10159TIP3    H251893   5.060   1.722  10.661 -1.2929  0.6434 -0.9487
10160TIP3   OH251894   5.090   4.364  11.883 -0.2154  0.1001  0.0259
10160TIP3    H151895   5.046   4.393  11.963 -0.7836  0.0177 -0.2480
10160TIP3    H251896   5.021   4.363  11.817  0.2521  0.1857 -0.4719
10161TIP3   OH251897   2.539   1.913  14.872 -0.5179  0.7534  0.3255
10161TIP3    H151898   2.471   1.909  14.939 -0.1353  0.4621  0.7025
10161TIP3    H251899   2.595   1.986  14.899  0.1418  0.0907  0.8285
10162TIP3   OH251900   5.087   4.353  15.086  0.1418 -0.0660 -0.1242
10162TIP3    H151901   5.084   4.276  15.142 -3.1970  0.7473  1.0852
10162TIP3    H251902   5.115   4.424  15.144 -0.4843  0.2760 -0.2343
10163TIP3   OH251903   6.367   4.273  12.306  0.7704  0.3346 -0.0530
10163TIP3    H151904   6.427   4.226  12.365  0.8820  0.1633 -0.3001
10163TIP3    H251905   6.388   4.365  12.319  2.8873  0.2009 -2.0156
10164TIP3   OH251906   0.909   2.821  16.673 -0.0718 -0.0075 -0.0468
10164TIP3    H151907   0.837   2.884  16.669 -0.5037 -0.4597  0.4520
10164TIP3    H251908   0.982   2.865  16.629  0.1741  1.5511  1.8174
10165TIP3   OH251909   6.126   3.117   0.476  0.3373  0.1970 -0.5867
10165TIP3    H151910   6.066   3.107   0.403  0.6335  0.8542 -0.9288
10165TIP3    H251911   6.159   3.206   0.469 -2.5124  1.7287  2.5609
10166TIP3   OH251912   1.229   2.788  15.467 -0.1720 -0.1211  0.4243
10166TIP3    H151913   1.205   2.749  15.383  0.9583 -0.1547  0.0972
10166TIP3    H251914   1.322   2.767  15.477  0.4345  2.2403  0.3440
10167TIP3   OH251915   5.077   5.746  12.503  0.1677 -0.4954 -0.1561
10167TIP3    H151916   5.021   5.669  12.509  0.7588 -0.8822  0.5134
10167TIP3    H251917   5.017   5.820  12.513 -0.5856 -0.7979 -2.0153
10168TIP3   OH251918   4.404   6.716  15.855  0.5731 -0.4265 -0.2073
10168TIP3    H151919   4.411   6.636  15.907  1.3392 -0.9584 -1.0885
10168TIP3    H251920   4.487   6.762  15.871  0.1391  0.2077  0.2918
10169TIP3   OH251921   3.636   4.210  16.179 -0.3233 -0.1624 -0.0553
10169TIP3    H151922   3.702   4.199  16.110 -0.1552 -1.3151  0.2667
10169TIP3    H251923   3.554   4.184  16.138 -0.2252 -0.8373  0.1559
10170TIP3   OH251924   1.240   6.406   5.389 -0.0884  0.0372  0.5235
10170TIP3    H151925   1.329   6.435   5.407 -0.1479 -0.2389  1.2674
10170TIP3    H251926   1.206   6.470   5.327  1.3018 -0.9585 -1.3723
10171TIP3   OH251927   0.096   2.827  11.634  0.6698  0.5272  0.2293
10171TIP3    H151928   0.040   2.750  11.642  2.8373 -1.0662  1.2044
10171TIP3    H251929   0.064   2.872  11.556 -0.7967 -1.2508 -0.2755
10172TIP3   OH251930   2.706   5.320  15.471 -0.0468  0.6982  0.0936
10172TIP3    H151931   2.747   5.378  15.407 -0.4643  1.0372  0.1272
10172TIP3    H251932   2.612   5.333  15.458 -0.1498 -0.0195  0.0594
10173TIP3   OH251933   4.829   4.884   2.308  0.0881  0.1366 -0.0227
10173TIP3    H151934   4.781   4.801   2.306  0.3709 -0.0157 -0.7492
10173TIP3    H251935   4.921   4.859   2.299  0.0636  0.6063 -2.0766
10174TIP3   OH251936   0.446   6.166   1.899  0.0766 -0.0986  0.0383
10174TIP3    H151937   0.523   6.204   1.942 -0.3727 -0.1777  0.9431
10174TIP3    H251938   0.469   6.163   1.806  0.6856  1.0380  0.1354
10175TIP3   OH251939   1.087   2.779   2.002 -0.4214 -0.4135 -0.9967
10175TIP3    H151940   1.109   2.729   1.924  1.0055  1.4941 -1.8772
10175TIP3    H251941   1.170   2.786   2.050 -1.0359 -0.5628  0.1197
10176TIP3   OH251942   5.240   2.015  15.428 -0.0032  0.4910 -0.4637
10176TIP3    H151943   5.223   2.050  15.515 -1.3939 -0.0843 -0.4899
10176TIP3    H251944   5.299   2.079  15.388  0.8476  0.6454  0.9686
10177TIP3   OH251945   5.654   6.001  13.359 -0.4347 -0.2905  0.2385
10177TIP3    H151946   5.573   6.036  13.324 -0.1857 -1.7427 -2.0369
10177TIP3    H251947   5.699   5.964  13.283  3.0875  1.7317  1.1058
10178TIP3   OH251948   0.323   0.251   0.873 -0.0608  0.1368  0.4326
10178TIP3    H151949   0.378   0.212   0.940  0.5322 -1.4876 -0.9442
10178TIP3    H251950   0.371   0.239   0.791 -1.9031 -0.2846 -0.6529
10179TIP3   OH251951   5.163   3.067   4.326 -0.5183 -0.1008  0.0789
10179TIP3    H151952   5.165   2.972   4.324  0.4465 -0.0827 -1.3102
10179TIP3    H251953   5.247   3.094   4.287 -1.5953  1.2833 -1.4455
10180TIP3   OH251954   1.773   5.794   0.210  0.1171 -0.1242 -0.0414
10180TIP3    H151955   1.792   5.743   0.131 -2.7703 -0.0542 -0.8644
10180TIP3    H251956   1.727   5.871   0.179  1.8280  1.6281  1.4813
10181TIP3   OH251957   4.772   1.436  13.160 -0.4812 -0.0541  0.3501
10181TIP3    H151958   4.725   1.368  13.207 -1.2157 -0.1631 -0.5128
10181TIP3    H251959   4.782   1.402  13.071  1.7454 -0.2687  0.6243
10182TIP3   OH251960   2.030   6.572   3.570 -0.1354 -0.3119  0.5184
10182TIP3    H151961   2.018   6.554   3.663 -2.7252  0.2690  0.3638
10182TIP3    H251962   1.961   6.634   3.548  0.7246 -0.0406 -1.7053
10183TIP3   OH251963   5.002   2.120  14.892  0.1990 -0.1606 -0.6705
10183TIP3    H151964   4.969   2.180  14.959  0.8603  1.0601 -1.3972
10183TIP3    H251965   5.096   2.119  14.906  0.2211 -0.8152 -0.8537
10184TIP3   OH251966   5.585   6.034  16.354  0.0536 -1.1394 -0.9350
10184TIP3    H151967   5.621   6.060  16.269  0.7979  0.2913 -0.2302
10184TIP3    H251968   5.494   6.011  16.335 -0.4836  1.3625 -1.8230
10185TIP3   OH251969   0.305   2.543   3.652 -0.7669  0.2831  0.0286
10185TIP3    H151970   0.371   2.500   3.706 -1.5849 -1.0050  0.0618
10185TIP3    H251971   0.222   2.502   3.679 -1.1577 -0.8419 -2.5606
10186TIP3   OH251972   1.151   0.906  12.696  0.0766  0.2534  0.2060
10186TIP3    H151973   1.178   0.821  12.728 -0.4675 -0.0871 -0.2110
10186TIP3    H251974   1.231   0.947  12.663  0.1925 -0.4794 -0.4427
10187TIP3   OH251975   3.780   0.630   0.843 -0.0687  0.1899  0.3424
10187TIP3    H151976   3.745   0.605   0.758  1.3656 -1.2199  0.1215
10187TIP3    H251977   3.875   0.627   0.832  0.1581 -0.4649  2.0943
10188TIP3   OH251978   2.545   5.346  10.847 -0.5282  0.5532  0.1500
10188TIP3    H151979   2.490   5.420  10.822  0.6469  1.5120  0.2834
10188TIP3    H251980   2.623   5.355  10.792 -0.0522 -0.1569  0.6991
10189TIP3   OH251981   1.798   1.454  11.053  0.3600 -0.5819 -0.0220
10189TIP3    H151982   1.856   1.485  10.984 -0.2392 -0.7539 -0.6116
10189TIP3    H251983   1.844   1.380  11.093 -0.4342 -2.2633 -2.0361
10190TIP3   OH251984   6.367   5.325   6.018  0.0997 -0.5335  1.1951
10190TIP3    H151985   6.386   5.234   5.995  2.8645  1.0557 -4.3936
10190TIP3    H251986   6.428   5.345   6.089  0.4991 -2.5354  1.4805
10191TIP3   OH251987   0.864   3.587   3.224 -0.1187  0.0179  0.0172
10191TIP3    H151988   0.804   3.516   3.202  1.1522 -0.6567 -1.4195
10191TIP3    H251989   0.934   3.580   3.160  0.4371  2.1095  0.3293
10192TIP3   OH251990   5.079   1.978  16.913 -0.0896 -0.1416 -0.1555
10192TIP3    H151991   5.056   2.023  16.832  0.3910 -2.8025 -1.9108
10192TIP3    H251992   4.998   1.978  16.964 -0.8303  0.3186 -1.2856
10193TIP3   OH251993   3.359   5.213   6.108 -0.5980 -0.2951  0.2899
10193TIP3    H151994   3.455   5.212   6.117 -0.6483  0.5038  1.1158
10193TIP3    H251995   3.340   5.148   6.040  0.5771 -0.0549 -0.2948
10194TIP3   OH251996   5.254   2.372  12.096 -0.1935 -0.2862 -0.0321
10194TIP3    H151997   5.234   2.327  12.014 -1.8625  0.2833  0.0247
10194TIP3    H251998   5.220   2.461  12.084 -0.2774 -0.1334  1.2101
10195TIP3   OH251999   2.572   5.457  15.749 -0.0384 -0.4554  0.1989
10195TIP3    H152000   2.656   5.413  15.750 -0.5857 -1.5402 -0.0804
10195TIP3    H252001   2.515   5.403  15.804 -0.8422 -0.3348 -0.4917
10196TIP3   OH252002   5.766   6.337  12.862 -0.1017 -0.0736 -0.4467
10196TIP3    H152003   5.817   6.356  12.784 -0.4635  0.6806 -0.5090
10196TIP3    H252004   5.740   6.245  12.852  0.2250 -0.1082 -0.9969
10197TIP3   OH252005   5.396   1.915  15.926  0.3710 -0.2782  0.3516
10197TIP3    H152006   5.334   1.923  15.853  1.7778 -0.0961 -0.8636
10197TIP3    H252007   5.354   1.964  15.998 -0.3369  0.9156 -0.8218
10198TIP3   OH252008   6.654   6.603   2.804 -0.0508  0.3968 -0.1940
10198TIP3    H152009   6.573   6.652   2.822 -1.0288 -0.9890 -0.6410
10198TIP3    H252010   6.699   6.601   2.888 -0.6267  0.9444  0.1403
10199TIP3   OH252011   5.597   0.293  11.169 -0.0065 -0.7264  0.2863
10199TIP3    H152012   5.622   0.327  11.082  0.2242  1.1970  1.0550
10199TIP3    H252013   5.680   0.283  11.215 -0.1794 -1.0721  0.5262
10200TIP3   OH252014   3.278   4.489  16.379 -0.1204 -0.1076 -0.5044
10200TIP3    H152015   3.360   4.470  16.426  0.4138 -0.0002 -1.3752
10200TIP3    H252016   3.225   4.536  16.443  0.3509 -0.4962  0.1912
10201TIP3   OH252017   1.065   1.473  10.836  0.1268  0.4423  0.4694
10201TIP3    H152018   1.097   1.424  10.761  1.0665  0.0815  1.0935
10201TIP3    H252019   1.118   1.553  10.837 -0.4768  0.8557  0.2489
10202TIP3   OH252020   3.979   0.737  14.425 -0.8651  0.8752 -0.0448
10202TIP3    H152021   4.039   0.767  14.357 -0.7307  0.8353  0.0540
10202TIP3    H252022   3.932   0.815  14.452 -1.4836  0.7509 -0.7320
10203TIP3   OH252023   4.928   3.974   1.560  0.0018  0.3205  0.5505
10203TIP3    H152024   4.880   3.908   1.611 -0.9574 -0.0595 -0.7876
10203TIP3    H252025   4.875   4.053   1.567  0.1661  0.4247  0.6181
10204TIP3   OH252026   5.997   1.875   3.277 -0.1883 -0.4209  0.8641
10204TIP3    H152027   6.071   1.911   3.326 -0.7783  2.6303 -0.2383
10204TIP3    H252028   5.921   1.897   3.331 -0.6411  0.8777 -0.2452
10205TIP3   OH252029   2.298   0.961  14.585  0.1069  0.5210  0.2409
10205TIP3    H152030   2.347   0.954  14.667  0.8152 -0.3195 -0.2330
10205TIP3    H252031   2.348   0.908  14.523 -2.1284 -1.5825  0.0938
10206TIP3   OH252032   3.170   6.461   2.622  0.7172  0.0194  0.1036
10206TIP3    H152033   3.238   6.393   2.631  0.9406  0.3779  1.3248
10206TIP3    H252034   3.195   6.509   2.543  0.7669 -1.0666 -0.5683
10207TIP3   OH252035   4.189   1.519  13.958  0.4617 -0.5059 -0.0637
10207TIP3    H152036   4.177   1.584  14.027  2.3616  1.2346 -1.2598
10207TIP3    H252037   4.146   1.557  13.881  1.9623 -0.4087 -0.8883
10208TIP3   OH252038   6.270   1.627   0.216 -0.4636 -0.2020  0.1521
10208TIP3    H152039   6.194   1.676   0.248 -0.3924 -0.3301  0.5185
10208TIP3    H252040   6.306   1.683   0.146 -1.2062 -0.3952 -0.4002
10209TIP3   OH252041   4.748   4.808   4.388 -0.6073  0.3085 -0.1418
10209TIP3    H152042   4.742   4.878   4.454  0.6510 -0.8707  1.3098
10209TIP3    H252043   4.841   4.793   4.377 -0.7328  1.0748 -2.9711
10210TIP3   OH252044   4.040   0.582   0.860  0.2440  0.4850 -0.7133
10210TIP3    H152045   4.076   0.510   0.809  0.3259 -0.6975  0.9284
10210TIP3    H252046   4.104   0.596   0.931 -0.3247  1.4142 -0.3580
10211TIP3   OH252047   1.051   3.952  15.866 -0.2382  0.4653  0.2250
10211TIP3    H152048   1.038   3.992  15.781 -2.1529  1.7634  1.0397
10211TIP3    H252049   0.998   3.872  15.863  1.4009 -0.6510 -0.4698
10212TIP3   OH252050   3.698   5.516   4.548  0.3321 -0.4143 -0.1120
10212TIP3    H152051   3.677   5.591   4.494 -2.5034 -1.2628 -0.3544
10212TIP3    H252052   3.773   5.544   4.601  0.8415  1.6946 -1.8175
10213TIP3   OH252053   0.692   3.475   0.713 -0.2228 -0.4718  0.3753
10213TIP3    H152054   0.744   3.395   0.724 -0.5076 -0.7418 -0.1931
10213TIP3    H252055   0.755   3.546   0.720  0.0950 -0.7609  0.5123
10214TIP3   OH252056   2.925   0.484  13.157  1.0382 -0.1033 -0.0017
10214TIP3    H152057   2.970   0.566  13.177  0.9724  0.3209 -1.4618
10214TIP3    H252058   2.871   0.505  13.081 -1.6774 -0.5683  1.6677
10215TIP3   OH252059   6.230   1.304  14.052  0.2134  0.1565 -0.3296
10215TIP3    H152060   6.199   1.318  14.141 -3.4399 -0.5175 -1.3236
10215TIP3    H252061   6.287   1.380  14.034  0.1344  0.8793  2.1669
10216TIP3   OH252062   5.289   0.539  15.147 -0.3719 -0.5182 -0.3775
10216TIP3    H152063   5.219   0.512  15.207  1.2700 -1.0450  1.3855
10216TIP3    H252064   5.309   0.629  15.173 -1.4507  0.2398 -1.9846
10217TIP3   OH252065   0.754   0.952  13.653 -0.0822 -0.2214  0.1843
10217TIP3    H152066   0.808   1.030  13.639 -1.0461  0.9210  2.3517
10217TIP3    H252067   0.668   0.986  13.678 -0.7073 -1.9869  0.5829
10218TIP3   OH252068   5.059   5.675   3.559  0.0652 -0.4322  0.4138
10218TIP3    H152069   5.032   5.725   3.482 -0.0028 -0.3879  0.4674
10218TIP3    H252070   5.008   5.711   3.631 -1.0406 -1.5173  0.2171
10219TIP3   OH252071   4.258   5.494  10.657  0.1042 -0.1257  0.3779
10219TIP3    H152072   4.167   5.499  10.685  0.2442  1.1141  0.6869
10219TIP3    H252073   4.254   5.466  10.566 -0.8646  3.2524 -0.7829
10220TIP3   OH252074   2.457   5.448  14.640 -0.0474 -0.1087 -0.1774
10220TIP3    H152075   2.388   5.411  14.585 -0.5922  0.9941 -0.2684
10220TIP3    H252076   2.539   5.413  14.604 -0.5649 -1.7234  0.1617
10221TIP3   OH252077   0.151   6.573  14.916 -0.3413  0.3257 -0.1030
10221TIP3    H152078   0.208   6.500  14.892 -1.5090 -0.2127 -1.3332
10221TIP3    H252079   0.146   6.627  14.838 -1.1250  0.6265  0.1470
10222TIP3   OH252080   2.731   5.660  14.782 -0.4726  0.2986  0.0668
10222TIP3    H152081   2.691   5.743  14.805  1.2622  0.8679  1.2248
10222TIP3    H252082   2.716   5.603  14.857 -0.3069  0.0708 -0.0684
10223TIP3   OH252083   1.048   4.482  14.090 -0.2202  0.1112 -0.4233
10223TIP3    H152084   1.017   4.495  14.179  1.7700  1.0383  0.1834
10223TIP3    H252085   1.143   4.497  14.094  0.2302 -1.7064 -2.3288
10224TIP3   OH252086   1.261   4.184   3.256 -0.2367 -0.2167  0.0321
10224TIP3    H152087   1.294   4.096   3.275 -0.5392  0.0450  1.9411
10224TIP3    H252088   1.179   4.170   3.209  0.9479 -0.8882 -1.9982
10225TIP3   OH252089   2.930   1.481   0.690  0.0640  0.0322 -0.0109
10225TIP3    H152090   2.974   1.463   0.773  1.5107 -0.4581 -0.8615
10225TIP3    H252091   2.859   1.541   0.714 -0.3816 -1.1266  1.7683
10226TIP3   OH252092   4.599   0.336  16.508 -0.8681  1.1695  0.9428
10226TIP3    H152093   4.579   0.368  16.596  0.0729 -0.0216  1.6251
10226TIP3    H252094   4.524   0.364  16.455 -1.8494  1.2215  2.2920
10227TIP3   OH252095   4.290   5.522   1.582 -0.1107  0.2759  0.0022
10227TIP3    H152096   4.205   5.563   1.600  0.1257  1.1404 -0.7733
10227TIP3    H252097   4.354   5.591   1.598  0.3997 -0.1887 -0.0172
10228TIP3   OH252098   6.476   4.743  13.704 -1.2184  0.5292 -0.2770
10228TIP3    H152099   6.498   4.710  13.616  0.8989  1.7833 -0.2842
10228TIP3    H252100   6.447   4.665  13.751 -0.9873 -0.4542 -1.6682
10229TIP3   OH252101   4.279   6.190   1.447  0.0553 -0.0269  0.3697
10229TIP3    H152102   4.320   6.143   1.520  1.3619  1.7711  0.8581
10229TIP3    H252103   4.185   6.185   1.466  0.0392 -3.0744 -0.0537
10230TIP3   OH252104   1.833   1.760  11.331 -0.2677  0.2918  0.0854
10230TIP3    H152105   1.861   1.831  11.388  1.0951 -0.4680  0.4078
10230TIP3    H252106   1.880   1.775  11.249  2.0446 -1.5501  0.9536
10231TIP3   OH252107   1.968   0.413   1.494  0.6674  0.2856  0.2176
10231TIP3    H152108   1.937   0.496   1.533 -2.1473 -0.3311 -0.4678
10231TIP3    H252109   1.949   0.422   1.401  3.7301  0.2151 -0.4967
10232TIP3   OH252110   3.706   4.011   0.189 -0.6619 -0.2369  0.0557
10232TIP3    H152111   3.655   3.999   0.269  0.3750  2.5809  1.2990
10232TIP3    H252112   3.787   4.053   0.219  0.6857 -0.9981 -2.2724
10233TIP3   OH252113   0.511   5.785  11.767  0.1985 -0.1297 -0.1749
10233TIP3    H152114   0.477   5.761  11.681 -0.5515 -1.2856  0.4236
10233TIP3    H252115   0.469   5.724  11.828 -0.1475  1.3704  1.1603
10234TIP3   OH252116   3.221   1.016   3.647  0.0973 -0.4133  0.1506
10234TIP3    H152117   3.260   0.942   3.694  0.1431 -0.7263 -0.3701
10234TIP3    H252118   3.223   0.989   3.555  1.2080  0.7169 -0.1892
10235TIP3   OH252119   2.992   0.356   3.463  0.3172 -0.4428 -0.2236
10235TIP3    H152120   2.960   0.433   3.415  1.9283 -1.0526 -2.4744
10235TIP3    H252121   2.945   0.283   3.423  0.1836 -0.7957  0.5761
10236TIP3   OH252122   6.529   5.621   1.528 -0.1926 -0.2737 -0.3920
10236TIP3    H152123   6.604   5.594   1.475 -0.2722 -1.5280  0.1051
10236TIP3    H252124   6.489   5.539   1.557 -0.2040  0.3469  1.5278
10237TIP3   OH252125   2.034   1.873  12.779 -0.6260 -0.3335  0.7463
10237TIP3    H152126   2.079   1.919  12.707  0.9308 -1.1095  1.1730
10237TIP3    H252127   1.944   1.906  12.776  0.0411  1.5762  0.0747
10238TIP3   OH252128   2.945   3.736  15.716 -0.2892  0.6754 -0.1245
10238TIP3    H152129   3.023   3.776  15.678  0.0438 -0.0929 -0.2756
10238TIP3    H252130   2.979   3.684  15.789 -0.1451 -2.4321 -2.1977
10239TIP3   OH252131   3.256   5.822   2.122  0.8117 -0.3992  0.1515
10239TIP3    H152132   3.202   5.889   2.079  2.2167  0.1654 -0.8108
10239TIP3    H252133   3.228   5.740   2.082  1.2745 -0.0067 -1.0247
10240TIP3   OH252134   2.048   4.383  11.644  0.9895 -1.1289 -0.2674
10240TIP3    H152135   2.139   4.357  11.635  1.5005  1.0185 -2.1070
10240TIP3    H252136   2.001   4.327  11.582  1.2793 -1.2316 -0.3959
10241TIP3   OH252137   3.792   3.881  14.224 -0.6801 -0.2645  0.2957
10241TIP3    H152138   3.819   3.833  14.302  1.1849  0.5206  0.1828
10241TIP3    H252139   3.755   3.814  14.166  2.6381 -1.8735 -0.2364
10242TIP3   OH252140   6.284   3.432   0.131 -0.4431  0.1169 -0.2590
10242TIP3    H152141   6.216   3.481   0.084 -0.5271  1.1267  0.8655
10242TIP3    H252142   6.313   3.492   0.200 -0.3426 -1.3188  0.9965
10243TIP3   OH252143   1.358   2.543   2.290  0.2880 -0.0974 -0.5670
10243TIP3    H152144   1.405   2.511   2.212 -0.2827  0.0193 -0.9697
10243TIP3    H252145   1.342   2.465   2.342  0.0257 -0.2930 -0.9307
10244TIP3   OH252146   5.654   2.169   2.884  0.0724 -0.1900  0.3521
10244TIP3    H152147   5.701   2.251   2.903  1.5785 -0.3758 -2.1854
10244TIP3    H252148   5.721   2.101   2.892 -0.6524 -0.9308  0.2262
10245TIP3   OH252149   5.079   2.057   2.584 -0.4165 -0.1822  0.2388
10245TIP3    H152150   5.072   1.970   2.546 -1.7611  0.0481 -0.0688
10245TIP3    H252151   4.992   2.096   2.574  0.0661  1.0763  0.6642
10246TIP3   OH252152   1.372   0.489  11.999  0.2118  0.1234 -0.0986
10246TIP3    H152153   1.353   0.518  11.910  1.5658  0.6528 -0.2423
10246TIP3    H252154   1.461   0.455  11.994 -0.0260 -0.6763  0.8690
10247TIP3   OH252155   0.713   5.537   1.255 -0.1484 -0.1489 -0.4562
10247TIP3    H152156   0.746   5.464   1.202  1.1960  0.7364 -0.9098
10247TIP3    H252157   0.625   5.553   1.222  0.7007  0.4687 -2.6085
10248TIP3   OH252158   6.676   4.925  16.259 -0.7444  0.8068 -0.3730
10248TIP3    H152159   6.676   4.835  16.291  0.7320  0.5592 -0.9797
10248TIP3    H252160   6.583   4.949  16.255 -1.1396 -0.5187  0.2274
10249TIP3   OH252161   1.793   6.253   2.279  0.1209 -0.0669 -0.1985
10249TIP3    H152162   1.718   6.209   2.319  1.2660 -0.0472  2.1229
10249TIP3    H252163   1.766   6.345   2.274 -0.4515 -0.2472 -0.5180
10250TIP3   OH252164   5.148   2.317   5.282  0.6053  0.3010 -0.6142
10250TIP3    H152165   5.200   2.369   5.221  2.3201 -0.6503 -0.0295
10250TIP3    H252166   5.125   2.238   5.233  0.3778  0.3653 -0.6142
10251TIP3   OH252167   1.223   0.036   4.755 -0.1506 -0.3926 -0.2061
10251TIP3    H152168   1.238   0.018   4.662 -0.9771 -2.1323 -0.0379
10251TIP3    H252169   1.156   0.104   4.756 -0.2772 -0.5030 -0.8844
10252TIP3   OH252170   1.523   6.488  15.047 -0.5082 -0.7742  0.1994
10252TIP3    H152171   1.612   6.481  15.013  0.0011  0.3864  1.1908
10252TIP3    H252172   1.528   6.558  15.113 -2.0259 -1.0802  0.6881
10253TIP3   OH252173   5.282   1.764  11.624  0.1011  0.2860  0.1771
10253TIP3    H152174   5.201   1.807  11.650 -0.3048 -0.7118  0.6073
10253TIP3    H252175   5.337   1.767  11.703  1.6211  3.3779 -0.8297
10254TIP3   OH252176   1.171   5.976  13.824 -0.2023  0.1960  0.3840
10254TIP3    H152177   1.266   5.966  13.821 -0.3171 -1.8446  1.7143
10254TIP3    H252178   1.137   5.898  13.781 -1.2749 -0.0984  1.7043
10255TIP3   OH252179   6.197   0.810  16.587 -0.0235 -0.1499 -0.6048
10255TIP3    H152180   6.123   0.769  16.542  0.5291 -1.4985 -0.3598
10255TIP3    H252181   6.205   0.897  16.548 -1.7657  0.0428 -0.5777
10256TIP3   OH252182   5.538   3.163  15.143  0.2914 -0.2930  0.0546
10256TIP3    H152183   5.613   3.129  15.191  0.6417 -1.1820 -1.0776
10256TIP3    H252184   5.462   3.140  15.197  0.6872 -1.1627  0.2525
10257TIP3   OH252185   2.888   2.013  13.451 -0.5423 -0.1522  0.1656
10257TIP3    H152186   2.930   1.948  13.394 -0.0228 -0.0314  0.4130
10257TIP3    H252187   2.822   1.962  13.500  0.6979 -0.7562  1.2647
10258TIP3   OH252188   3.500   2.688  15.778  0.4427  0.1737 -0.2077
10258TIP3    H152189   3.482   2.616  15.717 -0.2019 -0.6405  0.9003
10258TIP3    H252190   3.500   2.646  15.864  0.4851  1.4461  0.4296
10259TIP3   OH252191   0.414   4.801  14.826 -0.5141  0.2089  0.4316
10259TIP3    H152192   0.321   4.815  14.842 -0.6669  0.0171 -0.2657
10259TIP3    H252193   0.444   4.883  14.787 -0.7340 -0.2681 -0.7718
10260TIP3   OH252194   2.944   4.898  10.266 -0.0878  0.4730  0.0755
10260TIP3    H152195   2.882   4.943  10.324 -0.4717 -0.3050  0.2816
10260TIP3    H252196   3.027   4.942  10.281  0.2361 -0.7763  2.5228
10261TIP3   OH252197   0.851   0.253  11.143 -0.0601 -0.2250  0.3325
10261TIP3    H152198   0.767   0.273  11.103  0.4826 -1.2514 -1.4058
10261TIP3    H252199   0.913   0.254  11.071  1.3142 -0.1263  1.4866
10262TIP3   OH252200   5.079   4.958  11.715  0.3411  0.1273 -0.2476
10262TIP3    H152201   5.102   4.866  11.700 -0.7773 -0.1271 -0.5072
10262TIP3    H252202   5.015   4.978  11.647 -0.4867  0.6765  0.6700
10263TIP3   OH252203   5.938   5.467   4.575  0.5839  0.0879 -0.0741
10263TIP3    H152204   6.006   5.416   4.619  0.5732 -0.0473 -0.2147
10263TIP3    H252205   5.977   5.492   4.491  0.9249  1.0785  0.3551
10264TIP3   OH252206   4.349   0.624   0.312  0.1466  0.0309  0.4530
10264TIP3    H152207   4.384   0.621   0.402  0.0198 -2.1544  0.4885
10264TIP3    H252208   4.400   0.559   0.265 -0.4270  0.4946 -0.8460
10265TIP3   OH252209   3.433   4.232   4.907  0.8666 -0.0045 -0.0550
10265TIP3    H152210   3.358   4.177   4.883  1.1750 -0.4238 -0.0706
10265TIP3    H252211   3.406   4.276   4.988 -0.6738  2.3637 -1.7388
10266TIP3   OH252212   5.936   0.986   2.598 -0.0220  0.3157  0.1269
10266TIP3    H152213   6.011   0.948   2.552 -3.9623 -3.2958 -4.5751
10266TIP3    H252214   5.925   0.932   2.676  0.7833 -0.9387 -0.5968
10267TIP3   OH252215   4.556   2.067  15.092  0.1394 -0.2836  0.2444
10267TIP3    H152216   4.622   2.009  15.055  0.3207 -0.1146  0.3006
10267TIP3    H252217   4.606   2.134  15.138 -0.0661 -0.0665  0.1559
10268TIP3   OH252218   5.372   1.793   6.158  0.1891  0.4678 -0.4565
10268TIP3    H152219   5.450   1.848   6.157  0.3562  0.3310  1.6325
10268TIP3    H252220   5.299   1.854   6.166  0.3231  0.4557  1.0457
10269TIP3   OH252221   4.030   6.176   3.503 -0.8566  0.7259 -0.1632
10269TIP3    H152222   4.117   6.156   3.538 -0.4330 -0.4034 -1.7555
10269TIP3    H252223   3.981   6.210   3.578  0.2740 -0.7095  1.2840
10270TIP3   OH252224   6.060   4.551   0.154  0.1791  0.1631 -0.7789
10270TIP3    H152225   6.118   4.520   0.085  1.0216  4.0168 -2.0109
10270TIP3    H252226   6.117   4.598   0.215 -1.3005  2.8574 -1.2900
10271TIP3   OH252227   2.792   5.347   3.306 -0.2073 -0.6201  0.4298
10271TIP3    H152228   2.785   5.277   3.370  0.2821 -0.2239  0.9275
10271TIP3    H252229   2.805   5.426   3.359  1.3967 -0.4486 -0.1863
10272TIP3   OH252230   1.131   3.510   1.587  0.5535 -0.1624  0.5025
10272TIP3    H152231   1.047   3.539   1.553  0.8872  0.6064  0.3161
10272TIP3    H252232   1.175   3.470   1.512  0.4018 -0.4838  0.5792
10273TIP3   OH252233   5.062   2.615  14.041 -0.5470  0.2011  0.4598
10273TIP3    H152234   5.102   2.611  13.954 -0.2312  1.0606  0.5630
10273TIP3    H252235   5.118   2.559  14.095 -1.2749 -1.1007 -0.0714
10274TIP3   OH252236   5.545   5.733  13.295  0.2360  0.3306 -0.3851
10274TIP3    H152237   5.534   5.664  13.360  0.0797  0.7362  0.0263
10274TIP3    H252238   5.599   5.799  13.338  1.4823 -0.1125 -1.2269
10275TIP3   OH252239   1.443   4.584   6.501 -0.0753  0.3751 -0.5001
10275TIP3    H152240   1.377   4.634   6.453 -2.1275 -0.9307  0.7683
10275TIP3    H252241   1.478   4.645   6.566  0.2415  1.1861 -1.4191
10276TIP3   OH252242   1.511   3.866   3.386 -0.5154 -0.3103 -0.1074
10276TIP3    H152243   1.467   3.904   3.310  0.1069 -0.3605 -0.5062
10276TIP3    H252244   1.597   3.909   3.387  0.3835 -1.9770 -0.8288
10277TIP3   OH252245   5.299   1.148  11.657  0.1115 -0.1024 -0.5042
10277TIP3    H152246   5.239   1.076  11.675 -0.6470  0.8534  1.0082
10277TIP3    H252247   5.272   1.182  11.572 -0.6586 -0.4977 -0.4221
10278TIP3   OH252248   1.568   4.002   0.750 -0.0960 -0.1182 -0.2761
10278TIP3    H152249   1.528   3.978   0.666  1.3421  2.9019 -1.9996
10278TIP3    H252250   1.527   4.085   0.773  0.8505  0.0004  1.0800
10279TIP3   OH252251   5.956   3.047   3.739 -0.0611 -0.3659 -0.5755
10279TIP3    H152252   5.972   3.061   3.832 -0.3970  0.2744 -0.6064
10279TIP3    H252253   5.918   2.959   3.734  1.7057 -1.1826 -0.3198
10280TIP3   OH252254   0.526   2.572  14.327  0.2025 -0.0001  0.3035
10280TIP3    H152255   0.435   2.544  14.321  0.8483 -2.3060 -0.0354
10280TIP3    H252256   0.525   2.648  14.385 -2.0507  0.8105 -0.6984
10281TIP3   OH252257   6.605   4.709   1.094  0.2946 -0.2456  0.4514
10281TIP3    H152258   6.691   4.726   1.130 -0.2036  1.9015  0.7772
10281TIP3    H252259   6.552   4.682   1.169  0.7248 -1.9076  0.1930
10282TIP3   OH252260   1.617   6.660   3.727  0.1228  0.6134  0.0348
10282TIP3    H152261   1.587   6.722   3.793 -1.2853  0.0070  0.0001
10282TIP3    H252262   1.691   6.703   3.685 -0.1179  1.7804  0.7646
10283TIP3   OH252263   5.986   4.304   1.089 -0.1001  0.0402  0.4545
10283TIP3    H152264   5.986   4.211   1.067  2.1967  0.0675  0.0071
10283TIP3    H252265   6.040   4.310   1.168  0.5511  1.0436 -0.0362
10284TIP3   OH252266   4.258   3.343  14.262 -0.8453  0.9968 -0.5554
10284TIP3    H152267   4.167   3.319  14.244 -0.7842  1.1098 -1.0263
10284TIP3    H252268   4.309   3.293  14.198 -0.4178 -0.5176  0.9055
10285TIP3   OH252269   1.446   3.494  16.349 -0.1893  0.5000 -0.3865
10285TIP3    H152270   1.446   3.564  16.285 -3.0291  1.2989  0.3396
10285TIP3    H252271   1.375   3.436  16.322  0.6341 -0.8868  0.2840
10286TIP3   OH252272   5.407   5.497  12.895 -0.2600 -0.0074  0.5826
10286TIP3    H152273   5.443   5.585  12.881 -0.3742  0.1181  1.0375
10286TIP3    H252274   5.463   5.460  12.964  0.4016 -0.6642 -0.2895
10287TIP3   OH252275   3.859   6.801   1.854 -0.0687 -0.6085 -0.3230
10287TIP3    H152276   3.908   6.726   1.821 -1.1090 -0.4995 -2.2759
10287TIP3    H252277   3.923   6.872   1.861  0.8725 -1.5656  1.3282
10288TIP3   OH252278   2.844   0.422  14.156 -0.1875  0.4254 -0.5038
10288TIP3    H152279   2.930   0.381  14.150 -1.8710 -3.3668 -2.0954
10288TIP3    H252280   2.828   0.459  14.069 -0.8639 -0.6143 -0.8432
10289TIP3   OH252281   4.940   1.086  15.036  0.6362  0.2905  0.0672
10289TIP3    H152282   4.913   1.098  14.944  3.4559  1.1182 -0.7774
10289TIP3    H252283   4.943   0.992  15.048 -0.9464  0.1737 -0.2838
10290TIP3   OH252284   1.163   0.520  16.012  0.3120  0.1539 -0.0189
10290TIP3    H152285   1.111   0.542  16.089 -0.7153  0.1191 -0.6864
10290TIP3    H252286   1.188   0.605  15.975 -0.1967  0.1840 -0.3019
10291TIP3   OH252287   5.508   0.405   1.924 -0.0074  0.2770 -0.5190
10291TIP3    H152288   5.551   0.450   1.996  1.3515  0.5858 -1.4946
10291TIP3    H252289   5.561   0.328   1.908  0.4078  0.8202 -1.9384
10292TIP3   OH252290   1.525   5.359  12.395 -0.3252  0.1242 -0.4716
10292TIP3    H152291   1.478   5.442  12.405 -0.3649  0.0182  0.3091
10292TIP3    H252292   1.459   5.292  12.412 -0.2722 -0.0664 -1.0156
10293TIP3   OH252293   3.964   6.448   2.414 -0.4381  0.5534 -0.0317
10293TIP3    H152294   3.919   6.531   2.400 -1.3661 -0.2229 -2.1407
10293TIP3    H252295   3.913   6.384   2.364  0.8886 -1.0840  0.5921
10294TIP3   OH252296   1.877   6.174   0.061 -0.4961 -0.0415  0.0455
10294TIP3    H152297   1.964   6.145   0.034  0.0104  1.5898 -0.1975
10294TIP3    H252298   1.835   6.201  -0.021 -0.6102  0.7042  0.3359
10295TIP3   OH252299   4.644   1.606  12.712  0.4647 -0.2767  0.2515
10295TIP3    H152300   4.718   1.665  12.700 -0.1198  0.5284  0.5281
10295TIP3    H252301   4.583   1.629  12.641 -0.7176  0.9522  1.6148
10296TIP3   OH252302   3.009   1.937   1.435 -0.0230 -0.7752 -0.2953
10296TIP3    H152303   2.921   1.915   1.403  0.4275 -2.1238 -0.6778
10296TIP3    H252304   2.995   1.967   1.525 -0.6459 -3.9949  0.8289
10297TIP3   OH252305   5.685   0.041   2.520  0.2703  0.4311  0.1287
10297TIP3    H152306   5.637   0.100   2.461  0.0984 -0.0096 -0.1848
10297TIP3    H252307   5.675  -0.045   2.479  0.9651  0.2672  0.2953
10298TIP3   OH252308   3.618   5.309   4.395 -0.3246  0.3001 -0.4277
10298TIP3    H152309   3.625   5.350   4.481 -0.0029  1.1721 -0.8524
10298TIP3    H252310   3.604   5.216   4.413  4.0716 -0.3724  0.6607
10299TIP3   OH252311   4.663   3.407  10.995 -0.5255  0.3849 -0.0198
10299TIP3    H152312   4.721   3.331  10.988 -1.8565 -0.8408  1.5893
10299TIP3    H252313   4.706   3.464  11.058  0.2382  0.7750 -0.8677
10300TIP3   OH252314   0.456   4.852   3.601  0.1623  0.1951  0.7230
10300TIP3    H152315   0.374   4.895   3.575  0.6268  0.2176 -0.8541
10300TIP3    H252316   0.445   4.831   3.693 -1.2742  0.9844  0.7549
10301TIP3   OH252317   3.486   5.803   4.091  0.0002 -0.4268  0.4214
10301TIP3    H152318   3.494   5.895   4.066  0.6790 -0.3509  0.8839
10301TIP3    H252319   3.520   5.754   4.016 -1.3956 -0.3523 -0.2754
10302TIP3   OH252320   5.387   4.897  16.711  0.1456  0.6818  0.0133
10302TIP3    H152321   5.343   4.928  16.791  1.0228  1.0635  0.3517
10302TIP3    H252322   5.388   4.801  16.721 -2.2273  0.4846 -0.8614
10303TIP3   OH252323   3.779   2.549  13.202  0.3524 -0.6614 -0.2748
10303TIP3    H152324   3.806   2.507  13.120 -2.1362 -1.9213 -0.5349
10303TIP3    H252325   3.732   2.627  13.175 -0.7536 -1.2489 -0.1029
10304TIP3   OH252326   1.736   0.974  13.368  0.7681 -0.2162  0.5336
10304TIP3    H152327   1.747   0.905  13.433 -2.6441  0.1609  1.6908
10304TIP3    H252328   1.642   0.974  13.348  1.2951  1.3891 -2.5394
10305TIP3   OH252329   2.266   4.575   3.979 -0.2355 -0.1143  0.1411
10305TIP3    H152330   2.249   4.647   4.039 -0.3209 -0.6986  0.8326
10305TIP3    H252331   2.353   4.544   4.003  0.5670  0.8673 -1.3237
10306TIP3   OH252332   5.992   0.447  16.185 -0.4435  0.0412 -0.0248
10306TIP3    H152333   5.954   0.467  16.270 -0.5798 -0.4184  0.0237
10306TIP3    H252334   5.925   0.475  16.122  0.1540  1.5306 -0.0498
10307TIP3   OH252335   4.422   0.159   5.710 -0.2075  0.3609 -0.0875
10307TIP3    H152336   4.440   0.231   5.649 -0.1901 -0.3606 -0.9415
10307TIP3    H252337   4.327   0.155   5.716 -0.2033  1.2004  0.8775
10308TIP3   OH252338   3.389   2.812   0.178 -0.5956 -0.3512 -0.2644
10308TIP3    H152339   3.310   2.759   0.165 -1.3059  0.8815 -1.1932
10308TIP3    H252340   3.447   2.785   0.107 -0.3106 -0.9987  0.2041
10309TIP3   OH252341   0.725   6.555  16.345  0.3965  0.1875 -0.3735
10309TIP3    H152342   0.689   6.632  16.300  0.0001  0.5401  0.5407
10309TIP3    H252343   0.804   6.587  16.387 -0.3675  0.3845  0.9550
10310TIP3   OH252344   3.849   6.290   2.231  0.5818 -0.4609  0.4293
10310TIP3    H152345   3.861   6.195   2.224  0.2059 -0.4687 -0.2314
10310TIP3    H252346   3.754   6.303   2.230  0.5844 -0.1735  2.1412
10311TIP3   OH252347   2.626   5.171  14.273 -0.2350  1.0268 -0.2861
10311TIP3    H152348   2.621   5.147  14.365 -0.0779  2.7117  0.1963
10311TIP3    H252349   2.685   5.107  14.234 -0.2235  0.3616  0.8066
10312TIP3   OH252350   2.194   2.240  14.464 -0.2966 -0.5075  0.1946
10312TIP3    H152351   2.157   2.159  14.429  2.3770 -2.6331  1.8765
10312TIP3    H252352   2.288   2.232  14.446  0.2517  1.4345  1.9108
10313TIP3   OH252353   5.053   5.028   2.540 -0.5300 -0.4211 -0.2554
10313TIP3    H152354   4.991   4.961   2.570 -2.1594  1.7246  1.4596
10313TIP3    H252355   5.129   5.017   2.598 -0.1109 -1.6937 -0.9864
10314TIP3   OH252356   5.311   5.861   0.151 -0.2879 -0.5543  0.1100
10314TIP3    H152357   5.326   5.777   0.108 -0.5163 -1.1417  1.1167
10314TIP3    H252358   5.285   5.921   0.081  1.1105 -0.9924 -0.8073
10315TIP3   OH252359   1.266   2.072  15.279 -0.8249 -0.4703 -0.8879
10315TIP3    H152360   1.171   2.068  15.276 -0.9004 -0.6619  0.8706
10315TIP3    H252361   1.291   2.001  15.338  0.2205  1.2578  0.8509
10316TIP3   OH252362   3.258   1.386  12.666 -0.0506  0.0400 -0.3529
10316TIP3    H152363   3.344   1.403  12.706 -0.2349 -0.0851  0.1021
10316TIP3    H252364   3.229   1.304  12.706  0.3932 -0.8679 -1.8005
10317TIP3   OH252365   5.755   4.441  12.244  0.1958  0.7336 -0.0252
10317TIP3    H152366   5.726   4.493  12.319  0.0023  2.1799 -1.0747
10317TIP3    H252367   5.848   4.425  12.260  0.2634  1.4276  0.3139
10318TIP3   OH252368   4.286   6.094  14.844  0.3711  0.3341 -0.1314
10318TIP3    H152369   4.302   6.182  14.812  1.8539 -0.2736 -1.2144
10318TIP3    H252370   4.273   6.104  14.939 -2.1523  1.9619 -0.5786
10319TIP3   OH252371   2.850   6.679   5.072 -0.0438  0.2139 -0.2773
10319TIP3    H152372   2.759   6.668   5.100 -0.8909  1.6705 -2.2305
10319TIP3    H252373   2.863   6.773   5.069  1.6717  0.0365  0.2580
10320TIP3   OH252374   6.483   6.219   5.090 -0.2163 -0.2294  0.5476
10320TIP3    H152375   6.516   6.229   5.180 -0.5280 -1.4290  0.8035
10320TIP3    H252376   6.459   6.127   5.083  0.5701 -0.3513 -1.0434
10321TIP3   OH252377   4.148   4.516   2.658 -0.4609 -0.0263  0.1766
10321TIP3    H152378   4.169   4.597   2.611  1.2223 -1.3822 -1.5416
10321TIP3    H252379   4.057   4.498   2.634  0.6214 -1.2964 -3.8062
10322TIP3   OH252380   3.506   5.155  16.748 -0.3518  0.0726  0.4809
10322TIP3    H152381   3.555   5.152  16.830  1.0356 -0.6639 -0.3501
10322TIP3    H252382   3.435   5.092  16.761  0.5234 -0.8872  0.7144
10323TIP3   OH252383   5.359   0.022   5.198 -0.1976  0.0415 -0.2154
10323TIP3    H152384   5.329   0.111   5.177 -0.9076  0.6298  2.8052
10323TIP3    H252385   5.279  -0.027   5.215  0.2663 -0.6187  0.1177
10324TIP3   OH252386   1.236   6.370   4.210  0.3432 -0.4092 -0.9741
10324TIP3    H152387   1.302   6.316   4.253 -0.0174 -0.4417 -0.4413
10324TIP3    H252388   1.222   6.328   4.125 -0.3948 -1.5488 -0.3123
10325TIP3   OH252389   6.235   3.699   0.649 -0.1466  0.1961 -0.3302
10325TIP3    H152390   6.285   3.677   0.571 -0.0858  0.2836 -0.3161
10325TIP3    H252391   6.163   3.754   0.618 -2.4209 -2.8143 -0.9266
10326TIP3   OH252392   5.941   1.209  10.690 -0.1065  0.4434  0.1922
10326TIP3    H152393   5.863   1.155  10.677 -0.1380  0.2439  1.1303
10326TIP3    H252394   6.013   1.147  10.694 -0.1055  0.4895  0.9661
10327TIP3   OH252395   3.286   4.726  13.159 -0.3883  0.2323  0.6498
10327TIP3    H152396   3.221   4.656  13.159  0.0318 -0.1727  1.2098
10327TIP3    H252397   3.243   4.799  13.203 -1.0064  0.5087 -0.3868
10328TIP3   OH252398   1.231   0.263  14.194  0.3397  0.7984 -0.4864
10328TIP3    H152399   1.292   0.204  14.149  1.0799  0.2287  1.1592
10328TIP3    H252400   1.278   0.289  14.273 -2.1286 -1.0597  1.8003
10329TIP3   OH252401   3.228   3.589  17.036  0.5912 -0.1417 -0.0986
10329TIP3    H152402   3.288   3.576  16.962 -0.4267  0.9073 -1.1540
10329TIP3    H252403   3.272   3.652  17.092 -0.5905  2.8649 -2.2796
10330TIP3   OH252404   6.091   5.954   1.253 -0.1781 -0.3381 -0.2980
10330TIP3    H152405   6.048   5.979   1.335 -0.4637 -0.2901 -0.4613
10330TIP3    H252406   6.031   5.984   1.184 -0.4700 -1.3368 -0.4999
10331TIP3   OH252407   3.589   0.335  14.944 -0.3742  0.0306  0.2435
10331TIP3    H152408   3.503   0.294  14.956 -0.1802 -0.4817 -0.0818
10331TIP3    H252409   3.645   0.265  14.911 -0.0906  0.6106 -0.5458
10332TIP3   OH252410   3.107   1.407   4.600  0.3676  0.8644 -0.0955
10332TIP3    H152411   3.102   1.368   4.513 -0.4233 -0.6724  0.5928
10332TIP3    H252412   3.189   1.373   4.637 -1.9182 -3.2876  1.8151
10333TIP3   OH252413   3.098   3.331   3.004 -0.3683 -0.6873  0.2849
10333TIP3    H152414   3.172   3.380   2.970 -2.9272  2.8069 -0.7797
10333TIP3    H252415   3.123   3.308   3.093  2.0184  0.2125 -0.0896
10334TIP3   OH252416   0.956   5.386  15.536  0.1248 -0.3200 -0.1482
10334TIP3    H152417   1.052   5.384  15.536  0.1490 -2.0546  1.0611
10334TIP3    H252418   0.932   5.375  15.444  1.0633  0.9695 -0.5711
10335TIP3   OH252419   6.762   3.014  12.967  0.8915 -0.4966  0.0982
10335TIP3    H152420   6.768   2.919  12.979 -0.8483 -0.6482  0.1297
10335TIP3    H252421   6.678   3.037  13.008  1.9969  1.3070  1.5082
10336TIP3   OH252422   6.761   0.193   1.487 -0.0581 -0.0636  0.3120
10336TIP3    H152423   6.851   0.218   1.510  0.1584  2.3406 -2.5401
10336TIP3    H252424   6.730   0.144   1.563  3.0048  0.6295  2.2089
10337TIP3   OH252425   2.569   6.331   1.183  0.2017 -0.1801 -0.2436
10337TIP3    H152426   2.609   6.417   1.172  0.5608 -0.5594 -2.3789
10337TIP3    H252427   2.525   6.315   1.099 -1.7373 -1.1413  0.9022
10338TIP3   OH252428   3.940   4.780   3.425 -0.2575  0.2841 -0.0404
10338TIP3    H152429   3.946   4.873   3.405  2.7870  0.1689 -0.1117
10338TIP3    H252430   4.021   4.742   3.391  0.0697 -1.8389  2.6815
10339TIP3   OH252431   5.253   2.748   3.332  0.6422  0.0696  0.1793
10339TIP3    H152432   5.301   2.755   3.414 -2.1194 -0.9340  1.9958
10339TIP3    H252433   5.265   2.657   3.304  1.5941  0.4138 -0.6026
10340TIP3   OH252434   5.148   3.496  17.018 -0.0627  0.0882  0.0824
10340TIP3    H152435   5.201   3.441  16.961 -2.1028 -1.1234 -0.7513
10340TIP3    H252436   5.191   3.490  17.104  1.2092 -0.7196 -0.5806
10341TIP3   OH252437   3.019   1.659  16.863 -0.5238  0.3548 -0.5475
10341TIP3    H152438   2.944   1.667  16.804 -0.1316 -0.9591 -1.2748
10341TIP3    H252439   2.983   1.614  16.940 -0.4494 -0.4962 -0.9997
10342TIP3   OH252440   2.591   5.498   5.609  0.1242  0.0964 -0.3550
10342TIP3    H152441   2.524   5.529   5.549 -0.2835 -1.5805 -0.8310
10342TIP3    H252442   2.574   5.545   5.691 -0.9257  0.5377 -0.8106
10343TIP3   OH252443   5.820   1.325   2.841 -0.4179  0.2342 -0.1221
10343TIP3    H152444   5.761   1.257   2.873  0.4212 -0.2163  0.5037
10343TIP3    H252445   5.880   1.279   2.782 -2.1033  1.0935 -2.6583
10344TIP3   OH252446   0.862   1.424   3.394  0.0260 -0.1293  0.1630
10344TIP3    H152447   0.893   1.351   3.340  0.1298 -0.3258  0.4916
10344TIP3    H252448   0.794   1.466   3.340  1.5447  0.9477 -1.0134
10345TIP3   OH252449   4.321   1.832   0.434  0.4530 -0.2810  0.2475
10345TIP3    H152450   4.362   1.775   0.369  0.8278  1.6579 -1.2987
10345TIP3    H252451   4.236   1.790   0.451  1.3345 -2.1223  0.3807
10346TIP3   OH252452   2.031   0.998   5.358  0.2324 -0.0328  0.1108
10346TIP3    H152453   2.017   0.935   5.287 -0.6547  1.8927 -1.5219
10346TIP3    H252454   2.011   1.083   5.319  1.5588  1.3176  2.1767
10347TIP3   OH252455   5.743   6.129  10.367 -0.4640 -0.2286  0.4720
10347TIP3    H152456   5.682   6.056  10.376  2.1122 -2.4561  1.2463
10347TIP3    H252457   5.825   6.088  10.341  0.7766  2.6014 -0.4531
10348TIP3   OH252458   5.594   5.639  14.838  0.6408  0.0485 -0.3024
10348TIP3    H152459   5.510   5.682  14.849 -0.3849 -2.1348  0.8922
10348TIP3    H252460   5.653   5.685  14.898  0.1162  1.0956 -0.5786
10349TIP3   OH252461   4.731   5.615  15.670  0.8386  0.6219 -0.2437
10349TIP3    H152462   4.748   5.562  15.748  1.5703  0.4320 -0.5216
10349TIP3    H252463   4.797   5.684  15.673 -1.0901  2.5209  0.9662
10350TIP3   OH252464   2.648   5.306  12.773 -0.0270  0.5036 -0.6167
10350TIP3    H152465   2.642   5.279  12.682  0.1453  2.1062 -1.1302
10350TIP3    H252466   2.604   5.236  12.822  1.4183 -1.2670 -1.7330
10351TIP3   OH252467   1.413   2.090   4.951  0.1683 -0.4277 -0.0147
10351TIP3    H152468   1.500   2.082   4.990  0.1960 -1.9184 -0.3482
10351TIP3    H252469   1.426   2.065   4.859 -0.4876  0.0332 -0.2366
10352TIP3   OH252470   3.007   6.199  13.361 -0.7759 -0.8857  0.9426
10352TIP3    H152471   2.918   6.223  13.337 -0.8813 -0.9008  1.3234
10352TIP3    H252472   3.058   6.212  13.280 -0.5627  1.8615  1.4188
10353TIP3   OH252473   0.548   1.428  16.998  0.3741 -0.4270  0.4935
10353TIP3    H152474   0.550   1.333  16.988  1.3164 -0.2977 -0.8829
10353TIP3    H252475   0.640   1.455  16.989  0.0178  0.6875  0.0006
10354TIP3   OH252476   3.624   1.775  11.468  0.1311  0.5274 -0.3722
10354TIP3    H152477   3.696   1.719  11.439  0.0173  0.4672 -0.5352
10354TIP3    H252478   3.624   1.765  11.563 -0.3524 -0.3130 -0.4558
10355TIP3   OH252479   0.544   4.550   1.833 -0.1149  0.1729 -0.4038
10355TIP3    H152480   0.548   4.494   1.911  1.7654 -0.3344 -0.8254
10355TIP3    H252481   0.481   4.618   1.857  0.1752 -0.1368  1.4495
10356TIP3   OH252482   2.621   4.681   1.953 -0.3782 -0.1233 -0.0304
10356TIP3    H152483   2.664   4.619   1.894 -0.9969 -0.4763 -0.1189
10356TIP3    H252484   2.642   4.767   1.916 -1.1770 -0.3554 -1.0603
10357TIP3   OH252485   4.003   2.446   2.890 -0.2411  0.3662  0.2549
10357TIP3    H152486   3.956   2.529   2.892  0.1421  0.5806  1.9229
10357TIP3    H252487   3.998   2.414   2.980  1.4971 -0.3308  0.1378
10358TIP3   OH252488   0.129   6.025  16.004 -0.2125 -0.0580 -0.0286
10358TIP3    H152489   0.195   6.055  16.067 -1.4265  1.2449  0.6900
10358TIP3    H252490   0.048   6.067  16.032 -1.1199 -0.6599 -1.5853
10359TIP3   OH252491   1.120   2.477   1.236  0.2171  0.1642 -0.5610
10359TIP3    H152492   1.213   2.499   1.233  0.3959 -0.1594  1.2680
10359TIP3    H252493   1.106   2.447   1.326 -1.7977  0.8138 -0.6186
10360TIP3   OH252494   5.937   4.682  13.123  0.4580  0.2352  0.0423
10360TIP3    H152495   5.926   4.774  13.146  0.4475  0.6234 -1.4358
10360TIP3    H252496   6.032   4.672  13.110  0.6813 -0.4159  1.9376
10361TIP3   OH252497   0.199   3.522   3.321 -0.5627 -0.3158  0.2415
10361TIP3    H152498   0.151   3.562   3.394 -0.4456  1.2856 -0.5181
10361TIP3    H252499   0.152   3.551   3.243  1.2527  0.8040 -0.4895
10362TIP3   OH252500   5.948   0.861  15.655 -0.1756  0.1187  0.3125
10362TIP3    H152501   5.934   0.934  15.715  1.4247  0.0229  0.8435
10362TIP3    H252502   5.983   0.791  15.709  2.0867  0.2945 -0.7821
10363TIP3   OH252503   0.205   1.054  12.950  0.3016 -0.2569  0.4568
10363TIP3    H152504   0.212   1.123  13.016 -0.8598  1.8121 -1.4517
10363TIP3    H252505   0.296   1.037  12.924  0.5790  1.4559  0.1466
10364TIP3   OH252506   2.099   2.158   5.155 -0.9623  0.2656  0.3516
10364TIP3    H152507   2.022   2.104   5.142 -0.3229 -0.2075 -1.9736
10364TIP3    H252508   2.169   2.112   5.108 -0.1047  2.4473 -0.6505
10365TIP3   OH252509   3.855   5.415   0.479 -0.3608  0.3507  0.0916
10365TIP3    H152510   3.835   5.332   0.522  1.4401 -0.7117 -1.0342
10365TIP3    H252511   3.802   5.414   0.399  1.6179 -1.0141 -1.2854
10366TIP3   OH252512   2.319   0.607  15.738 -0.2046 -0.0309  0.5887
10366TIP3    H152513   2.293   0.534  15.794 -0.1390 -0.6751 -0.2039
10366TIP3    H252514   2.412   0.621  15.759  0.3048 -1.4187 -0.5732
10367TIP3   OH252515   4.125   1.314  12.741  0.5968  0.3089  0.0508
10367TIP3    H152516   4.063   1.356  12.800  0.7665 -2.3145  2.3041
10367TIP3    H252517   4.073   1.291  12.664 -0.7626 -0.0935  1.0607
10368TIP3   OH252518   5.391   0.478   3.952 -0.1791  0.3532 -0.5622
10368TIP3    H152519   5.466   0.500   3.898 -0.0453 -0.4578 -0.7161
10368TIP3    H252520   5.315   0.506   3.900 -0.0686 -0.7366 -1.3349
10369TIP3   OH252521   5.363   6.306   2.439  0.1436 -0.1357  0.2075
10369TIP3    H152522   5.420   6.230   2.458 -0.8182 -1.6218 -2.3496
10369TIP3    H252523   5.327   6.330   2.524  2.4857 -0.8638  1.5044
10370TIP3   OH252524   4.829   4.332  11.997 -0.4910  0.0674  0.8008
10370TIP3    H152525   4.866   4.420  11.984 -0.1314  0.1775  2.4434
10370TIP3    H252526   4.737   4.341  11.971 -0.5735  1.0525  1.3835
10371TIP3   OH252527   0.735   0.033  15.654 -0.6554 -0.1099  0.6043
10371TIP3    H152528   0.715   0.115  15.609  1.4231 -0.3514 -0.9056
10371TIP3    H252529   0.675  -0.031  15.616 -0.0134  0.0364 -0.7169
10372TIP3   OH252530   4.323   4.805  16.696  0.0978  0.3450  0.4316
10372TIP3    H152531   4.283   4.779  16.613  1.6410 -1.9663  0.3259
10372TIP3    H252532   4.266   4.766  16.763  0.6552 -0.6422  0.3473
10373TIP3   OH252533   2.428   0.286   4.948  0.5194  0.3916 -0.4133
10373TIP3    H152534   2.431   0.351   5.019  0.2020  0.9562 -0.9097
10373TIP3    H252535   2.344   0.301   4.905  1.0035  0.5424 -1.3518
10374TIP3   OH252536   5.729   3.712  15.255  0.1965 -0.4192  0.3699
10374TIP3    H152537   5.803   3.755  15.299 -0.1924 -0.7948  1.4281
10374TIP3    H252538   5.722   3.756  15.171  1.2249  0.0571  0.5158
10375TIP3   OH252539   2.096   4.890  15.497  0.0365  0.0029 -0.2489
10375TIP3    H152540   2.098   4.982  15.471  1.1750  0.3099  0.8292
10375TIP3    H252541   2.184   4.872  15.531 -0.1779 -1.4722 -0.3703
10376TIP3   OH252542   1.198   4.761  13.069  0.1093  0.4792 -0.3009
10376TIP3    H152543   1.111   4.755  13.030  1.1287  1.4059 -2.9197
10376TIP3    H252544   1.197   4.844  13.117 -1.0106 -0.4400  1.3520
10377TIP3   OH252545   6.566   2.268  17.021 -0.3656 -0.2756 -0.9085
10377TIP3    H152546   6.608   2.322  16.954 -1.0680  0.4790 -0.7555
10377TIP3    H252547   6.551   2.328  17.094 -0.2650 -0.9223 -0.3421
10378TIP3   OH252548   0.070   1.763  14.988  0.3926  0.3499 -0.2903
10378TIP3    H152549   0.112   1.815  15.057  0.0430 -0.8034  0.8408
10378TIP3    H252550   0.123   1.779  14.910  0.6719  1.8621  0.1790
10379TIP3   OH252551   3.133   5.948   1.653  0.6943 -0.1570  0.0913
10379TIP3    H152552   3.078   5.917   1.581  0.4392  0.7671 -0.1356
10379TIP3    H252553   3.111   5.891   1.727  0.1187 -0.3939 -0.2555
10380TIP3   OH252554   1.935   5.931  15.025 -0.6792 -0.0055 -0.1185
10380TIP3    H152555   1.924   5.867  14.954 -0.6132 -0.5930  0.3921
10380TIP3    H252556   1.933   6.016  14.981 -0.1764 -0.3759 -0.8856
10381TIP3   OH252557   2.078   6.010  12.261  0.0033 -0.3220 -0.0106
10381TIP3    H152558   2.173   5.998  12.259 -0.0912 -1.0634 -0.8877
10381TIP3    H252559   2.060   6.067  12.186 -0.1289  0.8997  0.9193
10382TIP3   OH252560   1.071   6.673   5.480  0.6177  0.1023 -0.3987
10382TIP3    H152561   1.110   6.629   5.405  1.8199 -0.1419  0.3368
10382TIP3    H252562   1.097   6.619   5.555 -1.0975 -0.0241  0.1407
10383TIP3   OH252563   4.849   4.277  15.416  0.3317  0.5518 -0.1553
10383TIP3    H152564   4.893   4.213  15.471  0.7663  0.3794 -0.6981
10383TIP3    H252565   4.774   4.306  15.468  0.1552 -0.3596  0.1073
10384TIP3   OH252566   2.266   0.932  16.480 -0.0229  0.2717 -0.8811
10384TIP3    H152567   2.192   0.944  16.421 -1.7396  3.0568  1.5266
10384TIP3    H252568   2.262   1.007  16.540  3.6389 -0.4731  0.6249
10385TIP3   OH252569   0.328   5.025   3.935  0.5904  0.2777 -0.0800
10385TIP3    H152570   0.316   5.109   3.891  1.1638  1.5671  2.0844
10385TIP3    H252571   0.422   5.009   3.934  0.5916  0.2053  0.4286
10386TIP3   OH252572   2.437   4.607  16.283  0.4238  0.3773  0.4461
10386TIP3    H152573   2.405   4.662  16.212 -0.9400  2.2296  2.3806
10386TIP3    H252574   2.525   4.641  16.302  0.9134 -0.3184 -0.4996
10387TIP3   OH252575   5.859   2.579  13.291 -0.6185  0.2243 -0.0753
10387TIP3    H152576   5.825   2.643  13.354 -0.7589 -0.4205  0.5099
10387TIP3    H252577   5.781   2.544  13.249 -0.6357 -0.6016  0.6291
10388TIP3   OH252578   3.079   3.548   4.988  0.1157 -0.7245 -0.1834
10388TIP3    H152579   3.143   3.613   4.957 -0.0971 -0.9943 -1.2340
10388TIP3    H252580   2.994   3.588   4.969 -0.0176 -1.2809 -0.8030
10389TIP3   OH252581   4.300   2.925   1.649  0.7195  0.5155 -0.1640
10389TIP3    H152582   4.299   2.844   1.597  2.0070 -0.0356  0.6141
10389TIP3    H252583   4.339   2.990   1.591  0.1918  0.4429 -0.6056
10390TIP3   OH252584   4.851   0.231  16.459  0.0576  0.2744 -0.0419
10390TIP3    H152585   4.894   0.296  16.403 -2.7483  0.9963 -1.5448
10390TIP3    H252586   4.765   0.268  16.477 -0.7547 -1.9764  1.1253
10391TIP3   OH252587   5.303   6.486  16.569  0.3934 -1.1620 -0.1577
10391TIP3    H152588   5.375   6.436  16.608  0.5521  0.8331  2.3885
10391TIP3    H252589   5.240   6.497  16.639 -0.8252 -0.0125 -1.3666
10392TIP3   OH252590   6.088   6.230   2.434  0.0934 -0.1979  0.2945
10392TIP3    H152591   6.132   6.242   2.518 -0.0567 -0.1974  0.3715
10392TIP3    H252592   6.056   6.139   2.436 -0.0162 -0.1597  0.2878
10393TIP3   OH252593   0.534   2.436  11.095  0.1510  0.0772 -0.1715
10393TIP3    H152594   0.564   2.418  11.006 -0.0878 -0.2147 -0.1948
10393TIP3    H252595   0.613   2.464  11.142 -0.2108  3.6183 -1.3199
10394TIP3   OH252596   4.339   1.988  14.960 -0.1343 -0.4093  0.1013
10394TIP3    H152597   4.387   2.035  15.027 -1.6887 -1.3034  1.9257
10394TIP3    H252598   4.396   1.991  14.883  0.9882  2.0323  0.9398
10395TIP3   OH252599   3.798   0.332  16.508 -0.0860  0.3696  0.8737
10395TIP3    H152600   3.742   0.410  16.496 -1.9940 -1.1136 -0.4885
10395TIP3    H252601   3.865   0.340  16.441 -0.4428  0.7038  0.5519
10396TIP3   OH252602   4.107   3.365  16.087  0.3755 -0.2003  0.8449
10396TIP3    H152603   4.080   3.318  16.165 -1.7004 -0.5031  0.0165
10396TIP3    H252604   4.054   3.328  16.017  1.2729  0.9127 -0.4958
10397TIP3   OH252605   2.777   0.138  11.989  0.0097  0.4617  0.1734
10397TIP3    H152606   2.787   0.233  12.003 -1.4536  0.5710  0.6327
10397TIP3    H252607   2.755   0.103  12.075  0.2006 -0.2536 -0.0625
10398TIP3   OH252608   1.385   4.058   4.959 -0.1636  0.1299  0.0653
10398TIP3    H152609   1.423   4.133   5.005 -0.1628 -0.6391  1.3651
10398TIP3    H252610   1.429   4.058   4.873  1.3485  0.4166  0.8061
10399TIP3   OH252611   6.697   4.225   4.632  0.5076  0.3238 -0.2301
10399TIP3    H152612   6.690   4.131   4.614 -0.6332  0.7016 -1.9050
10399TIP3    H252613   6.608   4.259   4.621  1.3021  1.9944 -2.1956
10400TIP3   OH252614   5.834   2.817   0.966  0.2676  0.3143 -0.4255
10400TIP3    H152615   5.895   2.756   1.008  0.8102  0.5661 -0.8237
10400TIP3    H252616   5.807   2.773   0.886 -1.1327 -0.3658  0.3814
10401TIP3   OH252617   3.602   4.290  13.397 -0.1066  0.1487 -0.5089
10401TIP3    H152618   3.604   4.383  13.374  0.8814  0.2179 -0.1955
10401TIP3    H252619   3.521   4.257  13.358  0.0538  0.9087 -1.5179
10402TIP3   OH252620   0.248   5.019  13.936  0.3575 -0.4070 -0.0405
10402TIP3    H152621   0.161   5.005  13.899  0.6170 -2.4062 -0.0116
10402TIP3    H252622   0.278   5.101  13.897 -0.8453 -0.5682 -1.3848
10403TIP3   OH252623   2.341   5.659  12.521  0.3797  0.1682 -0.2694
10403TIP3    H152624   2.348   5.619  12.607 -0.3312 -1.0830 -0.7737
10403TIP3    H252625   2.252   5.696  12.519 -0.2188 -1.2185 -1.0175
10404TIP3   OH252626   5.593   3.405   0.221 -0.2704  0.3077  0.1185
10404TIP3    H152627   5.566   3.350   0.294  0.3543  0.9749  0.8742
10404TIP3    H252628   5.685   3.425   0.239 -0.9000  3.0063  0.8342
10405TIP3   OH252629   0.930   0.486  16.573 -0.4009 -0.4913  0.3017
10405TIP3    H152630   0.968   0.417  16.627 -0.3514  0.1806  1.1451
10405TIP3    H252631   0.960   0.467  16.484  0.4025 -1.0076  0.6757
10406TIP3   OH252632   3.799   3.530  16.097  0.3049 -0.2957  0.1421
10406TIP3    H152633   3.813   3.529  16.003 -1.3772 -1.7003 -0.1434
10406TIP3    H252634   3.705   3.515  16.107  0.2800  0.7951  2.0323
10407TIP3   OH252635   5.286   1.025  15.346  0.0630 -0.7424 -0.0714
10407TIP3    H152636   5.206   1.005  15.395 -0.9563 -1.8479 -2.0364
10407TIP3    H252637   5.342   0.948  15.357  0.8770  0.0088  1.2579
10408TIP3   OH252638   5.846   4.973  16.186  0.4720 -0.1884 -0.6184
10408TIP3    H152639   5.828   4.983  16.280  0.5183 -1.1370 -0.4910
10408TIP3    H252640   5.910   4.901  16.182 -0.9081 -1.4271 -1.4603
10409TIP3   OH252641   6.416   5.788  15.049 -0.0513 -0.2041  0.1061
10409TIP3    H152642   6.419   5.828  15.136 -0.9344 -1.3584  0.7042
10409TIP3    H252643   6.404   5.861  14.989 -1.4253  0.4619  1.1399
10410TIP3   OH252644   5.510   2.766   1.509 -0.1823 -0.5133 -0.0258
10410TIP3    H152645   5.428   2.719   1.521 -0.3244 -1.3921 -3.4074
10410TIP3    H252646   5.577   2.698   1.503  0.8760  0.1845  2.5013
10411TIP3   OH252647   5.785   5.449  12.396  0.1516  0.3650  0.3237
10411TIP3    H152648   5.698   5.450  12.436 -0.4193 -1.2115 -0.7671
10411TIP3    H252649   5.771   5.408  12.310  1.9833 -0.0022  0.1603
10412TIP3   OH252650   2.535   0.372   6.023 -0.1122  0.3593  0.1111
10412TIP3    H152651   2.516   0.343   5.933 -1.2507  1.0162  0.1158
10412TIP3    H252652   2.612   0.322   6.048 -0.4297 -0.6649 -0.8342
10413TIP3   OH252653   1.748   3.761   1.082 -0.1432 -0.0659  0.0311
10413TIP3    H152654   1.782   3.683   1.126 -0.6977 -1.2057 -1.4481
10413TIP3    H252655   1.752   3.739   0.988 -0.3871  1.6611 -0.4262
10414TIP3   OH252656   2.583   5.681  10.990  0.2646 -0.0675  0.0008
10414TIP3    H152657   2.577   5.659  10.897  1.7555 -0.3295 -0.0610
10414TIP3    H252658   2.673   5.713  11.001 -0.4934  1.8355  0.9796
10415TIP3   OH252659   2.241   4.771   4.264 -0.1381  0.0464  0.4795
10415TIP3    H152660   2.265   4.690   4.308 -0.5489  0.2455  1.0810
10415TIP3    H252661   2.323   4.802   4.224 -0.0777 -0.8923 -0.1468
10416TIP3   OH252662   2.302   2.446   4.597 -0.2780 -0.0186  0.1989
10416TIP3    H152663   2.326   2.534   4.569 -0.4641 -0.6338 -2.1015
10416TIP3    H252664   2.208   2.440   4.579 -0.2344 -0.7240  0.1645
10417TIP3   OH252665   4.772   5.656   2.048  0.3900 -0.2453  0.6174
10417TIP3    H152666   4.737   5.726   1.993  0.1575 -1.9023 -1.4217
10417TIP3    H252667   4.747   5.682   2.137 -0.4574  1.7922 -0.1482
10418TIP3   OH252668   4.206   0.448  12.863 -0.9889  0.5373 -0.3414
10418TIP3    H152669   4.255   0.530  12.858  1.0701 -0.7080 -2.7127
10418TIP3    H252670   4.186   0.427  12.771 -1.5217 -1.5707  0.2066
10419TIP3   OH252671   2.474   4.177  12.267  0.1219 -0.4233  0.4823
10419TIP3    H152672   2.476   4.135  12.181  0.2938  1.3406 -0.4190
10419TIP3    H252673   2.425   4.258  12.253  2.3115  1.1664  1.3970
10420TIP3   OH252674   6.508   4.569   1.642 -0.0047  0.5279 -0.0715
10420TIP3    H152675   6.466   4.653   1.627 -0.3652  0.2975 -0.3550
10420TIP3    H252676   6.602   4.589   1.643 -0.0866  0.9285 -0.1466
10421TIP3   OH252677   1.332   1.588   0.863 -0.5895  0.3870 -0.1472
10421TIP3    H152678   1.325   1.676   0.900  0.5172 -0.1825  1.5175
10421TIP3    H252679   1.250   1.575   0.816 -1.7319  1.4843  1.4451
10422TIP3   OH252680   0.136   5.845   1.575  0.1988 -0.2266  0.3625
10422TIP3    H152681   0.194   5.920   1.584 -0.4084  0.3474 -0.3539
10422TIP3    H252682   0.068   5.859   1.641  0.2408 -0.2902  0.4190
10423TIP3   OH252683   5.514   3.418  10.672 -0.2416  0.6280 -0.0587
10423TIP3    H152684   5.503   3.323  10.667 -0.2180  0.5551  1.0654
10423TIP3    H252685   5.485   3.441  10.760  1.1400  1.4707  0.2126
10424TIP3   OH252686   6.753   0.364  10.431 -0.2041  0.4629 -0.3000
10424TIP3    H152687   6.678   0.378  10.489 -1.9848  0.2236 -2.3761
10424TIP3    H252688   6.766   0.448  10.388 -0.7655 -0.0514 -1.5314
10425TIP3   OH252689   1.823   4.340   4.135  0.2623  0.0938 -0.3396
10425TIP3    H152690   1.767   4.270   4.168 -0.5056 -0.0444 -1.8445
10425TIP3    H252691   1.809   4.339   4.040  0.1846  2.3044 -0.4015
10426TIP3   OH252692   2.676   0.935  14.674  0.0011  0.2750 -0.0469
10426TIP3    H152693   2.719   0.853  14.647 -0.2253 -0.1617  0.8790
10426TIP3    H252694   2.746   1.000  14.674  0.5390 -0.2793  0.7804
10427TIP3   OH252695   5.702   0.672  13.651  0.3431 -0.1213  0.5570
10427TIP3    H152696   5.702   0.592  13.599  0.1309 -0.0730  0.4817
10427TIP3    H252697   5.646   0.651  13.726  1.9732 -0.7591  1.6468
10428TIP3   OH252698   3.702   3.498  16.749 -0.1446 -0.5074  0.3727
10428TIP3    H152699   3.719   3.584  16.789  2.6152  0.1249 -1.8466
10428TIP3    H252700   3.654   3.519  16.668 -1.9303 -1.3852  1.1530
10429TIP3   OH252701   2.525   5.161  13.968  0.1210  0.5447 -0.4490
10429TIP3    H152702   2.537   5.179  14.062 -0.7078 -0.3135 -0.1643
10429TIP3    H252703   2.479   5.238  13.935 -1.9154 -0.2324  0.4074
10430TIP3   OH252704   1.688   0.940   5.540 -0.1217 -0.1365 -0.2178
10430TIP3    H152705   1.602   0.908   5.567 -0.1193 -0.1925 -0.2760
10430TIP3    H252706   1.708   1.011   5.601 -1.1350  1.2620 -1.4220
10431TIP3   OH252707   1.211   4.220  16.847  0.0539 -0.4705 -0.0086
10431TIP3    H152708   1.280   4.286  16.852 -1.4002  0.9755  2.3094
10431TIP3    H252709   1.142   4.261  16.794 -0.3451 -0.6174  0.3906
10432TIP3   OH252710   6.361   5.063  12.199 -0.2235  0.1638  0.3436
10432TIP3    H152711   6.361   4.997  12.129  0.3529 -0.9769  1.3880
10432TIP3    H252712   6.450   5.061  12.234 -0.7973 -0.1035  1.8558
10433TIP3   OH252713   4.494   5.284   3.372  0.0302 -0.5387 -0.0913
10433TIP3    H152714   4.579   5.310   3.408 -0.1436  1.9035 -1.2426
10433TIP3    H252715   4.507   5.281   3.277 -0.8949 -1.3307 -0.2173
10434TIP3   OH252716   6.781   4.454  11.890  0.8938  0.3354  0.0218
10434TIP3    H152717   6.699   4.498  11.868  1.5892  0.1060 -3.6369
10434TIP3    H252718   6.838   4.525  11.922 -0.2384  0.7062  1.3576
10435TIP3   OH252719   2.968   2.453  16.520  0.8499  0.7076 -0.0878
10435TIP3    H152720   2.959   2.448  16.425 -0.4576  0.1222  0.0400
10435TIP3    H252721   2.940   2.542  16.542  1.5393  0.9783 -0.2714
10436TIP3   OH252722   2.829   0.879  11.557 -0.3684 -0.3588 -0.1294
10436TIP3    H152723   2.901   0.883  11.495 -1.1437  0.2804 -1.0240
10436TIP3    H252724   2.870   0.867  11.642  1.1613  4.1439  0.0284
10437TIP3   OH252725   2.487   4.307   4.743  0.0342  0.6268  0.1918
10437TIP3    H152726   2.558   4.363   4.774 -0.9360  1.4418  1.0131
10437TIP3    H252727   2.432   4.365   4.690  0.5487 -0.2593 -1.4018
10438TIP3   OH252728   0.192   1.932   0.587  0.7596  0.7110 -0.1926
10438TIP3    H152729   0.271   1.899   0.544 -0.6701 -1.4609 -1.3076
10438TIP3    H252730   0.135   1.959   0.515 -0.7644 -0.8228  0.3747
10439TIP3   OH252731   3.564   6.333  14.034 -0.3954 -0.2377  0.1352
10439TIP3    H152732   3.471   6.351  14.018 -0.4703  0.9616  1.5905
10439TIP3    H252733   3.605   6.420  14.034  1.2811 -0.8928 -3.1678
10440TIP3   OH252734   1.525   6.182  13.107 -0.4323 -0.4350 -0.7068
10440TIP3    H152735   1.510   6.101  13.156 -0.3485 -0.1648 -0.2284
10440TIP3    H252736   1.476   6.170  13.025 -1.2848 -0.5434 -0.1862
10441TIP3   OH252737   3.592   2.270   1.349  0.3284  0.3524 -0.3300
10441TIP3    H152738   3.502   2.244   1.371  0.2798  0.1757 -0.7359
10441TIP3    H252739   3.622   2.318   1.426 -0.0011  0.1312 -0.0612
10442TIP3   OH252740   4.595   4.127   5.950  0.1860 -0.3411 -0.3405
10442TIP3    H152741   4.669   4.067   5.957  0.4674 -0.2376 -2.0321
10442TIP3    H252742   4.635   4.214   5.941 -0.1091 -0.3189 -1.5832
10443TIP3   OH252743   5.716   3.880  16.515  0.3176  0.1017  0.0498
10443TIP3    H152744   5.748   3.864  16.426 -0.3068  0.6726 -0.2811
10443TIP3    H252745   5.767   3.955  16.546  0.0469  0.3469 -0.0909
10444TIP3   OH252746   3.602   0.111  11.245 -0.1875 -0.1562  0.5848
10444TIP3    H152747   3.648   0.079  11.322  1.7445 -1.2849 -0.9343
10444TIP3    H252748   3.653   0.077  11.171 -2.5401 -0.0195 -1.2179
10445TIP3   OH252749   2.422   2.271   2.914  0.0501  0.3430 -0.2636
10445TIP3    H152750   2.330   2.300   2.917 -0.0414  0.0572 -0.2712
10445TIP3    H252751   2.472   2.352   2.916 -0.1212  0.4886  2.7883
10446TIP3   OH252752   4.453   1.853  10.824  0.3647 -0.1173 -0.3180
10446TIP3    H152753   4.546   1.871  10.827  1.0216 -3.0436  0.1608
10446TIP3    H252754   4.423   1.864  10.914  0.1762  1.0131 -0.5074
10447TIP3   OH252755   4.190   0.285   2.704 -0.4365  0.1540 -0.3707
10447TIP3    H152756   4.180   0.283   2.800  2.0129  1.7346 -0.0085
10447TIP3    H252757   4.147   0.204   2.675 -2.3808  0.2296  1.8956
10448TIP3   OH252758   5.405   1.703  14.800 -0.2912  0.2737 -0.1984
10448TIP3    H152759   5.347   1.772  14.834 -1.8729 -1.8065  1.6759
10448TIP3    H252760   5.354   1.663  14.729  0.2782  0.4993 -0.7401
10449TIP3   OH252761   0.869   5.083  16.073  0.3612 -0.2122  0.1173
10449TIP3    H152762   0.846   5.002  16.028  0.7165 -0.6330  0.6787
10449TIP3    H252763   0.841   5.153  16.013  2.3144 -0.7470 -1.5100
10450TIP3   OH252764   6.612   5.629  15.256  0.2910  0.0568 -0.1279
10450TIP3    H152765   6.542   5.605  15.194 -0.3393  1.0564  0.1651
10450TIP3    H252766   6.565   5.664  15.332  1.0497 -1.2248  0.9719
10451TIP3   OH252767   1.871   5.903  13.593 -0.2785 -0.8533 -0.3774
10451TIP3    H152768   1.808   5.966  13.557 -0.0505  0.4043  1.2860
10451TIP3    H252769   1.817   5.830  13.623 -0.8836 -0.2210  0.1314
10452TIP3   OH252770   3.211   0.434  12.646 -0.6989  0.1807  0.6081
10452TIP3    H152771   3.147   0.445  12.576  1.3551  2.1939 -1.1097
10452TIP3    H252772   3.234   0.523  12.672 -0.1924 -0.5067  2.7402
10453TIP3   OH252773   0.211   5.295  12.128  0.4916  0.1021  0.2523
10453TIP3    H152774   0.128   5.327  12.162 -0.9673 -2.5023 -0.5910
10453TIP3    H252775   0.207   5.315  12.034  0.4578 -0.7233  0.0755
10454TIP3   OH252776   4.409   3.859   1.119 -0.5513 -0.0519  0.2172
10454TIP3    H152777   4.440   3.897   1.201 -0.5987  0.0775  0.1762
10454TIP3    H252778   4.317   3.883   1.114 -0.7748 -0.8132  0.5528
10455TIP3   OH252779   1.944   2.213   4.211 -0.2068 -0.4100 -0.2214
10455TIP3    H152780   1.939   2.187   4.303  1.0782 -2.2951 -0.6283
10455TIP3    H252781   1.994   2.144   4.169  0.4982  1.1294 -2.0872
10456TIP3   OH252782   0.255   2.576   6.185 -0.1432 -0.3499 -0.0776
10456TIP3    H152783   0.165   2.588   6.215  0.1865  1.9645  0.1854
10456TIP3    H252784   0.250   2.581   6.090 -0.2424  0.2872 -0.0423
10457TIP3   OH252785   2.520   3.730   6.033 -0.2882  0.0893 -0.0945
10457TIP3    H152786   2.550   3.821   6.024  1.2471 -0.2646  0.9331
10457TIP3    H252787   2.601   3.679   6.031 -1.2226 -1.4579 -2.4521
10458TIP3   OH252788   3.192   6.324  11.917 -0.1109  0.1247 -0.3845
10458TIP3    H152789   3.193   6.286  12.005 -0.3087  0.6839 -0.1408
10458TIP3    H252790   3.129   6.396  11.922  0.6296  0.8086 -0.7150
10459TIP3   OH252791   1.698   2.039  13.509  0.2035 -0.3328 -0.2892
10459TIP3    H152792   1.608   2.029  13.540 -0.2967  0.7989 -1.2930
10459TIP3    H252793   1.726   2.124  13.545 -0.0887  0.5942 -2.1245
10460TIP3   OH252794   5.359   5.651  17.070  0.1830  0.0547 -0.6272
10460TIP3    H152795   5.314   5.566  17.069 -2.6998  1.4344 -2.0620
10460TIP3    H252796   5.362   5.678  16.978 -3.7204  3.6144 -0.0452
10461TIP3   OH252797   4.704   1.796  13.650 -0.3389  0.3738 -0.1266
10461TIP3    H152798   4.671   1.710  13.622 -0.1882  0.7644 -1.5990
10461TIP3    H252799   4.792   1.778  13.683  0.6628  0.2228 -2.6469
10462TIP3   OH252800   3.843   4.019   3.554  0.3605  0.6688 -0.1137
10462TIP3    H152801   3.827   4.006   3.647  1.1770  0.5234  0.0162
10462TIP3    H252802   3.813   4.108   3.536 -3.9427 -0.6334 -0.6891
10463TIP3   OH252803   4.625   0.146   2.999  0.3821  0.0530  0.0549
10463TIP3    H152804   4.597   0.141   3.091  0.7395  0.5298  0.1960
10463TIP3    H252805   4.580   0.223   2.964  0.0162 -0.3012 -0.2524
10464TIP3   OH252806   1.227   3.733   4.844 -0.0355  0.4033 -0.0434
10464TIP3    H152807   1.221   3.639   4.861  0.7962  0.2134 -0.7378
10464TIP3    H252808   1.206   3.774   4.928  1.7105 -0.4500  0.8679
10465TIP3   OH252809   0.032   1.213  11.653  0.4862  0.0132  0.2462
10465TIP3    H152810   0.093   1.139  11.654 -1.0091 -1.2748 -0.4063
10465TIP3    H252811   0.024   1.236  11.561 -2.0505 -1.6423 -0.0401
10466TIP3   OH252812   4.041   5.398  15.100 -0.4221  0.0570 -0.1320
10466TIP3    H152813   4.037   5.335  15.172 -0.5398 -1.4112 -1.3889
10466TIP3    H252814   4.130   5.391  15.067 -0.9293 -0.7454 -1.3878
10467TIP3   OH252815   6.476   6.776   2.136  0.4457 -0.2249 -0.1780
10467TIP3    H152816   6.403   6.806   2.190  1.0499 -0.0398  0.5469
10467TIP3    H252817   6.554   6.788   2.191  0.8778 -1.6738 -0.4301
10468TIP3   OH252818   6.062   5.748  11.741  0.0101  0.0993  0.1910
10468TIP3    H152819   6.133   5.689  11.717  0.8554  0.4595  1.7166
10468TIP3    H252820   6.082   5.830  11.696  0.1351 -0.0376 -0.0044
10469TIP3   OH252821   1.437   1.632   5.781 -0.6500 -0.0178  0.4689
10469TIP3    H152822   1.421   1.545   5.815  0.5795  0.4699  2.4307
10469TIP3    H252823   1.510   1.666   5.833  1.9961  0.5157 -3.1728
10470TIP3   OH252824   0.391   3.475  12.379  0.5663 -0.6350  0.7400
10470TIP3    H152825   0.298   3.493  12.367  0.3726 -1.6480  0.6286
10470TIP3    H252826   0.394   3.395  12.431  1.3743 -0.5851  0.7891
10471TIP3   OH252827   0.032   6.404  12.749 -0.0639 -0.0679  0.1799
10471TIP3    H152828   0.014   6.397  12.655  0.7064  0.5540 -0.0274
10471TIP3    H252829  -0.047   6.370  12.791 -0.7545  0.4217 -0.6840
10472TIP3   OH252830   0.101   4.430   5.716  0.2502 -0.0696 -0.1197
10472TIP3    H152831   0.066   4.395   5.798 -0.0687  1.3689  0.3872
10472TIP3    H252832   0.192   4.401   5.714  0.1392 -0.4758  0.5322
10473TIP3   OH252833   5.344   1.292  11.226 -0.4645 -0.2449 -0.2632
10473TIP3    H152834   5.281   1.345  11.275 -1.1086 -2.4187  1.4733
10473TIP3    H252835   5.360   1.340  11.145 -1.4837  2.1951  0.9024
10474TIP3   OH252836   3.524   6.645  11.508 -0.2213  0.2011 -0.0532
10474TIP3    H152837   3.477   6.619  11.587  1.5630 -3.9272 -0.1159
10474TIP3    H252838   3.457   6.644  11.439 -0.9045 -1.0159  0.5974
10475TIP3   OH252839   0.802   5.382   6.175  0.2213 -0.1172  0.0263
10475TIP3    H152840   0.798   5.435   6.096 -0.7462 -0.8567 -0.4358
10475TIP3    H252841   0.868   5.316   6.156  2.1307  1.4042  0.9515
10476TIP3   OH252842   1.840   3.970  15.444 -0.3269  0.1020  0.0955
10476TIP3    H152843   1.882   3.884  15.448 -0.2381  0.1062 -0.6122
10476TIP3    H252844   1.904   4.030  15.482  0.6372  0.2182 -1.6133
10477TIP3   OH252845   6.131   5.428  15.302 -0.4315  0.0579  0.0584
10477TIP3    H152846   6.215   5.393  15.332  1.2985  0.7170 -3.4577
10477TIP3    H252847   6.104   5.368  15.232 -1.8355  0.9999 -0.2489
10478TIP3   OH252848   6.667   4.019  16.289  0.1787  0.5501 -0.5059
10478TIP3    H152849   6.666   4.087  16.223 -1.1175  0.4922 -0.5676
10478TIP3    H252850   6.576   3.991  16.297  0.3506  0.3124  1.0426
10479TIP3   OH252851   1.437   0.783  17.052 -0.1379 -0.1442  0.1767
10479TIP3    H152852   1.421   0.696  17.015 -0.4239 -0.2653  0.5813
10479TIP3    H252853   1.533   0.790  17.058 -0.1095 -0.3518 -0.0416
10480TIP3   OH252854   6.058   0.480   0.790 -0.3346 -0.3389 -0.2238
10480TIP3    H152855   6.061   0.391   0.825  0.9223  0.2644  1.3629
10480TIP3    H252856   6.148   0.499   0.765 -0.1485  1.1792  1.4095
10481TIP3   OH252857   5.116   6.429   3.413  0.3969 -0.0442  0.3540
10481TIP3    H152858   5.062   6.451   3.337 -0.4212  0.7715  1.1451
10481TIP3    H252859   5.188   6.492   3.411 -0.0492  0.4871  0.6756
10482TIP3   OH252860   0.882   0.804  13.445  0.1358  0.2608 -0.1039
10482TIP3    H152861   0.814   0.831  13.507 -0.3560 -0.0509 -0.4993
10482TIP3    H252862   0.945   0.877  13.445 -1.2324  1.5151 -1.2531
10483TIP3   OH252863   6.310   4.988   0.847  0.2411  0.1222  0.5277
10483TIP3    H152864   6.304   4.902   0.888  3.6761  0.2528  1.6396
10483TIP3    H252865   6.263   5.047   0.906  0.2878 -0.5671  1.2632
10484TIP3   OH252866   4.119   0.469  13.999 -0.2105  0.4440 -0.9630
10484TIP3    H152867   4.115   0.517  13.917 -1.2808 -1.1588 -1.9158
10484TIP3    H252868   4.150   0.382  13.975  0.5347  0.2628  0.5146
10485TIP3   OH252869   5.504   4.914  16.326 -0.5559  0.7580 -0.4225
10485TIP3    H152870   5.586   4.896  16.374 -0.6625  0.6982 -0.2613
10485TIP3    H252871   5.533   4.943  16.240 -0.3543  0.9924 -0.2809
10486TIP3   OH252872   4.698   1.210   1.921  0.8116 -0.0704  0.1585
10486TIP3    H152873   4.631   1.253   1.868 -0.0407 -2.1695 -0.5371
10486TIP3    H252874   4.698   1.119   1.892  1.4283 -0.9626  2.6819
10487TIP3   OH252875   3.195   6.807  12.538  0.3098  0.1129  0.4283
10487TIP3    H152876   3.212   6.714  12.523 -0.7148  0.1965 -1.5207
10487TIP3    H252877   3.128   6.809  12.606 -0.7406 -0.6471 -0.5696
10488TIP3   OH252878   0.366   1.954  11.080  0.0448  0.0810  0.6593
10488TIP3    H152879   0.359   1.976  11.172  1.4605  0.2755  0.7334
10488TIP3    H252880   0.330   2.030  11.034 -1.9808 -0.5745  1.0285
10489TIP3   OH252881   6.146   5.014  15.999  0.1050  0.3786 -0.1110
10489TIP3    H152882   6.132   4.932  16.046 -0.2468  0.6584  0.2759
10489TIP3    H252883   6.173   5.077  16.066  0.0737  0.6557 -0.3541
10490TIP3   OH252884   4.673   5.247  14.900  0.0202  0.4851  0.0979
10490TIP3    H152885   4.753   5.224  14.947  0.5029  1.0510 -0.4332
10490TIP3    H252886   4.667   5.342  14.908 -1.0362  0.3747  0.8181
10491TIP3   OH252887   1.931   2.917  11.645  0.0703 -0.0196  0.2645
10491TIP3    H152888   1.875   2.893  11.571 -0.5345  0.9208  0.4069
10491TIP3    H252889   2.021   2.904  11.613 -0.1956 -1.6648  0.0767
10492TIP3   OH252890   2.385   5.367   1.493  0.0037 -0.2311 -0.2255
10492TIP3    H152891   2.444   5.347   1.566 -0.3928  0.6253  0.3440
10492TIP3    H252892   2.433   5.429   1.439  0.1741 -0.6256 -0.5315
10493TIP3   OH252893   1.336   2.755   1.170  0.0963  0.1805  0.3473
10493TIP3    H152894   1.322   2.794   1.256  1.2388  2.0801 -0.2697
10493TIP3    H252895   1.252   2.766   1.125 -0.3369 -0.3225  1.0264
10494TIP3   OH252896   5.579   1.198  14.443  0.3040  0.0433 -0.8132
10494TIP3    H152897   5.665   1.172  14.409  0.4998  0.4858 -0.6540
10494TIP3    H252898   5.573   1.155  14.528  0.7916  0.8104 -0.3765
10495TIP3   OH252899   2.038   4.348   1.975  0.0273  0.5815 -0.2560
10495TIP3    H152900   2.001   4.266   1.941  0.0000  0.0163  1.0962
10495TIP3    H252901   2.046   4.334   2.069 -0.6564  2.3860  0.1230
10496TIP3   OH252902   1.291   1.285   2.725 -0.2078 -0.7064 -0.7011
10496TIP3    H152903   1.363   1.244   2.773  0.4454 -0.4887 -1.4723
10496TIP3    H252904   1.212   1.255   2.770  0.4150  0.6108  1.3656
10497TIP3   OH252905   6.620   1.917   4.320  0.4902  0.1508 -0.3218
10497TIP3    H152906   6.656   1.889   4.236  1.5585  2.8443 -0.8786
10497TIP3    H252907   6.678   1.988   4.349 -1.8531  1.7155  0.9042
10498TIP3   OH252908   1.276   2.437   3.546  0.3034  0.4893  0.5441
10498TIP3    H152909   1.344   2.466   3.486 -0.3136  0.7815 -0.0303
10498TIP3    H252910   1.216   2.386   3.492 -0.6701  1.3939  0.7438
10499TIP3   OH252911   0.016   1.044  16.401 -0.2160 -0.2763  0.0122
10499TIP3    H152912  -0.019   1.020  16.315 -1.6547 -0.1881  0.5317
10499TIP3    H252913  -0.056   1.024  16.461  0.1969  1.0870  0.9930
10500TIP3   OH252914   1.813   2.042  11.671 -0.0629  0.0052 -0.2221
10500TIP3    H152915   1.762   2.022  11.593 -0.8926 -1.0365  0.5648
10500TIP3    H252916   1.904   2.021  11.647 -0.3854 -0.8627 -0.7272
10501TIP3   OH252917   6.411   4.030  13.344  0.1658  0.0133  1.0505
10501TIP3    H152918   6.505   4.050  13.335 -0.2014  1.8239  0.7243
10501TIP3    H252919   6.376   4.042  13.256 -0.7768  1.9380  1.6382
10502TIP3   OH252920   6.755   5.450  15.112  0.1434 -0.1350  0.2275
10502TIP3    H152921   6.846   5.477  15.119 -0.0169  0.0866  1.6787
10502TIP3    H252922   6.705   5.522  15.151 -0.5352 -1.0032  1.0032
10503TIP3   OH252923   5.133   5.483  13.828  0.0676  0.0591 -0.1821
10503TIP3    H152924   5.119   5.394  13.796  0.6495  0.0883 -0.5342
10503TIP3    H252925   5.224   5.484  13.858 -0.5623 -0.0808  1.8619
10504TIP3   OH252926   1.741   2.243  11.834 -0.3995 -0.0085  0.0121
10504TIP3    H152927   1.679   2.182  11.873  0.5545 -0.2333  1.2109
10504TIP3    H252928   1.786   2.192  11.767 -1.5775  0.1981 -0.9763
10505TIP3   OH252929   1.128   0.659   5.833 -0.1036  0.3523  0.3902
10505TIP3    H152930   1.142   0.606   5.911 -1.6336 -0.0022  0.4709
10505TIP3    H252931   1.085   0.599   5.772  0.0586  0.9369 -0.3058
10506TIP3   OH252932   1.402   3.237  14.161 -0.5873 -0.7976  0.1409
10506TIP3    H152933   1.433   3.150  14.135  0.3150 -0.5025  0.1929
10506TIP3    H252934   1.315   3.244  14.121 -0.0945 -1.1707 -1.0607
10507TIP3   OH252935   3.692   4.168  11.389  0.0305  0.8627  0.7009
10507TIP3    H152936   3.661   4.200  11.305 -1.1949  1.2823  1.2879
10507TIP3    H252937   3.675   4.074  11.388  1.5796  0.5421 -0.1475
10508TIP3   OH252938   0.472   4.098  13.744  0.4314 -0.1654 -0.3334
10508TIP3    H152939   0.551   4.141  13.776 -1.1105  2.5570  0.0863
10508TIP3    H252940   0.407   4.111  13.813 -1.0207 -0.3542 -1.6013
10509TIP3   OH252941   6.272   4.983   1.535  0.1676  0.5060 -0.0344
10509TIP3    H152942   6.282   4.896   1.572  0.5793  0.9874  1.0329
10509TIP3    H252943   6.315   4.979   1.450  2.8748  0.4455  1.2393
10510TIP3   OH252944   2.083   3.323  13.078 -0.1982 -0.5858 -0.3171
10510TIP3    H152945   2.084   3.232  13.048  0.8779 -0.0298 -2.1149
10510TIP3    H252946   2.076   3.317  13.173 -2.8583 -2.4903 -0.5188
10511TIP3   OH252947   1.301   1.463   1.495  0.2101  0.2624 -0.3886
10511TIP3    H152948   1.381   1.508   1.522  0.0222  0.8474 -0.7995
10511TIP3    H252949   1.257   1.524   1.436 -0.7153  0.0807  0.0995
10512TIP3   OH252950   3.853   5.386   2.146 -0.5180  0.1429 -0.1187
10512TIP3    H152951   3.781   5.323   2.160 -1.6306  1.3891  0.0076
10512TIP3    H252952   3.917   5.338   2.095 -2.8450 -0.1221 -3.0471
10513TIP3   OH252953   6.381   3.966   5.258 -0.2422  0.3230 -0.0137
10513TIP3    H152954   6.325   4.022   5.205 -0.5950  0.1325  0.1525
10513TIP3    H252955   6.359   3.877   5.231  0.2757  0.2569 -0.2373
10514TIP3   OH252956   6.262   4.134  16.716  0.1395  0.2405 -0.0474
10514TIP3    H152957   6.268   4.040  16.729  1.7525  0.6397  2.9288
10514TIP3    H252958   6.344   4.157  16.671 -0.7809  0.1548 -1.8672
10515TIP3   OH252959   0.136   2.951   5.053 -0.6341  0.2458  0.1316
10515TIP3    H152960   0.062   2.989   5.006  0.3635  1.0523 -0.8517
10515TIP3    H252961   0.210   3.008   5.031  0.7215 -1.6820 -0.5708
10516TIP3   OH252962   5.729   4.435   0.062  0.7761  0.4131  0.0278
10516TIP3    H152963   5.710   4.460  -0.028  1.2695 -1.6503 -0.7200
10516TIP3    H252964   5.817   4.467   0.079  0.5317  1.1522 -0.0551
10517TIP3   OH252965   0.249   0.581   2.514  0.1463  0.6457 -0.0291
10517TIP3    H152966   0.323   0.523   2.496 -0.7841 -0.0989 -1.6952
10517TIP3    H252967   0.284   0.669   2.498  1.1352  0.4561  0.9560
10518TIP3   OH252968   2.234   0.798   4.763 -1.0098  0.5926 -0.3491
10518TIP3    H152969   2.274   0.715   4.788 -0.2961  1.2125  0.5758
10518TIP3    H252970   2.142   0.788   4.788 -1.3908 -0.6572 -2.0685
10519TIP3   OH252971   1.361   5.155   2.047  0.6117  0.0475 -0.3082
10519TIP3    H152972   1.397   5.151   2.135  0.1050 -0.1384 -0.1106
10519TIP3    H252973   1.342   5.064   2.024 -1.3553  0.2782  0.2633
10520TIP3   OH252974   4.659   5.738   5.804 -0.0540 -0.1326 -0.3929
10520TIP3    H152975   4.612   5.806   5.854 -1.1208 -0.2202 -1.2310
10520TIP3    H252976   4.591   5.674   5.781  0.9598 -1.6396  0.5783
10521TIP3   OH252977   5.553   5.826   5.372  0.2628  0.1974  0.2650
10521TIP3    H152978   5.488   5.866   5.430 -0.9503 -1.1280 -0.1260
10521TIP3    H252979   5.599   5.764   5.428  1.4010  1.3031  0.6011
10522TIP3   OH252980   5.499   1.662  14.465 -0.3567  0.6812  0.2437
10522TIP3    H152981   5.411   1.629  14.478 -0.2282  0.7251  1.2418
10522TIP3    H252982   5.556   1.591  14.494 -0.0635  0.9011  0.2105
10523TIP3   OH252983   1.528   6.699   6.095  0.3117 -0.0611  0.7604
10523TIP3    H152984   1.507   6.789   6.121  0.2010  0.0101  0.4375
10523TIP3    H252985   1.613   6.682   6.134  1.3082  0.9290 -0.8710
10524TIP3   OH252986   2.564   0.258  12.361 -0.3255 -0.6775  0.0441
10524TIP3    H152987   2.470   0.268  12.348 -0.8340 -2.1798  1.9952
10524TIP3    H252988   2.573   0.236  12.454  1.9135 -1.1441 -0.2149
10525TIP3   OH252989   2.399   3.398  11.908 -1.0495  0.0683 -0.3407
10525TIP3    H152990   2.476   3.423  11.857 -1.0615  0.0741 -0.3558
10525TIP3    H252991   2.417   3.429  11.996 -1.1607  0.3270 -0.4079
10526TIP3   OH252992   4.079   1.492  14.510  0.1412 -0.0634 -0.2529
10526TIP3    H152993   4.035   1.456  14.433  1.6418 -0.3240 -1.0306
10526TIP3    H252994   4.075   1.587  14.498 -1.4094 -0.0335  0.3964
10527TIP3   OH252995   1.879   2.784  14.601  0.2736  0.3185 -0.4139
10527TIP3    H152996   1.865   2.709  14.543 -0.6563  1.0632 -1.1979
10527TIP3    H252997   1.794   2.797  14.643  0.5631  0.6412  0.0744
10528TIP3   OH252998   1.169   6.451   2.013 -0.1148 -0.5899  0.4012
10528TIP3    H152999   1.152   6.531   2.062 -0.1232  0.2180 -0.8639
10528TIP3    H253000   1.172   6.479   1.921 -2.1166 -2.3390 -0.2855
10529TIP3   OH253001   4.139   3.914  12.785 -0.1959 -0.0176 -0.6359
10529TIP3    H153002   4.207   3.849  12.806  1.0871  0.9623 -1.5856
10529TIP3    H253003   4.133   3.968  12.864 -0.1550 -0.3404 -0.4070
10530TIP3   OH253004   2.530   3.213  11.266 -0.1842 -0.1430  0.2235
10530TIP3    H153005   2.448   3.164  11.253 -0.2905  0.2231 -0.5335
10530TIP3    H253006   2.598   3.145  11.269 -0.4752 -0.4246  0.4686
10531TIP3   OH253007   3.266   2.465   3.182 -0.5036 -0.6870 -0.0942
10531TIP3    H153008   3.269   2.370   3.194 -1.7313 -0.7236  0.0376
10531TIP3    H253009   3.217   2.497   3.257 -0.8735 -0.0394 -0.6016
10532TIP3   OH253010   3.767   2.112  11.392  0.4735 -0.0787  0.4348
10532TIP3    H153011   3.704   2.047  11.423  1.1454 -0.5835  0.7566
10532TIP3    H253012   3.715   2.193  11.383 -0.5078 -0.7966 -0.5854
10533TIP3   OH253013   2.614   3.916   2.180  0.0298  0.4784  0.4940
10533TIP3    H153014   2.554   3.856   2.224  0.4419 -0.6277 -0.3891
10533TIP3    H253015   2.592   3.909   2.087  1.4378  0.1025  0.1523
10534TIP3   OH253016   6.538   2.329   0.623  0.4915 -0.2732 -0.0727
10534TIP3    H153017   6.573   2.255   0.574  1.8628  0.5850 -0.4353
10534TIP3    H253018   6.613   2.365   0.670 -0.0188  1.2712 -0.3924
10535TIP3   OH253019   3.629   4.222   0.412  0.2062 -0.7918 -0.2566
10535TIP3    H153020   3.589   4.134   0.411 -1.0644 -0.2454 -1.4203
10535TIP3    H253021   3.723   4.206   0.413 -0.0031 -2.1583  1.4120
10536TIP3   OH253022   6.048   2.993  12.007 -0.0896 -0.7236 -0.2185
10536TIP3    H153023   5.963   3.038  12.008 -1.0280 -2.3982 -0.6833
10536TIP3    H253024   6.068   2.981  11.914  0.6500 -0.3767 -0.1122
10537TIP3   OH253025   2.232   5.616   4.278  0.3555  0.2302  0.1112
10537TIP3    H153026   2.234   5.539   4.221 -0.5973 -0.0984  0.5134
10537TIP3    H253027   2.305   5.670   4.247  1.7153 -1.2935  0.4711
10538TIP3   OH253028   6.642   2.095  10.524 -0.0507 -0.4610  0.2519
10538TIP3    H153029   6.729   2.134  10.527  0.0691 -0.7322  0.3124
10538TIP3    H253030   6.657   2.000  10.529 -0.3705 -0.4925  0.7453
10539TIP3   OH253031   5.949   5.198   0.721 -0.0170  0.0158 -0.3740
10539TIP3    H153032   5.880   5.197   0.656  0.1846  2.3382 -0.6930
10539TIP3    H253033   6.013   5.262   0.689  0.9495 -0.0605  1.2322
10540TIP3   OH253034   4.178   1.159  16.368 -0.1953 -0.1131 -0.6835
10540TIP3    H153035   4.150   1.174  16.459  2.5978  2.5401 -0.0772
10540TIP3    H253036   4.246   1.092  16.375 -0.8466 -0.8201 -1.0257
10541TIP3   OH253037   6.263   3.249  14.742 -0.6875 -0.2543 -0.3781
10541TIP3    H153038   6.314   3.186  14.691 -3.1991 -1.1050 -1.9831
10541TIP3    H253039   6.232   3.199  14.818  0.9394  0.3335  0.7417
10542TIP3   OH253040   2.123   3.601   2.044 -0.0340 -0.0620  0.2451
10542TIP3    H153041   2.049   3.542   2.031 -1.2926  1.3408  0.7460
10542TIP3    H253042   2.105   3.676   1.986  2.2826 -0.7448 -1.5593
10543TIP3   OH253043   2.237   2.973   3.903  0.1552  0.1144 -0.0096
10543TIP3    H153044   2.313   2.924   3.870 -0.5727 -0.9970 -0.0893
10543TIP3    H253045   2.163   2.915   3.888 -0.6071  0.8463  0.8192
10544TIP3   OH253046   5.372   5.877   4.174 -0.0402  0.0526  0.3060
10544TIP3    H153047   5.296   5.819   4.179  0.6942 -1.0617 -0.7809
10544TIP3    H253048   5.344   5.949   4.117 -0.9522  0.7980  1.6451
10545TIP3   OH253049   6.556   0.457  10.623  0.6040  0.0337 -0.4631
10545TIP3    H153050   6.555   0.541  10.578  1.1466 -0.3174 -1.1628
10545TIP3    H253051   6.467   0.423  10.613  0.3763  0.5270 -0.1548
10546TIP3   OH253052   3.405   2.755   2.076 -0.4860 -0.2454  0.6394
10546TIP3    H153053   3.385   2.674   2.030 -1.0053 -0.1564  0.7034
10546TIP3    H253054   3.462   2.728   2.148 -0.8108 -0.5807  0.7727
10547TIP3   OH253055   1.064   6.079  11.442 -0.3570  0.1527  0.2129
10547TIP3    H153056   1.098   6.033  11.365 -0.4950 -0.4307  0.4916
10547TIP3    H253057   0.974   6.047  11.450 -0.2694  0.0321  0.7478
10548TIP3   OH253058   3.613   5.309  13.351  0.0657 -0.3900 -0.0864
10548TIP3    H153059   3.683   5.262  13.305 -0.1549  0.7557 -1.6733
10548TIP3    H253060   3.623   5.400  13.322 -1.7068 -0.1092  0.1175
10549TIP3   OH253061   6.440   3.759  15.053  0.1508 -0.1618 -0.1859
10549TIP3    H153062   6.404   3.698  14.989 -1.9805 -0.9690  1.6649
10549TIP3    H253063   6.368   3.818  15.074  1.5016  1.6050 -0.2369
10550TIP3   OH253064   1.834   6.282  13.618 -0.2147  0.2988 -0.0936
10550TIP3    H153065   1.864   6.348  13.680 -0.4236  0.7615 -0.4740
10550TIP3    H253066   1.803   6.210  13.672  1.8754 -0.3572  0.3221
10551TIP3   OH253067   4.553   6.505  11.542  0.1214  0.3279  0.1921
10551TIP3    H153068   4.482   6.526  11.603 -1.2242 -1.4558 -0.6697
10551TIP3    H253069   4.533   6.556  11.463  0.6388  0.9627  0.4680
10552TIP3   OH253070   2.447   3.620   4.523 -0.1424 -0.2077  0.3102
10552TIP3    H153071   2.354   3.609   4.543  0.0499 -2.6048  0.1745
10552TIP3    H253072   2.491   3.554   4.577  1.4787  0.6907  0.1628
10553TIP3   OH253073   6.533   4.071  12.410  0.3656  0.3301  0.5031
10553TIP3    H153074   6.509   4.086  12.502 -0.7734 -2.1020  0.6717
10553TIP3    H253075   6.624   4.043  12.414 -0.0162 -0.8709  1.0302
10554TIP3   OH253076   1.766   0.925   4.310  0.1525 -0.2547 -0.1124
10554TIP3    H153077   1.680   0.899   4.344 -0.0791 -0.4179 -0.8113
10554TIP3    H253078   1.773   0.880   4.226  2.1275 -2.5437  1.1522
10555TIP3   OH253079   2.667   1.712   2.287 -0.3092  0.5004  0.0011
10555TIP3    H153080   2.598   1.767   2.250 -0.4527  0.8136  0.7072
10555TIP3    H253081   2.669   1.736   2.380  0.9076  0.6644 -0.0501
10556TIP3   OH253082   1.956   3.723  12.404  0.2049  0.1736  0.5688
10556TIP3    H153083   1.907   3.789  12.355 -0.9105 -1.0480  0.0091
10556TIP3    H253084   1.891   3.657  12.428  0.8571  0.3161  3.0137
10557TIP3   OH253085   4.836   1.540   3.460 -0.3893 -0.2470  0.4912
10557TIP3    H153086   4.860   1.594   3.535 -0.6323  0.2973  0.1858
10557TIP3    H253087   4.772   1.593   3.412 -0.6632 -0.8230  0.2055
10558TIP3   OH253088   5.323   5.330  12.549  0.1553 -0.1620 -0.1295
10558TIP3    H153089   5.347   5.284  12.629 -0.0744  0.9475  0.6052
10558TIP3    H253090   5.258   5.395  12.577 -0.6576 -0.3994 -1.3843
10559TIP3   OH253091   3.877   4.611  13.329 -0.5911 -0.1882 -0.3284
10559TIP3    H153092   3.831   4.688  13.296 -1.9918 -0.2571  1.3369
10559TIP3    H253093   3.815   4.539  13.318  0.5310 -1.0471 -1.4411
10560TIP3   OH253094   0.988   0.482   1.159  0.3824 -0.0263  0.5778
10560TIP3    H153095   1.011   0.575   1.153 -3.0332  0.9954  1.1647
10560TIP3    H253096   1.021   0.444   1.078 -1.2916  2.5352 -1.4570
10561TIP3   OH253097   5.482   4.718   5.886 -0.2380 -0.6568  0.1749
10561TIP3    H153098   5.490   4.674   5.971 -1.0338 -1.4950 -0.1671
10561TIP3    H253099   5.564   4.700   5.841  1.0838  1.5599  1.5406
10562TIP3   OH253100   6.379   0.315   3.905 -0.0577 -0.0475 -0.1122
10562TIP3    H153101   6.452   0.341   3.847  0.1657  0.5779  0.4335
10562TIP3    H253102   6.422   0.274   3.979 -0.2373  0.5291  0.3203
10563TIP3   OH253103   0.189   5.040  14.211 -0.0227 -0.4190 -0.3679
10563TIP3    H153104   0.108   5.088  14.225 -1.3382 -2.2028 -1.4763
10563TIP3    H253105   0.215   5.061  14.121  1.1928  0.6915  0.1973
10564TIP3   OH253106   3.068   3.126  11.587 -0.2579 -0.7592 -0.6018
10564TIP3    H153107   3.123   3.059  11.546  0.1156  0.1666 -1.6530
10564TIP3    H253108   2.979   3.094  11.574 -0.0527 -1.5159 -0.2380
10565TIP3   OH253109   2.301   2.811   0.386  0.0329  0.0642 -0.1096
10565TIP3    H153110   2.282   2.796   0.293  1.6710 -1.0372 -0.3129
10565TIP3    H253111   2.390   2.778   0.398 -0.1203  0.2306  1.8571
10566TIP3   OH253112   4.247   6.515   5.584  0.5273  0.3012  0.2168
10566TIP3    H153113   4.192   6.573   5.636 -0.3734 -0.9966  0.7475
10566TIP3    H253114   4.331   6.515   5.630  0.3845  0.8047  0.4855
10567TIP3   OH253115   0.958   6.589  16.149  0.5262 -0.1999 -0.2602
10567TIP3    H153116   0.953   6.617  16.240 -3.2262 -1.8105  0.2258
10567TIP3    H253117   1.003   6.505  16.152  1.1462  0.1335 -0.0451
10568TIP3   OH253118   0.985   6.563   3.031 -0.3797  0.1058 -0.2090
10568TIP3    H153119   1.070   6.533   2.999  0.1923  0.4716  0.9193
10568TIP3    H253120   0.969   6.512   3.110 -2.2674 -1.5428 -1.5197
10569TIP3   OH253121   3.532   5.325  11.504  0.0307  0.8203  0.2430
10569TIP3    H153122   3.593   5.308  11.431 -1.7848  1.0609 -1.4034
10569TIP3    H253123   3.509   5.238  11.536 -0.5768  0.6068 -0.7227
10570TIP3   OH253124   2.225   1.602  13.423  0.2929  0.0612  0.3125
10570TIP3    H153125   2.154   1.540  13.405  0.5405 -0.1585  0.0892
10570TIP3    H253126   2.222   1.614  13.518 -0.2262  0.2717  0.2749
10571TIP3   OH253127   1.763   3.521   4.733  0.0521  0.2064  0.2418
10571TIP3    H153128   1.690   3.499   4.790 -0.4945  0.6332 -0.2729
10571TIP3    H253129   1.780   3.441   4.683 -0.9158  0.4787 -0.5435
10572TIP3   OH253130   2.735   0.459  15.193  0.0090  0.4861 -0.4435
10572TIP3    H153131   2.722   0.532  15.133 -1.9619  0.0722 -0.5919
10572TIP3    H253132   2.715   0.381  15.141  1.5875 -0.1719 -0.1529
10573TIP3   OH253133   5.571   2.404   3.781 -0.9391  0.3236  0.0182
10573TIP3    H153134   5.517   2.341   3.732 -1.8637  1.4634 -0.4801
10573TIP3    H253135   5.586   2.362   3.866  1.6717 -2.2233 -1.5407
10574TIP3   OH253136   3.774   2.919   0.592 -0.8600  0.2434  0.2269
10574TIP3    H153137   3.800   3.006   0.622  1.9357 -0.2024 -0.6136
10574TIP3    H253138   3.742   2.934   0.503  2.7434  0.1964 -1.2604
10575TIP3   OH253139   0.387   3.770   4.842  0.1702 -0.3264  0.3410
10575TIP3    H153140   0.308   3.821   4.827 -0.9902 -2.0026  0.4289
10575TIP3    H253141   0.418   3.748   4.754  0.1297 -0.2676  0.3121
10576TIP3   OH253142   6.006   0.060  16.993 -0.3170 -0.3780  0.3134
10576TIP3    H153143   5.959   0.032  16.915  0.1908 -0.9527  0.1984
10576TIP3    H253144   5.991  -0.010  17.057 -0.9400  0.2098  0.8228
10577TIP3   OH253145   0.125   2.227  10.587 -0.1582  0.1177  0.2978
10577TIP3    H153146   0.188   2.281  10.634  1.2870 -0.8441 -0.4618
10577TIP3    H253147   0.156   2.138  10.598 -0.8054 -0.2904 -0.9507
10578TIP3   OH253148   5.007   0.663   0.123  0.1122 -0.1047 -0.0717
10578TIP3    H153149   5.090   0.692   0.084  0.2281 -1.1104 -0.6039
10578TIP3    H253150   5.033   0.595   0.185 -0.2123  0.4250  0.6489
10579TIP3   OH253151   2.818   1.028  13.323  0.4120 -0.1727 -0.5056
10579TIP3    H153152   2.864   1.095  13.374 -1.8222  1.0943 -0.0040
10579TIP3    H253153   2.833   0.947  13.371  0.7499  0.4908  0.5470
10580TIP3   OH253154   5.046   4.090   3.802  0.1980  0.9068  0.7747
10580TIP3    H153155   5.006   4.036   3.733  1.8864  0.1897  0.3018
10580TIP3    H253156   4.974   4.144   3.835 -0.7069  1.1925 -1.4631
10581TIP3   OH253157   0.425   0.773  12.886 -0.5089  0.7446  0.0781
10581TIP3    H153158   0.459   0.728  12.809  0.2520 -1.5615  1.6419
10581TIP3    H253159   0.441   0.865  12.869  2.0710  0.1202 -1.4302
10582TIP3   OH253160   4.895   5.472   2.339 -0.0806 -0.3121  0.3909
10582TIP3    H153161   4.932   5.538   2.398  0.2745  0.1173 -0.2995
10582TIP3    H253162   4.961   5.403   2.336 -0.7035 -0.9914  1.5685
10583TIP3   OH253163   1.656   3.105  15.154  0.5534 -0.1664  0.0089
10583TIP3    H153164   1.741   3.066  15.132 -0.6750 -2.9147 -0.3949
10583TIP3    H253165   1.602   3.086  15.078 -1.1135 -0.8841  1.3149
10584TIP3   OH253166   2.083   3.723  11.184 -0.3659  0.0691 -0.3980
10584TIP3    H153167   1.989   3.721  11.166 -0.4750 -0.2277  0.1865
10584TIP3    H253168   2.112   3.633  11.167 -0.3021  0.0123 -0.0020
10585TIP3   OH253169   0.745   2.653  16.780  0.1922 -0.2060  0.3166
10585TIP3    H153170   0.675   2.624  16.722  0.1298  1.3177 -0.4164
10585TIP3    H253171   0.798   2.713  16.727 -0.4109  1.9983  2.0423
10586TIP3   OH253172   1.664   0.369  11.914 -0.2199 -0.0918  0.2289
10586TIP3    H153173   1.650   0.375  11.819  2.0058  2.7822 -0.0649
10586TIP3    H253174   1.659   0.275  11.933 -1.4265 -0.7033 -2.5811
10587TIP3   OH253175   1.584   0.746  14.207 -0.2215  0.0120  0.2610
10587TIP3    H153176   1.506   0.761  14.155 -1.9313 -0.2994  2.5862
10587TIP3    H253177   1.642   0.819  14.185 -1.2518  0.4035 -1.3142
10588TIP3   OH253178   0.939   3.781  11.867  0.1825  0.3313 -0.4030
10588TIP3    H153179   0.997   3.705  11.864 -0.4357 -0.1327 -0.8981
10588TIP3    H253180   0.955   3.820  11.953  2.9018  1.5565 -1.3563
10589TIP3   OH253181   6.200   4.819  11.875  0.2994  0.0504  0.1727
10589TIP3    H153182   6.218   4.880  11.803 -1.2545  1.1716  0.6763
10589TIP3    H253183   6.286   4.797  11.910  1.1580 -0.9619 -2.3341
10590TIP3   OH253184   0.986   2.763   1.669 -0.1812  0.0413  0.2116
10590TIP3    H153185   0.990   2.853   1.638 -1.1600  0.2927  0.7576
10590TIP3    H253186   0.915   2.763   1.734  0.2955 -0.9549  0.7661
10591TIP3   OH253187   1.181   5.388   4.920  0.6618  0.2961  0.5049
10591TIP3    H153188   1.143   5.336   4.850 -0.9252 -0.0439  1.5614
10591TIP3    H253189   1.193   5.326   4.992  0.7910  0.9606  1.0674
10592TIP3   OH253190   0.757   1.779  10.926 -0.0942  0.3080  0.2463
10592TIP3    H153191   0.778   1.696  10.882  0.5615  1.3992 -1.5817
10592TIP3    H253192   0.661   1.785  10.919 -0.0621  0.1291 -0.4207
10593TIP3   OH253193   0.911   4.555   5.725 -0.2871  0.3016 -0.0318
10593TIP3    H153194   0.923   4.513   5.811  0.3060 -0.9621 -0.7098
10593TIP3    H253195   0.870   4.487   5.671  0.5180  0.6597 -1.1130
10594TIP3   OH253196   6.259   0.043   4.333  0.4266  0.6077  0.0123
10594TIP3    H153197   6.301   0.052   4.419 -0.2419  0.6916  0.3390
10594TIP3    H253198   6.208   0.124   4.323  1.8015  1.3622 -1.2056
10595TIP3   OH253199   3.621   3.914   5.605  0.1379  0.0550 -0.1050
10595TIP3    H153200   3.642   3.821   5.616 -2.1308 -0.5195 -0.1027
10595TIP3    H253201   3.584   3.919   5.518  0.3478  0.9957 -0.1414
10596TIP3   OH253202   0.733   4.766   3.269  0.1564 -0.6747 -0.0910
10596TIP3    H153203   0.785   4.829   3.219 -1.2017  0.8360  0.2969
10596TIP3    H253204   0.706   4.814   3.347 -0.8331 -1.7873  0.2883
10597TIP3   OH253205   6.291   4.917   3.858 -0.4114 -0.1805 -0.0871
10597TIP3    H153206   6.206   4.955   3.834 -1.9218 -1.8345  2.2663
10597TIP3    H253207   6.289   4.829   3.822 -0.0373 -0.4999  0.6553
10598TIP3   OH253208   0.108   3.383   0.794  0.2584 -0.2704 -0.0274
10598TIP3    H153209   0.121   3.476   0.810  0.0390 -0.2915  0.2924
10598TIP3    H253210   0.148   3.340   0.869  0.6558 -0.4505 -0.3393
10599TIP3   OH253211   4.125   4.153  13.418 -0.3984 -0.8724  0.4031
10599TIP3    H153212   4.045   4.166  13.469 -0.9932 -2.4077 -0.0724
10599TIP3    H253213   4.094   4.118  13.334  0.5940  1.0689 -0.8474
10600TIP3   OH253214   2.737   1.218  11.451 -0.1689  0.0770 -0.2142
10600TIP3    H153215   2.749   1.193  11.542  0.0246 -0.3761 -0.3630
10600TIP3    H253216   2.642   1.218  11.437 -0.1772 -0.4108 -0.1676
10601TIP3   OH253217   1.338   6.094   0.981 -0.4613 -0.7793 -0.2473
10601TIP3    H153218   1.298   6.026   1.035 -0.8152  0.0125  0.5223
10601TIP3    H253219   1.277   6.168   0.987 -0.4932 -0.6588 -1.7247
10602TIP3   OH253220   2.407   4.614   4.835  0.0218 -0.2754 -0.1346
10602TIP3    H153221   2.371   4.605   4.746  0.6499  1.9412 -0.6547
10602TIP3    H253222   2.501   4.621   4.822  0.1470 -0.2275  0.7600
10603TIP3   OH253223   2.613   1.287   1.368 -0.2511 -0.0033  0.0150
10603TIP3    H153224   2.606   1.209   1.423  1.4999 -0.2858 -0.1104
10603TIP3    H253225   2.694   1.274   1.318 -0.0469  1.7888 -0.1779
10604TIP3   OH253226   2.535   4.227  14.474  0.6350  0.1449  0.0948
10604TIP3    H153227   2.581   4.144  14.488 -0.1816 -0.3349 -0.0267
10604TIP3    H253228   2.553   4.249  14.383 -0.2796 -0.6233 -0.2891
10605TIP3   OH253229   3.792   5.712   1.289  0.3497  0.1244 -0.2280
10605TIP3    H153230   3.876   5.722   1.244  1.2867  0.3420  1.4953
10605TIP3    H253231   3.728   5.742   1.225  1.2064 -2.7482 -2.7290
10606TIP3   OH253232   6.789   4.541   4.135  0.3176  0.2782  1.0262
10606TIP3    H153233   6.732   4.515   4.063  1.2624  0.9958 -0.0091
10606TIP3    H253234   6.739   4.519   4.214 -0.8329 -0.3125  0.1667
10607TIP3   OH253235   4.406   4.102   4.834 -0.3973  0.1368  0.1360
10607TIP3    H153236   4.493   4.142   4.824  0.5302 -2.1393 -1.7327
10607TIP3    H253237   4.345   4.167   4.800  0.7869  0.9135 -0.5648
10608TIP3   OH253238   3.520   2.881   0.893  0.0996  0.5304  0.6807
10608TIP3    H153239   3.497   2.897   0.801  2.3412 -0.5011 -0.1576
10608TIP3    H253240   3.440   2.848   0.933 -1.2027  1.9138 -0.6239
10609TIP3   OH253241   1.792   5.309  12.288 -0.3016  0.1336 -0.0127
10609TIP3    H153242   1.733   5.332  12.359  0.0591 -1.8821  1.0150
10609TIP3    H253243   1.879   5.311  12.327 -0.1170 -1.2321 -0.3096
10610TIP3   OH253244   0.559   4.527  11.382  0.0871 -0.1493 -0.4106
10610TIP3    H153245   0.561   4.434  11.360  2.2026 -0.5203  1.0671
10610TIP3    H253246   0.618   4.568  11.318  0.0428  0.0074 -0.3516
10611TIP3   OH253247   1.632   2.070  14.816 -0.0549  0.2713 -0.4281
10611TIP3    H153248   1.706   2.029  14.860 -0.8905 -1.2929 -0.4457
10611TIP3    H253249   1.668   2.101  14.733  0.8519  0.6570  0.0939
10612TIP3   OH253250   0.044   5.876   2.269  0.3208 -0.6627 -0.4182
10612TIP3    H153251   0.050   5.941   2.340 -0.5362 -0.6475 -0.3500
10612TIP3    H253252   0.055   5.792   2.313 -2.6422 -0.8544  0.1947
10613TIP3   OH253253   6.369   3.693   5.874 -0.0104 -0.0168 -0.7103
10613TIP3    H153254   6.355   3.675   5.967 -0.3096  2.0666 -0.3070
10613TIP3    H253255   6.281   3.694   5.836 -0.1546  1.8724 -0.4230
10614TIP3   OH253256   3.421   6.362  13.593 -0.4412 -0.1392  0.2374
10614TIP3    H153257   3.435   6.272  13.624 -2.3451 -0.5394  0.0618
10614TIP3    H253258   3.396   6.351  13.501 -0.8107  0.5523  0.2522
10615TIP3   OH253259   6.195   5.538   6.078  0.1129 -0.1961  0.4488
10615TIP3    H153260   6.262   5.505   6.018  0.8342  0.5936  0.7903
10615TIP3    H253261   6.234   5.529   6.165  0.6550  2.0952  0.5271
10616TIP3   OH253262   2.253   1.516  15.528 -0.7989  0.7392  0.0269
10616TIP3    H153263   2.261   1.591  15.587  3.1357  0.8193 -0.3033
10616TIP3    H253264   2.225   1.554  15.445  1.2111  1.9728 -0.1511
10617TIP3   OH253265   1.950   3.440  11.920 -0.1660 -0.2155 -0.0083
10617TIP3    H153266   1.894   3.363  11.931  0.0399 -0.0607  2.8279
10617TIP3    H253267   2.038   3.404  11.914 -0.1526 -0.2603  0.4099
10618TIP3   OH253268   2.929   5.513   2.229  0.2481 -0.2027  0.0293
10618TIP3    H153269   2.856   5.567   2.200  0.1881 -0.0662  0.4315
10618TIP3    H253270   2.896   5.424   2.228  0.8021 -0.4395 -2.1424
10619TIP3   OH253271   2.339   0.424  13.029  0.1095  0.1212  0.1030
10619TIP3    H153272   2.320   0.351  13.087 -0.2726  0.0866 -0.0613
10619TIP3    H253273   2.294   0.402  12.947 -2.5020  1.8655  0.9342
10620TIP3   OH253274   0.880   0.511   3.734  0.1676 -0.2386  0.2452
10620TIP3    H153275   0.864   0.452   3.808  0.3887 -1.3439 -0.5815
10620TIP3    H253276   0.798   0.509   3.684  1.0669 -2.0001 -1.2604
10621TIP3   OH253277   2.504   3.764  14.519 -0.2255 -0.3496  0.3596
10621TIP3    H153278   2.497   3.794  14.428 -1.2575 -3.1069 -0.5886
10621TIP3    H253279   2.437   3.813  14.566 -0.5307  0.2111 -0.6323
10622TIP3   OH253280   2.400   2.599   3.195 -0.1924  0.5342 -0.0300
10622TIP3    H153281   2.368   2.520   3.239  0.7918 -1.1626 -2.1825
10622TIP3    H253282   2.363   2.671   3.246 -1.3318 -1.2858  1.8899
10623TIP3   OH253283   5.531   3.519   3.809 -0.5006  0.1935  0.2825
10623TIP3    H153284   5.567   3.445   3.760  0.5738  1.6551 -1.2241
10623TIP3    H253285   5.550   3.595   3.755 -0.3071  1.7657  2.4571
10624TIP3   OH253286   4.726   6.809  15.616 -0.7031  0.3596  0.6192
10624TIP3    H153287   4.701   6.871  15.548 -0.2110  0.1052  0.2041
10624TIP3    H253288   4.690   6.725  15.586  0.3611  0.0508  0.1719
10625TIP3   OH253289   3.124   0.781   1.208  0.6445  0.0934 -0.4530
10625TIP3    H153290   3.138   0.687   1.196  2.3440  0.2081  0.3769
10625TIP3    H253291   3.149   0.820   1.124  0.0451 -0.1680 -0.7610
10626TIP3   OH253292   1.743   5.254   5.191 -0.0765  0.3486 -0.1307
10626TIP3    H153293   1.828   5.237   5.232  0.8048  0.4971 -1.7763
10626TIP3    H253294   1.693   5.173   5.205  0.8539 -0.2752 -0.3216
10627TIP3   OH253295   3.117   5.023   1.616  0.1623 -0.2764 -0.9514
10627TIP3    H153296   3.189   4.961   1.622  1.0702  0.8856  1.7886
10627TIP3    H253297   3.146   5.087   1.551  0.4664 -1.1709 -1.7136
10628TIP3   OH253298   4.625   3.059   0.849 -0.2270 -0.0078  0.4173
10628TIP3    H153299   4.592   3.002   0.780 -0.6565  0.3694  0.3066
10628TIP3    H253300   4.595   3.147   0.824 -0.4204  0.1269  1.1023
10629TIP3   OH253301   6.331   3.008  14.631 -0.0999  0.3427 -0.4441
10629TIP3    H153302   6.378   2.925  14.630  1.1785  1.0256  0.3439
10629TIP3    H253303   6.250   2.990  14.584  0.7622 -0.9854 -1.5134
10630TIP3   OH253304   5.823   6.095   1.788  0.5864 -0.3101 -0.0354
10630TIP3    H153305   5.735   6.133   1.788  0.0188 -1.5559  0.4804
10630TIP3    H253306   5.861   6.122   1.871  0.5085 -0.1599 -0.0486
10631TIP3   OH253307   1.565   0.068  13.589 -0.2470  0.0498 -0.7571
10631TIP3    H153308   1.581   0.078  13.496  0.4887  0.1669 -0.6233
10631TIP3    H253309   1.652   0.067  13.629 -0.5788  1.4729  0.0819
10632TIP3   OH253310   2.387   6.525  12.216 -0.1015  0.0747 -0.1196
10632TIP3    H153311   2.394   6.620  12.203  0.8895 -0.1217 -1.0606
10632TIP3    H253312   2.375   6.515  12.311  1.1700  1.0675  0.1624
10633TIP3   OH253313   3.362   0.228   0.549  0.0431 -0.4562 -0.0250
10633TIP3    H153314   3.321   0.143   0.534 -1.5296 -0.0262  1.4506
10633TIP3    H253315   3.385   0.260   0.462 -0.8604 -1.6749 -0.7330
10634TIP3   OH253316   6.722   2.942   2.273  0.3623 -0.0123  0.5468
10634TIP3    H153317   6.685   2.858   2.243 -0.9147  0.1588  1.5536
10634TIP3    H253318   6.816   2.926   2.277  0.5361 -0.3587 -2.4564
10635TIP3   OH253319   2.760   3.764  16.094 -0.2094 -0.1380 -0.1953
10635TIP3    H153320   2.687   3.717  16.054 -2.8599  1.8083  1.9809
10635TIP3    H253321   2.770   3.843  16.041 -1.7592  1.0243  1.1646
10636TIP3   OH253322   6.643   0.529   4.422  0.1184 -0.1891  0.1371
10636TIP3    H153323   6.550   0.506   4.421 -0.3314  1.3326  1.7536
10636TIP3    H253324   6.684   0.456   4.468 -0.5346 -0.1366  0.8365
10637TIP3   OH253325   4.164   0.782  12.828 -0.0914  0.0540 -0.4610
10637TIP3    H153326   4.170   0.724  12.752 -1.0534 -0.4216 -0.1939
10637TIP3    H253327   4.097   0.846  12.805 -0.3378 -0.0497 -0.0473
10638TIP3   OH253328   3.578   0.962  13.615 -0.3253 -0.0251 -0.3465
10638TIP3    H153329   3.520   0.897  13.575  2.1694 -3.4286  0.9794
10638TIP3    H253330   3.537   0.983  13.698 -0.9329 -0.3905 -0.5482
10639TIP3   OH253331   4.248   3.645   2.386 -0.2013  0.3392  0.6094
10639TIP3    H153332   4.166   3.657   2.435 -0.0516  0.5891  0.8040
10639TIP3    H253333   4.224   3.664   2.295 -0.6522 -0.8746  0.4645
10640TIP3   OH253334   3.529   1.968  12.565 -0.0643  0.2105 -0.1297
10640TIP3    H153335   3.478   1.943  12.487  1.5184 -3.1632 -0.2884
10640TIP3    H253336   3.608   2.008  12.530 -0.5919  1.2908 -0.1008
10641TIP3   OH253337   3.947   1.296   0.076 -0.1670  0.1292  0.4942
10641TIP3    H153338   3.903   1.232   0.131  1.9470 -2.5270 -0.6376
10641TIP3    H253339   3.918   1.276  -0.013 -0.0219  1.2681  0.1700
10642TIP3   OH253340   4.752   5.106   6.046  0.5180 -0.3116  0.4226
10642TIP3    H153341   4.699   5.108   6.126 -2.8955  2.6246 -1.5939
10642TIP3    H253342   4.806   5.185   6.051 -0.2999  0.3294 -0.4242
10643TIP3   OH253343   1.499   4.917   2.069 -0.2296  0.7744  0.0926
10643TIP3    H153344   1.428   4.890   2.127 -0.4073 -0.4759 -0.6787
10643TIP3    H253345   1.547   4.836   2.052  1.2874  1.5682  0.4563
10644TIP3   OH253346   2.945   4.384   3.409  0.5023 -0.3317 -0.1160
10644TIP3    H153347   2.901   4.298   3.409 -0.2343  0.0312  0.4415
10644TIP3    H253348   2.986   4.390   3.323 -1.1106 -0.4187 -0.9388
10645TIP3   OH253349   1.899   0.345   2.584  0.0982  0.0017 -0.3841
10645TIP3    H153350   1.974   0.362   2.640  0.0834  2.7668 -1.0901
10645TIP3    H253351   1.824   0.341   2.643  0.1698  2.2150 -0.0827
10646TIP3   OH253352   2.956   1.528   0.037 -0.3814  0.1751 -0.1021
10646TIP3    H153353   3.042   1.506   0.073  0.2983  0.5750 -1.4172
10646TIP3    H253354   2.894   1.476   0.089  0.7172 -0.7629  0.3144
10647TIP3   OH253355   5.892   2.372  11.025 -0.1276 -0.5226  0.0577
10647TIP3    H153356   5.822   2.309  11.006 -1.8417  1.2376  0.1660
10647TIP3    H253357   5.875   2.445  10.966 -0.2329  1.2366  2.1138
10648TIP3   OH253358   5.905   3.552   6.591 -0.8341  0.9330 -0.0604
10648TIP3    H153359   5.905   3.499   6.511 -2.1470  2.4583 -1.1551
10648TIP3    H253360   5.974   3.515   6.645 -1.3179 -1.5011 -0.9880
10649TIP3   OH253361   3.159   6.233  13.743  0.1033 -0.9617 -0.2170
10649TIP3    H153362   3.226   6.263  13.682  0.9672  0.1736  1.2189
10649TIP3    H253363   3.207   6.215  13.824 -1.4677  1.5243  1.3994
10650TIP3   OH253364   0.184   5.388   2.519 -0.4343  0.3995  0.5472
10650TIP3    H153365   0.188   5.367   2.425  1.9144 -1.3984  0.9698
10650TIP3    H253366   0.149   5.309   2.560 -1.5965  1.2299  1.2131
10651TIP3   OH253367   2.285   0.793   3.265 -0.0068  0.2841 -0.1114
10651TIP3    H153368   2.265   0.836   3.182 -1.8038 -0.9042 -0.3348
10651TIP3    H253369   2.217   0.727   3.275  0.6412 -0.1368  1.9311
10652TIP3   OH253370   1.975   0.302  12.977 -0.2066 -0.0833 -0.4200
10652TIP3    H153371   1.898   0.359  12.983  0.2669  0.5462 -0.3202
10652TIP3    H253372   2.045   0.358  12.943  0.9968  0.1394  2.2353
10653TIP3   OH253373   1.512   3.829  15.504 -0.0875 -0.3780  0.4098
10653TIP3    H153374   1.523   3.894  15.435  1.5214  0.7681  1.6719
10653TIP3    H253375   1.588   3.771  15.495 -0.2224 -0.6206  0.7957
10654TIP3   OH253376   1.028   4.603   1.598 -0.2692 -0.0623  0.4284
10654TIP3    H153377   1.051   4.515   1.570  1.1238  0.6331 -0.7541
10654TIP3    H253378   1.090   4.623   1.668 -0.1770  0.2021  0.2723
10655TIP3   OH253379   0.646   4.365  13.485 -0.1701  0.3932 -0.5488
10655TIP3    H153380   0.646   4.411  13.569 -0.6721  0.3759 -0.5383
10655TIP3    H253381   0.622   4.432  13.421  1.8165  0.8243 -0.9220
10656TIP3   OH253382   2.603   4.852  15.885 -0.0610 -0.7739  0.4425
10656TIP3    H153383   2.692   4.854  15.919  0.6450 -0.4343 -1.3321
10656TIP3    H253384   2.613   4.834  15.792 -1.8194 -0.2811  0.1217
10657TIP3   OH253385   5.239   2.866   2.335  0.4608 -0.0431  0.2405
10657TIP3    H153386   5.222   2.777   2.366  1.2513 -1.1253 -2.1576
10657TIP3    H253387   5.154   2.897   2.302 -0.1594  0.7447  2.4209
10658TIP3   OH253388   1.866   2.977   0.126  0.3562  0.1293  0.0042
10658TIP3    H153389   1.857   2.933   0.042  1.9122  0.7621 -0.5218
10658TIP3    H253390   1.925   3.050   0.109 -0.3515  1.0532  1.3688
10659TIP3   OH253391   0.662   4.954   1.734 -0.4663 -0.3255 -0.1187
10659TIP3    H153392   0.714   5.034   1.724 -0.9999 -0.0405 -0.6509
10659TIP3    H253393   0.609   4.971   1.812 -0.2437 -0.3491  0.0389
10660TIP3   OH253394   3.829   6.439   5.314  0.5031 -0.0398  0.2862
10660TIP3    H153395   3.918   6.471   5.328  0.5623  0.7916 -1.6596
10660TIP3    H253396   3.837   6.377   5.242 -0.5079  0.0755  0.0657
10661TIP3   OH253397   0.078   2.959   5.616 -0.1489  0.2154  0.2726
10661TIP3    H153398   0.082   2.938   5.709  1.2822 -0.0604  0.1617
10661TIP3    H253399   0.139   3.032   5.605  4.3868 -3.3401 -1.3311
10662TIP3   OH253400   1.590   1.977  13.857  0.3294 -0.4108  0.4421
10662TIP3    H153401   1.511   1.995  13.909 -0.3188  0.9187 -0.9222
10662TIP3    H253402   1.557   1.933  13.779  1.2071 -1.7044  0.7699
10663TIP3   OH253403   5.485   1.204  11.992  0.2281  0.3160  0.4326
10663TIP3    H153404   5.498   1.116  11.955 -0.0533  0.7674 -0.8050
10663TIP3    H253405   5.561   1.218  12.048  1.9617  0.4744 -1.8039
10664TIP3   OH253406   0.130   4.448   4.926 -0.1396  0.5068 -0.2439
10664TIP3    H153407   0.169   4.411   5.005 -2.0334 -0.3939  0.3164
10664TIP3    H253408   0.036   4.448   4.943 -0.9841 -2.7206 -3.6516
10665TIP3   OH253409   5.804   1.586   5.141 -0.6355  0.9376 -0.4818
10665TIP3    H153410   5.773   1.558   5.055 -0.9233  1.1110 -0.4341
10665TIP3    H253411   5.869   1.654   5.123 -0.5120  0.7996 -0.5680
10666TIP3   OH253412   0.323   6.647  15.417 -0.2796  0.5001  0.6309
10666TIP3    H153413   0.362   6.727  15.452  3.0792 -0.1469 -1.2229
10666TIP3    H253414   0.302   6.668  15.326  0.6692 -0.7025  0.1138
10667TIP3   OH253415   4.168   6.017  15.154  0.3197 -0.4262 -0.4497
10667TIP3    H153416   4.137   5.926  15.160  0.9787 -0.5677  1.8014
10667TIP3    H253417   4.093   6.069  15.182  0.3577 -0.3707 -0.4533
10668TIP3   OH253418   5.158   1.010  16.666 -0.5306  0.2860  0.7145
10668TIP3    H153419   5.222   0.941  16.682 -0.7610 -0.4453 -1.2585
10668TIP3    H253420   5.180   1.045  16.579 -2.2613  0.5956  0.3574
10669TIP3   OH253421   5.494   3.822   4.602 -0.5514  0.5298  0.0196
10669TIP3    H153422   5.494   3.726   4.602 -0.7034  0.5279 -0.8768
10669TIP3    H253423   5.448   3.846   4.683 -1.0471 -0.1504 -0.0584
10670TIP3   OH253424   0.227   4.649   4.760 -0.3485  0.0053  0.2502
10670TIP3    H153425   0.204   4.568   4.806 -1.5501  0.1794 -0.0028
10670TIP3    H253426   0.314   4.632   4.724 -0.9732 -1.5581 -0.6328
10671TIP3   OH253427   1.070   0.589  14.827  0.9267 -0.1359  0.6553
10671TIP3    H153428   1.031   0.645  14.894 -2.3723 -1.1793 -0.1952
10671TIP3    H253429   1.107   0.650  14.763  0.6527  0.9439  1.5064
10672TIP3   OH253430   0.919   0.938   1.806 -0.0893 -0.2045  0.3301
10672TIP3    H153431   0.906   0.984   1.723  1.3879 -2.0102 -0.9886
10672TIP3    H253432   1.002   0.891   1.795  1.3909  1.2928  3.7316
10673TIP3   OH253433   0.422   5.234   5.220 -0.3361  0.2423  0.0657
10673TIP3    H153434   0.352   5.261   5.279  1.3533  3.0440  0.9967
10673TIP3    H253435   0.475   5.173   5.271 -0.3212  0.6295  0.5139
10674TIP3   OH253436   1.950   1.996  15.886 -0.2598  0.0056  0.4815
10674TIP3    H153437   2.023   1.969  15.831 -0.5442 -1.1186  0.6174
10674TIP3    H253438   1.873   1.988  15.830 -0.4154 -0.0036  0.6938
10675TIP3   OH253439   4.051   4.578  12.019 -0.0839 -0.6158 -0.0816
10675TIP3    H153440   4.005   4.494  12.028  1.1629 -1.0918  3.3249
10675TIP3    H253441   4.007   4.636  12.081  2.2490 -0.4131  1.5349
10676TIP3   OH253442   6.121   2.499  14.784  0.1893  0.1070  0.6197
10676TIP3    H153443   6.158   2.449  14.711  0.6038  1.3080 -0.0362
10676TIP3    H253444   6.051   2.444  14.818  0.8106 -1.0239  0.1130
10677TIP3   OH253445   3.454   3.181  11.422 -0.1891  0.5466 -0.2879
10677TIP3    H153446   3.516   3.252  11.414  0.1305  0.4228  0.9082
10677TIP3    H253447   3.491   3.110  11.369 -0.3754  1.1520 -1.2622
10678TIP3   OH253448   4.661   3.073  10.939  0.1402 -0.3453  0.5774
10678TIP3    H153449   4.697   3.139  10.880  1.4345 -0.8608  0.7466
10678TIP3    H253450   4.639   2.999  10.881 -0.3400 -0.1565  0.5159
10679TIP3   OH253451   3.836   0.380  15.262  0.2696 -0.1284 -0.1651
10679TIP3    H153452   3.910   0.405  15.318 -0.3012  0.1830  0.4638
10679TIP3    H253453   3.864   0.299  15.221  0.4648 -0.7218  1.0750
10680TIP3   OH253454   3.537   3.822   3.539  0.1626  0.3542 -0.6710
10680TIP3    H153455   3.547   3.870   3.457 -0.8123 -0.1709 -1.1222
10680TIP3    H253456   3.568   3.881   3.606  0.2408  1.0966 -1.3467
10681TIP3   OH253457   6.016   1.183  16.267  0.0321 -0.2329  0.1349
10681TIP3    H153458   5.931   1.151  16.235  0.2695 -1.4692  0.6753
10681TIP3    H253459   6.003   1.195  16.361  0.4519 -0.4133  0.2184
10682TIP3   OH253460   0.590   5.279   6.334 -0.0858  0.0072  0.2308
10682TIP3    H153461   0.634   5.296   6.417 -2.0453  0.7489  1.1960
10682TIP3    H253462   0.651   5.310   6.267  1.3494 -0.1830  1.4154
10683TIP3   OH253463   4.670   2.060  11.383  0.1774 -0.2346 -0.6084
10683TIP3    H153464   4.580   2.032  11.366 -0.5521 -0.3683  2.7463
10683TIP3    H253465   4.664   2.154  11.399  0.7125 -0.1809 -0.6888
10684TIP3   OH253466   0.722   2.122  15.627 -0.3527 -0.2456  0.2389
10684TIP3    H153467   0.761   2.034  15.623 -0.1628 -0.1400 -0.4075
10684TIP3    H253468   0.788   2.178  15.585 -0.6291  0.1477  0.3329
10685TIP3   OH253469   3.220   1.109  15.047 -0.1827  0.0434 -0.3543
10685TIP3    H153470   3.312   1.106  15.023 -0.6019  0.2888 -2.1324
10685TIP3    H253471   3.193   1.017  15.051 -0.0037 -0.0113 -0.3939
10686TIP3   OH253472   6.484   1.381  14.473  0.2393 -0.0385  0.0166
10686TIP3    H153473   6.398   1.393  14.514  0.9361  1.0661  1.2437
10686TIP3    H253474   6.479   1.295  14.431 -1.7787  0.4109 -0.7872
10687TIP3   OH253475   2.986   4.460   0.970 -0.5286  0.6748 -0.4355
10687TIP3    H153476   3.066   4.437   0.922 -0.2318  1.8323 -0.5073
10687TIP3    H253477   2.998   4.551   0.995 -1.0289  0.3132  1.1830
10688TIP3   OH253478   1.557   3.569  13.638  0.2241  0.6276 -0.6770
10688TIP3    H153479   1.524   3.585  13.726 -0.4639  1.0882 -1.0071
10688TIP3    H253480   1.500   3.621  13.582 -0.1888 -0.6845 -1.5219
10689TIP3   OH253481   4.047   5.046   3.830 -0.1073  0.3352  0.8760
10689TIP3    H153482   4.009   4.961   3.850 -0.3682  0.2077 -0.0869
10689TIP3    H253483   3.975   5.108   3.839 -0.0599  0.3698  1.0131
10690TIP3   OH253484   4.661   2.403  12.343 -0.2298 -0.9828  0.4589
10690TIP3    H153485   4.626   2.480  12.387 -2.1761 -0.1360 -2.3922
10690TIP3    H253486   4.747   2.431  12.311 -1.0473  0.1345 -0.8199
10691TIP3   OH253487   6.566   3.419  16.896 -0.0153 -0.3444 -0.0411
10691TIP3    H153488   6.512   3.496  16.883 -0.6505 -0.5854  1.0693
10691TIP3    H253489   6.592   3.422  16.988  1.4840 -0.4885 -0.4267
10692TIP3   OH253490   6.500   4.238  15.157  0.0689 -0.4173 -0.0604
10692TIP3    H153491   6.564   4.196  15.213 -0.6692 -0.2478  0.9394
10692TIP3    H253492   6.457   4.166  15.111 -1.2217 -0.8159  1.6792
10693TIP3   OH253493   4.773   4.826   1.324 -0.2538 -0.4360 -0.5593
10693TIP3    H153494   4.850   4.869   1.288  0.6731 -1.2455  0.3901
10693TIP3    H253495   4.706   4.893   1.325  0.7183  0.5562 -0.4956
10694TIP3   OH253496   6.040   5.035   3.978 -0.1388  0.0422 -0.1776
10694TIP3    H153497   6.036   5.052   3.884 -1.6430  1.0608  0.0405
10694TIP3    H253498   5.952   5.006   4.002  0.3502 -0.6625  0.8435
10695TIP3   OH253499   3.223   6.132  16.257  0.0928 -0.2382  0.1859
10695TIP3    H153500   3.169   6.092  16.189 -0.3150 -1.7948  1.3533
10695TIP3    H253501   3.168   6.200  16.295  0.0600  0.1518 -0.5476
10696TIP3   OH253502   6.477   2.161  13.622 -0.4542 -0.3238 -0.1353
10696TIP3    H153503   6.493   2.067  13.619 -0.5123 -0.3198 -0.6187
10696TIP3    H253504   6.563   2.200  13.607 -0.8441 -0.3020 -2.7977
10697TIP3   OH253505   4.215   2.585  17.052  0.2193 -0.1164  0.2456
10697TIP3    H153506   4.201   2.505  17.103 -0.2121 -0.6059 -0.6241
10697TIP3    H253507   4.299   2.618  17.083 -0.1387 -0.2681  1.4415
10698TIP3   OH253508   3.125   5.519  15.552  0.1560  0.1339  0.2498
10698TIP3    H153509   3.064   5.591  15.563 -1.3347 -0.4704 -2.9763
10698TIP3    H253510   3.173   5.539  15.472  0.6399 -1.8340 -0.0148
10699TIP3   OH253511   4.240   6.088   2.442  0.5730 -0.1128 -0.4168
10699TIP3    H153512   4.247   6.036   2.362  0.3589 -0.5272 -0.1691
10699TIP3    H253513   4.323   6.135   2.447  0.6257 -0.1608 -0.8322
10700TIP3   OH253514   2.879   3.504  12.353 -0.5983 -0.4867 -0.0038
10700TIP3    H153515   2.953   3.560  12.375 -1.7048  1.8831 -1.8870
10700TIP3    H253516   2.809   3.532  12.412 -1.0593 -0.0905 -0.7270
10701TIP3   OH253517   2.237   1.154  11.227 -0.4396 -0.3594 -0.3859
10701TIP3    H153518   2.229   1.085  11.160 -0.1505  0.5240 -1.3462
10701TIP3    H253519   2.321   1.195  11.210 -0.2982 -0.1963  0.6167
10702TIP3   OH253520   5.907   6.626  15.052  0.6194  0.7994  0.1207
10702TIP3    H153521   5.969   6.698  15.042 -0.0295  1.4385  0.6389
10702TIP3    H253522   5.939   6.559  14.991  0.6237  1.9318 -1.1709
10703TIP3   OH253523   3.286   2.828  16.645  0.2808 -0.8865 -0.2119
10703TIP3    H153524   3.319   2.910  16.681  0.6624 -1.1019 -0.0645
10703TIP3    H253525   3.215   2.854  16.587 -0.5970 -0.5524  0.9751
10704TIP3   OH253526   3.293   6.600   0.002 -0.5313  0.5376 -0.3546
10704TIP3    H153527   3.377   6.554  -0.003 -0.0210  1.3977  0.0858
10704TIP3    H253528   3.249   6.576  -0.079 -0.7075 -1.4971  0.2902
10705TIP3   OH253529   1.129   6.311   0.949 -0.3813 -0.2873  0.2532
10705TIP3    H153530   1.113   6.347   1.036  0.6284 -0.9093  0.7266
10705TIP3    H253531   1.206   6.359   0.917  0.2898 -1.2150  0.4276
10706TIP3   OH253532   5.681   4.414  11.439  0.1121  0.1065 -0.1760
10706TIP3    H153533   5.770   4.407  11.473  0.3435  0.2588 -0.7310
10706TIP3    H253534   5.663   4.328  11.402  0.4934  0.4279 -1.1462
10707TIP3   OH253535   2.616   3.156   1.193 -0.1140  0.6379  0.1377
10707TIP3    H153536   2.619   3.157   1.098  1.8354 -0.3495  0.1170
10707TIP3    H253537   2.563   3.079   1.215 -2.3505  2.0541 -0.0784
10708TIP3   OH253538   1.180   4.325   5.132  0.0749  0.8256  0.0328
10708TIP3    H153539   1.117   4.394   5.154  0.6879  1.3241  0.2658
10708TIP3    H253540   1.252   4.372   5.090  0.8560  0.4366  0.9079
10709TIP3   OH253541   1.288   4.015  16.265  0.3078 -0.5638 -0.3294
10709TIP3    H153542   1.286   4.054  16.178  0.4184 -1.2629 -0.6516
10709TIP3    H253543   1.217   3.951  16.264 -1.2298  1.0102  0.8657
10710TIP3   OH253544   3.633   4.964   0.117 -0.1096 -0.3444  0.3192
10710TIP3    H153545   3.711   4.931   0.073 -0.4903 -1.0318  0.1408
10710TIP3    H253546   3.593   4.887   0.157 -3.4310 -1.0763 -3.7573
10711TIP3   OH253547   3.601   2.088  14.804  0.0884 -0.4010 -0.3865
10711TIP3    H153548   3.679   2.144  14.805  0.3155 -0.7055 -0.5930
10711TIP3    H253549   3.569   2.090  14.894  0.2911 -0.2067 -0.3175
10712TIP3   OH253550   4.629   2.767   0.412  0.2160 -0.6264 -0.2070
10712TIP3    H153551   4.619   2.807   0.326  2.5864 -2.1403 -1.3111
10712TIP3    H253552   4.562   2.698   0.415  0.0236 -0.4613 -0.7787
10713TIP3   OH253553   2.791   5.507   4.586 -0.0365 -0.3201 -0.4000
10713TIP3    H153554   2.704   5.538   4.559 -0.6824 -0.2124  1.6061
10713TIP3    H253555   2.848   5.583   4.572 -1.3854  1.6700  3.3749
10714TIP3   OH253556   1.609   6.675   2.432 -0.2029 -0.0515  0.0321
10714TIP3    H153557   1.644   6.644   2.516 -2.0510 -1.4856  0.3405
10714TIP3    H253558   1.615   6.771   2.437  0.6744 -0.1552  1.3504
10715TIP3   OH253559   5.264   0.248   1.093 -0.1084 -0.0342 -0.0715
10715TIP3    H153560   5.329   0.261   1.024  1.2230 -0.0757  1.1366
10715TIP3    H253561   5.196   0.195   1.051 -1.8334  3.8397 -2.8283
10716TIP3   OH253562   3.696   2.438  14.465 -0.0271 -0.4995 -0.3971
10716TIP3    H153563   3.687   2.467  14.555 -0.4023 -1.6116 -0.0584
10716TIP3    H253564   3.765   2.371  14.468 -0.5507 -1.0676 -0.7965
10717TIP3   OH253565   0.665   5.129   5.364  1.0962  0.2669  0.1798
10717TIP3    H153566   0.721   5.052   5.372  1.5274  0.5594  0.0327
10717TIP3    H253567   0.722   5.203   5.388 -0.1147  0.3127  3.4025
10718TIP3   OH253568   4.257   5.685  12.103  0.0618  0.3322 -0.8159
10718TIP3    H153569   4.291   5.647  12.184 -0.9726  1.0251 -0.0237
10718TIP3    H253570   4.165   5.660  12.102 -0.3190  1.6472 -0.9535
10719TIP3   OH253571   6.619   0.700   4.045 -0.0578  0.5591 -0.4655
10719TIP3    H153572   6.617   0.605   4.048  0.1737  0.5579  1.6630
10719TIP3    H253573   6.711   0.722   4.030 -0.1382  0.4529 -1.1192
10720TIP3   OH253574   4.273   3.684   4.629 -0.4885  0.0673 -0.3602
10720TIP3    H153575   4.259   3.743   4.703 -1.6036  0.3875 -0.8181
10720TIP3    H253576   4.189   3.680   4.584 -0.5650 -2.2057 -0.1268
10721TIP3   OH253577   2.790   4.716   5.618  0.2433 -0.2917 -0.5846
10721TIP3    H153578   2.802   4.638   5.563  0.6584 -0.3282 -0.4443
10721TIP3    H253579   2.772   4.786   5.556 -1.5823 -0.7570 -0.6416
10722TIP3   OH253580   3.920   6.764   2.686  0.1172 -1.1197  0.1396
10722TIP3    H153581   3.933   6.670   2.700  1.6057 -1.2572 -1.7493
10722TIP3    H253582   3.930   6.803   2.774 -0.2199 -2.6812  0.9004
10723TIP3   OH253583   2.629   2.966   5.126  0.0446  0.3287  0.0598
10723TIP3    H153584   2.600   2.982   5.037 -0.0119 -1.5491 -0.2998
10723TIP3    H253585   2.602   2.876   5.145  2.2464 -0.2112  1.0509
10724TIP3   OH253586   1.125   6.145   2.371  0.0893  0.8266  0.1183
10724TIP3    H153587   1.078   6.223   2.403 -1.0172  0.7990 -1.3119
10724TIP3    H253588   1.090   6.132   2.283  1.5636 -0.2560 -0.3297
10725TIP3   OH253589   5.066   4.916  14.035 -0.0119 -0.3021 -0.3572
10725TIP3    H153590   5.013   4.911  13.955  0.1531 -0.0372 -0.4873
10725TIP3    H253591   5.037   4.996  14.078 -0.4175 -0.6854  0.0824
10726TIP3   OH253592   0.928   0.958   0.100  1.2005  0.1581  0.6556
10726TIP3    H153593   1.023   0.957   0.083  1.6961 -1.2212  3.0128
10726TIP3    H253594   0.899   0.871   0.076  0.4377  0.6623 -0.3044
10727TIP3   OH253595   3.059   4.974  10.517 -0.0355  0.0814  0.1159
10727TIP3    H153596   3.110   5.041  10.562 -1.7095  1.2560  0.3213
10727TIP3    H253597   2.968   4.993  10.538 -0.6999 -1.0156 -1.5121
10728TIP3   OH253598   3.795   5.996   2.783  0.0839  0.0699  0.3404
10728TIP3    H153599   3.859   6.031   2.722 -1.5893  1.4048 -0.7481
10728TIP3    H253600   3.770   5.912   2.746  0.9322 -0.3175  0.6100
10729TIP3   OH253601   0.017   1.784  16.053  0.1194 -0.7587  0.4186
10729TIP3    H153602   0.036   1.697  16.088  0.1384 -1.8631 -2.0955
10729TIP3    H253603   0.054   1.783  15.965 -1.1643  1.2907 -0.2209
10730TIP3   OH253604   0.770   0.089  13.839  0.4209  0.4687  0.3073
10730TIP3    H153605   0.782   0.184  13.837  0.0738  0.5424  1.5012
10730TIP3    H253606   0.855   0.055  13.868  0.7162  0.3633 -0.6372
10731TIP3   OH253607   5.327   4.843  14.731  0.0854 -0.0816 -0.2077
10731TIP3    H153608   5.388   4.907  14.766  1.1553 -0.1293 -1.8669
10731TIP3    H253609   5.380   4.790  14.672 -1.6887  0.4070 -2.3677
10732TIP3   OH253610   2.564   3.718   4.900  0.2881 -0.3403 -0.3789
10732TIP3    H153611   2.592   3.666   4.976 -0.3755  0.8343  0.7107
10732TIP3    H253612   2.553   3.807   4.935  2.3523  0.8195 -2.3851
10733TIP3   OH253613   2.280   3.236   0.743  0.2579 -0.2685 -0.3002
10733TIP3    H153614   2.219   3.209   0.673  2.3574 -1.0140 -1.9518
10733TIP3    H253615   2.275   3.165   0.807  0.3135 -0.9766 -1.0554
10734TIP3   OH253616   1.336   3.571  16.755  0.4810 -0.1209  0.2065
10734TIP3    H153617   1.336   3.638  16.687 -0.1402  0.3098  0.6198
10734TIP3    H253618   1.425   3.572  16.790  0.2325  1.1643  0.8554
10735TIP3   OH253619   6.583   5.213   0.274  0.4887 -0.1656  0.4596
10735TIP3    H153620   6.570   5.261   0.356 -0.0221 -0.8264  0.7645
10735TIP3    H253621   6.502   5.227   0.225  0.0903 -1.2142  0.8049
10736TIP3   OH253622   4.949   3.182   1.503  0.0104  0.3582 -0.2393
10736TIP3    H153623   4.860   3.175   1.536 -0.2341 -0.3166 -1.0309
10736TIP3    H253624   5.004   3.157   1.577 -0.2526  3.5979  1.2693
10737TIP3   OH253625   0.953   0.449   5.712  0.0180 -0.7208 -0.1338
10737TIP3    H153626   0.888   0.415   5.650 -0.2721  0.4576 -0.4885
10737TIP3    H253627   0.979   0.372   5.763 -1.2686 -1.3155 -0.3350
10738TIP3   OH253628   4.462   1.713  11.655  0.3133  0.3144 -0.3442
10738TIP3    H153629   4.533   1.700  11.592  0.0568  0.5372 -0.6825
10738TIP3    H253630   4.507   1.728  11.738  0.6341 -1.3781 -0.1844
10739TIP3   OH253631   4.020   1.477   0.349 -0.1591  0.2233  1.0577
10739TIP3    H153632   4.043   1.388   0.322 -1.1006  0.5495 -0.9892
10739TIP3    H253633   4.076   1.495   0.424  1.2276 -1.4930  0.4904
10740TIP3   OH253634   4.714   5.735  11.546 -0.3031  0.6434  0.8699
10740TIP3    H153635   4.699   5.653  11.592  1.0135 -0.3015 -0.2820
10740TIP3    H253636   4.639   5.743  11.487 -0.3056  0.1113  0.7934
10741TIP3   OH253637   5.603   6.161   5.595 -0.5397 -0.4758  0.0150
10741TIP3    H153638   5.537   6.101   5.629  0.3167 -1.3162  0.2622
10741TIP3    H253639   5.615   6.227   5.663 -1.8937  0.3321 -0.4913
10742TIP3   OH253640   1.594   2.411  12.029  0.5892  0.5414  0.1114
10742TIP3    H153641   1.548   2.339  11.984  0.6557  0.2315  0.5361
10742TIP3    H253642   1.666   2.433  11.970  1.3912 -0.6721  0.5986
10743TIP3   OH253643   0.979   3.855  16.778 -0.1518  0.1866  0.7694
10743TIP3    H153644   0.888   3.878  16.758  0.5209  2.7549  0.3585
10743TIP3    H253645   1.029   3.892  16.705  1.3346 -0.2371  1.5438
10744TIP3   OH253646   2.338   3.474   1.585  0.0683  0.3870  0.0301
10744TIP3    H153647   2.301   3.400   1.634 -1.0036  0.8312 -0.0764
10744TIP3    H253648   2.368   3.434   1.503  0.4545 -0.1001  0.4009
10745TIP3   OH253649   1.929   2.284   5.762 -0.1575  0.1119 -0.1550
10745TIP3    H153650   1.947   2.278   5.856  0.1161 -0.2533 -0.2277
10745TIP3    H253651   1.906   2.195   5.736 -1.2481  0.4037 -0.2409
10746TIP3   OH253652   3.393   0.769  13.075  0.6127  0.1446 -0.0972
10746TIP3    H153653   3.470   0.824  13.062  1.6082 -1.5608 -1.8948
10746TIP3    H253654   3.426   0.693  13.123 -0.1174 -0.2718 -0.2392
10747TIP3   OH253655   1.930   1.445  16.930  0.0311  0.0942  0.1631
10747TIP3    H153656   2.024   1.429  16.930  0.2950  1.5016 -0.3920
10747TIP3    H253657   1.912   1.483  16.844 -1.0609 -0.1950  0.2452
10748TIP3   OH253658   5.760   0.894  15.305 -0.4571 -0.4044  0.5361
10748TIP3    H153659   5.755   0.976  15.255 -1.2651 -0.6002  0.2705
10748TIP3    H253660   5.837   0.849  15.269 -0.7627 -0.3378 -0.2317
10749TIP3   OH253661   6.737   5.098  14.199 -0.5785  0.2771  0.2671
10749TIP3    H153662   6.675   5.061  14.135  0.8657  0.0359 -1.0529
10749TIP3    H253663   6.726   5.193  14.191  0.6205  0.3174 -1.4900
10750TIP3   OH253664   1.737   5.970  10.587 -0.2965  0.1696  0.0306
10750TIP3    H153665   1.827   6.000  10.600 -0.4152  0.5561 -0.0311
10750TIP3    H253666   1.688   6.049  10.564 -0.1815 -0.3577 -2.3310
10751TIP3   OH253667   0.211   0.083   3.931  0.3475  0.0799  0.6474
10751TIP3    H153668   0.293   0.048   3.966 -0.4847 -0.4944  2.1387
10751TIP3    H253669   0.182   0.017   3.867  1.1835  0.4412 -0.1211
10752TIP3   OH253670   6.356   4.028   5.595  0.1047  0.2832 -0.8538
10752TIP3    H153671   6.426   3.976   5.555  0.1632 -0.7448  0.4933
10752TIP3    H253672   6.324   4.084   5.525  1.3625 -0.2065 -1.8508
10753TIP3   OH253673   5.055   3.873  12.075 -0.0331  0.2579  0.3938
10753TIP3    H153674   5.000   3.892  12.152  0.2901  0.3472  0.6033
10753TIP3    H253675   5.054   3.955  12.025 -1.8503 -0.3845 -0.7152
10754TIP3   OH253676   3.299   1.645   0.754 -0.5833 -0.0009 -0.2079
10754TIP3    H153677   3.204   1.650   0.752 -0.6988 -1.7031 -1.6468
10754TIP3    H253678   3.327   1.683   0.670  0.1076  1.5463  0.6859
10755TIP3   OH253679   1.408   2.151  11.708  0.3225  0.0648  0.6869
10755TIP3    H153680   1.426   2.067  11.749  1.0532  0.0656  0.3885
10755TIP3    H253681   1.316   2.146  11.683  0.1395 -0.3236  1.4041
10756TIP3   OH253682   1.107   3.222   3.725 -0.4369  0.2205 -0.2978
10756TIP3    H153683   1.017   3.253   3.718 -0.2264  1.0491  0.5778
10756TIP3    H253684   1.160   3.296   3.695 -0.0249 -0.1079 -0.3856
10757TIP3   OH253685   2.008   0.933  13.538 -0.2216  0.0300  0.0122
10757TIP3    H153686   1.962   1.015  13.552 -0.4911 -0.1582  0.2540
10757TIP3    H253687   2.067   0.950  13.465 -0.1838  0.4738  0.1468
10758TIP3   OH253688   1.228   3.213  16.500  0.7916  0.1631 -0.6672
10758TIP3    H153689   1.321   3.204  16.481  0.9440  0.8542 -0.2777
10758TIP3    H253690   1.221   3.296  16.548 -0.2955  1.3043 -2.6097
10759TIP3   OH253691   1.646   4.533  16.968 -0.0152  0.3270  0.3895
10759TIP3    H153692   1.726   4.569  16.930 -1.4542  1.1144 -2.1813
10759TIP3    H253693   1.584   4.606  16.967 -1.0199 -0.4797  1.4891
10760TIP3   OH253694   6.504   2.459  11.156  0.2146  0.9789 -0.2887
10760TIP3    H153695   6.567   2.524  11.124  1.1886  1.5205  2.4271
10760TIP3    H253696   6.558   2.382  11.176 -0.3082  0.7504  0.2496
10761TIP3   OH253697   5.001   5.388  11.307 -0.7753 -0.1176 -0.2868
10761TIP3    H153698   5.079   5.438  11.283 -0.2714 -1.2628 -1.1724
10761TIP3    H253699   5.032   5.323  11.370 -1.0032 -0.5435 -0.6011
10762TIP3   OH253700   3.773   3.974   3.129  0.1520 -0.2564 -0.0162
10762TIP3    H153701   3.831   3.953   3.203  0.9204  0.0898 -0.5111
10762TIP3    H253702   3.687   3.985   3.169  0.2771 -1.4823  0.6371
10763TIP3   OH253703   5.330   4.908  12.094 -0.3902  0.1122  0.1070
10763TIP3    H153704   5.399   4.846  12.070 -0.2160 -0.1351  1.2055
10763TIP3    H253705   5.361   4.992  12.061 -0.2305 -0.2356 -0.6450
10764TIP3   OH253706   2.283   5.173  13.340  0.2027  0.0480 -0.0342
10764TIP3    H153707   2.248   5.259  13.317  2.7821  0.9557 -0.8010
10764TIP3    H253708   2.244   5.155  13.426 -1.5077  1.2797 -0.4824
10765TIP3   OH253709   4.096   5.924   6.423 -0.3239 -0.2623 -0.1112
10765TIP3    H153710   4.135   5.897   6.340  0.6271  2.8131 -0.8079
10765TIP3    H253711   4.020   5.976   6.397 -0.8167 -0.4123  1.0053
10766TIP3   OH253712   0.339   0.165  14.651  0.2039  0.5519  0.8600
10766TIP3    H153713   0.309   0.110  14.724  1.8244  1.1046  2.0080
10766TIP3    H253714   0.272   0.154  14.584 -0.3451 -1.5445  1.6616
10767TIP3   OH253715   6.187   2.924  12.249 -0.0978  0.1584 -0.9935
10767TIP3    H153716   6.145   3.006  12.275 -0.7052 -0.2334 -0.7123
10767TIP3    H253717   6.166   2.916  12.155  2.1147  1.5809 -1.6937
10768TIP3   OH253718   0.414   2.659   1.128  0.1515  0.2099 -0.3576
10768TIP3    H153719   0.499   2.617   1.120  2.1874  3.8992 -0.3656
10768TIP3    H253720   0.394   2.689   1.039 -0.0938  1.1807  0.0151
10769TIP3   OH253721   2.340   3.268   1.785  0.2246 -0.3260  0.0649
10769TIP3    H153722   2.313   3.285   1.875  0.5339 -1.2399  0.3467
10769TIP3    H253723   2.436   3.269   1.788  0.2351  0.2818 -0.3846
10770TIP3   OH253724   4.633   1.817   0.372  0.0956 -0.5630 -0.2408
10770TIP3    H153725   4.645   1.755   0.299 -0.2600 -1.2842  0.2961
10770TIP3    H253726   4.597   1.763   0.443 -1.3713  0.4797 -0.1359
10771TIP3   OH253727   5.207   2.914   3.695 -0.1944 -0.0393 -0.1465
10771TIP3    H153728   5.232   2.957   3.777  1.8456  1.0427 -1.2405
10771TIP3    H253729   5.212   2.820   3.715  0.0628  0.2085  1.0240
10772TIP3   OH253730   3.537   5.534  12.439  0.4542  0.0023  0.3476
10772TIP3    H153731   3.450   5.537  12.400  0.5547 -1.5746 -0.0462
10772TIP3    H253732   3.529   5.470  12.510  1.1568  0.2532  0.6596
10773TIP3   OH253733   1.349   1.997   3.874  0.8168 -0.1770  0.2619
10773TIP3    H153734   1.350   2.084   3.833  1.0828 -1.6172 -3.1017
10773TIP3    H253735   1.439   1.965   3.864  0.2002 -1.7154 -0.7215
10774TIP3   OH253736   6.802   3.851   4.258  0.1669  0.0935 -0.1812
10774TIP3    H153737   6.800   3.804   4.342  0.5018 -0.2344 -0.3574
10774TIP3    H253738   6.889   3.835   4.223  0.1104  0.4317 -0.4812
10775TIP3   OH253739   3.914   2.139   2.955  0.3526  0.3200 -0.4649
10775TIP3    H153740   3.860   2.209   2.919  3.3011  2.5588 -0.9972
10775TIP3    H253741   3.909   2.152   3.050  0.4943  1.0183 -0.5413
10776TIP3   OH253742   3.094   2.737   0.807 -0.7945  1.0086 -0.0981
10776TIP3    H153743   3.065   2.796   0.738 -1.9951 -0.9559 -1.3377
10776TIP3    H253744   3.141   2.667   0.762  2.5305  1.9758  1.4993
10777TIP3   OH253745   0.757   6.443  11.478 -0.5175  0.4875 -0.3375
10777TIP3    H153746   0.771   6.499  11.555 -1.1835  1.6231 -1.0027
10777TIP3    H253747   0.842   6.443  11.433 -0.3886  0.5914 -0.0987
10778TIP3   OH253748   5.547   1.980  16.251  0.3309 -0.2057 -0.2898
10778TIP3    H153749   5.469   2.015  16.207  0.6557 -0.7273 -1.3002
10778TIP3    H253750   5.512   1.926  16.322 -0.3221 -2.1234 -1.9870
10779TIP3   OH253751   3.745   1.137  15.240  0.1442 -0.4099 -0.0827
10779TIP3    H153752   3.793   1.183  15.309 -0.1007 -0.0697 -0.1343
10779TIP3    H253753   3.738   1.047  15.270 -2.5564  0.3099  1.7592
10780TIP3   OH253754   3.844   0.802   5.380 -0.2163  0.2803 -0.3537
10780TIP3    H153755   3.850   0.752   5.462 -0.9039  1.5713  0.5306
10780TIP3    H253756   3.898   0.880   5.397  0.2524  0.1995 -1.4292
10781TIP3   OH253757   4.841   1.797  16.441 -0.3253 -0.4033  0.2514
10781TIP3    H153758   4.746   1.791  16.438 -0.3924 -0.9555  2.2139
10781TIP3    H253759   4.870   1.707  16.458  0.5674 -0.2787 -0.5263
10782TIP3   OH253760   6.108   1.785  13.714 -0.0530 -0.1756 -0.4696
10782TIP3    H153761   6.029   1.840  13.721  0.5413  0.7368 -0.7930
10782TIP3    H253762   6.134   1.769  13.804  1.3186  2.3949 -0.3238
10783TIP3   OH253763   0.931   4.938  12.222 -0.5743 -0.0319  0.1843
10783TIP3    H153764   0.932   5.029  12.193  1.2767 -0.3896 -1.0650
10783TIP3    H253765   0.982   4.939  12.304  0.4015 -0.0808 -0.4065
10784TIP3   OH253766   6.071   6.617  13.809  0.3182  0.4170  0.4378
10784TIP3    H153767   6.078   6.672  13.731 -2.9549  0.7466  0.2461
10784TIP3    H253768   6.095   6.529  13.779 -0.4710  0.6193 -0.8306
10785TIP3   OH253769   5.395   1.607   4.663  0.1557  0.2179 -0.4563
10785TIP3    H153770   5.452   1.668   4.710 -1.2843  1.4434 -0.2393
10785TIP3    H253771   5.442   1.524   4.666  0.3099  0.3286  2.7568
10786TIP3   OH253772   4.777   5.604  12.380  0.3265  0.0442  0.2938
10786TIP3    H153773   4.716   5.537  12.409  1.0188 -0.4428  0.6639
10786TIP3    H253774   4.786   5.590  12.286 -0.3374  0.2999  0.1877
10787TIP3   OH253775   3.912   4.480   2.256  0.2184  0.1818  0.0099
10787TIP3    H153776   3.924   4.431   2.175 -1.1687 -0.7214  0.3054
10787TIP3    H253777   3.947   4.423   2.325 -1.0274 -0.2692  0.3089
10788TIP3   OH253778   1.181   3.527  10.920 -0.1990  0.0711  0.1631
10788TIP3    H153779   1.098   3.534  10.873 -0.2571 -0.6496  0.1515
10788TIP3    H253780   1.247   3.515  10.852 -0.0580  0.7580  0.1649
10789TIP3   OH253781   5.682   0.303   4.734  0.0127 -0.7949 -0.7166
10789TIP3    H153782   5.711   0.253   4.810  2.4153  2.5594  0.8763
10789TIP3    H253783   5.759   0.304   4.676  0.4234  1.5736 -0.2591
10790TIP3   OH253784   1.936   6.207   2.993 -0.1588 -0.0810  0.3965
10790TIP3    H153785   1.909   6.143   3.059 -0.5517  0.1406  0.4575
10790TIP3    H253786   1.859   6.216   2.936 -0.9884  2.0482  1.7209
10791TIP3   OH253787   1.711   3.430  14.888  0.5744 -0.1360  0.2704
10791TIP3    H153788   1.634   3.477  14.857  0.7760  1.1330  1.6067
10791TIP3    H253789   1.785   3.478  14.851  0.7789 -1.4645 -1.1717
10792TIP3   OH253790   0.753   5.981   4.638  0.1336  0.0689 -0.7155
10792TIP3    H153791   0.706   5.972   4.721 -0.3971 -1.4877 -1.1558
10792TIP3    H253792   0.844   5.995   4.663 -0.2506  1.2170  0.1266
10793TIP3   OH253793   1.109   5.168  13.561 -0.0042 -0.9267 -0.1420
10793TIP3    H153794   1.059   5.133  13.487  0.8702 -0.6305 -0.8962
10793TIP3    H253795   1.085   5.260  13.565  0.5378 -0.7606 -0.5690
10794TIP3   OH253796   1.617   1.049  11.821  0.2982  0.2929  0.4685
10794TIP3    H153797   1.706   1.014  11.814 -0.0704 -0.8847  1.3397
10794TIP3    H253798   1.628   1.144  11.811  1.2072 -0.0278 -3.2766
10795TIP3   OH253799   2.364   3.540   6.222 -0.6334  0.6078 -1.1884
10795TIP3    H153800   2.390   3.531   6.313 -0.7045  1.5051 -1.0691
10795TIP3    H253801   2.419   3.477   6.174 -0.0484  0.6853 -0.6269
10796TIP3   OH253802   2.605   4.381   3.120 -0.2209  0.5143  0.6246
10796TIP3    H153803   2.577   4.471   3.136 -1.0867  0.5725 -1.0135
10796TIP3    H253804   2.525   4.329   3.124  0.2436 -0.1757  1.3669
10797TIP3   OH253805   4.857   5.240   1.638  0.2025 -0.0041  0.3570
10797TIP3    H153806   4.894   5.228   1.551  0.4412 -2.0176  0.6933
10797TIP3    H253807   4.932   5.230   1.697 -0.4351 -1.6872  0.9217
10798TIP3   OH253808   1.875   3.886  13.498  0.5431 -0.1170  0.5248
10798TIP3    H153809   1.943   3.944  13.464 -0.2602 -0.1440 -1.2354
10798TIP3    H253810   1.923   3.821  13.550  1.8936 -0.1894 -0.7531
10799TIP3   OH253811   3.766   6.459   4.248 -0.0640 -0.6149  0.0319
10799TIP3    H153812   3.860   6.473   4.263  0.0443 -0.0597 -1.0343
10799TIP3    H253813   3.735   6.543   4.215 -0.6970 -1.1317 -0.7051
10800TIP3   OH253814   6.119   3.247   4.479  0.4261 -0.1660 -0.4341
10800TIP3    H153815   6.067   3.316   4.520 -0.5960 -1.6189  0.8551
10800TIP3    H253816   6.067   3.168   4.493  0.6940 -0.9664 -3.4354
10801TIP3   OH253817   5.569   4.520  15.025 -0.2260  0.0474 -0.0797
10801TIP3    H153818   5.660   4.544  15.043 -0.4517  1.2332 -0.4695
10801TIP3    H253819   5.567   4.507  14.930 -0.4875  0.0915 -0.0787
10802TIP3   OH253820   1.510   5.753  16.702  0.2071 -0.2338  0.3583
10802TIP3    H153821   1.560   5.672  16.708  2.5959  1.0900 -0.1870
10802TIP3    H253822   1.577   5.821  16.692 -1.7754  1.6040 -1.2971
10803TIP3   OH253823   2.096   3.560  11.531 -0.1606  0.3950 -0.1793
10803TIP3    H153824   2.182   3.547  11.491 -0.6995  0.0118 -1.2780
10803TIP3    H253825   2.069   3.473  11.560 -1.0686  0.0989 -1.7885
10804TIP3   OH253826   2.999   3.121   3.541 -0.2213 -0.5413  0.5086
10804TIP3    H153827   3.076   3.148   3.592 -0.6790  1.4690  0.2216
10804TIP3    H253828   2.957   3.204   3.517 -2.3898 -1.5825  0.5241
10805TIP3   OH253829   2.584   4.069   0.345 -0.1264 -0.4572 -0.9243
10805TIP3    H153830   2.545   4.015   0.413 -0.0295 -0.1423 -0.6160
10805TIP3    H253831   2.629   4.007   0.288 -0.0960 -0.7100 -0.6259
10806TIP3   OH253832   0.496   1.031  13.244  0.4300  0.1186 -0.0233
10806TIP3    H153833   0.513   0.941  13.216  0.7159  0.1687 -0.0076
10806TIP3    H253834   0.465   1.023  13.334 -0.9543 -0.0838 -0.4993
10807TIP3   OH253835   1.913   4.522  14.815 -0.3895 -0.0103  0.0922
10807TIP3    H153836   1.995   4.549  14.856 -0.1786  1.0593 -0.9673
10807TIP3    H253837   1.883   4.600  14.768 -1.7317 -0.5472  0.0118
10808TIP3   OH253838   1.647   2.610   2.303 -0.6176 -0.4904 -0.4967
10808TIP3    H153839   1.629   2.704   2.313 -1.5530 -0.3974 -2.4601
10808TIP3    H253840   1.565   2.567   2.329 -0.5908 -0.6659 -0.6942
10809TIP3   OH253841   5.373   0.935   4.607 -0.7750  0.6121 -0.0050
10809TIP3    H153842   5.325   0.907   4.529 -1.6111  2.6468 -0.2917
10809TIP3    H253843   5.465   0.935   4.580 -0.7347 -1.6178 -0.0028
10810TIP3   OH253844   5.696   4.489  10.995 -0.4078  0.2336 -0.6533
10810TIP3    H153845   5.700   4.545  10.917 -1.5225  0.0263 -0.8713
10810TIP3    H253846   5.623   4.430  10.978 -0.4314 -0.0546  0.4053
10811TIP3   OH253847   3.729   5.276  16.591  0.4811  0.7023 -0.0257
10811TIP3    H153848   3.784   5.223  16.534  1.7201  1.9554 -0.0256
10811TIP3    H253849   3.653   5.220  16.609  0.4486 -0.0327 -2.2144
10812TIP3   OH253850   0.022   6.302   3.158 -0.2817  0.2756  0.3511
10812TIP3    H153851   0.054   6.333   3.243  0.6281  0.8825 -0.1958
10812TIP3    H253852   0.095   6.252   3.121 -0.1964  1.0726 -0.6093
10813TIP3   OH253853   6.294   1.345  13.069 -0.4086 -0.5593  0.2029
10813TIP3    H153854   6.213   1.302  13.043 -0.5530  1.3063 -3.0680
10813TIP3    H253855   6.269   1.437  13.082  0.9977 -0.1408  0.1120
10814TIP3   OH253856   6.664   6.328  16.169 -0.4411 -0.4819 -0.8197
10814TIP3    H153857   6.686   6.386  16.242  1.6063 -1.2888 -0.7277
10814TIP3    H253858   6.569   6.316  16.175 -0.6933  1.5531  0.1039
10815TIP3   OH253859   3.504   5.558  16.883  0.4556 -0.3239  0.4361
10815TIP3    H153860   3.566   5.613  16.931 -0.2487  1.6196 -0.7464
10815TIP3    H253861   3.476   5.613  16.809 -1.2360 -1.8408 -0.1129
10816TIP3   OH253862   0.765   0.620   4.037  0.6290  0.5331  0.2397
10816TIP3    H153863   0.720   0.538   4.022 -0.9115  1.2647  0.6815
10816TIP3    H253864   0.804   0.611   4.124  1.1068  0.0105 -0.0225
10817TIP3   OH253865   1.078   4.775  13.927 -0.2559 -0.9224  0.2388
10817TIP3    H153866   0.997   4.804  13.968  0.8877  0.0997  1.8766
10817TIP3    H253867   1.052   4.751  13.837 -2.3474 -0.7009  0.7271
10818TIP3   OH253868   6.339   0.574   1.378 -0.0325  0.1604 -0.0518
10818TIP3    H153869   6.386   0.562   1.461 -0.9418  0.3773  0.5158
10818TIP3    H253870   6.312   0.486   1.352 -1.4781  0.2773  0.9493
10819TIP3   OH253871   2.493   4.947   0.779  1.2842 -0.1183  0.5910
10819TIP3    H153872   2.509   4.853   0.775  0.8586 -0.1829  0.3912
10819TIP3    H253873   2.565   4.985   0.728  1.4502 -0.3324  0.6602
10820TIP3   OH253874   1.563   3.352   4.841 -0.3240  0.3976 -0.4352
10820TIP3    H153875   1.569   3.260   4.867  0.4880  0.3976 -0.5978
10820TIP3    H253876   1.515   3.394   4.911 -1.0364 -0.2256 -0.5459
10821TIP3   OH253877   1.288   5.258   1.199 -0.5476 -0.1222  0.1457
10821TIP3    H153878   1.318   5.342   1.165  1.6697 -1.3784 -1.2779
10821TIP3    H253879   1.348   5.238   1.271  1.4049 -2.0421 -1.8523
10822TIP3   OH253880   5.341   0.532  15.977 -0.5129  0.2489  0.3728
10822TIP3    H153881   5.268   0.591  15.993 -0.9196 -0.3614  0.8508
10822TIP3    H253882   5.366   0.548  15.886 -1.8174 -0.1365 -0.0822
10823TIP3   OH253883   1.201   5.938   6.265  0.3288  0.0794  0.5510
10823TIP3    H153884   1.191   5.862   6.208 -0.7337  0.9946 -0.5535
10823TIP3    H253885   1.120   5.940   6.316  0.2910  0.5386  0.4756
10824TIP3   OH253886   3.809   5.353  14.697 -0.1702  0.1198  0.4228
10824TIP3    H153887   3.834   5.283  14.637 -0.1277  0.1503  0.4055
10824TIP3    H253888   3.733   5.318  14.744 -0.6788  0.3846 -0.1871
10825TIP3   OH253889   3.254   3.104  12.754 -0.1043 -0.4603 -0.0243
10825TIP3    H153890   3.240   3.040  12.823  1.4367 -1.9367 -1.0146
10825TIP3    H253891   3.167   3.120  12.718 -0.4568 -2.4441 -0.1350
10826TIP3   OH253892   2.812   0.459   2.513  0.7870 -0.0147 -0.1239
10826TIP3    H153893   2.768   0.533   2.471  0.1592 -0.4300 -0.2011
10826TIP3    H253894   2.869   0.424   2.445 -0.4234 -0.8483 -0.7384
10827TIP3   OH253895   2.394   4.860  16.421 -0.0337 -0.0053  0.1711
10827TIP3    H153896   2.454   4.923  16.382 -1.0037 -0.1383 -1.6944
10827TIP3    H253897   2.311   4.907  16.427 -0.1853 -0.3681  1.0480
10828TIP3   OH253898   2.005   2.026   0.721  0.4423 -0.1624 -0.3457
10828TIP3    H153899   1.920   2.037   0.679  0.1658 -2.3507 -0.4917
10828TIP3    H253900   2.069   2.038   0.650  0.2388  0.8205 -0.3728
10829TIP3   OH253901   1.422   4.102  13.430 -0.3476  0.0582 -0.2594
10829TIP3    H153902   1.413   4.007  13.441 -1.9670  0.2924  0.8222
10829TIP3    H253903   1.365   4.123  13.356 -1.1348  0.3429  0.4110
10830TIP3   OH253904   5.391   0.849  13.872  0.6663 -0.3008 -0.0717
10830TIP3    H153905   5.302   0.824  13.896  0.6440  0.9361  1.3066
10830TIP3    H253906   5.382   0.940  13.841  1.1275 -0.9376 -2.2773
10831TIP3   OH253907   2.827   3.777  16.354 -0.5369 -0.0805 -0.1268
10831TIP3    H153908   2.878   3.707  16.396 -1.1717 -1.0030 -0.8620
10831TIP3    H253909   2.856   3.776  16.263 -1.1479  0.0593 -0.3241
10832TIP3   OH253910   5.571   2.589  15.248  0.1463 -0.2521  0.0073
10832TIP3    H153911   5.634   2.661  15.248 -0.1575  0.0154  0.3399
10832TIP3    H253912   5.490   2.628  15.216 -0.1422 -0.3352  0.6308
10833TIP3   OH253913   2.066   5.311  10.618 -1.1163  0.2776 -0.6202
10833TIP3    H153914   1.983   5.358  10.619 -0.6738  1.1752 -1.9870
10833TIP3    H253915   2.043   5.219  10.630 -2.0950  0.7148  1.1608
10834TIP3   OH253916   1.059   6.677  11.485 -0.7623 -0.1430 -0.5689
10834TIP3    H153917   1.150   6.650  11.475 -1.1474 -0.7291 -3.3970
10834TIP3    H253918   1.012   6.628  11.417 -2.8886  1.5119 -0.4075
10835TIP3   OH253919   5.989   0.373  13.525  0.0645 -0.3780 -0.1487
10835TIP3    H153920   5.924   0.399  13.460 -0.4208 -1.9623 -0.3234
10835TIP3    H253921   6.062   0.433  13.511 -1.7268  2.2110  0.8015
10836TIP3   OH253922   3.202   4.949  11.855  0.1010 -0.0002 -0.2185
10836TIP3    H153923   3.141   4.950  11.929  1.0376  3.2852  0.6960
10836TIP3    H253924   3.231   4.859  11.849 -2.6079 -1.0932  1.1530
10837TIP3   OH253925   5.285   5.696  13.512  0.2638 -0.1776 -0.5864
10837TIP3    H153926   5.270   5.789  13.499  4.1343  0.7941  0.5895
10837TIP3    H253927   5.210   5.667  13.565 -1.2321  2.1184 -1.2905
10838TIP3   OH253928   4.165   4.076   5.081  0.5747 -0.4620  0.4498
10838TIP3    H153929   4.180   4.086   5.176 -0.4122 -0.4797  0.6184
10838TIP3    H253930   4.147   4.165   5.051 -2.8984 -0.8678  0.9889
10839TIP3   OH253931   2.348   0.173   2.221 -0.1169  0.7952 -0.4534
10839TIP3    H153932   2.254   0.159   2.209  0.1558 -1.5045 -0.3481
10839TIP3    H253933   2.379   0.201   2.135 -0.6183 -0.3674 -1.0367
10840TIP3   OH253934   5.620   4.483   4.839  0.6168  1.3146 -0.1079
10840TIP3    H153935   5.625   4.482   4.744  1.7837  1.9340 -0.0712
10840TIP3    H253936   5.634   4.393   4.865  0.8083  1.2310 -0.4973
10841TIP3   OH253937   3.656   2.882   2.348  0.1037 -0.2693  0.1188
10841TIP3    H153938   3.679   2.860   2.258 -1.1792 -1.2285  0.0050
10841TIP3    H253939   3.562   2.868   2.353 -0.0290  0.8487  1.3193
10842TIP3   OH253940   0.064   3.042  15.188 -0.3331 -0.1208 -0.7707
10842TIP3    H153941   0.037   3.079  15.105  0.9629 -0.8709 -1.5643
10842TIP3    H253942   0.107   2.960  15.165 -1.7360 -1.3794  0.7996
10843TIP3   OH253943   1.243   1.633  14.480 -0.3290  0.1111 -0.5732
10843TIP3    H153944   1.234   1.655  14.573  1.1471  3.3332 -1.0732
10843TIP3    H253945   1.164   1.668  14.439 -0.3150 -0.0178 -0.7120
10844TIP3   OH253946   2.453   5.508   4.777 -0.3313  0.1548  0.6341
10844TIP3    H153947   2.410   5.505   4.691 -1.8727 -0.6896  1.3806
10844TIP3    H253948   2.396   5.565   4.829  1.5794  2.1738  0.6288
10845TIP3   OH253949   4.300   6.336  13.512 -0.1005 -0.0549 -0.0406
10845TIP3    H153950   4.234   6.403  13.491 -0.6930  0.4041  2.8582
10845TIP3    H253951   4.249   6.257  13.527  0.4328 -0.7175 -1.4563
10846TIP3   OH253952   3.506   4.619  15.317 -0.0187 -0.2135 -0.3597
10846TIP3    H153953   3.417   4.594  15.295 -0.8561  0.6637  1.8505
10846TIP3    H253954   3.513   4.710  15.289  0.4620 -0.4825 -1.1757
10847TIP3   OH253955   0.055   4.526   1.896 -0.3037  0.9039 -0.5162
10847TIP3    H153956   0.074   4.601   1.840  0.6099  1.4207  0.4506
10847TIP3    H253957  -0.010   4.558   1.958 -0.8640  0.5084 -0.8850
10848TIP3   OH253958   4.223   1.420   2.584  0.0812 -0.7102 -0.5277
10848TIP3    H153959   4.218   1.411   2.679  2.3433 -0.0244 -0.2700
10848TIP3    H253960   4.148   1.372   2.551  0.1895 -2.4461  1.5485
10849TIP3   OH253961   2.242   1.990   3.180 -0.0972 -0.0628 -0.0037
10849TIP3    H153962   2.243   1.918   3.243 -0.3650  0.9626  1.2183
10849TIP3    H253963   2.319   1.974   3.125  0.1431 -0.9953  0.5693
10850TIP3   OH253964   4.907   1.280  13.416  0.3586 -0.1548  0.0573
10850TIP3    H153965   4.900   1.354  13.476 -0.9690  1.0666 -1.4943
10850TIP3    H253966   4.915   1.320  13.329 -1.2746 -1.7925 -0.9203
10851TIP3   OH253967   4.614   6.298  12.040  0.1593  0.2379  0.0144
10851TIP3    H153968   4.576   6.385  12.024  1.3400  0.4327 -2.0173
10851TIP3    H253969   4.702   6.303  12.003  0.2474 -1.8351 -0.1607
10852TIP3   OH253970   0.789   0.406   3.222  0.0445 -0.6824 -0.4251
10852TIP3    H153971   0.858   0.423   3.286  0.2430 -1.2495 -0.4813
10852TIP3    H253972   0.731   0.343   3.265 -0.7491  0.1907 -0.1684
10853TIP3   OH253973   1.800   5.048  11.893  0.3148 -0.4004  0.5072
10853TIP3    H153974   1.775   4.956  11.903  2.5166 -1.1815 -0.6142
10853TIP3    H253975   1.819   5.078  11.981 -1.7808 -0.5433  1.0695
10854TIP3   OH253976   2.966   4.368  14.133 -0.2203 -0.4196  0.4129
10854TIP3    H153977   3.047   4.417  14.119  0.2438 -1.1825  0.3246
10854TIP3    H253978   2.897   4.433  14.128  0.1900 -0.0854 -1.8986
10855TIP3   OH253979   0.727   5.765   1.398  0.0172  0.6681  0.2862
10855TIP3    H153980   0.665   5.829   1.362 -0.1462  0.1131 -0.4572
10855TIP3    H253981   0.712   5.686   1.345  0.2495  0.0348  1.1504
10856TIP3   OH253982   2.112   3.955  15.179  0.0410 -0.1611  0.0123
10856TIP3    H153983   2.050   4.000  15.236  0.9463  0.6335  0.4077
10856TIP3    H253984   2.191   4.010  15.182  1.4358 -2.0964  1.0289
10857TIP3   OH253985   1.038   1.667  16.426  0.3587 -0.7459  0.0883
10857TIP3    H153986   0.969   1.722  16.463  1.2508 -0.3429  1.2350
10857TIP3    H253987   1.031   1.584  16.473  1.1117 -0.4438  0.7597
10858TIP3   OH253988   5.357   1.280  12.815  0.3953  0.1730 -0.3483
10858TIP3    H153989   5.412   1.288  12.737 -2.0352  2.4357 -2.0222
10858TIP3    H253990   5.273   1.247  12.782 -0.6107  0.9267  1.3291
10859TIP3   OH253991   1.401   0.071   6.261  0.0983  0.0383 -0.0981
10859TIP3    H153992   1.305   0.066   6.260  0.0597  0.6773  0.1738
10859TIP3    H253993   1.425   0.047   6.350  0.1754  0.1634 -0.0851
10860TIP3   OH253994   6.780   2.424   0.709 -0.4196  0.0991 -0.0220
10860TIP3    H153995   6.780   2.416   0.804 -0.1804 -1.2812 -0.1254
10860TIP3    H253996   6.855   2.373   0.680 -0.2148  0.8909 -0.9329
10861TIP3   OH253997   6.120   1.360   0.569 -1.1343  0.2954  0.4809
10861TIP3    H153998   6.191   1.319   0.618 -0.9524 -1.5106 -1.1786
10861TIP3    H253999   6.042   1.308   0.591 -1.1117 -0.3292 -0.8335
10862TIP3   OH254000   4.097   2.818   1.401 -0.2390  0.1648  0.3823
10862TIP3    H154001   4.122   2.763   1.476 -2.4888 -0.0082  1.0775
10862TIP3    H254002   4.180   2.838   1.357  0.9694 -1.1005  1.9674
10863TIP3   OH254003   3.537   1.999   3.598  0.2208 -0.0650 -0.2652
10863TIP3    H154004   3.614   2.036   3.641  0.2125 -0.3522  0.0068
10863TIP3    H254005   3.479   2.074   3.583 -0.1782 -0.0845  1.0771
10864TIP3   OH254006   4.379   4.717  16.225 -0.2460 -0.2466  0.5969
10864TIP3    H154007   4.339   4.715  16.312  1.1582  1.6745  1.3561
10864TIP3    H254008   4.441   4.644  16.226  2.0500  1.5592  2.4790
10865TIP3   OH254009   4.285   0.774  12.383 -0.1997 -0.2533 -0.3789
10865TIP3    H154010   4.379   0.764  12.368 -0.3823 -1.5825 -0.7256
10865TIP3    H254011   4.247   0.777  12.295 -0.3722  1.7836 -0.2814
10866TIP3   OH254012   1.116   6.578   5.217 -0.1890  0.0735 -0.3198
10866TIP3    H154013   1.174   6.613   5.150  0.4040  1.6059  0.9436
10866TIP3    H254014   1.048   6.531   5.168  0.8413  0.1941 -1.9145
10867TIP3   OH254015   1.694   6.055   5.082  0.0171 -0.1623  0.6368
10867TIP3    H154016   1.615   6.076   5.132  0.0505 -0.8210  0.9666
10867TIP3    H254017   1.723   5.970   5.116  0.5634 -0.1798  0.1429
10868TIP3   OH254018   6.457   0.389   4.971  0.0126  0.0683 -0.5487
10868TIP3    H154019   6.409   0.421   4.895  1.4028 -0.8750 -1.8752
10868TIP3    H254020   6.501   0.310   4.941 -0.3355 -1.0229  1.5842
10869TIP3   OH254021   3.187   4.664   4.308  0.8653 -0.1792 -0.3042
10869TIP3    H154022   3.185   4.603   4.382 -2.0383  0.2033  0.0484
10869TIP3    H254023   3.240   4.619   4.242  2.6486 -1.0046  1.5701
10870TIP3   OH254024   5.467   2.838  15.231  0.2518  0.4749 -0.0554
10870TIP3    H154025   5.496   2.881  15.151 -1.8527  0.5606 -0.8378
10870TIP3    H254026   5.434   2.909  15.286 -1.4786  0.1185 -0.5689
10871TIP3   OH254027   4.981   1.749  13.677  0.5241 -0.0968 -0.2232
10871TIP3    H154028   5.016   1.682  13.735  1.4213  1.4207  1.0608
10871TIP3    H254029   5.022   1.731  13.592 -0.3471 -1.9835 -0.2873
10872TIP3   OH254030   6.662   3.418  10.693 -0.5000 -0.1718 -0.1013
10872TIP3    H154031   6.633   3.365  10.619 -0.6456 -0.4278  0.1356
10872TIP3    H254032   6.756   3.402  10.700  0.3758  2.8763 -2.6811
10873TIP3   OH254033   5.097   1.087   5.211 -0.5710 -0.3089  0.4733
10873TIP3    H154034   5.077   0.998   5.241  0.2740 -0.1100  1.6942
10873TIP3    H254035   5.190   1.084   5.187 -0.3048  0.4575  1.3662
10874TIP3   OH254036   6.689   5.621   5.093 -0.1890 -0.0816 -0.5084
10874TIP3    H154037   6.665   5.613   5.186 -1.4036  0.2471 -0.7692
10874TIP3    H254038   6.692   5.715   5.078 -0.3047 -0.1357 -0.8698
10875TIP3   OH254039   2.309   3.898  14.656  0.0384  0.1995  0.1278
10875TIP3    H154040   2.304   3.978  14.603 -0.3339  0.8147  1.0661
10875TIP3    H254041   2.316   3.930  14.746 -1.1693 -0.8258  0.6059
10876TIP3   OH254042   5.191   6.443  16.263  0.1382 -0.6712 -0.4378
10876TIP3    H154043   5.104   6.455  16.302 -1.2329 -2.7739 -2.6418
10876TIP3    H254044   5.250   6.437  16.339 -1.2873  2.2950  1.1167
10877TIP3   OH254045   2.408   4.726  16.939  0.4199  0.7439  0.1314
10877TIP3    H154046   2.323   4.745  16.899 -1.5348 -2.4657  2.1906
10877TIP3    H254047   2.456   4.677  16.872 -1.5129 -1.7715  0.4064
10878TIP3   OH254048   2.298   2.037  13.545  0.2066 -0.2292  0.4340
10878TIP3    H154049   2.239   2.112  13.540  0.1430 -0.2497  0.8024
10878TIP3    H254050   2.320   2.018  13.454  0.7719  0.6685  0.3632
10879TIP3   OH254051   3.504   1.084  15.021 -0.3201 -0.1241 -0.1479
10879TIP3    H154052   3.594   1.071  15.052 -0.4016  0.3985  0.3333
10879TIP3    H254053   3.473   0.997  14.998  0.5767 -0.2054 -1.0718
10880TIP3   OH254054   4.018   0.238   3.184 -0.0931 -0.1057 -0.1909
10880TIP3    H154055   4.086   0.259   3.248 -2.0775  1.8380  1.4533
10880TIP3    H254056   3.944   0.293   3.210 -2.9230 -3.3472 -0.7993
10881TIP3   OH254057   2.385   2.176   5.280  0.3070  0.2965 -0.3960
10881TIP3    H154058   2.451   2.138   5.338 -0.7715 -1.1991 -0.1076
10881TIP3    H254059   2.408   2.143   5.193  0.2502  0.2025 -0.3755
10882TIP3   OH254060   5.098   5.411   3.161  0.1503 -0.6664 -0.2944
10882TIP3    H154061   5.086   5.484   3.101  0.8917  0.5571  0.9808
10882TIP3    H254062   5.139   5.342   3.108 -0.4011 -0.1077 -1.4730
10883TIP3   OH254063   4.134   3.532  11.130 -0.3479  0.5110 -0.0224
10883TIP3    H154064   4.167   3.606  11.181 -0.5755  1.7049 -1.4962
10883TIP3    H254065   4.208   3.473  11.121  0.0749  0.9556  0.4911
10884TIP3   OH254066   5.421   1.806  12.323  0.6196  0.1898 -0.0527
10884TIP3    H154067   5.440   1.757  12.404  0.9428  3.3542  1.9350
10884TIP3    H254068   5.348   1.759  12.284 -0.1638 -0.9864  2.5743
10885TIP3   OH254069   3.237   1.742  16.193  0.0001  0.5766 -0.4528
10885TIP3    H154070   3.287   1.725  16.272 -1.9248 -1.2267  0.4643
10885TIP3    H254071   3.257   1.668  16.135 -2.0718 -0.5954  0.2313
10886TIP3   OH254072   2.227   2.371  16.081  0.3853  0.4307  0.3251
10886TIP3    H154073   2.236   2.398  15.990 -0.7144  0.5902  0.2522
10886TIP3    H254074   2.132   2.368  16.096  0.5451 -0.1639  1.2917
10887TIP3   OH254075   2.508   3.355  16.732  0.3440  0.6725 -0.4839
10887TIP3    H154076   2.432   3.399  16.696 -1.2566 -2.2424 -0.9608
10887TIP3    H254077   2.490   3.349  16.826  0.9124  1.6057 -0.3029
10888TIP3   OH254078   2.489   0.121  12.923  0.2776 -0.1327  0.2782
10888TIP3    H154079   2.497   0.033  12.887 -2.3326 -0.6790  0.7948
10888TIP3    H254080   2.394   0.133  12.934  0.6930  1.8853  2.3136
10889TIP3   OH254081   3.945   6.168  14.158  0.4531 -0.0731  0.4611
10889TIP3    H154082   3.924   6.119  14.237  0.3106  0.9514  1.0746
10889TIP3    H254083   3.969   6.101  14.094 -0.7363 -1.0117  0.9583
10890TIP3   OH254084   5.479   0.941   2.084 -0.3330 -0.0623 -0.4857
10890TIP3    H154085   5.574   0.952   2.089 -0.2951 -0.8445  3.7703
10890TIP3    H254086   5.443   1.019   2.126 -1.3602 -1.3559  1.1541
10891TIP3   OH254087   5.478   5.179   0.918 -0.1849 -0.3396 -0.3386
10891TIP3    H154088   5.531   5.255   0.895 -2.3091  1.2787 -0.1990
10891TIP3    H254089   5.499   5.114   0.852  0.8589  0.7805 -1.1568
10892TIP3   OH254090   2.792   1.370   4.165 -0.0903 -0.2014 -0.0000
10892TIP3    H154091   2.731   1.325   4.108  0.3859  0.6479 -1.2076
10892TIP3    H254092   2.874   1.322   4.156 -0.2861 -0.7274  0.8430
10893TIP3   OH254093   0.376   6.262  14.971  0.1291 -0.5204 -0.1679
10893TIP3    H154094   0.314   6.269  15.044  1.7161  2.0221  1.1135
10893TIP3    H254095   0.417   6.176  14.982 -1.0451 -0.9900  0.7451
10894TIP3   OH254096   1.213   0.085   5.522 -0.2722 -0.4707 -0.2789
10894TIP3    H154097   1.258   0.100   5.439  1.2291 -0.8156  0.4415
10894TIP3    H254098   1.152   0.014   5.504  1.4357 -1.9084 -0.6429
10895TIP3   OH254099   4.914   6.237  10.951  0.2491  0.0806 -0.0579
10895TIP3    H154100   4.937   6.276  10.867 -0.7127  0.6731 -0.0537
10895TIP3    H254101   4.834   6.187  10.933  1.8269 -2.5984 -0.2540
10896TIP3   OH254102   3.156   3.475   3.670 -0.2156 -0.4134 -0.1657
10896TIP3    H154103   3.209   3.548   3.640  0.3920 -1.0067 -0.5720
10896TIP3    H254104   3.153   3.484   3.765  1.2299 -0.7619 -0.0636
10897TIP3   OH254105   0.242   4.150   5.344  0.1357  0.2054  0.0522
10897TIP3    H154106   0.158   4.189   5.366 -0.9346 -1.1471 -1.4607
10897TIP3    H254107   0.234   4.058   5.368  1.6118  0.2652  0.9328
10898TIP3   OH254108   0.007   4.586  15.064 -0.1414 -0.4474 -0.2233
10898TIP3    H154109  -0.035   4.500  15.061  1.4179 -1.2866  0.8750
10898TIP3    H254110  -0.041   4.634  15.131  0.9741 -1.6270  1.4922
10899TIP3   OH254111   2.333   5.348  11.841 -0.3024  0.4963  0.2522
10899TIP3    H154112   2.398   5.296  11.888  0.2573 -0.5071 -1.5158
10899TIP3    H254113   2.249   5.318  11.875  0.1011  1.0381  1.7994
10900TIP3   OH254114   2.650   5.299   4.714 -0.0304  0.2767 -0.1857
10900TIP3    H154115   2.728   5.347   4.683 -0.1194  0.8279  0.4304
10900TIP3    H254116   2.585   5.367   4.728  0.0190  0.0458  1.2431
10901TIP3   OH254117   2.456   3.165  14.208 -0.6164  0.2345 -0.3537
10901TIP3    H154118   2.439   3.166  14.114 -1.1297  2.8378 -0.3195
10901TIP3    H254119   2.378   3.204  14.247  0.2375  0.6902  0.9762
10902TIP3   OH254120   6.542   6.259   3.795 -0.3899 -0.3489 -0.2900
10902TIP3    H154121   6.558   6.270   3.702  2.6842 -1.9040 -0.0868
10902TIP3    H254122   6.509   6.169   3.804 -1.3621  0.0297  0.0950
10903TIP3   OH254123   2.794   3.290  13.470 -0.1862 -0.2595  0.7145
10903TIP3    H154124   2.745   3.367  13.440  1.7358  0.2811 -1.2782
10903TIP3    H254125   2.811   3.240  13.391  2.7749 -0.2036  1.2019
10904TIP3   OH254126   6.048   3.987  16.143  0.0356 -0.6615 -0.4454
10904TIP3    H154127   6.143   3.993  16.134  0.4125 -1.2778  2.2897
10904TIP3    H254128   6.014   4.061  16.092  2.0554  0.5222 -0.1563
10905TIP3   OH254129   4.324   6.129   4.450  0.0432 -0.7666 -0.3935
10905TIP3    H154130   4.261   6.177   4.503  0.2683  0.1557 -0.9410
10905TIP3    H254131   4.313   6.038   4.476 -1.2097 -0.5699 -0.1783
10906TIP3   OH254132   5.521   3.529  13.225 -0.4186  0.1924  0.2594
10906TIP3    H154133   5.441   3.477  13.232 -0.4078  0.0421 -0.6786
10906TIP3    H254134   5.529   3.548  13.132 -0.4134  1.8694  0.5689
10907TIP3   OH254135   1.569   2.966   4.295 -0.0018 -0.0483 -0.5636
10907TIP3    H154136   1.476   2.977   4.318  0.6484  2.2491  1.3902
10907TIP3    H254137   1.595   2.887   4.342 -0.0464  1.6087  2.4837
10908TIP3   OH254138   6.416   6.270  13.954  0.0461 -0.5873  0.5659
10908TIP3    H154139   6.352   6.210  13.917 -0.5436  1.4911 -2.1860
10908TIP3    H254140   6.394   6.276  14.047 -3.0888 -0.7948 -0.0646
10909TIP3   OH254141   3.009   3.969   4.756 -0.0429 -0.0391 -0.3486
10909TIP3    H154142   2.939   3.904   4.760 -0.9638  0.8053 -1.8886
10909TIP3    H254143   2.990   4.020   4.677  1.3837  1.2739  0.1122
10910TIP3   OH254144   0.846   3.153  14.880  0.2658  0.3809  0.1365
10910TIP3    H154145   0.892   3.157  14.964  1.2778  3.2200 -0.4710
10910TIP3    H254146   0.754   3.141  14.905  0.6009  0.6792  1.6316
10911TIP3   OH254147   0.131   1.271  15.177 -0.2839 -0.5849  0.3901
10911TIP3    H154148   0.043   1.287  15.142 -0.2735 -0.2246  0.5259
10911TIP3    H254149   0.183   1.345  15.146 -0.4255  0.0967  1.6762
10912TIP3   OH254150   5.852   3.581  14.959  0.6135  0.0844 -0.0398
10912TIP3    H154151   5.802   3.626  14.891  1.0377  0.2578 -0.2421
10912TIP3    H254152   5.812   3.494  14.965  1.3403 -0.3767 -1.3827
10913TIP3   OH254153   0.060   2.353   3.270  0.5334 -0.1460 -0.0065
10913TIP3    H154154   0.057   2.442   3.304  1.1583  0.0795 -0.5192
10913TIP3    H254155  -0.030   2.332   3.246 -0.0012 -0.4283  2.0477
10914TIP3   OH254156   6.297   3.523  11.333 -0.3827  0.0785 -0.1937
10914TIP3    H154157   6.288   3.566  11.418 -0.5427  0.9077 -0.6244
10914TIP3    H254158   6.280   3.431  11.352 -1.5333  0.4029  0.4912
10915TIP3   OH254159   3.451   0.506   3.338  0.4247 -0.3691  0.7447
10915TIP3    H154160   3.374   0.450   3.333  0.1119  0.1576 -1.0088
10915TIP3    H254161   3.523   0.447   3.360  0.2246 -1.6395 -1.7092
10916TIP3   OH254162   4.802   3.401   0.625  0.1937  0.2767  0.0214
10916TIP3    H154163   4.759   3.334   0.572  0.3648 -0.0030  0.2338
10916TIP3    H254164   4.732   3.438   0.678  0.5010 -1.4677  1.7495
10917TIP3   OH254165   5.450   4.673   0.373  0.5557  0.0715  0.0383
10917TIP3    H154166   5.425   4.734   0.305 -1.2415 -0.9509 -0.2612
10917TIP3    H254167   5.443   4.587   0.333 -0.6320 -0.5601  1.5072
10918TIP3   OH254168   0.084   4.058   2.733  0.4411 -0.4562  0.1242
10918TIP3    H154169   0.161   4.070   2.789  0.5244  1.0366 -0.2745
10918TIP3    H254170   0.044   3.977   2.765  0.3047  0.4860  2.5711
10919TIP3   OH254171   5.264   6.114  13.820  0.1549  0.7787  0.4273
10919TIP3    H154172   5.274   6.107  13.915 -1.3237  1.4846  0.6559
10919TIP3    H254173   5.331   6.177  13.793  2.1728 -1.1601  0.6383
10920TIP3   OH254174   0.141   2.141   3.885  0.1775  0.6727 -0.1893
10920TIP3    H154175   0.221   2.088   3.881  0.0788  0.4727  0.3635
10920TIP3    H254176   0.169   2.222   3.927  0.4262  1.2589 -1.4468
10921TIP3   OH254177   1.313   2.366  16.026 -0.0114  0.2482  0.8204
10921TIP3    H154178   1.293   2.418  16.103 -0.6849  0.7801  0.3062
10921TIP3    H254179   1.227   2.349  15.986  0.4174  1.5035 -0.7668
10922TIP3   OH254180   4.692   3.560   4.896 -0.3895 -0.4436  0.6656
10922TIP3    H154181   4.636   3.548   4.819 -0.1660  1.2824  0.1892
10922TIP3    H254182   4.693   3.654   4.910 -1.7448 -0.7750  3.8144
10923TIP3   OH254183   2.552   1.148  12.174 -0.0233 -0.0302 -0.2860
10923TIP3    H154184   2.477   1.182  12.224  0.9812 -0.1764  1.3875
10923TIP3    H254185   2.548   1.196  12.091 -1.1406  1.0293  0.3341
10924TIP3   OH254186   4.213   6.037   0.096 -0.2612 -1.1187 -0.4154
10924TIP3    H154187   4.226   6.076   0.009 -0.7888  1.8570  0.6971
10924TIP3    H254188   4.122   6.059   0.118 -0.1817 -1.9458  0.8184
10925TIP3   OH254189   3.264   1.334  10.472 -0.2999 -0.4521  0.3695
10925TIP3    H154190   3.339   1.364  10.421  0.6711 -0.8784  1.4968
10925TIP3    H254191   3.201   1.406  10.466 -0.6067 -0.8534 -2.1188
10926TIP3   OH254192   0.112   3.984  12.213  0.0073 -0.2748  0.0362
10926TIP3    H154193   0.142   3.916  12.153 -0.1357  0.5059 -0.9502
10926TIP3    H254194   0.098   4.060  12.157  0.3653  0.6334  1.1473
10927TIP3   OH254195   6.526   1.224   5.654  0.5320 -0.0509 -0.2408
10927TIP3    H154196   6.468   1.169   5.706  2.0133  0.2668  1.9072
10927TIP3    H254197   6.475   1.302   5.635 -0.6142 -0.9032 -0.7841
10928TIP3   OH254198   4.602   1.145  13.181 -0.1499  0.0719 -0.5225
10928TIP3    H154199   4.620   1.147  13.087 -1.5210 -2.0386 -0.8961
10928TIP3    H254200   4.685   1.118  13.220 -0.2377 -1.7129 -1.4400
10929TIP3   OH254201   2.115   6.390   2.840 -0.0858  0.2388  0.0654
10929TIP3    H154202   2.078   6.314   2.885  1.5381 -0.5133  0.2233
10929TIP3    H254203   2.170   6.352   2.770  0.4895  1.2667 -0.0614
10930TIP3   OH254204   6.595   3.558  13.804 -0.5350  0.7026 -0.1122
10930TIP3    H154205   6.526   3.545  13.738  0.2282 -0.4637 -0.7157
10930TIP3    H254206   6.564   3.508  13.879  0.3518 -1.1919 -0.9374
10931TIP3   OH254207   1.808   1.395  14.603 -0.7497  0.1469  0.0781
10931TIP3    H154208   1.879   1.458  14.596 -0.5444  0.1103  1.4622
10931TIP3    H254209   1.729   1.448  14.612 -0.6055  0.2216  0.9900
10932TIP3   OH254210   0.045   4.266  11.349 -0.0072  0.3186  0.1868
10932TIP3    H154211   0.117   4.244  11.409  0.5399 -0.0690 -0.6042
10932TIP3    H254212   0.024   4.184  11.305  0.8634  0.9601 -1.5123
10933TIP3   OH254213   2.814   4.990  11.383 -0.0299  0.3347  0.5597
10933TIP3    H154214   2.728   4.948  11.378 -0.6776  1.5286  1.2636
10933TIP3    H254215   2.799   5.080  11.352  0.7112  0.8894  1.7469
10934TIP3   OH254216   2.758   3.853   2.940 -0.1621 -0.2123 -0.0520
10934TIP3    H154217   2.810   3.931   2.922 -0.0625 -0.2386  0.1249
10934TIP3    H254218   2.689   3.855   2.874  0.7838 -0.8432 -1.1035
10935TIP3   OH254219   0.188   1.858  12.313 -0.4833  0.0808 -0.0537
10935TIP3    H154220   0.156   1.925  12.252  1.2900 -0.5408 -1.7726
10935TIP3    H254221   0.227   1.791  12.257 -0.4179 -1.4351  1.7179
10936TIP3   OH254222   4.858   1.077  12.419 -0.1888  0.2652  0.5479
10936TIP3    H154223   4.806   1.153  12.391 -0.2526  0.5512  1.4151
10936TIP3    H254224   4.949   1.105  12.407 -0.2015  0.6889  1.3651
10937TIP3   OH254225   1.951   4.262  16.025 -0.0851  0.8949 -0.2194
10937TIP3    H154226   2.001   4.205  16.083 -2.2734 -1.1394 -0.1714
10937TIP3    H254227   2.011   4.334  16.004  1.5335  0.5486  2.7374
10938TIP3   OH254228   4.216   6.438   2.323  0.3279 -0.1467  0.3189
10938TIP3    H154229   4.121   6.443   2.333 -0.0939 -2.4011 -1.7192
10938TIP3    H254230   4.249   6.431   2.412 -1.2952  1.6161  1.1373
10939TIP3   OH254231   5.804   2.449  15.114  0.7644 -0.0038 -0.7070
10939TIP3    H154232   5.729   2.491  15.156 -0.0577 -0.2539 -1.8666
10939TIP3    H254233   5.874   2.454  15.179  0.1897  1.6039 -0.1677
10940TIP3   OH254234   4.215   2.482   2.380 -0.4626 -0.0169  0.3094
10940TIP3    H154235   4.295   2.526   2.352 -0.6534  0.7781  0.9597
10940TIP3    H254236   4.244   2.420   2.447 -0.3406 -0.0483  0.2278
10941TIP3   OH254237   6.687   0.320  16.150 -0.0003  0.0822 -0.0087
10941TIP3    H154238   6.713   0.412  16.159  1.7256 -0.5413  2.0573
10941TIP3    H254239   6.609   0.312  16.205 -1.1626  0.6147 -1.4986
10942TIP3   OH254240   1.943   3.317  14.145  0.3406 -0.2835 -0.1109
10942TIP3    H154241   2.012   3.372  14.108 -0.0848  0.2956 -0.0648
10942TIP3    H254242   1.883   3.379  14.187 -0.3341 -0.7568 -0.3519
10943TIP3   OH254243   4.951   6.728  14.994  0.0993 -0.5721 -0.2833
10943TIP3    H154244   4.980   6.799  14.937  0.9973  0.4983  1.4048
10943TIP3    H254245   4.880   6.686  14.946 -1.9660  2.8131 -0.4925
10944TIP3   OH254246   3.319   2.177   0.836 -0.2076 -0.5816  0.4863
10944TIP3    H154247   3.324   2.084   0.859  1.7400 -0.8969 -0.9267
10944TIP3    H254248   3.287   2.176   0.745 -1.7582  0.2516  0.9962
10945TIP3   OH254249   4.608   0.288   1.268 -0.1219  0.0863 -0.3931
10945TIP3    H154250   4.692   0.333   1.263 -1.8128  3.6878  0.2576
10945TIP3    H254251   4.591   0.279   1.362 -0.3059 -1.0065 -0.5183
10946TIP3   OH254252   0.108   3.379  15.960 -0.2702  0.7556 -0.0865
10946TIP3    H154253   0.080   3.466  15.988 -0.1383  0.7389  0.1016
10946TIP3    H254254   0.197   3.393  15.927  0.5328  0.3793  1.7542
10947TIP3   OH254255   5.937   4.186   5.143  0.1372 -0.0299  0.1565
10947TIP3    H154256   5.924   4.197   5.237  1.1097 -0.3857  0.3472
10947TIP3    H254257   5.849   4.190   5.105 -0.2411  0.3291  1.0543
10948TIP3   OH254258   0.151   3.223   4.824  0.1686  0.2707  0.0135
10948TIP3    H154259   0.194   3.142   4.794  0.4583  0.4940 -0.1813
10948TIP3    H254260   0.222   3.287   4.828 -0.3499  0.9949 -1.5696
10949TIP3   OH254261   2.908   0.225  11.178  0.1072 -0.6866  0.4312
10949TIP3    H154262   2.921   0.304  11.231 -1.0585  0.2141 -0.5560
10949TIP3    H254263   2.957   0.243  11.098  1.1262 -1.6644  0.8036
10950TIP3   OH254264   0.074   6.182  15.384 -0.1151 -0.7693 -0.0155
10950TIP3    H154265   0.021   6.232  15.446  0.4383 -0.4466  0.2129
10950TIP3    H254266   0.131   6.128  15.439 -0.8626 -1.8360 -0.2631
10951TIP3   OH254267   5.519   6.197   0.182  0.8401 -0.1016 -0.6674
10951TIP3    H154268   5.486   6.201   0.272  2.8815  1.3611  0.1141
10951TIP3    H254269   5.522   6.289   0.154  1.9487 -0.3746 -1.5176
10952TIP3   OH254270   4.559   5.659  16.128 -0.3710  0.7397 -0.0612
10952TIP3    H154271   4.490   5.701  16.077 -0.3438 -0.4155 -1.1118
10952TIP3    H254272   4.517   5.582  16.166  0.8412 -1.4969 -2.8664
10953TIP3   OH254273   4.402   5.829  12.495 -0.7183  0.5393 -0.1140
10953TIP3    H154274   4.351   5.802  12.572  0.2857 -1.2037 -0.0123
10953TIP3    H254275   4.392   5.924  12.492 -2.2070  0.4667  1.1429
10954TIP3   OH254276   1.032   4.223   2.206  0.3233  0.1873 -0.6564
10954TIP3    H154277   1.049   4.313   2.176  0.0783  0.0935 -1.0908
10954TIP3    H254278   1.100   4.170   2.165  1.2007  0.3415  0.5696
10955TIP3   OH254279   6.507   2.531  12.275 -0.3754 -0.0185  0.0105
10955TIP3    H154280   6.495   2.625  12.288  0.4113  0.0562  0.2680
10955TIP3    H254281   6.543   2.501  12.358 -1.1396 -0.6540  0.1249
10956TIP3   OH254282   0.068   4.859   4.193 -0.2832  0.2148 -0.9192
10956TIP3    H154283   0.071   4.770   4.157 -0.2047 -0.2553  0.1783
10956TIP3    H254284  -0.023   4.885   4.186 -0.2116  0.2721 -1.7457
10957TIP3   OH254285   2.629   3.700   0.645  0.2906  0.0959  0.0605
10957TIP3    H154286   2.658   3.719   0.734 -1.6144  1.0185  0.5512
10957TIP3    H254287   2.590   3.612   0.650  0.2549  0.1155  0.1249
10958TIP3   OH254288   5.983   4.349  11.837 -0.0652 -0.0013 -0.1571
10958TIP3    H154289   6.051   4.397  11.883  0.6361  0.0640 -1.2305
10958TIP3    H254290   5.917   4.416  11.815  0.7511  0.4324 -1.3586
10959TIP3   OH254291   1.408   0.925  11.457 -0.2940 -0.1004  0.4061
10959TIP3    H154292   1.459   0.974  11.392 -0.7365 -0.6881 -0.4003
10959TIP3    H254293   1.377   0.992  11.518  0.1801  0.4546  0.0512
10960TIP3   OH254294   4.738   5.295   2.662  0.7080 -0.1611 -0.2691
10960TIP3    H154295   4.787   5.260   2.587 -0.9744 -1.1966 -0.9508
10960TIP3    H254296   4.695   5.374   2.628 -1.3287 -1.4734 -0.9687
10961TIP3   OH254297   5.738   2.662  12.255 -0.2523  0.4801 -0.7400
10961TIP3    H154298   5.742   2.574  12.217  0.4565  0.2543 -0.1555
10961TIP3    H254299   5.776   2.718  12.188  0.6810  0.1300 -0.5145
10962TIP3   OH254300   6.116   3.444  14.645  0.3523  0.1830  0.5142
10962TIP3    H154301   6.132   3.423  14.554 -0.5497 -1.6782  0.7314
10962TIP3    H254302   6.159   3.374  14.694 -0.8649  0.0287  1.4103
10963TIP3   OH254303   1.127   5.375  14.925 -0.3241 -0.5366 -0.1467
10963TIP3    H154304   1.217   5.342  14.917 -0.5889 -2.2403  2.4841
10963TIP3    H254305   1.097   5.385  14.835  2.2543 -0.6081 -1.0978
10964TIP3   OH254306   0.073   0.678  15.765  0.2854  0.2291  0.0017
10964TIP3    H154307   0.099   0.642  15.850  0.6978 -1.3402 -0.7424
10964TIP3    H254308   0.154   0.707  15.725  0.2256  0.0718 -0.2393
10965TIP3   OH254309   2.683   2.110   4.554  0.1739  0.3767  0.1749
10965TIP3    H154310   2.712   2.198   4.528  1.3501  0.3475  1.2496
10965TIP3    H254311   2.749   2.082   4.618 -0.1229 -1.3362 -0.2248
10966TIP3   OH254312   5.086   3.031  15.950  0.2899  0.0934  0.2375
10966TIP3    H154313   5.127   3.033  16.036 -1.0934  1.8706  0.9436
10966TIP3    H254314   4.997   2.998  15.966  0.2356 -0.2135 -0.6209
10967TIP3   OH254315   0.185   6.300   3.402 -0.5029 -0.2224 -0.1492
10967TIP3    H154316   0.157   6.209   3.409  0.3407 -0.6801 -2.0551
10967TIP3    H254317   0.278   6.298   3.427 -0.5022  0.1287 -0.1180
10968TIP3   OH254318   0.691   5.309  14.766  0.6098 -0.0438 -0.2976
10968TIP3    H154319   0.740   5.241  14.719 -0.2089  0.1628 -1.5018
10968TIP3    H254320   0.694   5.385  14.708  0.7097  0.6629  0.6119
10969TIP3   OH254321   5.290   3.424   0.978  0.2124 -0.3142 -0.2249
10969TIP3    H154322   5.316   3.475   0.901 -1.0887 -0.0447 -0.4988
10969TIP3    H254323   5.315   3.334   0.956  1.7104  0.0465 -0.0969
10970TIP3   OH254324   6.598   6.337   0.601 -0.2611  0.0585 -0.0891
10970TIP3    H154325   6.689   6.358   0.580 -0.0902 -0.4517  0.1163
10970TIP3    H254326   6.597   6.322   0.695 -0.4667 -0.3556 -0.1511
10971TIP3   OH254327   3.037   3.067   1.240 -0.6276 -0.0149 -0.2574
10971TIP3    H154328   3.000   3.011   1.172 -0.8929  0.7471 -0.7425
10971TIP3    H254329   3.118   3.023   1.266  0.0087  0.1938 -1.7740
10972TIP3   OH254330   3.688   3.619  12.840 -0.2707  0.3688  0.2983
10972TIP3    H154331   3.722   3.540  12.883  1.1038 -0.2076 -1.6766
10972TIP3    H254332   3.755   3.685  12.854 -0.2784  0.4615 -0.0858
10973TIP3   OH254333   3.203   6.567   1.373  0.1436  0.1567  0.2980
10973TIP3    H154334   3.197   6.474   1.352  1.0859 -0.1211  1.1645
10973TIP3    H254335   3.144   6.579   1.447  0.4042  0.1484  0.5055
10974TIP3   OH254336   2.064   5.822  15.460  0.0790 -0.2090 -0.2378
10974TIP3    H154337   2.108   5.905  15.441 -1.8696  1.1054  0.6026
10974TIP3    H254338   1.980   5.829  15.414  0.0968 -1.9806 -0.6015
10975TIP3   OH254339   5.715   6.799   6.326  0.6384  0.6811 -0.1082
10975TIP3    H154340   5.650   6.858   6.290  0.7208 -0.0387 -1.5106
10975TIP3    H254341   5.799   6.841   6.308  0.6945  0.1884 -1.0594
10976TIP3   OH254342   2.065   5.954  14.541 -0.9328 -0.1814  0.2731
10976TIP3    H154343   1.993   5.909  14.586 -0.7566  0.4484  1.2107
10976TIP3    H254344   2.025   6.030  14.500 -0.7106  0.5249  1.3359
10977TIP3   OH254345   1.246   0.987   1.481 -0.5739 -0.0377  0.0147
10977TIP3    H154346   1.262   1.074   1.444 -0.5151  0.6470  1.5711
10977TIP3    H254347   1.172   0.953   1.431 -0.8783  1.1002 -0.3336
10978TIP3   OH254348   5.513   4.294   4.098  0.4921 -0.1527 -0.4682
10978TIP3    H154349   5.473   4.209   4.082  1.6289 -0.4619 -1.8870
10978TIP3    H254350   5.440   4.353   4.115 -0.2728 -1.6373  1.8821
10979TIP3   OH254351   2.771   5.669   5.064 -0.2535  0.1475 -0.5761
10979TIP3    H154352   2.707   5.648   5.132  1.2854  1.4136  1.3885
10979TIP3    H254353   2.722   5.719   4.999 -1.3405  0.9348  0.7885
10980TIP3   OH254354   5.414   3.704   2.105  0.0399 -0.0730 -0.0577
10980TIP3    H154355   5.462   3.639   2.052  2.2883  1.2181  0.2574
10980TIP3    H254356   5.422   3.672   2.195  0.8253  0.4040  0.0548
10981TIP3   OH254357   3.417   4.758  13.823  0.3967 -0.0760 -0.4744
10981TIP3    H154358   3.387   4.690  13.883  1.4336  1.2355  1.6469
10981TIP3    H254359   3.338   4.808  13.803  0.1442 -0.1385  0.3386
10982TIP3   OH254360   0.379   0.325   1.341  0.0147  0.3096 -0.4514
10982TIP3    H154361   0.377   0.419   1.324  0.3807  0.2606 -0.7747
10982TIP3    H254362   0.471   0.305   1.356 -0.0407 -0.0264 -0.5473
10983TIP3   OH254363   1.520   1.907  11.173 -0.7481 -0.3255 -0.2189
10983TIP3    H154364   1.615   1.917  11.169 -0.5346 -1.8550  0.3302
10983TIP3    H254365   1.493   1.896  11.082  0.0392 -3.0790 -0.2053
10984TIP3   OH254366   2.235   3.704  12.827 -0.1357 -0.4056  0.6104
10984TIP3    H154367   2.307   3.760  12.798 -1.0258  0.6605  0.3447
10984TIP3    H254368   2.157   3.746  12.789 -1.1514 -0.1446  2.8218
10985TIP3   OH254369   3.279   4.699  11.660  0.2240 -0.1545  0.5291
10985TIP3    H154370   3.324   4.615  11.659 -0.5377 -0.6085 -1.7329
10985TIP3    H254371   3.212   4.690  11.728 -1.5335 -2.4100 -1.3117
10986TIP3   OH254372   3.161   0.247   1.351  0.3569 -0.6974 -0.2125
10986TIP3    H154373   3.140   0.340   1.353 -2.5268 -1.2229 -0.3571
10986TIP3    H254374   3.204   0.230   1.435  1.2757  0.7979 -0.3447
10987TIP3   OH254375   5.668   4.686  11.652 -0.1237  0.3721 -0.1001
10987TIP3    H154376   5.753   4.685  11.608  0.8742 -0.2817  1.7144
10987TIP3    H254377   5.657   4.596  11.684 -1.3843  0.5117 -0.0930
10988TIP3   OH254378   4.606   3.325   1.116  0.1751  0.2455  0.1633
10988TIP3    H154379   4.643   3.266   1.181  0.8866  1.2204  0.6812
10988TIP3    H254380   4.569   3.397   1.168 -0.6041  0.3042 -0.4497
10989TIP3   OH254381   0.377   6.612   1.397 -0.2742 -0.3066  0.2150
10989TIP3    H154382   0.436   6.606   1.323 -0.9511  2.4654 -0.6569
10989TIP3    H254383   0.429   6.651   1.467  0.2386 -2.5096  1.1616
10990TIP3   OH254384   3.443   1.555   3.256 -0.2608  0.1857  0.0671
10990TIP3    H154385   3.449   1.630   3.197 -3.2580  1.0729  0.7234
10990TIP3    H254386   3.398   1.488   3.204 -0.2312 -0.1073  0.4146
10991TIP3   OH254387   1.579   4.558  14.270  0.2958 -0.3592 -0.0752
10991TIP3    H154388   1.619   4.523  14.350  0.3490 -0.0520  0.0344
10991TIP3    H254389   1.652   4.600  14.224  0.4812 -1.4123 -0.7874
10992TIP3   OH254390   1.145   6.144  11.691 -0.1432  0.2166  0.4387
10992TIP3    H154391   1.135   6.098  11.608  0.0613  0.6320  0.1802
10992TIP3    H254392   1.056   6.164  11.719 -0.1715  1.0513 -0.2339
10993TIP3   OH254393   5.386   4.063  13.714 -0.1426  0.2648 -0.2267
10993TIP3    H154394   5.431   4.049  13.797 -1.0411  1.3966  0.4862
10993TIP3    H254395   5.295   4.041  13.733 -0.5327  1.4431 -0.6289
10994TIP3   OH254396   5.360   3.627  11.328 -0.0673 -0.4679  0.5341
10994TIP3    H154397   5.389   3.553  11.274  0.1146  0.4631 -0.7043
10994TIP3    H254398   5.268   3.610  11.345 -0.4421 -0.2664 -1.0621
10995TIP3   OH254399   3.231   3.737  13.441 -0.4412 -0.2010  0.3146
10995TIP3    H154400   3.149   3.778  13.470 -1.1917 -0.4079 -1.3846
10995TIP3    H254401   3.267   3.696  13.519 -1.0212  1.4314  1.4998
10996TIP3   OH254402   2.980   5.319   4.688  0.2570 -0.2916  0.2429
10996TIP3    H154403   2.938   5.396   4.649 -1.8980 -0.5732  1.8332
10996TIP3    H254404   2.998   5.261   4.614 -0.2278  0.7600 -0.7257
10997TIP3   OH254405   0.618   6.135  15.427 -0.3501 -0.5848 -0.2341
10997TIP3    H154406   0.614   6.210  15.368  0.0922  1.2202  1.9066
10997TIP3    H254407   0.711   6.115  15.435 -0.5005 -1.9515 -1.4083
10998TIP3   OH254408   5.159   2.321   2.542  0.1630  0.1298  0.3037
10998TIP3    H154409   5.178   2.241   2.591  1.0853 -0.6567 -1.2389
10998TIP3    H254410   5.080   2.300   2.492 -0.2478  0.6041  0.7389
10999TIP3   OH254411   0.444   0.524  10.967 -0.2636 -0.4771 -0.2389
10999TIP3    H154412   0.362   0.526  11.017 -0.3287 -0.3244 -0.3509
10999TIP3    H254413   0.437   0.597  10.906  0.8805  0.8986  1.1938
11000TIP3   OH254414   5.678   2.787  15.635  0.3786 -0.0805 -0.0627
11000TIP3    H154415   5.607   2.763  15.694 -0.1952 -1.1556 -1.1512
11000TIP3    H254416   5.704   2.875  15.663 -2.3598  0.9672 -0.5484
11001TIP3   OH254417   6.125   5.535  14.951 -0.6987  0.4707 -0.2067
11001TIP3    H154418   6.109   5.605  14.887  0.3550 -1.1581 -2.3938
11001TIP3    H254419   6.090   5.456  14.909  0.1476 -0.6924  1.1891
11002TIP3   OH254420   6.458   5.355   1.634 -0.2620 -0.3524 -0.4660
11002TIP3    H154421   6.481   5.329   1.545  1.6535  1.5404 -0.5999
11002TIP3    H254422   6.371   5.392   1.627  0.4770  1.2261 -1.9140
11003TIP3   OH254423   3.326   3.300  13.984  0.3039  0.4624 -0.8685
11003TIP3    H154424   3.298   3.242  13.914  0.9446 -0.9499  0.0017
11003TIP3    H254425   3.278   3.381  13.969  0.2274  0.1005 -2.7605
11004TIP3   OH254426   6.544   3.039   4.613  0.5480 -0.4638 -0.8236
11004TIP3    H154427   6.511   3.012   4.527  0.7546 -1.7052 -0.5459
11004TIP3    H254428   6.572   3.129   4.601 -1.5639  0.1588 -1.4403
11005TIP3   OH254429   5.718   1.173  16.233  0.2228  0.5185 -0.5561
11005TIP3    H154430   5.729   1.268  16.231  0.3755  0.7513  3.2334
11005TIP3    H254431   5.671   1.156  16.315  2.3626 -2.7916  0.2119
11006TIP3   OH254432   3.955   3.486  10.123 -0.2119  0.3538  0.2327
11006TIP3    H154433   4.009   3.417  10.162 -2.9238 -1.7597  0.5718
11006TIP3    H254434   3.999   3.568  10.147  2.3491 -1.1582  1.0997
11007TIP3   OH254435   1.342   0.738   2.876 -0.3212 -0.0498 -0.3091
11007TIP3    H154436   1.400   0.669   2.847 -1.4811 -1.8008  1.2764
11007TIP3    H254437   1.381   0.770   2.957  0.6477  1.8083 -1.4469
11008TIP3   OH254438   6.385   2.840  15.590  0.3903  0.7965 -0.0218
11008TIP3    H154439   6.419   2.830  15.679  1.0332  1.1159 -0.2238
11008TIP3    H254440   6.450   2.797  15.534 -0.8543 -0.9410 -0.2195
11009TIP3   OH254441   4.029   2.414   1.871  0.2727 -0.1097  0.4795
11009TIP3    H154442   4.048   2.505   1.895  0.6678  0.3049 -1.2559
11009TIP3    H254443   4.096   2.363   1.916  0.0719  0.4582  1.4406
11010TIP3   OH254444   1.732   6.596   6.464 -0.1841 -0.0285 -0.1595
11010TIP3    H154445   1.810   6.650   6.480 -0.3864  0.7267 -1.5088
11010TIP3    H254446   1.756   6.544   6.387 -0.7543 -0.3230 -0.1365
11011TIP3   OH254447   1.604   0.880   3.176  0.1514 -0.1482 -0.4731
11011TIP3    H154448   1.509   0.867   3.174  0.0097  0.9119 -2.1727
11011TIP3    H254449   1.616   0.975   3.173  1.2791 -0.1609  1.6926
11012TIP3   OH254450   0.322   1.409  13.806 -0.1278 -0.4489 -0.8639
11012TIP3    H154451   0.292   1.493  13.771  0.7214 -0.1395 -0.8798
11012TIP3    H254452   0.399   1.388  13.753  1.6283  0.3756  1.1921
11013TIP3   OH254453   3.403   1.745  12.672 -0.1950  0.4411  0.3204
11013TIP3    H154454   3.410   1.719  12.764  1.1883 -0.6278 -0.0542
11013TIP3    H254455   3.445   1.831  12.668  1.0310 -0.1383  0.4496
11014TIP3   OH254456   0.635   4.997  16.365  0.0980 -0.6038  0.2954
11014TIP3    H154457   0.558   4.986  16.420  0.0739 -1.8338  0.0449
11014TIP3    H254458   0.609   5.064  16.301  0.1424  0.8587  1.7494
11015TIP3   OH254459   2.173   3.145  11.585  0.7220 -0.2395 -0.0371
11015TIP3    H154460   2.194   3.130  11.493  1.8954 -0.9533  0.3255
11015TIP3    H254461   2.242   3.099  11.633  1.5877  2.1512  1.1965
11016TIP3   OH254462   3.183   6.748   4.334  0.0155  0.2166  0.2311
11016TIP3    H154463   3.255   6.739   4.396  0.9878  2.3852 -0.4757
11016TIP3    H254464   3.205   6.691   4.261  1.0584  0.8578  0.0253
11017TIP3   OH254465   0.460   1.247   0.840 -0.4175  0.1819 -0.3914
11017TIP3    H154466   0.505   1.165   0.861 -0.1855  0.7133  1.3935
11017TIP3    H254467   0.520   1.293   0.781 -0.0745 -0.4787 -0.5665
11018TIP3   OH254468   2.152   3.760  13.528  0.1742 -0.5082  0.1562
11018TIP3    H154469   2.143   3.772  13.434 -1.6202  0.1419  0.3717
11018TIP3    H254470   2.199   3.838  13.559  1.1144 -0.9108 -0.2303
11019TIP3   OH254471   2.981   3.120  13.616 -0.2936 -0.2315 -0.0037
11019TIP3    H154472   2.908   3.175  13.644 -0.3450 -0.7226  0.8908
11019TIP3    H254473   2.942   3.059  13.553 -0.7676 -0.7656  0.7836
11020TIP3   OH254474   4.103   0.404  14.457 -0.2177  0.1077  0.6506
11020TIP3    H154475   4.072   0.412  14.367  1.7179 -0.4539 -0.1219
11020TIP3    H254476   4.123   0.310  14.467  0.7464  0.3559  1.2312
11021TIP3   OH254477   2.087   5.099  14.003 -0.8325  0.3823 -0.2144
11021TIP3    H154478   2.006   5.128  13.962 -0.9909 -0.0486 -0.2105
11021TIP3    H254479   2.120   5.176  14.050 -2.2041  0.0882  1.3275
11022TIP3   OH254480   4.573   3.401   3.837  0.4643  0.6654 -0.7852
11022TIP3    H154481   4.621   3.362   3.763  0.0635 -1.1167 -0.1517
11022TIP3    H254482   4.610   3.359   3.914 -1.7707 -0.4393 -0.2416
11023TIP3   OH254483   2.766   5.608  13.570 -0.4836  0.9730 -0.4335
11023TIP3    H154484   2.825   5.556  13.515  0.5552  1.6925 -0.0272
11023TIP3    H254485   2.697   5.546  13.596  1.1132 -0.4417  0.6548
11024TIP3   OH254486   4.605   0.317   1.544 -0.7615  0.2967  0.3024
11024TIP3    H154487   4.524   0.322   1.595 -0.6607  0.9542  0.4046
11024TIP3    H254488   4.674   0.318   1.610 -0.6124  1.6438  0.1597
11025TIP3   OH254489   3.630   0.414  11.525 -0.3538  0.4120  0.3012
11025TIP3    H154490   3.607   0.341  11.582  0.3092 -0.5784 -0.6581
11025TIP3    H254491   3.546   0.447  11.493 -0.7057 -2.7932 -2.7299
11026TIP3   OH254492   1.398   1.526  15.888  0.5073  0.0535  0.2114
11026TIP3    H154493   1.373   1.598  15.946  1.1977 -0.6647  1.4723
11026TIP3    H254494   1.493   1.534  15.880  0.9653 -2.0033  2.3222
11027TIP3   OH254495   3.966   6.234   5.562 -0.3265 -0.4954  1.1102
11027TIP3    H154496   3.890   6.246   5.619 -0.1769  1.3800  0.9831
11027TIP3    H254497   3.950   6.292   5.488  0.9934 -0.4342  0.8504
11028TIP3   OH254498   5.462   2.976  13.973 -0.3940 -0.6432  0.1809
11028TIP3    H154499   5.403   2.900  13.972 -0.1747 -0.8278 -1.4454
11028TIP3    H254500   5.543   2.943  14.013 -0.2210 -1.3367 -0.7322
11029TIP3   OH254501   5.176   1.084   0.369 -0.0309  0.6736 -0.5844
11029TIP3    H154502   5.269   1.102   0.357 -0.3030  1.0739 -2.4357
11029TIP3    H254503   5.168   1.059   0.461  2.0590 -0.4727 -0.6580
11030TIP3   OH254504   4.653   2.145   1.624 -0.0222 -0.6747  0.3461
11030TIP3    H154505   4.579   2.134   1.683  1.0115 -1.0260  1.6372
11030TIP3    H254506   4.675   2.238   1.628  1.2357 -0.9949  2.0853
11031TIP3   OH254507   6.579   0.450  12.068 -0.9307  0.2361  0.3687
11031TIP3    H154508   6.603   0.515  12.001  1.8510  0.2616  1.2822
11031TIP3    H254509   6.557   0.371  12.018  1.3323  0.1799 -0.6401
11032TIP3   OH254510   6.617   2.248  13.351  0.3857  0.1575 -0.4765
11032TIP3    H154511   6.577   2.168  13.385  1.3354  0.0156  0.3484
11032TIP3    H254512   6.599   2.246  13.257 -2.8943  0.8769  0.0063
11033TIP3   OH254513   4.577   3.614   5.933  0.0299 -0.4206 -0.3382
11033TIP3    H154514   4.573   3.654   6.019  0.3806 -0.3201 -0.3666
11033TIP3    H254515   4.600   3.686   5.874 -2.5646  0.0382 -0.8843
11034TIP3   OH254516   2.482   1.812   3.446 -0.3597  0.4100 -0.5521
11034TIP3    H154517   2.419   1.811   3.374  1.8906 -0.3438 -2.6238
11034TIP3    H254518   2.549   1.874   3.418 -0.1503  1.2526  1.6243
11035TIP3   OH254519   1.948   2.540  12.093  0.0167  1.1558 -0.1347
11035TIP3    H154520   1.964   2.446  12.086 -0.7272  0.9864  0.3697
11035TIP3    H254521   1.913   2.565  12.008 -0.0221  0.9284 -0.1857
11036TIP3   OH254522   3.084   0.036  15.020  0.3131  0.6366  0.0425
11036TIP3    H154523   2.999   0.072  15.048 -0.9982 -2.5146  0.5260
11036TIP3    H254524   3.113  -0.017  15.094  1.3572 -0.4806 -1.1238
11037TIP3   OH254525   2.391   1.784   5.534  0.2963  0.0337  0.0373
11037TIP3    H154526   2.388   1.718   5.603  0.6745 -0.2234 -0.1883
11037TIP3    H254527   2.464   1.757   5.478 -0.8292 -0.5349 -1.2265
11038TIP3   OH254528   3.283   3.899   2.558  0.6294 -0.4806 -0.1583
11038TIP3    H154529   3.360   3.955   2.570  2.0556 -2.3211 -0.3297
11038TIP3    H254530   3.302   3.848   2.479 -2.0474  0.9407 -1.8866
11039TIP3   OH254531   1.492   4.087   4.723  0.0313  0.0249 -0.4571
11039TIP3    H154532   1.423   4.120   4.665  0.7100 -0.1537 -1.3943
11039TIP3    H254533   1.570   4.087   4.668  0.7668  0.1655  0.5732
11040TIP3   OH254534   3.411   4.372  15.103  0.0437  0.5241 -0.4897
11040TIP3    H154535   3.403   4.284  15.140 -1.0934  1.1120  0.7082
11040TIP3    H254536   3.333   4.383  15.049 -0.2211  1.0870 -0.0004
11041TIP3   OH254537   1.521   6.590   0.472  0.6885 -0.1978  0.4198
11041TIP3    H154538   1.510   6.626   0.561  2.3674  0.6741  0.3123
11041TIP3    H254539   1.435   6.554   0.450 -0.6491  2.2615  1.2250
11042TIP3   OH254540   2.702   1.693  10.415  0.0616 -0.0869 -0.3041
11042TIP3    H154541   2.795   1.689  10.392  0.2370 -0.3645  0.4444
11042TIP3    H254542   2.689   1.783  10.445  0.7758 -0.7843  2.3699
11043TIP3   OH254543   6.560   2.655  15.454  0.5581  0.0856 -0.1540
11043TIP3    H154544   6.524   2.589  15.394  0.2591  1.1051 -1.1415
11043TIP3    H254545   6.655   2.645  15.446  0.5274 -0.8504  0.4453
11044TIP3   OH254546   0.071   2.002   2.474  0.0672  0.2528 -0.0004
11044TIP3    H154547   0.017   2.003   2.554  0.2341  0.5779  0.1052
11044TIP3    H254548   0.154   2.040   2.500  0.9947 -1.8130  0.2872
11045TIP3   OH254549   4.812   0.040  12.516 -0.4144 -0.1482 -0.0098
11045TIP3    H154550   4.848   0.121  12.479  1.5497 -1.0962 -0.2562
11045TIP3    H254551   4.855   0.031  12.600 -1.4446 -0.4017  0.5033
11046TIP3   OH254552   4.547   5.443   1.075  0.1371  0.1866 -0.8349
11046TIP3    H154553   4.487   5.515   1.091  2.1689  1.6273  0.8483
11046TIP3    H254554   4.583   5.460   0.987  0.1961  0.9395 -0.6719
11047TIP3   OH254555   0.241   4.559  11.637  0.1719  0.7693  0.3351
11047TIP3    H154556   0.173   4.626  11.641 -1.0333 -0.4717  2.2717
11047TIP3    H254557   0.195   4.477  11.653  1.8779 -0.3258 -0.1332
11048TIP3   OH254558   2.778   5.769  13.089 -0.7959 -0.2890 -0.0047
11048TIP3    H154559   2.823   5.804  13.012 -0.9012  0.1799  0.1458
11048TIP3    H254560   2.699   5.823  13.097 -0.8076 -0.3657  0.4058
11049TIP3   OH254561   5.248   2.122   3.897 -0.1489 -0.0609 -0.6196
11049TIP3    H154562   5.339   2.090   3.900 -0.3688 -0.6028  1.9507
11049TIP3    H254563   5.197   2.054   3.940 -1.6178  0.8323 -0.8935
11050TIP3   OH254564   5.168   3.243   2.997  0.1215 -0.5152  0.2492
11050TIP3    H154565   5.123   3.162   3.020 -0.5764 -0.2799 -0.2371
11050TIP3    H254566   5.260   3.226   3.014 -0.0978 -1.1825  0.7865
11051TIP3   OH254567   3.099   2.159   2.940  0.0442 -0.0180 -0.4705
11051TIP3    H154568   3.183   2.196   2.967  1.0005 -0.7164 -2.3882
11051TIP3    H254569   3.091   2.078   2.991 -0.3287  0.8934  0.9950
11052TIP3   OH254570   2.205   1.443  14.699  0.0036  1.0386 -0.0270
11052TIP3    H154571   2.109   1.435  14.695 -0.1793  1.2562  2.2998
11052TIP3    H254572   2.233   1.369  14.752  1.0597  1.3726 -0.0941
11053TIP3   OH254573   0.753   4.963  11.654 -0.0506 -0.3651  0.0136
11053TIP3    H154574   0.682   5.008  11.701 -0.1364 -0.5457  0.0560
11053TIP3    H254575   0.758   4.877  11.695 -1.4985 -1.2916 -1.6734
11054TIP3   OH254576   0.812   4.562  12.209 -0.4498 -0.2159  0.1783
11054TIP3    H154577   0.884   4.574  12.271 -1.4605  1.7342  1.0675
11054TIP3    H254578   0.777   4.475  12.230 -1.1019  0.5715  2.8147
11055TIP3   OH254579   0.694   3.982  14.225 -0.6321  0.1523  0.7413
11055TIP3    H154580   0.732   3.894  14.224 -1.6459 -0.3418  2.2136
11055TIP3    H254581   0.628   3.980  14.155  0.1142  0.1404  0.0123
11056TIP3   OH254582   6.057   5.952   6.231  0.3502  0.2205 -0.2433
11056TIP3    H154583   6.040   5.860   6.210 -0.5315  0.5356 -1.0145
11056TIP3    H254584   6.027   5.962   6.321  1.9659 -0.6102  0.4283
11057TIP3   OH254585   6.764   5.433   0.770 -0.5624 -0.0805 -0.5588
11057TIP3    H154586   6.705   5.458   0.840  1.4142  0.4977  1.0074
11057TIP3    H254587   6.800   5.516   0.737 -1.6573 -0.3120 -2.5114
11058TIP3   OH254588   3.534   3.427   0.952 -0.3343 -0.0970  0.1697
11058TIP3    H154589   3.527   3.398   1.043  1.1446 -1.4123 -0.0893
11058TIP3    H254590   3.562   3.348   0.905  0.3389  0.9251 -1.1747
11059TIP3   OH254591   3.953   2.214   3.231 -0.8085 -0.2179  0.2339
11059TIP3    H154592   3.894   2.236   3.304 -1.7026  0.0814 -0.5537
11059TIP3    H254593   3.974   2.299   3.192  0.5068 -0.2859  0.7662
11060TIP3   OH254594   0.605   6.665   2.007 -0.7504  0.1570  0.3350
11060TIP3    H154595   0.513   6.647   1.989 -0.5959 -0.2887 -0.0049
11060TIP3    H254596   0.649   6.653   1.923 -0.5011  1.1843  0.3025
11061TIP3   OH254597   0.079   3.691   1.447  0.0530 -0.1735 -0.3177
11061TIP3    H154598   0.048   3.748   1.518 -1.6772  0.2638 -1.3514
11061TIP3    H254599   0.071   3.603   1.483 -0.9244  0.0333  0.0168
11062TIP3   OH254600   1.996   1.974   1.954 -0.0402 -0.4075 -0.0736
11062TIP3    H154601   1.981   1.890   1.910 -1.4735 -0.4699  0.4971
11062TIP3    H254602   1.988   2.039   1.884 -1.2336 -0.5825 -0.1079
11063TIP3   OH254603   6.810   0.156   1.114 -0.2038 -0.2909 -0.2527
11063TIP3    H154604   6.906   0.157   1.115 -0.0468 -2.3345 -2.5533
11063TIP3    H254605   6.785   0.248   1.112  1.6162  0.3322  1.6101
11064TIP3   OH254606   2.506   3.635   0.043 -0.4377 -0.2960  0.1430
11064TIP3    H154607   2.564   3.631   0.119  1.8009  2.2446 -1.2311
11064TIP3    H254608   2.480   3.727   0.038 -0.6727 -0.4249 -2.0180
11065TIP3   OH254609   2.242   2.309  13.573 -0.2817 -0.5517 -0.5358
11065TIP3    H154610   2.288   2.334  13.653 -1.7808 -0.6969  0.3925
11065TIP3    H254611   2.200   2.389  13.543 -1.7978 -1.0120  0.2461
11066TIP3   OH254612   2.795   2.880  13.504 -0.6075 -0.1498  0.3075
11066TIP3    H154613   2.831   2.856  13.418 -0.9153  1.8519 -0.4338
11066TIP3    H254614   2.708   2.914  13.485 -0.2963  1.2595  1.2778
11067TIP3   OH254615   4.507   2.190   2.377 -0.4653  0.0097  0.6538
11067TIP3    H154616   4.456   2.159   2.302 -0.1341  2.3200 -0.6163
11067TIP3    H254617   4.445   2.244   2.427  0.3111  1.6994 -0.1500
11068TIP3   OH254618   2.004   5.909  14.218  0.2057 -0.8750 -0.0470
11068TIP3    H154619   2.027   5.943  14.132  0.9314 -0.3925  0.3316
11068TIP3    H254620   1.964   5.983  14.263 -0.7141 -1.2905 -0.1685
11069TIP3   OH254621   5.501   1.910  12.760  0.6874 -0.4288 -0.3820
11069TIP3    H154622   5.435   1.883  12.696  0.2699  1.9673 -1.0473
11069TIP3    H254623   5.533   1.994  12.727  3.6509 -1.2061  0.2547
11070TIP3   OH254624   1.034   6.137   3.020  0.9181  0.5312  0.0756
11070TIP3    H154625   1.029   6.185   2.938  3.0122 -1.6222 -1.4278
11070TIP3    H254626   1.091   6.190   3.076  0.2086  1.5606 -0.1491
11071TIP3   OH254627   0.734   5.398   5.808  0.1097 -0.1927 -0.1477
11071TIP3    H154628   0.766   5.463   5.870  0.1223  0.8676 -1.2142
11071TIP3    H254629   0.814   5.355   5.775  0.0429 -1.5368  1.3340
11072TIP3   OH254630   4.483   2.006  12.758 -0.2840 -0.2724  0.3825
11072TIP3    H154631   4.495   1.986  12.851 -1.2408  0.5867  0.7136
11072TIP3    H254632   4.530   1.937  12.712 -1.7721 -2.0965  1.4796
11073TIP3   OH254633   4.652   3.182   4.070 -0.2303 -0.1314 -0.2786
11073TIP3    H154634   4.734   3.223   4.100  0.8678  0.5875 -3.7691
11073TIP3    H254635   4.678   3.094   4.044 -0.9474 -0.4542  0.0941
11074TIP3   OH254636   2.467   5.587  10.747 -0.1802  0.0814  0.4320
11074TIP3    H154637   2.529   5.624  10.685 -1.3676  0.1538 -0.7719
11074TIP3    H254638   2.391   5.646  10.742  0.0140  0.6302  2.6685
11075TIP3   OH254639   3.959   1.763   2.568  0.2030 -0.2833 -0.0202
11075TIP3    H154640   4.024   1.830   2.548  0.5929 -0.1598  1.5250
11075TIP3    H254641   3.955   1.709   2.489  1.5268  0.2246 -0.4681
11076TIP3   OH254642   0.680   3.876  12.103 -0.4733  0.7736 -0.1921
11076TIP3    H154643   0.709   3.959  12.140  0.0704  0.3292  0.4084
11076TIP3    H254644   0.595   3.895  12.065 -0.9810  1.3031  1.1398
11077TIP3   OH254645   5.518   5.606   0.735  0.2685  0.8999 -0.3678
11077TIP3    H154646   5.582   5.658   0.686  1.6631 -0.8461 -0.5365
11077TIP3    H254647   5.477   5.551   0.668  0.6278  0.0404  0.1028
11078TIP3   OH254648   4.472   2.139  15.537  0.4726 -0.0138  0.3691
11078TIP3    H154649   4.435   2.214  15.583  2.5194  0.8530  0.6716
11078TIP3    H254650   4.560   2.166  15.512  0.3479 -1.3904 -1.8436
11079TIP3   OH254651   4.068   3.613  14.510  0.2015 -0.1704  0.4052
11079TIP3    H154652   4.106   3.652  14.589 -1.9325  2.9920  0.0727
11079TIP3    H254653   4.143   3.596  14.453  1.4787  3.2205  0.8222
11080TIP3   OH254654   5.489   3.565   2.384  0.8989 -0.2209  0.0395
11080TIP3    H154655   5.408   3.600   2.420 -0.0789  0.3651 -2.4955
11080TIP3    H254656   5.473   3.471   2.377  0.7024 -0.2007  0.2247
11081TIP3   OH254657   2.866   6.212   0.396  0.2411  0.7864  0.0263
11081TIP3    H154658   2.798   6.199   0.461  1.2503  1.0042  1.1628
11081TIP3    H254659   2.852   6.300   0.362  0.0178  0.8611  0.3184
11082TIP3   OH254660   2.608   2.485  16.379 -0.1337  0.7020  0.8139
11082TIP3    H154661   2.517   2.495  16.351 -0.0547 -0.9020 -0.1606
11082TIP3    H254662   2.608   2.405  16.432  0.9479 -0.2477 -0.5387
11083TIP3   OH254663   5.770   6.457   1.499 -0.3179  0.2281 -0.3857
11083TIP3    H154664   5.750   6.541   1.541  0.1668  0.8116 -1.2791
11083TIP3    H254665   5.848   6.426   1.543 -0.1746  0.5254 -0.4254
11084TIP3   OH254666   1.258   5.845  16.707  0.1504 -0.0031  0.4817
11084TIP3    H154667   1.347   5.813  16.698  0.5434  0.4070  2.4730
11084TIP3    H254668   1.208   5.769  16.736 -0.1065 -0.1652 -0.3629
11085TIP3   OH254669   6.339   5.740  14.635 -0.3844  0.2510 -0.2551
11085TIP3    H154670   6.244   5.746  14.631 -0.4870  0.3028  1.4987
11085TIP3    H254671   6.358   5.726  14.728  1.3282  0.3973 -0.5569
11086TIP3   OH254672   1.590   1.212  14.527 -0.2983  0.1405  0.2431
11086TIP3    H154673   1.595   1.150  14.600 -0.8189  2.2311  2.1730
11086TIP3    H254674   1.664   1.271  14.540 -1.0191  1.1971 -0.2657
11087TIP3   OH254675   5.936   0.341   3.131  0.0164 -0.0817 -0.0647
11087TIP3    H154676   5.983   0.290   3.197 -1.6489 -0.2475  1.0375
11087TIP3    H254677   5.954   0.432   3.153 -0.9674 -0.1234  0.9856
11088TIP3   OH254678   2.182   0.942  11.032 -0.0588 -0.6969  0.1108
11088TIP3    H154679   2.145   0.869  10.983  1.1018 -1.6891  0.6756
11088TIP3    H254680   2.169   1.018  10.975 -1.1968 -1.3393 -0.5201
11089TIP3   OH254681   4.378   6.791  15.170 -0.2939  0.5689 -0.1173
11089TIP3    H154682   4.449   6.810  15.108 -0.4477  0.6712 -0.2660
11089TIP3    H254683   4.305   6.846  15.139 -1.0104 -0.8149 -1.0125
11090TIP3   OH254684   3.687   1.958  11.772 -0.0528 -0.3283 -0.3837
11090TIP3    H154685   3.774   1.955  11.734  0.0867 -0.0255 -0.0925
11090TIP3    H254686   3.692   2.025  11.840 -0.9712  0.9211 -1.5074
11091TIP3   OH254687   0.799   6.555   3.932 -0.6592  0.2847 -0.0032
11091TIP3    H154688   0.741   6.583   4.003  0.6693  0.8219  0.9335
11091TIP3    H254689   0.851   6.484   3.971  0.2159  0.7133 -0.3530
11092TIP3   OH254690   6.618   6.338  15.886  0.1425  0.2260 -0.0426
11092TIP3    H154691   6.630   6.336  15.981  2.3811 -0.6943 -0.2968
11092TIP3    H254692   6.551   6.406  15.872 -2.3558 -1.5328  2.3391
11093TIP3   OH254693   2.954   5.712   6.828  0.0253  0.1093 -0.2378
11093TIP3    H154694   3.018   5.643   6.815 -0.2072  0.0692 -1.2123
11093TIP3    H254695   2.874   5.666   6.854  0.1607  0.1013  0.1788
11094TIP3   OH254696   1.642   1.164   4.093  0.2817  0.9313 -1.0061
11094TIP3    H154697   1.619   1.076   4.122 -2.0558  1.4060 -1.2667
11094TIP3    H254698   1.650   1.215   4.174  2.3210  0.3889 -0.8102
11095TIP3   OH254699   4.209   6.449  16.344  0.3321  0.5190 -0.2629
11095TIP3    H154700   4.274   6.517  16.360  0.5192  0.4134 -0.5692
11095TIP3    H254701   4.135   6.496  16.304  0.1797  0.6524  0.1712
11096TIP3   OH254702   2.523   5.574   2.636 -1.2091 -0.0034 -0.1575
11096TIP3    H154703   2.556   5.536   2.718  0.4632  0.2299 -0.6701
11096TIP3    H254704   2.568   5.525   2.568 -3.9006 -1.3924 -1.0546
11097TIP3   OH254705   6.508   6.069  16.873  0.0636  0.1704 -0.0796
11097TIP3    H154706   6.584   6.014  16.893 -0.5215 -0.1937  1.2558
11097TIP3    H254707   6.519   6.093  16.781  0.9907 -1.1408 -0.3338
11098TIP3   OH254708   3.734   5.031   3.531 -0.2681 -0.4122  0.3564
11098TIP3    H154709   3.664   5.096   3.527  1.6465  2.2050  3.8353
11098TIP3    H254710   3.691   4.950   3.557 -2.2453  0.5542  0.2389
11099TIP3   OH254711   2.715   5.196  16.472  0.1289  0.0736  0.0297
11099TIP3    H154712   2.669   5.215  16.554 -0.6951 -1.2960 -0.1005
11099TIP3    H254713   2.807   5.190  16.497 -0.0963 -0.1592  0.8220
11100TIP3   OH254714   3.558   1.134   0.971  0.3642  0.0316 -0.2050
11100TIP3    H154715   3.648   1.107   0.987  0.3885  0.4317  0.3889
11100TIP3    H254716   3.549   1.136   0.876  0.5237 -1.4779 -0.2764
11101TIP3   OH254717   0.099   5.476   3.294  0.5051 -0.1486  0.2771
11101TIP3    H154718   0.150   5.483   3.213 -0.1557  0.1600 -0.1139
11101TIP3    H254719   0.117   5.387   3.325 -2.7168 -2.0272 -2.5834
11102TIP3   OH254720   5.947   4.341  12.916  0.0852  0.0611  0.0522
11102TIP3    H154721   5.925   4.369  13.005 -0.8550  0.2502 -0.2263
11102TIP3    H254722   5.967   4.248  12.924  0.9413  0.2851  0.6130
11103TIP3   OH254723   4.308   1.134   5.413 -0.4514 -0.2223 -1.0795
11103TIP3    H154724   4.317   1.110   5.505  0.1817 -1.6028 -1.4766
11103TIP3    H254725   4.216   1.160   5.404 -0.5594 -0.2383 -0.1019
11104TIP3   OH254726   2.242   3.469  16.652  0.4053  0.2292  0.0747
11104TIP3    H154727   2.172   3.436  16.596 -0.9082  0.0817  1.7311
11104TIP3    H254728   2.213   3.558  16.676 -0.8002 -0.8532  3.1392
11105TIP3   OH254729   6.548   0.913   3.447 -0.1865 -0.4441  0.6690
11105TIP3    H154730   6.643   0.906   3.445 -0.0101  0.7724  2.5868
11105TIP3    H254731   6.529   1.000   3.411 -0.5085 -0.3697  1.0034
11106TIP3   OH254732   1.994   5.068   4.111 -0.3026  0.6338 -0.1147
11106TIP3    H154733   1.972   5.159   4.131 -1.6363  0.3649 -0.2548
11106TIP3    H254734   2.089   5.062   4.124 -0.5584  1.3586  2.6183
11107TIP3   OH254735   5.630   1.665   5.880  0.2082 -0.1536 -0.1583
11107TIP3    H154736   5.559   1.638   5.938  1.9967  1.2918  2.9563
11107TIP3    H254737   5.651   1.755   5.907  1.9821  0.1621 -2.2726
11108TIP3   OH254738   2.865   5.364   3.700 -0.4790  0.4801 -0.3204
11108TIP3    H154739   2.799   5.418   3.658 -0.5635  2.1131  1.7459
11108TIP3    H254740   2.946   5.383   3.652 -1.4495 -2.0149 -3.2877
11109TIP3   OH254741   2.812   1.642   4.056  0.0252  0.1104 -0.3239
11109TIP3    H154742   2.901   1.662   4.025  1.3052 -0.6793  2.4968
11109TIP3    H254743   2.824   1.568   4.115 -2.4722  0.2938  0.5000
11110TIP3   OH254744   3.867   1.149  16.199  1.0755  0.2606  0.0362
11110TIP3    H154745   3.919   1.217  16.157 -0.7193  0.8384 -1.3889
11110TIP3    H254746   3.785   1.192  16.223  0.5212 -1.0194  0.5742
11111TIP3   OH254747   2.395   6.168  15.834  0.2017 -0.2981 -0.0617
11111TIP3    H154748   2.365   6.116  15.909 -1.4100  0.2822 -0.2695
11111TIP3    H254749   2.491   6.165  15.840  0.1208 -1.3121  1.2830
11112TIP3   OH254750   6.414   1.870   4.807  0.0286  0.3449 -0.1734
11112TIP3    H154751   6.384   1.950   4.850 -1.7150 -1.6757  2.6468
11112TIP3    H254752   6.473   1.829   4.870  1.9206 -0.0665 -2.0951
11113TIP3   OH254753   4.235   3.451  12.725 -0.2242 -0.4462  0.0407
11113TIP3    H154754   4.252   3.542  12.700 -0.6287 -0.8220 -1.7491
11113TIP3    H254755   4.144   3.437  12.699 -0.5407 -1.0262  1.4120
11114TIP3   OH254756   4.748   5.802   4.624 -0.8091 -0.3673  0.2950
11114TIP3    H154757   4.795   5.719   4.630  0.0651 -0.0027 -0.9902
11114TIP3    H254758   4.684   5.799   4.696 -1.0810 -2.3029  0.0259
11115TIP3   OH254759   2.421   2.290   0.977 -0.0416 -0.3036 -0.7864
11115TIP3    H154760   2.418   2.194   0.980  2.8245 -0.4694  0.7622
11115TIP3    H254761   2.450   2.316   1.064 -1.0561  2.0412 -1.0722
11116TIP3   OH254762   5.145   0.476   5.530 -0.2297 -0.0666  0.2125
11116TIP3    H154763   5.214   0.537   5.503  1.3927 -2.4143 -1.4212
11116TIP3    H254764   5.164   0.457   5.622 -0.6884  1.7143  0.7082
11117TIP3   OH254765   4.953   5.666   0.496 -0.2688  0.7916 -0.1710
11117TIP3    H154766   4.875   5.709   0.462 -0.0550  0.3268 -1.3015
11117TIP3    H254767   5.019   5.679   0.428  0.3767  0.4097  0.3727
11118TIP3   OH254768   2.880   3.321   4.526 -0.3887  0.0676  0.0880
11118TIP3    H154769   2.791   3.355   4.516 -0.5663  0.0473  1.3873
11118TIP3    H254770   2.868   3.233   4.564  0.1667 -0.1949 -0.3280
11119TIP3   OH254771   1.529   2.143  12.000 -0.1349  0.5013  0.1866
11119TIP3    H154772   1.473   2.167  12.073 -0.0098  0.6346  0.2396
11119TIP3    H254773   1.596   2.087  12.039 -0.2155  0.3630  0.1276
11120TIP3   OH254774   4.971   3.348  13.221 -0.1219  0.0640 -0.6341
11120TIP3    H154775   4.880   3.353  13.193  0.0501 -0.8825 -1.4208
11120TIP3    H254776   5.008   3.434  13.199 -0.9215  0.6332  0.1476
11121TIP3   OH254777   0.916   4.708   0.356  0.0078  0.2821  0.1564
11121TIP3    H154778   0.905   4.665   0.440 -1.9350 -0.1729 -0.2865
11121TIP3    H254779   0.923   4.801   0.377 -0.1214  0.1372  0.8493
11122TIP3   OH254780   1.419   3.264   1.537  0.1716 -0.9265 -0.3298
11122TIP3    H154781   1.402   3.355   1.512  2.7276 -0.4850 -0.7581
11122TIP3    H254782   1.515   3.257   1.540  0.0943 -3.7984 -1.0229
11123TIP3   OH254783   5.193   4.439   6.281  0.8990 -0.3385  0.6263
11123TIP3    H154784   5.153   4.378   6.219 -0.3496 -1.1527  2.1606
11123TIP3    H254785   5.284   4.410   6.288  0.7151 -1.0508  0.1718
11124TIP3   OH254786   6.735   3.132  11.628 -0.1630  0.1942  0.8911
11124TIP3    H154787   6.763   3.185  11.553  1.3775 -1.2051  0.4279
11124TIP3    H254788   6.791   3.160  11.699 -0.9207  0.7808  1.2764
11125TIP3   OH254789   2.359   0.809  14.082 -0.1254  0.3861  0.1897
11125TIP3    H154790   2.315   0.724  14.082 -1.3933  0.9722  2.1773
11125TIP3    H254791   2.361   0.835  14.174  2.1342  1.5939 -0.1180
11126TIP3   OH254792   0.336   6.030  13.692  0.3784 -0.0376 -0.0354
11126TIP3    H154793   0.344   6.107  13.637 -0.8102  0.4896  0.4943
11126TIP3    H254794   0.424   5.992  13.693  0.2737 -0.6169 -3.0561
11127TIP3   OH254795   0.500   6.035  13.239 -0.3312  0.2267  0.4804
11127TIP3    H154796   0.490   5.948  13.201 -0.3782  0.9114 -1.1947
11127TIP3    H254797   0.415   6.053  13.281 -0.3534 -0.4827  0.7515
11128TIP3   OH254798   3.875   6.174   0.594 -0.2017 -0.2477 -0.2698
11128TIP3    H154799   3.939   6.243   0.579  0.7734 -0.8495  0.8900
11128TIP3    H254800   3.913   6.096   0.553 -0.2049 -0.5959  0.3729
11129TIP3   OH254801   3.666   2.412  11.666  0.4817  0.2573  0.0628
11129TIP3    H154802   3.754   2.386  11.637 -0.0694 -1.4449 -0.2185
11129TIP3    H254803   3.612   2.407  11.587  0.0986  1.1939  0.2538
11130TIP3   OH254804   5.892   0.515   5.147  0.2434  0.1285  0.5494
11130TIP3    H154805   5.833   0.537   5.074  0.1849  1.9639  1.1035
11130TIP3    H254806   5.978   0.545   5.118  1.1341 -2.9798 -0.4640
11131TIP3   OH254807   0.535   3.083   2.626  0.2122  0.2257 -0.4786
11131TIP3    H154808   0.476   3.038   2.565  0.3310 -0.7442  0.0990
11131TIP3    H254809   0.572   3.154   2.575  0.4909 -0.7053 -1.6295
11132TIP3   OH254810   6.226   0.084  12.968 -0.5010  0.0390 -0.6899
11132TIP3    H154811   6.238   0.003  13.016 -1.1598  1.2083  1.6174
11132TIP3    H254812   6.141   0.074  12.925 -0.9383 -0.2250  0.2139
11133TIP3   OH254813   3.114   1.814   1.801 -0.1319 -0.1169 -0.5221
11133TIP3    H154814   3.094   1.908   1.798 -0.7019 -0.2117  0.0401
11133TIP3    H254815   3.037   1.772   1.762 -0.1575 -0.3769 -0.2004
11134TIP3   OH254816   4.746   4.738  14.558 -0.5597 -0.2766 -0.2138
11134TIP3    H154817   4.792   4.657  14.580 -1.2606 -0.8049 -0.6230
11134TIP3    H254818   4.718   4.774  14.643  2.7989  1.4809  0.3292
11135TIP3   OH254819   3.022   2.891   4.193  0.0538 -0.0198  0.3337
11135TIP3    H154820   3.046   2.941   4.272 -0.7152  0.7834  0.0772
11135TIP3    H254821   3.003   2.958   4.128 -3.3466 -0.5256  0.6505
11136TIP3   OH254822   4.194   0.862   0.093  0.2371  0.4305  0.2031
11136TIP3    H154823   4.232   0.908   0.018 -0.7718  0.3770 -0.3593
11136TIP3    H254824   4.264   0.806   0.126 -0.0948 -1.7448 -2.4760
11137TIP3   OH254825   4.762   3.800   2.927  0.0650 -0.0606  0.4491
11137TIP3    H154826   4.746   3.808   2.833 -0.5970 -2.0447  0.3481
11137TIP3    H254827   4.677   3.817   2.967  0.1508 -0.0548  0.6283
11138TIP3   OH254828   4.986   4.882   5.730  0.7776 -0.7149 -0.4810
11138TIP3    H154829   4.988   4.788   5.752 -0.8568 -0.7830 -0.4680
11138TIP3    H254830   4.895   4.907   5.744  1.4998  1.2930  1.1084
11139TIP3   OH254831   1.897   1.691  14.302  0.2889  0.0228 -0.3481
11139TIP3    H154832   1.941   1.760  14.252 -0.8125  1.0836  0.0994
11139TIP3    H254833   1.876   1.625  14.237  0.5931  0.5004 -0.9484
11140TIP3   OH254834   4.581   1.573   5.679  0.5496 -0.2374  0.5389
11140TIP3    H154835   4.592   1.652   5.627  1.1290 -0.8398 -0.2763
11140TIP3    H254836   4.577   1.604   5.769 -1.2317  0.9077  0.1298
11141TIP3   OH254837   1.275   5.605   0.266 -0.5613 -0.3362  0.1576
11141TIP3    H154838   1.184   5.610   0.236  0.4871 -1.5178 -3.8261
11141TIP3    H254839   1.322   5.668   0.212  0.9994  0.7263  2.5942
11142TIP3   OH254840   4.940   5.612  14.915 -0.0268 -0.6578  0.0093
11142TIP3    H154841   4.967   5.523  14.937 -0.9228 -0.6208  1.3877
11142TIP3    H254842   4.845   5.606  14.903 -0.3215  0.3407  1.5511
11143TIP3   OH254843   0.564   1.992  16.180 -0.3402 -0.2918  0.3133
11143TIP3    H154844   0.550   1.988  16.274  0.5009 -0.1457  0.4575
11143TIP3    H254845   0.491   2.043  16.147  0.1342  0.9465  1.0885
11144TIP3   OH254846   5.113   1.159  11.461  0.3506  0.2837 -0.0359
11144TIP3    H154847   5.123   1.163  11.366 -0.3330 -0.3098 -0.1428
11144TIP3    H254848   5.084   1.070  11.478 -1.3604  0.8967  0.5323
11145TIP3   OH254849   0.564   3.940   0.472  0.0458  0.0045 -0.2191
11145TIP3    H154850   0.592   3.920   0.561  1.7236 -0.4679 -0.8273
11145TIP3    H254851   0.473   3.909   0.468  0.2551 -0.8254  1.0444
11146TIP3   OH254852   1.125   3.731   0.160 -0.2316 -0.2469  0.4883
11146TIP3    H154853   1.118   3.737   0.255  0.6455  0.2569  0.5252
11146TIP3    H254854   1.204   3.779   0.138  0.8166 -2.2309 -0.2958
11147TIP3   OH254855   0.725   4.486   3.832 -0.1197 -0.1843  0.6505
11147TIP3    H154856   0.809   4.532   3.838 -0.0274 -0.3389  0.5613
11147TIP3    H254857   0.662   4.547   3.868 -0.5466  1.3987 -2.4289
11148TIP3   OH254858   4.655   2.293  15.181  0.2542  0.0930  0.0401
11148TIP3    H154859   4.667   2.305  15.275 -1.9321 -2.0376  0.6888
11148TIP3    H254860   4.622   2.378  15.150 -0.5456  0.3620  1.5164
11149TIP3   OH254861   0.627   5.227   3.727 -0.3170  0.3088  0.7266
11149TIP3    H154862   0.597   5.224   3.636 -0.5917 -1.1409  0.8421
11149TIP3    H254863   0.559   5.276   3.773 -0.9679 -0.2725  0.4139
11150TIP3   OH254864   1.558   3.282   0.251  0.4375  0.3128  0.2143
11150TIP3    H154865   1.579   3.291   0.344  0.2848 -0.8457  0.3708
11150TIP3    H254866   1.545   3.188   0.238 -0.2873  0.5435 -0.8221
11151TIP3   OH254867   5.921   0.941  11.110 -0.4024 -0.3651  0.7741
11151TIP3    H154868   5.907   1.034  11.092 -0.3685 -0.3349  0.9043
11151TIP3    H254869   5.936   0.902  11.023 -1.5779 -0.4502  0.5937
11152TIP3   OH254870   0.983   4.329  11.869 -0.0318 -0.0660  0.3553
11152TIP3    H154871   0.925   4.402  11.890 -0.1162 -0.2772  0.8701
11152TIP3    H254872   0.942   4.287  11.794  0.3432  0.7755 -0.3353
11153TIP3   OH254873   0.941   1.870   1.695 -0.3159  0.0401 -0.1955
11153TIP3    H154874   0.856   1.827   1.706 -0.6050  0.9693  1.7610
11153TIP3    H254875   0.968   1.849   1.606 -2.6019 -0.2652 -0.8692
11154TIP3   OH254876   6.643   1.683  15.369  0.1174 -0.4691  0.4808
11154TIP3    H154877   6.677   1.678  15.279  1.0157 -1.9747  0.8724
11154TIP3    H254878   6.646   1.593  15.401 -2.7126 -0.4393  1.1426
11155TIP3   OH254879   3.749   0.527   2.451  0.5532  0.8298 -0.5921
11155TIP3    H154880   3.719   0.615   2.429  0.1360  0.6890 -0.6010
11155TIP3    H254881   3.751   0.526   2.547 -1.1145  0.3191 -0.5279
11156TIP3   OH254882   4.511   1.060  15.659 -0.1443 -0.3718 -0.2607
11156TIP3    H154883   4.535   1.137  15.608  2.2137 -0.3865  0.6648
11156TIP3    H254884   4.502   1.092  15.749 -3.5945 -0.4613 -0.4373
11157TIP3   OH254885   3.893   4.167   0.303  0.4965  0.2954  0.0387
11157TIP3    H154886   3.931   4.190   0.219  1.0109  2.0101  0.6917
11157TIP3    H254887   3.960   4.190   0.367 -0.0711 -0.5158  0.9575
11158TIP3   OH254888   6.750   2.880   5.296  0.0941  0.1607 -0.1712
11158TIP3    H154889   6.680   2.815   5.295 -1.3476  1.6022  1.4220
11158TIP3    H254890   6.746   2.921   5.210  1.5539 -2.2970 -1.5140
11159TIP3   OH254891   4.092   1.884  15.454  0.2491 -0.0118 -0.3537
11159TIP3    H154892   4.040   1.804  15.460 -1.2041  0.9635  0.8687
11159TIP3    H254893   4.176   1.861  15.493 -0.2274 -0.8859  0.1931
11160TIP3   OH254894   5.475   0.750  14.601 -0.1743  0.0076  0.1212
11160TIP3    H154895   5.521   0.699  14.667  1.0536 -1.0573 -1.4628
11160TIP3    H254896   5.414   0.687  14.561  0.8899 -0.1089 -1.4171
11161TIP3   OH254897   2.047   1.054  16.332  0.1223  0.2018  0.6671
11161TIP3    H154898   2.028   0.965  16.302 -0.8992  1.1109 -1.5787
11161TIP3    H254899   1.972   1.106  16.303  0.8041  1.8594  1.7328
11162TIP3   OH254900   2.460   2.040   1.077  0.1306  0.2682 -0.1663
11162TIP3    H154901   2.547   2.003   1.089 -0.1298 -0.1696  0.4196
11162TIP3    H254902   2.446   2.096   1.154 -0.4657 -0.3922  0.2192
11163TIP3   OH254903   5.711   6.468  16.566 -0.0703  0.1456 -0.0101
11163TIP3    H154904   5.637   6.407  16.567  1.4410 -1.7872  0.8261
11163TIP3    H254905   5.764   6.441  16.491 -0.5046  1.9679 -1.0399
11164TIP3   OH254906   3.149   3.970  14.184 -0.2440  0.2300 -0.3378
11164TIP3    H154907   3.220   3.905  14.187  0.7923  1.2951 -0.9262
11164TIP3    H254908   3.188   4.050  14.218 -1.0430  0.9437 -1.0435
11165TIP3   OH254909   2.863   6.174  10.739  0.1945 -0.2595  0.3561
11165TIP3    H154910   2.817   6.091  10.746  0.2257 -0.3468 -0.4140
11165TIP3    H254911   2.937   6.166  10.799  0.1290 -0.7438  0.3715
11166TIP3   OH254912   3.590   2.766   4.349  0.5222 -0.0995 -0.3170
11166TIP3    H154913   3.511   2.818   4.360  1.1046  0.6619  0.3493
11166TIP3    H254914   3.651   2.800   4.414  1.5979 -0.2900 -1.1845
11167TIP3   OH254915   4.582   3.600   1.845  0.0682  0.3447  0.5702
11167TIP3    H154916   4.677   3.600   1.848  0.1979 -1.8219 -0.7547
11167TIP3    H254917   4.554   3.586   1.935  0.9912  1.0250  0.9722
11168TIP3   OH254918   4.191   2.982  16.771  0.0107  0.2575 -0.4507
11168TIP3    H154919   4.245   2.908  16.799 -1.2370 -1.6850 -2.7880
11168TIP3    H254920   4.106   2.968  16.814  0.3224  1.4777  0.6266
11169TIP3   OH254921   2.799   5.245   5.820  0.0342  0.0365 -0.3251
11169TIP3    H154922   2.711   5.216   5.796  0.6964 -1.3671 -1.1622
11169TIP3    H254923   2.833   5.287   5.740  0.0843  0.7037  0.0384
11170TIP3   OH254924   0.351   0.524   0.804 -0.3869 -0.1002  0.4743
11170TIP3    H154925   0.375   0.507   0.712 -1.4389  0.3676  0.1019
11170TIP3    H254926   0.368   0.441   0.848  0.6000 -0.1909 -0.0363
11171TIP3   OH254927   6.091   3.353   5.277 -0.0038 -0.0551  0.2526
11171TIP3    H154928   6.065   3.327   5.188  1.4137  0.0313 -0.2059
11171TIP3    H254929   6.187   3.351   5.276  0.0677  1.2568  1.3802
11172TIP3   OH254930   4.509   5.151  14.274 -0.4288  0.3193  0.7569
11172TIP3    H154931   4.572   5.079  14.265 -0.4594  0.5109 -1.8174
11172TIP3    H254932   4.562   5.230  14.264 -0.8782  0.5230 -0.0664
11173TIP3   OH254933   1.302   2.241   4.205  0.1864  0.4829  0.1176
11173TIP3    H154934   1.207   2.251   4.200  0.4224  3.0561 -0.1683
11173TIP3    H254935   1.335   2.329   4.220  2.6030 -0.2284 -0.5989
11174TIP3   OH254936   0.161   1.760   2.250  0.5757  0.6113  0.2696
11174TIP3    H154937   0.115   1.676   2.239  1.1180  0.2296  0.8313
11174TIP3    H254938   0.091   1.825   2.255  0.0655  0.0142  1.3660
11175TIP3   OH254939   1.176   5.309  10.615 -0.5689  0.2833  0.5805
11175TIP3    H154940   1.248   5.353  10.660 -1.3601  2.2007  0.0571
11175TIP3    H254941   1.140   5.376  10.556 -0.4124 -1.7145 -1.9533
11176TIP3   OH254942   2.097   3.202   1.654 -0.0448  0.5588 -0.1753
11176TIP3    H154943   2.069   3.112   1.669  0.0977  0.3080 -1.2840
11176TIP3    H254944   2.185   3.207   1.690 -0.9744  1.0047  2.2212
11177TIP3   OH254945   2.281   2.911   6.043  0.4240  0.0320 -0.5943
11177TIP3    H154946   2.274   3.007   6.036 -2.6736 -0.1149 -0.5764
11177TIP3    H254947   2.298   2.882   5.954 -0.1252  0.5289 -0.8728
11178TIP3   OH254948   6.473   0.940   4.090  1.0446 -0.5990 -0.0663
11178TIP3    H154949   6.520   0.858   4.076  0.1527 -1.1978  0.3509
11178TIP3    H254950   6.502   0.970   4.176  2.4430  0.2841 -0.8074
11179TIP3   OH254951   6.545   3.229  11.834 -0.1525  0.1857  0.3947
11179TIP3    H154952   6.507   3.143  11.847  1.3431 -0.8488 -1.4973
11179TIP3    H254953   6.640   3.214  11.832  0.0943  1.4948 -1.8951
11180TIP3   OH254954   1.498   2.240  10.895  0.5527  0.2729 -0.1306
11180TIP3    H154955   1.445   2.190  10.832  1.6582  1.0387 -1.7384
11180TIP3    H254956   1.441   2.313  10.921 -1.2090 -1.8670  2.5053
11181TIP3   OH254957   0.119   0.804   2.898 -0.0621  0.2385  0.4150
11181TIP3    H154958   0.035   0.828   2.936  0.9431  1.4142  2.0354
11181TIP3    H254959   0.119   0.708   2.898 -0.5269  0.1890  2.5638
11182TIP3   OH254960   6.719   2.367  11.848  0.1264 -0.5474 -0.4948
11182TIP3    H154961   6.716   2.404  11.936 -1.9480 -2.6795  0.4379
11182TIP3    H254962   6.629   2.340  11.830  0.6593 -0.9365 -2.9473
11183TIP3   OH254963   2.543   1.649   1.749 -0.0620  0.2179  0.0857
11183TIP3    H154964   2.631   1.686   1.755  0.5273 -1.2935  2.8564
11183TIP3    H254965   2.518   1.659   1.657  2.4233  1.9300 -0.4940
11184TIP3   OH254966   1.318   5.638  13.091 -0.5162 -0.3329  0.4587
11184TIP3    H154967   1.311   5.585  13.012  1.1596  0.0621 -0.0038
11184TIP3    H254968   1.388   5.596  13.142 -0.6709  0.1727  1.1029
11185TIP3   OH254969   1.910   5.568   3.337 -0.1695  0.5146  0.1382
11185TIP3    H154970   1.859   5.571   3.419 -0.9825 -0.4832 -0.3147
11185TIP3    H254971   1.988   5.517   3.359 -0.4670  0.1034  0.2618
11186TIP3   OH254972   2.944   1.895   2.359  0.9198 -0.3142  0.0660
11186TIP3    H154973   2.967   1.966   2.420 -3.1892  1.0118  0.3823
11186TIP3    H254974   2.960   1.932   2.272  0.7059  0.2929  0.2776
11187TIP3   OH254975   5.748   4.553  12.539 -0.3822  0.0805  0.4640
11187TIP3    H154976   5.680   4.532  12.603 -1.7275  0.8290 -0.6450
11187TIP3    H254977   5.725   4.640  12.508  1.9784  1.0105  1.1103
11188TIP3   OH254978   0.599   0.384   4.017 -0.1991  0.0812 -0.5108
11188TIP3    H154979   0.536   0.333   3.966  0.3053 -0.0645 -0.9878
11188TIP3    H254980   0.685   0.352   3.990  0.1276  1.1482 -0.7853
11189TIP3   OH254981   2.565   5.700  16.903 -0.4547  0.1219  0.3162
11189TIP3    H154982   2.591   5.626  16.848 -0.6178  0.4279 -0.1821
11189TIP3    H254983   2.505   5.663  16.967 -2.0383  0.1169 -1.0835
11190TIP3   OH254984   6.478   5.763  16.181  0.0734  0.2468 -0.3009
11190TIP3    H154985   6.530   5.794  16.255  0.3103 -3.4664  1.2940
11190TIP3    H254986   6.461   5.841  16.129  0.6479  2.9143  3.1822
11191TIP3   OH254987   2.308   1.108   3.292 -0.2059  0.4248  0.6047
11191TIP3    H154988   2.285   1.035   3.350 -1.3355  0.4723  0.2414
11191TIP3    H254989   2.227   1.127   3.244  1.1260 -0.9051 -2.4429
11192TIP3   OH254990   4.392   5.193   5.260  0.0823 -0.3982  0.0330
11192TIP3    H154991   4.393   5.126   5.191  0.6144  0.5960 -0.9553
11192TIP3    H254992   4.311   5.176   5.308 -0.8388 -0.4991 -1.4785
11193TIP3   OH254993   5.630   1.100   2.759  0.5647 -0.6670  0.1432
11193TIP3    H154994   5.602   1.085   2.668  0.8065 -2.0723  0.2727
11193TIP3    H254995   5.548   1.106   2.808  0.4326 -1.8895  0.1023
11194TIP3   OH254996   6.778   1.581   0.448  0.0438  0.0610 -0.1011
11194TIP3    H154997   6.756   1.646   0.515 -1.1469 -1.9963  1.5867
11194TIP3    H254998   6.856   1.537   0.482 -0.7486 -1.2036  0.0950
11195TIP3   OH254999   2.250   2.424   5.508  0.0947  0.4664 -0.4542
11195TIP3    H155000   2.171   2.478   5.506 -0.7321 -0.2464  3.4678
11195TIP3    H255001   2.320   2.485   5.531 -0.2372  0.4622  0.6576
11196TIP3   OH255002   4.190   4.333  11.539 -0.4631  0.8417  0.2347
11196TIP3    H155003   4.158   4.404  11.594 -1.8642  0.3396  0.1051
11196TIP3    H255004   4.222   4.377  11.460 -0.7796  1.3754  0.3945
11197TIP3   OH255005   6.232   1.692  11.466  0.1489  0.3757 -0.0692
11197TIP3    H155006   6.305   1.750  11.445 -0.1100  0.8094  0.2075
11197TIP3    H255007   6.175   1.745  11.522  1.0800 -0.9131  2.2581
11198TIP3   OH255008   4.901   1.541  15.756  0.0800  0.1364  0.7039
11198TIP3    H155009   4.929   1.468  15.700  1.7569  1.3644 -0.1446
11198TIP3    H255010   4.883   1.613  15.695  2.4939  1.6914  1.6874
11199TIP3   OH255011   3.307   3.770   4.089  0.2101 -0.5607  0.0036
11199TIP3    H155012   3.333   3.792   4.000 -0.0934  0.9027  0.2449
11199TIP3    H255013   3.386   3.787   4.142  0.6054 -2.0862 -0.0469
11200TIP3   OH255014   0.193   0.152   5.592  0.1621  0.2538 -0.2090
11200TIP3    H155015   0.210   0.177   5.502 -2.8173 -0.4737 -1.0927
11200TIP3    H255016   0.098   0.142   5.596  0.3740 -1.6473  2.5169
11201TIP3   OH255017   3.801   1.952  12.487  0.2969  0.2457  0.3867
11201TIP3    H155018   3.851   2.026  12.453  0.4698  0.1457  0.4212
11201TIP3    H255019   3.781   1.899  12.410  0.7780 -0.0346  0.4503
11202TIP3   OH255020   6.311   5.654   0.554 -0.4914 -0.0195  0.3537
11202TIP3    H155021   6.336   5.609   0.635  1.1242 -0.4740 -0.3636
11202TIP3    H255022   6.376   5.723   0.544 -0.8395  0.2021 -0.4242
11203TIP3   OH255023   6.695   2.892   0.175  0.6619  0.0377 -0.5942
11203TIP3    H155024   6.653   2.808   0.191  0.1359  0.3899 -0.0618
11203TIP3    H255025   6.687   2.905   0.080  2.3531 -1.3191 -0.9630
11204TIP3   OH255026   6.564   0.855   2.386  0.6431 -0.2201  0.6943
11204TIP3    H155027   6.499   0.838   2.318  2.0165  1.1802 -1.0754
11204TIP3    H255028   6.611   0.772   2.395 -0.2581 -0.7387  0.7517
11205TIP3   OH255029   3.215   1.997  15.104  0.1074 -0.0390 -0.3451
11205TIP3    H155030   3.129   1.996  15.145  0.3642 -1.2138  0.2185
11205TIP3    H255031   3.204   2.052  15.027 -1.2291 -0.4050 -0.4452
11206TIP3   OH255032   4.915   2.975  10.750 -0.7704  0.2111 -0.3599
11206TIP3    H155033   4.941   2.994  10.660  1.0636 -2.2683 -0.4491
11206TIP3    H255034   4.853   2.903  10.743  1.5366 -2.0032  0.3586
11207TIP3   OH255035   1.011   0.640  11.994 -0.6603  0.4854 -0.2056
11207TIP3    H155036   1.006   0.713  12.055  3.2757  1.5783 -0.8768
11207TIP3    H255037   1.092   0.594  12.018 -1.5157 -1.9887 -1.6121
11208TIP3   OH255038   4.543   4.075  10.793 -0.1634  0.3801 -0.5243
11208TIP3    H155039   4.585   4.161  10.786 -0.5003  0.4972 -1.1234
11208TIP3    H255040   4.459   4.085  10.748 -0.4259 -0.1235 -0.1646
11209TIP3   OH255041   3.994   1.832  11.214 -0.2041  0.8793 -0.0356
11209TIP3    H155042   3.988   1.928  11.211 -2.4190  0.7506 -1.3948
11209TIP3    H255043   3.905   1.803  11.231  0.6098 -0.9669  1.3913
11210TIP3   OH255044   3.869   1.580   3.048 -0.1508  0.1736  0.4312
11210TIP3    H155045   3.960   1.581   3.018 -0.7823 -0.4625 -1.6861
11210TIP3    H255046   3.843   1.672   3.046  0.0993  0.2405 -0.1837
11211TIP3   OH255047   3.827   1.482   0.607 -0.1555 -0.3688  0.3553
11211TIP3    H155048   3.841   1.571   0.576  0.4431 -0.6163 -0.1065
11211TIP3    H255049   3.869   1.480   0.693 -0.1413 -0.2121  0.3518
11212TIP3   OH255050   3.636   3.900  11.345 -0.1875 -0.6771  0.3070
11212TIP3    H155051   3.576   3.923  11.274 -0.1207 -2.4542 -0.3905
11212TIP3    H255052   3.588   3.835  11.397 -0.1873  0.5070  1.8647
11213TIP3   OH255053   2.115   1.372  13.529  0.5266  0.3493 -0.1629
11213TIP3    H155054   2.206   1.393  13.547  1.0869  2.1101 -4.0455
11213TIP3    H255055   2.117   1.282  13.498  1.0800  0.6167 -0.9206
11214TIP3   OH255056   1.672   1.226  15.537  0.1095  0.6424  0.4955
11214TIP3    H155057   1.609   1.260  15.600  0.5300  1.8027  0.3149
11214TIP3    H255058   1.755   1.270  15.559  1.3389 -2.1186  1.8392
11215TIP3   OH255059   6.286   1.335  13.525 -0.1999  0.0893  0.0842
11215TIP3    H155060   6.211   1.373  13.572  1.1153  1.4785  1.1719
11215TIP3    H255061   6.307   1.399  13.457  1.0453  0.6016  0.9074
11216TIP3   OH255062   4.384   5.955   5.497  0.2719  0.2769 -0.0907
11216TIP3    H155063   4.393   5.868   5.536 -0.2749 -0.1065 -0.7859
11216TIP3    H255064   4.290   5.965   5.482  0.2572  1.2812  0.6047
11217TIP3   OH255065   1.069   6.053  16.753  0.2015  0.0956  0.1300
11217TIP3    H155066   1.015   6.018  16.682  0.7470  2.3884 -1.5081
11217TIP3    H255067   1.159   6.028  16.730  0.4270  1.2233 -0.2400
11218TIP3   OH255068   1.732   3.558  11.799 -0.1042 -0.1927  0.0582
11218TIP3    H155069   1.719   3.467  11.773 -2.1124 -0.3430  1.3448
11218TIP3    H255070   1.811   3.557  11.853 -0.2954 -1.2349  0.3288
11219TIP3   OH255071   1.989   6.191   4.812 -0.1725 -0.3275 -0.2783
11219TIP3    H155072   1.903   6.195   4.771  0.5808  0.3991 -1.8771
11219TIP3    H255073   2.039   6.262   4.771  0.8876 -0.0649  1.3637
11220TIP3   OH255074   1.204   1.120  16.850  0.3126 -0.3596  0.3797
11220TIP3    H155075   1.291   1.121  16.811  0.2527 -3.1172 -0.0170
11220TIP3    H255076   1.146   1.095  16.778 -0.5573 -0.2768  1.0417
11221TIP3   OH255077   1.731   5.782  16.153 -0.3673 -0.3086  0.4374
11221TIP3    H155078   1.674   5.705  16.157 -1.2132  0.3270  0.7157
11221TIP3    H255079   1.740   5.799  16.059 -0.3486 -0.6132  0.3809
11222TIP3   OH255080   1.711   1.079   1.911  0.0813  0.3910  0.3978
11222TIP3    H155081   1.778   1.010   1.912 -0.3348 -0.2224 -2.9625
11222TIP3    H255082   1.632   1.037   1.944  0.7682  0.5005  2.2909
11223TIP3   OH255083   2.457   0.075   0.870  1.0713 -0.2472  0.4007
11223TIP3    H155084   2.495   0.006   0.925  1.0282  0.2969  1.1252
11223TIP3    H255085   2.378   0.036   0.834 -1.3824  0.6757  4.1666
11224TIP3   OH255086   5.319   1.273   1.910 -0.1396 -0.2364  0.7355
11224TIP3    H155087   5.330   1.224   1.991  0.4633 -2.9934 -0.8764
11224TIP3    H255088   5.296   1.207   1.845  3.1922  1.1541 -2.1850
11225TIP3   OH255089   3.774   0.540  12.653  0.4239  0.0587  0.7603
11225TIP3    H155090   3.773   0.618  12.598  4.1902  0.1430  0.5735
11225TIP3    H255091   3.794   0.572  12.741  0.1412 -0.5463  1.0564
11226TIP3   OH255092   6.704   0.658  15.481  0.0445  0.0863  0.1664
11226TIP3    H155093   6.745   0.573  15.468 -0.6324 -0.2606  0.2819
11226TIP3    H255094   6.774   0.721  15.466 -0.3903 -0.2287 -4.4959
11227TIP3   OH255095   1.409   2.358   6.135 -0.2143  0.6686  0.4269
11227TIP3    H155096   1.497   2.321   6.142 -0.7484 -0.4485  1.6068
11227TIP3    H255097   1.420   2.451   6.156  0.6503  0.4940  0.8039
11228TIP3   OH255098   1.516   2.807  14.332  0.0870  0.0501  0.5086
11228TIP3    H155099   1.605   2.839  14.348 -0.3115 -0.1086  3.7428
11228TIP3    H255100   1.503   2.738  14.398 -1.6220 -1.6770 -1.4871
11229TIP3   OH255101   1.913   2.348   1.585  0.5015  0.3821 -0.3450
11229TIP3    H155102   1.976   2.418   1.564  0.0605  1.1250  0.7190
11229TIP3    H255103   1.832   2.395   1.606 -0.5714 -0.5743 -2.1228
11230TIP3   OH255104   2.504   0.609  16.107 -0.2398  0.1124  0.2735
11230TIP3    H155105   2.499   0.637  16.199 -0.8052  1.0872 -0.0458
11230TIP3    H255106   2.518   0.514  16.113 -1.5496 -0.0547  1.3736
11231TIP3   OH255107   3.528   4.283  11.124 -0.2409  0.2118  0.2483
11231TIP3    H155108   3.493   4.355  11.071 -0.5981 -0.7133 -0.7873
11231TIP3    H255109   3.459   4.217  11.124  0.5836 -0.6580  0.1546
11232TIP3   OH255110   5.453   1.237   0.884 -0.0879 -0.4455  0.3188
11232TIP3    H155111   5.492   1.295   0.818 -3.8458 -0.3679 -2.1832
11232TIP3    H255112   5.376   1.285   0.914 -0.6459 -2.1970  1.8390
11233TIP3   OH255113   4.437   1.896  13.642 -0.0373  0.8032  0.3977
11233TIP3    H155114   4.409   1.987  13.650  0.1589  0.7920  1.3331
11233TIP3    H255115   4.526   1.901  13.606 -0.6503  0.8937 -1.1955
11234TIP3   OH255116   4.083   1.465  13.140 -0.1544 -0.3009 -0.3047
11234TIP3    H155117   3.993   1.455  13.109 -0.3334 -1.8924  0.6152
11234TIP3    H255118   4.076   1.468  13.235  0.6848  0.7291 -0.2591
11235TIP3   OH255119   2.795   5.061  10.471  0.6466 -0.1470 -0.5278
11235TIP3    H155120   2.724   5.060  10.535  1.1341 -4.0404  0.1599
11235TIP3    H255121   2.751   5.080  10.388 -0.5090  1.5195  0.3911
11236TIP3   OH255122   2.190   6.542   4.860 -0.4972  0.0826 -0.0776
11236TIP3    H155123   2.272   6.504   4.889 -0.0217  1.4311  0.4245
11236TIP3    H255124   2.184   6.626   4.907 -1.3468  0.7696 -1.3568
11237TIP3   OH255125   4.320   5.457   3.476 -0.1289  0.3144  0.0957
11237TIP3    H155126   4.325   5.526   3.410 -2.4763 -1.1445 -1.7911
11237TIP3    H255127   4.390   5.396   3.453  0.6957  1.0502  0.5786
11238TIP3   OH255128   4.115   6.693  15.794  0.0399 -0.1595  0.2838
11238TIP3    H155129   4.085   6.782  15.814 -0.4986  0.0420 -1.2913
11238TIP3    H255130   4.210   6.698  15.804 -0.0512  0.3554  1.0333
11239TIP3   OH255131   1.016   5.885   4.766 -0.1170  0.2515  0.1402
11239TIP3    H155132   1.089   5.887   4.703 -0.4414 -2.9107 -0.5075
11239TIP3    H255133   1.058   5.898   4.851  0.7997  1.2313 -0.4338
11240TIP3   OH255134   5.335   5.748  13.949 -0.0446  0.6031  0.3757
11240TIP3    H155135   5.241   5.737  13.961  0.0893 -0.9779  0.1437
11240TIP3    H255136   5.344   5.785  13.861 -0.4028 -0.5111 -0.1433
11241TIP3   OH255137   6.581   6.545   1.014  0.2729  0.2477  0.5250
11241TIP3    H155138   6.637   6.583   0.946 -2.5213  0.3030 -1.9123
11241TIP3    H255139   6.538   6.619   1.055  1.0179  0.1239  1.5928
11242TIP3   OH255140   4.869   6.173   3.500 -0.3136 -0.1303  0.4781
11242TIP3    H155141   4.904   6.137   3.581  0.0286 -0.6289  0.1171
11242TIP3    H255142   4.840   6.097   3.450  1.0812 -0.0042 -0.5954
11243TIP3   OH255143   0.895   1.441   1.144 -0.4559 -0.3100 -0.2214
11243TIP3    H155144   0.823   1.396   1.188  1.1460 -1.2294  1.5696
11243TIP3    H255145   0.918   1.383   1.071  0.1751 -1.3532  0.7815
11244TIP3   OH255146   5.569   0.125   1.602 -0.4571  0.3075  0.2733
11244TIP3    H155147   5.582   0.031   1.591  1.2289  0.6974 -1.8077
11244TIP3    H255148   5.501   0.147   1.538  0.4170  0.7340 -0.5357
11245TIP3   OH255149   2.963   6.659   0.015  0.9332  0.5895  0.3270
11245TIP3    H155150   3.025   6.699  -0.046  0.3414  1.3152  0.1846
11245TIP3    H255151   2.933   6.731   0.070 -0.1200  0.3457  0.1002
11246TIP3   OH255152   1.984   1.305   4.585  0.1111  0.5091  0.4480
11246TIP3    H155153   2.035   1.385   4.600 -0.9397  0.8087  2.8199
11246TIP3    H255154   1.900   1.321   4.629 -1.1813 -0.8654 -1.3874
11247TIP3   OH255155   5.132   2.248   1.572 -0.4419 -0.4525 -0.5312
11247TIP3    H155156   5.167   2.188   1.506 -0.6842 -1.7654  0.4944
11247TIP3    H255157   5.064   2.197   1.617 -2.6884  1.5133 -1.4673
11248TIP3   OH255158   5.131   1.811   4.643  0.3974 -0.2062  0.3558
11248TIP3    H155159   5.124   1.721   4.613  2.3245 -0.6961  1.2406
11248TIP3    H255160   5.094   1.811   4.731 -0.1185 -0.0008  0.1421
11249TIP3   OH255161   0.511   5.680   4.517 -0.0959  0.3223  0.1055
11249TIP3    H155162   0.547   5.661   4.603  0.8115  0.5114 -0.2164
11249TIP3    H255163   0.448   5.751   4.532 -1.6286 -1.1466  0.9274
11250TIP3   OH255164   3.990   1.683   4.360  0.0485 -0.5981 -0.4958
11250TIP3    H155165   3.913   1.715   4.312 -1.0658 -1.5006  0.6054
11250TIP3    H255166   3.954   1.618   4.420  2.0004 -2.7752 -1.5587
11251TIP3   OH255167   6.138   6.081  12.020  0.0621 -0.2270 -0.0714
11251TIP3    H155168   6.161   5.992  11.994 -1.8605 -0.4969 -1.0619
11251TIP3    H255169   6.194   6.137  11.966 -1.5713 -0.8371 -2.5541
11252TIP3   OH255170   1.993   5.053  10.700 -0.2295 -0.4824 -0.3292
11252TIP3    H155171   2.072   5.005  10.672 -0.1334 -0.2632 -0.4348
11252TIP3    H255172   1.983   5.030  10.792 -0.4145 -1.0249 -0.4825
11253TIP3   OH255173   1.918   6.046   0.773  0.0024  0.0262 -0.1410
11253TIP3    H155174   1.948   5.986   0.840  0.2026 -1.2137 -1.3123
11253TIP3    H255175   1.957   6.015   0.692 -1.5413  0.4972 -1.1198
11254TIP3   OH255176   1.864   0.871   1.074 -0.0566 -0.0588  0.1865
11254TIP3    H155177   1.932   0.805   1.087 -0.1902 -0.5142 -1.2602
11254TIP3    H255178   1.898   0.928   1.005 -1.8945 -1.4860 -2.0522
11255TIP3   OH255179   2.088   4.772  12.915  0.2384 -0.5025  0.1541
11255TIP3    H155180   2.085   4.747  13.007 -0.3107  1.8503  0.8362
11255TIP3    H255181   2.050   4.697  12.869  0.1849 -1.5799  1.8495
11256TIP3   OH255182   5.197   6.277  11.037  1.0830  0.5446  0.4932
11256TIP3    H155183   5.130   6.267  10.969  1.1734 -2.1394  0.6758
11256TIP3    H255184   5.147   6.296  11.117  0.8146  1.6812  0.0673
11257TIP3   OH255185   0.540   4.107  17.057  0.2704  1.0764 -0.7227
11257TIP3    H155186   0.631   4.135  17.054  0.7270 -0.2585 -0.1448
11257TIP3    H255187   0.500   4.146  16.979  1.5690  0.9155 -1.4902
11258TIP3   OH255188   3.656   4.927  14.620 -0.0243  0.2078  0.9198
11258TIP3    H155189   3.638   4.838  14.587  1.0871 -0.0804  1.0380
11258TIP3    H255190   3.752   4.933  14.620 -0.0842  1.3348  1.1308
11259TIP3   OH255191   1.316   0.437  16.568 -0.1415 -0.1886  0.3060
11259TIP3    H155192   1.294   0.402  16.655  0.1423 -0.1224  0.4037
11259TIP3    H255193   1.349   0.361  16.520 -0.1082 -0.1821  0.3177
11260TIP3   OH255194   4.922   2.483  16.229  0.2118  0.0677  0.5718
11260TIP3    H155195   4.934   2.565  16.277  0.5905 -0.2451  1.0200
11260TIP3    H255196   4.833   2.455  16.251 -0.0056  0.4744  0.2293
11261TIP3   OH255197   0.208   6.148   0.152 -0.5097  0.1513  0.1885
11261TIP3    H155198   0.229   6.227   0.202  1.4345 -0.4628  0.4350
11261TIP3    H255199   0.133   6.173   0.099 -0.8554  1.7117  1.3126
11262TIP3   OH255200   2.294   0.110  16.575  0.4743 -0.7808  0.6585
11262TIP3    H155201   2.250   0.099  16.659  0.1066 -2.8706  0.2391
11262TIP3    H255202   2.387   0.109  16.595  0.3902 -0.2101  1.1229
11263TIP3   OH255203   2.964   1.745   1.058 -0.0272  0.0398  0.3229
11263TIP3    H155204   3.058   1.738   1.068 -0.0666  1.2290  1.7783
11263TIP3    H255205   2.932   1.656   1.071  0.8487 -0.2776  0.3513
11264TIP3   OH255206   5.310   2.975  12.793 -0.0181 -0.1900 -0.6367
11264TIP3    H155207   5.275   3.023  12.717 -1.9276  0.0146  0.3206
11264TIP3    H255208   5.262   3.010  12.868  1.9709 -0.2403  0.7577
11265TIP3   OH255209   5.638   2.944   0.629 -0.5326  0.4224  0.0327
11265TIP3    H155210   5.700   2.947   0.702 -0.4373 -0.1986 -0.0170
11265TIP3    H255211   5.568   2.887   0.659  0.6426 -1.8220 -1.1959
11266TIP3   OH255212   5.994   4.801   1.324  0.3445 -0.0273  0.0871
11266TIP3    H155213   5.952   4.718   1.300  2.0057 -1.1476  0.8228
11266TIP3    H255214   6.034   4.831   1.242  1.3074 -0.9523  0.1910
11267TIP3   OH255215   0.149   6.087   3.621 -0.2249  0.1333 -0.2023
11267TIP3    H155216   0.097   6.068   3.543 -0.0694 -0.6546 -0.1209
11267TIP3    H255217   0.156   6.003   3.666  0.4899  0.3839  0.1686
11268TIP3   OH255218   1.426   5.197   4.799  0.0464 -0.4544  0.3758
11268TIP3    H155219   1.508   5.177   4.755 -0.6808 -1.7004 -0.4699
11268TIP3    H255220   1.452   5.248   4.876  1.5247 -0.0980 -0.3241
11269TIP3   OH255221   3.904   6.329   1.182 -0.1104 -0.0707 -0.6423
11269TIP3    H155222   3.985   6.347   1.230 -0.4885  0.1114 -0.0661
11269TIP3    H255223   3.880   6.240   1.208 -2.3808  1.2729  2.6304
11270TIP3   OH255224   3.195   5.215  15.994 -0.7220 -0.4891  0.1918
11270TIP3    H155225   3.269   5.227  15.935 -0.2282 -2.8187  0.2421
11270TIP3    H255226   3.229   5.161  16.065 -1.8439  0.5307  1.5790
11271TIP3   OH255227   4.328   1.274   3.132 -0.3183 -0.0859 -0.1612
11271TIP3    H155228   4.268   1.349   3.127  0.7551  0.7895 -0.2182
11271TIP3    H255229   4.415   1.313   3.136  0.3634 -1.3389 -1.5408
11272TIP3   OH255230   3.807   3.220  11.163  0.0714 -0.1730  0.7823
11272TIP3    H155231   3.747   3.148  11.142 -1.5052  1.1754  0.4404
11272TIP3    H255232   3.894   3.187  11.140 -0.7992 -1.3436 -1.1054
11273TIP3   OH255233   1.465   0.978  13.248 -0.5020 -0.1423  0.4575
11273TIP3    H155234   1.442   1.017  13.332 -0.3296 -0.6265  0.7290
11273TIP3    H255235   1.380   0.967  13.204 -0.6399 -0.3260  0.7611
11274TIP3   OH255236   6.479   1.608   0.429  0.3461 -0.3998 -0.3212
11274TIP3    H155237   6.408   1.590   0.367 -0.9334  3.1018 -0.0903
11274TIP3    H255238   6.554   1.629   0.373  0.1023 -0.3223 -0.6211
11275TIP3   OH255239   5.112   6.282   0.899  0.0251  0.0501  0.3801
11275TIP3    H155240   5.085   6.373   0.903 -0.9789 -0.2591  1.3639
11275TIP3    H255241   5.072   6.249   0.818 -1.3761 -0.0118  1.0604
11276TIP3   OH255242   4.694   3.690   3.473 -0.5918 -0.1698  0.4540
11276TIP3    H155243   4.740   3.694   3.389 -0.8568 -1.2909  0.2353
11276TIP3    H255244   4.755   3.646   3.532 -1.5135 -2.1810  0.0154
11277TIP3   OH255245   5.840   3.300  11.433  0.2557  0.8877 -0.4236
11277TIP3    H155246   5.882   3.321  11.350  2.3002  0.6069  0.4874
11277TIP3    H255247   5.816   3.207  11.424  0.5544  0.8319 -0.6730
11278TIP3   OH255248   2.776   3.632   0.197  0.5169  0.6373 -0.0820
11278TIP3    H155249   2.715   3.630   0.270  0.5044 -0.8349 -0.0860
11278TIP3    H255250   2.816   3.545   0.197 -1.1184 -0.2912 -3.1609
11279TIP3   OH255251   5.933   3.425   4.558 -0.1822  0.4899  0.0619
11279TIP3    H155252   5.876   3.371   4.503 -0.6787  1.5932 -0.5541
11279TIP3    H255253   5.883   3.437   4.639  1.2349 -2.4962  1.5054
11280TIP3   OH255254   5.614   5.766   3.273 -0.5042  0.3551  0.5535
11280TIP3    H155255   5.590   5.731   3.359 -0.7184 -0.4188  0.1915
11280TIP3    H255256   5.710   5.767   3.275 -0.4794 -0.5979  0.4529
11281TIP3   OH255257   4.750   3.265   4.976 -0.7296 -0.4262 -0.0979
11281TIP3    H155258   4.747   3.361   4.974  0.9944 -0.3314  0.3673
11281TIP3    H255259   4.742   3.242   5.069  1.4545 -0.5738  0.0883
11282TIP3   OH255260   3.251   4.646   0.786  0.0684 -0.5902 -0.4444
11282TIP3    H155261   3.259   4.551   0.773  1.2657 -0.6756  0.6979
11282TIP3    H255262   3.156   4.661   0.791 -0.2185 -1.4316 -2.4919
11283TIP3   OH255263   4.677   3.184   0.485 -0.5369  0.0152 -0.1834
11283TIP3    H155264   4.709   3.099   0.515  1.1384  0.1181 -1.5104
11283TIP3    H255265   4.630   3.164   0.404  0.7209  0.4105 -1.0476
11284TIP3   OH255266   3.699   5.025   1.888  0.7645  0.5440  0.2810
11284TIP3    H155267   3.719   4.984   1.972  0.4340  1.9020  1.0443
11284TIP3    H255268   3.765   4.990   1.828  2.4678  1.3212  1.6467
11285TIP3   OH255269   0.749   2.289   0.569  0.1900  0.2784  0.0287
11285TIP3    H155270   0.784   2.222   0.628  1.5722  0.6420 -0.3441
11285TIP3    H255271   0.659   2.262   0.553  1.2959 -2.7876 -1.9415
11286TIP3   OH255272   5.637   2.467  13.182 -0.1615  0.3074  0.5154
11286TIP3    H155273   5.629   2.378  13.149 -2.8456  1.0582 -1.2080
11286TIP3    H255274   5.561   2.478  13.240  0.0832  1.5006  0.6334
11287TIP3   OH255275   5.678   2.265   5.271  0.4571  0.7388 -0.1147
11287TIP3    H155276   5.764   2.226   5.283  0.0198  0.5652  3.2788
11287TIP3    H255277   5.617   2.191   5.275 -0.0482  1.1987  1.3344
11288TIP3   OH255278   0.642   3.452  13.009  0.0359  0.2301 -0.3084
11288TIP3    H155279   0.596   3.371  13.034  0.5164 -0.1211 -0.5417
11288TIP3    H255280   0.586   3.522  13.042  0.0078 -0.2079  0.6204
11289TIP3   OH255281   1.613   2.436  16.047 -0.1392  0.0277 -0.2826
11289TIP3    H155282   1.659   2.414  15.966 -0.5740 -2.0972 -0.0356
11289TIP3    H255283   1.520   2.432  16.024 -0.2649  2.0644 -0.2633
11290TIP3   OH255284   6.594   3.543   5.140  0.0613 -0.0964  0.1279
11290TIP3    H155285   6.669   3.523   5.085 -1.0889 -1.4738 -1.0357
11290TIP3    H255286   6.518   3.526   5.084 -1.1327  0.3640  1.5389
11291TIP3   OH255287   5.200   0.874  11.630 -0.7565  0.2554 -0.0610
11291TIP3    H155288   5.179   0.781  11.624 -1.5593  0.4189  0.1341
11291TIP3    H255289   5.286   0.876  11.674 -0.7510 -0.3865 -0.0298
11292TIP3   OH255290   2.185   1.929  16.065 -0.4804 -0.1769  0.1239
11292TIP3    H155291   2.090   1.932  16.060 -0.4513  1.6118 -0.2067
11292TIP3    H255292   2.205   1.851  16.117 -2.1169 -0.5602  0.2078
11293TIP3   OH255293   2.267   1.086   5.550  1.0884 -0.6683 -0.2002
11293TIP3    H155294   2.217   1.074   5.469 -1.0448 -0.1553  0.9653
11293TIP3    H255295   2.228   1.163   5.591  2.2882 -0.7661  1.2135
11294TIP3   OH255296   6.460   6.767  11.700 -0.6161 -0.6898  0.3939
11294TIP3    H155297   6.479   6.796  11.610  3.9716 -0.1913  1.3023
11294TIP3    H255298   6.379   6.813  11.723 -1.4058 -0.0449 -3.0966
11295TIP3   OH255299   0.895   6.077   4.983 -0.1293  0.2517  0.2182
11295TIP3    H155300   0.921   5.990   5.015  0.5252 -0.4559 -2.0447
11295TIP3    H255301   0.965   6.135   5.012  0.5128 -0.3764 -0.0667
11296TIP3   OH255302   5.682   2.157  11.521 -0.3595  0.6098 -0.2672
11296TIP3    H155303   5.659   2.069  11.550  0.2687  0.6233  0.3026
11296TIP3    H255304   5.599   2.203  11.516 -0.7849 -0.2536 -1.4084
11297TIP3   OH255305   6.467   4.617   1.300  0.3051  0.2176 -0.2773
11297TIP3    H155306   6.432   4.542   1.348 -0.5168  1.0653  0.4851
11297TIP3    H255307   6.509   4.671   1.368  2.8255 -0.5828 -1.1017
11298TIP3   OH255308   4.746   2.133   5.370  0.0726  0.3170  0.3328
11298TIP3    H155309   4.747   2.223   5.338 -1.5379  0.0480 -0.6275
11298TIP3    H255310   4.703   2.139   5.455  1.5685  0.6484  1.0930
11299TIP3   OH255311   5.350   1.987  13.256  0.7429  0.2889 -0.0612
11299TIP3    H155312   5.269   2.019  13.218  0.3705 -0.9375 -0.3451
11299TIP3    H255313   5.413   1.990  13.185  0.2242 -1.3414 -0.6332
11300TIP3   OH255314   0.140   4.742  13.246 -0.2620 -0.0220 -0.1722
11300TIP3    H155315   0.089   4.677  13.197 -1.2993 -0.2471  1.1405
11300TIP3    H255316   0.075   4.804  13.278  0.2705 -0.2363  1.4176
11301TIP3   OH255317   1.130   5.731   0.600 -0.1625  0.0847 -0.5845
11301TIP3    H155318   1.060   5.751   0.661 -0.2296  0.9343 -0.9209
11301TIP3    H255319   1.088   5.734   0.514 -0.0375 -0.9452 -0.6918
11302TIP3   OH255320   4.965   5.388   0.599  0.1547  0.2063  0.1000
11302TIP3    H155321   4.932   5.470   0.562  0.3720 -0.2885 -1.2135
11302TIP3    H255322   4.961   5.325   0.527 -1.2010 -1.3050  1.4009
11303TIP3   OH255323   6.051   6.208   6.125 -0.1528  0.2088 -0.0168
11303TIP3    H155324   6.075   6.181   6.036 -3.2953 -0.9878 -0.6183
11303TIP3    H255325   6.035   6.127   6.172 -1.3708  0.8664  0.7581
11304TIP3   OH255326   6.763   6.231  16.850  0.1233 -0.2627 -0.0437
11304TIP3    H155327   6.765   6.135  16.846  0.2349 -0.2781  0.3314
11304TIP3    H255328   6.818   6.259  16.778  0.2744 -0.4855 -0.0181
11305TIP3   OH255329   5.229   6.039  11.742 -0.1241  0.4100  0.5018
11305TIP3    H155330   5.230   5.946  11.717 -0.9272  0.5829 -0.1840
11305TIP3    H255331   5.137   6.060  11.753  0.0776  1.0234  1.1076
11306TIP3   OH255332   1.515   1.573  15.450  0.6935  0.1645 -0.3816
11306TIP3    H155333   1.520   1.668  15.454  0.0118  0.1800  0.3580
11306TIP3    H255334   1.576   1.548  15.381 -0.6684  1.2867 -2.0769
11307TIP3   OH255335   2.005   3.130  12.040 -0.8955  0.4575  0.2162
11307TIP3    H155336   1.953   3.140  11.960 -1.8390  0.0002  0.7566
11307TIP3    H255337   2.085   3.180  12.023 -0.4846 -0.6876 -1.5312
11308TIP3   OH255338   3.283   0.337  13.220 -0.0494  0.0106  0.3417
11308TIP3    H155339   3.203   0.285  13.233  0.3229 -1.1314 -1.5851
11308TIP3    H255340   3.274   0.372  13.131  1.1285  0.7587  0.5005
11309TIP3   OH255341   1.463   1.392  13.003  0.1605 -0.7066  0.4596
11309TIP3    H155342   1.506   1.307  12.993  0.7368 -0.4233  0.4537
11309TIP3    H255343   1.370   1.373  13.003  0.2903 -1.3439  0.5063
11310TIP3   OH255344   3.501   6.674   6.592 -0.0803  0.1763  0.0848
11310TIP3    H155345   3.530   6.763   6.573 -0.3402  0.0669 -0.8509
11310TIP3    H255346   3.567   6.618   6.552  0.2197 -0.0616  0.8888
11311TIP3   OH255347   6.321   2.028   2.686  0.2027 -0.3918 -0.5291
11311TIP3    H155348   6.344   2.028   2.779  1.6580 -0.7868 -0.8525
11311TIP3    H255349   6.239   2.075   2.681  0.5639  0.4331  0.8625
11312TIP3   OH255350   3.673   4.393  15.341 -0.1077 -0.1146  0.2163
11312TIP3    H155351   3.729   4.440  15.403 -1.2567 -0.6593  1.7512
11312TIP3    H255352   3.596   4.449  15.331  1.5268  1.8075 -3.7415
11313TIP3   OH255353   6.808   2.166   2.021 -0.1027  0.1813  0.2854
11313TIP3    H155354   6.786   2.114   1.944  0.0525 -2.0951  1.6855
11313TIP3    H255355   6.728   2.164   2.074  0.2849  0.3886  0.8854
11314TIP3   OH255356   4.920   5.660   4.319  0.1162 -0.8855 -0.0553
11314TIP3    H155357   4.905   5.616   4.403 -0.0469  0.7817  0.8311
11314TIP3    H255358   5.007   5.632   4.292 -0.7230 -3.2970 -0.5585
11315TIP3   OH255359   0.772   4.564   4.899  0.2533 -0.4594 -0.0825
11315TIP3    H155360   0.826   4.622   4.845  1.9529 -3.0673 -1.3847
11315TIP3    H255361   0.692   4.552   4.848 -0.1653  0.7693  0.2533
11316TIP3   OH255362   3.681   1.675   0.849  0.0174 -0.0681  0.0951
11316TIP3    H155363   3.672   1.746   0.912  1.8609  0.3817 -0.0951
11316TIP3    H255364   3.721   1.603   0.898  0.3723 -0.1233 -0.2599
11317TIP3   OH255365   2.964   5.035  13.748 -0.2544  0.0107  0.9017
11317TIP3    H155366   3.029   5.064  13.812 -1.7210 -0.2042  2.5624
11317TIP3    H255367   2.886   5.088  13.767 -0.7525 -0.0920 -0.6995
11318TIP3   OH255368   4.856   1.064  13.142  0.7292  0.5695 -0.4640
11318TIP3    H155369   4.911   1.136  13.112 -0.2119  1.3803 -0.3094
11318TIP3    H255370   4.915   1.005  13.188  1.9475  0.0498 -2.5891
11319TIP3   OH255371   0.389   4.706  17.033  0.2415 -0.1205  0.1382
11319TIP3    H155372   0.391   4.754  16.950 -1.4037  0.1839  0.2565
11319TIP3    H255373   0.441   4.628  17.016 -2.1158 -1.3567 -2.0402
11320TIP3   OH255374   5.453   2.481  14.396 -0.7940  0.0671  0.1352
11320TIP3    H155375   5.433   2.543  14.326 -0.1965  1.5026  1.2008
11320TIP3    H255376   5.532   2.436  14.367 -1.8761 -1.0773 -1.1743
11321TIP3   OH255377   0.818   5.264  13.600  0.3999  0.5102  0.4603
11321TIP3    H155378   0.838   5.332  13.664 -0.2338  0.5887  0.5887
11321TIP3    H255379   0.827   5.182  13.648  0.1331  0.5585  0.5930
11322TIP3   OH255380   1.255   4.681   6.326  0.7151  0.2491 -0.1065
11322TIP3    H155381   1.276   4.701   6.235 -0.8508  0.0966 -0.5294
11322TIP3    H255382   1.187   4.744   6.350  0.8645  0.0626  0.8492
11323TIP3   OH255383   0.783   6.374  16.819  0.3680  0.7906 -0.3775
11323TIP3    H155384   0.824   6.293  16.848  1.3592  1.2331 -0.4813
11323TIP3    H255385   0.801   6.377  16.725 -0.9046  0.4433 -0.6517
11324TIP3   OH255386   2.748   3.801   3.440  0.0743  0.4874 -0.5574
11324TIP3    H155387   2.714   3.768   3.357  0.0789  0.4864 -0.5588
11324TIP3    H255388   2.835   3.760   3.448 -1.4392 -2.7870  1.3568
11325TIP3   OH255389   4.437   6.012  15.972  0.4635  0.1947  0.7986
11325TIP3    H155390   4.345   6.021  15.951  1.2238  1.8342 -2.4278
11325TIP3    H255391   4.459   5.923  15.943  0.2747  0.4729 -0.2330
11326TIP3   OH255392   5.639   1.902   3.065  0.7381  0.9434  0.4845
11326TIP3    H155393   5.655   1.977   3.122  1.2493  0.3203  1.1748
11326TIP3    H255394   5.636   1.827   3.124  0.3122  0.4019 -0.2076
11327TIP3   OH255395   5.849   0.950   1.209 -0.1786 -0.4799  0.1323
11327TIP3    H155396   5.859   0.914   1.297  0.2256 -0.1385  0.2259
11327TIP3    H255397   5.867   0.875   1.151  3.3360  0.1051  0.2699
11328TIP3   OH255398   6.274   0.775   2.790 -0.2400 -0.0400 -0.2563
11328TIP3    H155399   6.258   0.747   2.880 -0.5715 -0.3864 -0.4229
11328TIP3    H255400   6.369   0.790   2.787 -0.4474  1.8041  0.6618
11329TIP3   OH255401   4.629   5.220   1.403 -1.0197 -0.6449 -0.1725
11329TIP3    H155402   4.711   5.270   1.402 -1.2582 -0.2517 -1.1722
11329TIP3    H255403   4.570   5.273   1.458 -1.7359  1.0197 -2.3727
11330TIP3   OH255404   4.421   3.728   0.883  0.4331 -0.3631 -0.0518
11330TIP3    H155405   4.348   3.668   0.870 -0.0612  0.3832 -0.8408
11330TIP3    H255406   4.400   3.774   0.965 -1.0708  1.3073 -1.2961
11331TIP3   OH255407   1.040   0.982  11.064 -0.0607  0.1776  0.0118
11331TIP3    H155408   0.992   1.064  11.060 -1.3924 -0.5602  0.4529
11331TIP3    H255409   0.979   0.916  11.032  1.0506 -0.6254 -0.5292
11332TIP3   OH255410   0.623   0.671   2.598  0.4005  0.4027 -0.4081
11332TIP3    H155411   0.599   0.679   2.506  2.0408 -0.5294 -0.9586
11332TIP3    H255412   0.674   0.749   2.617  1.9831 -0.4436 -0.9736
11333TIP3   OH255413   2.519   3.804  13.273 -0.3431  0.4741 -0.5025
11333TIP3    H155414   2.563   3.719  13.275 -3.6253 -1.4626  2.6009
11333TIP3    H255415   2.443   3.789  13.216 -0.3247  1.7434 -0.8827
11334TIP3   OH255416   1.058   4.728   4.450  0.2024 -0.0993 -0.0035
11334TIP3    H155417   1.072   4.743   4.357 -0.4497  0.0591 -0.0770
11334TIP3    H255418   1.010   4.806   4.480 -0.1467 -0.4378  0.3264
11335TIP3   OH255419   2.158   1.916  15.260  0.1375 -0.4619 -0.5536
11335TIP3    H155420   2.148   1.886  15.170 -1.8406  1.0800 -0.9265
11335TIP3    H255421   2.092   1.867  15.309  0.4887 -0.5222 -0.1334
11336TIP3   OH255422   4.585   4.225  13.851 -0.3883  0.1088 -0.1415
11336TIP3    H155423   4.547   4.312  13.867  1.7622  1.4044 -1.5882
11336TIP3    H255424   4.680   4.239  13.856  0.0649 -1.8494 -1.9083
11337TIP3   OH255425   6.022   0.797  16.793 -0.1346 -0.1908 -0.1119
11337TIP3    H155426   5.982   0.712  16.773 -2.7679  0.9943 -0.3725
11337TIP3    H255427   6.099   0.801  16.737 -0.9760 -1.6631 -1.4712
11338TIP3   OH255428   3.617   3.528   3.538 -0.1063  0.7682  0.1566
11338TIP3    H155429   3.709   3.523   3.564 -0.7359  0.6296  2.6097
11338TIP3    H255430   3.616   3.585   3.462  1.7531  3.1022  1.7456
11339TIP3   OH255431   4.899   2.964  15.020  0.2807 -0.8386 -0.3700
11339TIP3    H155432   4.908   2.940  14.928  1.2229 -0.4825 -0.3868
11339TIP3    H255433   4.876   2.883  15.064  0.9457 -1.2532 -0.7664
11340TIP3   OH255434   1.025   0.451   1.414  0.1276 -0.0517 -0.1422
11340TIP3    H155435   1.118   0.474   1.418  0.4738 -1.4392  0.2682
11340TIP3    H255436   1.002   0.463   1.322  0.4274  1.3019 -0.0607
11341TIP3   OH255437   2.985   6.031   0.631 -0.4902  0.4060  0.2763
11341TIP3    H155438   3.008   5.941   0.608 -1.9791  0.1733 -0.3879
11341TIP3    H255439   2.992   6.080   0.549  0.2251  0.8962  0.6159
11342TIP3   OH255440   0.495   3.323  14.630  0.3352 -0.3285  0.6540
11342TIP3    H155441   0.487   3.294  14.721 -1.4916  1.4075  1.1195
11342TIP3    H255442   0.404   3.336  14.601  0.8559 -1.0618 -1.5192
11343TIP3   OH255443   0.875   4.468  15.630 -0.1639 -0.6385 -0.0739
11343TIP3    H155444   0.838   4.490  15.545  0.4055 -1.1363 -0.4602
11343TIP3    H255445   0.969   4.479  15.618 -0.1432  0.2861  0.7961
11344TIP3   OH255446   5.553   2.513  10.650  1.0020  0.5851  0.5598
11344TIP3    H155447   5.578   2.577  10.584 -0.7887 -0.3490 -1.1162
11344TIP3    H255448   5.463   2.490  10.629  1.3416 -1.9559  1.5100
11345TIP3   OH255449   3.814   4.892  10.776 -0.3004 -0.1310 -0.2504
11345TIP3    H155450   3.847   4.819  10.724  2.5885  0.2926  0.8473
11345TIP3    H255451   3.876   4.963  10.759 -1.4886  1.2179  0.8166
11346TIP3   OH255452   6.801   6.094  16.260  0.6511 -0.0586 -0.2824
11346TIP3    H155453   6.731   6.158  16.256  1.1831  0.6371  1.0612
11346TIP3    H255454   6.879   6.144  16.285  0.8895 -1.3174  1.7628
11347TIP3   OH255455   2.316   5.929   5.217  0.6530 -0.1445 -0.1226
11347TIP3    H155456   2.248   5.990   5.245 -0.4111  0.3116 -3.2295
11347TIP3    H255457   2.283   5.843   5.241 -1.0219  0.0915 -1.3773
11348TIP3   OH255458   5.957   2.032   2.316 -0.4153  0.3208 -0.2885
11348TIP3    H155459   5.993   2.119   2.332  4.8605 -1.8262  2.0673
11348TIP3    H255460   5.944   1.995   2.403 -2.5886 -1.3456 -1.2177
11349TIP3   OH255461   0.149   3.113   0.523  0.7030  0.5458 -0.5230
11349TIP3    H155462   0.126   3.199   0.488  1.1276 -0.0972 -2.5511
11349TIP3    H255463   0.073   3.058   0.504  0.5108  0.4138  0.5800
11350TIP3   OH255464   1.707   4.379   2.385 -0.4362 -0.2698  0.3535
11350TIP3    H155465   1.683   4.293   2.350 -0.6195 -0.0446 -0.0840
11350TIP3    H255466   1.797   4.392   2.354 -0.9734  0.4118 -1.0087
11351TIP3   OH255467   5.435   0.339  14.993 -0.2274 -0.3922 -0.5245
11351TIP3    H155468   5.413   0.405  15.059  0.6579  0.0016 -0.6080
11351TIP3    H255469   5.351   0.304  14.966 -0.5774 -1.1081  1.3579
11352TIP3   OH255470   5.911   2.548  10.498 -0.1368  0.1224 -0.2862
11352TIP3    H155471   5.867   2.481  10.447 -0.3147  1.1458 -1.5319
11352TIP3    H255472   5.949   2.607  10.433  0.1968  1.1028  0.7646
11353TIP3   OH255473   6.321   5.329  11.083  0.5655 -0.2165 -0.0480
11353TIP3    H155474   6.315   5.307  10.990  0.9210  0.9093 -0.3546
11353TIP3    H255475   6.246   5.286  11.123  0.2656 -0.4986 -0.8988
11354TIP3   OH255476   2.574   0.424   1.325 -0.7122 -0.5562  0.2908
11354TIP3    H155477   2.605   0.351   1.378  0.5672 -0.2502  0.0006
11354TIP3    H255478   2.642   0.491   1.334 -0.4000 -0.5347 -1.7951
11355TIP3   OH255479   3.242   1.740   5.705  0.2142 -0.0062  0.5644
11355TIP3    H155480   3.186   1.748   5.782  1.9989 -0.4526  1.9877
11355TIP3    H255481   3.280   1.827   5.693 -0.0699  0.0665  0.1584
11356TIP3   OH255482   4.747   0.566  13.112  0.3069 -0.3371  0.2944
11356TIP3    H155483   4.758   0.570  13.207 -2.1956 -2.6259  0.8201
11356TIP3    H255484   4.770   0.654  13.081  2.5577  0.0859  2.7782
11357TIP3   OH255485   0.108   0.165  13.633 -0.1721  0.0560  0.4042
11357TIP3    H155486   0.146   0.127  13.554 -2.0778 -0.4664 -0.3161
11357TIP3    H255487   0.168   0.236  13.657  0.7283 -0.1267 -1.1860
11358TIP3   OH255488   3.721   1.265   6.383 -0.0825 -0.1667 -0.1915
11358TIP3    H155489   3.657   1.241   6.450 -0.3425  2.9496  0.8730
11358TIP3    H255490   3.797   1.296   6.433  0.0418  1.4383 -1.2989
11359TIP3   OH255491   2.859   5.497   5.486  0.6023  0.5153 -0.2654
11359TIP3    H155492   2.764   5.502   5.497  0.7414  1.0516  0.7805
11359TIP3    H255493   2.882   5.408   5.515  0.2203 -0.3326 -2.3540
11360TIP3   OH255494   3.498   1.774   5.847  0.3673 -0.8621 -0.6407
11360TIP3    H155495   3.411   1.735   5.852 -0.2345  0.4315 -0.5297
11360TIP3    H255496   3.520   1.795   5.937  0.6352 -0.8522 -0.7081
11361TIP3   OH255497   4.473   2.262   0.361 -0.0951 -0.2241  0.0826
11361TIP3    H155498   4.438   2.340   0.404 -0.3418  0.1701 -0.8071
11361TIP3    H255499   4.560   2.251   0.399  0.1219  0.7509 -0.0994
11362TIP3   OH255500   5.533   0.389   5.926  0.6480  0.3215  0.4185
11362TIP3    H155501   5.496   0.409   6.012 -1.9396  1.0379 -0.7547
11362TIP3    H255502   5.584   0.467   5.904 -0.5097  1.1087  0.4116
11363TIP3   OH255503   3.906   5.850  13.174  0.4391  0.1901 -0.5720
11363TIP3    H155504   3.873   5.939  13.174 -1.1386 -0.3309  1.1382
11363TIP3    H255505   3.925   5.831  13.082 -1.5389  1.4474 -1.2888
11364TIP3   OH255506   0.202   0.272   1.561 -0.6447  0.0912 -0.7643
11364TIP3    H155507   0.259   0.308   1.492  0.0051  1.8914  0.6205
11364TIP3    H255508   0.254   0.204   1.602 -0.1375  0.5644 -0.6107
11365TIP3   OH255509   3.079   4.456   2.176  0.5493 -0.3333  0.4587
11365TIP3    H155510   3.112   4.525   2.119 -1.9959 -0.0317 -0.7711
11365TIP3    H255511   2.984   4.469   2.177 -0.0489 -3.8058  0.1835
11366TIP3   OH255512   0.594   0.378   2.153 -0.2558 -0.0337 -0.5139
11366TIP3    H155513   0.601   0.438   2.079 -1.8410  0.2329 -0.4678
11366TIP3    H255514   0.568   0.295   2.114 -1.0931  0.1058 -0.2739
11367TIP3   OH255515   5.087   1.551   0.406 -0.0640  0.3274 -0.4515
11367TIP3    H155516   5.082   1.558   0.310  0.5474  0.4781 -0.4774
11367TIP3    H255517   4.997   1.564   0.436 -0.3344 -0.1578 -1.0328
11368TIP3   OH255518   4.613   0.151  16.868  0.0173 -0.0905 -0.2339
11368TIP3    H155519   4.556   0.154  16.791 -0.4616  0.1146  0.1240
11368TIP3    H255520   4.700   0.134  16.832  0.0016  1.1399 -0.9286
11369TIP3   OH255521   3.831   1.435  14.842  0.2288  0.7336 -0.3937
11369TIP3    H155522   3.757   1.383  14.809 -1.2944  3.3411 -1.3782
11369TIP3    H255523   3.908   1.396  14.800 -0.5137 -2.0305  0.6180
11370TIP3   OH255524   6.393   4.808  13.322 -0.1871  0.0945 -0.8312
11370TIP3    H155525   6.315   4.820  13.376  0.1444 -0.4813 -0.2251
11370TIP3    H255526   6.444   4.742  13.367  0.1840 -0.2627 -1.7552
11371TIP3   OH255527   0.782   0.365  13.902 -0.2171  0.7583 -0.0936
11371TIP3    H155528   0.771   0.371  13.997  0.5482  0.6907  0.0088
11371TIP3    H255529   0.845   0.434  13.881 -0.5214  0.8909 -0.5783
11372TIP3   OH255530   4.401   3.301  12.161 -0.5434  1.0561  0.1163
11372TIP3    H155531   4.414   3.393  12.184 -0.1277  1.6323 -2.1487
11372TIP3    H255532   4.461   3.286  12.088 -1.0943 -0.8343 -0.0082
11373TIP3   OH255533   4.658   4.403   0.441 -0.5220 -0.1339  0.2587
11373TIP3    H155534   4.721   4.475   0.450 -0.2184 -0.3166 -0.3911
11373TIP3    H255535   4.670   4.372   0.352 -1.1919 -0.4962  0.2939
11374TIP3   OH255536   6.699   5.303  16.285 -0.3793  0.5958  0.0089
11374TIP3    H155537   6.611   5.333  16.263 -0.7565 -0.4033  0.1405
11374TIP3    H255538   6.740   5.379  16.328 -0.5296  1.6965 -1.6777
11375TIP3   OH255539   2.531   0.762   3.389  0.6352  0.4228 -0.4175
11375TIP3    H155540   2.538   0.683   3.443  0.1724  2.0076  2.1187
11375TIP3    H255541   2.448   0.752   3.342  0.1384 -0.1860  0.5731
11376TIP3   OH255542   5.764   3.121  16.460 -0.0314 -0.3672 -0.6579
11376TIP3    H155543   5.777   3.033  16.426 -0.2774 -0.2394 -1.0898
11376TIP3    H255544   5.690   3.114  16.520 -0.5158 -0.3208 -1.2374
11377TIP3   OH255545   5.784   2.127   1.452  0.5311  0.0045 -0.0382
11377TIP3    H155546   5.780   2.040   1.412 -1.8142 -1.1932  2.4600
11377TIP3    H255547   5.767   2.188   1.380  1.5962 -1.5917 -1.7263
11378TIP3   OH255548   0.461   0.320   0.586 -0.0597 -0.3323  0.4855
11378TIP3    H155549   0.460   0.225   0.593 -0.9801 -0.3943 -0.3530
11378TIP3    H255550   0.387   0.341   0.530  0.8033  0.7987 -0.2731
11379TIP3   OH255551   1.469   6.418  16.799  0.2372  0.2646 -0.5968
11379TIP3    H155552   1.471   6.483  16.729  2.1688  1.2710  0.3203
11379TIP3    H255553   1.459   6.469  16.880 -0.1411 -0.7222  0.0034
11380TIP3   OH255554   1.639   2.128  12.381 -0.4727 -0.5471  0.3215
11380TIP3    H155555   1.552   2.144  12.346 -0.3071  1.5726  0.6997
11380TIP3    H255556   1.640   2.173  12.465  1.7369  1.9032 -0.8278
11381TIP3   OH255557   2.019   6.127  16.189  0.0561 -0.6716  0.0085
11381TIP3    H155558   1.956   6.152  16.121  0.0727 -1.0013 -0.1286
11381TIP3    H255559   2.011   6.032  16.196 -0.6849 -0.5418  1.1998
11382TIP3   OH255560   5.513   6.120   1.257 -0.4337  0.0568 -0.3409
11382TIP3    H155561   5.563   6.061   1.200 -0.8712 -1.0683  0.4071
11382TIP3    H255562   5.425   6.081   1.260  0.1849 -1.3997  3.0697
11383TIP3   OH255563   5.016   4.676  10.321 -0.7780 -0.7245 -0.1090
11383TIP3    H155564   4.992   4.716  10.405 -1.3354 -0.4708 -0.3839
11383TIP3    H255565   5.066   4.743  10.276 -0.0763 -1.0265  0.2034
11384TIP3   OH255566   0.643   1.361  12.306 -0.4785 -0.2405  0.1035
11384TIP3    H155567   0.723   1.404  12.336 -0.5387  0.8748 -1.2455
11384TIP3    H255568   0.583   1.368  12.380 -0.4276  1.8936  0.0082
11385TIP3   OH255569   5.972   4.716   5.054  0.2134  0.6447 -0.1534
11385TIP3    H155570   6.034   4.783   5.024  0.3215  0.3205 -0.6652
11385TIP3    H255571   5.886   4.752   5.032  0.2510  0.8091 -0.0312
11386TIP3   OH255572   1.654   3.882  15.912 -0.2923 -0.4850  0.8364
11386TIP3    H155573   1.676   3.933  15.990  1.3330  2.8960 -1.5824
11386TIP3    H255574   1.668   3.942  15.839 -2.0496 -3.3255 -2.1140
11387TIP3   OH255575   3.306   4.454  14.411 -0.0879  0.1927 -0.1089
11387TIP3    H155576   3.303   4.456  14.506 -1.5487 -1.4523 -0.0727
11387TIP3    H255577   3.261   4.534  14.384  1.0480  1.0779  0.5516
11388TIP3   OH255578   6.796   1.612  10.878 -0.0128 -0.2047  0.5682
11388TIP3    H155579   6.718   1.605  10.932  0.1506  0.9190  0.9842
11388TIP3    H255580   6.859   1.660  10.933 -0.1675  1.8267 -0.9185
11389TIP3   OH255581   5.515   4.183   3.464  0.0543  0.8431 -0.3304
11389TIP3    H155582   5.429   4.158   3.430  0.4858 -1.5725  0.1649
11389TIP3    H255583   5.572   4.111   3.439  1.5944  1.6722  0.6904
11390TIP3   OH255584   3.283   0.439  16.268 -0.2266 -0.3528 -0.3290
11390TIP3    H155585   3.211   0.403  16.217  0.4878 -2.7898  0.2279
11390TIP3    H255586   3.338   0.484  16.204 -1.0888 -0.3864 -1.1146
11391TIP3   OH255587   2.547   1.152   3.596  0.0620 -0.2999 -0.3054
11391TIP3    H155588   2.537   1.079   3.657  2.0199  0.7394  1.3670
11391TIP3    H255589   2.632   1.136   3.554  1.0638  1.5386  0.9118
11392TIP3   OH255590   2.142   2.773   5.713  0.1970  0.3987 -0.1208
11392TIP3    H155591   2.232   2.804   5.702  0.3349  0.1988  0.3753
11392TIP3    H255592   2.140   2.739   5.803 -0.9451  2.3214  0.6280
11393TIP3   OH255593   5.776   2.495   4.930  0.2486 -0.7021  0.6160
11393TIP3    H155594   5.859   2.475   4.973  0.1438  1.8769  2.2775
11393TIP3    H255595   5.794   2.573   4.878 -1.3706  0.7375  2.0840
11394TIP3   OH255596   2.945   5.547  11.246  0.0109 -0.3017 -0.1495
11394TIP3    H155597   2.897   5.513  11.171  0.1466 -0.1549 -0.3024
11394TIP3    H255598   2.987   5.471  11.285 -0.2979 -0.4231 -0.0469
11395TIP3   OH255599   0.533   3.879   5.063  1.2821 -0.2948  0.2049
11395TIP3    H155600   0.501   3.852   4.977  1.5832 -0.3574  0.1099
11395TIP3    H255601   0.563   3.969   5.050  2.9646 -0.8802 -0.2047
11396TIP3   OH255602   3.189   1.875   6.123 -0.1313 -0.1339  0.3416
11396TIP3    H155603   3.168   1.784   6.145  0.0517  0.0628  1.4113
11396TIP3    H255604   3.282   1.874   6.101  0.2036 -0.0150  1.6448
11397TIP3   OH255605   2.151   0.229  16.361 -0.4100  0.0105 -0.0911
11397TIP3    H155606   2.201   0.186  16.431 -0.4080  0.9804  0.5310
11397TIP3    H255607   2.212   0.233  16.287 -0.0403 -0.0716  0.2051
11398TIP3   OH255608   0.902   3.274   2.903  0.6051  0.7988  0.0769
11398TIP3    H155609   0.878   3.207   2.838  0.1011  0.9641  0.0867
11398TIP3    H255610   0.993   3.255   2.924  0.6705  0.5259 -0.4226
11399TIP3   OH255611   5.752   0.463   1.091 -0.6444 -0.6042  0.4747
11399TIP3    H155612   5.796   0.538   1.131 -1.6421 -0.3973  1.2119
11399TIP3    H255613   5.811   0.389   1.106  0.0088 -0.1177  0.3764
11400TIP3   OH255614   5.930   1.353  15.898 -0.5756  0.7016  0.1331
11400TIP3    H155615   5.956   1.436  15.859 -0.5955  0.6320 -0.0266
11400TIP3    H255616   5.836   1.361  15.912 -0.7204  0.3872 -0.6486
11401TIP3   OH255617   1.746   2.095  16.171 -0.0864 -0.3758  0.1431
11401TIP3    H155618   1.832   2.089  16.212  1.2417  1.8342 -2.0823
11401TIP3    H255619   1.693   2.145  16.234  0.5608 -0.7907  1.0399
11402TIP3   OH255620   6.729   2.245  14.729  0.6713 -0.0283 -0.1073
11402TIP3    H155621   6.666   2.268  14.660 -0.8927  0.8660  1.5567
11402TIP3    H255622   6.736   2.149  14.722 -2.2824 -0.4150  0.7479
11403TIP3   OH255623   5.880   5.213  14.063 -0.0649 -0.1415  0.1004
11403TIP3    H155624   5.868   5.152  14.135 -0.5891 -0.2496 -0.0741
11403TIP3    H255625   5.811   5.278  14.074 -1.2102 -1.0824 -1.2408
11404TIP3   OH255626   3.800   5.831  14.121 -0.1400 -0.1546  0.0342
11404TIP3    H155627   3.857   5.836  14.045 -1.2483  0.3854 -0.7935
11404TIP3    H255628   3.848   5.875  14.191  0.4570  0.2824 -0.6363
11405TIP3   OH255629   3.440   5.112   3.424  0.3842 -0.3114 -0.2877
11405TIP3    H155630   3.428   5.066   3.341 -0.0999 -0.4312 -0.1551
11405TIP3    H255631   3.381   5.068   3.485  1.8243 -1.2100  0.5344
11406TIP3   OH255632   3.070   2.528  14.656 -0.0601 -0.1268 -0.0251
11406TIP3    H155633   3.082   2.502  14.748 -0.5369  0.2341  0.1421
11406TIP3    H255634   3.111   2.458  14.606 -0.0590 -0.4773  0.4580
11407TIP3   OH255635   0.082   4.604  10.388  0.0546 -0.1573 -0.7854
11407TIP3    H155636   0.090   4.680  10.331  1.1621  0.1425 -0.2509
11407TIP3    H255637   0.122   4.532  10.339  1.0329  0.1066 -0.3987
11408TIP3   OH255638   3.882   2.281  15.364  0.4927  0.1912  0.2306
11408TIP3    H155639   3.801   2.281  15.416  0.0130  0.2874 -0.5057
11408TIP3    H255640   3.879   2.198  15.316 -0.8405  1.5987 -2.3228
11409TIP3   OH255641   0.260   2.056  16.523  0.2094 -0.2528  0.4403
11409TIP3    H155642   0.286   2.146  16.543 -0.1723  0.7716 -2.9742
11409TIP3    H255643   0.341   2.011  16.502  0.5071 -1.0651  3.0352
11410TIP3   OH255644   0.250   3.888   3.561  0.6195 -0.2739 -0.0339
11410TIP3    H155645   0.343   3.864   3.563  0.7797  0.3537  0.5045
11410TIP3    H255646   0.213   3.849   3.640  0.0270 -2.0017 -1.1239
11411TIP3   OH255647   3.515   6.031  11.594  0.4224 -0.2585  0.0938
11411TIP3    H155648   3.510   6.078  11.510 -1.4814 -2.0457 -0.8998
11411TIP3    H255649   3.480   6.093  11.658 -1.3751  0.0242 -1.0591
11412TIP3   OH255650   4.498   2.243  15.927 -0.1994  0.0768  0.1651
11412TIP3    H155651   4.583   2.270  15.891 -0.2990  0.0660 -0.0783
11412TIP3    H255652   4.513   2.240  16.022 -0.4613  1.9707  0.3053
11413TIP3   OH255653   1.781   4.627   6.454  0.2472  0.6079 -0.2700
11413TIP3    H155654   1.865   4.581   6.453  0.5477  0.9204  2.3801
11413TIP3    H255655   1.715   4.558   6.446  0.7431  0.2413 -1.2417
11414TIP3   OH255656   0.799   2.112   0.286 -0.2414 -0.0964  0.4121
11414TIP3    H155657   0.732   2.116   0.354  0.0005  0.4897  0.6179
11414TIP3    H255658   0.762   2.053   0.220 -0.9335  0.1816  0.5447
11415TIP3   OH255659   6.544   0.756   4.310 -0.3664  0.1869  0.7334
11415TIP3    H155660   6.591   0.703   4.375  1.1127 -0.4230 -0.7407
11415TIP3    H255661   6.560   0.711   4.227 -0.8540  1.8024 -0.2794
11416TIP3   OH255662   3.324   4.859  11.442  0.5544 -0.7060  0.3448
11416TIP3    H155663   3.302   4.829  11.354  0.6806  0.1622  0.0120
11416TIP3    H255664   3.290   4.790  11.500 -0.1387 -0.9503 -0.3370
11417TIP3   OH255665   2.532   6.723   0.105  0.1786  0.5121 -0.2402
11417TIP3    H155666   2.617   6.755   0.137 -0.7808  0.5023  2.5525
11417TIP3    H255667   2.468   6.781   0.146 -1.3692 -2.0013  1.1049
11418TIP3   OH255668   1.004   0.129  12.237 -0.1609  0.1837 -0.5031
11418TIP3    H155669   1.078   0.120  12.297 -0.8923 -0.8471  0.2687
11418TIP3    H255670   0.940   0.182  12.284 -0.3147  0.2650 -0.7942
11419TIP3   OH255671   4.609   1.599   4.456 -0.2503  0.2507  0.1262
11419TIP3    H155672   4.639   1.647   4.379  0.7553 -0.1896  0.2216
11419TIP3    H255673   4.684   1.601   4.515 -0.6933 -0.2094  0.7114
11420TIP3   OH255674   1.277   4.351   0.928 -0.3503 -0.1207 -0.0723
11420TIP3    H155675   1.305   4.379   0.841  1.0776  1.6068  0.8810
11420TIP3    H255676   1.230   4.425   0.965 -0.6457 -0.6996  0.7678
11421TIP3   OH255677   1.150   4.558   2.354 -0.2584 -0.3845 -0.1360
11421TIP3    H155678   1.159   4.499   2.429  0.8927  0.4443  0.3969
11421TIP3    H255679   1.060   4.590   2.360 -0.5216 -1.1641  0.2466
11422TIP3   OH255680   3.035   4.062   0.412 -0.2385  0.3205  0.3226
11422TIP3    H155681   2.942   4.043   0.421 -0.7687  2.9709  1.1965
11422TIP3    H255682   3.064   4.083   0.501  0.8219  0.9816 -0.1603
11423TIP3   OH255683   2.811   4.492  16.845 -0.5254 -0.5050  0.1306
11423TIP3    H155684   2.732   4.465  16.798 -1.6697 -0.0923  1.7226
11423TIP3    H255685   2.865   4.413  16.848 -0.9697 -0.8559 -0.8091
11424TIP3   OH255686   1.502   5.135   1.342  0.1167 -0.2283 -0.7755
11424TIP3    H155687   1.538   5.100   1.423 -0.1241 -2.8114 -1.7029
11424TIP3    H255688   1.578   5.156   1.288  0.4236 -3.6574 -1.9016
11425TIP3   OH255689   5.518   3.700   4.864 -0.5893 -0.1093  0.8434
11425TIP3    H155690   5.526   3.605   4.863  1.7201  0.0133 -0.0938
11425TIP3    H255691   5.609   3.731   4.862 -1.2868  2.1228  1.0296
11426TIP3   OH255692   5.325   4.602   1.174  0.0113  0.0650  0.1306
11426TIP3    H155693   5.237   4.623   1.207 -0.0582 -2.6957  2.0943
11426TIP3    H255694   5.379   4.677   1.198 -0.9619 -0.0206  2.8592
11427TIP3   OH255695   0.304   3.644   3.922  0.0659 -0.4281  0.7502
11427TIP3    H155696   0.250   3.705   3.872 -0.9526 -1.4405  0.5847
11427TIP3    H255697   0.334   3.580   3.857 -0.5128 -1.2293  1.2645
11428TIP3   OH255698   3.104   5.990   1.162 -0.2932  0.1302 -0.5155
11428TIP3    H155699   3.200   5.989   1.164 -0.2801  0.8939 -0.5359
11428TIP3    H255700   3.082   5.967   1.072 -0.1372 -0.2516 -0.4586
11429TIP3   OH255701   5.013   6.645  12.405 -0.0351 -0.3319  0.2835
11429TIP3    H155702   5.059   6.561  12.415 -0.3242 -0.5636 -0.2974
11429TIP3    H255703   4.928   6.630  12.446 -0.5899 -0.7539 -0.9817
11430TIP3   OH255704   0.296   4.064   4.904  0.5619 -0.5437 -0.2093
11430TIP3    H155705   0.256   4.096   4.823 -0.0013  0.6238  0.4994
11430TIP3    H255706   0.224   4.063   4.967  0.8564 -2.0195  0.1358
11431TIP3   OH255707   4.386   1.323   3.978  0.1336  0.3415  0.4048
11431TIP3    H155708   4.332   1.395   4.012  0.5425 -0.0476  1.9370
11431TIP3    H255709   4.467   1.365   3.950  0.2563  0.5239  1.0222
11432TIP3   OH255710   5.187   5.750   2.934 -0.4105 -0.6149 -0.0233
11432TIP3    H155711   5.231   5.802   3.002  1.2926  0.2324 -1.6740
11432TIP3    H255712   5.248   5.751   2.861 -2.0343 -1.7847 -1.4602
11433TIP3   OH255713   5.643   5.812   6.065  0.1440  0.4776 -0.3046
11433TIP3    H155714   5.625   5.904   6.084  2.7531  0.8684  0.7443
11433TIP3    H255715   5.733   5.799   6.096 -0.3126 -2.5629 -0.0037
11434TIP3   OH255716   1.202   6.668   2.364 -0.2725 -0.0264 -0.4385
11434TIP3    H155717   1.178   6.689   2.274 -0.2555 -0.1829 -0.4807
11434TIP3    H255718   1.197   6.751   2.411  0.9165  0.2999 -0.8433
11435TIP3   OH255719   5.409   5.111   0.207  0.0914  0.0895 -0.1618
11435TIP3    H155720   5.458   5.183   0.170 -2.4736  1.8489 -0.3936
11435TIP3    H255721   5.317   5.134   0.192 -0.8728 -2.4247  1.2519
11436TIP3   OH255722   3.292   0.948   4.967 -0.0873 -0.3121 -0.4066
11436TIP3    H155723   3.338   0.912   4.892 -0.6956 -0.2640 -0.8104
11436TIP3    H255724   3.201   0.955   4.939 -0.2067  0.3402  0.1034
11437TIP3   OH255725   4.039   2.661  15.851 -0.1202 -0.3228 -0.0604
11437TIP3    H155726   4.024   2.596  15.782  0.4398 -0.5951  0.0707
11437TIP3    H255727   3.951   2.690  15.876 -0.3024  0.5063 -1.5551
11438TIP3   OH255728   5.269   0.814   1.500  0.3133 -0.0645 -0.4771
11438TIP3    H155729   5.309   0.744   1.447  0.7953 -0.9644  1.0130
11438TIP3    H255730   5.270   0.780   1.589  2.4746  2.6718  0.6823
11439TIP3   OH255731   1.174   1.137  15.794 -0.3830 -0.0879  0.0271
11439TIP3    H155732   1.162   1.181  15.878 -0.4001 -0.3417  0.1579
11439TIP3    H255733   1.268   1.121  15.788 -0.3890 -0.1227  0.0233
11440TIP3   OH255734   6.552   1.790   5.041 -0.0725 -0.1685  0.0771
11440TIP3    H155735   6.504   1.764   5.120  2.9356  0.1460  2.1638
11440TIP3    H255736   6.628   1.733   5.039  1.0707  1.3040 -1.3734
11441TIP3   OH255737   4.248   4.903  11.878 -0.1068 -0.0525 -0.3369
11441TIP3    H155738   4.217   4.917  11.967 -0.5975 -0.8612 -0.3712
11441TIP3    H255739   4.316   4.970  11.865 -0.3503  0.3608  0.4760
11442TIP3   OH255740   5.609   0.099   5.234 -0.0167 -0.2917 -0.5745
11442TIP3    H155741   5.683   0.059   5.187  1.5934 -0.9995  2.2878
11442TIP3    H255742   5.539   0.034   5.228  0.3119 -0.5773 -1.5285
11443TIP3   OH255743   6.623   0.014   5.126  0.1633 -0.1377  0.0469
11443TIP3    H155744   6.623  -0.067   5.074  0.9353 -0.3329  0.3337
11443TIP3    H255745   6.564   0.073   5.079  0.9319 -0.2646 -1.1343
11444TIP3   OH255746   2.286   1.140  17.019  0.6728  0.2858 -0.4582
11444TIP3    H155747   2.285   1.086  17.098 -0.3775 -0.9322 -1.2611
11444TIP3    H255748   2.353   1.206  17.036  0.7406 -0.1796  1.2832
11445TIP3   OH255749   0.817   6.082   1.791  0.1491  0.4365  0.6301
11445TIP3    H155750   0.788   6.018   1.727 -0.4760 -0.0384  1.3701
11445TIP3    H255751   0.903   6.050   1.820  0.7764  1.0580 -0.4979
11446TIP3   OH255752   0.422   0.514  14.090 -0.2824  0.2578 -0.1230
11446TIP3    H155753   0.435   0.530  14.184 -2.9879  1.7373  0.1024
11446TIP3    H255754   0.466   0.587  14.047  1.3529 -0.6624 -0.0932
11447TIP3   OH255755   0.781   0.048  11.302  0.4656  0.0322  0.2883
11447TIP3    H155756   0.867   0.008  11.318  0.4386 -0.8604 -1.5281
11447TIP3    H255757   0.800   0.127  11.251  0.1999 -0.7204 -1.0434
11448TIP3   OH255758   6.555   5.420  14.754  0.8053 -0.9633  0.0103
11448TIP3    H155759   6.650   5.430  14.756  0.7868 -0.8766  1.1313
11448TIP3    H255760   6.526   5.450  14.840 -0.3068 -0.3622 -0.5493
11449TIP3   OH255761   3.978   5.827   3.080  0.2730 -0.5226 -0.0365
11449TIP3    H155762   4.025   5.753   3.120  0.9584  0.1775  0.4905
11449TIP3    H255763   3.971   5.892   3.150 -0.4111 -0.1300 -0.4626
11450TIP3   OH255764   2.960   5.618   0.837  0.3332  0.0860 -0.0723
11450TIP3    H155765   2.969   5.524   0.822  1.0501  0.2758 -0.9117
11450TIP3    H255766   2.993   5.659   0.757  1.0126  1.0789  0.6799
11451TIP3   OH255767   5.619   5.195  14.212 -0.0429 -0.2607  0.9830
11451TIP3    H155768   5.540   5.249  14.219 -0.2618  0.1819 -2.6103
11451TIP3    H255769   5.588   5.105  14.218 -0.3591 -0.0709  2.4544
11452TIP3   OH255770   4.953   1.950  12.808 -0.2354  0.8230 -0.1140
11452TIP3    H155771   4.930   1.984  12.721 -1.5949  0.5670  0.1167
11452TIP3    H255772   4.947   1.855  12.799 -2.8531  0.8064  0.8161
11453TIP3   OH255773   6.021   3.264  16.779  0.1705 -0.0543 -0.1159
11453TIP3    H155774   5.959   3.336  16.793  0.3558  0.0624  0.1371
11453TIP3    H255775   6.043   3.269  16.686 -1.1065 -0.8509 -0.4773
11454TIP3   OH255776   5.346   3.911  16.589 -0.7564  0.5282  0.1959
11454TIP3    H155777   5.386   3.928  16.674 -2.1120 -0.5972  1.1083
11454TIP3    H255778   5.331   3.816  16.588 -2.2030  0.7272 -0.5973
11455TIP3   OH255779   2.914   0.031   4.058  0.3272  0.2975  0.3400
11455TIP3    H155780   2.819   0.020   4.056  0.3733 -0.0873 -0.2045
11455TIP3    H255781   2.938   0.014   4.149  0.1852 -2.6977 -0.0703
11456TIP3   OH255782   1.749   5.068  12.199 -0.4999  0.4017 -0.0038
11456TIP3    H155783   1.783   5.152  12.229 -2.6215  1.4631 -0.3742
11456TIP3    H255784   1.667   5.056  12.249 -1.5387 -0.1860 -1.7599
11457TIP3   OH255785   1.543   2.608  14.529  0.0492  0.3013 -0.2350
11457TIP3    H155786   1.560   2.612  14.623 -2.6396  0.2246  0.3280
11457TIP3    H255787   1.453   2.576  14.522  0.3681 -0.2573 -2.8711
11458TIP3   OH255788   5.836   6.577  11.420  0.0698 -0.0336  0.2525
11458TIP3    H155789   5.770   6.511  11.442  0.0203 -0.6822 -1.6884
11458TIP3    H255790   5.796   6.629  11.350  0.8802  0.8018  0.3899
11459TIP3   OH255791   6.222   3.928  12.491 -0.1089 -0.6478  0.3908
11459TIP3    H155792   6.135   3.888  12.498 -0.0582 -0.8632 -0.1623
11459TIP3    H255793   6.269   3.895  12.568 -0.5673 -0.3872  0.7904
11460TIP3   OH255794   1.130   3.829  16.551 -0.8067  0.2138 -0.1256
11460TIP3    H155795   1.121   3.818  16.456  1.2664  1.3483 -0.5320
11460TIP3    H255796   1.222   3.808  16.569 -1.4769 -1.3031  1.8738
11461TIP3   OH255797   6.028   0.742   4.745 -0.3031 -0.0437 -0.2139
11461TIP3    H155798   5.955   0.758   4.804 -0.5988 -0.5871 -0.4196
11461TIP3    H255799   6.058   0.829   4.718  0.6770  0.2582  1.7154
11462TIP3   OH255800   2.746   3.659   0.923 -0.4803 -0.0959 -0.0041
11462TIP3    H155801   2.698   3.612   0.991 -0.3041  0.7334  0.7173
11462TIP3    H255802   2.825   3.607   0.909  0.0838  0.3550  1.3398
11463TIP3   OH255803   1.352   0.596  11.724 -0.5214 -0.0351  0.1666
11463TIP3    H155804   1.435   0.642  11.733 -0.1267 -0.7838  0.3897
11463TIP3    H255805   1.295   0.658  11.677  0.0904  0.5564  0.1996
11464TIP3   OH255806   6.603   3.724   2.694 -0.0646  0.2132 -0.2203
11464TIP3    H155807   6.592   3.701   2.602 -0.0297  2.0556 -0.7116
11464TIP3    H255808   6.516   3.711   2.732  0.1568 -1.5756 -0.2254
11465TIP3   OH255809   3.843   1.049   2.026  0.4400  0.1745  0.8968
11465TIP3    H155810   3.894   1.130   2.016 -0.2255  0.4887 -0.2610
11465TIP3    H255811   3.887   1.001   2.095  2.1849  0.5211  0.0878
11466TIP3   OH255812   6.317   3.663  10.915 -0.7521 -0.3287 -0.3072
11466TIP3    H155813   6.242   3.649  10.974  0.3287  0.7399  1.4075
11466TIP3    H255814   6.277   3.691  10.833 -2.2681  1.7102  0.9971
11467TIP3   OH255815   1.556   6.321   5.624  0.1427 -0.1715  0.0020
11467TIP3    H155816   1.592   6.342   5.538  1.1523  0.2617  0.5151
11467TIP3    H255817   1.492   6.252   5.607  0.0970  0.1401 -1.1358
11468TIP3   OH255818   1.512   2.096   1.575 -0.0340  0.3757  0.2018
11468TIP3    H155819   1.540   2.158   1.508  0.9229  1.7780  1.8249
11468TIP3    H255820   1.578   2.104   1.644 -1.3843 -0.4835  1.6480
11469TIP3   OH255821   5.104   5.253  13.701  0.0769  0.1326  0.4978
11469TIP3    H155822   5.087   5.172  13.653 -0.1591  0.3122  0.2755
11469TIP3    H255823   5.175   5.231  13.761  0.0201 -0.2363  0.4310
11470TIP3   OH255824   1.517   3.199   1.202 -0.1161  0.5797 -0.6271
11470TIP3    H155825   1.489   3.141   1.273 -0.5681  0.7211 -0.6854
11470TIP3    H255826   1.567   3.268   1.246  1.1006 -0.2630 -0.6428
11471TIP3   OH255827   6.328   6.595  13.250 -0.4983 -0.0122 -0.1325
11471TIP3    H155828   6.416   6.592  13.212 -0.7286  0.1585 -0.7058
11471TIP3    H255829   6.334   6.662  13.318  0.4771 -1.8077  1.6518
11472TIP3   OH255830   2.622   1.233  13.224 -0.1319 -0.6678  0.0982
11472TIP3    H155831   2.683   1.185  13.280 -0.1032 -0.3920  0.3076
11472TIP3    H255832   2.607   1.315  13.270 -0.7940 -0.7998  0.1392
11473TIP3   OH255833   3.087   6.739  11.043  0.0868 -0.2756 -0.0877
11473TIP3    H155834   3.087   6.774  11.132 -1.1464 -0.9357  0.1834
11473TIP3    H255835   3.108   6.646  11.054 -1.2373 -0.6201 -0.3601
11474TIP3   OH255836   4.258   3.379  11.827  0.2959 -0.0196 -0.1875
11474TIP3    H155837   4.344   3.419  11.813 -0.4153  1.6001 -0.1861
11474TIP3    H255838   4.232   3.348  11.740  0.8914 -0.5801 -0.1754
11475TIP3   OH255839   2.262   3.739  16.765  0.2737 -0.2723 -0.3402
11475TIP3    H155840   2.340   3.686  16.784  0.1764 -0.0676  0.7059
11475TIP3    H255841   2.287   3.828  16.790 -0.8577 -0.4913  1.7859
11476TIP3   OH255842   0.676   3.375   3.938 -0.3196  0.2982  0.2398
11476TIP3    H155843   0.752   3.413   3.895 -0.4213 -0.0726 -0.2778
11476TIP3    H255844   0.632   3.450   3.979 -0.7571  0.8256 -1.1296
11477TIP3   OH255845   4.902   4.550   5.549  0.5848 -0.2405 -0.4639
11477TIP3    H155846   4.995   4.547   5.526  0.3692 -2.2495 -1.2350
11477TIP3    H255847   4.901   4.565   5.643  1.7605 -1.9665 -0.1390
11478TIP3   OH255848   4.936   1.725   3.108 -0.0501 -1.0828  0.0616
11478TIP3    H155849   4.989   1.752   3.183 -2.2084 -0.0205  1.3042
11478TIP3    H255850   4.902   1.639   3.132 -3.5733  0.6750  2.0589
11479TIP3   OH255851   0.515   5.281  16.576 -0.4379 -0.0007  0.1531
11479TIP3    H155852   0.508   5.353  16.513 -1.8472 -2.0568 -2.1971
11479TIP3    H255853   0.451   5.302  16.643 -0.7411  0.9981 -0.4269
11480TIP3   OH255854   2.668   3.187   2.946  0.4323 -0.4642 -0.1627
11480TIP3    H155855   2.638   3.266   2.992  0.8907  1.1748 -2.5412
11480TIP3    H255856   2.587   3.146   2.914  0.2016 -0.9756  0.9976
11481TIP3   OH255857   2.885   2.054  10.954 -0.6703 -0.1650  0.4042
11481TIP3    H155858   2.931   2.017  10.879 -0.9940  0.7474 -0.2655
11481TIP3    H255859   2.950   2.057  11.024 -0.2997 -0.8019  0.0940
11482TIP3   OH255860   1.287   3.819  15.126  0.2158  0.2074  0.2187
11482TIP3    H155861   1.265   3.835  15.218 -0.9345 -0.5438  0.0934
11482TIP3    H255862   1.344   3.892  15.102  1.1332  0.0240  1.7245
11483TIP3   OH255863   6.657   5.381  16.006  0.0790 -0.2798  0.5853
11483TIP3    H155864   6.631   5.474  16.011 -2.2391 -0.8070 -0.2266
11483TIP3    H255865   6.620   5.342  16.085  0.3948 -0.6651  0.5434
11484TIP3   OH255866   4.397   3.246  15.878  0.0550 -0.1815  0.4656
11484TIP3    H155867   4.360   3.202  15.954 -0.0058 -2.9590 -1.0285
11484TIP3    H255868   4.378   3.188  15.805  0.8478  1.9475 -1.5739
11485TIP3   OH255869   6.520   1.226  16.333 -0.2337 -0.8337  0.0465
11485TIP3    H155870   6.496   1.133  16.339 -0.9511 -0.7318 -1.0012
11485TIP3    H255871   6.456   1.270  16.389 -0.4587 -0.8858 -0.1681
11486TIP3   OH255872   3.067   0.857  15.837  0.7291 -0.1847  0.1357
11486TIP3    H155873   3.127   0.922  15.801  0.4847  0.5556  1.0319
11486TIP3    H255874   3.122   0.781  15.856  1.8401  1.1230  2.7475
11487TIP3   OH255875   1.886   2.018  14.958 -0.9618  0.4166 -0.1263
11487TIP3    H155876   1.854   2.034  15.047  0.4742 -0.6036  0.5973
11487TIP3    H255877   1.958   1.957  14.969 -1.2440 -0.3158 -2.0816
11488TIP3   OH255878   1.153   4.392   2.571  0.9756 -0.3043 -0.1377
11488TIP3    H155879   1.245   4.412   2.551  0.4627  3.1075  0.3200
11488TIP3    H255880   1.147   4.397   2.666  0.2008  0.0501 -0.2014
11489TIP3   OH255881   6.082   6.274  14.112  0.4956  0.2656  0.2468
11489TIP3    H155882   6.093   6.204  14.177  0.0146 -1.8170 -1.7896
11489TIP3    H255883   5.988   6.291  14.111  0.5872  0.8448  0.5864
11490TIP3   OH255884   6.554   6.720  16.952 -0.6060  0.4004  0.0941
11490TIP3    H155885   6.563   6.797  16.897 -0.0629  0.2693 -0.0025
11490TIP3    H255886   6.461   6.717  16.974 -0.5891  1.2160  0.2927
11491TIP3   OH255887   6.443   0.802   2.131 -0.0134 -0.8385 -0.0658
11491TIP3    H155888   6.392   0.851   2.067  0.7871  0.2338  0.0941
11491TIP3    H255889   6.501   0.747   2.078  0.6267  0.0243 -0.2735
11492TIP3   OH255890   0.135   1.850  14.149 -0.4718  0.2662  0.0931
11492TIP3    H155891   0.046   1.813  14.153 -0.4060 -0.1493 -1.5167
11492TIP3    H255892   0.186   1.784  14.102  0.4567  0.9474  0.1258
11493TIP3   OH255893   4.049   6.144  13.119 -0.0633 -0.6632 -0.4728
11493TIP3    H155894   4.125   6.086  13.126  0.5295  0.1065 -0.3007
11493TIP3    H255895   4.054   6.180  13.030  1.6934  1.8575  0.4973
11494TIP3   OH255896   3.073   2.937   0.611  0.7888  0.6237 -0.5622
11494TIP3    H155897   3.044   2.898   0.529 -0.7447  0.1603  0.1770
11494TIP3    H255898   3.009   3.006   0.630  1.0105  0.6006  0.3386
11495TIP3   OH255899   1.512   1.930   1.333  0.0327 -0.2067  0.3082
11495TIP3    H155900   1.514   1.971   1.419  0.2045  0.9720 -0.2450
11495TIP3    H255901   1.593   1.958   1.291  0.4979 -1.6847  0.1604
11496TIP3   OH255902   1.151   6.541   0.177 -0.0752 -0.3966  0.1928
11496TIP3    H155903   1.124   6.523   0.087  2.2370 -0.3587 -0.5911
11496TIP3    H255904   1.234   6.494   0.186  0.8285  1.3652  1.5716
11497TIP3   OH255905   4.987   4.388  11.021  0.4863  0.2998 -0.0351
11497TIP3    H155906   4.917   4.353  11.076  0.8394  0.4660  0.5402
11497TIP3    H255907   4.960   4.478  11.002 -1.1013 -0.6588 -2.6881
11498TIP3   OH255908   2.033   0.460   4.896 -0.7161  0.0274  0.0489
11498TIP3    H155909   1.958   0.404   4.882 -1.3324  0.4870  1.3536
11498TIP3    H255910   2.001   0.549   4.879  0.2068  0.0571 -1.8603
11499TIP3   OH255911   1.898   6.289  12.314  0.2324 -0.0364 -0.3635
11499TIP3    H155912   1.967   6.342  12.275  1.3215 -2.0239 -1.2837
11499TIP3    H255913   1.835   6.275  12.244  0.6181 -1.0267 -0.5252
11500TIP3   OH255914   3.526   3.896   0.014 -0.0555 -0.6264 -0.0028
11500TIP3    H155915   3.563   3.822  -0.034  1.0423  0.0190 -0.1995
11500TIP3    H255916   3.585   3.907   0.089 -1.0693 -0.8791  0.8512
11501TIP3   OH255917   2.262   5.337  13.725  0.1945  0.1652  0.5310
11501TIP3    H155918   2.223   5.252  13.747  0.1264  0.4518  1.5733
11501TIP3    H255919   2.235   5.395  13.796 -0.3176  1.2502 -0.4937
11502TIP3   OH255920   5.894   1.871  14.766  0.2009 -0.2202  0.4531
11502TIP3    H155921   5.944   1.837  14.841  1.0449 -0.3865 -0.1695
11502TIP3    H255922   5.878   1.795  14.711 -2.2234 -0.4935  1.4231
11503TIP3   OH255923   3.087   0.571  16.882  0.8834  0.1545 -0.1115
11503TIP3    H155924   3.157   0.624  16.920 -1.6547  2.9137  1.0629
11503TIP3    H255925   3.054   0.518  16.955 -0.4001  1.3659  0.2122
11504TIP3   OH255926   3.564   1.152  16.914  0.2231 -0.0199 -0.6201
11504TIP3    H155927   3.589   1.234  16.956 -2.8131  1.5111 -1.5040
11504TIP3    H255928   3.595   1.162  16.824 -1.9853  1.2570 -1.3300
11505TIP3   OH255929   5.126   3.711  10.171  0.1276 -0.6645  0.3180
11505TIP3    H155930   5.061   3.779  10.187 -0.2682 -1.1968  1.0264
11505TIP3    H255931   5.140   3.712  10.076 -2.6594 -2.0992 -0.1974
11506TIP3   OH255932   2.684   3.746   4.487  0.0465  0.4033  0.3698
11506TIP3    H155933   2.617   3.678   4.496  0.4151 -0.0174  0.0152
11506TIP3    H255934   2.767   3.698   4.489  0.3242  0.8883  0.5130
11507TIP3   OH255935   1.699   1.326  16.204 -0.1246  0.4013  0.2230
11507TIP3    H155936   1.625   1.387  16.196  0.7355  1.3362 -0.9065
11507TIP3    H255937   1.707   1.287  16.117  1.8203  1.6568 -0.2126
11508TIP3   OH255938   3.978   1.701   3.658  0.5906  0.2024 -0.3416
11508TIP3    H155939   3.891   1.720   3.692  0.8664 -1.5686  1.5510
11508TIP3    H255940   4.037   1.756   3.710  0.6158  2.2595 -2.3768
11509TIP3   OH255941   5.474   4.030  16.934  0.0020  0.1478  0.3201
11509TIP3    H155942   5.513   3.942  16.936 -0.8194 -0.2585 -0.9724
11509TIP3    H255943   5.493   4.066  17.021 -2.8956 -2.7278  2.3368
11510TIP3   OH255944   1.573   1.241   2.805  0.0256 -0.2934  0.2502
11510TIP3    H155945   1.590   1.152   2.835 -0.4679 -0.5361 -0.1631
11510TIP3    H255946   1.658   1.284   2.806  0.3635 -0.9421 -0.0807
11511TIP3   OH255947   0.665   6.700  11.972 -0.5332 -0.3168 -0.8533
11511TIP3    H155948   0.655   6.648  11.892 -0.3977 -2.3510  0.3782
11511TIP3    H255949   0.744   6.666  12.013  0.7638  2.3231 -0.9543
11512TIP3   OH255950   1.221   3.724  13.220  0.5677  0.0862 -0.4392
11512TIP3    H155951   1.195   3.758  13.135 -0.6936 -0.5095 -0.3139
11512TIP3    H255952   1.150   3.750  13.279  0.7395 -0.7170  0.1324
11513TIP3   OH255953   1.421   5.216  13.237  0.4028  0.0537  0.0144
11513TIP3    H155954   1.356   5.286  13.245  0.2990  0.2225 -1.7748
11513TIP3    H255955   1.438   5.188  13.327 -1.8154  0.3062  0.5812
11514TIP3   OH255956   5.598   5.124  11.754 -0.3674  0.1530  0.3553
11514TIP3    H155957   5.643   5.141  11.837  2.6790  1.2858 -1.4103
11514TIP3    H255958   5.594   5.209  11.710  0.6729 -0.8767 -1.8572
11515TIP3   OH255959   2.826   3.480  14.843  0.5811 -0.1056 -0.3292
11515TIP3    H155960   2.770   3.452  14.771 -0.1238 -1.2331  0.6202
11515TIP3    H255961   2.794   3.568  14.865  2.3168  1.2543 -2.8453
11516TIP3   OH255962   3.773   1.627   6.270 -0.0461 -0.1107 -0.1372
11516TIP3    H155963   3.740   1.627   6.180  1.1224  1.4325 -0.6011
11516TIP3    H255964   3.696   1.651   6.323 -0.0280  2.4907 -1.1076
11517TIP3   OH255965   2.218   4.414  14.671  0.2159 -0.5395  0.2612
11517TIP3    H155966   2.125   4.432  14.657  0.5003  0.2365 -0.6556
11517TIP3    H255967   2.246   4.479  14.736  0.6591  0.8031 -1.2230
11518TIP3   OH255968   5.361   3.707  12.461 -0.5635 -0.6920  0.8565
11518TIP3    H155969   5.408   3.634  12.419  0.5362  0.0697  0.7020
11518TIP3    H255970   5.320   3.754  12.388  0.1173 -0.2169  0.7679
11519TIP3   OH255971   5.288   0.624   1.737 -0.0938  0.6206 -0.0048
11519TIP3    H155972   5.220   0.630   1.804 -0.7061  1.2261 -0.6603
11519TIP3    H255973   5.305   0.531   1.728  1.4539  0.5624  2.4069
11520TIP3   OH255974   1.015   5.737  15.470  0.0383  0.1369 -0.2944
11520TIP3    H155975   0.945   5.802  15.464 -0.5749 -0.3414  1.2752
11520TIP3    H255976   0.972   5.653  15.452  0.1744 -0.1622  0.6868
11521TIP3   OH255977   4.334   4.613   0.232 -0.9519  0.4454 -0.5035
11521TIP3    H155978   4.406   4.563   0.194  0.8046  1.9490  0.6543
11521TIP3    H255979   4.354   4.617   0.325 -1.5260  2.4278 -0.4130
11522TIP3   OH255980   6.690   0.067  11.865  1.1224 -0.2016 -0.2024
11522TIP3    H155981   6.632   0.003  11.823  2.1972 -0.8881 -0.6594
11522TIP3    H255982   6.733   0.018  11.935  1.2079  0.2895  0.0929
11523TIP3   OH255983   5.794   6.286   5.226  0.2080 -0.6951 -0.8695
11523TIP3    H155984   5.712   6.263   5.269  0.0241 -0.1859 -0.9367
11523TIP3    H255985   5.812   6.212   5.168  0.9737 -1.8442  0.7784
11524TIP3   OH255986   2.271   1.205  14.854 -0.3682 -0.6313  0.0509
11524TIP3    H155987   2.350   1.183  14.804 -0.7235 -1.4030 -0.2050
11524TIP3    H255988   2.294   1.189  14.945  0.8022  2.3527  0.3541
11525TIP3   OH255989   5.241   6.001  16.053  0.4698  0.7960  0.4963
11525TIP3    H155990   5.235   5.945  15.975  0.1443 -2.2046  2.5036
11525TIP3    H255991   5.199   6.083  16.026 -1.5506 -0.8483 -1.8814
11526TIP3   OH255992   2.940   4.397   4.753 -0.2832  0.1381  0.6509
11526TIP3    H155993   2.970   4.397   4.662 -1.2848 -0.7118  0.3170
11526TIP3    H255994   3.015   4.432   4.802  0.6482 -0.3657 -0.3687
11527TIP3   OH255995   3.979   1.186   0.902 -0.1575  0.1263  0.4716
11527TIP3    H155996   4.032   1.261   0.927 -0.9621  0.8172  0.1489
11527TIP3    H255997   3.977   1.131   0.981  3.0996 -1.2131 -0.2392
11528TIP3   OH255998   3.576   4.881  15.667  0.3999  0.3133 -0.2654
11528TIP3    H155999   3.616   4.872  15.581  0.2226 -1.4764 -0.2049
11528TIP3    H256000   3.566   4.791  15.698 -0.5790  0.8748  1.1483
11529TIP3   OH256001   3.230   3.022  16.054  0.4745  0.3869  0.1832
11529TIP3    H156002   3.206   3.060  16.139 -2.7582  0.2428 -0.5390
11529TIP3    H256003   3.148   2.988  16.019  1.4013  1.5116 -3.5757
11530TIP3   OH256004   4.600   1.018  15.104 -0.4106 -0.3716 -0.1709
11530TIP3    H156005   4.573   1.066  15.182 -1.7655 -1.5273  0.1129
11530TIP3    H256006   4.639   0.937  15.137 -0.9165 -0.8334 -0.6751
11531TIP3   OH256007   4.937   3.554  15.979  0.0593  0.0911 -0.2348
11531TIP3    H156008   4.891   3.470  15.976  1.8102 -0.8738 -1.1858
11531TIP3    H256009   4.971   3.559  16.068 -1.1629  0.4581  0.2412
11532TIP3   OH256010   6.602   3.552  10.995  0.1349 -0.3576  0.1561
11532TIP3    H156011   6.696   3.563  10.978  0.2633 -1.3517  0.1519
11532TIP3    H256012   6.584   3.609  11.070  0.1167  2.0731 -1.5714
11533TIP3   OH256013   3.586   5.119  14.392 -0.1403 -0.1373 -0.0772
11533TIP3    H156014   3.517   5.183  14.375  0.3629  1.1609  2.2551
11533TIP3    H256015   3.568   5.088  14.481  2.4788  0.6389  0.8327
11534TIP3   OH256016   5.438   5.085  13.256 -0.1568  0.1997 -0.2580
11534TIP3    H156017   5.511   5.123  13.303 -0.0207 -0.3742  0.0067
11534TIP3    H256018   5.384   5.160  13.229  0.4625  0.6164 -0.3573
11535TIP3   OH256019   5.587   6.154   5.325 -0.3758 -0.4207 -0.2320
11535TIP3    H156020   5.588   6.149   5.421  0.4710  2.3377 -0.0127
11535TIP3    H256021   5.577   6.063   5.296 -1.0595 -1.2879  2.4554
11536TIP3   OH256022   5.542   2.945   4.804  0.4330 -0.3363  0.1590
11536TIP3    H156023   5.470   3.002   4.777  0.8395 -0.3638 -0.9949
11536TIP3    H256024   5.523   2.926   4.896  0.2738  1.6407  0.5904
11537TIP3   OH256025   2.585   2.835   0.909  0.0862  0.4115 -0.6022
11537TIP3    H156026   2.588   2.756   0.964 -0.4313  1.6029  1.2496
11537TIP3    H256027   2.669   2.837   0.864  1.6437  0.6487  2.1050
11538TIP3   OH256028   4.416   0.333   0.802  0.3888  0.0928  0.0844
11538TIP3    H156029   4.436   0.384   0.880  0.5350 -0.2974  0.3054
11538TIP3    H256030   4.337   0.374   0.766 -0.1977 -0.2620  0.9275
11539TIP3   OH256031   4.077   1.262   5.480 -0.7181  0.0361  0.5251
11539TIP3    H156032   4.011   1.328   5.459  0.2358  0.6645 -0.7002
11539TIP3    H256033   4.141   1.309   5.534 -0.5223 -0.1384  0.4459
11540TIP3   OH256034   2.264   5.815  12.926  0.4756  0.4106 -0.0029
11540TIP3    H156035   2.232   5.841  13.012  0.9298  2.8153 -0.4935
11540TIP3    H256036   2.206   5.860  12.864  0.7680 -0.4956 -0.9687
11541TIP3   OH256037   4.070   2.953  14.432  0.4124 -0.4137  0.1051
11541TIP3    H156038   4.116   2.987  14.509 -0.5855 -0.4679  0.7338
11541TIP3    H256039   3.984   2.927  14.465 -0.2854  0.2116 -1.1660
11542TIP3   OH256040   6.469   6.035   0.316 -0.1865 -0.0238 -0.0621
11542TIP3    H156041   6.513   6.120   0.319  1.5861 -0.9162  0.7180
11542TIP3    H256042   6.491   6.000   0.229  0.0365 -0.1625  0.0499
11543TIP3   OH256043   0.861   3.977   4.897 -0.6984  0.5042  0.7412
11543TIP3    H156044   0.947   3.979   4.855 -1.0437 -1.6398 -0.1675
11543TIP3    H256045   0.864   3.902   4.956 -2.4355 -0.6383 -0.5184
11544TIP3   OH256046   4.246   0.636  13.769 -0.3120  0.1703 -0.1064
11544TIP3    H156047   4.210   0.587  13.694  2.1513 -0.1831 -1.1765
11544TIP3    H256048   4.322   0.681  13.733 -0.7170  2.3597  1.5885
11545TIP3   OH256049   4.899   3.907  14.086  0.1636 -0.1741 -0.1190
11545TIP3    H156050   4.806   3.910  14.109  0.3457  0.1606  0.6012
11545TIP3    H256051   4.903   3.944  13.998 -0.6451 -2.1449 -1.0582
11546TIP3   OH256052   3.004   5.085   3.595 -0.3071  0.2762 -0.3409
11546TIP3    H156053   2.991   5.012   3.655  1.7557  0.6170  0.6221
11546TIP3    H256054   2.978   5.162   3.645 -0.5258  0.3834 -0.6183
11547TIP3   OH256055   3.248   2.164   3.666  0.2012  0.2154  0.4337
11547TIP3    H156056   3.209   2.083   3.631  1.2248  0.2517 -0.8753
11547TIP3    H256057   3.175   2.209   3.709 -0.4607 -1.2348  0.8843
11548TIP3   OH256058   2.066   4.484  16.582 -0.2936  0.6892  0.2765
11548TIP3    H156059   2.120   4.427  16.528 -0.5747  1.5412 -0.9414
11548TIP3    H256060   1.978   4.475  16.546 -0.7618  0.2554  1.4627
11549TIP3   OH256061   4.172   5.510  15.846 -0.1647  0.3402 -0.2011
11549TIP3    H156062   4.161   5.450  15.919  2.9411 -1.6154 -1.1335
11549TIP3    H256063   4.091   5.503  15.796 -2.2408  1.5109  2.7551
11550TIP3   OH256064   5.847   1.931   2.853  0.5313  0.4106 -0.4353
11550TIP3    H156065   5.756   1.921   2.880  1.0794  2.3023  2.6391
11550TIP3    H256066   5.884   1.843   2.863 -0.8247 -0.2812 -1.2590
11551TIP3   OH256067   2.031   0.307  14.993  0.2028  0.0492 -0.3682
11551TIP3    H156068   2.059   0.386  14.946  0.6639  0.7596  1.0307
11551TIP3    H256069   2.085   0.306  15.072 -1.6829 -0.1567  0.9896
11552TIP3   OH256070   2.067   6.732  13.137  0.2002 -0.0878 -0.1103
11552TIP3    H156071   2.141   6.727  13.076 -0.7582 -1.1530 -1.2183
11552TIP3    H256072   2.108   6.726  13.223  1.4889  0.3111 -0.6619
11553TIP3   OH256073   3.459   0.887   5.195  0.3244 -0.4027  0.8036
11553TIP3    H156074   3.487   0.806   5.154  2.1053 -0.7652  2.5648
11553TIP3    H256075   3.401   0.929   5.131  2.4627 -1.1833 -1.7678
11554TIP3   OH256076   3.122   0.351  12.941  0.3074 -0.5271 -0.2048
11554TIP3    H156077   3.056   0.420  12.947 -0.1560 -0.9241 -0.6423
11554TIP3    H256078   3.175   0.375  12.864  0.6380 -0.2395  0.1123
11555TIP3   OH256079   4.179   5.658  11.103 -0.4044 -0.2688  0.7869
11555TIP3    H156080   4.215   5.731  11.153 -1.1438  1.6008 -1.2215
11555TIP3    H256081   4.255   5.604  11.081  0.2354  0.1520  1.9231
11556TIP3   OH256082   0.908   6.201  15.414  0.1686  0.1632  0.0861
11556TIP3    H156083   0.937   6.133  15.475  2.7318  0.6464 -0.4455
11556TIP3    H256084   0.981   6.210  15.353 -1.7045  0.7389 -2.1750
11557TIP3   OH256085   0.297   0.656  16.903  0.3066 -0.1025  0.1010
11557TIP3    H156086   0.210   0.677  16.938  0.4690  0.7581  0.0280
11557TIP3    H256087   0.338   0.742  16.890  0.5775 -0.4378 -1.3679
11558TIP3   OH256088   1.895   1.040   6.473  0.2463 -0.9907 -0.0014
11558TIP3    H156089   1.853   0.984   6.539 -1.3723 -1.4523 -1.3586
11558TIP3    H256090   1.822   1.080   6.426  1.3072 -1.5611 -2.2640
11559TIP3   OH256091   0.632   1.873   6.435  0.0545 -0.2243 -0.0970
11559TIP3    H156092   0.580   1.874   6.355  1.4539 -1.3045 -1.0763
11559TIP3    H256093   0.723   1.883   6.404  0.8252 -2.6576  1.1422
11560TIP3   OH256094   3.399   4.425   1.979 -0.4882  0.0852  0.1738
11560TIP3    H156095   3.351   4.365   2.035  1.8834  0.5258  2.9229
11560TIP3    H256096   3.415   4.375   1.899 -3.1273 -0.9469  0.1962
11561TIP3   OH256097   0.543   4.158   5.025  0.0336 -0.2273 -0.0505
11561TIP3    H156098   0.452   4.134   5.006 -0.5279  0.0489  2.0700
11561TIP3    H256099   0.549   4.250   4.998 -0.1026 -0.4414 -0.8371
11562TIP3   OH256100   5.875   1.668   2.869  0.1390 -0.0590  0.4935
11562TIP3    H156101   5.900   1.665   2.962 -0.0354  0.0625  0.5458
11562TIP3    H256102   5.855   1.578   2.847 -0.7957  0.0533  0.8491
11563TIP3   OH256103   3.718   5.404  14.189  0.7230  0.6675 -0.1231
11563TIP3    H156104   3.723   5.460  14.112  2.2503 -2.1206 -2.2204
11563TIP3    H256105   3.798   5.422  14.238  0.2344  1.7136  0.3144
11564TIP3   OH256106   1.374   0.090   0.445 -0.2983  0.1030  0.5494
11564TIP3    H156107   1.357   0.172   0.399  1.9426  0.8494  0.9230
11564TIP3    H256108   1.467   0.073   0.430 -0.7304 -2.4376  0.4126
11565TIP3   OH256109   1.337   1.523  13.372 -0.2207 -0.0208 -0.2673
11565TIP3    H156110   1.273   1.593  13.384 -0.0706  0.1492 -0.4452
11565TIP3    H256111   1.286   1.451  13.334 -0.3657  0.0074 -0.1299
11566TIP3   OH256112   1.248   4.196   3.695 -0.3561 -1.4664 -0.3123
11566TIP3    H156113   1.199   4.171   3.773 -1.9872  0.6962 -0.5776
11566TIP3    H256114   1.188   4.180   3.622 -0.0581 -0.4101 -0.8088
11567TIP3   OH256115   4.082   3.481  17.036  0.0841 -0.1934  0.2913
11567TIP3    H156116   4.114   3.533  17.110  1.3713  0.0634 -0.4045
11567TIP3    H256117   4.139   3.404  17.035  0.6971  0.2427 -0.9492
11568TIP3   OH256118   3.429   5.831   3.209 -0.0439  0.1051 -0.6960
11568TIP3    H156119   3.430   5.889   3.286 -2.0621 -1.1220  0.3542
11568TIP3    H256120   3.385   5.882   3.141 -1.3428  0.0264  0.0559
11569TIP3   OH256121   1.117   0.285   2.457  0.0150  0.0625 -0.1821
11569TIP3    H156122   1.074   0.217   2.508  0.3963 -0.2015 -0.2050
11569TIP3    H256123   1.086   0.367   2.495 -0.9061 -0.1146 -0.5410
11570TIP3   OH256124   3.453   4.109   2.234 -0.1309 -0.5604 -0.5487
11570TIP3    H156125   3.505   4.163   2.294  1.4483 -0.4616 -1.9262
11570TIP3    H256126   3.381   4.166   2.207  0.4527  0.2159 -0.5153
11571TIP3   OH256127   2.496   5.763   5.529  0.4394  0.1240  0.5269
11571TIP3    H156128   2.506   5.796   5.440  0.6170 -0.8492  0.1691
11571TIP3    H256129   2.584   5.768   5.567  0.7064 -0.9634  0.0893
11572TIP3   OH256130   3.072   3.201   1.755  0.2885  0.3663  0.1006
11572TIP3    H156131   3.143   3.262   1.736 -0.2541  1.0998  0.3643
11572TIP3    H256132   3.076   3.136   1.686 -0.8182  2.2287 -1.8368
11573TIP3   OH256133   6.237   2.378  15.687 -0.0646  0.1148 -0.1153
11573TIP3    H156134   6.278   2.359  15.602  0.4223  0.4412  0.0416
11573TIP3    H256135   6.306   2.360  15.751 -0.5944 -0.6361  0.2545
11574TIP3   OH256136   0.151   1.487  11.627  0.3507 -1.0355 -0.1056
11574TIP3    H156137   0.148   1.542  11.549 -0.8100 -1.6238 -0.5008
11574TIP3    H256138   0.107   1.538  11.695 -0.3978 -1.3048 -0.3751
11575TIP3   OH256139   2.935   6.153   6.404 -0.1536  0.2812  0.0460
11575TIP3    H156140   3.004   6.197   6.454 -0.0381  0.5942 -0.3764
11575TIP3    H256141   2.856   6.165   6.456  0.1450 -0.2577  0.6345
11576TIP3   OH256142   1.877   4.358   5.137  0.0398 -0.2827 -0.3612
11576TIP3    H156143   1.894   4.407   5.217 -0.8589  0.1327 -0.4037
11576TIP3    H256144   1.786   4.330   5.145  0.0568 -0.5665 -1.0604
11577TIP3   OH256145   0.439   0.647  16.481  0.0394 -0.1879 -0.4326
11577TIP3    H156146   0.361   0.680  16.525 -2.3422 -4.9359 -0.4718
11577TIP3    H256147   0.500   0.627  16.553 -0.1345  0.3744 -0.1180
11578TIP3   OH256148   1.615   4.698  12.671 -0.1166  0.2056  0.3997
11578TIP3    H156149   1.543   4.760  12.674  0.2860  0.8633 -1.9761
11578TIP3    H256150   1.603   4.644  12.749 -2.7667  0.7152  0.4272
11579TIP3   OH256151   1.880   3.637   1.630 -0.1374  0.1287  0.1035
11579TIP3    H156152   1.944   3.633   1.559  0.7575 -0.8989  0.9393
11579TIP3    H256153   1.825   3.713   1.609  0.4957  0.2097 -1.3446
11580TIP3   OH256154   1.360   0.529   1.023  0.2874  0.2463 -0.0097
11580TIP3    H156155   1.432   0.471   1.048  2.6702  2.0236 -2.1542
11580TIP3    H256156   1.400   0.593   0.964 -2.9123  1.9387 -0.5996
11581TIP3   OH256157   2.191   0.731  16.640 -0.6511 -0.3984 -0.2084
11581TIP3    H156158   2.181   0.817  16.598 -0.1540  0.2037  0.8516
11581TIP3    H256159   2.127   0.675  16.596 -2.3927  1.0208  0.3923
11582TIP3   OH256160   1.623   3.893   4.041  0.0747  0.4686  0.0616
11582TIP3    H156161   1.660   3.892   4.129  0.0485  0.4801  0.0726
11582TIP3    H256162   1.558   3.822   4.041 -1.1500  1.5572  0.5653
11583TIP3   OH256163   6.542   5.102  12.781 -0.2432  0.3005  0.6610
11583TIP3    H156164   6.589   5.152  12.848 -0.3738  1.3085  0.0194
11583TIP3    H256165   6.470   5.061  12.827  0.5889 -0.3321  1.4433
11584TIP3   OH256166   2.548   2.352   2.612  0.4547 -0.1581  0.6180
11584TIP3    H156167   2.627   2.340   2.664 -0.6510 -0.2624  2.3432
11584TIP3    H256168   2.577   2.341   2.521  2.9135  2.4099  0.9574
11585TIP3   OH256169   0.018   1.709   5.684 -0.1842  0.0320 -0.7575
11585TIP3    H156170   0.014   1.637   5.622  1.4455 -2.0030  1.3350
11585TIP3    H256171  -0.046   1.687   5.751  1.4147 -0.4123  0.7187
11586TIP3   OH256172   3.465   4.606  16.098 -0.2082  0.1975 -0.1346
11586TIP3    H156173   3.489   4.536  16.159 -1.4926  0.1481  0.3432
11586TIP3    H256174   3.533   4.604  16.031  0.1099 -1.1063  0.2032
11587TIP3   OH256175   3.722   1.809  11.226  0.1325 -0.0014  0.0158
11587TIP3    H156176   3.694   1.872  11.159  1.3888  0.3548 -0.2102
11587TIP3    H256177   3.655   1.814  11.294 -0.8288  0.1029 -0.9184
11588TIP3   OH256178   0.788   0.303   1.247 -0.1208 -0.6971 -0.2754
11588TIP3    H156179   0.817   0.391   1.223  0.2710 -0.4756  0.9195
11588TIP3    H256180   0.868   0.252   1.254 -0.3270 -1.0850 -0.6959
11589TIP3   OH256181   4.948   4.818  15.537 -0.2108  0.5388  0.1279
11589TIP3    H156182   5.015   4.824  15.606 -0.1999 -0.2024  0.1937
11589TIP3    H256183   4.967   4.735  15.493 -0.0400  1.1419 -0.9666
11590TIP3   OH256184   4.677   3.106   5.667  0.0677  0.2245 -0.1914
11590TIP3    H156185   4.670   3.201   5.677  2.4237  0.4343  0.1082
11590TIP3    H256186   4.664   3.090   5.573  3.0548  1.3335 -0.9021
11591TIP3   OH256187   2.696   4.905   3.217 -0.1659 -0.4656 -0.5223
11591TIP3    H156188   2.653   4.926   3.135  0.8261 -2.0060 -1.5031
11591TIP3    H256189   2.781   4.948   3.212 -0.6053  0.5361  0.3105
11592TIP3   OH256190   2.115   1.087   4.702 -0.0167 -0.1471 -0.4132
11592TIP3    H156191   2.155   1.064   4.618 -0.0741  2.0574 -1.1275
11592TIP3    H256192   2.049   1.153   4.680 -1.1775 -0.6945  1.2140
11593TIP3   OH256193   2.798   0.775  12.057 -0.0451  0.0965  0.3419
11593TIP3    H156194   2.844   0.768  12.140 -0.4151  2.5390  0.8302
11593TIP3    H256195   2.817   0.693  12.012  0.1574 -1.3090  2.8181
11594TIP3   OH256196   3.217   6.036   4.358 -0.4849 -0.2493  0.6103
11594TIP3    H156197   3.252   5.954   4.323 -1.7132 -0.8348  0.6783
11594TIP3    H256198   3.240   6.034   4.451  1.0875  0.3812  0.2642
11595TIP3   OH256199   2.643   0.479  11.742 -0.5803  0.2036 -0.1016
11595TIP3    H156200   2.707   0.475  11.813 -0.6182 -2.3057 -0.1162
11595TIP3    H256201   2.680   0.540  11.679  0.7555  0.4301  0.8669
11596TIP3   OH256202   1.555   3.873  14.871  0.0630  0.5263  0.6113
11596TIP3    H156203   1.481   3.933  14.878 -1.1323 -0.9072  0.7660
11596TIP3    H256204   1.566   3.860  14.776  1.8672  2.7242  0.4108
11597TIP3   OH256205   1.545   2.011   3.247 -0.0880  0.6476  0.2460
11597TIP3    H156206   1.534   1.916   3.260 -1.0973  0.6099 -0.6804
11597TIP3    H256207   1.561   2.045   3.334  1.5612 -0.5167  0.4398
11598TIP3   OH256208   1.371   0.809  14.003  0.6622 -0.3904 -0.4749
11598TIP3    H156209   1.407   0.895  14.024  0.0836 -0.2996  0.1681
11598TIP3    H256210   1.358   0.812  13.908 -0.2199  0.5828 -0.3429
11599TIP3   OH256211   6.671   3.000   3.754  0.3624 -0.4505  0.1086
11599TIP3    H156212   6.579   3.026   3.746  0.5298 -0.1048 -0.9049
11599TIP3    H256213   6.715   3.079   3.785  0.4349 -0.3655 -0.2042
11600TIP3   OH256214   0.571   1.975  14.685  0.3721  0.3502 -0.0140
11600TIP3    H156215   0.503   1.977  14.616  2.1542  2.9773 -1.9177
11600TIP3    H256216   0.630   1.905  14.658  0.1604  0.2429 -0.2093
11601TIP3   OH256217   6.102   2.248  12.381 -0.3911  0.2451  0.3464
11601TIP3    H156218   6.125   2.328  12.427  1.3574  1.0393 -1.7334
11601TIP3    H256219   6.182   2.224  12.333 -1.0271 -2.4403  0.4634
11602TIP3   OH256220   6.122   0.279  11.492  0.0194 -0.5902 -0.0619
11602TIP3    H156221   6.136   0.186  11.510  0.1006 -0.3441  1.2659
11602TIP3    H256222   6.176   0.298  11.416 -2.1507 -2.2465 -2.1761
11603TIP3   OH256223   1.967   5.150  11.206 -0.0090 -0.0006  0.0779
11603TIP3    H156224   2.050   5.138  11.252  1.1405  1.0552 -1.6442
11603TIP3    H256225   1.908   5.087  11.249  1.6116 -0.7054  1.4170
11604TIP3   OH256226   0.533   3.045  14.539  0.4320 -0.0383 -0.4588
11604TIP3    H156227   0.514   3.107  14.469  0.1755  0.8586  0.3787
11604TIP3    H256228   0.625   3.059  14.559  0.1472  0.7530  0.3572
11605TIP3   OH256229   1.582   6.252  11.306  0.1010  0.0481  0.3584
11605TIP3    H156230   1.642   6.327  11.309  1.9296 -1.3804  1.8795
11605TIP3    H256231   1.620   6.194  11.240 -0.5159 -0.1676  0.1913
11606TIP3   OH256232   6.029   1.054   1.022 -0.0745  0.6353 -0.0840
11606TIP3    H156233   5.967   1.030   1.091 -1.3858  0.0135 -1.4236
11606TIP3    H256234   6.036   1.149   1.027  0.4150  0.5462  1.3486
11607TIP3   OH256235   2.512   5.939   0.374  0.4763 -0.5450  0.2872
11607TIP3    H156236   2.418   5.958   0.381  0.6700  0.6115 -0.1751
11607TIP3    H256237   2.537   5.974   0.289  2.1788  2.8780  2.0405
11608TIP3   OH256238   0.101   0.430   4.305  0.1803 -0.1251  0.1611
11608TIP3    H156239   0.025   0.411   4.359  0.8047  1.0404  1.5174
11608TIP3    H256240   0.100   0.525   4.295  0.4063 -0.2651 -1.4233
11609TIP3   OH256241   1.614   1.052   0.785 -0.0862 -0.0143  0.6733
11609TIP3    H156242   1.705   1.037   0.809 -0.0840  0.0390  0.6982
11609TIP3    H256243   1.613   1.047   0.689  0.0353  0.4894  0.6406
11610TIP3   OH256244   4.604   0.983   1.566 -0.4327  0.6401  0.0066
11610TIP3    H156245   4.560   0.914   1.615  0.0011 -0.8590 -1.6114
11610TIP3    H256246   4.537   1.052   1.557 -1.4070 -0.2348  0.3281
11611TIP3   OH256247   5.277   2.453  11.062  0.0287  0.5432  0.7770
11611TIP3    H156248   5.281   2.525  11.000 -0.4297 -0.6634 -0.6923
11611TIP3    H256249   5.193   2.411  11.046  0.9482 -1.2793  0.4950
11612TIP3   OH256250   6.173   3.931  14.844  0.0203  0.0448 -0.0415
11612TIP3    H156251   6.141   3.859  14.899  1.5243 -1.1785 -0.6779
11612TIP3    H256252   6.102   3.947  14.782  0.0103 -1.6200 -0.5211
11613TIP3   OH256253   2.782   2.514   0.671 -0.7278 -0.0341 -0.1497
11613TIP3    H156254   2.854   2.477   0.722 -0.7940  2.4908  2.0140
11613TIP3    H256255   2.720   2.442   0.661  0.0229 -1.0643  2.0594
11614TIP3   OH256256   2.734   4.849  14.858 -0.6452  0.7564 -0.0920
11614TIP3    H156257   2.689   4.909  14.917  0.4600  1.8828 -0.3391
11614TIP3    H256258   2.804   4.902  14.820  1.5042 -1.1162  1.0034
11615TIP3   OH256259   4.549   1.301   5.571  0.0573  0.1996  0.1357
11615TIP3    H156260   4.541   1.330   5.480 -0.0836  0.0235  0.0901
11615TIP3    H256261   4.555   1.381   5.622  1.7610  0.3069 -0.1668
11616TIP3   OH256262   0.696   6.265  14.126  0.3554  0.6537  0.0696
11616TIP3    H156263   0.706   6.309  14.042  1.5553  0.7130  0.2216
11616TIP3    H256264   0.603   6.270  14.145  0.1109  0.8849 -1.1205
11617TIP3   OH256265   4.057   4.370  15.425 -0.0196  0.3319 -0.0466
11617TIP3    H156266   3.987   4.391  15.487 -1.0143 -1.1270 -0.6189
11617TIP3    H256267   4.014   4.321  15.355  1.6085 -0.8564 -0.2829
11618TIP3   OH256268   1.299   1.605  10.709 -0.6456  0.3044 -0.0181
11618TIP3    H156269   1.284   1.684  10.657 -1.0654 -0.3129 -0.8516
11618TIP3    H256270   1.266   1.534  10.655 -2.3814 -0.2541  1.6427
11619TIP3   OH256271   6.401   6.767  13.451  0.3331  0.1205 -0.5645
11619TIP3    H156272   6.485   6.813  13.449  0.1866  0.3972 -0.4620
11619TIP3    H256273   6.388   6.745  13.543  0.8272 -0.9267 -0.7346
11620TIP3   OH256274   5.971   3.537  11.538  0.4223  0.1030  0.2463
11620TIP3    H156275   5.937   3.451  11.515  1.1869  0.0308 -0.6701
11620TIP3    H256276   5.904   3.575  11.594 -0.0333 -0.9911  0.4722
11621TIP3   OH256277   5.017   0.464  13.070  0.9483 -0.3044  0.2038
11621TIP3    H156278   5.013   0.401  12.998 -2.0071 -0.9709  0.8254
11621TIP3    H256279   4.930   0.504  13.071  0.6371 -0.7679  3.7630
11622TIP3   OH256280   0.145   5.909  14.701 -0.3628  0.0202 -0.3224
11622TIP3    H156281   0.135   5.937  14.792 -2.9291 -1.6892  0.0272
11622TIP3    H256282   0.077   5.957  14.654 -3.2347 -3.4530 -0.1184
11623TIP3   OH256283   1.128   5.895  15.059  0.2019 -0.0759 -0.5350
11623TIP3    H156284   1.052   5.921  15.007  1.1256  0.3916 -1.7020
11623TIP3    H256285   1.101   5.815  15.104 -1.5548  1.0148  0.4468
11624TIP3   OH256286   0.023   1.558   1.931  0.2812  0.1871  0.8751
11624TIP3    H156287  -0.001   1.492   1.996 -2.4636  0.6406  0.4161
11624TIP3    H256288  -0.006   1.641   1.968 -1.5208  0.4381 -0.9414
11625TIP3   OH256289   0.004   5.030  15.305  0.7410 -0.2505  0.3410
11625TIP3    H156290  -0.025   5.098  15.243 -0.7828  1.1445  2.4370
11625TIP3    H256291  -0.065   5.028  15.372  1.0182 -3.5191  0.6905
11626TIP3   OH256292   5.565   4.448   5.386 -0.4993  0.4146 -0.4596
11626TIP3    H156293   5.603   4.499   5.315  0.6450 -0.5252 -0.5556
11626TIP3    H256294   5.538   4.366   5.344 -1.5683  0.5994 -0.1626
11627TIP3   OH256295   3.937   6.599  12.419  0.4502 -0.3620 -0.0284
11627TIP3    H156296   3.871   6.666  12.403 -1.2479 -1.8451  0.5211
11627TIP3    H256297   3.907   6.523  12.370  0.9520 -1.5334  1.3968
11628TIP3   OH256298   6.785   2.723   4.787  0.0512 -0.3770 -0.4556
11628TIP3    H156299   6.761   2.633   4.769 -0.7468 -0.5584  1.3008
11628TIP3    H256300   6.753   2.739   4.876  0.6239  1.4749 -0.5403
11629TIP3   OH256301   1.224   1.066  11.767 -0.1677  0.2714 -0.1266
11629TIP3    H156302   1.281   1.119  11.711 -0.3271  1.5725  0.8835
11629TIP3    H256303   1.135   1.086  11.735 -0.2479  0.8904  0.4630
11630TIP3   OH256304   3.933   2.848  16.823 -0.4143  0.0020 -0.1524
11630TIP3    H156305   3.839   2.833  16.813 -0.1562 -1.1095 -1.0225
11630TIP3    H256306   3.975   2.768  16.791  0.8273  0.3189  0.5831
11631TIP3   OH256307   2.842   3.013   5.310  0.1381  0.9068 -0.2091
11631TIP3    H156308   2.782   2.981   5.243  0.9252 -0.1003 -0.4714
11631TIP3    H256309   2.786   3.048   5.378 -0.8473 -1.2396  0.1740
11632TIP3   OH256310   0.266   1.638  13.214  0.2168  0.4902 -0.4813
11632TIP3    H156311   0.261   1.574  13.284 -0.3034  0.4065 -0.5966
11632TIP3    H256312   0.350   1.683  13.229 -0.2522  1.0082  0.6483
11633TIP3   OH256313   5.166   1.071   1.796  0.1865 -0.0963  0.0642
11633TIP3    H156314   5.204   0.986   1.819 -0.3208 -0.2110  0.4688
11633TIP3    H256315   5.108   1.093   1.868 -0.5813  0.0530 -0.5823
11634TIP3   OH256316   3.993   4.041  11.142 -0.3259  0.0612 -0.0645
11634TIP3    H156317   3.911   4.058  11.095 -1.2494  0.8539  1.7516
11634TIP3    H256318   4.047   4.117  11.123 -1.0621  0.8440  0.8808
11635TIP3   OH256319   2.109   6.493   5.542 -0.5127  0.0761  0.1518
11635TIP3    H156320   2.091   6.448   5.460 -2.3240 -0.8788  1.0145
11635TIP3    H256321   2.133   6.424   5.603 -1.4987  0.4638  1.0163
11636TIP3   OH256322   0.566   6.520  11.790 -0.3108 -0.3163 -0.0644
11636TIP3    H156323   0.563   6.455  11.719  0.4555 -0.6076  0.1665
11636TIP3    H256324   0.549   6.604  11.746 -1.2819 -0.6564 -0.3658
11637TIP3   OH256325   4.084   0.134   6.056 -0.6067  0.3468 -0.2986
11637TIP3    H156326   4.097   0.229   6.062 -3.6008  0.7372  3.0548
11637TIP3    H256327   3.997   0.124   6.018 -0.1405 -1.1567 -1.0601
11638TIP3   OH256328   1.932   6.596  14.926 -0.8582 -0.7825  0.2059
11638TIP3    H156329   1.910   6.505  14.947 -1.1102 -0.6383  0.5659
11638TIP3    H256330   2.028   6.599  14.931 -0.8919 -0.8526  0.9183
11639TIP3   OH256331   2.817   1.946  11.226 -0.2058  0.1604 -0.2005
11639TIP3    H156332   2.899   1.943  11.176 -1.7450 -0.6429 -2.8776
11639TIP3    H256333   2.793   2.038  11.227  1.1100  0.5263  1.3662
11640TIP3   OH256334   6.209   0.934  11.162  0.2275 -0.1032 -0.0985
11640TIP3    H156335   6.113   0.934  11.171  0.1844  1.1001 -0.3432
11640TIP3    H256336   6.230   0.847  11.130 -0.7480 -0.5313  0.3662
11641TIP3   OH256337   5.375   1.234   5.311  0.4844  0.1399  0.7383
11641TIP3    H156338   5.342   1.320   5.287  1.4792  0.2231 -0.4409
11641TIP3    H256339   5.370   1.183   5.229  1.5703 -0.3686  0.9701
11642TIP3   OH256340   3.501   0.523   5.584  0.0924 -0.3281 -0.2348
11642TIP3    H156341   3.438   0.521   5.657 -2.3477 -1.4974 -2.2337
11642TIP3    H256342   3.531   0.613   5.581  0.4337 -0.2654  2.2766
11643TIP3   OH256343   4.528   3.028   3.575  0.3297  0.4753 -0.0861
11643TIP3    H156344   4.510   3.117   3.602  0.1692  0.6769 -0.8419
11643TIP3    H256345   4.582   3.037   3.497 -0.6163 -0.0669 -0.8250
11644TIP3   OH256346   5.434   2.668  13.274 -0.0917  0.5087  0.1012
11644TIP3    H156347   5.367   2.617  13.230  0.0845  0.2545  0.1236
11644TIP3    H256348   5.455   2.739  13.214 -0.7808  0.9184  0.3348
11645TIP3   OH256349   6.794   3.771  14.225 -0.5702 -0.0453 -0.4009
11645TIP3    H156350   6.830   3.789  14.312 -0.4649  0.7500 -0.5946
11645TIP3    H256351   6.713   3.723  14.241  0.1905 -1.2149  0.0728
11646TIP3   OH256352   5.133   2.599   6.029 -0.1173  0.2923 -0.2230
11646TIP3    H156353   5.068   2.624   6.095  0.4685 -0.3799  0.6382
11646TIP3    H256354   5.184   2.529   6.071  1.6443  1.2903 -0.5769
11647TIP3   OH256355   0.263   1.168   5.405  0.3829 -0.0516 -0.3107
11647TIP3    H156356   0.171   1.179   5.427  0.1854  0.6404 -1.4031
11647TIP3    H256357   0.272   1.206   5.318  1.5981 -0.5841 -0.4444
11648TIP3   OH256358   0.909   4.976   5.307  0.5939  0.5711  0.0046
11648TIP3    H156359   0.956   4.928   5.375 -0.7970 -1.6545 -0.5030
11648TIP3    H256360   0.900   4.913   5.236  1.1155  2.5074 -1.8841
11649TIP3   OH256361   1.176   1.293   2.459  0.6787 -0.2113 -0.5197
11649TIP3    H156362   1.151   1.318   2.548  0.6358 -1.6005 -0.1133
11649TIP3    H256363   1.206   1.202   2.467  0.2258 -0.5203 -2.0035
11650TIP3   OH256364   3.445   3.997   1.901  0.0010  0.0882 -0.6964
11650TIP3    H156365   3.518   4.024   1.847  0.8972 -0.6466  0.1236
11650TIP3    H256366   3.484   3.977   1.986 -0.6672 -3.1417 -1.0310
11651TIP3   OH256367   0.141   2.724  11.014 -0.2893 -0.0956  0.1314
11651TIP3    H156368   0.207   2.785  10.981 -0.1370 -0.2079  0.2291
11651TIP3    H256369   0.180   2.686  11.092 -0.4924 -0.1212  0.2219
11652TIP3   OH256370   4.467   2.639  11.304  0.3349  0.8593  0.1282
11652TIP3    H156371   4.415   2.635  11.224 -0.5563  2.4044  0.6047
11652TIP3    H256372   4.410   2.604  11.372  0.5239  1.0352  0.3782
11653TIP3   OH256373   5.419   1.606   5.425 -0.9324 -0.3004  0.2421
11653TIP3    H156374   5.482   1.604   5.497 -1.8080 -1.1983  1.0121
11653TIP3    H256375   5.343   1.652   5.460 -0.4828  1.4359 -0.9159
11654TIP3   OH256376   1.522   3.720  14.128  0.0142 -0.3042 -0.9700
11654TIP3    H156377   1.579   3.774  14.073  1.3948 -1.4019 -0.6714
11654TIP3    H256378   1.496   3.647  14.071  0.9682 -1.1304 -0.3776
11655TIP3   OH256379   5.931   0.588  12.612 -0.2366  0.0932  0.2429
11655TIP3    H156380   5.894   0.652  12.552  0.7862 -0.2341 -0.7686
11655TIP3    H256381   5.876   0.510  12.601  0.9815 -0.5646 -1.6333
11656TIP3   OH256382   3.139   6.467  11.660 -0.1519 -0.1113  0.2144
11656TIP3    H156383   3.070   6.474  11.726  0.5852  0.2630  0.9534
11656TIP3    H256384   3.101   6.509  11.582 -1.3080 -1.2384  0.1413
11657TIP3   OH256385   2.768   3.058   2.294  0.1400  0.5064 -0.7700
11657TIP3    H156386   2.863   3.048   2.299  0.2904  1.5802 -1.2846
11657TIP3    H256387   2.734   2.992   2.356  1.2173  0.3515 -0.3150
11658TIP3   OH256388   5.835   4.008  15.498  0.3690 -0.5129  0.6629
11658TIP3    H156389   5.822   3.950  15.574  0.4133 -1.0432  0.2694
11658TIP3    H256390   5.928   4.001  15.478  0.3202 -0.5203  0.4398
11659TIP3   OH256391   5.874   5.396  11.355  0.0830  0.1922  0.1789
11659TIP3    H156392   5.854   5.304  11.336  5.6770 -1.0324 -1.6539
11659TIP3    H256393   5.903   5.396  11.446 -1.5639  0.6529  0.7507
11660TIP3   OH256394   6.443   0.255   0.360 -0.7074  0.1369 -1.0104
11660TIP3    H156395   6.433   0.196   0.435 -0.2580 -0.2826 -1.2755
11660TIP3    H256396   6.521   0.223   0.315 -2.1278 -0.9633 -2.8653
11661TIP3   OH256397   6.011   1.555   1.380 -0.1230  0.3175 -0.8032
11661TIP3    H156398   5.967   1.620   1.326 -0.3995 -1.3739 -2.7301
11661TIP3    H256399   5.989   1.579   1.470 -2.4638  1.2839 -1.5634
11662TIP3   OH256400   4.554   2.579  15.054 -0.1301 -0.2398 -0.8556
11662TIP3    H156401   4.562   2.532  14.971  0.2638 -0.1070 -0.8927
11662TIP3    H256402   4.479   2.538  15.097 -0.7857  0.1795 -1.5922
11663TIP3   OH256403   2.901   1.482   2.894 -0.1057  0.6304  0.2848
11663TIP3    H156404   2.810   1.464   2.921 -0.4825  1.1748 -0.5671
11663TIP3    H256405   2.902   1.576   2.877  0.4359  0.5008 -0.4022
11664TIP3   OH256406   2.202   3.269   2.339  0.0030  0.3664 -0.0600
11664TIP3    H156407   2.118   3.235   2.308 -0.2345  1.1567 -0.2951
11664TIP3    H256408   2.210   3.233   2.428  0.4287 -1.4544 -0.7864
11665TIP3   OH256409   1.304   1.337  14.525 -0.3067 -0.4717  0.1401
11665TIP3    H156410   1.308   1.431  14.512 -1.7723 -0.3895  0.0587
11665TIP3    H256411   1.393   1.311  14.547  0.0741  0.9574  0.3538
11666TIP3   OH256412   5.715   0.947   0.243  0.1487 -0.3109 -0.1576
11666TIP3    H156413   5.758   0.915   0.163  0.5173 -1.2058  0.3911
11666TIP3    H256414   5.775   1.013   0.277 -0.3505  0.6088 -0.9922
11667TIP3   OH256415   2.320   1.029   5.931 -0.4077  0.1481 -0.3369
11667TIP3    H156416   2.228   1.051   5.943 -0.5604 -0.1424 -0.9278
11667TIP3    H256417   2.319   0.958   5.867  0.2553  0.4828 -0.7313
11668TIP3   OH256418   0.099   4.316  13.403 -0.0515  0.1051  0.1281
11668TIP3    H156419   0.149   4.280  13.476  1.9122 -0.2688 -1.3033
11668TIP3    H256420   0.150   4.293  13.325 -1.8465  0.8210 -1.3522
11669TIP3   OH256421   3.490   3.675  15.720  0.1888  0.7314 -0.3360
11669TIP3    H156422   3.550   3.693  15.792 -1.5990  2.1384  0.9109
11669TIP3    H256423   3.485   3.579  15.716  1.2521  0.6156  0.5925
11670TIP3   OH256424   3.009   1.639   3.174 -0.0971 -0.0660 -0.2656
11670TIP3    H156425   3.066   1.593   3.235 -1.8240 -1.8841  0.0998
11670TIP3    H256426   2.921   1.606   3.194 -1.0440  1.2149 -2.0219
11671TIP3   OH256427   5.644   0.747  15.890  0.1288 -0.6630 -0.2787
11671TIP3    H156428   5.653   0.836  15.924  0.3135 -0.5728 -0.5606
11671TIP3    H256429   5.622   0.759  15.797  0.4518 -0.9103 -0.3894
11672TIP3   OH256430   3.004   5.872   1.406 -0.3691 -0.4130  0.2217
11672TIP3    H156431   2.912   5.883   1.384 -0.0752  0.6897 -0.5150
11672TIP3    H256432   3.051   5.924   1.341  0.7481 -0.5051  0.9269
11673TIP3   OH256433   0.372   0.386  10.645 -0.7025  0.2876  0.4507
11673TIP3    H156434   0.302   0.326  10.619 -1.2486  1.0028  0.2111
11673TIP3    H256435   0.440   0.330  10.681 -1.3716 -0.4383  0.6215
11674TIP3   OH256436   2.528   5.278   3.806  0.1381 -0.5881 -0.1235
11674TIP3    H156437   2.561   5.278   3.896 -0.4351 -0.4196  0.0895
11674TIP3    H256438   2.562   5.359   3.768 -2.2154  0.9928  0.9187
11675TIP3   OH256439   1.455   6.186  10.395 -0.3474 -0.4468 -0.0650
11675TIP3    H156440   1.424   6.276  10.382 -0.4614 -0.2921  1.1584
11675TIP3    H256441   1.541   6.197  10.437  0.2800 -0.8970 -1.2133
11676TIP3   OH256442   3.949   0.987  11.319  0.4533  0.3596 -0.4135
11676TIP3    H156443   4.011   0.973  11.248  0.2492  1.3248 -0.8030
11676TIP3    H256444   3.937   0.901  11.359  2.1513  0.1893 -0.2269
11677TIP3   OH256445   2.234   0.702   0.341 -0.3227 -0.0521 -0.1827
11677TIP3    H156446   2.244   0.746   0.425  1.2877 -0.7589  0.0375
11677TIP3    H256447   2.201   0.769   0.282  0.6617  1.0515  0.4856
11678TIP3   OH256448   1.287   6.590  14.547 -0.3398  0.3478  0.3528
11678TIP3    H156449   1.192   6.594  14.563 -0.3429  1.9451  0.0911
11678TIP3    H256450   1.325   6.630  14.625  0.1051  0.1016  0.2617
11679TIP3   OH256451   0.363   1.585  14.390  0.3839  0.2600  0.2245
11679TIP3    H156452   0.383   1.506  14.440 -0.0215 -0.7769 -1.1884
11679TIP3    H256453   0.267   1.589  14.389  0.3468  2.4498  2.7700
11680TIP3   OH256454   2.181   6.012  15.685 -0.3517 -0.1134 -0.3598
11680TIP3    H156455   2.258   6.062  15.660  0.2605 -1.8064 -2.0771
11680TIP3    H256456   2.111   6.042  15.627 -0.6416  0.4391  0.2594
11681TIP3   OH256457   1.067   0.800   2.893  0.2104 -0.5682 -0.1385
11681TIP3    H156458   1.038   0.827   2.805  0.1777 -0.2980 -0.0448
11681TIP3    H256459   1.155   0.765   2.879  0.4159 -0.0395 -0.2003
11682TIP3   OH256460   0.545   0.173   3.039  0.3380  0.6339  0.5579
11682TIP3    H156461   0.472   0.234   3.054  0.3408  1.0114 -0.8327
11682TIP3    H256462   0.543   0.157   2.945  1.8453  0.3856  0.5540
11683TIP3   OH256463   0.908   4.867   0.573 -0.0306 -0.4304 -0.7756
11683TIP3    H156464   0.879   4.956   0.594 -0.9598 -0.1542 -3.0126
11683TIP3    H256465   0.959   4.840   0.650 -0.3987  1.7099  0.2964
11684TIP3   OH256466   5.809   3.406  11.900 -0.4175 -0.4498  0.1195
11684TIP3    H156467   5.811   3.502  11.909 -0.4802 -0.4013 -0.3699
11684TIP3    H256468   5.898   3.384  11.874  0.1700 -0.7344  2.1586
11685TIP3   OH256469   5.679   4.064   1.925 -0.5984  0.7044  0.2406
11685TIP3    H156470   5.708   3.976   1.900  0.9010  1.0259  0.7132
11685TIP3    H256471   5.613   4.049   1.992 -0.2088 -0.0665  0.4650
11686TIP3   OH256472   3.582   6.236  12.978 -0.0679  0.0053 -0.3175
11686TIP3    H156473   3.647   6.305  12.979 -0.4167  0.3305  0.7736
11686TIP3    H256474   3.619   6.169  12.920  2.0471 -0.5915  1.5956
11687TIP3   OH256475   5.040   6.515  16.693  0.7070 -0.3110  0.0946
11687TIP3    H156476   5.017   6.554  16.777  1.4914  0.1251  0.1167
11687TIP3    H256477   4.994   6.569  16.629  0.7367 -0.1603  0.2000
11688TIP3   OH256478   1.247   1.837   2.847  0.1379  0.7080  0.2994
11688TIP3    H156479   1.205   1.914   2.885  1.5965  1.0608  1.2902
11688TIP3    H256480   1.313   1.811   2.912 -0.9317 -1.9609  0.4186
11689TIP3   OH256481   5.534   5.461  15.115 -0.4481  0.3965  0.6131
11689TIP3    H156482   5.561   5.485  15.026  0.8920 -0.4500  0.7599
11689TIP3    H256483   5.473   5.529  15.141  0.2172  1.4262 -0.4291
11690TIP3   OH256484   4.849   0.926   2.527 -0.4847 -0.3439 -0.1054
11690TIP3    H156485   4.823   0.921   2.435 -1.6486 -0.8400  0.2270
11690TIP3    H256486   4.905   1.003   2.532  2.8043 -2.3873 -1.9328
11691TIP3   OH256487   1.798   0.292   4.913  0.1789  0.1621 -0.1962
11691TIP3    H156488   1.727   0.348   4.881  0.9310 -0.0128 -2.3873
11691TIP3    H256489   1.761   0.246   4.988 -2.0079  0.1539 -1.1965
11692TIP3   OH256490   6.489   2.792   4.780  1.0056  0.1535  0.3695
11692TIP3    H156491   6.482   2.699   4.762 -0.5607  0.2880  0.2038
11692TIP3    H256492   6.542   2.827   4.708 -2.0335  0.0812 -2.0762
11693TIP3   OH256493   4.067   4.277  11.815 -0.1212 -0.3283  0.4126
11693TIP3    H156494   3.972   4.278  11.827 -0.3429  0.7420 -1.2271
11693TIP3    H256495   4.080   4.255  11.723  1.2924 -1.7767  0.8906
11694TIP3   OH256496   2.771   6.116  16.954  0.2977 -0.7223  0.5677
11694TIP3    H156497   2.679   6.131  16.975  0.7956  3.6701  0.5418
11694TIP3    H256498   2.783   6.154  16.867  2.8009  2.9969  2.2729
11695TIP3   OH256499   1.936   1.810  15.410 -0.6386 -0.1254 -0.5456
11695TIP3    H156500   1.921   1.853  15.494 -0.1654 -0.4496 -0.2877
11695TIP3    H256501   1.849   1.780  15.382 -0.7568 -0.2974 -0.0138
11696TIP3   OH256502   6.248   1.815  12.862 -0.3619  0.4367  0.9153
11696TIP3    H156503   6.278   1.841  12.950 -0.2223  0.1127  0.9665
11696TIP3    H256504   6.230   1.898  12.818  2.9547  0.8482  0.0425
11697TIP3   OH256505   4.881   0.852  16.439  0.1810 -1.0060  0.1245
11697TIP3    H156506   4.899   0.919  16.505 -0.1542 -0.6804 -0.1082
11697TIP3    H256507   4.842   0.779  16.488 -1.8943 -0.0249  0.0743
11698TIP3   OH256508   1.380   3.315   0.529 -0.5879  0.1710 -0.7371
11698TIP3    H156509   1.342   3.237   0.487 -1.8777  0.0062  0.6209
11698TIP3    H256510   1.345   3.389   0.479 -0.7995 -0.0716 -0.9507
11699TIP3   OH256511   0.817   5.353   4.245 -0.9626 -0.2078 -0.5169
11699TIP3    H156512   0.873   5.327   4.318  1.8049  1.1969 -1.9595
11699TIP3    H256513   0.813   5.449   4.251 -1.0153 -0.0959 -1.9444
11700TIP3   OH256514   1.222   0.347   3.036  0.2453  0.5509  0.4116
11700TIP3    H156515   1.218   0.423   3.094 -3.2618 -0.3239  1.5502
11700TIP3    H256516   1.210   0.272   3.094 -0.4644 -0.5595 -1.1128
11701TIP3   OH256517   2.858   4.273  13.394  0.4070 -0.4576 -0.3440
11701TIP3    H156518   2.820   4.326  13.323 -2.3938  0.1085  1.4365
11701TIP3    H256519   2.815   4.188  13.386  0.4715 -0.5565  0.3661
11702TIP3   OH256520   2.048   0.968  15.368 -0.2747 -0.4424 -0.3213
11702TIP3    H156521   2.139   0.940  15.355 -0.5105 -0.1357 -3.3521
11702TIP3    H256522   2.055   1.045  15.424  1.3618 -0.3989 -0.5299
11703TIP3   OH256523   5.207   4.543  12.336  0.2579  0.2540 -0.0019
11703TIP3    H156524   5.229   4.635  12.349 -0.6334  0.3261  1.1842
11703TIP3    H256525   5.177   4.513  12.422 -0.4654 -0.8745 -0.6159
11704TIP3   OH256526   2.389   2.684   4.016 -0.5172 -0.0520 -0.1781
11704TIP3    H156527   2.308   2.647   4.051 -1.9939  2.4371 -0.6858
11704TIP3    H256528   2.366   2.715   3.928  1.3745 -0.4425 -0.8674
11705TIP3   OH256529   2.557   0.351  10.425  0.5983 -0.0394  1.0429
11705TIP3    H156530   2.540   0.282  10.488 -0.2890  0.9354  1.9099
11705TIP3    H256531   2.643   0.386  10.450  0.4636  0.0262  1.4246
11706TIP3   OH256532   0.654   5.997   5.772  0.0200  0.3168  0.4351
11706TIP3    H156533   0.596   6.071   5.791  1.0611  1.8329 -1.8699
11706TIP3    H256534   0.594   5.929   5.740 -0.8083  0.7127  1.0919
11707TIP3   OH256535   3.326   0.551   2.966 -0.8503  0.5895  0.0455
11707TIP3    H156536   3.249   0.530   2.914 -0.1586 -1.0032 -0.3839
11707TIP3    H256537   3.346   0.471   3.013  1.9062  0.1522 -1.6584
11708TIP3   OH256538   2.171   6.195  11.533  0.1149 -0.3510 -0.5613
11708TIP3    H156539   2.195   6.140  11.458  2.8706 -1.7905  1.2073
11708TIP3    H256540   2.254   6.221  11.571 -1.1836  1.1936  1.4161
11709TIP3   OH256541   2.428   3.711  14.928  0.3183  0.0655 -0.3733
11709TIP3    H156542   2.337   3.706  14.956  0.3867  0.8263  0.0163
11709TIP3    H256543   2.424   3.728  14.834  0.0390  1.0435 -0.1941
11710TIP3   OH256544   3.779   4.255   3.266  0.1709 -0.4501 -0.0572
11710TIP3    H156545   3.787   4.349   3.282 -3.3121 -0.2828  1.6506
11710TIP3    H256546   3.723   4.248   3.189  0.9945 -1.1640 -0.6061
11711TIP3   OH256547   1.991   2.940  12.218  0.0504  0.1054  0.2751
11711TIP3    H156548   1.902   2.939  12.252 -0.0337 -0.1265  0.0579
11711TIP3    H256549   1.994   3.015  12.158  0.0922  0.2958  0.5149
11712TIP3   OH256550   2.394   0.705   3.788 -0.1074  0.1392 -0.2429
11712TIP3    H156551   2.344   0.687   3.868 -0.4623  0.8977 -0.2839
11712TIP3    H256552   2.398   0.621   3.743 -0.3819 -0.1750  0.3087
11713TIP3   OH256553   6.319   2.757   4.555 -0.0948 -1.0914 -0.6989
11713TIP3    H156554   6.341   2.825   4.491 -1.3997 -0.9932 -1.0770
11713TIP3    H256555   6.314   2.804   4.638 -0.3532 -0.8401 -0.8533
11714TIP3   OH256556   0.035   3.495  13.741 -0.4737  0.0596  0.0702
11714TIP3    H156557  -0.053   3.527  13.758 -0.7700 -0.1668 -0.9649
11714TIP3    H256558   0.041   3.413  13.790 -1.5251 -0.9138 -1.3652
11715TIP3   OH256559   6.648   4.376  11.184 -0.4067  0.0788 -0.2294
11715TIP3    H156560   6.579   4.340  11.240 -3.0554  2.7881 -1.4351
11715TIP3    H256561   6.729   4.364  11.235 -2.1218 -0.8053  2.5373
11716TIP3   OH256562   6.693   6.334   2.901 -0.2593  0.1200  0.3525
11716TIP3    H156563   6.698   6.373   2.988  0.5949  1.1745 -0.1481
11716TIP3    H256564   6.714   6.405   2.841  0.3765 -0.8760 -0.6478
11717TIP3   OH256565   3.629   4.320   2.386  0.1598 -0.1695  0.2967
11717TIP3    H156566   3.559   4.382   2.364  1.3575  0.4632 -1.9968
11717TIP3    H256567   3.703   4.375   2.410  0.9153 -0.7329 -0.7104
11718TIP3   OH256568   5.938   5.836   3.506  0.1888 -0.3873  0.3525
11718TIP3    H156569   5.868   5.841   3.571 -0.3562 -1.8975 -0.0732
11718TIP3    H256570   5.918   5.758   3.454  1.3516  0.0130 -0.7727
11719TIP3   OH256571   4.452   3.498  16.364  0.6243  0.1675  0.7451
11719TIP3    H156572   4.547   3.499  16.371  0.5801  0.0159  1.3425
11719TIP3    H256573   4.430   3.408  16.343  0.6503  0.3234  0.0128
11720TIP3   OH256574   6.101   5.864   0.810  0.3544  0.3260  0.2196
11720TIP3    H156575   6.022   5.811   0.823 -0.5457  1.8324  1.1829
11720TIP3    H256576   6.146   5.862   0.895  1.4531 -0.6250 -0.3581
11721TIP3   OH256577   5.625   4.187  12.632  0.6411  0.0795 -0.7998
11721TIP3    H156578   5.540   4.225  12.611 -0.4086 -0.1874  2.4092
11721TIP3    H256579   5.669   4.254  12.685  1.1100 -0.9773  0.1846
11722TIP3   OH256580   6.047   6.545  15.348 -0.3351  0.2818 -0.0326
11722TIP3    H156581   6.013   6.586  15.427 -1.8101  1.4913 -1.2477
11722TIP3    H256582   6.135   6.582  15.338 -0.4607  0.7650  0.5679
11723TIP3   OH256583   5.937   0.579  11.146  0.0458 -0.1274  0.4635
11723TIP3    H156584   5.877   0.617  11.081 -0.3195 -0.7211  0.4510
11723TIP3    H256585   5.980   0.507  11.101 -0.0288 -0.3888  0.7999
11724TIP3   OH256586   3.051   0.707  12.174  0.3512 -0.2070  0.6879
11724TIP3    H156587   3.134   0.742  12.143  0.7127 -0.7164  1.0687
11724TIP3    H256588   3.022   0.647  12.105  0.3070 -0.0456  0.5656
11725TIP3   OH256589   2.314   2.510  14.712  0.7799  0.0927 -0.4890
11725TIP3    H156590   2.367   2.432  14.697  0.6957  0.1668 -1.1889
11725TIP3    H256591   2.370   2.568  14.765  1.4336  0.2036 -1.2840
11726TIP3   OH256592   1.567   2.130   4.395 -0.8507  0.1400 -0.4995
11726TIP3    H156593   1.483   2.086   4.382 -0.9017 -0.3790  1.2499
11726TIP3    H256594   1.627   2.060   4.422 -0.5467  0.8710  0.8372
11727TIP3   OH256595   2.254   6.747  12.599  0.6977 -0.0471  0.7628
11727TIP3    H156596   2.273   6.835  12.568  2.4642 -0.4484  0.6385
11727TIP3    H256597   2.289   6.745  12.688 -0.2276 -0.3379  1.1370
11728TIP3   OH256598   5.552   4.393  14.286  0.2872 -0.1174 -1.1416
11728TIP3    H156599   5.458   4.389  14.304  0.4641  0.3420 -0.0362
11728TIP3    H256600   5.583   4.303  14.300  0.6831  0.4128  2.7513
11729TIP3   OH256601   2.086   6.614   0.219 -0.4952 -0.0538 -0.3310
11729TIP3    H156602   2.077   6.521   0.243 -1.2840  0.1020 -0.0138
11729TIP3    H256603   2.043   6.661   0.289  0.0010  0.5713 -0.4364
11730TIP3   OH256604   1.656   6.738  10.759 -0.9327  0.0892  0.2852
11730TIP3    H156605   1.720   6.689  10.811  0.2591 -0.3558 -1.4705
11730TIP3    H256606   1.709   6.785  10.694 -2.2701  1.3503  0.0506
11731TIP3   OH256607   6.427   5.206  10.560 -0.2068 -0.1683 -0.6030
11731TIP3    H156608   6.510   5.252  10.544 -0.1172 -0.1621 -0.1426
11731TIP3    H256609   6.453   5.116  10.581 -0.3956 -0.5184 -1.7771
11732TIP3   OH256610   6.395   1.095   4.438  0.4549  0.4550 -0.2541
11732TIP3    H156611   6.467   1.153   4.412  1.2092 -0.1057  0.5367
11732TIP3    H256612   6.337   1.151   4.489  1.0233  0.6100  0.2462
11733TIP3   OH256613   1.212   3.754   1.416  0.1879 -0.0383  0.4940
11733TIP3    H156614   1.204   3.708   1.333  2.9942 -1.7940  1.0753
11733TIP3    H256615   1.157   3.703   1.477 -1.6712  1.1095 -0.1263
11734TIP3   OH256616   2.070   4.985   0.177  0.8395  0.3245 -0.6000
11734TIP3    H156617   2.138   5.031   0.127  1.2599  1.2869  0.8022
11734TIP3    H256618   2.114   4.905   0.208  1.9524  1.7117  1.6910
11735TIP3   OH256619   0.132   2.111   4.253  0.7153  0.3017 -0.0937
11735TIP3    H156620   0.061   2.156   4.299 -0.2168  0.6467 -1.7869
11735TIP3    H256621   0.127   2.020   4.284 -1.1542  0.0825 -0.9117
11736TIP3   OH256622   1.051   3.801   3.270 -0.2061  0.1788 -0.4989
11736TIP3    H156623   0.981   3.737   3.261  0.2334 -0.2966 -0.5697
11736TIP3    H256624   1.007   3.886   3.267 -0.8775 -0.1310  0.3767
11737TIP3   OH256625   4.603   4.322  12.716  0.3648 -0.4053 -0.7493
11737TIP3    H156626   4.637   4.247  12.764 -0.4542 -0.1725  0.2393
11737TIP3    H256627   4.513   4.299  12.695  0.3926 -0.0745 -1.2511
11738TIP3   OH256628   1.950   5.106   4.624  0.7017 -0.1739 -0.1675
11738TIP3    H156629   1.951   5.201   4.631 -1.8351 -0.0845  0.2541
11738TIP3    H256630   2.039   5.079   4.643  2.1709  2.2265 -2.9312
11739TIP3   OH256631   4.138   5.602   4.186  0.1976  0.1261 -1.0233
11739TIP3    H156632   4.119   5.509   4.189  2.2081 -0.3322 -0.7294
11739TIP3    H256633   4.161   5.619   4.095 -1.7631  0.7401 -1.4508
11740TIP3   OH256634   5.140   4.119   0.045 -0.5504 -0.3345 -0.0993
11740TIP3    H156635   5.180   4.044   0.089  1.4787 -0.7183 -2.3501
11740TIP3    H256636   5.170   4.111  -0.046 -1.3356  2.5019 -0.6936
11741TIP3   OH256637   5.589   2.192  16.011 -0.2369  0.4165 -0.1634
11741TIP3    H156638   5.685   2.190  16.012 -0.2357 -0.7775 -0.6191
11741TIP3    H256639   5.563   2.119  16.068 -0.8951  1.3259  0.7348
11742TIP3   OH256640   6.174   1.982   3.460  0.4364  0.8751 -0.0659
11742TIP3    H156641   6.257   1.936   3.446  0.5112  0.6167  1.1117
11742TIP3    H256642   6.197   2.075   3.460  0.3671  0.9155 -1.9356
11743TIP3   OH256643   0.739   5.782  12.747  0.5253 -0.2753  0.1545
11743TIP3    H156644   0.728   5.750  12.657  2.5294 -0.4448 -0.0689
11743TIP3    H256645   0.741   5.704  12.801  1.1201 -0.2791  0.1282
11744TIP3   OH256646   3.474   0.333  11.734  0.4493  0.5117  0.0563
11744TIP3    H156647   3.443   0.419  11.761 -2.6570  0.1391 -1.7724
11744TIP3    H256648   3.431   0.272  11.794  0.5707  0.1475 -0.2220
11745TIP3   OH256649   6.205   4.199   1.761 -0.5943  0.6717 -0.2215
11745TIP3    H156650   6.296   4.187   1.735 -0.9437  0.5626 -1.4888
11745TIP3    H256651   6.190   4.132   1.828 -0.1599 -0.3404 -1.1072
11746TIP3   OH256652   5.044   4.192   0.538  0.1473 -0.1233 -0.2999
11746TIP3    H156653   4.976   4.221   0.599 -1.6316 -2.6723 -0.8736
11746TIP3    H256654   5.018   4.228   0.453  0.3972  0.2061 -0.2348
11747TIP3   OH256655   4.064   3.323  12.002 -0.3835 -0.4638  0.1075
11747TIP3    H156656   4.094   3.250  12.056 -0.2839 -0.9388 -0.5793
11747TIP3    H256657   4.140   3.348  11.951 -0.4441  0.0689  0.2721
11748TIP3   OH256658   3.580   1.613  11.945 -0.2801 -0.7916 -0.1265
11748TIP3    H156659   3.490   1.595  11.918 -0.5303  0.0893  0.0843
11748TIP3    H256660   3.572   1.641  12.037  0.1167 -0.0139 -0.3186
11749TIP3   OH256661   5.920   5.709   4.214 -0.3987 -0.0413 -0.1696
11749TIP3    H156662   5.942   5.789   4.262  2.5577 -0.2799 -0.8993
11749TIP3    H256663   5.876   5.739   4.135 -0.3818  0.7798  0.1243
11750TIP3   OH256664   4.285   6.672  11.374 -0.4519 -0.2219 -0.1789
11750TIP3    H156665   4.248   6.760  11.380 -0.0972 -0.0131 -0.9886
11750TIP3    H256666   4.379   6.687  11.364 -0.3307 -0.7124  0.1632
11751TIP3   OH256667   6.177   4.399  15.717  0.7145  0.0478  0.0819
11751TIP3    H156668   6.118   4.372  15.647 -0.9300 -0.0249  1.4299
11751TIP3    H256669   6.137   4.477  15.754  1.5441  0.0931  0.9385
11752TIP3   OH256670   3.079   3.754   4.212  0.5513  0.3753 -0.3743
11752TIP3    H156671   3.154   3.738   4.154  0.8934 -1.6588  0.5208
11752TIP3    H256672   3.084   3.683   4.276 -0.9694  1.4042  0.9438
11753TIP3   OH256673   6.340   5.689  10.661 -0.3874 -0.2733 -0.4201
11753TIP3    H156674   6.267   5.633  10.637 -1.8145  0.4320  1.9914
11753TIP3    H256675   6.388   5.639  10.727  0.5404 -0.1403 -0.9608
11754TIP3   OH256676   5.891   0.205  10.155  0.3172 -0.2215  0.4209
11754TIP3    H156677   5.842   0.285  10.138  0.3357 -0.1241  0.8083
11754TIP3    H256678   5.974   0.217  10.110  0.6015  0.2854  1.0739
11755TIP3   OH256679   2.286   5.583  15.317  0.0189  0.0232  0.3801
11755TIP3    H156680   2.265   5.675  15.301 -0.0576 -0.0658 -0.0689
11755TIP3    H256681   2.259   5.567  15.407 -1.3733  0.0645  0.0016
11756TIP3   OH256682   2.680   5.072   0.294 -0.4194 -0.1217 -0.0389
11756TIP3    H156683   2.642   5.006   0.351  0.2562  0.2910  0.9236
11756TIP3    H256684   2.747   5.115   0.348 -0.4640  0.9785 -0.8089
11757TIP3   OH256685   1.614   0.002   4.576 -0.2448 -0.4237 -0.2777
11757TIP3    H156686   1.655   0.047   4.502 -1.3017 -0.7207 -1.0679
11757TIP3    H256687   1.687  -0.028   4.630  0.5188  0.5716 -0.7359
11758TIP3   OH256688   0.174   5.678  11.425  0.2731  0.7255 -0.4180
11758TIP3    H156689   0.108   5.712  11.486 -1.8742 -1.8722 -1.0911
11758TIP3    H256690   0.124   5.658  11.345  2.1753 -0.0384 -1.4728
11759TIP3   OH256691   4.344   2.378  11.154 -0.8197 -0.0764  0.0131
11759TIP3    H156692   4.261   2.354  11.112 -0.6479 -0.5144 -0.0818
11759TIP3    H256693   4.367   2.301  11.205 -0.1073 -0.2320 -0.5313
11760TIP3   OH256694   3.938   0.247  15.013 -0.3897  0.3448 -0.0718
11760TIP3    H156695   3.969   0.312  14.949  2.3709 -1.1476 -0.4002
11760TIP3    H256696   3.863   0.205  14.969  1.1525 -0.3410 -2.2174
11761TIP3   OH256697   4.787   3.195  12.933 -0.2252 -0.1094 -0.4247
11761TIP3    H156698   4.734   3.171  12.857  0.4757  2.3140 -1.7816
11761TIP3    H256699   4.731   3.175  13.008 -2.6171  1.1144 -1.7501
11762TIP3   OH256700   2.489   4.463  12.629 -0.3809 -0.2815 -0.6403
11762TIP3    H156701   2.556   4.528  12.612 -1.1714  0.8192  0.2810
11762TIP3    H256702   2.406   4.509  12.612 -0.9219 -1.7024 -2.1057
11763TIP3   OH256703   4.940   0.967   3.341 -0.1614  0.0350  0.0663
11763TIP3    H156704   4.972   0.984   3.253  1.0466  0.6282  0.6089
11763TIP3    H256705   4.954   0.873   3.353 -0.6095 -0.1074 -0.4705
11764TIP3   OH256706   4.582   3.569  16.988  0.6421  0.3398 -0.0719
11764TIP3    H156707   4.607   3.612  16.906  0.2293 -0.3964 -0.5998
11764TIP3    H256708   4.498   3.610  17.011  0.9564  0.8382  0.2129
11765TIP3   OH256709   6.793   1.693   4.784 -0.7310  0.4485  0.1844
11765TIP3    H156710   6.819   1.616   4.735  0.9379  0.8476  0.3850
11765TIP3    H256711   6.754   1.751   4.719  1.1565  0.8421 -0.6599
11766TIP3   OH256712   4.689   1.818   0.884 -0.2141 -0.1372  0.3075
11766TIP3    H156713   4.602   1.815   0.845  0.3378  1.2008 -1.1173
11766TIP3    H256714   4.673   1.835   0.977 -1.4648  0.7211 -0.0476
11767TIP3   OH256715   0.129   5.511   3.632 -0.5991  0.1670  0.0017
11767TIP3    H156716   0.065   5.470   3.690 -0.6866 -0.5724 -0.6107
11767TIP3    H256717   0.143   5.448   3.562  1.9828 -0.4079  0.9269
11768TIP3   OH256718   5.901   2.950   0.731  0.5284 -0.0801 -0.2066
11768TIP3    H156719   5.906   2.930   0.824 -0.5365  0.2968 -0.0551
11768TIP3    H256720   5.990   2.976   0.707  0.9196 -0.6487  0.5868
11769TIP3   OH256721   1.004   3.980   0.840 -0.2212  0.3408  0.2602
11769TIP3    H156722   0.992   4.017   0.752 -0.3899  2.4338  1.1088
11769TIP3    H256723   1.030   4.055   0.894 -0.1702 -0.8920  2.0180
11770TIP3   OH256724   6.108   0.632  13.861 -0.1393  0.0853  0.1416
11770TIP3    H156725   6.035   0.693  13.845 -0.5938 -0.5942 -0.4518
11770TIP3    H256726   6.078   0.578  13.934 -0.3632 -0.3875 -0.2937
11771TIP3   OH256727   2.537   0.491   3.404 -0.0306  0.5047 -0.7374
11771TIP3    H156728   2.477   0.421   3.378  1.1996 -1.6503  1.7308
11771TIP3    H256729   2.616   0.475   3.353  0.7540 -0.8828  0.8263
11772TIP3   OH256730   2.431   5.326  15.380 -0.4053  0.3626  0.0956
11772TIP3    H156731   2.391   5.408  15.353 -1.3978  0.6574  2.3047
11772TIP3    H256732   2.387   5.260  15.326 -1.2370  1.0628 -0.1095
11773TIP3   OH256733   0.553   5.472  14.416  0.4279  0.6347  0.1492
11773TIP3    H156734   0.534   5.565  14.416 -1.5949  0.2685  0.9064
11773TIP3    H256735   0.648   5.466  14.428  0.8261  2.5971 -1.5857
11774TIP3   OH256736   4.646   2.402   1.564 -0.1382 -0.1628  0.0616
11774TIP3    H156737   4.728   2.406   1.514 -0.8743  1.4111 -1.1157
11774TIP3    H256738   4.660   2.462   1.638 -0.4714  0.7485 -0.5898
11775TIP3   OH256739   6.356   5.902   1.273  0.1745  0.4905 -0.2215
11775TIP3    H156740   6.269   5.925   1.242 -0.4371 -1.6511 -0.2554
11775TIP3    H256741   6.341   5.864   1.360  0.9684 -0.5580 -0.5208
11776TIP3   OH256742   3.524   1.482   0.660  0.6104 -0.3530 -0.0232
11776TIP3    H156743   3.459   1.527   0.713 -2.2108  0.0257 -3.4432
11776TIP3    H256744   3.605   1.530   0.676 -0.7777  1.6400  1.5594
11777TIP3   OH256745   5.087   0.119   1.296  0.2113  0.6625 -0.2436
11777TIP3    H156746   5.026   0.049   1.273 -0.4768  1.1147  0.1695
11777TIP3    H256747   5.143   0.128   1.219  0.9728 -1.0197  0.0586
11778TIP3   OH256748   6.749   3.770   5.942  0.0397  1.0364 -0.1537
11778TIP3    H156749   6.794   3.838   5.992  0.2763  1.3486 -0.7903
11778TIP3    H256750   6.726   3.811   5.859 -0.6013  0.6026 -0.2058
11779TIP3   OH256751   2.119   1.335   4.338 -0.1912 -0.3028 -0.1758
11779TIP3    H156752   2.079   1.251   4.317 -0.9274 -0.1742  0.6261
11779TIP3    H256753   2.075   1.362   4.419  0.8821  0.2939  0.2166
11780TIP3   OH256754   5.175   6.359  11.952 -0.9013 -0.6702 -0.0121
11780TIP3    H156755   5.186   6.333  11.861 -0.3901 -1.9989  0.4069
11780TIP3    H256756   5.236   6.304  12.001  0.4804  1.5508  0.9383
11781TIP3   OH256757   0.521   2.492  12.932 -0.0677 -0.8915  0.1081
11781TIP3    H156758   0.479   2.576  12.952 -1.9362 -1.1296 -2.4244
11781TIP3    H256759   0.613   2.506  12.957 -0.0106  2.4024 -1.4042
11782TIP3   OH256760   2.701   0.167   5.619 -0.5044  0.0687  0.1218
11782TIP3    H156761   2.752   0.153   5.539 -2.0369  1.3082 -1.1439
11782TIP3    H256762   2.717   0.089   5.671  1.2232 -0.3987 -1.0054
11783TIP3   OH256763   0.800   1.501  10.773 -0.3077  0.1639 -0.2353
11783TIP3    H156764   0.879   1.484  10.824 -0.0355 -0.3620 -0.8226
11783TIP3    H256765   0.826   1.568  10.710 -1.1532  2.2869  1.5139
11784TIP3   OH256766   2.374   1.190   2.544  0.1944 -0.3874  0.0716
11784TIP3    H156767   2.330   1.275   2.540 -1.3323 -1.1982 -0.8918
11784TIP3    H256768   2.455   1.203   2.494 -0.6519  0.1482 -1.2047
11785TIP3   OH256769   3.002   2.740   5.607  0.2149  0.1143  0.0982
11785TIP3    H156770   3.036   2.763   5.521 -2.3120 -1.0667 -1.3248
11785TIP3    H256771   3.058   2.788   5.669  3.4432 -0.6490 -2.0206
11786TIP3   OH256772   5.410   3.411  15.145  0.3043 -0.4651 -0.0265
11786TIP3    H156773   5.452   3.459  15.216 -1.3948  0.9920  0.0633
11786TIP3    H256774   5.466   3.335  15.131  2.1152  0.5994  1.0677
11787TIP3   OH256775   2.854   1.357  12.786 -0.7203  0.9003 -0.1115
11787TIP3    H156776   2.818   1.271  12.808  1.7881 -0.1690  0.1156
11787TIP3    H256777   2.919   1.340  12.718 -0.4367  2.6748 -0.3347
11788TIP3   OH256778   6.245   0.466  12.701  0.0729 -0.1803 -0.2321
11788TIP3    H156779   6.333   0.460  12.663  0.0375 -0.4033 -0.2856
11788TIP3    H256780   6.195   0.399  12.654 -0.4994  0.8984 -1.2120
11789TIP3   OH256781   2.832   4.575   2.152  0.2271  0.1001  0.8626
11789TIP3    H156782   2.795   4.601   2.067 -0.9108 -0.9064  1.0261
11789TIP3    H256783   2.843   4.658   2.199 -0.7782  0.5340  0.3730
11790TIP3   OH256784   3.255   4.540  12.542 -0.1836 -0.0386 -0.2075
11790TIP3    H156785   3.334   4.491  12.568 -0.2110 -0.5493 -1.0651
11790TIP3    H256786   3.247   4.609  12.608  0.9045 -0.0645 -0.0321
11791TIP3   OH256787   1.477   3.251  16.099 -0.5093 -0.2672  0.5582
11791TIP3    H156788   1.488   3.313  16.171  1.4995  1.0840 -0.8041
11791TIP3    H256789   1.448   3.304  16.025 -0.1141 -1.1896 -0.2922
11792TIP3   OH256790   0.914   2.557  13.478  0.1377 -0.0898 -0.2896
11792TIP3    H156791   0.873   2.640  13.454  0.2036  0.1882  0.5320
11792TIP3    H256792   0.972   2.537  13.404  0.2713  0.6959 -0.4089
11793TIP3   OH256793   0.962   3.102  13.027  0.0895  0.0463  0.2865
11793TIP3    H156794   1.021   3.096  12.951 -1.1143 -0.2174 -0.6570
11793TIP3    H256795   0.926   3.014  13.035 -0.6289  0.3598  0.4794
11794TIP3   OH256796   1.870   2.561  16.713 -0.2571 -0.3973  0.0489
11794TIP3    H156797   1.802   2.503  16.746  0.2901 -0.1307  1.7430
11794TIP3    H256798   1.939   2.558  16.779 -0.2344  2.2182  0.2836
11795TIP3   OH256799   6.464   6.643   0.173 -0.3214  0.3510  0.4719
11795TIP3    H156800   6.398   6.609   0.233 -0.7097  1.0175  0.4297
11795TIP3    H256801   6.524   6.693   0.228  0.7274 -1.0438  0.6631
11796TIP3   OH256802   1.251   6.141  11.188 -0.7471 -0.7448 -0.4022
11796TIP3    H156803   1.242   6.169  11.097  2.8149 -1.3970 -1.0871
11796TIP3    H256804   1.245   6.045  11.184 -1.5762 -0.7320  0.2321
11797TIP3   OH256805   1.723   3.045  12.302 -0.1208  0.0002  0.6266
11797TIP3    H156806   1.678   3.105  12.361  0.8657  0.2861  1.1184
11797TIP3    H256807   1.728   2.963  12.351 -1.5508 -0.5522 -0.0807
11798TIP3   OH256808   0.816   3.747  15.797  0.0304 -0.3887  0.5331
11798TIP3    H156809   0.835   3.761  15.704 -0.0606 -0.8630  0.4367
11798TIP3    H256810   0.785   3.831  15.829  0.4226 -0.1252  0.2203
11799TIP3   OH256811   3.496   6.802   3.478 -0.5674  0.3452  0.1601
11799TIP3    H156812   3.510   6.851   3.397 -1.5251  0.9734  0.3506
11799TIP3    H256813   3.582   6.765   3.499 -0.0792  1.0015 -0.6050
11800TIP3   OH256814   0.297   1.541   4.813  0.1969  0.3996 -0.2425
11800TIP3    H156815   0.233   1.482   4.774  0.1352  0.4620 -0.2358
11800TIP3    H256816   0.373   1.486   4.831 -0.3082  0.0514  0.8929
11801TIP3   OH256817   4.965   3.855  13.374 -0.2051 -0.4407 -0.6747
11801TIP3    H156818   4.950   3.942  13.336 -1.0769 -1.1461 -2.0375
11801TIP3    H256819   4.892   3.842  13.434 -0.3158 -0.4017 -0.7993
11802TIP3   OH256820   0.591   6.168   4.128  0.0273 -0.0136 -0.0178
11802TIP3    H156821   0.502   6.191   4.153  0.3111 -1.2479  2.5880
11802TIP3    H256822   0.638   6.251   4.126 -0.9097  0.5263 -0.1715
11803TIP3   OH256823   5.677   1.792  11.325 -0.1042  0.3746  0.1051
11803TIP3    H156824   5.668   1.862  11.261 -0.1674  0.6794  0.4406
11803TIP3    H256825   5.767   1.798  11.355 -0.2895  0.7326  0.6065
11804TIP3   OH256826   5.683   1.196   5.881 -0.0465  0.4120 -0.0943
11804TIP3    H156827   5.746   1.267   5.869  0.7134  0.2397  2.3928
11804TIP3    H256828   5.598   1.240   5.889  0.4963  1.2046  2.1305
11805TIP3   OH256829   0.466   1.298  16.273  0.2436 -0.3676  0.2158
11805TIP3    H156830   0.459   1.380  16.322  1.3881  0.6520 -1.2300
11805TIP3    H256831   0.426   1.233  16.330 -0.5224  1.1489  1.5056
11806TIP3   OH256832   0.463   4.415   4.966  0.1786 -0.0928 -0.3279
11806TIP3    H156833   0.426   4.401   4.879  0.6356  2.7226 -1.0771
11806TIP3    H256834   0.387   4.417   5.024 -0.7007  2.6791 -1.4111
11807TIP3   OH256835   5.714   6.072  14.039  0.2603 -0.7145  0.0267
11807TIP3    H156836   5.639   6.027  14.078 -0.6083  0.1743 -0.5867
11807TIP3    H256837   5.785   6.057  14.101 -0.9442  0.1739  1.7090
11808TIP3   OH256838   5.861   5.984  15.587 -0.3868 -0.1381 -0.1118
11808TIP3    H156839   5.834   5.906  15.538  0.0825 -0.0785 -0.4750
11808TIP3    H256840   5.956   5.976  15.595 -0.4507 -0.1083  0.7343
11809TIP3   OH256841   6.347   2.019   2.019 -0.2579 -0.0584  0.0950
11809TIP3    H156842   6.429   2.035   1.973 -0.0026  3.3929  1.4007
11809TIP3    H256843   6.280   2.016   1.951  0.7830 -2.4733 -0.9446
11810TIP3   OH256844   1.954   1.915  13.769 -0.0674  0.2847  0.2892
11810TIP3    H156845   1.971   1.896  13.676  0.5216 -0.0783  0.4623
11810TIP3    H256846   1.885   1.855  13.794 -0.8880  1.0255 -0.1518
11811TIP3   OH256847   4.677   5.166   4.850 -0.4925 -0.5528  0.1002
11811TIP3    H156848   4.624   5.087   4.842 -0.0866 -0.7030 -1.4262
11811TIP3    H256849   4.762   5.135   4.884  0.5827 -1.2699 -2.8867
11812TIP3   OH256850   6.588   0.853  14.945  0.4833 -0.4854  0.2819
11812TIP3    H156851   6.536   0.782  14.907  0.0617  0.5106 -1.0706
11812TIP3    H256852   6.678   0.820  14.944  0.5856 -0.3221 -2.1782
11813TIP3   OH256853   3.716   5.613  13.955  0.6968  0.9013  0.3342
11813TIP3    H156854   3.747   5.628  13.866  0.0211  0.2758 -0.0173
11813TIP3    H256855   3.758   5.681  14.007 -0.0644  2.2220 -0.7162
11814TIP3   OH256856   0.038   0.442   5.083 -0.3899 -0.0516  0.2841
11814TIP3    H156857   0.101   0.505   5.118 -0.1915 -0.6061  0.9486
11814TIP3    H256858  -0.044   0.491   5.076  0.2666  0.9127 -1.3339
11815TIP3   OH256859   4.998   1.391   3.292 -0.3569 -0.0509 -0.1901
11815TIP3    H156860   4.965   1.406   3.204 -0.5784 -1.5594 -0.3842
11815TIP3    H256861   4.934   1.435   3.349  0.3704  1.8857 -0.7808
11816TIP3   OH256862   0.026   5.206  11.065 -0.0388 -0.3677  0.7045
11816TIP3    H156863  -0.046   5.244  11.014  0.6171  0.0812  0.0991
11816TIP3    H256864   0.002   5.221  11.156 -0.4624  0.2404  0.4950
11817TIP3   OH256865   0.007   5.423  10.722 -0.4868  0.4364 -0.3095
11817TIP3    H156866   0.066   5.359  10.683  0.4799  1.0837  0.0293
11817TIP3    H256867   0.066   5.488  10.761 -1.4298  0.6959  0.7282
11818TIP3   OH256868   1.887   0.565   5.856  0.4364 -0.2996  0.0555
11818TIP3    H156869   1.836   0.579   5.936  2.0617 -1.9572  1.4769
11818TIP3    H256870   1.893   0.652   5.817  0.0915  0.6988  2.0478
11819TIP3   OH256871   4.862   1.760  11.061  0.4536  0.1810  0.6784
11819TIP3    H156872   4.916   1.718  11.128 -1.7337  0.2790  2.6121
11819TIP3    H256873   4.861   1.852  11.087  0.3157  0.3802 -0.0331
11820TIP3   OH256874   1.943   3.281   2.818 -0.3636  0.2812  0.4069
11820TIP3    H156875   1.901   3.235   2.745  0.0440  0.0819  0.2991
11820TIP3    H256876   1.873   3.335   2.855 -0.2506  1.5176 -1.0460
11821TIP3   OH256877   2.063   5.611  12.021 -0.4146 -0.1367  0.0695
11821TIP3    H156878   1.999   5.682  12.030  1.7129  1.8442  0.4474
11821TIP3    H256879   2.115   5.635  11.944 -0.4998 -2.0681 -0.6582
11822TIP3   OH256880   5.890   3.824  16.324 -0.3479 -0.6148  0.0888
11822TIP3    H156881   5.925   3.752  16.272 -0.6157 -0.8678  0.2540
11822TIP3    H256882   5.912   3.902  16.275 -1.7012 -0.9214 -1.0576
11823TIP3   OH256883   1.916   0.354   0.777  0.1886  0.3030  0.0198
11823TIP3    H156884   2.002   0.369   0.737  0.1700 -1.5013 -0.8328
11823TIP3    H256885   1.853   0.383   0.710  0.1527  0.1214 -0.0276
11824TIP3   OH256886   0.460   1.058  12.816 -0.0982  0.4678 -0.1442
11824TIP3    H156887   0.471   1.044  12.722  0.5571 -1.2049  0.1351
11824TIP3    H256888   0.547   1.084  12.847 -0.1255  0.2783  0.0979
11825TIP3   OH256889   5.160   1.567   2.827 -0.1361  0.9675 -1.0077
11825TIP3    H156890   5.199   1.654   2.820 -0.1011  1.4906  3.3787
11825TIP3    H256891   5.070   1.578   2.796 -0.5423  2.9888  0.6778
11826TIP3   OH256892   1.604   2.772   1.086 -0.0882 -0.2676 -0.6818
11826TIP3    H156893   1.605   2.861   1.049  1.5319  0.2213  0.4444
11826TIP3    H256894   1.511   2.756   1.105 -0.8751 -0.1629 -3.9071
11827TIP3   OH256895   4.623   1.727   0.058 -0.1241 -0.2436 -1.1365
11827TIP3    H156896   4.603   1.634   0.048 -0.5294 -0.1013 -1.7551
11827TIP3    H256897   4.716   1.734   0.039  0.3963 -0.8102  0.9756
11828TIP3   OH256898   6.547   0.109  16.597 -0.2011  0.1737 -0.3734
11828TIP3    H156899   6.596   0.047  16.543  0.0326  0.4645 -0.5028
11828TIP3    H256900   6.577   0.195  16.566 -1.0325  0.3618 -0.6740
11829TIP3   OH256901   6.053   2.098   2.869 -0.0008  0.4082  0.3143
11829TIP3    H156902   6.102   2.044   2.930  0.3319 -0.8012 -0.9824
11829TIP3    H256903   5.965   2.062   2.870 -1.1875  2.8995  3.0410
11830TIP3   OH256904   3.430   2.002  15.872 -0.0318  0.3334  0.1282
11830TIP3    H156905   3.375   2.064  15.919 -0.7725 -1.0366  1.1183
11830TIP3    H256906   3.519   2.038  15.881 -0.3908  1.0423  1.0129
11831TIP3   OH256907   4.400   0.059   0.842  0.1220  0.1030  0.0460
11831TIP3    H156908   4.360   0.141   0.811 -0.7270 -0.0029  0.8200
11831TIP3    H256909   4.336  -0.009   0.820  1.0799 -0.4691 -1.1359
11832TIP3   OH256910   1.254   2.553   3.802  0.9010  0.5059 -0.4501
11832TIP3    H156911   1.240   2.538   3.709 -0.7979 -1.0129 -0.0002
11832TIP3    H256912   1.171   2.529   3.844  2.5161 -1.8718  1.7286
11833TIP3   OH256913   4.646   4.910  14.375 -0.5060 -0.2194  0.0591
11833TIP3    H156914   4.661   4.828  14.421 -0.8247 -0.7702 -0.7855
11833TIP3    H256915   4.720   4.918  14.316 -0.2067  0.3745  0.5046
11834TIP3   OH256916   5.145   2.103  13.144  0.3877 -0.3320  0.6130
11834TIP3    H156917   5.112   2.013  13.141  3.1167 -1.4162  0.4786
11834TIP3    H256918   5.143   2.132  13.052 -0.7739 -0.1254  0.6961
11835TIP3   OH256919   5.550   3.625   1.024  0.1837  0.2752  0.1940
11835TIP3    H156920   5.475   3.614   1.082 -0.7157 -0.9863 -1.1417
11835TIP3    H256921   5.517   3.678   0.952  0.5715 -0.2594 -0.3909
11836TIP3   OH256922   4.164   3.816  15.834 -0.1880 -1.1593  0.2247
11836TIP3    H156923   4.259   3.810  15.843 -0.3078 -1.7958  1.2602
11836TIP3    H256924   4.136   3.860  15.915 -0.5429  1.6998 -1.3265
11837TIP3   OH256925   1.083   3.715   5.265  0.1403  0.0106  0.5096
11837TIP3    H156926   1.087   3.753   5.353 -0.6058  1.4716 -0.0478
11837TIP3    H256927   1.138   3.637   5.270 -0.3014 -0.2279  2.4052
11838TIP3   OH256928   4.481   1.984   5.585 -0.0833 -0.3667  0.8407
11838TIP3    H156929   4.478   2.077   5.562  0.8610 -0.4393  0.3962
11838TIP3    H256930   4.439   1.940   5.511  0.5406 -0.3827  0.4894
11839TIP3   OH256931   6.501   2.564  13.211 -1.2452  0.6850 -0.4060
11839TIP3    H156932   6.502   2.554  13.116 -0.3023  1.1031 -0.4525
11839TIP3    H256933   6.432   2.505  13.241 -1.5146  0.5103 -1.3398
11840TIP3   OH256934   3.286   6.628  11.358  0.0104  0.5529 -0.0755
11840TIP3    H156935   3.201   6.600  11.393  0.3655 -0.9477 -0.3263
11840TIP3    H256936   3.266   6.706  11.307 -1.2193  0.2505 -0.1036
11841TIP3   OH256937   3.356   5.452   1.784  0.5912  0.6349  0.0903
11841TIP3    H156938   3.285   5.420   1.840 -0.0786  0.8525 -0.6053
11841TIP3    H256939   3.411   5.376   1.768  0.0537  0.2638 -0.0243
11842TIP3   OH256940   2.804   6.480  16.390  0.3575 -0.3176  0.4207
11842TIP3    H156941   2.739   6.532  16.436  0.9957 -0.9757  2.1741
11842TIP3    H256942   2.864   6.544  16.352  0.0053  0.2462  0.8086
11843TIP3   OH256943   4.794   3.302  16.895 -0.5888 -0.0507  0.1747
11843TIP3    H156944   4.775   3.362  16.823  0.1517 -1.6521 -1.4265
11843TIP3    H256945   4.710   3.260  16.914 -1.0617  1.2959  1.1541
11844TIP3   OH256946   6.693   3.007  14.069  0.0135 -0.0284  0.2290
11844TIP3    H156947   6.610   2.960  14.059 -0.6604  0.3602  3.0432
11844TIP3    H256948   6.704   3.056  13.988 -1.0483 -2.2474 -1.3510
11845TIP3   OH256949   3.841   0.452  14.120 -0.4204 -1.0596  0.2378
11845TIP3    H156950   3.914   0.406  14.079  1.4564  0.7678  1.3401
11845TIP3    H256951   3.858   0.544  14.103 -4.1481 -0.5613 -2.0942
11846TIP3   OH256952   1.296   3.831  12.865  0.0298  0.1547  0.5915
11846TIP3    H156953   1.220   3.839  12.923  0.4609  1.1258  1.0306
11846TIP3    H256954   1.289   3.742  12.829 -0.9742  0.0170  1.0983
11847TIP3   OH256955   1.449   5.047  14.944 -0.3615  0.3081 -0.0030
11847TIP3    H156956   1.386   4.975  14.942 -0.0135  0.0157 -0.5736
11847TIP3    H256957   1.397   5.124  14.921  0.0242 -0.3615 -3.7122
11848TIP3   OH256958   0.431   2.387   3.876  0.4098 -0.0019 -0.4668
11848TIP3    H156959   0.477   2.303   3.880  2.3813  1.0213  3.1332
11848TIP3    H256960   0.361   2.379   3.941 -0.3393  0.6683 -1.1756
11849TIP3   OH256961   6.262   2.236   1.296  0.5431  0.2247 -0.2676
11849TIP3    H156962   6.358   2.237   1.297  0.6768  2.5196 -2.8869
11849TIP3    H256963   6.239   2.194   1.214 -0.6287  1.0969 -0.4150
11850TIP3   OH256964   6.349   3.070  12.617  0.2590  0.1436  0.1594
11850TIP3    H156965   6.264   3.107  12.593 -0.1441 -0.9307 -0.0990
11850TIP3    H256966   6.412   3.121  12.565 -0.2946  0.3615 -0.3107
11851TIP3   OH256967   0.296   3.238   0.991  0.4212  0.3626 -0.1094
11851TIP3    H156968   0.358   3.298   0.949 -0.5326  1.2071 -0.3485
11851TIP3    H256969   0.350   3.163   1.016  1.4156  0.7623 -0.9263
11852TIP3   OH256970   4.757   2.311   1.258 -0.1067  0.3080 -0.2814
11852TIP3    H156971   4.816   2.381   1.286 -1.9768  1.2734  1.5241
11852TIP3    H256972   4.794   2.231   1.296  1.2390  0.4956 -1.1165
11853TIP3   OH256973   3.758   0.853   4.881  0.2712 -0.1758 -0.4455
11853TIP3    H156974   3.815   0.916   4.838 -0.0688  0.6219  0.2204
11853TIP3    H256975   3.729   0.899   4.960  1.3789 -1.8048  0.9703
11854TIP3   OH256976   1.705   0.968  16.884  0.2497 -0.5756  0.2847
11854TIP3    H156977   1.702   0.994  16.792 -1.3997 -2.4132 -0.2467
11854TIP3    H256978   1.724   1.049  16.931  0.6822  0.4919 -1.6363
11855TIP3   OH256979   3.453   5.444  15.341 -0.0177 -0.0104 -0.0441
11855TIP3    H156980   3.500   5.393  15.275 -0.6624 -0.3053 -0.2845
11855TIP3    H256981   3.364   5.410  15.339 -0.4683  1.1310 -0.2255
11856TIP3   OH256982   4.727   3.212   1.651  0.1895 -0.2165 -0.6975
11856TIP3    H156983   4.638   3.243   1.662 -0.5299 -2.4704  0.6616
11856TIP3    H256984   4.778   3.263   1.714 -0.1362  1.0305 -1.4286
11857TIP3   OH256985   0.456   4.522  15.527 -0.1559 -0.5797 -0.0164
11857TIP3    H156986   0.507   4.525  15.608 -0.3795 -1.4538  0.1711
11857TIP3    H256987   0.425   4.432  15.522  1.1560 -0.9759 -1.8917
11858TIP3   OH256988   2.642   1.486  16.668 -0.3051  0.5727  0.3614
11858TIP3    H156989   2.694   1.407  16.650  0.0903  0.1315  3.0669
11858TIP3    H256990   2.708   1.553  16.688 -0.7021  1.1519 -0.2293
11859TIP3   OH256991   3.415   2.403  14.909 -0.5046  0.2157  0.2352
11859TIP3    H156992   3.410   2.347  14.831  1.4059 -0.9456  0.8625
11859TIP3    H256993   3.451   2.486  14.877 -0.0811 -0.1245 -0.1768
11860TIP3   OH256994   3.449   5.647  13.546  0.2976  0.0580 -0.1645
11860TIP3    H156995   3.466   5.692  13.463  5.5501 -0.2886  0.3800
11860TIP3    H256996   3.494   5.563  13.539  0.8245 -0.0619  2.9280
11861TIP3   OH256997   2.458   5.191  15.670  0.1889 -0.4084 -0.0044
11861TIP3    H156998   2.486   5.113  15.621  0.3433 -0.1335 -0.3511
11861TIP3    H256999   2.434   5.254  15.603 -0.9358 -0.5134  0.2818
11862TIP3   OH257000   1.642   6.365   6.068  0.1199 -0.4327 -0.2656
11862TIP3    H157001   1.719   6.400   6.113  0.6877 -2.2788  0.2932
11862TIP3    H257002   1.678   6.311   5.997 -0.6503 -0.9218 -0.3006
11863TIP3   OH257003   2.388   3.702   3.982 -0.1347 -0.1774  0.4186
11863TIP3    H157004   2.329   3.768   3.945  1.1773  0.2480 -1.0473
11863TIP3    H257005   2.468   3.709   3.928  0.8562 -1.4391  1.6588
11864TIP3   OH257006   1.030   2.323   3.432 -0.6382  0.1173  0.2892
11864TIP3    H157007   1.014   2.345   3.523 -0.8476  1.5039 -0.0591
11864TIP3    H257008   0.949   2.281   3.402 -0.8737  0.4079  0.5203
11865TIP3   OH257009   0.171   0.386   5.392 -0.1353 -0.0515 -0.4094
11865TIP3    H157010   0.089   0.340   5.369 -2.3229  1.9190  2.6669
11865TIP3    H257011   0.160   0.473   5.354  0.7616  0.1037 -0.3144
11866TIP3   OH257012   6.757   4.025  14.666  0.1201 -0.2201 -0.6263
11866TIP3    H157013   6.799   4.097  14.620  0.1290  0.7429  0.8337
11866TIP3    H257014   6.676   4.063  14.701  0.8300 -0.4383  1.4331
11867TIP3   OH257015   3.777   2.105  12.743 -0.2126  0.0994  0.0023
11867TIP3    H157016   3.707   2.170  12.749 -0.5073 -0.1632 -0.4733
11867TIP3    H257017   3.737   2.031  12.697  0.3152 -0.1440 -0.0761
11868TIP3   OH257018   1.297   0.378  17.022  0.0494 -0.5996 -0.7534
11868TIP3    H157019   1.374   0.407  17.071 -1.1614  0.0901  0.7942
11868TIP3    H257020   1.262   0.457  16.982 -3.4047  0.4969  3.6793
11869TIP3   OH257021   1.032   3.895  15.030  0.2314 -0.4436 -0.0469
11869TIP3    H157022   1.043   3.910  14.936  1.0291  0.3195  0.1516
11869TIP3    H257023   1.118   3.865  15.060 -0.1253 -1.0750  0.3767
11870TIP3   OH257024   5.710   4.658   0.789  0.4587 -0.0700  0.0481
11870TIP3    H157025   5.650   4.625   0.857  0.0184  0.0194 -0.2924
11870TIP3    H257026   5.780   4.593   0.787  1.8460  1.2231  2.3792
11871TIP3   OH257027   5.644   3.485   1.250 -0.7351  0.3883  0.4735
11871TIP3    H157028   5.590   3.542   1.195 -0.3589  1.4525  1.1828
11871TIP3    H257029   5.630   3.516   1.339 -0.1904 -0.3586  0.8338
11872TIP3   OH257030   0.742   6.062  15.118  0.1219  0.0135  0.0369
11872TIP3    H157031   0.724   6.156  15.128 -0.7452 -0.1144 -0.2432
11872TIP3    H257032   0.806   6.057  15.047 -0.4094  0.3539 -0.4816
11873TIP3   OH257033   1.464   3.316   1.805 -0.0029  0.0965 -0.8112
11873TIP3    H157034   1.473   3.312   1.710 -0.1267  2.7084 -1.0127
11873TIP3    H257035   1.468   3.409   1.825 -0.5310 -0.3550  1.7079
11874TIP3   OH257036   4.396   5.821  13.393  0.0691 -0.0158 -0.6779
11874TIP3    H157037   4.397   5.733  13.354 -0.2388  0.1522 -1.0650
11874TIP3    H257038   4.305   5.850  13.386  0.2768  0.5674 -1.0805
11875TIP3   OH257039   3.125   6.394   6.281  0.0059 -0.6255 -0.1346
11875TIP3    H157040   3.109   6.365   6.371 -1.6628  2.3785  0.6744
11875TIP3    H257041   3.216   6.424   6.282 -0.3889  0.6080  0.9651
11876TIP3   OH257042   5.411   1.951   5.766  0.3009 -0.6050  0.9581
11876TIP3    H157043   5.468   2.028   5.757  1.3516 -1.4796 -0.2856
11876TIP3    H257044   5.457   1.882   5.719  0.0656 -2.3964  3.1897
11877TIP3   OH257045   0.007   5.689  12.437  0.3870 -0.2403  0.1537
11877TIP3    H157046  -0.082   5.715  12.415  0.7948  1.9578  0.7807
11877TIP3    H257047  -0.004   5.614  12.496 -0.8431 -2.6022 -2.7983
11878TIP3   OH257048   6.693   1.266   5.924  0.1444 -0.1085  0.0359
11878TIP3    H157049   6.654   1.350   5.901  1.3133  1.6319  3.5818
11878TIP3    H257050   6.661   1.248   6.013  2.6238 -1.5838  0.7311
11879TIP3   OH257051   1.998   2.425  16.908 -0.0609  0.1477  0.5799
11879TIP3    H157052   1.928   2.369  16.877  0.4161 -0.1971  0.1084
11879TIP3    H257053   2.064   2.365  16.944  0.6232  0.3634 -0.2798
11880TIP3   OH257054   5.689   1.134   3.603  0.3930  0.1481  0.4869
11880TIP3    H157055   5.667   1.171   3.518 -0.3077 -0.4794  0.3793
11880TIP3    H257056   5.626   1.174   3.663  0.5343  0.1756  0.6178
11881TIP3   OH257057   4.356   1.669  12.820  0.3772 -0.4811 -0.5811
11881TIP3    H157058   4.393   1.735  12.879 -0.8310  0.0922 -0.4466
11881TIP3    H257059   4.403   1.682  12.738  1.6653 -0.9003  0.0601
11882TIP3   OH257060   3.186   5.092  11.304 -0.0141  0.4776  0.0826
11882TIP3    H157061   3.222   5.039  11.233  1.3380 -0.1792  1.1862
11882TIP3    H257062   3.168   5.029  11.374 -1.1678  1.1231  0.3883
11883TIP3   OH257063   2.412   5.651  15.929 -0.1268  0.3557  0.2752
11883TIP3    H157064   2.461   5.576  15.963  1.1484  0.9278 -0.1983
11883TIP3    H257065   2.409   5.713  16.002  2.8392  1.6960 -0.5564
11884TIP3   OH257066   0.029   2.742  14.075 -0.6606 -0.1980 -0.0377
11884TIP3    H157067   0.122   2.749  14.099 -0.8923 -2.2669  1.8172
11884TIP3    H257068  -0.002   2.832  14.074  0.5868  0.4038  3.0110
11885TIP3   OH257069   0.541   0.725  13.962 -0.7321  0.6954  0.3026
11885TIP3    H157070   0.593   0.709  13.883  1.0249  0.2158  1.5141
11885TIP3    H257071   0.508   0.814  13.950  0.8379  1.2394 -0.2791
11886TIP3   OH257072   1.664   1.651   0.229 -0.1943  0.2213  0.7012
11886TIP3    H157073   1.582   1.613   0.198 -0.3991 -0.2927  1.8264
11886TIP3    H257074   1.642   1.742   0.251 -0.4297  0.1213  0.8805
11887TIP3   OH257075   3.481   3.567   2.845 -0.1749  0.4390  0.4678
11887TIP3    H157076   3.538   3.519   2.784 -0.5552 -1.6775  1.6577
11887TIP3    H257077   3.484   3.658   2.815 -0.9300 -0.5473 -3.1976
11888TIP3   OH257078   2.888   6.494   5.795 -0.3005  0.3360  0.3222
11888TIP3    H157079   2.907   6.535   5.879  2.2628 -0.4054  0.1654
11888TIP3    H257080   2.909   6.401   5.808 -1.4261 -0.1005 -0.7060
11889TIP3   OH257081   4.217   6.279   5.043  0.0031 -0.3008 -0.3250
11889TIP3    H157082   4.237   6.267   4.951  0.3804 -1.0650 -0.1467
11889TIP3    H257083   4.174   6.197   5.070 -1.2945  0.4088 -0.1387
11890TIP3   OH257084   1.458   1.381  15.653 -0.0448 -0.1596  0.0500
11890TIP3    H157085   1.444   1.422  15.738  0.1236  1.4488 -0.6670
11890TIP3    H257086   1.445   1.451  15.590  1.6279 -0.8920 -1.1742
11891TIP3   OH257087   2.014   5.426   0.046 -0.4516 -0.0496  0.7485
11891TIP3    H157088   1.988   5.335   0.029  0.2036 -0.0688 -0.1819
11891TIP3    H257089   2.098   5.436   0.001  0.3366  0.5123  2.2768
11892TIP3   OH257090   1.796   3.618  12.864  0.1017 -0.6669 -0.2377
11892TIP3    H157091   1.737   3.561  12.816 -0.3893 -0.7008  0.3968
11892TIP3    H257092   1.876   3.565  12.876 -0.5635 -1.4769  0.8775
11893TIP3   OH257093   0.412   3.374   0.769 -0.6509 -0.1697  0.4108
11893TIP3    H157094   0.471   3.438   0.728 -1.5626  0.6242  0.3132
11893TIP3    H257095   0.338   3.367   0.708  1.0220 -4.1169 -1.5006
11894TIP3   OH257096   5.684   5.569   0.351  0.1462 -0.2792  0.2780
11894TIP3    H157097   5.662   5.659   0.327 -0.4699 -0.5858 -0.3447
11894TIP3    H257098   5.622   5.515   0.302  0.5055 -1.0466  0.6463
11895TIP3   OH257099   6.046   6.429   3.015 -0.0131 -0.2676 -0.3530
11895TIP3    H157100   5.971   6.470   2.972  0.2551  0.3909 -0.2036
11895TIP3    H257101   6.060   6.482   3.094  0.8833 -0.1099 -0.6095
11896TIP3   OH257102   4.198   3.197   4.553  0.0024  0.3203  0.5880
11896TIP3    H157103   4.126   3.184   4.615 -0.3773 -0.0549  0.0741
11896TIP3    H257104   4.274   3.159   4.598 -0.1497  0.5475  1.0518
11897TIP3   OH257105   0.799   4.175  16.942 -0.5395  0.4587 -0.6089
11897TIP3    H157106   0.878   4.133  16.976 -1.0432 -0.0374 -0.0245
11897TIP3    H257107   0.797   4.151  16.849 -0.9261 -1.0062 -0.2452
11898TIP3   OH257108   5.245   1.283  12.124 -0.0627  0.7341 -0.2742
11898TIP3    H157109   5.181   1.272  12.054 -0.4231  1.0945 -0.0095
11898TIP3    H257110   5.329   1.264  12.084 -0.3399  0.2582 -0.6270
11899TIP3   OH257111   3.771   0.493   2.750 -0.4238 -0.0512  0.0293
11899TIP3    H157112   3.741   0.430   2.815 -0.2226  0.3846  0.5573
11899TIP3    H257113   3.704   0.562   2.750 -0.6871 -0.3011 -0.6045
11900TIP3   OH257114   2.367   6.737  15.515  0.4595 -0.1088  0.1082
11900TIP3    H157115   2.457   6.708  15.500  0.5285  0.6146 -1.0338
11900TIP3    H257116   2.314   6.688  15.452  0.3544  0.9279 -0.6509
11901TIP3   OH257117   1.868   4.777  11.454  0.0248 -0.2870 -0.6668
11901TIP3    H157118   1.806   4.720  11.408 -0.5616 -1.3239  1.2711
11901TIP3    H257119   1.841   4.772  11.546  1.3627  1.3757 -0.1359
11902TIP3   OH257120   3.279   0.315   5.075 -0.5723 -0.2273  0.7658
11902TIP3    H157121   3.364   0.358   5.088  0.0083 -0.5386 -1.6418
11902TIP3    H257122   3.291   0.227   5.111 -0.1038 -0.0629  1.0200
11903TIP3   OH257123   3.974   0.585   1.694 -0.3871  0.4192 -0.5200
11903TIP3    H157124   3.936   0.644   1.628 -1.8744  1.7741  1.4438
11903TIP3    H257125   3.901   0.532   1.724  0.5581 -1.1287 -0.8669
11904TIP3   OH257126   4.673   6.602  15.207 -0.2945 -0.7579 -0.1434
11904TIP3    H157127   4.599   6.582  15.149 -0.6828 -0.0515  0.0966
11904TIP3    H257128   4.739   6.536  15.185 -1.5186 -2.2994  0.6032
11905TIP3   OH257129   5.627   3.864  13.089  0.3020  0.2677  0.0773
11905TIP3    H157130   5.596   3.868  13.179 -0.6626  0.3658 -0.2484
11905TIP3    H257131   5.602   3.948  13.050  1.5773  0.6306 -0.0274
11906TIP3   OH257132   0.172   6.603   3.338  0.1113  0.3453  0.2204
11906TIP3    H157133   0.161   6.511   3.360 -0.1335  0.2542 -0.2559
11906TIP3    H257134   0.233   6.604   3.265  0.3328  0.5829  0.4060
11907TIP3   OH257135   4.017   6.661  10.984 -0.0204  0.0620 -0.0479
11907TIP3    H157136   4.024   6.572  11.018  0.1658  0.2686  0.4706
11907TIP3    H257137   4.054   6.656  10.896 -0.3278 -0.4429 -0.1506
11908TIP3   OH257138   1.475   2.967   3.897 -0.0583  0.5826 -0.2846
11908TIP3    H157139   1.387   2.965   3.860  0.5513  0.7885 -1.8099
11908TIP3    H257140   1.501   3.059   3.894  0.7064  0.3605 -1.1341
11909TIP3   OH257141   5.916   1.891  12.284  0.1517  0.2627  0.3726
11909TIP3    H157142   5.978   1.851  12.346  0.9573  1.6591  0.5039
11909TIP3    H257143   5.932   1.844  12.202  0.2032 -0.5159  0.8183
11910TIP3   OH257144   6.752   0.954  15.739  1.0222 -0.0352 -0.6861
11910TIP3    H157145   6.748   0.858  15.738  1.8907 -0.2288  2.9343
11910TIP3    H257146   6.845   0.974  15.726  1.0665  0.2391  0.0405
11911TIP3   OH257147   2.237   1.731  15.750 -0.0496 -0.3065 -0.1865
11911TIP3    H157148   2.279   1.739  15.836  0.1406  0.1955 -0.3211
11911TIP3    H257149   2.218   1.821  15.725  1.0275 -0.3372 -1.2153
11912TIP3   OH257150   6.727   1.561   5.030 -0.2165 -0.6194  0.1325
11912TIP3    H157151   6.764   1.623   4.968  0.8531 -2.4630 -1.1699
11912TIP3    H257152   6.802   1.517   5.068 -0.9567 -2.1870 -0.1410
11913TIP3   OH257153   6.598   1.815  10.463 -0.0691  0.0397 -0.6654
11913TIP3    H157154   6.566   1.819  10.373 -0.8557 -0.8443 -0.4367
11913TIP3    H257155   6.546   1.747  10.505 -0.0351  0.7491  0.5935
11914TIP3   OH257156   0.059   1.517   3.645  0.3966 -0.2022 -0.4871
11914TIP3    H157157   0.061   1.425   3.622  1.7765  0.3372 -2.7998
11914TIP3    H257158  -0.022   1.551   3.606 -0.7309 -0.5876  1.3623
11915TIP3   OH257159   4.674   2.213  10.375  0.0813  0.2297 -0.2152
11915TIP3    H157160   4.651   2.158  10.450  2.7097 -0.6554  0.0385
11915TIP3    H257161   4.678   2.152  10.301 -2.6831  1.1207 -1.2511
11916TIP3   OH257162   5.625   3.371   4.692  0.2101  0.1664  0.3139
11916TIP3    H157163   5.565   3.324   4.750  1.1656 -0.6634  0.6681
11916TIP3    H257164   5.703   3.385   4.745  1.4152 -1.3056 -0.9666
11917TIP3   OH257165   1.714   1.106   4.892  0.0400  0.6280  0.4447
11917TIP3    H157166   1.730   1.126   4.984 -0.8201 -0.5598  0.8812
11917TIP3    H257167   1.747   1.182   4.845  0.1039  1.4498  1.7616
11918TIP3   OH257168   6.752   1.335  14.770 -0.8045  0.0581  0.2145
11918TIP3    H157169   6.769   1.399  14.701 -2.1128  0.7618  0.5101
11918TIP3    H257170   6.708   1.262  14.726  0.6011 -0.6380 -0.1054
11919TIP3   OH257171   5.516   3.553   5.599  0.1546 -0.1925  0.4742
11919TIP3    H157172   5.487   3.642   5.581 -2.0628 -0.8326  0.6324
11919TIP3    H257173   5.475   3.531   5.683 -0.8377 -1.9587 -0.4224
11920TIP3   OH257174   3.811   4.123  15.954 -0.0236 -0.6165  0.5412
11920TIP3    H157175   3.886   4.073  15.921 -0.2338  1.4081 -3.6864
11920TIP3    H257176   3.758   4.141  15.876 -4.0204 -0.3460  3.0415
11921TIP3   OH257177   0.777   4.189  12.854  0.6391  0.4433 -0.4399
11921TIP3    H157178   0.828   4.168  12.776  3.4903  1.9917  0.8361
11921TIP3    H257179   0.772   4.107  12.903  0.7545 -0.0305 -1.2080
11922TIP3   OH257180   0.758   1.690  11.488  0.4401  0.7791  0.0064
11922TIP3    H157181   0.734   1.597  11.479  0.6282  0.6185  1.0397
11922TIP3    H257182   0.773   1.719  11.398 -1.2151  0.2532 -0.4793
11923TIP3   OH257183   6.298   3.804   4.349  0.0391 -0.7345 -0.0629
11923TIP3    H157184   6.310   3.884   4.299  0.2709 -1.6353 -1.5083
11923TIP3    H257185   6.285   3.833   4.439  0.5334  0.8902 -0.4939
11924TIP3   OH257186   3.652   0.020   5.377 -0.2708  0.0018 -0.3427
11924TIP3    H157187   3.723  -0.004   5.317 -0.5575 -0.0375 -0.6738
11924TIP3    H257188   3.641  -0.056   5.433  1.2622  0.7292  1.0216
11925TIP3   OH257189   3.974   0.384   5.212 -0.1470  0.4972 -0.0915
11925TIP3    H157190   4.038   0.389   5.141  1.8289  0.5851  1.6209
11925TIP3    H257191   4.018   0.424   5.287 -2.0849  0.2226  1.2597
11926TIP3   OH257192   1.020   4.597   5.361  0.3761  0.0606 -0.3227
11926TIP3    H157193   1.053   4.516   5.400 -0.0127  0.0548 -0.0057
11926TIP3    H257194   0.971   4.639   5.431 -1.2002 -0.4413 -1.0784
11927TIP3   OH257195   1.048   5.272   4.400  0.1476  0.7345 -0.3184
11927TIP3    H157196   1.143   5.264   4.399  0.1192  0.2438  0.3423
11927TIP3    H257197   1.032   5.362   4.431  0.3967 -0.2487  3.0441
11928TIP3   OH257198   6.004   4.099   6.252  0.1047 -0.1011  0.0812
11928TIP3    H157199   5.940   4.078   6.184  0.7601 -0.7476 -0.3612
11928TIP3    H257200   6.060   4.166   6.211  0.6749 -0.6984 -0.1406
11929TIP3   OH257201   2.219   4.951   3.592  0.3061  0.4773 -0.1401
11929TIP3    H157202   2.246   4.940   3.683 -0.3635  0.0527  0.0160
11929TIP3    H257203   2.226   4.863   3.554  0.8226  0.6982 -0.5744
11930TIP3   OH257204   1.496   1.111   1.615 -0.0831  0.3122 -0.0027
11930TIP3    H157205   1.539   1.181   1.567 -0.2820  0.8366  0.5822
11930TIP3    H257206   1.556   1.037   1.608  0.3362  0.6704 -0.2287
11931TIP3   OH257207   2.741   3.410   5.212  0.5409 -0.0170 -0.5608
11931TIP3    H157208   2.699   3.324   5.214  1.3620 -0.4092  0.1334
11931TIP3    H257209   2.668   3.472   5.212 -0.0539 -0.6866  0.4351
11932TIP3   OH257210   5.846   3.435  15.230  0.3249  0.0732  0.0651
11932TIP3    H157211   5.809   3.521  15.209 -2.7648 -0.7656  1.4934
11932TIP3    H257212   5.814   3.378  15.160 -0.4455 -0.5065  0.8656
11933TIP3   OH257213   0.760   6.142  11.705 -0.1735  0.2819  0.4586
11933TIP3    H157214   0.681   6.187  11.676 -0.5407 -0.7117 -0.1380
11933TIP3    H257215   0.779   6.079  11.634  0.1005 -0.7463  1.4192
11934TIP3   OH257216   5.792   1.970  15.449 -0.4140 -0.3571  0.2000
11934TIP3    H157217   5.836   1.898  15.495  0.9750  0.5332  0.3137
11934TIP3    H257218   5.724   1.999  15.510  1.6012  1.0132  1.9231
11935TIP3   OH257219   5.891   4.102   0.624 -0.2560  0.2740  0.5389
11935TIP3    H157220   5.843   4.138   0.550 -0.8034 -1.3527  0.0488
11935TIP3    H257221   5.850   4.141   0.701 -0.5503  0.9666  0.0385
11936TIP3   OH257222   4.926   2.328  13.907 -0.2401  0.6520  0.4222
11936TIP3    H157223   4.902   2.236  13.900 -0.9519  0.9384 -1.2251
11936TIP3    H257224   5.022   2.328  13.917 -0.2049 -0.2449  0.0919
11937TIP3   OH257225   5.974   5.126   0.115  0.4098  0.3749 -0.3747
11937TIP3    H157226   5.885   5.092   0.125  1.0877 -1.0588  1.0975
11937TIP3    H257227   6.019   5.061   0.061  0.1216  2.0392 -2.7971
11938TIP3   OH257228   2.087   5.387  13.538 -0.1041  0.2006  0.2332
11938TIP3    H157229   2.102   5.450  13.467  0.2915  1.0924  1.0939
11938TIP3    H257230   2.165   5.393  13.592 -1.7277  2.0229  2.5967
11939TIP3   OH257231   3.293   2.382  11.018  0.2605  0.5692  0.2263
11939TIP3    H157232   3.365   2.444  11.006 -0.0523  0.5640 -2.1559
11939TIP3    H257233   3.215   2.431  10.991 -0.0020 -0.7648 -1.6484
11940TIP3   OH257234   3.987   0.044  16.411 -0.4230 -0.6194  0.1122
11940TIP3    H157235   3.928   0.084  16.475 -0.6175 -1.0886  0.2290
11940TIP3    H257236   4.004  -0.043  16.446  0.7740 -0.2971  0.3547
11941TIP3   OH257237   1.555   3.747  10.964 -0.3351  0.7761  0.0074
11941TIP3    H157238   1.510   3.761  10.881  0.0636  0.9496 -0.1851
11941TIP3    H257239   1.492   3.774  11.031 -0.4573  1.1670 -0.2629
11942TIP3   OH257240   4.777   4.058   2.440  0.1653 -0.6337 -0.1110
11942TIP3    H157241   4.826   3.980   2.466 -0.4044 -0.0600  3.0631
11942TIP3    H257242   4.806   4.126   2.500  1.1071  1.9082 -3.1637
11943TIP3   OH257243   4.148   4.814   5.028 -0.4598 -0.2010  0.1710
11943TIP3    H157244   4.190   4.757   5.093 -1.2884 -2.2088 -0.9516
11943TIP3    H257245   4.130   4.895   5.075 -0.0279 -1.1763  2.1270
11944TIP3   OH257246   1.268   5.882   1.141 -0.5518  0.3526  0.3447
11944TIP3    H157247   1.217   5.841   1.210 -0.4486  1.0344  0.8299
11944TIP3    H257248   1.321   5.811   1.104 -0.1894  0.0965  1.3401
11945TIP3   OH257249   1.715   3.456   0.093 -0.1989  0.2855  0.3026
11945TIP3    H157250   1.650   3.392   0.121 -2.2153  1.9032 -0.4243
11945TIP3    H257251   1.761   3.480   0.174 -0.3035 -1.0952  0.7891
11946TIP3   OH257252   6.175   4.047   0.924 -0.0261  0.3010  0.3786
11946TIP3    H157253   6.106   3.994   0.885  0.5503  0.1654 -0.4758
11946TIP3    H257254   6.178   4.126   0.870  1.0987 -0.0956 -0.1667
11947TIP3   OH257255   4.955   0.859   1.134  0.1087 -0.1485 -0.0254
11947TIP3    H157256   5.045   0.877   1.160 -0.3351  0.0498  1.5024
11947TIP3    H257257   4.912   0.945   1.138 -0.5584 -0.5211  1.0656
11948TIP3   OH257258   4.863   3.174  15.181  0.2261  0.1025  0.1899
11948TIP3    H157259   4.859   3.097  15.124  3.3615 -0.5732  0.6768
11948TIP3    H257260   4.782   3.221  15.164  0.6496 -0.3890 -4.3351
11949TIP3   OH257261   6.472   4.831  14.477 -0.3142 -0.7618  0.1506
11949TIP3    H157262   6.471   4.735  14.479 -0.1313 -0.8819 -2.4208
11949TIP3    H257263   6.521   4.853  14.398 -0.8339  1.4566  0.3746
11950TIP3   OH257264   5.250   3.865   2.550  0.1376 -0.2418 -0.0583
11950TIP3    H157265   5.223   3.775   2.533  1.8045 -1.0024  1.0389
11950TIP3    H257266   5.191   3.897   2.618 -0.7762 -0.3108 -0.8031
11951TIP3   OH257267   3.476   3.641   3.742  0.4142  0.7587 -0.0679
11951TIP3    H157268   3.520   3.572   3.692  0.1486  0.3906  0.1978
11951TIP3    H257269   3.465   3.713   3.680 -3.4101 -1.0123 -1.8169
11952TIP3   OH257270   4.023   0.078  13.226 -0.8416  0.5107 -0.3780
11952TIP3    H157271   4.039   0.013  13.158 -0.9391 -0.1012  0.1800
11952TIP3    H257272   4.023   0.162  13.179 -1.0460  0.0871 -1.1491
11953TIP3   OH257273   1.471   0.128  16.022 -0.1160  0.0435 -0.7463
11953TIP3    H157274   1.453   0.222  16.024  0.1378  0.0921 -0.7339
11953TIP3    H257275   1.443   0.096  16.107 -1.5419 -0.1431 -1.2561
11954TIP3   OH257276   3.040   1.536   5.358  0.1314 -0.1880  0.3001
11954TIP3    H157277   3.009   1.514   5.446  1.1828 -0.9214  0.4998
11954TIP3    H257278   3.062   1.452   5.318 -0.0029  0.1689 -0.5383
11955TIP3   OH257279   5.572   0.246  10.184 -0.6225  0.1987 -0.6240
11955TIP3    H157280   5.646   0.301  10.160 -0.3580 -0.2956 -0.9561
11955TIP3    H257281   5.517   0.302  10.239 -0.7017  1.0039 -1.5006
11956TIP3   OH257282   2.445   3.268  13.397  0.6720 -0.2423 -0.4923
11956TIP3    H157283   2.432   3.281  13.303 -0.5707 -1.5359 -0.5202
11956TIP3    H257284   2.449   3.357  13.432 -0.3378  0.2557 -1.5780
11957TIP3   OH257285   2.933   2.650   1.464 -0.2916 -0.0973  0.0660
11957TIP3    H157286   2.991   2.659   1.539 -1.0129  1.1591  0.5001
11957TIP3    H257287   2.946   2.560   1.434  2.0807  0.2303 -0.0459
11958TIP3   OH257288   5.839   6.319  16.345 -0.4996 -0.4481  0.2012
11958TIP3    H157289   5.916   6.293  16.395  0.7176  2.0025 -0.2668
11958TIP3    H257290   5.843   6.265  16.266 -0.6055 -1.9820  1.1935
11959TIP3   OH257291   6.125   3.104   2.067  0.4020 -0.3542 -0.5298
11959TIP3    H157292   6.197   3.097   2.130 -1.0022 -1.5489  1.0400
11959TIP3    H257293   6.084   3.188   2.087  0.6627 -0.1977 -0.6495
11960TIP3   OH257294   1.612   0.723  14.705  0.0947  0.4130  0.6212
11960TIP3    H157295   1.542   0.662  14.729  1.6189 -1.3993  0.7297
11960TIP3    H257296   1.657   0.680  14.631  0.4314  2.0546 -0.1879
11961TIP3   OH257297   0.426   2.210   4.840  0.3458  0.1498 -0.2248
11961TIP3    H157298   0.447   2.301   4.858  2.0090 -0.4643  1.2443
11961TIP3    H257299   0.393   2.210   4.750  1.2961  2.0521 -0.6271
11962TIP3   OH257300   2.877   3.388  16.236 -0.0894 -1.0447  0.6550
11962TIP3    H157301   2.926   3.355  16.311 -2.0110 -1.1749  1.9150
11962TIP3    H257302   2.806   3.439  16.274 -1.0358 -0.9805 -1.0913
11963TIP3   OH257303   4.829   4.282  11.638  0.1171 -0.7193 -0.7521
11963TIP3    H157304   4.747   4.254  11.678  0.1316 -0.3872 -0.4801
11963TIP3    H257305   4.818   4.376  11.624  1.5496 -0.0032  2.0791
11964TIP3   OH257306   1.765   2.452  10.894 -0.2550 -0.1333 -0.2691
11964TIP3    H157307   1.835   2.441  10.959 -0.3556 -2.1829 -0.4475
11964TIP3    H257308   1.808   2.491  10.818  0.2292  0.6478  0.3983
11965TIP3   OH257309   0.430   4.564  12.204  0.5894  0.2170  0.1728
11965TIP3    H157310   0.510   4.601  12.242  1.6714 -2.5642  0.8569
11965TIP3    H257311   0.364   4.632  12.216  2.0392  1.3350  2.6898
11966TIP3   OH257312   6.071   2.234   5.922  0.0221 -0.3918  0.1523
11966TIP3    H157313   6.041   2.159   5.974 -1.0737  0.0801  0.2317
11966TIP3    H257314   6.001   2.299   5.931  0.8013  0.5166 -0.1893
11967TIP3   OH257315   2.684   6.530   3.408 -0.4898  0.6308 -0.1171
11967TIP3    H157316   2.666   6.508   3.500  2.4177 -0.4383  0.2904
11967TIP3    H257317   2.761   6.587   3.412 -0.0831  0.2493 -1.9063
11968TIP3   OH257318   3.442   2.958  12.597 -0.4852 -0.2816  0.4401
11968TIP3    H157319   3.389   3.012  12.655 -0.3785  1.0204 -0.6112
11968TIP3    H257320   3.385   2.940  12.522  0.5917  1.4690 -0.8932
11969TIP3   OH257321   3.426   1.510   1.259  0.3698  0.0560  0.3695
11969TIP3    H157322   3.511   1.478   1.290  0.4479 -0.3536 -0.2351
11969TIP3    H257323   3.423   1.484   1.167  0.6985  2.3652 -0.3579
11970TIP3   OH257324   4.801   1.950   2.691  0.2000  0.5039 -0.0045
11970TIP3    H157325   4.772   1.948   2.782  3.2229  1.5396  1.1103
11970TIP3    H257326   4.744   1.886   2.646 -2.3744  1.0445  2.2110
11971TIP3   OH257327   6.685   4.995   5.692  0.2721 -0.2981 -1.0161
11971TIP3    H157328   6.720   4.971   5.777 -0.1817 -1.8350 -1.2171
11971TIP3    H257329   6.744   5.062   5.658  0.5102  0.2518  0.4532
11972TIP3   OH257330   3.288   0.638  12.839  0.0560 -0.2497 -0.4796
11972TIP3    H157331   3.314   0.681  12.920 -0.7599  0.5537 -0.6319
11972TIP3    H257332   3.222   0.696  12.801  0.0871 -0.8522 -1.4827
11973TIP3   OH257333   3.161   1.892  13.455 -0.3554 -0.0811  0.4241
11973TIP3    H157334   3.091   1.864  13.395 -0.6574  0.8615  0.3139
11973TIP3    H257335   3.242   1.869  13.409 -0.5833 -1.4027  0.6591
11974TIP3   OH257336   1.116   5.876   5.845 -0.2159 -0.3980 -0.3828
11974TIP3    H157337   1.046   5.821   5.882 -0.5445 -1.2463 -2.1303
11974TIP3    H257338   1.190   5.864   5.904  0.5032 -4.6330 -1.7421
11975TIP3   OH257339   1.834   2.660  15.600  0.0561 -0.8387  0.3103
11975TIP3    H157340   1.924   2.630  15.588  0.9063  1.0553  1.4986
11975TIP3    H257341   1.833   2.699  15.687 -1.8506 -0.5237  0.1949
11976TIP3   OH257342   2.923   6.108   6.774  0.3225  0.3672  0.3144
11976TIP3    H157343   2.900   6.200   6.758 -0.0969  0.1122 -0.5844
11976TIP3    H257344   3.018   6.107   6.774  0.5487  1.5443  4.6445
11977TIP3   OH257345   5.654   5.139   4.613 -0.3369 -0.0703 -0.6052
11977TIP3    H157346   5.650   5.053   4.570  1.8173 -0.5091 -0.0616
11977TIP3    H257347   5.645   5.119   4.706 -2.2382  0.5820 -0.6243
11978TIP3   OH257348   1.736   6.298   0.811 -0.4883 -0.0213 -0.2606
11978TIP3    H157349   1.670   6.312   0.744 -1.8376 -0.8752  0.8146
11978TIP3    H257350   1.771   6.211   0.792  0.4452  0.4705 -0.8891
11979TIP3   OH257351   3.106   4.061  13.469  0.0244 -0.4063  0.6833
11979TIP3    H157352   3.018   4.042  13.437  0.7673 -4.0354  0.3922
11979TIP3    H257353   3.139   4.129  13.410 -1.7510 -0.7004 -0.7128
11980TIP3   OH257354   3.741   5.153  13.872  0.0526  0.1157  0.3294
11980TIP3    H157355   3.803   5.184  13.806  2.1655 -2.1180  1.1097
11980TIP3    H257356   3.689   5.087  13.826 -4.0547  3.8482 -1.1693
11981TIP3   OH257357   2.925   3.105   5.807 -0.2141  0.3895  0.4781
11981TIP3    H157358   2.886   3.060   5.882 -0.3318 -0.7385 -0.2460
11981TIP3    H257359   2.981   3.040   5.766 -0.7185  0.7482 -0.8407
11982TIP3   OH257360   1.346   4.482  15.203 -0.6708  0.2911  0.0296
11982TIP3    H157361   1.254   4.490  15.177 -0.1433 -0.1466 -2.2638
11982TIP3    H257362   1.345   4.418  15.274 -2.0936 -0.1739 -0.3595
11983TIP3   OH257363   4.739   6.382  12.261  0.6841 -0.1374 -0.1186
11983TIP3    H157364   4.766   6.330  12.185  1.6249 -0.8740  0.6985
11983TIP3    H257365   4.643   6.372  12.263  0.8526 -2.0872  0.1595
11984TIP3   OH257366   6.527   1.999   0.010  0.0353  0.6330 -0.0814
11984TIP3    H157367   6.609   1.958  -0.016  0.6358  0.5840  1.7606
11984TIP3    H257368   6.542   2.093  -0.000  0.6060  0.6659  0.9798
11985TIP3   OH257369   1.574   0.519   0.025 -0.6075  0.0450 -0.2842
11985TIP3    H157370   1.606   0.479   0.106 -0.6118 -0.1213 -0.3648
11985TIP3    H257371   1.626   0.599   0.015 -0.8790  0.2742  0.0934
11986TIP3   OH257372   2.975   2.385   4.931  0.3036 -0.4999  0.3718
11986TIP3    H157373   2.992   2.347   4.845  0.8910  0.3831  0.0802
11986TIP3    H257374   2.885   2.415   4.927  0.3460 -0.4160  0.0452
11987TIP3   OH257375   4.080   1.358  15.502  0.9853  0.3118 -0.2089
11987TIP3    H157376   4.012   1.291  15.504  1.4146 -0.1685 -1.2660
11987TIP3    H257377   4.145   1.328  15.566  0.9242 -0.0143 -0.2963
11988TIP3   OH257378   1.794   5.069   0.839  0.5933  0.6789 -0.3274
11988TIP3    H157379   1.837   5.053   0.755  1.2216 -1.5568  0.3451
11988TIP3    H257380   1.866   5.093   0.898  0.4826  0.0254  0.0777
11989TIP3   OH257381   4.880   5.033   5.331  0.2993  0.2061 -0.2106
11989TIP3    H157382   4.784   5.033   5.332  0.2563 -1.5148  1.7323
11989TIP3    H257383   4.903   5.123   5.308 -1.7055  0.1088 -3.2711
11990TIP3   OH257384   3.821   0.171   4.628 -0.0330 -0.2389 -0.1352
11990TIP3    H157385   3.841   0.080   4.647 -0.3475 -0.5233 -1.0913
11990TIP3    H257386   3.725   0.173   4.620 -0.0864  0.3171  0.5776
11991TIP3   OH257387   5.216   0.885  14.588  0.3649  0.5063  0.2568
11991TIP3    H157388   5.298   0.845  14.558 -0.9124  0.2549 -3.3289
11991TIP3    H257389   5.169   0.813  14.630  0.9752  0.0680  0.2139
11992TIP3   OH257390   6.180   3.153   3.628 -0.0008  0.1646  0.6150
11992TIP3    H157391   6.203   3.123   3.539 -1.2240  1.5594 -0.2189
11992TIP3    H257392   6.103   3.101   3.651  0.2698 -0.1406  0.8531
11993TIP3   OH257393   1.244   6.167  12.282 -0.7917  0.2112 -0.2134
11993TIP3    H157394   1.262   6.141  12.192 -1.0020  1.1635 -0.5443
11993TIP3    H257395   1.158   6.209  12.278 -0.6146  0.6379  0.3469
11994TIP3   OH257396   6.705   4.346   1.410  0.2001 -0.1962 -0.4622
11994TIP3    H157397   6.722   4.431   1.450  1.2237 -0.0086 -1.2456
11994TIP3    H257398   6.612   4.330   1.426  0.1934  0.6582  0.4578
11995TIP3   OH257399   0.969   0.391  11.454 -0.0751  0.2446 -0.1814
11995TIP3    H157400   0.960   0.296  11.451  0.6586  0.1875 -2.0194
11995TIP3    H257401   0.887   0.423  11.492  0.4059 -1.1803  2.2671
11996TIP3   OH257402   4.953   3.363   4.250 -0.0952 -0.9394  0.2005
11996TIP3    H157403   5.002   3.443   4.230  0.6697 -0.7907  2.4155
11996TIP3    H257404   4.990   3.332   4.333 -1.6149 -2.6061  0.3188
11997TIP3   OH257405   3.366   5.648  13.146 -0.1116 -0.3805  0.0975
11997TIP3    H157406   3.398   5.719  13.201 -0.0874  0.5144 -1.0565
11997TIP3    H257407   3.420   5.651  13.067 -1.4613 -0.3355 -0.8682
11998TIP3   OH257408   6.326   5.420   3.336 -0.5950  0.2284 -0.6791
11998TIP3    H157409   6.377   5.341   3.320 -0.9827 -0.1637  0.0095
11998TIP3    H257410   6.386   5.477   3.385  0.0883  0.8512 -2.1603
11999TIP3   OH257411   3.447   5.647  10.564 -0.2662 -0.2863 -0.6034
11999TIP3    H157412   3.406   5.664  10.479  1.2392  0.8296 -1.1540
11999TIP3    H257413   3.498   5.726  10.582  1.7510 -1.6545 -0.0298
12000TIP3   OH257414   3.871   5.407   0.195  0.0127  0.2234  0.3054
12000TIP3    H157415   3.936   5.343   0.225 -0.5974 -0.8080 -0.5250
12000TIP3    H257416   3.843   5.375   0.110 -2.0975  0.2579  0.9263
12001TIP3   OH257417   6.804   2.456  16.593 -0.2099  0.2130 -0.3480
12001TIP3    H157418   6.786   2.551  16.592  0.6043  0.4247  1.4122
12001TIP3    H257419   6.898   2.449  16.575  0.1861 -0.0682  1.5962
12002TIP3   OH257420   1.432   3.518  13.971  0.3409  0.1867  0.4379
12002TIP3    H157421   1.436   3.433  14.014 -0.1760  0.3995  0.9304
12002TIP3    H257422   1.376   3.505  13.895  1.1418 -0.1595 -0.0996
12003TIP3   OH257423   3.295   3.606  16.128 -0.6062  0.4616 -0.6070
12003TIP3    H157424   3.200   3.604  16.112 -0.8316  1.0610  0.5449
12003TIP3    H257425   3.322   3.515  16.122 -1.3136  0.2447 -0.6413
12004TIP3   OH257426   0.511   4.811  15.640  0.2613  0.4799 -0.0554
12004TIP3    H157427   0.566   4.763  15.578  2.4412  1.5874  0.9063
12004TIP3    H257428   0.465   4.743  15.690  1.7271 -0.5523 -0.0698
12005TIP3   OH257429   6.577   1.250   3.763 -0.9494 -0.6304  0.2082
12005TIP3    H157430   6.522   1.218   3.834  0.6232  0.1823  1.8718
12005TIP3    H257431   6.665   1.255   3.801 -0.0184 -0.3192 -1.8557
12006TIP3   OH257432   1.594   0.229   1.931 -0.4831 -0.5830  0.6849
12006TIP3    H157433   1.684   0.262   1.925 -1.1319  1.2627  0.4704
12006TIP3    H257434   1.580   0.216   2.025 -0.2753 -0.0204  0.8011
12007TIP3   OH257435   5.894   6.680  11.799 -0.5447  0.1664  0.3113
12007TIP3    H157436   5.893   6.594  11.757  0.5140  0.6013 -0.6588
12007TIP3    H257437   5.857   6.739  11.734  0.8987  0.8104  0.0190
12008TIP3   OH257438   0.644   4.713   0.849 -0.0248 -0.2930 -0.1568
12008TIP3    H157439   0.670   4.738   0.760 -0.1804 -0.2889 -0.2016
12008TIP3    H257440   0.714   4.655   0.879 -0.1265 -0.5439 -0.3999
12009TIP3   OH257441   1.279   5.965  12.731  0.3075 -0.5484  0.2968
12009TIP3    H157442   1.194   5.926  12.753  0.0880 -1.4655 -1.9285
12009TIP3    H257443   1.282   5.964  12.636  1.2760  2.9413  0.1667
12010TIP3   OH257444   5.210   0.958  12.319  0.3716 -0.4629 -0.2481
12010TIP3    H157445   5.172   1.042  12.294 -0.1863 -0.4008  0.7648
12010TIP3    H257446   5.222   0.911  12.236  0.9304  0.7061 -0.8474
12011TIP3   OH257447   6.570   1.532   5.731  0.4235 -0.0000  0.1236
12011TIP3    H157448   6.524   1.518   5.814  0.3827  2.7364  0.6539
12011TIP3    H257449   6.500   1.536   5.666  0.2099  0.4706  0.3751
12012TIP3   OH257450   4.715   5.162   2.020  0.3505 -0.6566  0.5074
12012TIP3    H157451   4.635   5.117   1.994  0.5741 -0.1160 -1.2825
12012TIP3    H257452   4.688   5.219   2.091 -1.3166  0.8170 -1.1807
12013TIP3   OH257453   1.242   2.761  11.748 -0.3000 -0.0076  0.6939
12013TIP3    H157454   1.270   2.670  11.751 -0.5846 -0.3103 -2.2111
12013TIP3    H257455   1.292   2.805  11.817  1.3273 -1.9854  0.8449
12014TIP3   OH257456   5.018   5.622  13.618 -0.4192 -0.9775 -0.6900
12014TIP3    H157457   5.047   5.599  13.706  1.7394 -2.0277 -1.5919
12014TIP3    H257458   4.945   5.683  13.631  0.8693  0.1525  1.8076
12015TIP3   OH257459   5.758   4.224   6.102  0.4306 -0.0584 -0.0741
12015TIP3    H157460   5.675   4.177   6.093  0.3073  0.0972  0.2359
12015TIP3    H257461   5.745   4.280   6.178  0.4984  0.6306 -0.5613
12016TIP3   OH257462   6.638   1.692  11.064  0.0332 -0.1341 -0.4283
12016TIP3    H157463   6.594   1.761  11.014 -1.0441 -1.0957 -0.8500
12016TIP3    H257464   6.589   1.612  11.043 -1.6697 -0.3482  3.4256
12017TIP3   OH257465   5.323   6.654   3.130 -0.0010  0.4046  0.6454
12017TIP3    H157466   5.368   6.714   3.070 -0.1009  0.1661  0.3262
12017TIP3    H257467   5.279   6.591   3.072  2.5302 -1.8466  0.9541
12018TIP3   OH257468   2.334   0.699   2.318  0.2444  0.1487  0.0573
12018TIP3    H157469   2.410   0.649   2.287 -0.1646 -0.6306  0.3021
12018TIP3    H257470   2.318   0.763   2.248 -0.5151 -1.4206 -1.2651
12019TIP3   OH257471   5.904   1.890  11.474  0.3588 -0.0675 -0.2449
12019TIP3    H157472   5.926   1.819  11.534 -1.5135 -1.3499 -0.9810
12019TIP3    H257473   5.972   1.956  11.488  0.5822 -0.7710  2.4804
12020TIP3   OH257474   0.041   1.841  15.638 -0.2591 -0.3798  0.5102
12020TIP3    H157475   0.000   1.802  15.561  3.2875 -1.8910 -0.8241
12020TIP3    H257476   0.060   1.767  15.696 -0.5568  0.4344  1.6968
12021TIP3   OH257477   3.001   3.485  15.858  0.1493 -0.0380 -0.0743
12021TIP3    H157478   3.020   3.391  15.861 -0.1815 -0.1167 -0.4151
12021TIP3    H257479   3.004   3.512  15.950  1.7532 -0.0673 -0.0806
12022TIP3   OH257480   5.470   5.048   3.520  0.1193 -0.3344  0.2826
12022TIP3    H157481   5.486   4.996   3.441 -0.2174 -0.7750  0.4939
12022TIP3    H257482   5.386   5.091   3.504 -0.9886 -2.0069  1.1716
12023TIP3   OH257483   2.027   0.615   5.221  0.0381  0.3498 -0.1789
12023TIP3    H157484   2.019   0.684   5.155 -1.5295  0.5132  0.1475
12023TIP3    H257485   2.037   0.663   5.304  2.0606  0.1467 -0.2469
12024TIP3   OH257486   2.604   6.073  12.772  0.1839  0.0346  0.2470
12024TIP3    H157487   2.684   6.031  12.741  0.9346 -0.7293  2.9844
12024TIP3    H257488   2.563   6.106  12.692  2.3378 -1.0461 -1.4368
12025TIP3   OH257489   5.770   4.371   4.003 -0.0683  0.5819 -0.7509
12025TIP3    H157490   5.692   4.315   3.996  0.3940  0.0082 -1.5611
12025TIP3    H257491   5.828   4.339   3.933  1.2639  0.4117  0.3910
12026TIP3   OH257492   3.361   0.978  12.779  0.3251 -0.7333 -0.4755
12026TIP3    H157493   3.370   0.931  12.697  0.8719  0.7183 -1.2845
12026TIP3    H257494   3.446   1.021  12.792  0.0454 -0.4374  0.5273
12027TIP3   OH257495   0.754   3.355   3.119  0.0287 -0.0425 -0.5140
12027TIP3    H157496   0.809   3.327   3.046 -0.9425 -0.2095 -1.2100
12027TIP3    H257497   0.767   3.288   3.186 -0.2501 -0.7557 -1.1476
12028TIP3   OH257498   5.661   1.879   1.750 -0.0645  0.1901  0.4349
12028TIP3    H157499   5.623   1.796   1.779  1.8904 -0.9382 -0.0016
12028TIP3    H257500   5.745   1.854   1.711  0.1242  2.2822 -0.6493
12029TIP3   OH257501   4.613   5.546   4.231 -0.1112  0.4530 -0.0217
12029TIP3    H157502   4.674   5.501   4.289 -0.2882  0.8524  0.4917
12029TIP3    H257503   4.608   5.491   4.153 -0.6566 -0.6541  0.7560
12030TIP3   OH257504   0.183   5.982   5.273 -0.1795 -0.0811  0.8693
12030TIP3    H157505   0.195   6.071   5.307 -0.7843  0.9353 -1.3788
12030TIP3    H257506   0.272   5.947   5.265  0.1441  0.7191  0.8347
12031TIP3   OH257507   6.700   0.230   0.253  0.1090  0.1040 -0.1506
12031TIP3    H157508   6.792   0.223   0.225 -0.1032  1.6197 -1.2898
12031TIP3    H257509   6.649   0.202   0.177 -0.4101  1.3667 -0.2845
12032TIP3   OH257510   4.374   6.219  11.527  0.8153 -0.3791 -0.1767
12032TIP3    H157511   4.337   6.239  11.612  1.1548  1.7003 -0.4733
12032TIP3    H257512   4.339   6.286  11.468  2.1180 -0.5779 -1.2494
12033TIP3   OH257513   5.258   2.244  16.765  0.6401  0.3109 -0.1531
12033TIP3    H157514   5.184   2.213  16.712 -1.2252 -0.3778  2.6175
12033TIP3    H257515   5.334   2.198  16.729 -0.7972 -1.3820 -1.2225
12034TIP3   OH257516   5.705   2.405  14.384 -0.5296 -0.6330 -0.0293
12034TIP3    H157517   5.682   2.322  14.341  0.7224 -1.4491  0.7809
12034TIP3    H257518   5.791   2.427  14.348  0.3771 -1.1387  1.7070
12035TIP3   OH257519   3.086   3.412  14.827 -0.4040  0.1322  0.2377
12035TIP3    H157520   2.996   3.427  14.855  0.1231  1.6387  1.2945
12035TIP3    H257521   3.090   3.444  14.737 -1.5892 -2.6934 -0.9239
12036TIP3   OH257522   5.424   2.649  12.265 -0.7599 -0.3520  0.4047
12036TIP3    H157523   5.514   2.624  12.246 -0.4232 -0.1143  1.6329
12036TIP3    H257524   5.391   2.579  12.322 -1.2227 -0.2161  0.3104
12037TIP3   OH257525   0.036   0.389   5.751 -0.0626 -0.3755  0.4570
12037TIP3    H157526   0.021   0.298   5.726  1.4571 -0.5465  0.1119
12037TIP3    H257527   0.005   0.439   5.675 -0.4065 -0.6195  0.4302
12038TIP3   OH257528   3.633   2.979   4.560 -0.0084  0.3269  0.0575
12038TIP3    H157529   3.584   3.062   4.557 -1.0079 -0.2601 -0.5259
12038TIP3    H257530   3.638   2.958   4.653 -0.5971  0.5683  0.1512
12039TIP3   OH257531   0.513   1.856   5.671  0.1356 -0.1953  0.2114
12039TIP3    H157532   0.547   1.941   5.643  0.7603  0.3812  2.4699
12039TIP3    H257533   0.435   1.843   5.618 -0.2265  2.0134  0.0797
12040TIP3   OH257534   2.415   3.045   0.897  0.6060  0.0255  0.3807
12040TIP3    H157535   2.337   2.996   0.923  0.5679 -0.6030 -0.8303
12040TIP3    H257536   2.485   2.980   0.895  0.7179  0.1602 -0.4927
12041TIP3   OH257537   3.618   3.037   1.662  0.3829 -0.5338 -0.1292
12041TIP3    H157538   3.640   2.975   1.592  0.8750 -0.1205 -0.3495
12041TIP3    H257539   3.666   3.116   1.639 -1.4052  0.4584 -0.6969
12042TIP3   OH257540   1.065   2.453  15.574 -0.3905  0.1639 -0.7434
12042TIP3    H157541   1.035   2.464  15.664  0.2036  0.9737 -0.6310
12042TIP3    H257542   1.003   2.391  15.536 -0.5167 -0.3650  0.2781
12043TIP3   OH257543   5.766   4.570  14.281 -0.8579 -0.2020  0.0339
12043TIP3    H157544   5.770   4.621  14.363  0.3976 -0.9048  0.4362
12043TIP3    H257545   5.690   4.512  14.293  0.5362 -1.8397  1.6875
12044TIP3   OH257546   4.912   2.794   3.795  0.0239  0.0199  0.5740
12044TIP3    H157547   4.987   2.754   3.751  0.8536 -0.0825  2.0158
12044TIP3    H257548   4.846   2.724   3.799  0.3565 -0.2998  0.4973
12045TIP3   OH257549   4.799   2.079   1.393  0.5464 -0.3934 -0.2974
12045TIP3    H157550   4.878   2.032   1.419 -0.0899 -1.1815  0.2436
12045TIP3    H257551   4.755   2.100   1.475  0.2470  0.1498 -0.5911
12046TIP3   OH257552   1.417   6.129   0.697 -0.2948 -0.4656 -0.0436
12046TIP3    H157553   1.491   6.069   0.689 -0.2760 -0.4991  0.3708
12046TIP3    H257554   1.390   6.122   0.789 -0.8124 -0.4585 -0.1911
12047TIP3   OH257555   6.573   0.104   6.874  0.3808  0.3766 -0.1729
12047TIP3    H157556   6.564   0.191   6.836 -0.2288  0.2232 -0.3936
12047TIP3    H257557   6.490   0.060   6.854  1.5441 -1.0784 -2.1292
12048TIP3   OH257558   6.773   0.759  12.568 -0.7904 -0.0392 -0.9291
12048TIP3    H157559   6.681   0.775  12.548 -1.1420  2.3499  1.9558
12048TIP3    H257560   6.820   0.832  12.527 -0.4818  0.0737 -0.3878
12049TIP3   OH257561   0.617   3.877   0.754  0.6935  0.3685  0.3189
12049TIP3    H157562   0.537   3.828   0.775 -0.4395  0.1542 -3.6116
12049TIP3    H257563   0.682   3.810   0.736  0.4228  0.3527 -0.7073
12050TIP3   OH257564   5.556   2.578  14.835 -0.2926  0.1198  0.0462
12050TIP3    H157565   5.584   2.594  14.745 -0.9691  2.0647  0.1355
12050TIP3    H257566   5.629   2.608  14.888 -1.1823  2.1579  0.1933
12051TIP3   OH257567   4.775   0.043  15.284  0.0002 -0.0288  0.3193
12051TIP3    H157568   4.864   0.013  15.301  0.6582  0.5606 -1.7720
12051TIP3    H257569   4.724  -0.037  15.275  0.7506 -0.4340 -0.4615
12052TIP3   OH257570   4.267   0.085   1.748  1.2171  0.1922  0.1195
12052TIP3    H157571   4.243   0.042   1.830  2.8522  0.1241  0.5920
12052TIP3    H257572   4.295   0.014   1.690 -0.1504  0.2152 -0.6132
12053TIP3   OH257573   5.530   2.757  12.927  0.4065  0.2957  0.3520
12053TIP3    H157574   5.440   2.750  12.895  0.0766 -0.2555  1.3871
12053TIP3    H257575   5.530   2.836  12.982  0.9269  1.1233 -0.7700
12054TIP3   OH257576   3.298   0.845   5.816  0.7299 -0.3603 -0.0943
12054TIP3    H157577   3.252   0.888   5.744  1.4023  0.1496 -0.2322
12054TIP3    H257578   3.229   0.803   5.867  0.1249  0.2885 -0.3631
12055TIP3   OH257579   5.347   3.082   5.022 -0.0696  0.2676  0.6297
12055TIP3    H157580   5.315   3.141   5.090 -0.4516  0.2693  0.4553
12055TIP3    H257581   5.380   3.139   4.953  0.9851  0.2588  1.1183
12056TIP3   OH257582   2.859   1.639   5.178  0.8906  0.1473  0.4333
12056TIP3    H157583   2.788   1.578   5.157  1.1210  0.5256 -1.5834
12056TIP3    H257584   2.923   1.585   5.224  1.0877 -1.1769 -1.3005
12057TIP3   OH257585   1.764   2.362  15.817  0.3288  0.1906  0.2145
12057TIP3    H157586   1.718   2.402  15.743  0.5156 -0.0109 -0.0150
12057TIP3    H257587   1.842   2.322  15.777 -0.2959 -1.1606  0.3019
12058TIP3   OH257588   2.127   4.718  16.043  0.1503  0.0589 -0.1848
12058TIP3    H157589   2.215   4.721  16.081  0.0301 -1.0966  0.2432
12058TIP3    H257590   2.141   4.694  15.952  0.2889 -0.0975 -0.1229
12059TIP3   OH257591   1.275   5.528  11.423 -0.0054  0.0434  0.3683
12059TIP3    H157592   1.364   5.494  11.421  0.9536  2.3725  0.2104
12059TIP3    H257593   1.239   5.497  11.506  1.3128 -0.1351  0.8914
12060TIP3   OH257594   1.587   2.173   1.120 -0.6178 -0.6100  0.4555
12060TIP3    H157595   1.654   2.219   1.069  1.0664 -2.6860  0.6470
12060TIP3    H257596   1.512   2.167   1.061  0.9201 -2.0447 -1.4866
12061TIP3   OH257597   4.681   3.203   3.359  0.2262  0.0511  0.2446
12061TIP3    H157598   4.660   3.223   3.268 -1.0659 -0.6407  0.3690
12061TIP3    H257599   4.777   3.200   3.361  0.2881 -2.5614 -1.6862
12062TIP3   OH257600   6.652   3.541  15.505  0.4257 -0.2621 -0.0559
12062TIP3    H157601   6.569   3.569  15.544  0.0068 -2.2489  0.5913
12062TIP3    H257602   6.695   3.623  15.479 -1.4194  0.8484  0.2079
12063TIP3   OH257603   5.276   0.375   2.831 -0.2130  0.0943  0.8554
12063TIP3    H157604   5.235   0.441   2.887 -1.0465  0.6445 -0.3534
12063TIP3    H257605   5.206   0.312   2.813 -0.1923  0.3450 -0.1785
12064TIP3   OH257606   5.944   3.124  15.945  0.5747 -0.0197 -0.5784
12064TIP3    H157607   5.978   3.035  15.932  1.7393  0.1748  0.8450
12064TIP3    H257608   5.942   3.162  15.858 -0.2570 -1.5330 -1.2630
12065TIP3   OH257609   6.229   4.941  14.490  0.1535 -0.2611  0.2599
12065TIP3    H157610   6.208   4.969  14.401  2.3345  4.6215  0.9189
12065TIP3    H257611   6.319   4.907  14.483  0.3006  0.0617  0.5635
12066TIP3   OH257612   1.499   5.942   1.346 -0.0901  0.0581  0.5439
12066TIP3    H157613   1.559   5.880   1.389  1.0730  1.0749  0.4501
12066TIP3    H257614   1.457   5.892   1.277  2.0569 -0.2521 -0.6089
12067TIP3   OH257615   4.380   3.942   4.309  0.4819  0.1236 -0.3095
12067TIP3    H157616   4.362   3.975   4.221  2.0648  0.1874 -0.6324
12067TIP3    H257617   4.353   3.850   4.305  0.6409  0.0942 -0.8959
12068TIP3   OH257618   3.726   4.526  12.786  0.2872  0.3975 -0.0578
12068TIP3    H157619   3.651   4.571  12.825  0.6629  1.3568 -0.4142
12068TIP3    H257620   3.803   4.568  12.824  0.6554  0.5847 -0.9646
12069TIP3   OH257621   2.272   2.913   1.143 -0.1868 -0.4034  0.4318
12069TIP3    H157622   2.198   2.972   1.128 -1.0272 -1.1907  1.4102
12069TIP3    H257623   2.287   2.916   1.237 -1.6158 -3.3150  0.8554
12070TIP3   OH257624   4.990   3.439   2.636  0.9102 -0.0761 -0.0080
12070TIP3    H157625   5.081   3.437   2.663  1.1045  1.3285 -0.4805
12070TIP3    H257626   4.953   3.515   2.682 -0.2570 -1.1147  0.8478
12071TIP3   OH257627   1.836   5.645   4.050  0.1886 -0.5684  0.0575
12071TIP3    H157628   1.849   5.706   3.978  0.5402  0.6768  1.1326
12071TIP3    H257629   1.747   5.612   4.038 -0.2705  0.6956 -0.1702
12072TIP3   OH257630   5.006   6.598  12.141  0.1211  0.4138 -0.1002
12072TIP3    H157631   5.022   6.628  12.231  0.0920 -0.8074  0.3396
12072TIP3    H257632   5.026   6.504  12.144 -0.7996  0.1657 -1.1323
12073TIP3   OH257633   3.235   1.034   6.056  0.2840 -0.0186  0.0825
12073TIP3    H157634   3.194   1.052   6.140  0.8956  0.3986  0.2946
12073TIP3    H257635   3.208   0.944   6.035  1.6304 -0.8390  1.6319
12074TIP3   OH257636   2.495   1.294   1.746  0.2792 -0.0513  0.1071
12074TIP3    H157637   2.492   1.267   1.838  2.9493  0.4713  0.4341
12074TIP3    H257638   2.452   1.380   1.745 -0.1351 -0.2408  0.7763
12075TIP3   OH257639   1.754   1.898  12.682  0.1421 -0.5594 -0.6253
12075TIP3    H157640   1.778   1.990  12.667  1.8301 -0.8618  0.0336
12075TIP3    H257641   1.696   1.900  12.758  0.1706 -0.0358 -0.6137
12076TIP3   OH257642   2.415   6.187   3.060  0.3422  0.0345 -0.2733
12076TIP3    H157643   2.490   6.163   3.114 -0.4357 -0.3774  0.6633
12076TIP3    H257644   2.401   6.112   3.003 -1.7009 -1.6614  2.2211
12077TIP3   OH257645   5.688   0.357   0.474 -0.4382  0.4094 -0.3279
12077TIP3    H157646   5.616   0.293   0.469  0.8752 -1.1158 -0.7908
12077TIP3    H257647   5.647   0.441   0.458 -2.4272 -0.1703  1.2853
12078TIP3   OH257648   2.303   1.940   1.706 -1.0364  0.2189 -0.2629
12078TIP3    H157649   2.260   1.872   1.758 -0.4712 -0.1531 -0.2695
12078TIP3    H257650   2.232   1.981   1.656 -1.4724  0.0624  0.2207
12079TIP3   OH257651   4.709   1.607  13.891  0.9929  0.3263 -0.1943
12079TIP3    H157652   4.639   1.671  13.882 -0.5590 -1.4767 -2.2905
12079TIP3    H257653   4.728   1.605  13.984 -0.3295  2.3184  0.1905
12080TIP3   OH257654   5.700   6.005   4.551 -0.0132 -0.6499  0.0953
12080TIP3    H157655   5.669   5.980   4.463 -1.4098  1.8030 -0.1974
12080TIP3    H257656   5.620   6.007   4.604  0.7155 -1.3424  1.2529
12081TIP3   OH257657   5.829   0.268  16.741  0.4678  0.1131 -0.3529
12081TIP3    H157658   5.867   0.191  16.699  2.2599  0.5215  0.4170
12081TIP3    H257659   5.809   0.240  16.830  0.6078  0.3848 -0.2347
12082TIP3   OH257660   0.786   4.816  14.830  0.3654 -0.0986  0.1869
12082TIP3    H157661   0.748   4.884  14.775  1.3274  0.1711 -0.1566
12082TIP3    H257662   0.733   4.818  14.910  1.4125  2.2239  0.8968
12083TIP3   OH257663   5.860   1.459   1.917 -0.0384  0.1781 -0.1428
12083TIP3    H157664   5.868   1.523   1.987 -1.3080  1.5042 -1.1472
12083TIP3    H257665   5.812   1.386   1.957 -0.3997  0.7470  0.4796
12084TIP3   OH257666   2.925   0.276   4.343 -0.1160 -0.3285  0.0623
12084TIP3    H157667   2.832   0.254   4.339  0.2753 -2.3388  0.9216
12084TIP3    H257668   2.967   0.214   4.284  0.8352 -0.5124  0.9054
12085TIP3   OH257669   4.083   0.481  15.388 -0.8054 -0.8704 -0.0069
12085TIP3    H157670   4.129   0.474  15.472  0.0220  1.5316 -0.1669
12085TIP3    H257671   4.114   0.407  15.337  1.0125 -0.7140  0.7985
12086TIP3   OH257672   0.118   2.896   3.638 -0.0968 -0.0221  0.6549
12086TIP3    H157673   0.056   2.934   3.699 -0.6892 -0.7919  0.5442
12086TIP3    H257674   0.196   2.878   3.691 -0.1664  0.4275  0.9145
12087TIP3   OH257675   5.679   2.232  13.055  0.5268 -0.6514 -0.3108
12087TIP3    H157676   5.597   2.189  13.031  1.3908 -2.1873 -0.6436
12087TIP3    H257677   5.720   2.254  12.971 -0.1898  1.5130 -0.1657
12088TIP3   OH257678   6.025   1.701   4.786 -0.1078  0.0548 -0.2223
12088TIP3    H157679   6.040   1.707   4.881  1.4722 -1.0220 -0.3644
12088TIP3    H257680   6.063   1.617   4.761 -2.2666 -0.6169 -1.5258
12089TIP3   OH257681   1.223   1.719  10.465 -0.6740  0.8603 -0.4605
12089TIP3    H157682   1.147   1.713  10.407  1.2662  3.7069 -3.6592
12089TIP3    H257683   1.219   1.809  10.499 -0.1125  0.1776  1.5833
12090TIP3   OH257684   5.851   2.438   0.182 -0.0713  0.3081  0.5213
12090TIP3    H157685   5.946   2.450   0.183 -0.0858  0.4057  1.1515
12090TIP3    H257686   5.833   2.401   0.096  0.6940 -0.9521  0.8741
12091TIP3   OH257687   1.601   5.104   3.395  0.1413 -0.0370  0.1483
12091TIP3    H157688   1.680   5.092   3.447 -1.7007 -3.8810  2.5719
12091TIP3    H257689   1.621   5.063   3.310  0.1263 -3.5844  1.6824
12092TIP3   OH257690   4.803   0.151   0.183 -0.7554 -0.7200 -0.1117
12092TIP3    H157691   4.823   0.159   0.277  0.8806 -0.1874 -0.4644
12092TIP3    H257692   4.715   0.187   0.174 -0.9492 -0.8070  1.2247
12093TIP3   OH257693   0.225   3.782   4.521 -0.1489  0.2937  0.2731
12093TIP3    H157694   0.318   3.803   4.529 -0.4481  0.9435  2.7404
12093TIP3    H257695   0.186   3.861   4.485  0.1418  0.2356 -0.1880
12094TIP3   OH257696   0.809   4.822  15.710 -0.5478 -0.5486  0.4248
12094TIP3    H157697   0.823   4.770  15.788 -1.0020 -1.4810 -0.0939
12094TIP3    H257698   0.754   4.767  15.654 -0.6001  0.2749 -0.3625
12095TIP3   OH257699   4.531   5.255   4.608  0.3646  0.4687  0.1100
12095TIP3    H157700   4.565   5.208   4.684  0.9581 -1.3846 -1.2161
12095TIP3    H257701   4.447   5.290   4.637  0.2028 -0.8835  1.3965
12096TIP3   OH257702   6.083   4.252   0.257 -0.1477  0.7050 -0.3752
12096TIP3    H157703   6.074   4.272   0.163  1.1901  1.1579 -0.4446
12096TIP3    H257704   6.177   4.234   0.268 -0.8043 -3.1075  0.2083
12097TIP3   OH257705   0.728   1.878   4.273 -0.4977  0.4672 -0.0889
12097TIP3    H157706   0.764   1.947   4.328  0.5697 -0.6492  0.6660
12097TIP3    H257707   0.764   1.896   4.186 -0.3634  0.9659  0.0654
12098TIP3   OH257708   1.879   6.407   6.827  0.3008 -0.5314 -0.0241
12098TIP3    H157709   1.848   6.490   6.790  0.2200 -0.3340  0.4863
12098TIP3    H257710   1.911   6.430   6.914 -1.0554 -1.2754  0.6930
12099TIP3   OH257711   2.611   1.359  14.321  0.1058 -0.4331  0.3810
12099TIP3    H157712   2.602   1.264  14.326  0.4693 -0.5787 -1.2625
12099TIP3    H257713   2.701   1.376  14.348  0.5606 -0.7359 -0.8699
12100TIP3   OH257714   0.482   1.581  12.748  0.6108  0.2261  0.0208
12100TIP3    H157715   0.419   1.570  12.819 -1.1435 -1.1560 -1.6155
12100TIP3    H257716   0.492   1.676  12.739 -2.8198  0.6530 -0.8437
12101TIP3   OH257717   0.990   2.056   2.067  0.7375 -0.0296  0.2320
12101TIP3    H157718   0.908   2.093   2.100  0.2165  0.3798 -1.4142
12101TIP3    H257719   1.058   2.111   2.106  0.0334  2.0197 -1.2345
12102TIP3   OH257720   4.192   5.740  15.988 -0.0028 -0.0862  0.2158
12102TIP3    H157721   4.156   5.725  16.075  0.9735 -1.4705  0.4111
12102TIP3    H257722   4.179   5.657  15.942 -2.1831  1.1419 -1.6335
12103TIP3   OH257723   5.246   0.503  14.249 -0.1980  0.1876 -0.8254
12103TIP3    H157724   5.300   0.447  14.194  0.1302  0.8468 -1.1794
12103TIP3    H257725   5.287   0.589  14.244 -0.6634  0.4503 -0.2414
12104TIP3   OH257726   6.024   6.694  15.758 -0.4712 -0.6529  0.7901
12104TIP3    H157727   6.010   6.646  15.840 -2.5191  1.4972  1.8251
12104TIP3    H257728   5.994   6.783  15.777  3.2327  1.2069 -0.9645
12105TIP3   OH257729   2.715   5.346  14.563  0.1639  0.0615 -0.1863
12105TIP3    H157730   2.753   5.315  14.481  1.1317 -1.7752  0.8839
12105TIP3    H257731   2.772   5.418  14.591  1.4889 -1.0620  0.1638
12106TIP3   OH257732   4.177   2.056   3.230 -0.0297 -0.2649 -0.3803
12106TIP3    H157733   4.187   2.022   3.319  0.9152  1.0264  0.0455
12106TIP3    H257734   4.103   2.117   3.236  0.5967  0.4989 -0.2447
12107TIP3   OH257735   1.148   0.382   0.958 -0.0722  0.9759  0.0706
12107TIP3    H157736   1.211   0.450   0.983  0.9412  0.6872 -1.4803
12107TIP3    H257737   1.194   0.300   0.976  0.2737  0.7613 -1.5680
12108TIP3   OH257738   2.876   3.738   3.767 -0.0045  0.1601  0.5076
12108TIP3    H157739   2.925   3.803   3.717  0.5487  0.3887  1.3081
12108TIP3    H257740   2.936   3.714   3.838 -0.9470  0.2136  1.3361
12109TIP3   OH257741   5.314   5.219  13.890  0.1772  0.0939  0.4599
12109TIP3    H157742   5.351   5.308  13.891  0.1776  0.0981  1.1233
12109TIP3    H257743   5.331   5.186  13.979 -0.7492 -0.1848  0.5447
12110TIP3   OH257744   0.712   6.413   4.167  0.5248 -0.3006  0.3305
12110TIP3    H157745   0.802   6.424   4.196  0.9056  1.1914 -1.2491
12110TIP3    H257746   0.663   6.480   4.215  0.4890 -0.3273  0.3308
12111TIP3   OH257747   0.770   1.586  16.072 -0.3139  0.3517 -0.5987
12111TIP3    H157748   0.798   1.671  16.106  0.3304 -0.0617 -0.0840
12111TIP3    H257749   0.677   1.582  16.093 -0.7323  1.5638 -1.9723
12112TIP3   OH257750   2.551   2.349   4.814  0.3144  0.0646  0.2933
12112TIP3    H157751   2.549   2.382   4.724  0.7192 -0.0274  0.2469
12112TIP3    H257752   2.474   2.292   4.821 -0.1994  0.7465  0.2729
12113TIP3   OH257753   0.583   3.981  11.306 -0.1724 -0.2799  0.0097
12113TIP3    H157754   0.508   3.922  11.302 -1.1338  0.9823 -1.5778
12113TIP3    H257755   0.602   3.989  11.400 -1.7539 -0.9358  0.4141
12114TIP3   OH257756   0.982   5.592  12.106 -0.2050  0.2354 -0.5442
12114TIP3    H157757   0.959   5.643  12.028  1.9046  1.8430 -0.1907
12114TIP3    H257758   1.017   5.656  12.167 -0.6879 -1.1747  1.3092
12115TIP3   OH257759   3.127   2.429   4.040  0.1162  0.0407 -0.0228
12115TIP3    H157760   3.096   2.371   4.110 -0.1747  1.3349  0.9731
12115TIP3    H257761   3.164   2.505   4.087  0.7312  0.5428 -1.2688
12116TIP3   OH257762   1.610   1.174  11.439 -0.1852  0.2471  0.1528
12116TIP3    H157763   1.579   1.236  11.373  0.8413  0.7972  0.1687
12116TIP3    H257764   1.533   1.155  11.492 -0.6512  1.0491 -0.2176
12117TIP3   OH257765   6.202   3.998  13.523 -0.7571 -0.3817 -0.2020
12117TIP3    H157766   6.183   3.905  13.511  1.7464 -0.8181 -1.3642
12117TIP3    H257767   6.276   4.015  13.465  1.0090  1.5628  2.4147
12118TIP3   OH257768   0.890   6.055   5.912  0.1193  0.3067 -0.2129
12118TIP3    H157769   0.966   6.009   5.876 -0.0114 -0.5021  0.5123
12118TIP3    H257770   0.829   6.063   5.839  0.5480  0.1947 -0.5858
12119TIP3   OH257771   4.928   5.977  16.926  0.0581 -0.3431  0.5967
12119TIP3    H157772   4.928   5.884  16.948 -0.8709 -0.3817  0.4651
12119TIP3    H257773   5.002   6.013  16.975 -0.0983 -0.9922  1.3331
12120TIP3   OH257774   2.950   3.130  12.756  0.2943 -0.3113  0.0539
12120TIP3    H157775   2.889   3.065  12.793 -0.9600  1.1874  0.7473
12120TIP3    H257776   2.944   3.204  12.816  0.3128  1.1444 -1.6682
12121TIP3   OH257777   3.187   5.866  16.701 -0.4997 -0.1948 -0.2223
12121TIP3    H157778   3.112   5.835  16.651 -2.0609 -0.4332  2.1469
12121TIP3    H257779   3.150   5.916  16.773  1.7281  1.5904 -0.1928
12122TIP3   OH257780   5.406   4.141  16.472  0.4093 -0.0499  0.0842
12122TIP3    H157781   5.361   4.058  16.489  0.3462  0.0294  0.3065
12122TIP3    H257782   5.337   4.207  16.477  0.4098 -0.0147 -0.3831
12123TIP3   OH257783   6.060   4.512   5.226  0.6856 -0.4847 -0.1179
12123TIP3    H157784   6.023   4.595   5.197  1.2545  0.1599  0.9618
12123TIP3    H257785   5.984   4.453   5.231  0.0115  0.4110  0.6455
12124TIP3   OH257786   0.351   2.836  11.989 -0.4279  0.0368  0.4727
12124TIP3    H157787   0.413   2.903  12.018 -0.9804 -0.2721  2.5690
12124TIP3    H257788   0.392   2.796  11.913  0.3980  2.0196 -0.1825
12125TIP3   OH257789   4.022   4.491  13.533  0.2629  0.1925 -0.1307
12125TIP3    H157790   3.970   4.414  13.512 -0.2541  0.3690  0.4635
12125TIP3    H257791   3.998   4.556  13.467 -0.8296  0.5148  0.5577
12126TIP3   OH257792   0.797   2.032  13.874  0.6159  0.1431  0.0268
12126TIP3    H157793   0.821   2.123  13.859 -0.0774  0.2062 -0.7487
12126TIP3    H257794   0.795   2.023  13.969  1.1265  0.8121  0.1079
12127TIP3   OH257795   5.904   1.749  15.523 -0.1699 -0.1449 -0.0166
12127TIP3    H157796   5.879   1.671  15.473 -0.7726 -0.0434  0.1264
12127TIP3    H257797   5.872   1.732  15.611 -1.2667  0.7244 -0.2290
12128TIP3   OH257798   5.911   3.052   0.308  0.5409  0.6574  0.1039
12128TIP3    H157799   5.850   3.019   0.242  0.3045 -3.3634  2.0409
12128TIP3    H257800   5.855   3.090   0.376  0.3993 -0.1852  0.4612
12129TIP3   OH257801   1.324   5.009   0.951  0.9273 -0.0719  0.1746
12129TIP3    H157802   1.383   4.989   1.024  0.9696 -0.5597  0.0096
12129TIP3    H257803   1.378   4.996   0.872  0.2333 -1.8943 -0.0446
12130TIP3   OH257804   1.137   5.006   3.169 -0.1816 -0.0572  0.0882
12130TIP3    H157805   1.160   5.094   3.138 -1.3084 -0.0206 -0.7068
12130TIP3    H257806   1.071   5.021   3.237  1.9819 -0.1589  2.3911
12131TIP3   OH257807   3.455   4.398  10.864 -0.2986  0.0941 -0.0385
12131TIP3    H157808   3.526   4.408  10.800 -0.2667  1.1031  0.1539
12131TIP3    H257809   3.375   4.412  10.813 -0.3856 -1.1358 -0.2764
12132TIP3   OH257810   3.948   1.961   1.383  0.2609  0.5972 -0.4974
12132TIP3    H157811   4.033   1.943   1.425  0.0997  0.5406 -0.1960
12132TIP3    H257812   3.883   1.944   1.451 -0.1401 -1.3436 -1.2888
12133TIP3   OH257813   2.647   2.852  15.430 -0.4635 -0.2081 -0.5145
12133TIP3    H157814   2.726   2.814  15.392 -1.5798 -0.8442 -2.3296
12133TIP3    H257815   2.637   2.936  15.385  0.4440  1.0502  1.4640
12134TIP3   OH257816   2.195   2.505   4.882  0.1016  0.0863  0.1748
12134TIP3    H157817   2.202   2.581   4.825 -0.9302  0.6002  0.7193
12134TIP3    H257818   2.172   2.433   4.823  1.7149  0.0270 -0.4397
12135TIP3   OH257819   4.397   6.349   4.229  0.9108 -0.5602 -0.4845
12135TIP3    H157820   4.480   6.394   4.215  2.4166 -3.5475 -2.1905
12135TIP3    H257821   4.419   6.256   4.225 -2.5793 -1.4975 -1.5214
12136TIP3   OH257822   4.383   1.759   4.345 -0.5210  0.2409  0.2480
12136TIP3    H157823   4.470   1.801   4.347 -0.3467  0.0707 -1.8282
12136TIP3    H257824   4.400   1.670   4.315 -1.2672 -0.3366  1.4511
12137TIP3   OH257825   0.584   1.565   3.501  0.2887  0.0624 -0.0884
12137TIP3    H157826   0.547   1.513   3.430  0.6369  0.7592 -0.7997
12137TIP3    H257827   0.510   1.585   3.558  0.1449 -1.1398  0.1530
12138TIP3   OH257828   4.343   5.076  14.502 -0.1893 -0.2855  0.5456
12138TIP3    H157829   4.423   5.107  14.545  0.0822 -1.4815  0.9340
12138TIP3    H257830   4.373   5.040  14.419 -0.3067 -0.7873  0.7157
12139TIP3   OH257831   5.744   3.746  17.071  0.3762 -0.4829 -0.3174
12139TIP3    H157832   5.778   3.786  17.151 -0.4674 -2.1077  0.9199
12139TIP3    H257833   5.793   3.788  17.000  0.4911  1.6606  0.9605
12140TIP3   OH257834   0.408   2.035   3.377  0.2356  0.3858  0.0981
12140TIP3    H157835   0.443   2.090   3.447  0.6440 -0.9618  0.9995
12140TIP3    H257836   0.445   1.949   3.394 -1.1522 -0.4068 -0.6852
12141TIP3   OH257837   0.359   0.070  14.228 -0.2749 -0.2540 -0.0135
12141TIP3    H157838   0.390   0.020  14.153 -1.5486 -0.2944 -0.5460
12141TIP3    H257839   0.409   0.152  14.226 -0.5164 -0.1264 -1.0986
12142TIP3   OH257840   0.319   3.747  12.544  0.0234 -0.8325 -0.1501
12142TIP3    H157841   0.343   3.771  12.633 -1.7253 -0.1501  0.1838
12142TIP3    H257842   0.389   3.783  12.489  0.0487  0.6109  0.7789
12143TIP3   OH257843   4.622   0.232  12.347  0.5237  0.8787  0.1306
12143TIP3    H157844   4.596   0.210  12.437 -1.2674  1.0966 -0.2910
12143TIP3    H257845   4.580   0.317  12.330 -0.0378  0.3637 -1.2338
12144TIP3   OH257846   0.233   1.167  15.925 -0.4039 -0.1190  0.2903
12144TIP3    H157847   0.223   1.248  15.876  1.6152 -0.3424 -0.5749
12144TIP3    H257848   0.163   1.111  15.892 -2.7731  1.6586  1.9357
12145TIP3   OH257849   6.008   1.332   3.010  0.2341 -0.1850  0.4044
12145TIP3    H157850   5.937   1.314   2.949 -0.5788  1.9316  0.6539
12145TIP3    H257851   6.075   1.376   2.957  1.3622 -2.0524  0.1965
12146TIP3   OH257852   2.491   6.646  14.820  0.0133 -0.1715 -0.3665
12146TIP3    H157853   2.502   6.587  14.895  0.1409  1.0765  0.6290
12146TIP3    H257854   2.532   6.727  14.847 -0.5990  0.5529 -1.5163
12147TIP3   OH257855   3.253   0.404   2.632  0.9733  0.0229  0.1185
12147TIP3    H157856   3.202   0.340   2.584  0.9607 -1.0000  1.4296
12147TIP3    H257857   3.193   0.438   2.699  0.6775  2.1469 -1.1102
12148TIP3   OH257858   6.710   1.836  14.676  0.2004  0.1238  0.2627
12148TIP3    H157859   6.697   1.915  14.623 -0.0101 -1.4904 -2.2560
12148TIP3    H257860   6.801   1.840  14.704  0.3044  1.0603 -0.1823
12149TIP3   OH257861   4.994   1.904   3.645 -0.7651 -0.6085  0.4822
12149TIP3    H157862   4.969   1.898   3.737 -1.2022  1.2789  0.5213
12149TIP3    H257863   5.025   1.994   3.634 -2.6854 -0.1222 -1.6750
12150TIP3   OH257864   1.904   5.345  16.828 -0.4765  0.3550 -0.1570
12150TIP3    H157865   1.831   5.314  16.881  0.1720 -1.3459 -0.1854
12150TIP3    H257866   1.982   5.310  16.871  0.2643  1.3344 -0.6556
12151TIP3   OH257867   4.346   0.466   3.501  0.1135  0.1915 -0.0093
12151TIP3    H157868   4.353   0.547   3.551  1.4277  0.6415 -0.8485
12151TIP3    H257869   4.405   0.405   3.545  0.2975  0.1857 -0.2608
12152TIP3   OH257870   1.953   0.189   3.776  0.5471 -0.1005 -0.7057
12152TIP3    H157871   1.982   0.268   3.729 -0.4093  1.3254  0.9448
12152TIP3    H257872   1.893   0.223   3.842  0.6783 -2.1822  0.5390
12153TIP3   OH257873   6.359   2.762  14.523 -0.0959 -0.0863  0.3087
12153TIP3    H157874   6.275   2.718  14.507 -0.2586  0.4128 -0.2333
12153TIP3    H257875   6.380   2.804  14.439  0.8967 -0.5437  0.3202
12154TIP3   OH257876   6.088   2.665  11.681 -0.4156  0.7088 -0.5356
12154TIP3    H157877   6.136   2.743  11.711  1.5909 -1.2002  1.6419
12154TIP3    H257878   6.142   2.630  11.611  0.2553 -0.2080  0.4042
12155TIP3   OH257879   3.455   5.047  14.725 -0.0256  0.7867  0.5164
12155TIP3    H157880   3.511   4.990  14.673 -0.6638  1.7599 -1.3388
12155TIP3    H257881   3.511   5.119  14.752 -0.1015  1.2068 -0.4136
12156TIP3   OH257882   2.641   0.153  10.875  0.2097  0.0228 -0.1526
12156TIP3    H157883   2.645   0.212  10.950 -0.5966 -1.1152  0.8212
12156TIP3    H257884   2.715   0.093  10.887 -0.3620 -0.6394  0.1808
12157TIP3   OH257885   1.800   5.676   2.698  0.5733 -0.2537  0.0642
12157TIP3    H157886   1.889   5.644   2.682  1.2860  0.6669  1.9489
12157TIP3    H257887   1.766   5.618   2.766  0.5627  0.7636  0.9366
12158TIP3   OH257888   2.923   0.453  11.307 -0.1145 -0.1016  0.7900
12158TIP3    H157889   2.845   0.481  11.355  0.3602  0.6514  1.1489
12158TIP3    H257890   2.986   0.429  11.375  0.3102  0.2659  0.5356
12159TIP3   OH257891   0.042   5.971   4.727  0.1523  0.0348  0.5554
12159TIP3    H157892  -0.041   6.011   4.753  0.0228 -0.9731  1.7333
12159TIP3    H257893   0.103   6.045   4.724 -1.1978  1.2104 -2.5737
12160TIP3   OH257894   4.937   0.046  15.818 -0.0426  0.3895 -0.3477
12160TIP3    H157895   4.876   0.021  15.748 -0.0620 -0.1302 -0.1487
12160TIP3    H257896   4.954  -0.035  15.865 -3.7486  1.3754  3.2597
12161TIP3   OH257897   6.305   3.173   0.079  0.0585  0.2693 -0.0392
12161TIP3    H157898   6.380   3.167   0.138 -0.4224  2.3484  0.8996
12161TIP3    H257899   6.280   3.266   0.082 -1.4923 -0.0409 -1.6512
12162TIP3   OH257900   1.079   1.838   5.323 -0.7960 -0.4378  0.0228
12162TIP3    H157901   1.104   1.892   5.247  0.8742 -0.9206  0.1830
12162TIP3    H257902   1.111   1.888   5.398 -0.9443 -0.7602  0.2999
12163TIP3   OH257903   4.901   5.920  12.600 -0.4887 -0.3253  0.4547
12163TIP3    H157904   4.819   5.871  12.609 -1.2646  0.7106 -0.6444
12163TIP3    H257905   4.928   5.939  12.689 -0.2322 -2.5826  0.9335
12164TIP3   OH257906   3.879   1.701  15.514  0.4557 -0.1630  0.1145
12164TIP3    H157907   3.801   1.737  15.556  0.5941  0.0941  0.1539
12164TIP3    H257908   3.846   1.631  15.458 -0.0339  1.0902 -1.2473
12165TIP3   OH257909   0.847   0.476  14.487 -0.1200  0.2521 -0.1696
12165TIP3    H157910   0.888   0.560  14.508  0.3447 -0.1603  0.6034
12165TIP3    H257911   0.827   0.482  14.394  0.5751  0.9370 -0.2841
12166TIP3   OH257912   3.835   3.128  10.757 -0.4440 -0.1430  0.3008
12166TIP3    H157913   3.896   3.181  10.706  0.2578 -0.5538  0.7126
12166TIP3    H257914   3.752   3.176  10.750 -0.4001 -0.2246 -1.2888
12167TIP3   OH257915   3.359   3.665   6.089  0.6121 -0.1922 -0.2476
12167TIP3    H157916   3.395   3.741   6.135 -0.5093  2.1794 -2.8890
12167TIP3    H257917   3.286   3.636   6.144 -0.4236  2.2321 -0.2149
12168TIP3   OH257918   4.377   2.634   4.279 -0.2387 -0.0203  0.0446
12168TIP3    H157919   4.447   2.699   4.267  1.0438 -0.6412  3.1533
12168TIP3    H257920   4.330   2.663   4.357  0.0405 -2.4674  1.2162
12169TIP3   OH257921   2.336   0.276   3.366 -0.5324 -0.5638 -0.6832
12169TIP3    H157922   2.258   0.257   3.313 -0.9569  0.6574 -0.5385
12169TIP3    H257923   2.409   0.254   3.309 -0.9556  1.6380 -2.2273
12170TIP3   OH257924   2.683   3.750  11.336  0.1381 -0.3500 -0.0219
12170TIP3    H157925   2.666   3.712  11.423 -0.3052 -0.3561 -0.1079
12170TIP3    H257926   2.610   3.719  11.282 -0.1296  0.4809 -0.1391
12171TIP3   OH257927   2.630   1.292   3.131 -0.8580  0.2678 -0.8044
12171TIP3    H157928   2.690   1.346   3.183 -1.6779  0.4861 -0.0586
12171TIP3    H257929   2.603   1.348   3.059 -2.5653  1.3338  0.5545
12172TIP3   OH257930   5.595   0.690   4.080  0.3997 -0.3883  0.2029
12172TIP3    H157931   5.582   0.775   4.038  2.7257 -0.3908 -0.7033
12172TIP3    H257932   5.567   0.626   4.014  0.1955 -0.3438  0.2468
12173TIP3   OH257933   4.661   6.786  16.300  0.5873 -0.1483 -0.0887
12173TIP3    H157934   4.733   6.830  16.255 -0.6138  2.0921  0.0260
12173TIP3    H257935   4.582   6.820  16.258 -0.4478 -2.4002 -0.0824
12174TIP3   OH257936   3.108   6.059  11.613  0.4757 -0.3448 -0.1892
12174TIP3    H157937   3.182   6.118  11.606 -0.3635  0.8312  0.5046
12174TIP3    H257938   3.032   6.113  11.591 -0.2769 -1.2410  0.1377
12175TIP3   OH257939   2.434   3.734   2.283  0.7490  0.4251 -0.1207
12175TIP3    H157940   2.362   3.673   2.272  2.5731 -2.4230  2.2451
12175TIP3    H257941   2.420   3.773   2.369  0.8715  1.6203 -0.6164
12176TIP3   OH257942   5.896   3.943  11.520 -0.8793 -0.5170 -0.7949
12176TIP3    H157943   5.978   3.947  11.570 -0.9049 -0.0377 -0.7911
12176TIP3    H257944   5.828   3.955  11.586 -0.9060  0.3154 -0.9732
12177TIP3   OH257945   1.024   0.093  11.951  0.2637  0.0057  0.6886
12177TIP3    H157946   0.960   0.138  11.896 -0.6471 -1.7582  0.2348
12177TIP3    H257947   0.997   0.113  12.041 -0.3008  0.1061  0.4983
12178TIP3   OH257948   0.901   5.067  13.813 -0.2296 -0.3983  0.3160
12178TIP3    H157949   0.854   5.069  13.897 -0.7030  0.4326  0.0390
12178TIP3    H257950   0.993   5.055  13.837 -0.4700 -1.1061  0.9086
12179TIP3   OH257951   4.502   1.773  13.966 -0.5769  0.3042  0.6766
12179TIP3    H157952   4.452   1.691  13.975 -0.7279  0.2922 -0.1581
12179TIP3    H257953   4.466   1.814  13.887 -2.1715  2.3597  2.3271
12180TIP3   OH257954   3.861   2.649   1.103  0.1797  0.4023 -0.2255
12180TIP3    H157955   3.918   2.586   1.147 -1.4078 -0.8753  0.0988
12180TIP3    H257956   3.915   2.684   1.031  2.0271  0.7925  1.2661
12181TIP3   OH257957   3.711   5.596  12.229  0.2350 -0.4946 -0.3429
12181TIP3    H157958   3.662   5.581  12.149 -0.6310 -0.1986  0.1180
12181TIP3    H257959   3.646   5.589  12.299  1.0599 -1.2056  0.3767
12182TIP3   OH257960   5.725   5.434  15.973  0.2580  0.3623  0.3666
12182TIP3    H157961   5.785   5.362  15.953  0.0562 -0.0793  1.3079
12182TIP3    H257962   5.640   5.403  15.942  0.5356  1.1294 -1.2905
12183TIP3   OH257963   2.978   1.910  11.706 -0.0158  0.3440 -0.5935
12183TIP3    H157964   2.947   1.982  11.652  2.4579  2.7484  0.9456
12183TIP3    H257965   2.912   1.900  11.774  0.5975  2.7293  0.4314
12184TIP3   OH257966   6.753   1.329   2.877 -0.1701 -0.3571  0.3226
12184TIP3    H157967   6.843   1.361   2.878 -0.4813  0.6972 -1.1285
12184TIP3    H257968   6.748   1.274   2.799 -1.4954  2.0460 -1.4272
12185TIP3   OH257969   4.605   1.682  13.088  0.1304 -0.6238 -0.7133
12185TIP3    H157970   4.537   1.624  13.122 -0.4949  0.8876  0.7842
12185TIP3    H257971   4.685   1.631  13.093 -0.1675 -0.9714  1.8579
12186TIP3   OH257972   5.722   3.751   1.333 -0.2504 -0.0339  0.0965
12186TIP3    H157973   5.778   3.720   1.262 -0.5517  0.6330 -0.4428
12186TIP3    H257974   5.721   3.678   1.395  1.8356  0.2087  0.5051
12187TIP3   OH257975   0.294   3.287  13.748 -0.1623  0.1356 -0.3120
12187TIP3    H157976   0.331   3.332  13.824  1.6026 -1.6140 -0.0445
12187TIP3    H257977   0.209   3.254  13.778  0.6164 -0.7484  1.0289
12188TIP3   OH257978   4.383   2.221  12.644  0.2145  0.4267  0.6733
12188TIP3    H157979   4.472   2.254  12.630  0.7298 -1.0938  0.1745
12188TIP3    H257980   4.395   2.144  12.699 -0.4879 -1.2977 -1.4340
12189TIP3   OH257981   0.193   3.191   3.528  0.2371 -0.4941 -0.1264
12189TIP3    H157982   0.280   3.229   3.510 -0.4521  0.6464 -1.2664
12189TIP3    H257983   0.209   3.098   3.537  1.9078 -0.0785  1.9279
12190TIP3   OH257984   3.480   5.203  16.053 -0.0011 -0.3521  0.2215
12190TIP3    H157985   3.453   5.129  15.998 -0.6251 -0.4635  0.6726
12190TIP3    H257986   3.504   5.163  16.137 -1.1080  0.0259  0.7346
12191TIP3   OH257987   3.877   5.619  13.531 -0.2724  0.4575 -0.5494
12191TIP3    H157988   3.799   5.628  13.476 -0.1936 -0.4839 -0.8206
12191TIP3    H257989   3.926   5.547  13.493  0.0726  0.1671  0.4032
12192TIP3   OH257990   0.429   3.694  11.091  0.0405 -0.4015  0.3454
12192TIP3    H157991   0.449   3.720  11.181 -0.7212  0.9603  0.1467
12192TIP3    H257992   0.508   3.648  11.061  1.3101  1.3177  0.8877
12193TIP3   OH257993   0.577   6.075  16.830  0.4940 -0.4777 -0.0115
12193TIP3    H157994   0.665   6.109  16.851 -0.5386  1.9030  0.8063
12193TIP3    H257995   0.530   6.077  16.914 -1.2804  1.4320 -0.9613
12194TIP3   OH257996   4.627   4.166  11.420 -0.5067  0.6701 -0.6712
12194TIP3    H157997   4.624   4.194  11.328  0.8980  2.9397 -0.0969
12194TIP3    H257998   4.720   4.162  11.441 -0.8093  0.3065  0.7036
12195TIP3   OH257999   5.592   2.080  15.674  0.1249 -0.5261  0.0219
12195TIP3    H158000   5.529   2.110  15.740  0.6134 -0.5040  0.4844
12195TIP3    H258001   5.560   1.993  15.649  0.2594 -0.7814  0.7198
12196TIP3   OH258002   3.821   6.731  16.784  0.3368 -0.6444  0.0177
12196TIP3    H158003   3.786   6.659  16.732  0.9054 -0.6549 -0.3564
12196TIP3    H258004   3.780   6.809  16.746  0.0527 -0.7296  0.1460
12197TIP3   OH258005   5.400   5.818   1.990  0.1420 -0.0996  0.0274
12197TIP3    H158006   5.451   5.875   1.933 -0.0186 -1.6303 -1.7186
12197TIP3    H258007   5.349   5.878   2.045  0.0962  1.4380 -1.6139
12198TIP3   OH258008   1.268   3.230  14.507  0.0465  0.6254 -0.6021
12198TIP3    H158009   1.201   3.248  14.440 -0.0920 -0.3395 -0.7297
12198TIP3    H258010   1.272   3.135  14.512  0.7887  0.6847  0.0439
12199TIP3   OH258011   3.596   0.093   5.864  0.0220  0.0210  0.0068
12199TIP3    H158012   3.605   0.161   5.798  0.7143  2.8885  2.7716
12199TIP3    H258013   3.502   0.074   5.866 -0.0793  0.2529 -1.3959
12200TIP3   OH258014   2.107   2.523  14.038 -0.1534 -0.1082  0.4007
12200TIP3    H158015   2.030   2.553  14.086 -0.6824  1.4583 -1.2866
12200TIP3    H258016   2.146   2.603  14.004  0.6082 -1.0762 -1.0941
12201TIP3   OH258017   1.189   3.461   4.779  0.8957 -0.0778  0.0189
12201TIP3    H158018   1.193   3.394   4.847  0.3534 -0.4746 -0.3260
12201TIP3    H258019   1.118   3.432   4.721  0.1818  1.1579  0.2470
12202TIP3   OH258020   6.196   1.221  10.543 -0.3085  0.5925 -0.6020
12202TIP3    H158021   6.175   1.154  10.607  0.6479  0.5412 -0.3319
12202TIP3    H258022   6.289   1.210  10.526  0.0649  2.3482  0.0584
12203TIP3   OH258023   6.768   0.462  14.589  0.2577 -0.1601 -0.2893
12203TIP3    H158024   6.764   0.390  14.651 -0.6839 -0.1669 -0.3517
12203TIP3    H258025   6.683   0.463  14.546  0.6555  0.2739 -1.1019
12204TIP3   OH258026   0.956   2.614   2.661 -0.5222 -0.6646  0.8053
12204TIP3    H158027   1.020   2.685   2.653  1.3606 -2.2567  0.8544
12204TIP3    H258028   0.951   2.596   2.755 -0.0561 -1.3675  0.7056
12205TIP3   OH258029   6.332   1.877  16.493 -1.1271  0.0545 -0.5163
12205TIP3    H158030   6.417   1.918  16.482 -1.2649 -0.1247 -2.4997
12205TIP3    H258031   6.286   1.893  16.410 -2.2633 -1.5818 -0.2477
12206TIP3   OH258032   2.641   4.050   1.680 -0.3514 -0.4436 -0.5981
12206TIP3    H158033   2.552   4.022   1.661 -0.3256 -1.9406  1.1990
12206TIP3    H258034   2.696   3.974   1.660  0.5001  0.3550 -1.3885
12207TIP3   OH258035   3.803   5.886   3.350 -0.1024 -0.6437 -0.2500
12207TIP3    H158036   3.728   5.900   3.408 -0.7680 -0.1058 -1.2260
12207TIP3    H258037   3.873   5.941   3.386 -0.4195 -0.5220  0.1827
12208TIP3   OH258038   2.451   2.725   4.883  0.0260  0.3618 -0.0073
12208TIP3    H158039   2.519   2.667   4.849 -0.1643 -0.0919  0.3740
12208TIP3    H258040   2.380   2.666   4.910 -0.6618  0.8399 -0.6944
12209TIP3   OH258041   0.672   0.884   2.305  0.3528 -0.2534  0.3316
12209TIP3    H158042   0.692   0.885   2.212 -1.8319 -0.3007 -0.1971
12209TIP3    H258043   0.616   0.808   2.317  1.3892 -0.8423  1.9108
12210TIP3   OH258044   4.388   4.502  11.325 -0.7986  0.3961  0.3458
12210TIP3    H158045   4.377   4.537  11.413 -0.9494  1.6091 -0.1303
12210TIP3    H258046   4.483   4.497  11.313 -0.7781  0.2556  0.5605
12211TIP3   OH258047   2.306   4.740  15.625 -0.5520 -0.2708  0.2964
12211TIP3    H158048   2.402   4.739  15.630 -0.5538 -1.5023  0.4552
12211TIP3    H258049   2.286   4.703  15.539 -0.8814 -0.3449  0.4009
12212TIP3   OH258050   6.421   1.496   3.257 -1.0306 -0.9994 -0.0819
12212TIP3    H158051   6.339   1.503   3.305 -0.0872  1.9253  1.3457
12212TIP3    H258052   6.415   1.561   3.188  0.0937 -0.6551  0.1158
12213TIP3   OH258053   1.187   3.450   1.075 -1.5798 -0.4162  0.1137
12213TIP3    H158054   1.129   3.379   1.047  0.6193 -1.6039 -1.7936
12213TIP3    H258055   1.247   3.463   1.001  1.4998 -0.2966  2.4266
12214TIP3   OH258056   3.552   4.620   2.081  0.4004 -0.1820  0.2159
12214TIP3    H158057   3.554   4.608   1.986 -1.2880  1.2775 -0.0500
12214TIP3    H258058   3.527   4.534   2.116  1.0958 -0.7434 -0.6207
12215TIP3   OH258059   5.886   5.463  13.046 -0.1034 -0.5126  0.9037
12215TIP3    H158060   5.936   5.464  12.965 -0.7099  0.5576  0.5128
12215TIP3    H258061   5.930   5.399  13.102  2.3988  1.1657  1.0024
12216TIP3   OH258062   6.491   0.161   3.110  0.4860 -0.0928 -0.1622
12216TIP3    H158063   6.572   0.185   3.153  1.8424 -1.3604 -1.8595
12216TIP3    H258064   6.465   0.079   3.153 -0.7146  1.0020  1.3198
12217TIP3   OH258065   1.359   6.438   3.921  0.0298 -0.2262  0.0308
12217TIP3    H158066   1.424   6.388   3.872  0.2925  0.6395 -0.5257
12217TIP3    H258067   1.284   6.379   3.927  0.3328 -0.6976 -0.5914
12218TIP3   OH258068   0.699   3.613  11.464  0.2333 -0.4281 -0.3710
12218TIP3    H158069   0.650   3.630  11.545 -1.3060 -0.2318 -1.2915
12218TIP3    H258070   0.685   3.519  11.448  0.4841 -0.4520 -0.4541
12219TIP3   OH258071   0.576   3.214  13.576  0.0143 -0.7011  0.1102
12219TIP3    H158072   0.531   3.296  13.554 -0.4331 -0.1681  2.7195
12219TIP3    H258073   0.636   3.238  13.646  2.3728 -2.0001 -1.3337
12220TIP3   OH258074   1.590   3.726  12.123 -0.2402  0.7062  0.6526
12220TIP3    H158075   1.573   3.643  12.168  0.7542  0.0387 -0.1689
12220TIP3    H258076   1.525   3.728  12.052 -1.5969  1.6090  1.8644
12221TIP3   OH258077   2.314   2.742  14.043  0.3031 -0.0290  0.1467
12221TIP3    H158078   2.329   2.695  14.125  1.1978 -1.7404 -0.9374
12221TIP3    H258079   2.399   2.782  14.022 -0.5834  2.7739  1.3686
12222TIP3   OH258080   6.058   1.434  15.584 -0.1028 -0.2863  0.6556
12222TIP3    H158081   6.129   1.374  15.559 -0.5525 -0.5909  0.0853
12222TIP3    H258082   6.068   1.445  15.679 -0.1920 -1.5073  0.8254
12223TIP3   OH258083   4.522   6.159   5.164  0.4716 -0.0964  0.0378
12223TIP3    H158084   4.606   6.134   5.201  0.6957  0.7229  0.1079
12223TIP3    H258085   4.487   6.224   5.225 -0.7475 -1.2477  0.6249
12224TIP3   OH258086   3.186   2.104   4.174 -0.3213 -0.2206 -0.2209
12224TIP3    H158087   3.259   2.105   4.112 -0.0168 -0.5459  0.1279
12224TIP3    H258088   3.228   2.100   4.260 -0.7507 -0.5171 -0.0231
12225TIP3   OH258089   2.338   2.012   5.659  0.5331 -0.1955 -0.1809
12225TIP3    H158090   2.359   1.932   5.611 -2.9617 -2.2256  1.2702
12225TIP3    H258091   2.323   1.983   5.749 -0.1207  2.2499  0.5748
12226TIP3   OH258092   3.181   0.351  15.766  0.0197 -0.1283 -0.2000
12226TIP3    H158093   3.127   0.278  15.735  0.0113 -0.5987  0.8971
12226TIP3    H258094   3.236   0.373  15.690 -0.5521 -0.7244 -0.8074
12227TIP3   OH258095   6.252   6.335  16.882  0.4989  0.0447 -0.0207
12227TIP3    H158096   6.344   6.343  16.859  0.0431  1.2580 -1.5914
12227TIP3    H258097   6.213   6.285  16.810 -0.3557  1.0160 -0.2613
12228TIP3   OH258098   1.569   5.546   0.083  0.3689  0.4328  0.0277
12228TIP3    H158099   1.617   5.552   0.001  1.6539  0.0986  0.7339
12228TIP3    H258100   1.523   5.629   0.091  0.8248  0.7560 -0.6723
12229TIP3   OH258101   4.225   0.108  13.741  0.3349  0.1427  0.3383
12229TIP3    H158102   4.315   0.106  13.710  0.2897  0.1192  0.2124
12229TIP3    H258103   4.173   0.071  13.670  0.2276  0.1315  0.4207
12230TIP3   OH258104   4.620   3.454  16.627 -0.1443  0.0846 -0.0471
12230TIP3    H158105   4.654   3.494  16.547  1.4889 -0.7088  0.2185
12230TIP3    H258106   4.635   3.520  16.695 -0.4684  0.2903 -0.1691
12231TIP3   OH258107   5.684   0.151   0.847 -0.1542  0.6229 -0.2862
12231TIP3    H158108   5.635   0.088   0.795  1.5871 -1.3552  0.3387
12231TIP3    H258109   5.769   0.157   0.803  0.8261  0.0262  1.4543
12232TIP3   OH258110   5.715   4.821   1.665  0.5826 -0.0609 -0.2363
12232TIP3    H158111   5.672   4.782   1.741  0.8572 -1.6732 -0.8596
12232TIP3    H258112   5.808   4.803   1.679  0.6170 -0.6052 -1.0375
12233TIP3   OH258113   0.448   1.835   4.818  0.1097 -0.5373 -0.1311
12233TIP3    H158114   0.517   1.780   4.856  0.2228 -1.3343 -1.4113
12233TIP3    H258115   0.495   1.891   4.756  0.2565  2.2893  2.3487
12234TIP3   OH258116   3.048   1.746  15.189  0.0220 -0.4155 -0.2697
12234TIP3    H158117   2.990   1.805  15.236 -2.1083 -1.1247 -1.8578
12234TIP3    H258118   2.991   1.675  15.159  2.2660 -2.8130  0.6952
12235TIP3   OH258119   6.792   0.666  11.958  0.2675  0.0513  0.1661
12235TIP3    H158120   6.853   0.593  11.972 -0.6529 -0.4044  2.3071
12235TIP3    H258121   6.765   0.691  12.046 -1.7349  1.0010 -0.6519
12236TIP3   OH258122   2.378   1.284  12.348  0.2803 -0.0471 -0.0888
12236TIP3    H158123   2.294   1.240  12.365  0.6546 -0.5424  0.5473
12236TIP3    H258124   2.373   1.366  12.397 -0.2759  0.4758 -0.9825
12237TIP3   OH258125   6.290   4.655   0.307  0.4770  0.0724 -0.3534
12237TIP3    H158126   6.358   4.587   0.307  0.5909  0.0819 -3.3366
12237TIP3    H258127   6.335   4.733   0.341  0.4830 -1.0617  2.5975
12238TIP3   OH258128   1.937   6.319   5.710  0.0314 -0.4029 -0.2255
12238TIP3    H158129   1.886   6.269   5.774 -1.9994 -0.4462 -1.7971
12238TIP3    H258130   1.941   6.407   5.747 -0.6430 -0.5579  0.2281
12239TIP3   OH258131   1.715   6.690   5.353  0.0944  0.0351 -0.0170
12239TIP3    H158132   1.784   6.704   5.417  0.8282  0.0811 -0.8019
12239TIP3    H258133   1.761   6.678   5.270 -0.7677 -1.6004 -0.2934
12240TIP3   OH258134   1.541   2.966  12.524 -0.0493  0.2832 -0.3348
12240TIP3    H158135   1.596   2.895  12.490  1.1049  1.8200 -1.8265
12240TIP3    H258136   1.467   2.970  12.464  0.0680  0.5707 -0.4599
12241TIP3   OH258137   3.901   2.244  11.574 -0.1518 -0.2103  0.4122
12241TIP3    H158138   3.826   2.205  11.529 -0.2423  0.3345  0.0727
12241TIP3    H258139   3.976   2.192  11.544 -0.0078  1.0060 -1.5366
12242TIP3   OH258140   1.018   6.060   0.876 -0.0166 -0.0963 -0.0619
12242TIP3    H158141   1.025   6.154   0.892 -0.3825  0.1587 -1.3123
12242TIP3    H258142   0.952   6.030   0.939  1.2999  0.1480  1.5098
12243TIP3   OH258143   0.102   4.263  12.188 -0.0718 -0.5133 -0.3462
12243TIP3    H158144   0.090   4.331  12.254 -0.8927  0.0172 -1.0225
12243TIP3    H258145   0.185   4.285  12.146 -0.4068  0.1638 -0.6645
12244TIP3   OH258146   0.188   1.547  12.901  0.2898 -0.8744  0.2153
12244TIP3    H158147   0.181   1.641  12.913  3.1068 -0.7212  1.4790
12244TIP3    H258148   0.190   1.512  12.990  0.1377 -2.0472 -0.2253
12245TIP3   OH258149   2.069   0.665   3.111 -0.6038 -0.5772  0.1460
12245TIP3    H158150   2.132   0.595   3.125 -1.7357 -1.5628  0.4884
12245TIP3    H258151   1.995   0.623   3.068 -1.4899  0.3093  0.7431
12246TIP3   OH258152   5.252   4.064   5.645  0.0628 -0.2471  0.1827
12246TIP3    H158153   5.172   4.026   5.682  0.1177 -0.3055  0.2414
12246TIP3    H258154   5.222   4.120   5.573 -0.1450  0.7570  1.0239
12247TIP3   OH258155   1.029   1.518  13.624  0.1878 -0.1788  0.0102
12247TIP3    H158156   1.009   1.429  13.596  0.4188  0.0688 -1.0051
12247TIP3    H258157   1.070   1.558  13.547 -1.9688  1.5081 -0.3685
12248TIP3   OH258158   4.822   2.807   1.926  0.2595  0.1626  0.5410
12248TIP3    H158159   4.732   2.809   1.894 -0.2957  0.9412  2.0290
12248TIP3    H258160   4.864   2.738   1.875 -0.8371  0.5897 -1.0211
12249TIP3   OH258161   0.939   4.525   6.280 -0.1376 -0.1251  0.1419
12249TIP3    H158162   1.001   4.517   6.353 -0.2571 -1.5196  0.1075
12249TIP3    H258163   0.901   4.612   6.291  1.4651  0.5751  0.4456
12250TIP3   OH258164   2.733   6.376  14.291 -0.0088 -0.1006 -0.4350
12250TIP3    H158165   2.714   6.360  14.198  0.7839 -1.9945 -0.3139
12250TIP3    H258166   2.757   6.290  14.326  0.5820  0.7348  1.3241
12251TIP3   OH258167   1.558   3.950   3.779  0.2378  0.6899 -0.3874
12251TIP3    H158168   1.563   4.044   3.796  0.2861  0.7030 -0.4702
12251TIP3    H258169   1.595   3.909   3.857 -4.0563  0.5393  1.9090
12252TIP3   OH258170   1.266   6.409  13.036 -0.1701 -0.2915 -0.0287
12252TIP3    H158171   1.175   6.439  13.033 -0.4144 -1.0872 -2.0761
12252TIP3    H258172   1.265   6.324  12.992  1.5288 -0.4932  0.2290
12253TIP3   OH258173   4.296   0.637  14.397 -0.3748 -0.4109 -0.0485
12253TIP3    H158174   4.226   0.588  14.441  0.0996  0.6738  2.0556
12253TIP3    H258175   4.257   0.722  14.378  0.1176 -0.0774  0.4098
12254TIP3   OH258176   0.186   4.792  16.699  0.0628  0.4866 -0.0037
12254TIP3    H158177   0.218   4.702  16.689  1.5894  1.0852 -0.8140
12254TIP3    H258178   0.136   4.809  16.619 -1.8205 -0.2165  0.9606
12255TIP3   OH258179   0.638   0.026   6.035  0.1864 -0.0181  0.0868
12255TIP3    H158180   0.728   0.051   6.052  0.4450 -0.4682 -0.5502
12255TIP3    H258181   0.586   0.077   6.097  0.9212 -0.1905  0.8599
12256TIP3   OH258182   2.281   3.524  13.303 -0.2453  0.2084  0.3489
12256TIP3    H158183   2.278   3.593  13.236 -0.2460  0.4058  0.5515
12256TIP3    H258184   2.192   3.488  13.304 -0.2639  0.2528  0.2944
12257TIP3   OH258185   0.651   0.782  11.957 -0.1108 -1.1144  0.5426
12257TIP3    H158186   0.692   0.703  11.992  3.4501 -0.2599 -1.2032
12257TIP3    H258187   0.624   0.757  11.868 -2.8601 -1.4016  1.3637
12258TIP3   OH258188   5.526   3.421  11.110 -0.6657  0.3541 -0.0262
12258TIP3    H158189   5.504   3.439  11.019 -0.1560 -1.2988 -0.5230
12258TIP3    H258190   5.459   3.359  11.139 -0.6482  0.6381  0.6343
12259TIP3   OH258191   2.693   1.338   2.004 -0.4035 -0.7102  0.3449
12259TIP3    H158192   2.680   1.360   2.096 -1.3128 -2.9117  0.7977
12259TIP3    H258193   2.659   1.414   1.956 -3.0706 -0.8980  1.7670
12260TIP3   OH258194   6.735   5.831   0.249  0.6204  0.0214  0.5917
12260TIP3    H158195   6.746   5.739   0.225  1.7123  0.4549 -0.6451
12260TIP3    H258196   6.676   5.866   0.182  1.4662  0.5902  0.1357
12261TIP3   OH258197   2.382   3.054  12.434  0.2843 -0.4057 -0.1134
12261TIP3    H158198   2.450   3.070  12.369  1.0183 -0.1140  0.6955
12261TIP3    H258199   2.430   3.051  12.518 -0.7950  0.6590  0.5701
12262TIP3   OH258200   4.617   3.896  13.364 -0.1299  0.0513 -0.0277
12262TIP3    H158201   4.531   3.889  13.405 -0.2217  1.1346  0.0003
12262TIP3    H258202   4.623   3.988  13.336  0.4852 -0.3184 -1.1983
12263TIP3   OH258203   0.728   5.324  12.973  0.7328  0.2676 -0.4050
12263TIP3    H158204   0.633   5.320  12.960  0.6274 -0.8191  0.5236
12263TIP3    H258205   0.764   5.280  12.896  0.4287 -0.2188 -0.2735
12264TIP3   OH258206   2.325   5.178  12.681 -0.1769 -0.1466 -0.2150
12264TIP3    H158207   2.254   5.209  12.737 -0.7275 -0.1083 -0.9169
12264TIP3    H258208   2.289   5.101  12.637  0.5714 -0.7352  0.1773
12265TIP3   OH258209   3.208   0.011   2.853  0.5628 -0.8728  0.4104
12265TIP3    H158210   3.126   0.015   2.804  0.2723 -0.9893  0.8792
12265TIP3    H258211   3.274   0.039   2.790 -0.1868  2.1999  0.8143
12266TIP3   OH258212   2.303   5.306   2.359 -0.4223  0.3946  0.2117
12266TIP3    H158213   2.286   5.397   2.332  0.5971  1.1703  1.9440
12266TIP3    H258214   2.357   5.270   2.289  1.5870  2.1090  0.7728
12267TIP3   OH258215   4.259   3.446   1.095 -0.2603  0.0152 -0.0956
12267TIP3    H158216   4.266   3.353   1.071  0.6371  0.1885 -0.5377
12267TIP3    H258217   4.266   3.492   1.012 -0.1882  0.5085  0.1860
12268TIP3   OH258218   0.859   1.518   2.055  0.0373 -0.1335 -0.4631
12268TIP3    H158219   0.922   1.456   2.018  1.7613 -0.0601  2.1040
12268TIP3    H258220   0.908   1.600   2.063 -1.0987  0.5579 -0.4587
12269TIP3   OH258221   0.003   2.691   5.061 -0.2719 -0.7551  0.4444
12269TIP3    H158222  -0.019   2.650   5.145 -1.5972 -0.9727  0.0141
12269TIP3    H258223   0.065   2.761   5.084  1.0079 -2.1287  1.3388
12270TIP3   OH258224   4.492   0.813  13.107  0.3813 -0.0481  0.1020
12270TIP3    H158225   4.572   0.815  13.056 -0.2780  0.0484 -0.9638
12270TIP3    H258226   4.441   0.741  13.068 -0.8974  1.1930 -0.6018
12271TIP3   OH258227   4.372   5.684  14.106 -0.7596 -0.1291  0.0796
12271TIP3    H158228   4.401   5.748  14.171  0.8254 -0.3978 -0.3258
12271TIP3    H258229   4.443   5.682  14.041 -0.3077 -2.9507  0.5422
12272TIP3   OH258230   1.953   6.171  13.999  0.3531  0.0856  0.0298
12272TIP3    H158231   1.875   6.184  14.053  0.5938 -2.3150  1.0637
12272TIP3    H258232   1.946   6.238  13.932 -1.1787  1.6956  1.6640
12273TIP3   OH258233   3.401   5.184  16.496 -0.2432 -0.1425  0.3673
12273TIP3    H158234   3.383   5.277  16.483  2.4656  0.2642 -1.1885
12273TIP3    H258235   3.433   5.178  16.586  0.8708  0.6985  0.0469
12274TIP3   OH258236   6.281   1.909  13.120  0.0185  0.5857 -0.1390
12274TIP3    H158237   6.317   1.954  13.196  1.7830 -2.1982  0.8056
12274TIP3    H258238   6.192   1.945  13.111  0.5496  2.5951  1.8195
12275TIP3   OH258239   4.440   6.048   2.038  0.6975 -0.3799  0.2503
12275TIP3    H158240   4.512   6.076   2.095  0.1169  0.9913  0.3315
12275TIP3    H258241   4.424   6.123   1.980 -2.9804  0.8364  2.5331
12276TIP3   OH258242   3.753   3.086  12.524 -0.1208  1.0828  0.5611
12276TIP3    H158243   3.794   3.046  12.447  0.5153 -0.3843  1.6130
12276TIP3    H258244   3.674   3.035  12.540  0.7728  0.0658  2.0061
12277TIP3   OH258245   2.022   4.417   0.328  0.1599  0.5332 -0.2191
12277TIP3    H158246   1.984   4.479   0.266  0.7096  0.1929 -0.9152
12277TIP3    H258247   2.001   4.453   0.414  2.7035  3.1531 -0.5367
12278TIP3   OH258248   4.568   4.715  16.464  0.0854 -0.0532  0.5443
12278TIP3    H158249   4.633   4.754  16.523  0.5617 -0.7212  0.4625
12278TIP3    H258250   4.499   4.782  16.458  0.5739  0.5000  0.9412
12279TIP3   OH258251   0.964   2.079   4.349 -0.4274  0.0100  0.2446
12279TIP3    H158252   0.983   2.145   4.283 -1.3424 -0.6375 -0.7108
12279TIP3    H258253   0.971   2.125   4.433  0.5295  0.9001 -0.3045
12280TIP3   OH258254   1.904   1.614   3.260 -0.2140 -0.1734 -1.0365
12280TIP3    H158255   1.995   1.585   3.268 -0.1684  0.2873  0.5997
12280TIP3    H258256   1.907   1.708   3.279 -1.4720 -0.8542  3.9713
12281TIP3   OH258257   6.659   6.124  14.265 -0.7678  0.3279 -0.5601
12281TIP3    H158258   6.632   6.215  14.256 -1.0193  0.3031 -0.0995
12281TIP3    H258259   6.751   6.123  14.238 -0.0295  1.1875  1.6590
12282TIP3   OH258260   3.461   4.748  12.525 -0.5255  0.1851 -0.7738
12282TIP3    H158261   3.472   4.667  12.474 -0.8021 -0.2480 -0.1515
12282TIP3    H258262   3.368   4.749  12.547 -0.0605 -0.7201  1.4869
12283TIP3   OH258263   4.948   1.665  12.850  0.6083 -0.3365 -0.2393
12283TIP3    H158264   4.928   1.593  12.791  0.0835 -1.7027  1.5211
12283TIP3    H258265   5.043   1.661  12.862  0.4855 -1.2973  0.4995
12284TIP3   OH258266   6.369   6.038   2.286 -0.2949 -0.0560  0.6499
12284TIP3    H158267   6.279   6.009   2.278 -0.1620 -1.0632  2.2621
12284TIP3    H258268   6.419   5.958   2.305  1.0062  0.4242 -0.5324
12285TIP3   OH258269   5.613   5.249   5.197 -0.3146 -0.5996  0.2382
12285TIP3    H158270   5.534   5.303   5.205 -0.5848 -1.0604  0.7960
12285TIP3    H258271   5.631   5.220   5.287  2.4185  2.1874  0.7536
12286TIP3   OH258272   0.196   2.377  16.891  0.9610  0.0546  0.0831
12286TIP3    H158273   0.254   2.415  16.825  0.5318  0.2712 -0.1702
12286TIP3    H258274   0.182   2.447  16.954 -0.5632  0.6419 -0.8572
12287TIP3   OH258275   4.689   2.540  13.122 -0.8857 -0.1555  0.0818
12287TIP3    H158276   4.738   2.462  13.147  1.5522  1.6921  1.4969
12287TIP3    H258277   4.645   2.567  13.202  0.6147  1.4465  0.4200
12288TIP3   OH258278   0.596   5.066   4.280  0.2644  0.1302 -0.5788
12288TIP3    H158279   0.625   5.147   4.321  0.4303  1.0206 -2.3722
12288TIP3    H258280   0.502   5.062   4.299  0.2846  0.6662 -0.3580
12289TIP3   OH258281   0.685   5.938   0.407 -0.0474 -0.6531  0.1632
12289TIP3    H158282   0.600   5.941   0.450  0.4257 -0.5887  1.1235
12289TIP3    H258283   0.744   5.986   0.465  0.4417  0.2007 -0.9931
12290TIP3   OH258284   4.084   6.529  13.549 -0.3020  0.0308 -0.1301
12290TIP3    H158285   4.008   6.556  13.497  0.6285 -0.8989 -2.0966
12290TIP3    H258286   4.156   6.582  13.513  0.3628 -0.6264  0.2265
12291TIP3   OH258287   3.964   2.938   2.190 -0.0279 -0.1221  0.1478
12291TIP3    H158288   4.042   2.930   2.135  0.5111 -0.8682  0.9864
12291TIP3    H258289   3.894   2.899   2.138  0.1615  0.5083 -0.5951
12292TIP3   OH258290   4.094   1.921  16.290  0.3236 -0.2593 -0.3973
12292TIP3    H158291   4.145   1.864  16.348  0.5083 -0.9703 -1.2376
12292TIP3    H258292   4.010   1.931  16.334 -0.2912 -2.4987 -0.9779
12293TIP3   OH258293   0.542   5.454   3.109  0.1278  0.3091 -0.9253
12293TIP3    H158294   0.631   5.486   3.123  0.0164  0.5684 -0.8128
12293TIP3    H258295   0.547   5.405   3.027  0.9943 -1.9931  0.3999
12294TIP3   OH258296   3.989   0.974   4.256  0.2503 -0.0023  0.0845
12294TIP3    H158297   3.900   0.972   4.222  0.8750  1.4073 -1.7605
12294TIP3    H258298   4.041   1.016   4.187  2.3480 -0.7455  1.1183
12295TIP3   OH258299   4.551   5.442   1.543  0.1265  0.5446 -0.1899
12295TIP3    H158300   4.459   5.464   1.556  0.3567  0.9457  0.8687
12295TIP3    H258301   4.584   5.424   1.631  0.6792 -1.1874 -0.7114
12296TIP3   OH258302   5.682   4.636   5.733 -0.4054  0.1757  0.2781
12296TIP3    H158303   5.764   4.605   5.772 -0.2223  1.9136  1.3932
12296TIP3    H258304   5.698   4.635   5.638  0.2560 -1.1919  0.3910
12297TIP3   OH258305   0.384   3.344  16.869  0.3081  0.2956  0.5617
12297TIP3    H158306   0.343   3.292  16.938  2.8917 -1.2186  1.0853
12297TIP3    H258307   0.394   3.283  16.796 -0.8161  1.4052 -0.5639
12298TIP3   OH258308   6.156   3.117   5.846 -0.3166  0.4782  0.0992
12298TIP3    H158309   6.159   3.128   5.751 -1.4645 -0.2494 -0.0495
12298TIP3    H258310   6.117   3.198   5.879 -0.7375  0.3759 -0.1429
12299TIP3   OH258311   0.218   6.580   6.452  0.2037  0.4203  0.4812
12299TIP3    H158312   0.222   6.485   6.444  1.7440  0.6407 -2.3881
12299TIP3    H258313   0.134   6.596   6.496  0.1770 -2.2359  1.6021
12300TIP3   OH258314   6.623   2.173   2.227  0.0828  0.9103 -0.4012
12300TIP3    H158315   6.600   2.175   2.320 -0.7861  2.3332 -0.6044
12300TIP3    H258316   6.556   2.228   2.185 -1.4624 -2.1794 -2.3481
12301TIP3   OH258317   1.619   0.735   1.007  0.5907 -0.2373 -0.2213
12301TIP3    H158318   1.678   0.805   1.034  0.2663  0.1243 -0.4508
12301TIP3    H258319   1.667   0.654   1.027  1.2883  0.0542 -0.6931
12302TIP3   OH258320   6.799   5.396   4.277  0.6557  0.7017  0.1022
12302TIP3    H158321   6.777   5.376   4.368 -3.0179  2.5023 -0.2164
12302TIP3    H258322   6.829   5.313   4.241  1.0505 -0.3341  2.6116
12303TIP3   OH258323   3.465   0.461  15.167  0.1231 -0.2315  0.5722
12303TIP3    H158324   3.518   0.419  15.099 -3.6198 -2.8174 -1.1617
12303TIP3    H258325   3.397   0.396  15.187 -3.2731  3.1793  1.3835
12304TIP3   OH258326   3.400   6.776  14.729 -0.1425  0.4588 -0.0749
12304TIP3    H158327   3.487   6.806  14.702  0.5219  0.3279  1.8061
12304TIP3    H258328   3.403   6.681  14.718 -0.5233  0.5651 -1.2489
12305TIP3   OH258329   3.907   3.895  15.761  0.1585  0.3821  0.1895
12305TIP3    H158330   3.992   3.852  15.769  0.7378  1.3108 -0.6791
12305TIP3    H258331   3.911   3.939  15.676 -2.1817 -1.7037 -1.1578
12306TIP3   OH258332   4.557   4.160  13.307  0.0708 -0.3461  0.0365
12306TIP3    H158333   4.492   4.225  13.335  1.1707  1.4964 -1.4532
12306TIP3    H258334   4.641   4.196  13.334  0.6446 -1.9312  0.5189
12307TIP3   OH258335   0.775   6.724   1.701  0.2584 -0.2566 -0.2681
12307TIP3    H158336   0.734   6.761   1.623  0.7910 -0.1703 -0.5184
12307TIP3    H258337   0.822   6.647   1.668 -0.8547 -1.1807  0.2460
12308TIP3   OH258338   4.521   5.963   0.785  0.6671  0.0090 -0.2120
12308TIP3    H158339   4.601   5.911   0.773  1.0137  0.4327  0.2196
12308TIP3    H258340   4.537   6.013   0.865 -0.5563 -0.8498  0.5941
12309TIP3   OH258341   3.118   5.681   1.554  0.3284  0.2574  0.0929
12309TIP3    H158342   3.210   5.697   1.574  1.3279 -1.6729 -2.5173
12309TIP3    H258343   3.092   5.752   1.496  0.1556  0.7725  0.7877
12310TIP3   OH258344   4.700   2.850  14.816 -0.1791 -0.3572  0.3360
12310TIP3    H158345   4.687   2.944  14.801 -1.8316 -0.4911  0.7445
12310TIP3    H258346   4.666   2.808  14.736  1.0395 -0.6115 -0.0737
12311TIP3   OH258347   1.860   5.149   3.469  0.0069 -0.1370  0.3025
12311TIP3    H158348   1.943   5.193   3.482  0.6433 -1.4830  1.0298
12311TIP3    H258349   1.868   5.067   3.518 -2.4483  0.5220  2.0196
12312TIP3   OH258350   1.207   0.616   0.293  0.6976  0.0230  0.3939
12312TIP3    H158351   1.126   0.565   0.298  1.2818 -0.8483  1.3534
12312TIP3    H258352   1.256   0.592   0.372  2.9562 -1.3479 -1.2622
12313TIP3   OH258353   5.140   6.681   5.165  0.2066  0.7778 -0.2330
12313TIP3    H158354   5.162   6.597   5.126  1.2472  0.8919  0.0862
12313TIP3    H258355   5.068   6.662   5.226  1.4664 -0.1807  1.0075
12314TIP3   OH258356   6.610   4.617   5.519  0.3035 -0.1068 -0.0128
12314TIP3    H158357   6.564   4.639   5.438  0.0910 -2.1554 -0.5035
12314TIP3    H258358   6.703   4.629   5.499  0.1588  1.1750  0.0417
12315TIP3   OH258359   1.632   1.820   2.819  0.4268  0.1173  0.3871
12315TIP3    H158360   1.622   1.909   2.784  1.0841 -0.1738 -0.6051
12315TIP3    H258361   1.579   1.765   2.761 -0.8209 -0.0301  1.6176
12316TIP3   OH258362   5.592   3.257  14.311 -0.7102 -0.0659 -0.0766
12316TIP3    H158363   5.660   3.244  14.245 -0.7880  2.1165 -0.6342
12316TIP3    H258364   5.550   3.339  14.287 -0.7893  0.7731  2.6422
12317TIP3   OH258365   1.430   5.049  10.706 -0.1265  0.3196  0.6920
12317TIP3    H158366   1.404   5.102  10.781  0.5635  1.2788  0.2862
12317TIP3    H258367   1.526   5.055  10.705 -0.1227  0.3142 -0.2366
12318TIP3   OH258368   1.456   6.485   1.054  0.5927  0.3543 -0.3681
12318TIP3    H158369   1.444   6.556   1.117  1.4978 -0.5453  0.8528
12318TIP3    H258370   1.404   6.512   0.978  1.2687  2.5291 -0.1221
12319TIP3   OH258371   5.920   1.137   5.075  0.0555  0.5722  0.1662
12319TIP3    H158372   5.837   1.137   5.122 -0.4887  0.6742 -0.7754
12319TIP3    H258373   5.896   1.135   4.982  1.1024  0.5063 -0.1224
12320TIP3   OH258374   3.427   6.536  16.508  0.7537  0.1625  0.4455
12320TIP3    H158375   3.348   6.565  16.462  2.0754  0.6752 -1.6467
12320TIP3    H258376   3.482   6.614  16.512  3.3309 -1.2102 -3.0074
12321TIP3   OH258377   5.317   3.046  16.785  0.2801 -0.2501  0.2088
12321TIP3    H158378   5.276   2.961  16.802 -1.6196  0.5741  0.0318
12321TIP3    H258379   5.285   3.071  16.698  0.6181  0.7665  0.3635
12322TIP3   OH258380   4.356   5.002  16.192  0.6046 -0.2716  0.0940
12322TIP3    H158381   4.263   4.979  16.189  0.0089  1.8441  0.8038
12322TIP3    H258382   4.397   4.944  16.128 -1.5781  0.3275 -1.9703
12323TIP3   OH258383   2.972   4.911  10.835  0.3811  0.6444 -0.2371
12323TIP3    H158384   2.989   4.818  10.822  2.1488  0.9344 -0.2412
12323TIP3    H258385   3.049   4.955  10.800 -0.9789  2.2202 -1.4534
12324TIP3   OH258386   3.908   3.007   4.983 -0.0595 -0.1361 -0.4747
12324TIP3    H158387   3.822   2.974   4.958 -1.6818  2.7482  0.8171
12324TIP3    H258388   3.907   3.008   5.079  1.5430 -0.2656 -0.4176
12325TIP3   OH258389   4.255   4.794  15.874 -0.6140  0.0867  0.4768
12325TIP3    H158390   4.338   4.829  15.842 -0.8137 -1.5053 -2.0287
12325TIP3    H258391   4.279   4.745  15.953  0.7197  0.2541  0.1970
12326TIP3   OH258392   1.365   1.508   0.393 -0.3061 -1.0136 -0.0034
12326TIP3    H158393   1.402   1.530   0.308  0.0166  0.0475  0.3937
12326TIP3    H258394   1.412   1.429   0.420  0.4950 -0.6253 -0.2464
12327TIP3   OH258395   1.750   2.594  11.287  0.4191  0.0559  0.5229
12327TIP3    H158396   1.684   2.606  11.356 -0.5621  0.9074 -0.5213
12327TIP3    H258397   1.780   2.683  11.268  0.8932 -0.2050  0.0559
12328TIP3   OH258398   4.079   2.766   1.710 -0.0143 -0.0116 -0.0822
12328TIP3    H158399   4.060   2.727   1.795  0.5695 -0.0150  0.0459
12328TIP3    H258400   4.135   2.841   1.729 -2.2033  1.7557 -0.1855
12329TIP3   OH258401   0.666   2.410   4.660  0.2432 -0.0055 -0.3325
12329TIP3    H158402   0.682   2.402   4.566 -3.8046  0.6278 -1.2425
12329TIP3    H258403   0.632   2.325   4.686  0.1796  0.2126  0.3109
12330TIP3   OH258404   2.446   4.216   5.441  0.2330 -0.5125  0.2735
12330TIP3    H158405   2.377   4.234   5.377  0.1520  0.7180  0.6787
12330TIP3    H258406   2.443   4.122   5.454 -0.2227 -0.6845 -1.0080
12331TIP3   OH258407   4.910   4.050  15.093 -0.0422  0.5394  0.1128
12331TIP3    H158408   4.854   4.120  15.125 -1.4379 -0.7705  0.6731
12331TIP3    H258409   4.849   3.985  15.058  1.2714  0.2628 -1.8201
12332TIP3   OH258410   0.135   2.266  14.560  0.5038  0.5708 -0.8210
12332TIP3    H158411   0.054   2.299  14.600 -0.9199  0.1922 -3.1969
12332TIP3    H258412   0.167   2.201  14.623 -1.2767  0.4188  0.0012
12333TIP3   OH258413   1.654   3.911  13.649 -0.0621 -0.6327  0.1528
12333TIP3    H158414   1.655   4.002  13.679  0.0064 -0.5730 -0.0274
12333TIP3    H258415   1.737   3.900  13.602  0.2961 -1.0235  0.8621
12334TIP3   OH258416   2.917   6.193  12.827  0.1258 -0.2442  0.5477
12334TIP3    H158417   3.003   6.213  12.789  0.0273 -1.6652 -0.4797
12334TIP3    H258418   2.899   6.103  12.800 -1.7320  0.0578  0.6699
12335TIP3   OH258419   4.493   4.325   1.064 -0.4446  0.1393 -0.1686
12335TIP3    H158420   4.540   4.242   1.056 -0.2843  0.1005  1.0291
12335TIP3    H258421   4.419   4.316   1.003 -1.2627 -1.4849  0.9693
12336TIP3   OH258422   3.151   5.530  16.364  0.0778  0.1999 -0.1003
12336TIP3    H158423   3.107   5.472  16.303 -0.6487  0.7836 -0.1432
12336TIP3    H258424   3.201   5.591  16.309  1.5887 -0.9190 -0.0414
12337TIP3   OH258425   3.311   5.480  11.424  0.1415  0.0220  0.2521
12337TIP3    H158426   3.381   5.420  11.449  0.7987  0.0690 -1.3856
12337TIP3    H258427   3.324   5.555  11.483 -1.1674 -1.6440  2.8567
12338TIP3   OH258428   3.522   6.612  12.371  0.2479 -0.4405 -0.8644
12338TIP3    H158429   3.543   6.528  12.412  0.3777  0.0996  0.2374
12338TIP3    H258430   3.604   6.661  12.373 -0.1036  0.1482 -0.3837
12339TIP3   OH258431   5.387   3.961  11.809  0.2745  0.3649 -0.2001
12339TIP3    H158432   5.438   3.970  11.728 -1.1158 -0.6281 -1.2336
12339TIP3    H258433   5.401   3.870  11.836 -2.4693 -0.6039 -1.6549
12340TIP3   OH258434   6.198   5.690  12.595 -0.1220 -0.1344  0.1341
12340TIP3    H158435   6.277   5.668  12.545 -0.8580  0.9824 -1.5880
12340TIP3    H258436   6.139   5.616  12.581  0.0342 -0.2626  0.1492
12341TIP3   OH258437   0.480   1.858  12.715 -0.0597 -0.1663 -0.5801
12341TIP3    H158438   0.549   1.923  12.708  1.1122 -1.1155  1.4010
12341TIP3    H258439   0.436   1.860  12.630  1.9535  0.9470 -1.6542
12342TIP3   OH258440   1.412   2.800   3.064  0.1036 -0.8507 -0.0926
12342TIP3    H158441   1.387   2.730   3.002 -1.2906 -1.3187  0.9373
12342TIP3    H258442   1.488   2.764   3.111 -0.2575 -1.4532  0.0438
12343TIP3   OH258443   0.617   1.371   0.666  0.5115  0.5734  0.5856
12343TIP3    H158444   0.602   1.339   0.577 -0.7797  0.3346  0.8736
12343TIP3    H258445   0.712   1.376   0.674  0.7757 -2.2032  0.1753
12344TIP3   OH258446   0.160   0.301   6.835 -0.3026  0.0829  0.2667
12344TIP3    H158447   0.206   0.236   6.781 -0.1311 -0.3161  0.8849
12344TIP3    H258448   0.105   0.249   6.894 -0.3523  0.5063  0.5988
12345TIP3   OH258449   2.061   4.422   3.887  0.3223 -0.0383 -0.0213
12345TIP3    H158450   1.983   4.463   3.922  0.2989  1.1405 -1.3737
12345TIP3    H258451   2.130   4.488   3.896  0.5488 -0.0900 -1.1749
12346TIP3   OH258452   0.796   5.013   3.746 -0.4435  0.1585 -0.2976
12346TIP3    H158453   0.746   5.094   3.748  1.2539  1.2589  1.4861
12346TIP3    H258454   0.886   5.041   3.729  0.0657 -1.4304 -0.4125
12347TIP3   OH258455   3.104   3.317  16.411 -0.0154  0.0961  0.1833
12347TIP3    H158456   3.093   3.283  16.500  0.1260 -1.2759 -0.3104
12347TIP3    H258457   3.160   3.253  16.367  1.0516  1.4520 -0.5092
12348TIP3   OH258458   2.508   6.560  15.952  0.5034 -0.5910 -0.3298
12348TIP3    H158459   2.553   6.635  15.915 -0.4134 -0.1302 -0.5332
12348TIP3    H258460   2.560   6.537  16.029 -0.4874  1.7640  1.1520
12349TIP3   OH258461   3.607   0.757  15.642  0.5816 -0.5302  0.2731
12349TIP3    H158462   3.512   0.753  15.654  0.6887 -1.0781  0.9862
12349TIP3    H258463   3.629   0.850  15.655  0.1846 -0.4509  0.3871
12350TIP3   OH258464   5.572   0.377  16.018  0.1907  0.5303 -0.1463
12350TIP3    H158465   5.573   0.364  15.924 -1.1383  1.0047 -0.2456
12350TIP3    H258466   5.506   0.446  16.033  0.7278  0.8197  1.0798
12351TIP3   OH258467   2.500   1.126  12.983 -0.0487 -0.1720 -0.7497
12351TIP3    H158468   2.450   1.045  13.000  1.0299 -0.8562 -0.7241
12351TIP3    H258469   2.520   1.160  13.070 -1.3296  0.6885 -0.7534
12352TIP3   OH258470   4.779   4.994   0.161  0.0623  0.2822 -0.5035
12352TIP3    H158471   4.748   4.903   0.156 -1.0475  0.4467  1.7010
12352TIP3    H258472   4.788   5.022   0.070 -0.0784 -1.8657 -1.2359
12353TIP3   OH258473   1.944   2.249   6.471 -0.7505  0.6124  0.2547
12353TIP3    H158474   2.021   2.305   6.461  0.3995 -1.1875 -2.3909
12353TIP3    H258475   1.878   2.289   6.415 -0.6761  0.5344  0.1088
12354TIP3   OH258476   4.283   4.495   3.883 -0.6260  0.2925  0.1618
12354TIP3    H158477   4.289   4.532   3.795 -1.8296  0.4283  0.1269
12354TIP3    H258478   4.360   4.439   3.890  1.3594  2.8642  0.2807
12355TIP3   OH258479   6.249   3.821  10.709 -0.3344  0.2952  0.0256
12355TIP3    H158480   6.309   3.896  10.699 -0.5997  0.5079  0.0164
12355TIP3    H258481   6.247   3.780  10.623  0.1455  0.0222  0.1408
12356TIP3   OH258482   0.287   6.795  11.399  0.0411  0.0714 -0.2297
12356TIP3    H158483   0.220   6.863  11.408 -0.7843 -0.8095  0.5512
12356TIP3    H258484   0.370   6.843  11.395 -0.5483  1.1345 -0.1138
12357TIP3   OH258485   3.206   3.093   5.423  0.1092  0.0020 -1.1005
12357TIP3    H158486   3.129   3.149   5.434 -0.6079 -1.3526  2.0421
12357TIP3    H258487   3.271   3.130   5.483  0.2618 -1.3968 -0.3596
12358TIP3   OH258488   3.725   5.775   2.640  0.0089 -0.3658 -0.1652
12358TIP3    H158489   3.697   5.686   2.621 -0.6383 -0.8640  2.6767
12358TIP3    H258490   3.723   5.820   2.555 -0.3279 -2.8429 -1.5410
12359TIP3   OH258491   5.423   4.042   1.013 -0.2574 -0.3743  0.1073
12359TIP3    H158492   5.388   4.104   0.948 -1.2644  0.7029  1.6155
12359TIP3    H258493   5.345   4.007   1.057  0.3984 -1.2941  0.5654
12360TIP3   OH258494   6.328   6.584  15.275  0.5770 -0.3086 -0.0914
12360TIP3    H158495   6.416   6.607  15.305  0.2652  2.0085 -0.7483
12360TIP3    H258496   6.321   6.623  15.188 -1.5608  0.8659  0.5416
12361TIP3   OH258497   3.792   0.202  13.012  0.0037  0.4437 -0.2838
12361TIP3    H158498   3.700   0.219  12.990 -0.0235  1.7668  0.7508
12361TIP3    H258499   3.824   0.284  13.049  1.5967 -0.0186 -0.5442
12362TIP3   OH258500   4.301   5.503   0.379 -0.2322  0.2136 -0.1632
12362TIP3    H158501   4.346   5.477   0.299 -1.4529  0.0538 -0.8275
12362TIP3    H258502   4.325   5.436   0.443  2.7361  1.6498  0.3941
12363TIP3   OH258503   4.869   6.125  15.092  0.0382 -0.0664  0.4640
12363TIP3    H158504   4.929   6.099  15.163  1.5085  2.1493  0.1427
12363TIP3    H258505   4.916   6.101  15.012 -0.6413 -0.5746  0.2120
12364TIP3   OH258506   6.310   1.190  17.070 -0.3550 -0.0965  0.5175
12364TIP3    H158507   6.390   1.139  17.081  0.6493  1.3665  0.2447
12364TIP3    H258508   6.252   1.133  17.019  0.3187 -1.3609  1.1161
12365TIP3   OH258509   6.421   1.041   0.618  0.0724  0.0790  0.5378
12365TIP3    H158510   6.509   1.055   0.653 -0.1418  1.0500  0.6981
12365TIP3    H258511   6.432   0.970   0.555  0.5762 -1.3472  2.1261
12366TIP3   OH258512   2.551   5.587  12.103 -0.4232 -0.3454  0.2629
12366TIP3    H158513   2.500   5.668  12.096  0.4820  0.4136  1.8573
12366TIP3    H258514   2.506   5.536  12.171 -0.4415 -0.7681 -0.0586
12367TIP3   OH258515   1.828   0.506  15.187  0.1788  0.6363  0.0855
12367TIP3    H158516   1.844   0.415  15.163  0.8624  0.7536  0.0776
12367TIP3    H258517   1.742   0.526  15.152 -0.3302 -0.2524  0.7965
12368TIP3   OH258518   2.139   3.683  14.531 -0.0765  0.2318  0.1628
12368TIP3    H158519   2.181   3.768  14.545  1.0669 -0.4380  0.8873
12368TIP3    H258520   2.129   3.677  14.436  0.4866  0.8731  0.0569
12369TIP3   OH258521   0.868   0.807  16.244  0.4872  0.3913  0.5000
12369TIP3    H158522   0.818   0.806  16.326 -0.0025 -0.8087  0.2182
12369TIP3    H258523   0.812   0.759  16.182  1.1681  0.6605 -0.3357
12370TIP3   OH258524   0.472   6.237  11.855  0.3918  0.2353  0.1063
12370TIP3    H158525   0.449   6.246  11.762  1.5390 -0.2569 -0.2524
12370TIP3    H258526   0.518   6.318  11.876  1.4645 -0.2747 -0.1957
12371TIP3   OH258527   2.874   0.750  15.068 -0.4570  0.0815 -0.5480
12371TIP3    H158528   2.792   0.796  15.085 -0.6468 -0.4758  0.1220
12371TIP3    H258529   2.851   0.683  15.004 -0.4680  0.0986 -0.5615
12372TIP3   OH258530   6.491   3.191   1.312 -0.2446 -0.0106 -0.5578
12372TIP3    H158531   6.557   3.132   1.276 -1.5321 -0.5619 -2.1239
12372TIP3    H258532   6.473   3.253   1.242 -0.4980  0.8997  0.2957
12373TIP3   OH258533   6.604   6.160   5.801 -0.1192 -0.3994  0.3097
12373TIP3    H158534   6.520   6.178   5.758  0.3309 -0.9875 -0.8588
12373TIP3    H258535   6.659   6.125   5.731  0.6041 -1.5308  1.4161
12374TIP3   OH258536   0.148   4.767  14.924  0.1351 -0.0101 -0.1886
12374TIP3    H158537   0.108   4.696  14.973  0.6979  0.2148  0.6186
12374TIP3    H258538   0.084   4.838  14.927  0.6017  0.3773  1.1617
12375TIP3   OH258539   0.505   0.429  15.680 -0.0615  0.1455  0.1572
12375TIP3    H158540   0.567   0.437  15.607 -0.1666 -4.9501 -0.9163
12375TIP3    H258541   0.556   0.394  15.752 -0.5327  2.3785  1.6603
12376TIP3   OH258542   1.114   4.231  15.390 -0.3476 -0.3588 -0.4818
12376TIP3    H158543   1.099   4.195  15.303  1.0123 -0.2961 -0.7622
12376TIP3    H258544   1.075   4.319  15.387  1.3022  0.3831 -1.6603
12377TIP3   OH258545   1.144   3.444  16.608  0.2087 -0.7049 -0.4929
12377TIP3    H158546   1.210   3.474  16.671  1.1375  1.4205 -2.3588
12377TIP3    H258547   1.073   3.508  16.616 -0.2352 -1.1580 -0.7315
12378TIP3   OH258548   5.352   2.304  13.221 -0.3085 -0.1068 -0.0346
12378TIP3    H158549   5.338   2.382  13.167 -0.3223 -0.1075 -0.0317
12378TIP3    H258550   5.274   2.251  13.208  0.2421 -0.7185 -1.0414
12379TIP3   OH258551   2.724   6.442   4.904 -0.0688  0.6604  0.2844
12379TIP3    H158552   2.767   6.430   4.819  1.6619  0.7712  1.0929
12379TIP3    H258553   2.761   6.523   4.938 -0.5879  0.5141  1.2336
12380TIP3   OH258554   4.093   5.545  14.657 -0.2097  0.0316  0.4260
12380TIP3    H158555   4.129   5.577  14.740 -0.8978 -0.4446  0.9201
12380TIP3    H258556   4.140   5.463  14.641  1.0276  0.8756 -0.4644
12381TIP3   OH258557   2.289   6.141   0.571 -0.2838  0.3048 -0.2923
12381TIP3    H158558   2.287   6.190   0.653 -0.0449  1.1320 -0.7713
12381TIP3    H258559   2.224   6.071   0.584  0.5244 -0.2526  0.9948
12382TIP3   OH258560   5.123   6.802  13.841 -0.2586  0.1229 -0.0018
12382TIP3    H158561   5.209   6.776  13.808 -1.3003 -0.8831 -2.0859
12382TIP3    H258562   5.127   6.897  13.846  0.8299  0.1151 -0.5198
12383TIP3   OH258563   0.156   4.985  16.288  0.3865  0.0933  0.0004
12383TIP3    H158564   0.175   5.030  16.205  0.2138  0.3673  0.1047
12383TIP3    H258565   0.072   4.942  16.272 -0.0183  0.7584  0.2638
12384TIP3   OH258566   3.017   1.488  13.336  0.0592 -0.7774 -0.1511
12384TIP3    H158567   2.998   1.447  13.252 -0.6142 -2.4997  0.7661
12384TIP3    H258568   2.950   1.556  13.346  0.4195 -0.2590 -1.1773
12385TIP3   OH258569   3.010   6.605  16.256 -0.6127  0.0003 -0.0316
12385TIP3    H158570   2.990   6.540  16.189 -1.2973 -0.3805  0.5235
12385TIP3    H258571   3.042   6.681  16.208 -2.5768  0.3118 -0.9480
12386TIP3   OH258572   0.060   4.231  12.978  0.0957  0.0610 -0.1092
12386TIP3    H158573   0.086   4.158  12.921  0.3637 -0.1897  0.3279
12386TIP3    H258574   0.123   4.300  12.958 -0.0818  0.1354 -0.4326
12387TIP3   OH258575   4.545   4.407   3.320  0.0661  0.3311  0.3476
12387TIP3    H158576   4.501   4.326   3.293 -1.0418  1.5148 -1.6690
12387TIP3    H258577   4.546   4.403   3.416 -3.7448 -0.2154  0.5411
12388TIP3   OH258578   0.891   6.443   5.081  0.5087 -0.2383  0.0949
12388TIP3    H158579   0.855   6.531   5.072  0.8454 -0.1010  0.0894
12388TIP3    H258580   0.840   6.390   5.020 -0.1346 -0.1808  0.5697
12389TIP3   OH258581   1.255   2.812  16.700 -0.3979  0.5085 -0.0140
12389TIP3    H158582   1.210   2.854  16.627 -0.0714  0.9424  0.0269
12389TIP3    H258583   1.225   2.860  16.777 -1.5559 -0.6295  0.2691
12390TIP3   OH258584   3.558   4.774   1.468  0.4643 -0.3785 -0.3158
12390TIP3    H158585   3.626   4.709   1.489 -0.2642 -0.9805  0.2504
12390TIP3    H258586   3.508   4.734   1.396 -0.6390 -0.9650  0.7261
12391TIP3   OH258587   2.325   0.927   3.534  0.4508 -0.4013  0.1085
12391TIP3    H158588   2.374   0.946   3.613 -0.1034  1.0367  0.1392
12391TIP3    H258589   2.388   0.887   3.475  1.3831  0.4039  0.5407
12392TIP3   OH258590   0.357   2.925   2.499  0.5106  0.0389 -0.1676
12392TIP3    H158591   0.320   2.950   2.414  0.6846  0.3502 -0.1545
12392TIP3    H258592   0.299   2.857   2.532 -0.4396  0.9753  0.1551
12393TIP3   OH258593   3.962   3.010   5.908 -1.0638  0.2108  0.5801
12393TIP3    H158594   3.930   3.096   5.884  3.5033  1.8135 -0.8505
12393TIP3    H258595   4.027   3.026   5.976  0.4729 -1.9481 -0.2446
12394TIP3   OH258596   0.262   3.488  13.055 -0.0477 -0.3697  0.0775
12394TIP3    H158597   0.267   3.550  13.127 -1.7279  0.6555 -0.6218
12394TIP3    H258598   0.322   3.522  12.989 -0.4538  0.1632 -0.0285
12395TIP3   OH258599   1.258   5.999   1.480  0.0129 -0.2803 -0.1995
12395TIP3    H158600   1.177   6.046   1.464 -0.0355 -1.0445 -2.4351
12395TIP3    H258601   1.300   5.991   1.395  1.8520 -0.9930  0.6997
12396TIP3   OH258602   2.088   3.079  15.527 -0.1052  0.8670 -0.2106
12396TIP3    H158603   2.173   3.124  15.525  0.4878 -0.1768  0.5278
12396TIP3    H258604   2.067   3.072  15.620 -2.0883  3.0114 -0.4000
12397TIP3   OH258605   5.543   1.043  13.372  0.6785 -0.6685 -0.1758
12397TIP3    H158606   5.600   1.033  13.296 -0.1126 -0.6193 -0.7904
12397TIP3    H258607   5.465   1.087  13.338 -0.2793 -1.8839  0.3599
12398TIP3   OH258608   1.098   1.551   1.289  0.3762 -0.4173  0.5057
12398TIP3    H158609   1.177   1.512   1.251  1.0987  0.7923  0.7078
12398TIP3    H258610   1.026   1.504   1.246  1.1850 -0.6242 -0.7007
12399TIP3   OH258611   6.165   4.990   5.742  0.1517  0.2193  0.2270
12399TIP3    H158612   6.212   4.994   5.658 -0.0956 -0.1031  0.0686
12399TIP3    H258613   6.177   5.077   5.780 -1.0273  0.8871 -0.8421
12400TIP3   OH258614   4.398   2.823  14.714  0.0627  0.1285 -0.7143
12400TIP3    H158615   4.445   2.880  14.653  4.7769 -0.4237  1.9246
12400TIP3    H258616   4.336   2.882  14.758  1.1969  2.0246 -1.5208
12401TIP3   OH258617   2.862   3.676   1.320  0.2717 -0.5011 -0.5759
12401TIP3    H158618   2.955   3.685   1.341  0.2052  1.1353 -0.8594
12401TIP3    H258619   2.854   3.587   1.284  1.4336 -1.2088  0.8177
12402TIP3   OH258620   1.907   0.380   2.318  0.0827  0.2517  0.4210
12402TIP3    H158621   1.847   0.451   2.295  2.2374  2.7059  1.8102
12402TIP3    H258622   1.884   0.357   2.408 -0.3541 -0.5799  0.1066
12403TIP3   OH258623   6.705   5.639  16.078  0.0419  0.3358  0.5694
12403TIP3    H158624   6.633   5.669  16.135  0.4060 -0.3972  1.4392
12403TIP3    H258625   6.717   5.711  16.016 -0.0310  1.3939  1.7346
12404TIP3   OH258626   2.228   2.281  16.985 -0.2918 -0.3485  0.4274
12404TIP3    H158627   2.254   2.286  17.076  0.9061  0.4488  0.0555
12404TIP3    H258628   2.181   2.197  16.978 -1.3716  0.0924  1.9911
12405TIP3   OH258629   0.531   0.344  13.431  0.2571  0.0660 -0.3242
12405TIP3    H158630   0.463   0.389  13.483 -0.5787 -1.1015 -0.3772
12405TIP3    H258631   0.613   0.381  13.463 -0.3202  0.3759  0.8691
12406TIP3   OH258632   5.225   2.741  14.584 -0.5579  0.4483 -0.8185
12406TIP3    H158633   5.256   2.722  14.673 -0.3083  0.0713 -0.9804
12406TIP3    H258634   5.130   2.746  14.592 -0.6036 -0.3887 -0.6638
12407TIP3   OH258635   6.784   3.776  15.361  0.0509  0.8611  0.1279
12407TIP3    H158636   6.852   3.841  15.377 -0.3331  0.7344  2.6236
12407TIP3    H258637   6.705   3.827  15.347  0.5869  1.0378 -3.3487
12408TIP3   OH258638   4.469   6.480  15.035  0.0389  0.1130  0.0010
12408TIP3    H158639   4.512   6.454  14.953  1.3493  0.3064  0.6025
12408TIP3    H258640   4.379   6.500  15.009 -0.7883 -3.7672 -0.7367
12409TIP3   OH258641   1.565   4.841  16.196 -0.3897 -0.3301 -0.4171
12409TIP3    H158642   1.502   4.835  16.267  0.8879  0.5113  0.8520
12409TIP3    H258643   1.650   4.844  16.240  0.4462  0.2456 -1.9918
12410TIP3   OH258644   6.776   2.053   2.724  1.0012 -0.1610  0.1538
12410TIP3    H158645   6.810   2.026   2.809 -0.8863  0.5354  1.1771
12410TIP3    H258646   6.749   2.144   2.736 -1.5338 -0.7514 -0.4236
12411TIP3   OH258647   4.346   4.179   1.487 -0.2473 -0.7313  0.4113
12411TIP3    H158648   4.307   4.196   1.402 -0.9045 -2.4217  0.3388
12411TIP3    H258649   4.380   4.264   1.516 -0.3931 -0.0554 -1.3288
12412TIP3   OH258650   3.083   2.591   6.451 -0.3661  0.1661 -0.6516
12412TIP3    H158651   2.990   2.582   6.469 -0.2014 -0.7401 -0.2212
12412TIP3    H258652   3.114   2.502   6.435  0.3113  0.5207 -1.3757
12413TIP3   OH258653   0.211   1.408   6.649  0.0430 -0.2739 -0.1846
12413TIP3    H158654   0.198   1.502   6.646  0.9878 -0.1473 -1.4187
12413TIP3    H258655   0.246   1.391   6.736  1.2315  0.7394 -0.4356
12414TIP3   OH258656   1.998   2.178  13.866  0.0129 -1.1111  0.2056
12414TIP3    H158657   1.951   2.099  13.837  1.0587 -0.9314 -2.2411
12414TIP3    H258658   1.973   2.245  13.802 -0.0299  0.2758  1.6359
12415TIP3   OH258659   6.532   0.595  12.360 -0.2563  0.3921 -0.5583
12415TIP3    H158660   6.620   0.566  12.337 -0.1619 -0.3751  0.7016
12415TIP3    H258661   6.474   0.546  12.303  0.1833  2.7439 -3.2352
12416TIP3   OH258662   4.255   0.662   5.775 -0.1075 -0.1182  0.2392
12416TIP3    H158663   4.347   0.688   5.769  0.1483 -0.9092  0.5572
12416TIP3    H258664   4.210   0.740   5.807  0.4471  0.2797  0.0730
12417TIP3   OH258665   5.434   3.899  10.873 -0.6063  0.1199 -0.2047
12417TIP3    H158666   5.416   3.993  10.879 -1.3525 -0.0272 -0.0941
12417TIP3    H258667   5.518   3.894  10.828 -0.3549  0.8558  0.1712
12418TIP3   OH258668   1.052   2.175  16.515  0.1379  0.2398  0.1731
12418TIP3    H158669   1.026   2.228  16.590  0.4281  0.7431 -0.0742
12418TIP3    H258670   1.111   2.109  16.551  0.8083  0.8857  0.2972
12419TIP3   OH258671   0.372   1.406   5.621 -0.4463 -0.2264 -0.1288
12419TIP3    H158672   0.307   1.358   5.672  0.9246 -0.5304  1.4097
12419TIP3    H258673   0.435   1.339   5.593 -0.3814  0.1712 -0.9803
12420TIP3   OH258674   6.803   3.422  16.730 -0.2467 -0.6177 -0.0781
12420TIP3    H158675   6.744   3.409  16.805 -2.0439  0.2157 -1.2720
12420TIP3    H258676   6.850   3.339  16.722  0.7500 -0.4218  2.5310
12421TIP3   OH258677   3.347   2.842  15.315 -0.3664  0.5060  0.1675
12421TIP3    H158678   3.290   2.803  15.249 -0.1050  0.6804 -0.1647
12421TIP3    H258679   3.343   2.936  15.299  0.4058  0.4907 -0.1951
12422TIP3   OH258680   1.749   1.766   5.757  0.2105  0.2436 -0.2994
12422TIP3    H158681   1.747   1.697   5.691 -0.5939 -0.9153  0.9105
12422TIP3    H258682   1.820   1.741   5.816  0.0149  0.5313  0.0623
12423TIP3   OH258683   2.321   2.981   4.254 -0.2890 -0.1317  0.1417
12423TIP3    H158684   2.228   2.963   4.262 -0.0594 -1.9865 -0.8815
12423TIP3    H258685   2.330   3.029   4.172 -0.3451  0.1828  0.3169
12424TIP3   OH258686   4.248   0.299   3.317 -0.0599  0.2407 -0.5401
12424TIP3    H158687   4.324   0.251   3.284 -0.2696  0.8273 -1.9389
12424TIP3    H258688   4.283   0.355   3.386  0.8343  0.6372 -1.2913
12425TIP3   OH258689   0.826   5.945  13.902 -0.2403 -0.3109 -0.5846
12425TIP3    H158690   0.902   5.904  13.860  0.8196  1.2042 -0.1958
12425TIP3    H258691   0.844   5.940  13.995 -0.8008 -0.2476 -0.4691
12426TIP3   OH258692   4.482   0.629   2.866 -0.2432  0.2303 -0.2616
12426TIP3    H158693   4.412   0.655   2.926  0.0354  1.5148 -0.4537
12426TIP3    H258694   4.437   0.608   2.784 -0.4701  0.3850 -0.1784
12427TIP3   OH258695   4.095   2.087  10.790  0.4853  0.0456  0.1521
12427TIP3    H158696   4.002   2.097  10.772  0.2227 -1.3826  0.5926
12427TIP3    H258697   4.134   2.169  10.762 -1.1005  1.2647  1.3243
12428TIP3   OH258698   1.942   3.004  15.134  0.4499  0.2937 -0.3012
12428TIP3    H158699   2.015   3.066  15.144 -0.4824  1.3441  0.0996
12428TIP3    H258700   1.980   2.919  15.159  2.2603  0.3022 -2.5835
12429TIP3   OH258701   4.900   6.683  11.377 -0.4018 -0.9857  0.1699
12429TIP3    H158702   4.911   6.597  11.418  1.8363  0.1732  2.2262
12429TIP3    H258703   4.892   6.744  11.450 -0.0818  0.7655 -1.1996
12430TIP3   OH258704   6.119   3.625  11.122  0.1890 -0.0721 -0.3990
12430TIP3    H158705   6.165   3.581  11.194  0.5749 -0.2775 -0.7672
12430TIP3    H258706   6.067   3.693  11.165 -0.6510 -1.0667  0.2223
12431TIP3   OH258707   6.584   4.530  16.689 -0.3357 -0.1386  0.0848
12431TIP3    H158708   6.535   4.577  16.622 -1.7030 -0.5111  0.7901
12431TIP3    H258709   6.574   4.584  16.768  0.1722 -0.3631  0.3059
12432TIP3   OH258710   0.346   1.879   1.928  0.4609 -0.3500  0.4257
12432TIP3    H158711   0.357   1.959   1.978 -2.3147  0.2658  0.1845
12432TIP3    H258712   0.366   1.903   1.837 -1.2010  0.3399  0.2175
12433TIP3   OH258713   0.518   4.922   1.186  0.1504 -0.1845  0.0600
12433TIP3    H158714   0.577   4.946   1.115  0.3122  1.6683  0.7573
12433TIP3    H258715   0.569   4.863   1.241  0.5120 -0.5021 -0.6198
12434TIP3   OH258716   0.610   6.629   0.435  0.2290  0.3115  0.9402
12434TIP3    H158717   0.550   6.660   0.367  0.9079 -0.1154  0.1240
12434TIP3    H258718   0.671   6.572   0.389  0.8744  0.2275  1.8672
12435TIP3   OH258719   1.290   0.251  11.384  0.6113  0.3522  0.2985
12435TIP3    H158720   1.207   0.226  11.424  0.6085  1.1419  0.8018
12435TIP3    H258721   1.280   0.344  11.363  0.6250 -0.0143 -1.5168
12436TIP3   OH258722   0.351   3.215  14.871 -0.2318 -0.0432  0.0729
12436TIP3    H158723   0.318   3.144  14.815 -2.3667  1.2391 -0.4045
12436TIP3    H258724   0.283   3.282  14.868  1.1234  1.5062  1.5548
12437TIP3   OH258725   4.807   2.669   4.433  0.2253  0.0232  0.4351
12437TIP3    H158726   4.842   2.659   4.345  1.0831 -1.3444  0.8950
12437TIP3    H258727   4.851   2.601   4.484 -1.0436  0.0863  1.6829
12438TIP3   OH258728   0.961   6.581   2.673  0.0055  0.6230  0.3378
12438TIP3    H158729   0.893   6.646   2.655 -1.6504 -0.8460  1.0676
12438TIP3    H258730   0.961   6.573   2.768 -1.4529 -2.0628  0.1836
12439TIP3   OH258731   5.292   2.043  16.145  0.9059 -0.1349 -0.5966
12439TIP3    H158732   5.201   2.012  16.141  1.3300 -1.5879  0.3766
12439TIP3    H258733   5.286   2.128  16.188  0.0586 -0.5036  0.0539
12440TIP3   OH258734   3.652   3.366  10.450 -0.2254  0.4801  0.2894
12440TIP3    H158735   3.614   3.312  10.380 -2.5612  2.5515 -0.2156
12440TIP3    H258736   3.598   3.347  10.526  0.5311  0.2836  0.7830
12441TIP3   OH258737   0.792   6.070   2.090 -0.2056 -0.1074  0.2866
12441TIP3    H158738   0.735   6.140   2.058 -1.3793 -1.8695 -1.7870
12441TIP3    H258739   0.835   6.036   2.011  0.2916 -1.7180  1.2015
12442TIP3   OH258740   2.492   4.831   3.734  0.1002 -0.0016  0.1250
12442TIP3    H158741   2.510   4.838   3.641 -0.4100 -0.5553 -0.0180
12442TIP3    H258742   2.509   4.739   3.755 -0.7078 -0.0969  0.3818
12443TIP3   OH258743   3.318   3.951   0.560 -0.3973  0.4507  0.3106
12443TIP3    H158744   3.247   3.900   0.522 -0.2902  0.5518 -0.0240
12443TIP3    H258745   3.297   4.042   0.537  0.6463  0.3490 -1.1175
12444TIP3   OH258746   1.072   1.094   3.414  0.6450 -0.1529  0.2248
12444TIP3    H158747   1.091   1.158   3.346  1.6087  0.3049  0.9129
12444TIP3    H258748   0.979   1.076   3.404  0.8276 -0.3470 -1.4287
12445TIP3   OH258749   1.230   4.193  13.246  0.3023  0.1202  0.5724
12445TIP3    H158750   1.187   4.236  13.320  0.8964 -0.3238  1.1856
12445TIP3    H258751   1.158   4.162  13.191 -0.1501  2.0094  0.0220
12446TIP3   OH258752   6.431   2.111   2.949 -0.7017  0.2402  0.0064
12446TIP3    H158753   6.423   2.200   2.915 -1.8343 -0.2285 -1.0120
12446TIP3    H258754   6.499   2.117   3.017  0.5889  1.5050 -1.3227
12447TIP3   OH258755   0.758   1.111  15.442  0.8151  0.0187 -0.0924
12447TIP3    H158756   0.701   1.050  15.395 -0.5884  0.6084  0.8028
12447TIP3    H258757   0.839   1.110  15.391  0.3581 -1.5420 -0.8734
12448TIP3   OH258758   4.376   0.331   4.951 -0.1370  0.7611  0.3768
12448TIP3    H158759   4.290   0.372   4.953 -0.7519 -0.5091  1.1914
12448TIP3    H258760   4.419   0.370   4.875 -2.0163  0.3030 -0.9972
12449TIP3   OH258761   1.028   4.439   1.265 -0.4706 -0.7452 -0.3611
12449TIP3    H158762   1.028   4.403   1.353  0.4816 -1.0132 -0.4679
12449TIP3    H258763   1.107   4.492   1.259 -1.0399  0.0920 -0.7319
12450TIP3   OH258764   2.347   0.680  13.365  0.2753 -0.1097 -0.1759
12450TIP3    H158765   2.290   0.757  13.365  0.8820  0.3696 -1.8089
12450TIP3    H258766   2.338   0.644  13.453  0.5499  2.2560  0.9012
12451TIP3   OH258767   6.192   6.381  15.673  0.6654  0.0541 -0.1284
12451TIP3    H158768   6.268   6.325  15.659 -0.0416 -0.6036 -1.6076
12451TIP3    H258769   6.163   6.360  15.762  0.2619 -2.2082 -0.7206
12452TIP3   OH258770   1.252   6.641  15.389  0.0393 -0.0879  0.1369
12452TIP3    H158771   1.268   6.547  15.388  0.0327 -0.1042 -1.5450
12452TIP3    H258772   1.318   6.677  15.329  0.8390  1.1390  1.6854
12453TIP3   OH258773   4.979   2.703   4.688 -0.5505  0.0988  0.4446
12453TIP3    H158774   4.971   2.636   4.621 -0.0371  1.1746 -0.7260
12453TIP3    H258775   5.063   2.685   4.730 -0.1711  0.3156 -0.2159
12454TIP3   OH258776   5.913   3.089   1.237  0.1915  0.0528  0.2783
12454TIP3    H158777   5.954   3.110   1.153 -0.2526 -0.4461 -0.0664
12454TIP3    H258778   5.829   3.051   1.214  0.7716 -1.7026  0.8976
12455TIP3   OH258779   1.749   4.473   5.464  0.4483 -0.2136 -0.2895
12455TIP3    H158780   1.682   4.541   5.453  1.4779  0.5352 -2.5048
12455TIP3    H258781   1.699   4.392   5.475 -0.8026  0.6168  0.3857
12456TIP3   OH258782   6.039   4.112  11.684  0.4504 -0.0503  0.6299
12456TIP3    H158783   6.004   4.192  11.722  2.0959  1.0990 -0.1447
12456TIP3    H258784   6.117   4.092  11.736  1.8271  0.6600 -1.0482
12457TIP3   OH258785   0.705   6.739   2.636 -0.0512  0.1120  0.0559
12457TIP3    H158786   0.677   6.703   2.552 -1.7725  1.3561  0.0268
12457TIP3    H258787   0.689   6.833   2.628 -0.5121  0.2375  1.8564
12458TIP3   OH258788   5.270   2.535  13.086  0.2294  0.8699  0.3201
12458TIP3    H158789   5.277   2.562  12.994 -2.2067 -0.5756 -0.4005
12458TIP3    H258790   5.181   2.558  13.111  0.3988 -0.0136  1.8878
12459TIP3   OH258791   6.576   1.932  15.909 -0.5556 -0.1473  0.3301
12459TIP3    H158792   6.580   1.858  15.848 -0.3961 -0.3250  0.5544
12459TIP3    H258793   6.484   1.957  15.911 -0.5011  0.1474 -0.3281
12460TIP3   OH258794   1.809   4.992  14.114 -0.2628  0.4111 -0.3801
12460TIP3    H158795   1.868   4.934  14.066 -0.3904 -0.8729  0.9482
12460TIP3    H258796   1.723   4.974  14.075 -0.3513 -0.5482  0.2300
12461TIP3   OH258797   1.586   4.233  12.592 -0.0690  0.4881 -0.0053
12461TIP3    H158798   1.553   4.151  12.628  0.0605  0.3546 -0.1909
12461TIP3    H258799   1.561   4.299  12.657  0.8041  0.1476  0.7065
12462TIP3   OH258800   5.795   3.785   3.288  0.3393 -0.0269  0.1416
12462TIP3    H158801   5.771   3.693   3.278  0.0201  0.1784 -1.2624
12462TIP3    H258802   5.888   3.784   3.308  0.0898 -0.6822  1.3657
12463TIP3   OH258803   3.924   4.011  11.400 -0.1396  0.0662 -0.3705
12463TIP3    H158804   3.949   4.012  11.308 -2.1895 -0.4549 -1.0056
12463TIP3    H258805   3.849   4.070  11.405  0.5934  0.9160  1.2071
12464TIP3   OH258806   4.870   1.133   1.086  0.0816 -0.0770 -0.5858
12464TIP3    H158807   4.800   1.161   1.145  0.4961  1.6777 -0.8697
12464TIP3    H258808   4.941   1.194   1.102  1.2586 -1.3092 -0.9233
12465TIP3   OH258809   3.440   1.420   4.988  0.3036  0.3042 -0.4870
12465TIP3    H158810   3.466   1.512   4.990 -0.4629  0.5288 -0.5157
12465TIP3    H258811   3.479   1.383   5.067  1.0540  0.5287 -0.7435
12466TIP3   OH258812   3.129   0.351   0.237 -0.2172  0.1588 -0.0861
12466TIP3    H158813   3.165   0.350   0.326 -1.3742 -0.9210  0.3959
12466TIP3    H258814   3.050   0.404   0.244 -0.2740  0.1275 -0.5055
12467TIP3   OH258815   0.767   5.454   4.897  0.0456 -0.0440 -0.6600
12467TIP3    H158816   0.825   5.497   4.834 -0.6163 -0.1504 -1.3586
12467TIP3    H258817   0.805   5.367   4.908 -0.0053 -0.1339 -1.1603
12468TIP3   OH258818   0.521   1.703   4.294 -0.9008  0.2448  0.3695
12468TIP3    H158819   0.477   1.744   4.220 -1.1944  1.4383  1.1636
12468TIP3    H258820   0.602   1.753   4.304 -1.3513  0.7845  1.4743
12469TIP3   OH258821   6.403   1.397   1.818  0.7593  0.0511 -0.7089
12469TIP3    H158822   6.359   1.408   1.734  0.0774  0.4330 -0.3063
12469TIP3    H258823   6.474   1.461   1.816 -0.4531  1.4673 -0.2069
12470TIP3   OH258824   4.091   0.714   3.281 -0.9901  0.2263 -0.1581
12470TIP3    H158825   4.162   0.675   3.231  0.1599  0.4737  1.2397
12470TIP3    H258826   4.063   0.645   3.342 -0.7528  0.6876  0.4868
12471TIP3   OH258827   3.329   0.491   5.811 -0.2334 -0.1422 -0.1033
12471TIP3    H158828   3.247   0.448   5.789 -1.1297  0.0829  2.4944
12471TIP3    H258829   3.339   0.479   5.905  3.4555 -1.3475 -0.4866
12472TIP3   OH258830   3.781   1.772   0.600 -0.1818  0.7488 -0.3154
12472TIP3    H158831   3.712   1.817   0.552 -0.9713 -0.8935 -0.8012
12472TIP3    H258832   3.740   1.743   0.681 -0.2928 -0.8124 -0.8973
12473TIP3   OH258833   1.030   0.617   5.308 -0.0607 -0.3595 -0.0386
12473TIP3    H158834   0.973   0.665   5.368 -0.1490 -1.4588  0.7860
12473TIP3    H258835   1.056   0.539   5.357  1.1264 -0.5104 -0.8697
12474TIP3   OH258836   0.539   6.018  13.946 -0.0658 -0.5251  0.7711
12474TIP3    H158837   0.531   5.948  14.010  0.4586 -0.8212  0.5099
12474TIP3    H258838   0.482   6.088  13.980 -0.8719 -1.2015  0.8459
12475TIP3   OH258839   1.307   3.181  13.389 -0.4731  0.2888 -0.2864
12475TIP3    H158840   1.214   3.184  13.367  0.0150  2.2770 -2.4216
12475TIP3    H258841   1.321   3.259  13.443 -0.4217 -1.2656  2.1092
12476TIP3   OH258842   5.248   2.777  16.856 -0.2946  0.0769  0.0591
12476TIP3    H158843   5.173   2.720  16.841  1.7950 -2.7983 -0.5483
12476TIP3    H258844   5.286   2.746  16.938 -0.6489  2.6017  1.2534
12477TIP3   OH258845   5.742   1.260  13.725 -0.3108 -0.2481 -0.0149
12477TIP3    H158846   5.800   1.191  13.758  0.2532  1.1091  2.0453
12477TIP3    H258847   5.781   1.286  13.641  0.5355 -1.1649  0.0769
12478TIP3   OH258848   1.388   0.483   1.949 -0.7249  0.1742  0.2185
12478TIP3    H158849   1.434   0.401   1.968 -1.8260 -0.1963  1.4487
12478TIP3    H258850   1.324   0.491   2.019 -1.4776  1.4712 -0.5771
12479TIP3   OH258851   2.202   1.282  11.999  0.0665  0.1365  0.6424
12479TIP3    H158852   2.175   1.242  12.081 -0.5809  0.8324  0.7806
12479TIP3    H258853   2.161   1.369  11.999 -0.6620 -0.1725 -0.7989
12480TIP3   OH258854   3.615   6.195  14.934  0.1293 -0.5983  0.3782
12480TIP3    H158855   3.640   6.119  14.988  1.8032 -1.3146 -1.2902
12480TIP3    H258856   3.593   6.157  14.849 -1.3768  0.6118  0.1873
12481TIP3   OH258857   3.690   4.901   2.137 -0.4232  0.3416  0.5748
12481TIP3    H158858   3.742   4.821   2.141 -1.7068 -0.5505  0.0708
12481TIP3    H258859   3.615   4.884   2.194 -1.6753  0.4266 -0.9875
12482TIP3   OH258860   5.776   1.315   1.341  0.4289 -0.7668  0.2079
12482TIP3    H158861   5.831   1.366   1.400 -0.2252 -1.3053  1.3324
12482TIP3    H258862   5.786   1.357   1.256  2.6993 -0.9491  0.3236
12483TIP3   OH258863   0.557   6.624   3.117 -0.0714  1.0769  0.0533
12483TIP3    H158864   0.600   6.663   3.193  1.1814 -0.1653  0.0328
12483TIP3    H258865   0.606   6.658   3.042  1.3283 -0.7492  0.0549
12484TIP3   OH258866   5.441   3.926  15.429 -0.1075  0.2965  0.1528
12484TIP3    H158867   5.497   4.004  15.426  2.2338 -1.0315  3.1737
12484TIP3    H258868   5.355   3.956  15.400  1.6222  2.9457 -2.8478
12485TIP3   OH258869   3.001   0.174  15.499 -0.4298 -0.4906  0.3620
12485TIP3    H158870   3.095   0.154  15.501 -0.2963 -0.1359 -1.0777
12485TIP3    H258871   2.958   0.091  15.516  0.1373 -0.6334  1.1573
12486TIP3   OH258872   4.172   3.867  14.028 -0.6525  0.0673 -0.3880
12486TIP3    H158873   4.131   3.861  14.114 -2.5281 -0.3658 -1.2661
12486TIP3    H258874   4.204   3.779  14.009 -1.0211 -0.0405 -0.5049
12487TIP3   OH258875   3.990   5.426  10.748 -0.6448  0.1592  0.3184
12487TIP3    H158876   3.978   5.369  10.824  1.5244 -0.8691 -0.0592
12487TIP3    H258877   3.978   5.369  10.673  1.4247  0.1490 -0.0656
12488TIP3   OH258878   4.478   4.345   4.292 -0.2144 -0.4802 -0.2917
12488TIP3    H158879   4.430   4.285   4.236 -2.7835  0.9436  0.2114
12488TIP3    H258880   4.485   4.426   4.240  0.6150 -0.2778  0.1102
12489TIP3   OH258881   5.336   6.769  15.460 -0.0111  0.0566 -0.1233
12489TIP3    H158882   5.426   6.800  15.450 -0.6571  1.3409 -3.1630
12489TIP3    H258883   5.291   6.841  15.503 -0.0489  0.4239 -0.7629
12490TIP3   OH258884   5.258   3.523   0.186 -0.2083  0.1547 -0.4272
12490TIP3    H158885   5.223   3.552   0.270  0.5719  0.2394 -0.1248
12490TIP3    H258886   5.343   3.567   0.178  0.0653 -0.4400 -0.9088
12491TIP3   OH258887   5.426   1.673  15.753  0.1454 -0.1201  0.1502
12491TIP3    H158888   5.430   1.678  15.658  0.3781 -0.4725  0.1392
12491TIP3    H258889   5.358   1.735  15.778 -0.3344 -0.4586 -0.2888
12492TIP3   OH258890   0.331   3.777   0.564 -0.6055  0.5533 -0.3456
12492TIP3    H158891   0.244   3.742   0.549 -0.6115  1.0620 -1.5774
12492TIP3    H258892   0.390   3.704   0.547 -0.8114 -0.1021  1.5490
12493TIP3   OH258893   1.276   1.795  16.435 -0.3883  0.1564 -0.2208
12493TIP3    H158894   1.192   1.753  16.418  0.2886 -1.6048  0.4893
12493TIP3    H258895   1.339   1.739  16.389  0.5369  0.5961  0.4889
12494TIP3   OH258896   2.979   6.217   0.835  0.0686  0.0039  0.2538
12494TIP3    H158897   2.998   6.164   0.758  0.5148 -2.0646  1.7140
12494TIP3    H258898   2.931   6.159   0.893  0.9303  1.0599  2.1037
12495TIP3   OH258899   4.128   4.256  15.880  0.9631 -0.1958  0.2528
12495TIP3    H158900   4.109   4.195  15.809 -0.0275  0.8374 -0.4019
12495TIP3    H258901   4.195   4.314  15.845 -0.1922  0.8966 -0.2024
12496TIP3   OH258902   2.427   3.930   3.457  0.1521  0.3388  0.2173
12496TIP3    H158903   2.444   4.022   3.436  0.0309  0.3013 -0.0434
12496TIP3    H258904   2.382   3.932   3.542  2.7229  0.3789  1.6800
12497TIP3   OH258905   0.941   5.180  12.114 -0.2257 -0.0418 -0.1694
12497TIP3    H158906   1.014   5.243  12.114 -0.0430 -0.2459  0.8091
12497TIP3    H258907   0.873   5.222  12.165  0.1231 -0.8795  1.0203
12498TIP3   OH258908   6.669   4.072   1.472 -0.3634  0.2856 -0.1661
12498TIP3    H158909   6.700   4.157   1.443  0.3818  1.3511  3.2856
12498TIP3    H258910   6.574   4.082   1.478 -0.4202  0.3744 -1.0457
12499TIP3   OH258911   1.936   6.040  15.862  0.0717 -0.1013 -0.2614
12499TIP3    H158912   1.921   5.950  15.831  2.9749 -0.7038 -0.1841
12499TIP3    H258913   2.013   6.069  15.814  2.2966  0.4482  3.3208
12500TIP3   OH258914   5.447   3.347   0.480 -0.0581 -0.2943  0.4915
12500TIP3    H158915   5.442   3.443   0.477  0.3180 -0.2951 -0.3412
12500TIP3    H258916   5.460   3.327   0.573 -1.0389  0.4077  0.7984
12501TIP3   OH258917   4.451   4.563  16.706  0.5138 -0.0410 -0.6779
12501TIP3    H158918   4.416   4.649  16.731  0.1368 -0.8053  1.6390
12501TIP3    H258919   4.508   4.582  16.632  0.9894  2.3315  0.1977
12502TIP3   OH258920   0.323   4.780  16.259 -0.4656 -0.4908  0.3571
12502TIP3    H158921   0.387   4.775  16.330  3.7967  2.2917 -2.7213
12502TIP3    H258922   0.279   4.864  16.272  0.3308  0.0292 -0.1964
12503TIP3   OH258923   5.379   3.478  10.907 -0.2220  0.5316 -0.1210
12503TIP3    H158924   5.323   3.406  10.877  0.5449  0.3111 -1.0889
12503TIP3    H258925   5.324   3.556  10.900 -1.5631 -0.0846  2.3538
12504TIP3   OH258926   1.791   1.353   4.306 -0.2182  0.1485 -0.2629
12504TIP3    H158927   1.831   1.285   4.360  1.2416  1.2308  0.0756
12504TIP3    H258928   1.844   1.354   4.225 -0.0051  1.0744 -0.1306
12505TIP3   OH258929   5.352   6.168  14.994  0.0235  0.1872  0.4093
12505TIP3    H158930   5.419   6.149  14.929 -0.7977  1.9586 -1.0402
12505TIP3    H258931   5.301   6.087  15.001  0.6320 -0.2949 -0.5291
12506TIP3   OH258932   4.254   3.785   5.475 -0.1773 -0.4844 -0.1244
12506TIP3    H158933   4.327   3.752   5.527 -0.3164 -0.1909  0.2597
12506TIP3    H258934   4.178   3.735   5.504 -0.5976  0.8224  1.1971
12507TIP3   OH258935   4.651   0.909   3.890  0.3293  0.1402  0.5644
12507TIP3    H158936   4.649   0.881   3.981 -0.3520 -0.3869  0.4011
12507TIP3    H258937   4.574   0.966   3.880  0.9044  0.9372  0.5353
12508TIP3   OH258938   5.845   6.395  13.938  0.8068  0.0223 -1.0356
12508TIP3    H158939   5.838   6.447  13.858 -0.2072 -1.7969 -2.1835
12508TIP3    H258940   5.785   6.322  13.925 -0.6292  0.4518  2.0309
12509TIP3   OH258941   2.620   4.405  13.526  0.0752 -0.2737  0.5081
12509TIP3    H158942   2.659   4.402  13.438 -0.3482  1.4962  0.2108
12509TIP3    H258943   2.553   4.473  13.520  0.8598  0.7581  2.5037
12510TIP3   OH258944   6.332   6.586   0.397 -0.0072 -0.0351  0.2525
12510TIP3    H158945   6.247   6.556   0.430 -0.2168 -0.7821 -0.8999
12510TIP3    H258946   6.368   6.638   0.468 -2.3429  2.0600  0.0608
12511TIP3   OH258947   1.554   4.252  16.362 -0.3482 -0.3356  0.2690
12511TIP3    H158948   1.576   4.314  16.432  0.3236 -0.1887 -0.0699
12511TIP3    H258949   1.586   4.168  16.394  0.8720 -0.0966 -0.2888
12512TIP3   OH258950   3.219   2.908   1.368 -0.5474 -0.3834  0.0081
12512TIP3    H158951   3.160   2.908   1.443  0.4278 -0.6362  0.8052
12512TIP3    H258952   3.285   2.841   1.390  0.0667 -0.0672 -0.8194
12513TIP3   OH258953   2.924   3.722  15.252  0.3038  0.8657 -0.2736
12513TIP3    H158954   2.884   3.635  15.259 -0.9132  1.5611  2.2736
12513TIP3    H258955   3.016   3.703  15.232  0.1901 -1.0471  0.7137
12514TIP3   OH258956   1.471   2.975   0.682  0.3692 -0.3782  0.2012
12514TIP3    H158957   1.463   2.884   0.712 -1.5486 -0.5878 -0.7735
12514TIP3    H258958   1.411   2.981   0.608  1.4314  1.3712 -0.5757
12515TIP3   OH258959   1.056   2.768  13.712 -0.9463  0.1722 -0.1202
12515TIP3    H158960   1.087   2.745  13.799 -0.2249  1.9520  0.1426
12515TIP3    H258961   1.026   2.685  13.674 -0.5179 -0.7657  1.5003
12516TIP3   OH258962   4.002   6.489  11.523 -0.1326 -0.7855 -0.1448
12516TIP3    H158963   4.054   6.449  11.453 -0.7009 -1.4523 -0.1937
12516TIP3    H258964   3.911   6.476  11.495 -0.3626 -1.0603  0.7189
12517TIP3   OH258965   4.535   3.327   0.850  0.3194  0.1497 -0.2069
12517TIP3    H158966   4.571   3.316   0.938 -0.8103  0.0028  0.2629
12517TIP3    H258967   4.565   3.413   0.822 -0.6996  0.9482  1.0363
12518TIP3   OH258968   0.882   6.616   3.570 -0.0380 -0.0135  0.0314
12518TIP3    H158969   0.960   6.671   3.566  0.7845 -1.0528  0.9863
12518TIP3    H258970   0.901   6.553   3.640 -1.1369 -1.1874 -0.6843
12519TIP3   OH258971   4.367   5.230  13.910 -0.7346 -0.3122  0.4258
12519TIP3    H158972   4.344   5.291  13.840 -2.1085 -1.0188  0.2349
12519TIP3    H258973   4.458   5.205  13.892 -0.8630  0.0262 -0.7211
12520TIP3   OH258974   1.032   3.961   4.515 -0.0536 -0.1597  0.1670
12520TIP3    H158975   0.978   4.030   4.553 -1.7963 -1.1897 -0.3380
12520TIP3    H258976   0.997   3.880   4.552  2.7356 -0.7951  1.7196
12521TIP3   OH258977   3.244   5.075  13.120 -0.4935 -0.3976 -0.5972
12521TIP3    H158978   3.206   5.130  13.052 -0.4505 -1.1619 -1.2602
12521TIP3    H258979   3.334   5.060  13.092 -0.7265 -1.4365 -0.8522
12522TIP3   OH258980   2.662   6.394   2.281  0.1090 -0.2355 -0.1796
12522TIP3    H158981   2.700   6.330   2.342  1.2841  1.6117  1.1097
12522TIP3    H258982   2.590   6.433   2.331  1.6827  1.9771  0.4931
12523TIP3   OH258983   6.198   0.449   4.049  0.1276 -0.0608  0.4297
12523TIP3    H158984   6.266   0.387   4.024 -0.4604 -1.3256  1.7917
12523TIP3    H258985   6.147   0.463   3.969  0.6387 -0.8640 -0.0494
12524TIP3   OH258986   5.970   5.268  12.059  0.1814 -0.6618 -0.3519
12524TIP3    H158987   5.981   5.186  12.013  0.1630 -1.1603  0.5143
12524TIP3    H258988   5.912   5.247  12.132  0.1075  0.1352 -0.1683
12525TIP3   OH258989   3.130   3.597  14.287  0.6964  0.6952  0.0034
12525TIP3    H158990   3.202   3.639  14.240  2.2795 -2.3828 -0.5355
12525TIP3    H258991   3.060   3.588  14.221  1.9227 -1.2092 -1.1261
12526TIP3   OH258992   1.550   1.330   1.193 -0.4512 -0.4561  0.3097
12526TIP3    H158993   1.611   1.379   1.249 -0.6223 -2.3330  2.2710
12526TIP3    H258994   1.588   1.337   1.105  2.6763 -1.5085  1.4071
12527TIP3   OH258995   4.636   0.104  13.281  0.0505 -0.0216  0.4278
12527TIP3    H158996   4.595   0.050  13.214  0.6533  0.1877 -0.1174
12527TIP3    H258997   4.609   0.194  13.259 -0.2341 -0.0116  0.8137
12528TIP3   OH258998   1.860   2.064   0.161  0.1280  0.2801 -0.9842
12528TIP3    H158999   1.915   2.041   0.087  0.9807  0.2500 -0.3562
12528TIP3    H259000   1.903   2.025   0.237  0.2940  1.8259 -0.2222
12529TIP3   OH259001   0.732   3.033   1.032  0.5140  0.0534  0.0873
12529TIP3    H159002   0.695   3.085   0.961 -1.0148  0.6251  1.2647
12529TIP3    H259003   0.813   3.079   1.056  0.4801  0.4506 -0.5544
12530TIP3   OH259004   5.633   0.411  14.242 -0.5635  0.0760 -0.1797
12530TIP3    H159005   5.689   0.358  14.299 -1.2249  1.3320  1.7336
12530TIP3    H259006   5.633   0.498  14.283 -0.5807  1.2292 -2.4645
12531TIP3   OH259007   5.396   2.248  13.848  0.8491 -0.6311  0.0485
12531TIP3    H159008   5.336   2.240  13.922 -0.6047  0.6548 -0.9097
12531TIP3    H259009   5.425   2.159  13.830  1.0087 -0.9952  1.9569
12532TIP3   OH259010   0.960   1.970   3.102 -0.2253  0.5883  0.3724
12532TIP3    H159011   1.037   2.028   3.104 -0.6889  1.2915 -0.9367
12532TIP3    H259012   0.921   1.985   3.016 -2.7959  1.5415  1.5825
12533TIP3   OH259013   4.219   2.951   1.924  0.2766  0.0687  0.0965
12533TIP3    H159014   4.284   2.999   1.975  0.7701 -0.4892  0.0185
12533TIP3    H259015   4.265   2.931   1.842  0.0253 -0.3710  0.0598
12534TIP3   OH259016   0.679   0.487   0.596 -0.1564  0.0170 -0.3911
12534TIP3    H159017   0.741   0.442   0.539  0.8044 -1.5614  1.7414
12534TIP3    H259018   0.599   0.435   0.591 -0.2526  0.1981 -0.7212
12535TIP3   OH259019   4.256   2.362  12.211  0.3713  0.2942 -0.4461
12535TIP3    H159020   4.255   2.450  12.173  1.6058  0.3929 -0.3178
12535TIP3    H259021   4.229   2.376  12.302 -2.5393  0.0626 -1.1987
12536TIP3   OH259022   5.427   2.418  15.009 -0.5844  0.3103 -0.0309
12536TIP3    H159023   5.460   2.485  14.949  0.5739 -0.7720 -0.6376
12536TIP3    H259024   5.504   2.388  15.057 -1.3415  0.4893  1.3524
12537TIP3   OH259025   1.939   1.451  15.372 -0.2412  0.1670  0.1073
12537TIP3    H159026   1.986   1.380  15.328  0.5041  0.8563 -0.2312
12537TIP3    H259027   1.999   1.525  15.368 -0.4338  0.4438  1.6807
12538TIP3   OH259028   4.859   6.252   4.285  0.8864 -0.7578  0.1188
12538TIP3    H159029   4.825   6.341   4.286  0.7114 -0.8057 -0.6437
12538TIP3    H259030   4.837   6.216   4.371 -3.0262 -1.5272 -1.0132
12539TIP3   OH259031   0.341   0.327  13.689  0.1001 -0.0069 -0.3769
12539TIP3    H159032   0.432   0.350  13.707  0.4248  0.6780 -2.5793
12539TIP3    H259033   0.305   0.404  13.645 -1.7587 -0.0192  0.9984
12540TIP3   OH259034   1.047   5.496  16.616  0.2028 -0.1022 -0.2275
12540TIP3    H159035   0.969   5.453  16.582 -1.2086  1.8643  0.3393
12540TIP3    H259036   1.117   5.472  16.555 -1.6781  1.2849 -3.1268
12541TIP3   OH259037   1.928   4.923   3.618 -0.0253  0.3463 -0.0863
12541TIP3    H159038   2.004   4.871   3.592 -0.1521  1.1117 -2.2676
12541TIP3    H259039   1.943   4.944   3.710  0.7189 -2.2705  0.4681
12542TIP3   OH259040   4.508   5.542  14.778 -0.4605  0.3570  0.3048
12542TIP3    H159041   4.548   5.574  14.859 -1.7171  0.8467  0.7606
12542TIP3    H259042   4.467   5.620  14.740 -0.0698  0.0832 -0.6910
12543TIP3   OH259043   6.553   1.005  16.558 -0.0164 -0.2036  0.0661
12543TIP3    H159044   6.608   0.928  16.576 -1.1394 -1.0383  0.0161
12543TIP3    H259045   6.517   1.028  16.644 -0.1117 -0.0604 -0.0147
12544TIP3   OH259046   1.067   5.387   6.335 -0.1394 -0.4543  0.4726
12544TIP3    H159047   1.057   5.482   6.332 -1.7229 -0.5549  1.3053
12544TIP3    H259048   1.007   5.354   6.268  2.6722 -0.8262 -2.0545
12545TIP3   OH259049   6.668   6.398  13.943  0.1898 -0.4893  0.1438
12545TIP3    H159050   6.652   6.492  13.934  1.2229 -0.1490  1.4513
12545TIP3    H259051   6.587   6.363  13.979  0.3649  0.2317  1.3233
12546TIP3   OH259052   6.067   2.238  16.187 -0.1782  0.0021 -0.2339
12546TIP3    H159053   6.129   2.304  16.157  1.0822 -1.0699 -0.0783
12546TIP3    H259054   6.120   2.159  16.199 -1.4387 -0.7489  0.6360
12547TIP3   OH259055   5.409   1.458  11.534 -0.0398 -0.4411  0.2047
12547TIP3    H159056   5.344   1.524  11.559 -0.3418 -0.4197 -0.6085
12547TIP3    H259057   5.460   1.499  11.465 -1.2123 -1.5549 -1.4080
12548TIP3   OH259058   1.809   5.397  14.604 -0.3528 -0.2887 -0.5683
12548TIP3    H159059   1.842   5.424  14.518  0.9777  1.1257  0.3309
12548TIP3    H259060   1.766   5.475  14.639  1.7918  0.1943  1.2585
12549TIP3   OH259061   1.610   1.466  12.751 -0.2772 -0.1521  0.6794
12549TIP3    H159062   1.643   1.424  12.831 -1.4988 -1.9198  0.2943
12549TIP3    H259063   1.525   1.503  12.777 -0.6498 -0.6789  0.2217
12550TIP3   OH259064   6.609   2.896  11.046 -0.2844 -0.0050 -0.5785
12550TIP3    H159065   6.574   2.954  11.114 -1.5447  1.9059 -2.7129
12550TIP3    H259066   6.668   2.951  10.995 -1.5509 -0.4741 -2.6975
12551TIP3   OH259067   6.389   2.576  12.675  0.6515 -0.3038 -0.5105
12551TIP3    H159068   6.339   2.550  12.751  0.9628  0.3621 -0.0664
12551TIP3    H259069   6.346   2.656  12.644  0.6784 -0.4287 -0.8726
12552TIP3   OH259070   0.366   3.980   1.186  0.0657 -0.1891  0.6353
12552TIP3    H159071   0.440   4.025   1.144 -0.5645  1.0947  0.8549
12552TIP3    H259072   0.371   3.890   1.153  0.0055  0.5924 -1.6877
12553TIP3   OH259073   2.908   4.612   4.204 -0.5056 -0.2250 -0.5965
12553TIP3    H159074   2.986   4.667   4.207  0.1482 -1.1741  0.6695
12553TIP3    H259075   2.835   4.674   4.209  0.2138  0.5390  1.1435
12554TIP3   OH259076   6.327   1.982  10.694  0.7689 -0.1281 -0.2904
12554TIP3    H159077   6.276   2.017  10.766  1.1368 -0.9362  0.3894
12554TIP3    H259078   6.304   2.036  10.618  0.6772  0.9919  0.5162
12555TIP3   OH259079   4.176   1.013   0.308 -0.0418 -0.6533  0.4634
12555TIP3    H159080   4.242   1.081   0.293  0.9703 -1.7096 -0.0245
12555TIP3    H259081   4.180   0.958   0.230 -1.3344 -0.8883  0.5392
12556TIP3   OH259082   5.349   4.011  13.459 -0.0064 -0.0646 -0.3070
12556TIP3    H159083   5.377   4.048  13.543 -0.6275  0.3190 -0.2531
12556TIP3    H259084   5.384   4.071  13.394 -0.9152  0.5790 -0.2247
12557TIP3   OH259085   5.148   4.389   2.632  0.4547  0.0310  0.3565
12557TIP3    H159086   5.109   4.401   2.718 -2.2071 -0.0995 -0.7324
12557TIP3    H259087   5.195   4.471   2.615 -1.2167  1.1501  0.8847
12558TIP3   OH259088   4.537   2.908  10.770 -0.3513  0.2030 -0.2428
12558TIP3    H159089   4.469   2.930  10.706 -0.7463  2.2300  0.7835
12558TIP3    H259090   4.586   2.836  10.730 -0.7944  1.1576 -2.6620
12559TIP3   OH259091   2.113   5.311   6.003  0.7253 -0.5708 -0.7796
12559TIP3    H159092   2.106   5.277   6.093  0.8114 -0.6679 -0.8102
12559TIP3    H259093   2.173   5.385   6.010 -0.3671  0.3293 -0.5003
12560TIP3   OH259094   4.264   5.044   3.990 -0.1052  0.4615 -0.2356
12560TIP3    H159095   4.279   5.133   4.023  0.6802  0.3537 -0.2839
12560TIP3    H259096   4.194   5.054   3.926  0.7409  1.2424 -1.0690
12561TIP3   OH259097   1.322   3.423  13.497 -0.0319 -0.3081 -0.0080
12561TIP3    H159098   1.306   3.491  13.563 -1.8526  0.4053 -1.0992
12561TIP3    H259099   1.367   3.469  13.425  3.2386 -1.3682  1.1847
12562TIP3   OH259100   0.098   1.632  15.831 -0.6093 -0.1381  0.0663
12562TIP3    H159101   0.180   1.618  15.879 -0.5335  1.5130  0.4727
12562TIP3    H259102   0.042   1.559  15.856  1.4275 -2.5545 -1.8537
12563TIP3   OH259103   0.239   4.595   4.086 -0.4043  0.4385 -0.5336
12563TIP3    H159104   0.153   4.568   4.119  0.1504 -0.8577 -0.0978
12563TIP3    H259105   0.252   4.542   4.007 -0.0370  0.6759 -0.6355
12564TIP3   OH259106   4.027   0.653  15.713 -0.4201  0.1546  0.1908
12564TIP3    H159107   3.959   0.627  15.651 -0.3195  1.2043 -0.3740
12564TIP3    H259108   4.001   0.740  15.742 -0.1287 -0.0610  1.1580
12565TIP3   OH259109   3.384   1.167  13.073 -0.1234  0.2050 -0.2885
12565TIP3    H159110   3.439   1.143  12.998  0.1201  1.3379 -0.4926
12565TIP3    H259111   3.435   1.231  13.121  0.4324 -1.7316  1.8396
12566TIP3   OH259112   5.201   2.513  16.554  0.2850 -0.1072  0.3219
12566TIP3    H159113   5.157   2.429  16.542  1.0881 -1.0229  3.1274
12566TIP3    H259114   5.287   2.501  16.515 -0.0523 -0.1020 -0.4531
12567TIP3   OH259115   1.918   6.479  13.795 -0.1967 -0.2571  0.3714
12567TIP3    H159116   1.893   6.552  13.852  0.6767  1.1179 -0.9281
12567TIP3    H259117   1.997   6.510  13.750  0.0222 -1.9004 -0.4617
12568TIP3   OH259118   0.019   2.006   1.804  0.0345  0.0394  0.5413
12568TIP3    H159119   0.056   1.939   1.862  0.9345 -0.9300 -1.0785
12568TIP3    H259120   0.022   1.966   1.717 -2.3441  0.9970 -0.0612
12569TIP3   OH259121   5.027   0.438   0.267  0.0290  0.3131 -0.2114
12569TIP3    H159122   5.036   0.358   0.216 -0.0188  0.1085  0.1036
12569TIP3    H259123   5.019   0.409   0.357  0.4990  0.6922 -0.0398
12570TIP3   OH259124   3.186   4.063  14.752 -0.2613 -0.0761 -0.0254
12570TIP3    H159125   3.196   4.157  14.766  0.2030 -0.1353  0.0393
12570TIP3    H259126   3.234   4.022  14.824 -0.8967 -0.3639  0.2413
12571TIP3   OH259127   0.540   2.716   6.231 -0.1586 -0.4402 -0.6544
12571TIP3    H159128   0.533   2.687   6.140 -0.8587  1.6903 -1.3328
12571TIP3    H259129   0.633   2.705   6.253  0.7104  1.9062 -2.7182
12572TIP3   OH259130   3.174   5.824  12.448  0.3401  0.0289  1.2062
12572TIP3    H159131   3.257   5.861  12.478  1.3011  0.0065 -1.1649
12572TIP3    H259132   3.134   5.894  12.396 -0.3592 -0.4993  1.0197
12573TIP3   OH259133   2.675   4.172  12.557 -0.4704  0.6817 -0.3893
12573TIP3    H159134   2.634   4.214  12.482  0.9148  0.6802 -1.1824
12573TIP3    H259135   2.621   4.095  12.575 -1.4790  1.3134 -0.6309
12574TIP3   OH259136   4.679   6.324  13.796 -0.3437  0.0491  0.1878
12574TIP3    H159137   4.623   6.397  13.825 -0.5165 -0.4302  1.1027
12574TIP3    H259138   4.618   6.254  13.773 -0.1485 -0.7578  1.9482
12575TIP3   OH259139   1.048   1.756   1.478 -0.6031 -0.1761  0.0924
12575TIP3    H159140   1.021   1.692   1.412  0.2709  0.6538 -1.1104
12575TIP3    H259141   1.142   1.743   1.487 -0.5468  0.4230  0.4027
12576TIP3   OH259142   3.850   3.649  16.480  0.3114  0.4273 -0.0986
12576TIP3    H159143   3.825   3.557  16.485 -1.6403  0.9394  0.4612
12576TIP3    H259144   3.941   3.651  16.512 -0.9021 -0.8231  4.1139
12577TIP3   OH259145   5.321   4.252  14.215 -0.1866  0.2781 -0.3294
12577TIP3    H159146   5.343   4.164  14.245 -0.1543  0.2882 -0.3233
12577TIP3    H259147   5.379   4.268  14.141 -0.3519  0.2040 -0.4755
12578TIP3   OH259148   4.794   3.612   5.677 -0.3128 -0.5431  0.2573
12578TIP3    H159149   4.844   3.655   5.746 -0.2806 -1.1320  0.6039
12578TIP3    H259150   4.784   3.679   5.610  2.2132 -0.7815 -0.4915
12579TIP3   OH259151   4.399   2.900  12.692  0.0191 -0.1242  0.1443
12579TIP3    H159152   4.382   2.952  12.614 -0.5429 -1.0538 -0.3605
12579TIP3    H259153   4.346   2.821  12.682  1.2866 -1.0762  0.6200
12580TIP3   OH259154   2.574   2.545  11.659  0.3490  0.4291 -0.5218
12580TIP3    H159155   2.501   2.498  11.619  1.0234 -1.6203  0.5143
12580TIP3    H259156   2.652   2.509  11.617  0.9061  0.3562  0.5293
12581TIP3   OH259157   4.874   1.446  11.028 -0.3278 -0.1741  0.6041
12581TIP3    H159158   4.834   1.533  11.015  0.9506  0.2851 -0.4258
12581TIP3    H259159   4.899   1.418  10.940 -1.6424 -2.0811  0.7843
12582TIP3   OH259160   1.586   3.266  13.864  0.3171  0.1402  0.1355
12582TIP3    H159161   1.497   3.284  13.837  0.0872 -0.7632  0.2370
12582TIP3    H259162   1.578   3.192  13.925  0.9358  1.3293  1.7399
12583TIP3   OH259163   3.078   1.381   0.470 -0.4485  0.2655  0.2201
12583TIP3    H159164   3.099   1.288   0.483 -2.8214 -0.2764  0.8482
12583TIP3    H259165   3.047   1.411   0.556  1.8729  2.1768  0.4784
12584TIP3   OH259166   0.140   1.165  12.628 -0.1574 -0.3479  0.5475
12584TIP3    H159167   0.205   1.208  12.572  0.0220 -0.7454  0.4502
12584TIP3    H259168   0.190   1.132  12.702 -0.0911 -1.5071 -0.0035
12585TIP3   OH259169   2.920   4.975   4.282 -0.0914 -0.5817  0.0443
12585TIP3    H159170   2.860   4.972   4.207  1.5392  0.3862 -1.3640
12585TIP3    H259171   3.006   4.956   4.245  1.1607  2.2893  1.1631
12586TIP3   OH259172   5.516   1.834  15.522 -0.1821  0.4774 -0.4552
12586TIP3    H159173   5.549   1.744  15.526 -0.8921  0.2270  0.0562
12586TIP3    H259174   5.501   1.850  15.429  0.8243  0.4018 -0.6389
12587TIP3   OH259175   6.467   2.072  15.611  0.1906 -0.0255  0.6244
12587TIP3    H159176   6.537   2.132  15.636  1.0602 -1.3127  1.4095
12587TIP3    H259177   6.406   2.126  15.560  1.5913  1.2005  0.1666
12588TIP3   OH259178   4.492   4.274   5.665 -0.1717 -0.3124  0.2657
12588TIP3    H159179   4.420   4.307   5.719 -0.8149 -0.5002 -0.4560
12588TIP3    H259180   4.449   4.245   5.584  1.0912  3.7058 -2.1721
12589TIP3   OH259181   0.019   0.038  14.945 -0.2097 -0.3300 -0.1847
12589TIP3    H159182   0.067   0.108  14.990 -0.8385 -0.0604  0.0705
12589TIP3    H259183   0.082   0.004  14.881 -0.4076  1.5944 -1.5008
12590TIP3   OH259184   6.804   6.603   6.235  0.2449  0.5582 -0.4085
12590TIP3    H159185   6.840   6.520   6.203  0.7985  0.8708 -0.6133
12590TIP3    H259186   6.726   6.578   6.285  0.9244 -0.1638  0.3116
12591TIP3   OH259187   4.541   1.008   3.226  1.0197 -0.3441 -0.3043
12591TIP3    H159188   4.570   0.937   3.169  0.9022 -0.9408  0.3540
12591TIP3    H259189   4.537   0.968   3.313  1.0795  0.5101  0.1024
12592TIP3   OH259190   3.081   3.320   4.342  0.2143  0.4767  0.3580
12592TIP3    H159191   3.040   3.280   4.265 -1.4882 -0.7121  1.8085
12592TIP3    H259192   3.012   3.320   4.409  1.9357  0.4761  2.2198
12593TIP3   OH259193   1.886   1.642  14.003 -0.0941  0.3350 -0.1598
12593TIP3    H159194   1.877   1.625  13.909 -1.9669  0.6222 -0.0684
12593TIP3    H259195   1.815   1.593  14.044  1.0283 -0.2393  1.2026
12594TIP3   OH259196   5.557   6.033  11.537 -0.4340 -0.2522 -0.0140
12594TIP3    H159197   5.528   6.036  11.629 -0.7207  0.2377 -0.1115
12594TIP3    H259198   5.508   5.961  11.498 -0.2145 -0.5459  0.2465
12595TIP3   OH259199   6.458   2.794   1.623 -0.4075 -0.6330 -0.0038
12595TIP3    H159200   6.401   2.871   1.625  0.3453 -0.0700  2.1368
12595TIP3    H259201   6.423   2.741   1.551 -1.0809  1.5723 -1.4231
12596TIP3   OH259202   6.123   6.507  11.416  0.0725 -0.5466 -0.1783
12596TIP3    H159203   6.173   6.564  11.358 -0.1620  1.0120  1.0683
12596TIP3    H259204   6.036   6.546  11.419 -0.2179 -1.2108  0.3802
12597TIP3   OH259205   1.524   0.455   3.947 -0.0464  0.0534 -0.2348
12597TIP3    H159206   1.601   0.479   3.896 -0.2191 -0.4166 -0.7303
12597TIP3    H259207   1.489   0.538   3.979  0.7495  0.2627  0.1316
12598TIP3   OH259208   2.425   2.612  15.753  0.5320 -1.0714  0.0781
12598TIP3    H159209   2.510   2.656  15.765 -0.0247  0.1055 -0.0872
12598TIP3    H259210   2.405   2.625  15.660 -0.2623 -0.4961  0.3171
12599TIP3   OH259211   3.734   1.167   3.201  0.3275  0.2876 -0.0898
12599TIP3    H159212   3.736   1.263   3.201  0.4981  0.2882 -0.9643
12599TIP3    H259213   3.826   1.141   3.198  0.2670  0.1030 -0.3958
12600TIP3   OH259214   3.646   4.708   1.780  0.0462 -0.0442 -0.1871
12600TIP3    H159215   3.617   4.703   1.689 -0.2824 -1.3326 -0.0368
12600TIP3    H259216   3.721   4.649   1.785 -0.8325 -1.1606  0.6677
12601TIP3   OH259217   2.597   2.236   3.143  0.1296  0.8971 -0.1303
12601TIP3    H159218   2.533   2.247   3.072 -0.5162  1.7430  0.5610
12601TIP3    H259219   2.677   2.277   3.111 -0.0727  1.0188 -0.4856
12602TIP3   OH259220   4.239   4.309  14.616  0.8813 -0.2602  0.1418
12602TIP3    H159221   4.175   4.380  14.612 -0.1640 -1.1571  0.4815
12602TIP3    H259222   4.275   4.316  14.705 -1.2950 -1.8494  1.2491
12603TIP3   OH259223   4.493   2.067   4.976 -0.2228 -0.0863 -0.0006
12603TIP3    H159224   4.408   2.045   5.014  0.3402 -1.1313  0.7138
12603TIP3    H259225   4.478   2.149   4.929 -0.8213  1.7070  3.0620
12604TIP3   OH259226   1.769   3.896   4.864 -0.2978 -0.2760 -0.9712
12604TIP3    H159227   1.694   3.847   4.831  0.4285 -0.6588 -2.1243
12604TIP3    H259228   1.804   3.941   4.787  0.7307 -0.2276 -0.4904
12605TIP3   OH259229   5.403   6.159  10.448 -0.2102 -0.1534  0.2936
12605TIP3    H159230   5.377   6.067  10.444 -1.7913  0.1670  1.8722
12605TIP3    H259231   5.477   6.160  10.510  1.0260 -0.5490 -1.1158
12606TIP3   OH259232   1.718   4.285  15.605  0.6079  0.0602  0.5757
12606TIP3    H159233   1.724   4.379  15.585  1.6849 -0.2738 -0.8353
12606TIP3    H259234   1.675   4.247  15.529 -2.5057 -0.2826  2.3578
12607TIP3   OH259235   4.131   4.031  14.588  0.3766  0.0005  0.4757
12607TIP3    H159236   4.163   4.119  14.565  0.6749  0.0227  0.9659
12607TIP3    H259237   4.201   3.972  14.562 -1.2223 -0.5345 -3.3046
12608TIP3   OH259238   2.318   6.132  11.890  0.1281 -0.3327  0.0256
12608TIP3    H159239   2.370   6.058  11.922 -1.4112 -0.8108  1.5891
12608TIP3    H259240   2.233   6.122  11.934 -0.9850  0.9238 -1.7216
12609TIP3   OH259241   6.270   1.030  16.442  0.2075 -0.4158  0.2174
12609TIP3    H159242   6.241   1.121  16.446  1.2458 -0.1271  1.8147
12609TIP3    H259243   6.364   1.033  16.460  0.2882 -1.7887  0.1587
12610TIP3   OH259244   6.155   2.319  11.327  0.0853 -0.3006  0.5794
12610TIP3    H159245   6.188   2.331  11.238  2.6528 -0.3994  1.4386
12610TIP3    H259246   6.072   2.366  11.328  0.8383  1.2255 -1.3747
12611TIP3   OH259247   4.642   4.823  12.184 -0.2173  0.2885  0.3320
12611TIP3    H159248   4.618   4.777  12.103 -2.5517 -2.0222  2.1415
12611TIP3    H259249   4.712   4.770  12.222 -1.4617 -0.6489  1.4027
12612TIP3   OH259250   2.105   6.696   0.498 -0.2434  0.4684 -0.4367
12612TIP3    H159251   2.110   6.600   0.502 -2.1835  0.3686  1.1818
12612TIP3    H259252   2.178   6.726   0.553 -1.6532 -0.2050  1.9014
12613TIP3   OH259253   1.399   2.778  12.354 -0.4056 -0.4654 -0.2649
12613TIP3    H159254   1.430   2.703  12.302  0.0430  0.5086 -1.4526
12613TIP3    H259255   1.334   2.740  12.414 -0.2765 -1.7872 -0.9174
12614TIP3   OH259256   6.197   4.782  16.637  0.5420  0.0476 -0.2268
12614TIP3    H159257   6.116   4.776  16.687  1.5210  2.1097  1.7775
12614TIP3    H259258   6.170   4.776  16.545 -1.4453 -2.8044  0.3926
12615TIP3   OH259259   3.648   0.715  13.874  0.0352  0.3299  0.3219
12615TIP3    H159260   3.654   0.716  13.779  0.7043  1.4405  0.3609
12615TIP3    H259261   3.736   0.695  13.904 -0.1059  0.2852  0.7153
12616TIP3   OH259262   2.605   1.289   0.213 -0.0861 -0.1221 -0.0858
12616TIP3    H159263   2.693   1.320   0.233 -0.1595  0.1263 -0.1407
12616TIP3    H259264   2.586   1.224   0.281 -0.5434  1.0845  0.9742
12617TIP3   OH259265   3.214   3.857   1.852 -0.2591 -0.5769  0.1301
12617TIP3    H159266   3.143   3.912   1.883  0.2520  0.5006 -0.5702
12617TIP3    H259267   3.293   3.897   1.888  0.0569 -1.3898  0.3647
12618TIP3   OH259268   3.143   5.793   4.780 -0.3139 -0.2272  0.1311
12618TIP3    H159269   3.207   5.739   4.735  0.1633  1.2770 -1.0512
12618TIP3    H259270   3.061   5.776   4.734 -0.4399 -0.8568  0.5638
12619TIP3   OH259271   1.240   4.383   4.101 -0.3535 -0.7208  0.1861
12619TIP3    H159272   1.329   4.374   4.135 -0.7808 -2.2127  0.9964
12619TIP3    H259273   1.252   4.412   4.010  0.8518  1.9061  1.0642
12620TIP3   OH259274   4.509   2.143   3.804  0.0712  0.7680  0.1924
12620TIP3    H159275   4.546   2.213   3.858  0.8887 -0.3626  1.1327
12620TIP3    H259276   4.577   2.076   3.800 -0.5133  0.2040 -1.0861
12621TIP3   OH259277   4.312   3.278   0.006  0.1607  0.4235 -0.2216
12621TIP3    H159278   4.382   3.334   0.040 -0.6736  1.4768 -0.1635
12621TIP3    H259279   4.329   3.273  -0.088  0.2996  0.7070 -0.2136
12622TIP3   OH259280   3.327   4.628  11.183 -0.2123 -0.5759 -0.2187
12622TIP3    H159281   3.271   4.568  11.134 -1.1211  0.5412 -0.5926
12622TIP3    H259282   3.350   4.580  11.263 -0.8153 -1.4606 -0.5611
12623TIP3   OH259283   4.551   0.441   2.053  0.0897  0.7483 -0.0718
12623TIP3    H159284   4.594   0.382   2.115 -0.0457  0.9322  0.1997
12623TIP3    H259285   4.546   0.391   1.972  0.3774  0.5480  0.0302
12624TIP3   OH259286   6.371   6.315  16.531  0.0570  0.0854  0.4667
12624TIP3    H159287   6.405   6.404  16.538  0.4824 -0.1741  2.5104
12624TIP3    H259288   6.425   6.264  16.592  0.0232 -1.6497 -0.8742
12625TIP3   OH259289   1.719   2.270  13.646 -0.0944  0.5175  0.4036
12625TIP3    H159290   1.759   2.352  13.677 -0.1796  1.8131 -2.6241
12625TIP3    H259291   1.630   2.273  13.680  0.2672  1.0293  1.3739
12626TIP3   OH259292   4.401   0.146  12.134  0.3413  0.5678  0.1427
12626TIP3    H159293   4.417   0.133  12.228  2.4502 -1.7607 -0.4325
12626TIP3    H259294   4.455   0.221  12.111 -0.8719  1.7193  0.8992
12627TIP3   OH259295   3.209   3.613   0.838 -0.1477  0.5519 -0.8270
12627TIP3    H159296   3.262   3.678   0.885 -0.8932  0.6467 -0.1032
12627TIP3    H259297   3.252   3.605   0.753  1.1120  0.5283 -0.2122
12628TIP3   OH259298   4.239   2.399  12.506  0.3143  0.1203 -0.5858
12628TIP3    H159299   4.289   2.479  12.521 -0.9473  0.9269 -0.5876
12628TIP3    H259300   4.290   2.331  12.550  0.1826  1.3129  1.5755
12629TIP3   OH259301   2.106   0.078  12.198  0.8351  0.4099 -0.4366
12629TIP3    H159302   2.110   0.169  12.170  1.1067  0.4212 -0.3563
12629TIP3    H259303   2.107   0.082  12.294 -2.0129  0.4945 -0.3017
12630TIP3   OH259304   1.378   1.098  10.230 -0.0784 -0.0337  0.2028
12630TIP3    H159305   1.464   1.129  10.200  0.5887 -1.0100  1.0199
12630TIP3    H259306   1.348   1.165  10.290  0.4475 -0.0112  0.4494
12631TIP3   OH259307   2.053   2.762  16.976 -0.3869 -0.0499  0.7187
12631TIP3    H159308   1.989   2.827  16.949  1.0276  0.8756 -0.5622
12631TIP3    H259309   2.085   2.724  16.893  0.2920 -0.9028  1.3494
12632TIP3   OH259310   5.303   0.896  16.905 -0.4804  0.0528 -0.3460
12632TIP3    H159311   5.395   0.912  16.922 -0.7064  1.7224 -0.4813
12632TIP3    H259312   5.277   0.832  16.971  0.5107  0.4273  0.4392
12633TIP3   OH259313   3.259   4.935   4.422 -0.2194  0.4191 -0.0470
12633TIP3    H159314   3.259   4.841   4.403 -0.1662  0.4859 -0.3921
12633TIP3    H259315   3.210   4.974   4.349 -1.1023  0.5644  0.6129
12634TIP3   OH259316   6.440   2.552  16.861  0.0052 -0.5293 -0.9291
12634TIP3    H159317   6.439   2.597  16.945  3.0265 -0.1879 -0.9633
12634TIP3    H259318   6.375   2.482  16.870 -1.3579  0.8671  0.8254
12635TIP3   OH259319   4.445   5.744  15.860  0.0397  0.0088  0.8386
12635TIP3    H159320   4.362   5.705  15.888  0.1938  0.0611  1.3764
12635TIP3    H259321   4.442   5.739  15.765 -1.1712  1.2148  0.7783
12636TIP3   OH259322   5.091   6.664   0.948 -0.5911  0.3552  0.0363
12636TIP3    H159323   5.021   6.662   1.013 -0.3106  1.1769  0.3750
12636TIP3    H259324   5.049   6.694   0.867 -0.5341  1.3423  0.3677
12637TIP3   OH259325   5.677   6.428   4.737 -0.0730  0.1171  0.0534
12637TIP3    H159326   5.748   6.437   4.674  0.1478 -0.0164  0.2827
12637TIP3    H259327   5.720   6.409   4.820 -0.3893 -0.3373  0.1212
12638TIP3   OH259328   3.559   3.819  10.994 -0.0253 -1.0180  0.4785
12638TIP3    H159329   3.493   3.862  11.049  0.3463 -0.1883  0.2927
12638TIP3    H259330   3.572   3.879  10.920  1.9200 -0.4552  1.1895
12639TIP3   OH259331   5.127   2.599   2.458 -0.1951 -0.1905 -0.3419
12639TIP3    H159332   5.046   2.568   2.499  0.7467 -0.0251  1.8008
12639TIP3    H259333   5.176   2.518   2.439  0.0228 -0.2412  0.3769
12640TIP3   OH259334   6.471   0.999  15.129 -0.3378 -0.2850  0.2235
12640TIP3    H159335   6.504   0.950  15.055  0.6992 -0.6283  0.8847
12640TIP3    H259336   6.418   0.936  15.178  0.4988 -0.5969  0.7493
12641TIP3   OH259337   4.478   0.584  12.729  0.2740 -0.1845 -0.5929
12641TIP3    H159338   4.512   0.547  12.647  1.0721 -0.3175 -0.2087
12641TIP3    H259339   4.389   0.610  12.708  0.0679 -1.3078 -1.1907
12642TIP3   OH259340   2.703   6.333  16.644  0.1239 -0.1165  0.6434
12642TIP3    H159341   2.621   6.285  16.655  0.6359 -1.9650 -2.4459
12642TIP3    H259342   2.679   6.425  16.658 -1.8971 -0.7903  2.2002
12643TIP3   OH259343   3.504   2.520  13.037  0.8045 -0.0478  0.1016
12643TIP3    H159344   3.475   2.430  13.054 -0.3987  0.0776 -1.1562
12643TIP3    H259345   3.569   2.511  12.967  1.7905 -0.0505  0.9872
12644TIP3   OH259346   6.211   6.309  12.487  0.1007  0.1652  0.4450
12644TIP3    H159347   6.186   6.392  12.527  0.8966 -0.0875  1.5131
12644TIP3    H259348   6.148   6.246  12.523  1.5226 -0.2811  2.3193
12645TIP3   OH259349   4.276   4.964  14.724 -0.4514  0.3602  0.3721
12645TIP3    H159350   4.289   5.002  14.638 -1.2487 -0.1857 -0.0048
12645TIP3    H259351   4.216   5.024  14.769 -2.0401 -0.5999 -0.3684
12646TIP3   OH259352   3.315   3.402   0.437 -0.3303  0.1646 -0.2793
12646TIP3    H159353   3.361   3.339   0.382  0.3065  0.6042 -0.2685
12646TIP3    H259354   3.245   3.352   0.478  0.2814 -0.5848 -0.1265
12647TIP3   OH259355   3.277   4.130   4.481 -0.1962  0.9502  0.7574
12647TIP3    H159356   3.299   4.071   4.408  1.2137 -1.2282  2.7883
12647TIP3    H259357   3.182   4.124   4.488 -0.4732  1.8804 -1.3665
12648TIP3   OH259358   5.298   0.687   3.760  0.7005 -0.3731 -0.3338
12648TIP3    H159359   5.203   0.685   3.745  0.0546 -0.9696  3.0598
12648TIP3    H259360   5.336   0.681   3.673 -2.3500  1.3226 -1.9484
12649TIP3   OH259361   1.096   1.734   3.187 -0.2897  0.5348  0.4583
12649TIP3    H159362   1.109   1.796   3.259  1.8129 -0.5868  1.1459
12649TIP3    H259363   1.036   1.779   3.127  0.6420  2.9641  1.2067
12650TIP3   OH259364   0.826   2.924  14.119 -0.6667 -0.3835  0.3146
12650TIP3    H159365   0.888   2.938  14.191 -1.4637  0.4378  0.8640
12650TIP3    H259366   0.845   2.835  14.088  1.3214  0.1248 -0.0704
12651TIP3   OH259367   2.919   1.020  14.829  0.3429  0.2312 -0.1476
12651TIP3    H159368   2.967   0.938  14.835 -1.6159 -0.9225  0.5487
12651TIP3    H259369   2.979   1.086  14.865  1.6525 -1.0016  0.0092
12652TIP3   OH259370   3.551   6.185   5.251 -0.0744 -0.7661 -0.6995
12652TIP3    H159371   3.482   6.204   5.188 -0.2917 -0.3480 -0.3444
12652TIP3    H259372   3.631   6.185   5.199 -0.2519 -0.4418 -0.9826
12653TIP3   OH259373   5.452   6.090   2.141 -0.1500 -0.2036 -0.7660
12653TIP3    H159374   5.472   6.178   2.172  0.3648 -0.7656  0.5388
12653TIP3    H259375   5.362   6.075   2.171  0.9508 -1.4621  2.3270
12654TIP3   OH259376   4.293   1.390  10.391  0.0857 -0.2015  0.3858
12654TIP3    H159377   4.249   1.466  10.431 -0.6111 -0.1024 -0.5266
12654TIP3    H259378   4.235   1.316  10.410 -1.1756  0.1176 -1.8244
12655TIP3   OH259379   5.533   0.830   3.494  0.6808 -0.1288 -0.2902
12655TIP3    H159380   5.470   0.902   3.499  1.1996  0.2627  0.7686
12655TIP3    H259381   5.563   0.831   3.403 -0.9358 -0.4189 -0.8568
12656TIP3   OH259382   0.514   0.183   0.279 -0.4782  0.3896  0.3687
12656TIP3    H159383   0.441   0.215   0.226  0.7018  1.4669 -0.6714
12656TIP3    H259384   0.494   0.214   0.367 -2.5680 -1.5928  0.6937
12657TIP3   OH259385   2.483   3.410   2.411  0.2369  0.0146  0.2386
12657TIP3    H159386   2.555   3.389   2.352  2.1237  3.3465  1.1040
12657TIP3    H259387   2.416   3.448   2.354 -0.0142 -1.1672 -0.2941
12658TIP3   OH259388   3.772   3.529  11.503 -0.2645  0.5311  0.6063
12658TIP3    H159389   3.831   3.454  11.503 -2.1040 -1.1063 -2.6535
12658TIP3    H259390   3.828   3.603  11.479  0.7407 -0.7863 -1.3892
12659TIP3   OH259391   6.386   2.214   2.434 -0.1816  0.1748  0.2827
12659TIP3    H159392   6.376   2.295   2.384  0.2161 -1.0626 -1.9830
12659TIP3    H259393   6.335   2.228   2.514 -0.7982  2.3289 -0.4158
12660TIP3   OH259394   2.633   0.060   4.029 -0.2568  0.6279 -0.0815
12660TIP3    H159395   2.584   0.016   4.099 -0.9695 -0.8605 -1.4488
12660TIP3    H259396   2.573   0.128   3.997 -0.8088 -0.0893 -0.6273
12661TIP3   OH259397   0.569   0.443  13.729 -0.3972  0.2576  0.0925
12661TIP3    H159398   0.650   0.425  13.778  0.3172 -0.5367 -1.3277
12661TIP3    H259399   0.564   0.539  13.727  0.0797  0.3071  0.8883
12662TIP3   OH259400   3.158   3.520  15.423  0.4028 -0.3856  0.3419
12662TIP3    H159401   3.161   3.563  15.338 -0.1991 -1.4495 -0.2296
12662TIP3    H259402   3.065   3.506  15.440  0.4244  0.9113  1.7604
12663TIP3   OH259403   5.823   1.968   6.206  0.2793 -0.0679 -0.0623
12663TIP3    H159404   5.903   1.977   6.155  0.2485 -2.0328 -0.5238
12663TIP3    H259405   5.846   1.908   6.277 -0.3460  0.6946  0.8057
12664TIP3   OH259406   2.513   4.715   6.350  0.2643 -0.1776 -0.3803
12664TIP3    H159407   2.447   4.648   6.371 -0.2962  0.6568  0.6189
12664TIP3    H259408   2.468   4.775   6.291  0.9109 -0.9042 -1.6446
12665TIP3   OH259409   2.076   0.108   1.921  0.1497  0.1849  0.8447
12665TIP3    H159410   2.087   0.088   2.014  1.9128 -1.3802  0.3882
12665TIP3    H259411   2.076   0.022   1.879 -1.8697  0.7938 -0.5357
12666TIP3   OH259412   1.539   0.604  15.931  0.0329 -0.0110 -0.6163
12666TIP3    H159413   1.605   0.588  15.999 -0.5818 -1.6861 -0.3777
12666TIP3    H259414   1.533   0.699  15.927  0.0926  0.1638  1.6925
12667TIP3   OH259415   6.159   6.098  16.765  0.9163 -0.1509  0.1619
12667TIP3    H159416   6.121   6.057  16.843 -0.1194 -0.8734 -0.7025
12667TIP3    H259417   6.169   6.026  16.702  0.6144  0.6234 -0.8018
12668TIP3   OH259418   1.317   0.242  16.783  0.4455 -0.3218 -0.6297
12668TIP3    H159419   1.374   0.165  16.788 -0.5711 -1.1453 -1.3162
12668TIP3    H259420   1.318   0.278  16.871  0.0782 -1.7616 -0.0115
12669TIP3   OH259421   3.894   5.029   5.385 -0.0721 -0.1366  0.0623
12669TIP3    H159422   3.984   5.039   5.354 -0.1781 -1.1474 -0.6110
12669TIP3    H259423   3.858   5.117   5.384 -0.1729 -0.1221 -3.0426
12670TIP3   OH259424   0.944   3.471   0.863  0.1501 -0.4668  0.6599
12670TIP3    H159425   1.000   3.542   0.894  0.8941 -1.3485  1.3855
12670TIP3    H259426   0.874   3.466   0.928 -0.0743 -0.2056  0.4422
12671TIP3   OH259427   4.146   2.361   0.112  0.2710  0.2176  0.0583
12671TIP3    H159428   4.053   2.338   0.108  0.8505 -2.7808  1.3374
12671TIP3    H259429   4.188   2.285   0.153  3.2618  1.6163 -0.1575
12672TIP3   OH259430   4.018   5.765   2.127  0.0090 -0.0356  0.0160
12672TIP3    H159431   3.980   5.719   2.202 -0.2075  0.2442  0.0801
12672TIP3    H259432   4.018   5.700   2.057  0.4650 -0.3829  0.3313
12673TIP3   OH259433   4.079   3.808   1.788  0.4266 -0.0430 -0.3290
12673TIP3    H159434   4.016   3.761   1.733  1.6735 -0.9386 -1.0403
12673TIP3    H259435   4.138   3.740   1.820  1.3625  0.8455 -0.1215
12674TIP3   OH259436   4.623   1.249   4.819  0.7322  0.0341 -0.1699
12674TIP3    H159437   4.602   1.315   4.753  1.1755  1.5170  1.1216
12674TIP3    H259438   4.540   1.204   4.835  0.2004  0.9072 -0.3905
12675TIP3   OH259439   5.571   0.274  16.481 -0.0533  0.0002  0.7333
12675TIP3    H159440   5.556   0.179  16.482  1.7244 -0.3108  0.7198
12675TIP3    H259441   5.485   0.312  16.499 -0.8839 -1.6004  0.3167
12676TIP3   OH259442   4.845   0.473  13.927 -0.3192  0.1811  0.4757
12676TIP3    H159443   4.890   0.437  14.003 -2.1680 -1.7903  0.7313
12676TIP3    H259444   4.888   0.434  13.852  0.3766  0.7567  0.5676
12677TIP3   OH259445   5.752   4.926   1.079 -0.3225 -0.6737 -0.2902
12677TIP3    H159446   5.760   5.021   1.082 -0.1034 -0.7047  0.8997
12677TIP3    H259447   5.782   4.901   0.992 -0.5628  0.3546 -0.6807
12678TIP3   OH259448   5.911   2.716   2.610  0.0066  0.8930  0.0901
12678TIP3    H159449   5.893   2.772   2.687 -1.9339  0.8997 -0.3024
12678TIP3    H259450   5.926   2.778   2.539 -0.6502  0.9304 -0.0271
12679TIP3   OH259451   4.950   2.666  11.162  0.2845 -0.5538 -0.4822
12679TIP3    H159452   4.857   2.684  11.164  0.9522  3.7557  0.6913
12679TIP3    H259453   4.975   2.678  11.070 -0.0422  0.2897 -0.4712
12680TIP3   OH259454   2.081   2.354  11.324  0.2321 -0.2054 -0.1158
12680TIP3    H159455   2.107   2.380  11.412 -0.2206  0.2623 -0.1180
12680TIP3    H259456   2.115   2.265  11.315 -1.8197 -1.2292  1.4550
12681TIP3   OH259457   2.818   5.318  12.398  0.0076 -0.2120 -0.3032
12681TIP3    H159458   2.729   5.285  12.406 -1.8407  4.2069  0.5120
12681TIP3    H259459   2.841   5.304  12.306 -2.2381  0.0120 -0.9583
12682TIP3   OH259460   4.448   6.381   3.584  0.1516  0.2176  0.0492
12682TIP3    H159461   4.528   6.329   3.570 -0.9543 -0.8658 -3.0470
12682TIP3    H259462   4.478   6.459   3.630  3.0910  0.0051 -1.2698
12683TIP3   OH259463   2.443   5.709   2.922 -0.0424  0.1356 -0.0201
12683TIP3    H159464   2.481   5.662   2.848 -0.9101  1.9794 -1.7348
12683TIP3    H259465   2.517   5.725   2.981  0.4203 -2.5218  0.2280
12684TIP3   OH259466   0.262   6.249  15.772  0.5487  0.2927  0.0860
12684TIP3    H159467   0.209   6.329  15.777 -0.7755 -0.3253 -2.2271
12684TIP3    H259468   0.234   6.198  15.848 -0.8440  0.7801 -0.0547
12685TIP3   OH259469   3.547   0.673   5.052 -0.3474  0.0189  0.4392
12685TIP3    H159470   3.507   0.593   5.017  0.0773  0.5811 -1.4764
12685TIP3    H259471   3.624   0.643   5.100  0.6714 -0.6775 -1.5393
12686TIP3   OH259472   0.044   0.331  11.058 -0.7690  0.6114 -0.0262
12686TIP3    H159473   0.087   0.254  11.022  2.7244  2.1545  0.3810
12686TIP3    H259474   0.007   0.376  10.982  2.8860  1.7215 -1.3569
12687TIP3   OH259475   1.441   0.099   2.209 -0.0128 -0.2148  0.6132
12687TIP3    H159476   1.467   0.150   2.285 -1.1613 -0.9000  1.4971
12687TIP3    H259477   1.348   0.118   2.198 -0.3433 -1.7050  0.6406
12688TIP3   OH259478   0.300   5.426  14.590  0.4806 -0.3192 -0.7931
12688TIP3    H159479   0.303   5.399  14.499  2.2460  0.4574 -1.0226
12688TIP3    H259480   0.289   5.521  14.587 -1.5980 -0.4861 -0.1111
12689TIP3   OH259481   2.934   5.958  15.884  0.6694  0.1421 -0.2345
12689TIP3    H159482   2.985   5.883  15.854 -0.3338  0.0909 -1.9263
12689TIP3    H259483   2.861   5.964  15.823 -0.0173  1.6924  0.6677
12690TIP3   OH259484   0.999   0.859  12.158 -0.1292  0.1072 -0.4130
12690TIP3    H159485   0.971   0.846  12.249 -2.0232  0.0682 -0.9751
12690TIP3    H259486   1.095   0.863  12.164 -0.1899 -0.1199  1.5490
12691TIP3   OH259487   4.233   4.040   5.358 -0.2705 -0.0966 -0.1478
12691TIP3    H159488   4.163   4.085   5.405  0.1210 -0.3631  0.7210
12691TIP3    H259489   4.233   3.951   5.394  1.6010  0.3475  1.1614
12692TIP3   OH259490   5.566   5.122  12.236 -0.4280  0.0829  0.4833
12692TIP3    H159491   5.558   5.073  12.318 -0.4497  0.3279  0.6304
12692TIP3    H259492   5.487   5.176  12.233  0.5011  1.5407  1.2865
12693TIP3   OH259493   5.432   6.384   2.923  0.4572 -0.1578 -0.4445
12693TIP3    H159494   5.442   6.406   3.015 -0.1867 -1.3352 -0.0742
12693TIP3    H259495   5.513   6.414   2.882  0.4912  0.9274  0.3849
12694TIP3   OH259496   6.422   2.420   0.399 -0.2233 -0.4824 -0.5209
12694TIP3    H159497   6.455   2.376   0.478 -1.6282 -1.0520 -0.2171
12694TIP3    H259498   6.341   2.462   0.427  1.3999  3.0170 -0.6242
12695TIP3   OH259499   2.377   1.388   6.051 -0.1001 -0.2468  0.2956
12695TIP3    H159500   2.449   1.430   6.004  0.5285 -1.5043  0.0773
12695TIP3    H259501   2.343   1.455   6.109 -0.4280  1.1426 -1.4259
12696TIP3   OH259502   2.711   6.770  12.683 -0.4219  0.0518 -0.0877
12696TIP3    H159503   2.806   6.756  12.678 -0.3829  0.1651  0.2780
12696TIP3    H259504   2.677   6.687  12.718 -0.5752 -0.3607 -1.1845
12697TIP3   OH259505   3.979   1.114  11.574 -0.5029 -0.3766  0.1715
12697TIP3    H159506   3.955   1.114  11.481 -2.2667 -0.1182  0.5776
12697TIP3    H259507   3.900   1.082  11.619  0.0611  0.1805  1.6305
12698TIP3   OH259508   2.650   1.942  15.481  0.1084 -0.4210  1.1159
12698TIP3    H159509   2.722   1.984  15.529  0.0932 -0.5072  1.2140
12698TIP3    H259510   2.576   1.945  15.542 -0.6174  1.6506  0.2393
12699TIP3   OH259511   5.732   4.211  15.667 -0.0150 -0.3790 -0.1752
12699TIP3    H159512   5.694   4.127  15.639 -2.2012 -0.9455  3.7076
12699TIP3    H259513   5.817   4.187  15.703 -0.8118 -1.1480  1.3299
12700TIP3   OH259514   1.069   0.156  13.714 -0.4625 -0.7413  0.3657
12700TIP3    H159515   1.147   0.184  13.665 -1.1972 -1.0598 -1.0532
12700TIP3    H259516   1.065   0.215  13.789  0.1031  0.5115 -0.5530
12701TIP3   OH259517   5.872   2.845  13.431  0.6518 -0.4517  0.1971
12701TIP3    H159518   5.945   2.899  13.402 -1.0845  1.1335 -1.5435
12701TIP3    H259519   5.847   2.882  13.516  1.1859 -0.3033  0.2906
12702TIP3   OH259520   3.788   0.020  11.049  0.1757 -0.2797  0.3080
12702TIP3    H159521   3.867  -0.029  11.029 -0.0761 -0.1154 -1.1625
12702TIP3    H259522   3.768   0.068  10.969  0.2519  2.0257  1.5757
12703TIP3   OH259523   6.359   0.742  15.588 -0.3735  0.4695  0.1733
12703TIP3    H159524   6.273   0.765  15.553  0.0061  1.0750 -0.3741
12703TIP3    H259525   6.359   0.780  15.676 -0.5715  0.6751  0.0852
12704TIP3   OH259526   4.754   0.821  13.022  0.0874 -0.0763 -0.2830
12704TIP3    H159527   4.768   0.914  13.039 -0.3665  0.0554 -0.6048
12704TIP3    H259528   4.774   0.811  12.929 -0.3007 -0.2077 -0.3542
12705TIP3   OH259529   2.152   4.413   4.781 -0.3636  0.2201  0.0320
12705TIP3    H159530   2.092   4.476   4.741  0.7002  1.0031 -0.3917
12705TIP3    H259531   2.239   4.448   4.762  0.2193  0.0403  2.1009
12706TIP3   OH259532   6.108   3.394   5.900  0.3090  0.2024  0.3181
12706TIP3    H159533   6.084   3.466   5.958 -4.1956  1.1125 -2.1907
12706TIP3    H259534   6.134   3.437   5.818 -0.2697 -0.9952 -0.5176
12707TIP3   OH259535   4.174   1.659  16.832 -0.0444  0.2444 -0.4391
12707TIP3    H159536   4.104   1.662  16.766  0.3513 -0.4349 -0.8998
12707TIP3    H259537   4.129   1.672  16.915 -0.7134 -0.0709 -0.7418
12708TIP3   OH259538   1.759   0.676   6.073  0.3451 -0.6181 -0.1700
12708TIP3    H159539   1.753   0.764   6.110  0.6392 -0.3780 -0.6868
12708TIP3    H259540   1.673   0.660   6.035 -0.0879 -1.0218  0.9487
12709TIP3   OH259541   1.821   6.786   3.593  0.5705 -0.0198 -0.4994
12709TIP3    H159542   1.790   6.844   3.524  0.1359  0.3503 -0.0045
12709TIP3    H259543   1.896   6.831   3.631 -0.2794  0.6528  0.4479
12710TIP3   OH259544   1.357   2.451  15.561 -0.5571 -0.0138  0.1198
12710TIP3    H159545   1.262   2.466  15.557 -0.9008 -1.2714  2.0598
12710TIP3    H259546   1.374   2.432  15.653  1.0655 -2.8820 -0.6498
12711TIP3   OH259547   2.999   3.532   2.187 -0.0790  0.3272  0.1214
12711TIP3    H159548   2.939   3.568   2.122  1.9453  3.1243 -0.3533
12711TIP3    H259549   3.021   3.605   2.244  1.6409 -0.9739  1.2633
12712TIP3   OH259550   2.448   0.159  11.933  0.4565  0.2836 -0.2146
12712TIP3    H159551   2.503   0.163  11.855  0.7642 -1.1493 -0.1112
12712TIP3    H259552   2.468   0.239  11.982  0.2676  1.1861 -1.5852
12713TIP3   OH259553   3.211   5.450   0.990  0.0537  0.0507 -0.0260
12713TIP3    H159554   3.163   5.401   0.923  1.1224 -0.7045 -0.2568
12713TIP3    H259555   3.252   5.522   0.942  0.2997 -0.1183 -0.0667
12714TIP3   OH259556   0.889   4.579  11.942 -0.4702  0.4915 -0.6135
12714TIP3    H159557   0.843   4.548  12.020 -2.1281  0.8741 -1.3984
12714TIP3    H259558   0.911   4.670  11.961 -1.3643  0.7522 -0.7832
12715TIP3   OH259559   1.333   4.478   4.435  1.1369 -0.5085 -0.2649
12715TIP3    H159560   1.304   4.549   4.378  1.4150 -0.0302  0.1811
12715TIP3    H259561   1.322   4.513   4.523  1.9740 -0.7452 -0.0612
12716TIP3   OH259562   4.337   4.653   4.886 -0.4314 -0.2521 -0.4736
12716TIP3    H159563   4.295   4.643   4.800  0.4316 -2.0886 -0.7432
12716TIP3    H259564   4.281   4.714   4.934 -0.0433  2.1249 -2.8634
12717TIP3   OH259565   3.468   6.425   4.012 -0.6256  0.5061  0.3340
12717TIP3    H159566   3.418   6.352   4.049  0.4882 -1.4358 -1.7526
12717TIP3    H259567   3.407   6.468   3.953 -0.3847 -0.8873 -0.9989
12718TIP3   OH259568   4.233   4.074  12.481  0.5516 -0.2241 -0.0113
12718TIP3    H159569   4.190   4.097  12.563 -1.0469 -1.8173 -0.3513
12718TIP3    H259570   4.196   4.133  12.417  0.8820  0.1897  0.1714
12719TIP3   OH259571   0.057   1.918  12.001 -0.2536 -0.4974 -0.5376
12719TIP3    H159572  -0.020   1.861  11.995 -0.9921  0.4682 -0.4975
12719TIP3    H259573   0.051   1.975  11.925  1.0084 -1.0861 -1.1080
12720TIP3   OH259574   0.035   4.743   3.830  0.3226  0.2726  0.1432
12720TIP3    H159575   0.072   4.688   3.899 -1.2575 -0.7607  0.2343
12720TIP3    H259576   0.046   4.692   3.750 -0.9426 -0.0989  0.1898
12721TIP3   OH259577   1.903   5.258   2.757  0.4837  0.1480  0.0927
12721TIP3    H159578   1.852   5.255   2.676  1.0345  0.8615 -0.2951
12721TIP3    H259579   1.887   5.174   2.798 -0.8331  0.2726 -0.1207
12722TIP3   OH259580   3.540   1.875   0.533  0.4257 -0.2140  0.4554
12722TIP3    H159581   3.563   1.968   0.533  0.3292 -0.1801 -0.6139
12722TIP3    H259582   3.448   1.873   0.558  0.9425 -0.2025  2.6287
12723TIP3   OH259583   5.964   3.525   5.468 -0.4180  0.3221 -0.6683
12723TIP3    H159584   5.896   3.465   5.499 -0.2956  0.8266  0.6035
12723TIP3    H259585   6.024   3.469   5.418  0.3838 -0.9347  1.5356
12724TIP3   OH259586   4.354   2.017  16.218 -0.6909  0.2137 -0.1458
12724TIP3    H159587   4.259   2.011  16.222 -0.7184  0.0459 -0.8867
12724TIP3    H259588   4.378   2.071  16.294 -1.3049 -0.3652  0.4720
12725TIP3   OH259589   5.070   6.415  10.811  0.3217  0.0980  0.5958
12725TIP3    H159590   5.140   6.369  10.765 -1.3230 -0.2366 -1.7161
12725TIP3    H259591   5.021   6.460  10.743 -0.9681  1.3864  2.2783
12726TIP3   OH259592   1.108   2.955   5.405 -0.5348  0.2332 -0.1190
12726TIP3    H159593   1.120   3.015   5.332  0.3547  0.4605  0.1995
12726TIP3    H259594   1.104   3.012   5.482  0.0876 -0.0858  0.1610
12727TIP3   OH259595   4.545   4.619   2.712  0.3989 -0.2888  0.1133
12727TIP3    H159596   4.499   4.624   2.795  0.6668  0.2305  0.2361
12727TIP3    H259597   4.482   4.581   2.651  0.2687 -0.8510  0.5988
12728TIP3   OH259598   0.251   6.416  13.720 -0.8031 -0.7594 -0.0435
12728TIP3    H159599   0.170   6.394  13.674 -1.5940 -0.0797  0.9661
12728TIP3    H259600   0.224   6.426  13.812  0.4551 -0.6635  0.3306
12729TIP3   OH259601   4.600   2.258   4.653 -0.4618 -0.1650 -0.0786
12729TIP3    H159602   4.527   2.264   4.715 -0.0605 -1.5939  0.5619
12729TIP3    H259603   4.673   2.301   4.697 -0.5717  0.1302 -0.1832
12730TIP3   OH259604   0.688   4.828   4.798 -0.0692 -0.2067  0.1357
12730TIP3    H159605   0.685   4.846   4.704  0.1373  2.0391  0.4986
12730TIP3    H259606   0.623   4.759   4.812 -0.1356 -0.5466 -1.6315
12731TIP3   OH259607   5.443   1.232  12.566 -0.3700  0.1352  0.3489
12731TIP3    H159608   5.421   1.143  12.538  0.7500  0.0672 -0.3484
12731TIP3    H259609   5.493   1.269  12.494  1.3444  0.4581  1.6323
12732TIP3   OH259610   4.785   0.592  15.972 -0.3597 -0.4429  0.0673
12732TIP3    H159611   4.731   0.619  16.046 -2.2246 -0.7236 -1.1181
12732TIP3    H259612   4.784   0.668  15.913 -0.0625 -0.7202 -0.3038
12733TIP3   OH259613   5.061   1.420   1.730 -0.5001 -0.0635  0.1289
12733TIP3    H159614   5.052   1.383   1.818  1.1241 -1.6851 -0.3406
12733TIP3    H259615   5.152   1.404   1.706 -0.9345  0.2630 -1.8986
12734TIP3   OH259616   0.499   5.304   1.972  0.0994  0.1013 -0.2090
12734TIP3    H159617   0.464   5.304   2.061 -1.3696  0.3410 -0.7602
12734TIP3    H259618   0.467   5.385   1.934 -0.1367 -0.4809 -1.2826
12735TIP3   OH259619   4.576   3.610  12.627  0.0509  0.0894 -0.1276
12735TIP3    H159620   4.604   3.518  12.620 -0.5330 -0.0896 -0.1457
12735TIP3    H259621   4.593   3.633  12.719 -1.7883 -0.7100  0.4646
12736TIP3   OH259622   6.733   1.368   2.098 -0.3721 -0.0427 -0.5248
12736TIP3    H159623   6.665   1.420   2.141 -0.8106 -0.6068 -0.5221
12736TIP3    H259624   6.711   1.277   2.121  0.5574 -0.2073 -0.2735
12737TIP3   OH259625   0.500   6.073   3.619  0.3877  0.0091 -0.0063
12737TIP3    H159626   0.408   6.092   3.640  0.1023  1.1788 -2.0293
12737TIP3    H259627   0.501   5.979   3.598 -0.1220 -0.2307  0.9802
12738TIP3   OH259628   1.415   3.046  12.281  0.0406  0.1688  0.7878
12738TIP3    H159629   1.413   2.950  12.282  0.5736  0.1594  1.0974
12738TIP3    H259630   1.462   3.068  12.201  0.8228  0.1535  1.2392
12739TIP3   OH259631   0.293   5.921   0.300 -0.0551  0.5601  0.8370
12739TIP3    H159632   0.257   5.984   0.239  1.3792  0.5308 -0.1013
12739TIP3    H259633   0.330   5.974   0.371  0.5105  0.7624  0.4035
12740TIP3   OH259634   1.277   5.749   3.600 -0.3135 -0.3440 -0.1605
12740TIP3    H159635   1.333   5.801   3.658  0.5316 -0.1292 -1.1456
12740TIP3    H259636   1.192   5.748   3.644  0.4330 -0.6641  1.3701
12741TIP3   OH259637   5.436   0.883  11.882 -0.4091 -0.2088  0.1451
12741TIP3    H159638   5.507   0.859  11.942 -0.5792 -0.0616  0.4090
12741TIP3    H259639   5.476   0.879  11.795  0.5161  1.8622  0.4042
12742TIP3   OH259640   0.910   4.920   1.112 -0.0715 -0.2914  0.2911
12742TIP3    H159641   0.885   4.963   1.194 -0.8810 -0.9516  0.3922
12742TIP3    H259642   0.978   4.978   1.076 -0.1936  0.3710  1.0764
12743TIP3   OH259643   1.469   5.932   1.674  0.1713 -0.0336 -0.0627
12743TIP3    H159644   1.399   5.887   1.627 -0.4829  0.8609  0.0298
12743TIP3    H259645   1.525   5.968   1.606  1.5340 -2.1659 -0.1634
12744TIP3   OH259646   0.058   5.679   2.457  0.2864  0.2826  0.2544
12744TIP3    H159647   0.039   5.585   2.466  0.1134  0.2908 -0.0518
12744TIP3    H259648   0.097   5.703   2.542  1.3285 -0.3049 -0.0326
12745TIP3   OH259649   6.396   1.742  16.091 -0.4521  0.5337  0.1602
12745TIP3    H159650   6.351   1.813  16.136 -1.3390  1.7171 -2.4062
12745TIP3    H259651   6.454   1.786  16.029  0.2598 -1.0063 -0.3106
12746TIP3   OH259652   6.317   1.550  13.353 -0.4244  0.4217  0.5490
12746TIP3    H159653   6.400   1.558  13.306  0.2195 -0.7203  1.4359
12746TIP3    H259654   6.314   1.627  13.409  1.0507 -0.5124  1.9976
12747TIP3   OH259655   2.285   0.573   1.861  0.2742  0.0073  0.2522
12747TIP3    H159656   2.355   0.612   1.808  0.9562 -1.0407  0.3615
12747TIP3    H259657   2.234   0.648   1.891  0.2415  0.6661 -1.3629
12748TIP3   OH259658   1.936   6.250   1.005 -0.4330 -0.6271  0.6814
12748TIP3    H159659   1.974   6.185   0.946  2.0403 -0.3550  1.8599
12748TIP3    H259660   1.875   6.299   0.950  0.3637 -1.5977 -1.1550
12749TIP3   OH259661   5.445   2.040   1.816 -0.5416 -0.0761 -0.3672
12749TIP3    H159662   5.479   1.956   1.785  0.5918  0.6659 -1.2311
12749TIP3    H259663   5.350   2.029   1.814 -0.4162 -1.3765 -0.3240
12750TIP3   OH259664   4.275   1.029   0.991  0.1874  0.1196 -0.3807
12750TIP3    H159665   4.227   1.090   0.934  0.0475 -0.7167 -1.1804
12750TIP3    H259666   4.326   1.086   1.049 -0.0693  1.0024 -0.9965
12751TIP3   OH259667   1.859   0.064   0.178 -0.0142  0.3714 -0.1409
12751TIP3    H159668   1.812   0.005   0.237 -0.2338  1.7004  1.0479
12751TIP3    H259669   1.815   0.054   0.094  0.0089 -1.2147  0.0115
12752TIP3   OH259670   3.875   2.340  11.845 -0.5036 -0.2570  0.1753
12752TIP3    H159671   3.933   2.416  11.847  0.1661 -0.7596 -0.0204
12752TIP3    H259672   3.879   2.308  11.755  0.0068 -1.1237  0.4962
12753TIP3   OH259673   6.486   4.961  14.134 -0.4305  0.9789  0.2887
12753TIP3    H159674   6.408   4.915  14.101  0.0992 -0.7942  1.3820
12753TIP3    H259675   6.451   5.041  14.174 -1.7043  0.3076  0.5872
12754TIP3   OH259676   3.852   2.527  17.018 -0.3866 -0.6474  0.0441
12754TIP3    H159677   3.842   2.539  16.924  1.1010  0.5070 -0.0079
12754TIP3    H259678   3.872   2.615  17.052  3.0696 -1.5999  0.8319
12755TIP3   OH259679   6.252   5.702   2.997 -0.3212  0.5591 -0.2843
12755TIP3    H159680   6.251   5.794   2.970  2.6329  0.4965 -1.0122
12755TIP3    H259681   6.329   5.665   2.953  0.2353 -1.5590  2.1809
12756TIP3   OH259682   4.097   0.951  11.092 -0.0169 -0.0206 -0.0738
12756TIP3    H159683   4.019   0.904  11.062 -0.0385 -0.9404  1.3502
12756TIP3    H259684   4.169   0.889  11.079  0.2352  0.2287  0.1263
12757TIP3   OH259685   6.515   4.863   4.751 -0.1783  0.1636 -0.3934
12757TIP3    H159686   6.590   4.806   4.737 -0.8774 -0.6734 -0.8711
12757TIP3    H259687   6.532   4.905   4.835  1.8226  1.6321 -1.4718
12758TIP3   OH259688   1.665   3.974   3.073  0.6674  0.5623 -0.0877
12758TIP3    H159689   1.742   3.918   3.065  1.6874  1.9374 -0.3357
12758TIP3    H259690   1.678   4.022   3.155  0.2376  1.0371 -0.2882
12759TIP3   OH259691   2.282   1.769   4.191 -0.3879 -0.3579 -0.0947
12759TIP3    H159692   2.304   1.682   4.224 -1.6348 -0.3477  0.8403
12759TIP3    H259693   2.354   1.825   4.220  0.4597 -1.0686 -0.7590
12760TIP3   OH259694   0.507   1.266  14.915 -0.0640  0.1520 -0.2556
12760TIP3    H159695   0.449   1.332  14.877 -0.0796  0.5326  0.4210
12760TIP3    H259696   0.535   1.214  14.840 -0.8701  0.2792 -0.6609
12761TIP3   OH259697   5.034   0.346  10.641 -0.6125  0.2335  0.0626
12761TIP3    H159698   5.094   0.386  10.578 -1.7440 -0.0200 -1.1960
12761TIP3    H259699   4.987   0.279  10.592 -0.3488 -1.1346  1.5960
12762TIP3   OH259700   5.370   6.620   4.064 -0.1977  0.4664 -0.4900
12762TIP3    H159701   5.394   6.659   4.148  0.9883  0.2179 -0.6988
12762TIP3    H259702   5.450   6.624   4.011 -0.7081 -0.0911 -1.3372
12763TIP3   OH259703   4.699   3.206  13.256 -0.3201 -0.3553  0.5128
12763TIP3    H159704   4.635   3.163  13.199 -0.2756  0.5242 -0.2370
12763TIP3    H259705   4.654   3.286  13.285  0.3378  0.1394  0.1880
12764TIP3   OH259706   3.449   5.912   6.168  0.2421 -0.1790  0.4001
12764TIP3    H159707   3.521   5.964   6.203 -0.7699  0.6967  1.2395
12764TIP3    H259708   3.410   5.870   6.245  0.7420 -1.8479 -0.2024
12765TIP3   OH259709   1.098   3.753   3.539 -0.2799 -0.5579 -0.0870
12765TIP3    H159710   1.096   3.753   3.444 -2.4730  1.3116 -0.0973
12765TIP3    H259711   1.188   3.778   3.561 -0.7214  3.1845 -1.7859
12766TIP3   OH259712   0.753   4.500   3.385 -0.0994 -0.2568  0.5942
12766TIP3    H159713   0.737   4.579   3.333 -0.7503 -1.2125 -0.7197
12766TIP3    H259714   0.688   4.438   3.354  0.3761 -1.3121  1.6411
12767TIP3   OH259715   3.250   5.764  16.239  0.3112  0.2465  0.5597
12767TIP3    H159716   3.330   5.740  16.193  1.2848  1.1634  1.7153
12767TIP3    H259717   3.204   5.823  16.179  0.1933 -0.7167 -0.3342
12768TIP3   OH259718   0.410   1.071   2.584  0.0966 -0.1482 -0.0823
12768TIP3    H159719   0.400   1.152   2.534 -1.7183  0.0220  0.4939
12768TIP3    H259720   0.326   1.058   2.627  0.7803 -1.6450  0.9120
12769TIP3   OH259721   2.617   4.829  11.290 -0.1125  0.0463  0.2568
12769TIP3    H159722   2.524   4.848  11.283 -0.6200 -2.6501 -1.7879
12769TIP3    H259723   2.622   4.735  11.308  2.2309  0.0482 -0.0264
12770TIP3   OH259724   5.258   0.417  11.693  0.5143 -0.0208 -0.3924
12770TIP3    H159725   5.208   0.490  11.657 -1.6834 -1.4113 -0.3582
12770TIP3    H259726   5.197   0.375  11.754  1.7660 -1.7885 -0.2968
12771TIP3   OH259727   3.597   3.487  14.991  0.1072  0.6457  0.3541
12771TIP3    H159728   3.577   3.564  14.938 -0.0140  1.4464  1.5128
12771TIP3    H259729   3.650   3.431  14.934 -0.3916  1.2597 -0.7360
12772TIP3   OH259730   2.948   5.265   5.570  0.8714  0.0822 -0.1139
12772TIP3    H159731   2.979   5.182   5.605  0.4370  0.3691  0.9689
12772TIP3    H259732   3.027   5.319   5.565  1.1816 -0.4192 -0.9583
12773TIP3   OH259733   1.704   0.866  12.234  0.0601 -0.0294  0.4082
12773TIP3    H159734   1.622   0.910  12.257  0.3325  0.0710  1.2130
12773TIP3    H259735   1.760   0.937  12.201 -0.6061 -0.2986 -1.3794
12774TIP3   OH259736   3.712   4.752   3.574 -0.3306  0.1799  0.3636
12774TIP3    H159737   3.788   4.756   3.517 -0.7687  1.4296 -0.1900
12774TIP3    H259738   3.723   4.672   3.624  0.7312 -0.2789 -0.5546
12775TIP3   OH259739   2.480   1.347   5.497 -0.1003  0.4573 -0.1526
12775TIP3    H159740   2.396   1.343   5.451 -0.8130 -0.5915  1.1465
12775TIP3    H259741   2.466   1.412   5.566  0.4479  0.8963 -0.4490
12776TIP3   OH259742   3.185   3.051   2.769  0.5785  0.2180  0.2172
12776TIP3    H159743   3.101   3.045   2.724 -1.4108  0.8419  3.5680
12776TIP3    H259744   3.222   3.135   2.740 -1.2959  1.2719  0.7589
12777TIP3   OH259745   4.328   1.496  14.763  0.2341 -0.2570 -0.0574
12777TIP3    H159746   4.381   1.574  14.773 -1.1272  0.7505 -0.3953
12777TIP3    H259747   4.248   1.526  14.721 -0.8214 -1.6222  0.8577
12778TIP3   OH259748   3.983   1.462  11.686  0.1196 -0.1859  0.3540
12778TIP3    H159749   4.072   1.481  11.655 -0.0525  0.6854  0.3704
12778TIP3    H259750   3.984   1.490  11.777 -0.2645  0.0956  0.2689
12779TIP3   OH259751   0.047   3.490  13.459 -0.5313  0.2054  0.0980
12779TIP3    H159752   0.034   3.499  13.553  2.0302  0.6653  0.4732
12779TIP3    H259753   0.014   3.403  13.438  0.1936 -0.4875  1.7052
12780TIP3   OH259754   5.046   2.019  14.628 -0.6334  0.0893 -0.3619
12780TIP3    H159755   4.957   2.052  14.623 -0.6428 -0.0868 -1.8169
12780TIP3    H259756   5.068   2.021  14.721 -1.7218  1.2769 -0.1116
12781TIP3   OH259757   1.857   6.032   6.555  0.3055 -0.3989  0.1994
12781TIP3    H159758   1.942   6.009   6.518  0.4626  0.7597 -0.1928
12781TIP3    H259759   1.831   5.954   6.605  0.7798 -1.4333 -1.0961
12782TIP3   OH259760   4.456   6.089  12.397 -0.4781 -1.0120 -0.1948
12782TIP3    H159761   4.468   6.061  12.307 -0.3796  3.3610 -1.7726
12782TIP3    H259762   4.545   6.099  12.432 -0.4805 -1.1879 -0.1364
12783TIP3   OH259763   1.643   3.060   1.011 -0.0005  0.3994 -0.0846
12783TIP3    H159764   1.598   3.081   0.929 -0.5812 -1.5174 -0.2980
12783TIP3    H259765   1.599   3.115   1.076 -0.4550  0.9516 -0.8327
12784TIP3   OH259766   2.825   3.313  11.408 -0.2411  0.2654  0.0840
12784TIP3    H159767   2.805   3.220  11.422  0.5588 -0.4323 -2.6733
12784TIP3    H259768   2.743   3.358  11.426 -0.6433 -0.9528  1.4942
12785TIP3   OH259769   3.164   6.055   0.089  0.1032  0.6110  0.3561
12785TIP3    H159770   3.107   5.984   0.120 -1.1535  1.8388  0.9444
12785TIP3    H259771   3.169   6.115   0.163  0.0060  1.8254 -0.6062
12786TIP3   OH259772   2.036   4.496  15.268 -0.2522  0.1584 -0.2660
12786TIP3    H159773   2.079   4.469  15.349 -2.0778 -2.1348  0.0477
12786TIP3    H259774   2.029   4.592  15.275  4.2081  0.7055 -0.1862
12787TIP3   OH259775   2.852   5.592   3.412  0.7582 -0.0670  0.3040
12787TIP3    H159776   2.841   5.648   3.489  3.7537 -0.6048  1.2494
12787TIP3    H259777   2.841   5.652   3.338 -1.1284  0.6725  1.1171
12788TIP3   OH259778   2.680   6.132  14.409  0.1344  0.0223  0.5486
12788TIP3    H159779   2.746   6.063  14.403  0.6789  0.4863  1.0997
12788TIP3    H259780   2.641   6.122  14.496 -0.2224  0.0260  0.3930
12789TIP3   OH259781   0.799   6.060   6.241 -0.0704 -0.1744 -0.3517
12789TIP3    H159782   0.864   6.085   6.307 -0.7621 -0.5497  0.5049
12789TIP3    H259783   0.716   6.089   6.278 -0.2307  2.4115 -2.4738
12790TIP3   OH259784   1.464   1.991   5.237 -0.2238  0.2659 -0.0460
12790TIP3    H159785   1.396   2.007   5.172 -1.1972  0.4323  0.9830
12790TIP3    H259786   1.423   1.934   5.302  0.5987  0.4075  0.6256
12791TIP3   OH259787   1.109   2.462  12.094 -0.3532 -0.1804 -0.0976
12791TIP3    H159788   1.101   2.542  12.042  1.6646 -0.7541 -1.4412
12791TIP3    H259789   1.142   2.397  12.032 -0.8097 -1.7362  1.2349
12792TIP3   OH259790   3.989   2.413   4.711  0.0594  0.8148  0.2967
12792TIP3    H159791   4.038   2.494   4.726 -1.5260  1.9019 -0.0752
12792TIP3    H259792   3.986   2.404   4.616  0.3289  0.2474  0.3402
12793TIP3   OH259793   0.942   3.189   3.418 -0.2060  0.6540 -0.2721
12793TIP3    H159794   1.024   3.222   3.381 -1.0234  1.4191 -1.4630
12793TIP3    H259795   0.899   3.143   3.346 -1.5920  1.6969 -0.1548
12794TIP3   OH259796   6.783   6.406  12.468  0.0696  0.2881  0.6208
12794TIP3    H159797   6.695   6.443  12.462  0.1182  0.5387  1.3658
12794TIP3    H259798   6.789   6.347  12.393 -0.6195  0.5051  0.3847
12795TIP3   OH259799   3.435   0.824  14.914 -0.2468 -0.4607 -0.2692
12795TIP3    H159800   3.459   0.740  14.876 -1.5969 -0.3075 -1.5446
12795TIP3    H259801   3.341   0.817  14.931  0.1390 -0.2735  2.5291
12796TIP3   OH259802   3.836   0.886  16.066  0.1192  0.1031 -0.0171
12796TIP3    H159803   3.802   0.839  16.142  0.2035  0.2705  0.1264
12796TIP3    H259804   3.851   0.975  16.098 -3.7865  1.3903 -1.2703
12797TIP3   OH259805   4.177   3.360   1.659 -0.2343  0.1167 -0.1878
12797TIP3    H159806   4.208   3.358   1.569  0.3630  2.2000 -0.0724
12797TIP3    H259807   4.091   3.400   1.655  0.3305  1.4259  0.2690
12798TIP3   OH259808   1.156   0.919  15.039  0.2129  0.3770  0.5909
12798TIP3    H159809   1.140   0.843  15.096 -2.1062  0.8353  0.6416
12798TIP3    H259810   1.072   0.933  14.994  1.1665  1.7499 -0.8550
12799TIP3   OH259811   2.869   1.399   0.276 -0.0113 -0.2735 -0.2100
12799TIP3    H159812   2.848   1.488   0.305 -0.1642 -0.8601  1.6238
12799TIP3    H259813   2.950   1.377   0.323 -0.2173 -1.2598 -0.2990
12800TIP3   OH259814   6.698   3.270  15.544 -0.3523 -0.3693 -0.2041
12800TIP3    H159815   6.689   3.350  15.493 -0.6797 -1.4368 -1.8984
12800TIP3    H259816   6.687   3.298  15.635  0.0951  1.5714 -0.6992
12801TIP3   OH259817   4.418   5.187  11.471 -0.7045 -0.1073 -0.2198
12801TIP3    H159818   4.328   5.170  11.499 -0.7003 -1.4025 -0.9145
12801TIP3    H259819   4.410   5.230  11.387 -0.7252 -2.6710 -1.6306
12802TIP3   OH259820   2.069   4.259  13.734  0.0360  0.7605  0.0261
12802TIP3    H159821   2.123   4.338  13.742  0.8490  0.4102 -1.5757
12802TIP3    H259822   1.980   4.289  13.751  0.6672  1.3732  2.6414
12803TIP3   OH259823   5.403   2.900   1.187  0.0734 -0.8958  0.3165
12803TIP3    H159824   5.375   2.918   1.277 -0.5534 -1.4371  0.2430
12803TIP3    H259825   5.321   2.896   1.137  0.4052 -0.7778 -0.2453
12804TIP3   OH259826   5.784   0.923  12.207  0.2290  0.1590  0.2595
12804TIP3    H159827   5.707   0.972  12.237  0.0793 -0.5181  1.0084
12804TIP3    H259828   5.769   0.834  12.237  0.1161 -0.5590 -1.7661
12805TIP3   OH259829   6.176   3.252  11.360 -1.0004 -0.2378  0.1734
12805TIP3    H159830   6.201   3.221  11.273 -0.4170 -0.1045  0.2845
12805TIP3    H259831   6.089   3.289  11.349  0.1942  2.4406 -1.0048
12806TIP3   OH259832   2.503   0.663   1.677 -0.3093 -0.1159  0.1253
12806TIP3    H159833   2.491   0.742   1.624  0.1073  0.7187  1.2339
12806TIP3    H259834   2.576   0.685   1.736 -0.1242 -1.3699  0.3819
12807TIP3   OH259835   2.710   0.056  16.196  0.0291  0.3515  0.2856
12807TIP3    H159836   2.739   0.139  16.234  2.5434 -0.3668  0.1637
12807TIP3    H259837   2.763   0.046  16.116  1.1183 -2.1380  1.2115
12808TIP3   OH259838   4.579   5.673   5.092 -0.4160  0.0450 -0.2848
12808TIP3    H159839   4.599   5.600   5.150  0.7212 -0.0904 -0.8271
12808TIP3    H259840   4.498   5.710   5.127  0.4153  0.1943  1.5963
12809TIP3   OH259841   0.906   3.553   3.841  0.9968  0.3421 -0.1337
12809TIP3    H159842   0.898   3.648   3.835 -0.2923  0.2044 -1.0254
12809TIP3    H259843   0.937   3.525   3.755 -2.0404 -0.2863 -1.1724
12810TIP3   OH259844   2.025   3.191   0.038 -0.7296 -0.3093  0.9933
12810TIP3    H159845   1.995   3.262   0.094  0.1915 -0.0689  1.2041
12810TIP3    H259846   2.034   3.231  -0.049 -0.4820 -0.2386  1.0504
12811TIP3   OH259847   1.755   5.042   1.792 -0.2533 -0.3161  0.3440
12811TIP3    H159848   1.783   4.955   1.820  1.2307  0.5129  1.6400
12811TIP3    H259849   1.743   5.091   1.874  1.8610  1.5184 -0.3081
12812TIP3   OH259850   4.945   0.949  15.401  0.1023  0.0297  0.6382
12812TIP3    H159851   4.915   1.033  15.365 -1.6322 -1.7333 -2.4723
12812TIP3    H259852   4.881   0.927  15.468 -0.1900  0.5923  0.5474
12813TIP3   OH259853   5.880   4.940   3.094 -0.6891 -0.4704  0.1259
12813TIP3    H159854   5.861   4.893   3.012  0.8267 -2.6207  0.9074
12813TIP3    H259855   5.803   4.925   3.148 -0.7172 -1.1139 -0.0750
12814TIP3   OH259856   0.438   2.160  12.566  0.0179  0.2789  0.2486
12814TIP3    H159857   0.394   2.079  12.542 -0.9929  0.4281  1.4648
12814TIP3    H259858   0.497   2.135  12.637  1.7860  0.1217 -1.2249
12815TIP3   OH259859   0.072   3.105  15.928  0.3741 -0.7244 -0.2097
12815TIP3    H159860   0.158   3.068  15.911  1.0596 -0.1331  1.7879
12815TIP3    H259861   0.089   3.198  15.946 -0.7858 -0.4249 -0.5390
12816TIP3   OH259862   6.240   3.696  11.524 -0.3228  0.1040 -0.3966
12816TIP3    H159863   6.148   3.722  11.525 -0.5093 -0.5559  0.0739
12816TIP3    H259864   6.266   3.694  11.616  0.2094  0.4130 -0.5303
12817TIP3   OH259865   1.744   6.714   4.132  0.2488  0.2525 -0.3425
12817TIP3    H159866   1.651   6.698   4.118  0.2213  0.5669 -0.5518
12817TIP3    H259867   1.784   6.702   4.046  0.5268 -0.6543 -0.1030
12818TIP3   OH259868   4.652   5.938   1.619  0.4111  0.0781  0.1174
12818TIP3    H159869   4.591   5.905   1.553 -1.1407 -2.6412  2.6565
12818TIP3    H259870   4.739   5.921   1.583 -0.3574 -0.0186 -1.7689
12819TIP3   OH259871   4.888   0.552   5.708  0.0906 -0.4765  0.8010
12819TIP3    H159872   4.859   0.536   5.618 -0.0829 -0.4470  0.8502
12819TIP3    H259873   4.948   0.480   5.727  0.5175 -0.2065  0.4917
12820TIP3   OH259874   6.048   1.435  11.695  0.1276 -0.1287 -0.2626
12820TIP3    H159875   6.136   1.408  11.718  0.1972  0.4880  0.2357
12820TIP3    H259876   6.036   1.405  11.605  1.2203  0.6500 -0.6860
12821TIP3   OH259877   2.163   6.633   5.233 -0.5514  0.1023 -0.1975
12821TIP3    H159878   2.188   6.675   5.150  0.2186  1.3429  0.6197
12821TIP3    H259879   2.214   6.679   5.299  1.6786 -3.2806  0.6617
12822TIP3   OH259880   1.714   3.454  12.133 -0.4830 -0.1004  0.1376
12822TIP3    H159881   1.775   3.478  12.203 -0.8927  1.5538 -0.0248
12822TIP3    H259882   1.644   3.405  12.177  0.1889 -0.7013  0.5606
12823TIP3   OH259883   1.312   1.237  16.111  0.2123  0.1224 -0.3023
12823TIP3    H159884   1.315   1.259  16.018  2.2087 -1.3117 -0.6433
12823TIP3    H259885   1.378   1.293  16.152  0.3857 -0.2810 -0.0142
12824TIP3   OH259886   1.665   4.858   3.611 -1.1218 -0.2837 -0.6404
12824TIP3    H159887   1.655   4.854   3.706 -1.3200  0.2939 -0.6336
12824TIP3    H259888   1.752   4.896   3.598 -1.1420 -0.2534 -0.6882
12825TIP3   OH259889   4.656   4.497  11.292  0.0759  0.7524 -1.1628
12825TIP3    H159890   4.731   4.549  11.263  0.2121 -0.0386 -2.3209
12825TIP3    H259891   4.678   4.407  11.265  0.3520 -0.1439  1.7290
12826TIP3   OH259892   5.832   0.618  11.775 -0.0553  0.0163  0.0642
12826TIP3    H159893   5.806   0.696  11.823 -0.1162  1.4671 -2.1887
12826TIP3    H259894   5.927   0.615  11.784 -0.1532 -0.2481  1.0200
12827TIP3   OH259895   1.993   0.524  11.661  0.0471  0.1073 -0.0850
12827TIP3    H159896   1.939   0.585  11.710  0.7469  2.4606 -2.0638
12827TIP3    H259897   1.938   0.496  11.588  0.3727 -0.1483 -0.2370
12828TIP3   OH259898   4.812   5.015  11.336 -0.4512  0.1367  0.3167
12828TIP3    H159899   4.729   4.968  11.350  0.2204 -0.4358  2.8279
12828TIP3    H259900   4.786   5.100  11.301 -2.2081  0.3642  2.0342
12829TIP3   OH259901   6.122   3.421   3.681 -0.3048 -0.2789  0.2791
12829TIP3    H159902   6.216   3.436   3.686 -0.3032 -0.6583  2.0246
12829TIP3    H259903   6.113   3.344   3.624  0.4314 -0.2397  0.0978
12830TIP3   OH259904   0.477   3.961  10.934  0.0128  0.1352  0.0347
12830TIP3    H159905   0.438   3.892  10.988 -0.6246 -0.2485 -0.8982
12830TIP3    H259906   0.456   3.936  10.844  1.4173  0.5343 -0.4339
12831TIP3   OH259907   5.732   3.405   5.534 -0.3352  0.5348 -0.0787
12831TIP3    H159908   5.713   3.343   5.605  1.7297  1.7882  1.6982
12831TIP3    H259909   5.655   3.461   5.530 -2.3604 -2.0942 -1.8705
12832TIP3   OH259910   2.051   4.745   2.665 -0.3633  0.2517 -0.2985
12832TIP3    H159911   2.110   4.683   2.709  0.1465  0.8902 -0.0765
12832TIP3    H259912   2.072   4.736   2.572 -2.1502 -1.8557 -0.5907
12833TIP3   OH259913   4.849   1.280   0.573  0.3266  0.1442  0.7831
12833TIP3    H159914   4.759   1.268   0.605  0.6260 -0.1451  1.5382
12833TIP3    H259915   4.850   1.369   0.537 -0.3137  0.0790  0.5968
12834TIP3   OH259916   2.638   1.220   3.841  0.1518  0.1167  0.3986
12834TIP3    H159917   2.588   1.191   3.764  0.4410  0.6272  0.0130
12834TIP3    H259918   2.676   1.304   3.815  2.0779 -0.7261  0.2773
12835TIP3   OH259919   0.407   1.818   0.471 -0.3228 -0.1623 -0.4306
12835TIP3    H159920   0.399   1.728   0.502 -0.5773  0.2920  0.9117
12835TIP3    H259921   0.431   1.810   0.379 -2.7753 -1.6316 -1.0420
12836TIP3   OH259922   5.441   3.548   4.583  0.4133  0.6274 -0.5757
12836TIP3    H159923   5.383   3.507   4.648 -1.0345  1.2148 -1.4502
12836TIP3    H259924   5.523   3.499   4.591 -0.7038 -1.3450 -0.4153
12837TIP3   OH259925   5.286   0.807  15.003 -0.7436  0.0334 -0.3362
12837TIP3    H159926   5.361   0.803  15.062 -0.9159  0.3939 -0.0959
12837TIP3    H259927   5.232   0.732  15.028 -1.2155  0.6371  0.4994
12838TIP3   OH259928   3.385   1.741   4.972 -0.0709  0.1353  0.6167
12838TIP3    H159929   3.297   1.759   5.005 -0.6036 -0.0397 -0.6385
12838TIP3    H259930   3.384   1.775   4.883  1.2144  0.3292  0.6649
12839TIP3   OH259931   0.011   4.744   0.765  0.3881  0.0848  0.3606
12839TIP3    H159932  -0.080   4.745   0.795 -0.5954  1.2819 -2.3274
12839TIP3    H259933   0.017   4.664   0.712  0.6719  0.3750 -0.0473
12840TIP3   OH259934   2.029   3.788   1.806 -0.2223 -0.2474 -0.6812
12840TIP3    H159935   1.974   3.865   1.816  0.2757  0.2339 -1.5175
12840TIP3    H259936   1.979   3.729   1.749 -0.3631 -0.3148 -0.4909
12841TIP3   OH259937   2.442   2.277  14.649 -0.1564 -0.4543 -0.1314
12841TIP3    H159938   2.387   2.212  14.693  0.6062 -2.0149 -1.3693
12841TIP3    H259939   2.451   2.244  14.559 -0.1598  1.6600 -0.9514
12842TIP3   OH259940   5.898   3.409  12.404  0.0096 -0.2108  0.3973
12842TIP3    H159941   5.862   3.456  12.479  1.7233  1.5347  0.2154
12842TIP3    H259942   5.840   3.432  12.331  0.8572  1.8478  0.2882
12843TIP3   OH259943   2.767   5.040   0.023  0.2472 -0.1956  0.0411
12843TIP3    H159944   2.814   4.959   0.044  0.6934  0.1778  0.5203
12843TIP3    H259945   2.740   5.075   0.108  2.1981  1.4135  0.0801
12844TIP3   OH259946   6.716   0.592   5.564  0.3459  0.5110 -0.0623
12844TIP3    H159947   6.637   0.615   5.613 -0.2377 -0.4709 -0.5195
12844TIP3    H259948   6.787   0.632   5.614 -0.6243  4.3724 -1.4023
12845TIP3   OH259949   6.126   4.140  12.306  0.4376  0.8787  0.6937
12845TIP3    H159950   6.219   4.162  12.310  0.8699 -0.5549 -0.6057
12845TIP3    H259951   6.101   4.122  12.397  1.7521  0.0742  0.9183
12846TIP3   OH259952   2.596   3.672   5.724  0.3165  0.5599  0.0598
12846TIP3    H159953   2.618   3.607   5.790 -0.9667  1.1928  1.1693
12846TIP3    H259954   2.517   3.638   5.682  0.2013  0.9274 -0.0287
12847TIP3   OH259955   6.412   0.365  13.851  0.5384  0.3912 -0.2952
12847TIP3    H159956   6.438   0.290  13.797  0.1385  0.4736 -0.6043
12847TIP3    H259957   6.321   0.382  13.826  0.6084  0.9402 -0.1744
12848TIP3   OH259958   1.813   4.705  11.068 -0.6753  0.5396  0.5210
12848TIP3    H159959   1.719   4.717  11.081 -0.6604  1.8780 -0.4650
12848TIP3    H259960   1.853   4.775  11.120 -0.2845  0.8107 -0.1469
12849TIP3   OH259961   1.926   2.714   3.163  0.0317 -0.3110  0.1870
12849TIP3    H159962   1.961   2.744   3.247  0.7153 -0.2391 -0.1243
12849TIP3    H259963   2.002   2.695   3.110 -0.3464  1.3741 -1.0565
12850TIP3   OH259964   3.694   2.675   0.552 -0.3757 -0.2483  0.5836
12850TIP3    H159965   3.715   2.766   0.574 -1.0395 -0.2937  1.4303
12850TIP3    H259966   3.606   2.679   0.515 -0.5848 -0.6036  1.0374
12851TIP3   OH259967   1.797   1.469  11.977 -0.0761  0.5965  0.7961
12851TIP3    H159968   1.755   1.451  12.061  0.0691  1.0558  0.9718
12851TIP3    H259969   1.887   1.492  12.000 -0.2795  1.6478  0.6098
12852TIP3   OH259970   4.457   4.447  13.007  0.5899 -0.2200  0.3724
12852TIP3    H159971   4.462   4.535  12.970  0.3449 -0.4059 -0.1189
12852TIP3    H259972   4.364   4.437  13.031  1.0723  0.6034  2.8277
12853TIP3   OH259973   2.425   2.794  13.293  0.0134  0.5245  0.3523
12853TIP3    H159974   2.336   2.829  13.292 -0.2776 -0.1316 -1.7350
12853TIP3    H259975   2.466   2.829  13.214  0.3685 -2.0627 -0.7318
12854TIP3   OH259976   4.774   0.463  14.253  0.5474 -0.2960 -0.1046
12854TIP3    H159977   4.818   0.513  14.184 -0.3455  1.8081  0.7883
12854TIP3    H259978   4.699   0.516  14.278  0.0988 -1.6340  1.6063
12855TIP3   OH259979   5.962   0.589  13.158  0.3002  0.4267  0.0776
12855TIP3    H159980   5.969   0.587  13.063 -0.5806  0.4252  0.0096
12855TIP3    H259981   5.879   0.547  13.177 -0.8797  2.8583  0.6692
12856TIP3   OH259982   4.686   1.945   3.712  0.4167  0.0081 -0.1996
12856TIP3    H159983   4.660   1.853   3.705 -0.5314  0.1821  0.7167
12856TIP3    H259984   4.753   1.956   3.645  1.8334 -1.7838  0.8098
12857TIP3   OH259985   3.925   5.255  15.937  0.0948 -0.0231 -0.9358
12857TIP3    H159986   3.935   5.160  15.932  0.6869  0.0902 -2.3853
12857TIP3    H259987   3.969   5.279  16.019  1.6458 -0.8268 -1.4850
12858TIP3   OH259988   4.088   6.063  10.586 -0.0812  0.0771 -0.4225
12858TIP3    H159989   4.101   6.132  10.521 -0.0032  2.5875  2.0636
12858TIP3    H259990   4.176   6.038  10.613 -0.1336 -0.4866 -0.7365
12859TIP3   OH259991   0.468   3.934   3.283  0.4539 -0.2113 -0.0857
12859TIP3    H159992   0.477   3.897   3.371  0.0577 -0.7137 -0.2529
12859TIP3    H259993   0.442   3.860   3.228  0.4572  0.1510 -0.5784
12860TIP3   OH259994   4.195   5.805   5.700 -0.3618  0.5602 -0.0949
12860TIP3    H159995   4.174   5.891   5.663 -1.2483  0.1117 -0.6805
12860TIP3    H259996   4.218   5.823   5.791  1.2466  1.6233 -0.6580
12861TIP3   OH259997   3.266   0.473   3.740  0.4946 -0.4118  0.7120
12861TIP3    H159998   3.304   0.505   3.822  1.4505  0.5268 -0.0565
12861TIP3    H259999   3.273   0.378   3.745  1.2476 -0.3330  1.4032
12862TIP3   OH260000   2.296   2.627  11.242  0.0128  0.5933  0.6147
12862TIP3    H160001   2.349   2.651  11.166  0.2509 -1.2203  0.1578
12862TIP3    H260002   2.360   2.615  11.312  0.1828 -0.8931  0.2439
12863TIP3   OH260003   6.603   2.908   0.696 -0.5690  0.5980 -0.0255
12863TIP3    H160004   6.526   2.963   0.679 -1.1341  0.1072  0.8307
12863TIP3    H260005   6.641   2.946   0.776 -0.3818  0.3570 -0.0005
12864TIP3   OH260006   0.884   6.340   0.564 -0.0507 -0.4843  0.3009
12864TIP3    H160007   0.851   6.415   0.613  0.5381 -0.2119  0.2839
12864TIP3    H260008   0.864   6.359   0.473  1.9909  0.6658  0.0495
12865TIP3   OH260009   2.089   0.036   6.910 -0.4581 -0.5966 -0.1579
12865TIP3    H160010   2.180   0.008   6.903 -0.4373 -0.4600 -0.4301
12865TIP3    H260011   2.090   0.128   6.883 -0.2467  0.1859  2.2852
12866TIP3   OH260012   1.196   0.830   1.698  0.6376 -0.3981  0.1596
12866TIP3    H160013   1.214   0.880   1.619  1.1603  0.4853  0.8135
12866TIP3    H260014   1.257   0.756   1.694  0.6300 -0.3793 -0.2874
12867TIP3   OH260015   1.110   0.764   4.262 -0.4436  0.0855  0.5928
12867TIP3    H160016   1.097   0.701   4.333  0.6382 -0.2886  0.4696
12867TIP3    H260017   1.144   0.842   4.305 -0.7966  0.2334  0.6107
12868TIP3   OH260018   0.545   6.228  16.035  0.2905 -0.4490  0.1009
12868TIP3    H160019   0.563   6.261  15.947 -0.2840 -0.5144 -0.0464
12868TIP3    H260020   0.471   6.281  16.065  1.7112  0.9429  1.3162
12869TIP3   OH260021   3.314   1.865   0.133  0.0614  1.1338  0.2350
12869TIP3    H160022   3.253   1.848   0.061  0.9846 -0.2404 -0.2657
12869TIP3    H260023   3.307   1.788   0.188 -2.4655  3.1556  3.0875
12870TIP3   OH260024   0.937   4.255  15.137  0.6175  0.1185  0.0651
12870TIP3    H160025   0.914   4.272  15.045  0.9046  0.1457 -0.0027
12870TIP3    H260026   0.877   4.185  15.164 -0.8529  1.4859  0.4671
12871TIP3   OH260027   5.172   4.499   0.772 -0.0794  0.1515 -0.4467
12871TIP3    H160028   5.230   4.568   0.741  0.5986 -0.6472 -1.0001
12871TIP3    H260029   5.210   4.418   0.737 -1.0902 -0.4622 -0.1702
12872TIP3   OH260030   4.600   6.685   2.946  0.4785 -0.1664 -0.3851
12872TIP3    H160031   4.653   6.606   2.954  1.2110  0.5016  3.5154
12872TIP3    H260032   4.657   6.755   2.979 -0.6839  1.7703 -2.2129
12873TIP3   OH260033   3.645   2.843   1.128 -0.1455  0.1267 -0.2895
12873TIP3    H160034   3.689   2.758   1.124  0.7024  0.6060 -1.9383
12873TIP3    H260035   3.604   2.853   1.042 -0.3994  1.3058 -0.0521
12874TIP3   OH260036   1.267   4.129   0.019 -0.1166 -0.3052  0.2545
12874TIP3    H160037   1.245   4.163  -0.068 -0.1806 -1.3085 -0.1434
12874TIP3    H260038   1.363   4.131   0.022 -0.1391  0.6567  0.5569
12875TIP3   OH260039   6.120   3.310   1.136 -1.3051  0.1350 -0.2110
12875TIP3    H160040   6.057   3.326   1.066 -1.7342 -0.6641 -0.0275
12875TIP3    H260041   6.180   3.245   1.099 -0.9102  0.4897 -0.1954
12876TIP3   OH260042   4.120   2.785  16.456  0.9264 -0.6098 -0.4418
12876TIP3    H160043   4.046   2.796  16.396  0.4839  0.3940  0.2700
12876TIP3    H260044   4.089   2.820  16.539  2.0073 -0.7238  0.0230
12877TIP3   OH260045   0.735   5.607  15.142 -0.3317  0.1870 -0.3735
12877TIP3    H160046   0.817   5.652  15.121 -0.1114 -0.0132  0.0307
12877TIP3    H260047   0.738   5.527  15.089  1.3139 -1.4646  2.0342
12878TIP3   OH260048   5.581   6.628   2.162 -0.7175 -0.6374 -0.3817
12878TIP3    H160049   5.664   6.655   2.201 -0.9296  0.0717 -0.4033
12878TIP3    H260050   5.593   6.535   2.142  0.1751 -0.4755 -0.6585
12879TIP3   OH260051   5.707   0.887   0.512 -0.3971 -0.5024  0.2974
12879TIP3    H160052   5.617   0.880   0.481 -0.6094 -2.4555  1.1510
12879TIP3    H260053   5.761   0.873   0.433 -0.8170  0.6066 -0.2014
12880TIP3   OH260054   2.048   1.726  11.077  0.4642  0.5082  0.6607
12880TIP3    H160055   2.041   1.788  11.004 -0.6163 -0.2036  0.1297
12880TIP3    H260056   2.039   1.640  11.036  0.3193  0.0700  1.5830
12881TIP3   OH260057   2.783   2.982   3.624  0.9327 -0.0374 -0.1153
12881TIP3    H160058   2.730   3.061   3.635  0.9413  0.3577 -2.5064
12881TIP3    H260059   2.869   3.014   3.596  0.5134 -0.8870 -2.5803
12882TIP3   OH260060   6.656   4.265  13.475  0.6614 -0.0173  0.0688
12882TIP3    H160061   6.665   4.188  13.530 -0.2058 -0.3168 -0.1986
12882TIP3    H260062   6.746   4.289  13.452  1.0799  0.4303  2.0192
12883TIP3   OH260063   6.312   5.820   1.548 -0.3429 -0.7665  0.0212
12883TIP3    H160064   6.293   5.805   1.641 -0.3705 -0.9967 -0.0224
12883TIP3    H260065   6.405   5.799   1.539 -0.7753 -2.6608 -0.4051
12884TIP3   OH260066   1.834   6.027   1.258  0.5838 -0.0094  0.5042
12884TIP3    H160067   1.782   6.005   1.336  0.1428 -0.7565  0.0155
12884TIP3    H260068   1.899   5.957   1.252 -0.7067 -1.1599 -0.9576
12885TIP3   OH260069   2.257   6.444   1.697 -0.2433 -0.0340 -0.4027
12885TIP3    H160070   2.179   6.428   1.644  0.7106 -1.7530 -1.3626
12885TIP3    H260071   2.330   6.438   1.635  0.7351  0.5126  0.6589
12886TIP3   OH260072   0.181   0.171  14.431  0.2201 -0.1121 -0.2096
12886TIP3    H160073   0.203   0.121  14.353  1.6982 -0.5857  0.4741
12886TIP3    H260074   0.092   0.145  14.452  0.7527 -2.0636 -0.1889
12887TIP3   OH260075   0.235   0.802  12.212  0.2178  0.3896 -0.8679
12887TIP3    H160076   0.199   0.873  12.266 -0.9529  1.5446 -3.0432
12887TIP3    H260077   0.266   0.738  12.276 -1.0185  1.6940  1.1870
12888TIP3   OH260078   5.977   4.339   4.700 -0.0043 -0.0166  0.2693
12888TIP3    H160079   6.041   4.281   4.743  0.8770 -1.2784 -2.4839
12888TIP3    H260080   6.008   4.427   4.720  1.2930 -0.5790  0.8995
12889TIP3   OH260081   4.013   4.228   2.398  0.6795 -0.0090 -0.6560
12889TIP3    H160082   4.043   4.219   2.489 -0.5357  1.0446 -0.1252
12889TIP3    H260083   3.940   4.166   2.390  0.4713  0.2504 -0.7688
12890TIP3   OH260084   6.656   5.083  14.453 -0.3866 -0.6697  0.5950
12890TIP3    H160085   6.573   5.110  14.413  0.0254 -1.7017 -1.0424
12890TIP3    H260086   6.715   5.069  14.379  1.1028 -0.5019  1.7010
12891TIP3   OH260087   6.464   3.136   2.112 -0.6074  0.0467 -0.3051
12891TIP3    H160088   6.445   3.159   2.021  1.6336 -2.8205 -1.6532
12891TIP3    H260089   6.530   3.200   2.140 -0.5668  0.3345 -1.0481
12892TIP3   OH260090   3.714   2.945  14.295 -0.5538  0.1407  0.3628
12892TIP3    H160091   3.699   2.861  14.252 -1.6096  0.3898  0.1977
12892TIP3    H260092   3.667   2.936  14.379 -1.6578  0.9475 -0.1421
12893TIP3   OH260093   5.748   2.481   0.984  0.0795  0.6300  0.1182
12893TIP3    H160094   5.805   2.452   1.056 -0.4673  0.5576  0.5312
12893TIP3    H260095   5.806   2.531   0.926  0.9966 -0.9861 -0.4451
12894TIP3   OH260096   0.283   1.236   3.867 -0.0996 -0.6375 -0.2195
12894TIP3    H160097   0.366   1.283   3.870  0.3913 -1.4189 -1.1112
12894TIP3    H260098   0.280   1.186   3.949 -0.3755  0.4824  0.4794
12895TIP3   OH260099   3.474   1.053   5.606 -0.1115  0.2835 -0.2794
12895TIP3    H160100   3.475   1.124   5.542 -0.6806 -0.4377 -1.1123
12895TIP3    H260101   3.440   0.977   5.557  1.1830 -0.7595  0.3762
12896TIP3   OH260102   0.745   0.263   2.371 -0.1052 -0.9841  0.3762
12896TIP3    H160103   0.720   0.313   2.293  1.4254  1.2077  1.1778
12896TIP3    H260104   0.840   0.260   2.369  0.0188 -0.3917  2.3881
12897TIP3   OH260105   5.015   4.535  11.303 -0.8368  0.7527 -0.1318
12897TIP3    H160106   5.054   4.478  11.237 -0.6255  1.2795 -0.4642
12897TIP3    H260107   5.076   4.532  11.377 -1.0409  0.2159  0.0232
12898TIP3   OH260108   3.352   5.996  14.121 -0.2291 -0.0200  0.1131
12898TIP3    H160109   3.273   5.951  14.150  0.0509  0.3234  1.4906
12898TIP3    H260110   3.419   5.928  14.121 -0.1311  0.0634  0.7712
12899TIP3   OH260111   1.564   0.073  15.432  0.7034 -0.3727  0.4259
12899TIP3    H160112   1.532   0.162  15.418  0.7804 -0.2043  1.2772
12899TIP3    H260113   1.658   0.082  15.447  1.0205 -0.7740 -1.1148
12900TIP3   OH260114   0.216   2.599   5.902  0.2165  0.1613 -0.1745
12900TIP3    H160115   0.276   2.651   5.849  2.0073 -1.6436 -0.0669
12900TIP3    H260116   0.190   2.527   5.845 -1.2022  0.4471  0.0731
12901TIP3   OH260117   5.792   4.501   0.495  0.0396  0.1770 -0.2699
12901TIP3    H160118   5.717   4.489   0.554  0.6137  1.2183  0.7072
12901TIP3    H260119   5.789   4.425   0.437 -0.5082 -0.9236  1.1402
12902TIP3   OH260120   2.393   5.684  11.628 -0.3109 -0.2145  0.3002
12902TIP3    H160121   2.364   5.776  11.623 -1.7059 -0.6398  0.2052
12902TIP3    H260122   2.444   5.680  11.709 -0.1371  0.6658  0.2538
12903TIP3   OH260123   6.289   4.732   4.862  1.0664 -0.1648 -0.2289
12903TIP3    H160124   6.230   4.803   4.888  0.7059 -0.9241  1.1046
12903TIP3    H260125   6.357   4.775   4.810 -1.0211  0.6404 -2.4818
12904TIP3   OH260126   3.630   2.252  13.818 -0.1235 -0.4983 -0.3044
12904TIP3    H160127   3.725   2.250  13.804 -0.2193 -0.3825 -1.0101
12904TIP3    H260128   3.597   2.178  13.767 -0.3653 -0.8902  0.4000
12905TIP3   OH260129   2.969   1.900   3.122  0.0290 -0.7350 -0.4751
12905TIP3    H160130   2.900   1.936   3.067  0.0372 -1.3892 -0.9274
12905TIP3    H260131   2.985   1.812   3.087 -0.7815 -1.6373  1.2953
12906TIP3   OH260132   4.647   5.946   6.019  0.0068  0.0046  0.7089
12906TIP3    H160133   4.646   6.038   6.044 -0.7341  0.1865  0.0389
12906TIP3    H260134   4.590   5.903   6.084 -1.2516  0.3448 -0.1448
12907TIP3   OH260135   4.375   5.746   0.464 -0.4023 -0.3454 -0.0849
12907TIP3    H160136   4.370   5.800   0.385  0.0443 -1.0686 -0.6227
12907TIP3    H260137   4.355   5.657   0.433 -0.8154 -0.5374  0.7250
12908TIP3   OH260138   2.467   6.768   4.229  0.2343  0.2117  0.3688
12908TIP3    H160139   2.475   6.746   4.322  0.6233 -0.4371  0.1865
12908TIP3    H260140   2.397   6.712   4.197  0.2513  0.2749  0.2207
12909TIP3   OH260141   2.080   6.036   3.806 -0.1998 -0.3185  0.1304
12909TIP3    H160142   2.145   6.085   3.756  0.9209 -1.4102  0.4592
12909TIP3    H260143   2.017   6.102   3.836 -0.0034  0.5722 -1.3242
12910TIP3   OH260144   2.355   4.263   3.123  0.1368  0.0417  0.1743
12910TIP3    H160145   2.356   4.206   3.045  0.2518  2.8459 -2.0194
12910TIP3    H260146   2.267   4.300   3.125  0.4076  0.6643  0.8880
12911TIP3   OH260147   3.340   2.799   5.429 -0.1831 -0.4536  0.4362
12911TIP3    H160148   3.387   2.738   5.485  0.4099  0.3145  0.7902
12911TIP3    H260149   3.296   2.743   5.364  3.4414 -1.1521 -1.7219
12912TIP3   OH260150   4.974   5.860   1.924  0.1065  0.1296 -0.1464
12912TIP3    H160151   5.057   5.873   1.878  0.4735 -0.2688  0.3900
12912TIP3    H260152   4.993   5.791   1.988 -0.9568 -0.7892 -0.8008
12913TIP3   OH260153   0.293   2.511   0.752 -0.6719 -0.0042  0.2379
12913TIP3    H160154   0.256   2.427   0.726 -0.4240 -0.1171  0.2540
12913TIP3    H260155   0.384   2.492   0.772 -0.8188  0.1011  1.0587
12914TIP3   OH260156   6.344   6.336  16.078 -0.2052 -0.1237 -0.2232
12914TIP3    H160157   6.329   6.288  16.160  0.4342  0.5195  0.2915
12914TIP3    H260158   6.345   6.269  16.010 -0.0774 -0.7478  0.3819
12915TIP3   OH260159   3.223   3.113   0.874 -0.1701  0.1245  0.6838
12915TIP3    H160160   3.254   3.042   0.931  0.1499 -0.4291 -0.1582
12915TIP3    H260161   3.266   3.191   0.909  2.1112 -0.5912 -0.3235
12916TIP3   OH260162   0.129   2.515  10.822 -0.3407  0.3628  0.2479
12916TIP3    H160163   0.204   2.457  10.809 -0.1145  0.4411  1.1897
12916TIP3    H260164   0.151   2.565  10.900 -1.0745  0.8688  0.1302
12917TIP3   OH260165   3.838   4.094  11.907  0.0710 -0.1404  0.7497
12917TIP3    H160166   3.827   4.108  11.813  2.5164 -1.4063  0.1956
12917TIP3    H260167   3.872   4.177  11.940  2.3396 -0.6589 -0.1437
12918TIP3   OH260168   4.161   1.476  12.382 -0.4430  0.0949  0.0246
12918TIP3    H160169   4.103   1.549  12.405 -0.3361 -0.1896  1.2527
12918TIP3    H260170   4.248   1.516  12.378 -0.6551  0.4685 -1.5599
12919TIP3   OH260171   5.578   3.378  11.558  0.5754  0.2762 -0.3428
12919TIP3    H160172   5.666   3.345  11.540  0.6367 -0.5928  1.3272
12919TIP3    H260173   5.523   3.299  11.560  0.3367  0.4406  1.6045
12920TIP3   OH260174   1.801   2.141  14.462  0.2503  0.2609  0.5722
12920TIP3    H160175   1.826   2.227  14.496  0.5317  0.4712 -0.1512
12920TIP3    H260176   1.876   2.085  14.483 -0.2269  0.0176  1.6679
12921TIP3   OH260177   6.628   1.372  13.320 -0.2689 -0.4374  0.1681
12921TIP3    H160178   6.648   1.315  13.246  2.9838 -0.2700  0.8005
12921TIP3    H260179   6.644   1.318  13.398 -0.8159  0.2392  0.7657
12922TIP3   OH260180   4.518   3.030   4.493  0.3024 -0.4133  0.3487
12922TIP3    H160181   4.583   3.095   4.466 -0.1993  0.1721  0.5348
12922TIP3    H260182   4.467   3.074   4.561 -0.2567 -0.8867  0.2421
12923TIP3   OH260183   3.764   1.638   4.176  0.3842 -0.1129 -0.0619
12923TIP3    H160184   3.759   1.697   4.101 -0.6012 -1.4508 -1.0938
12923TIP3    H260185   3.706   1.678   4.241 -1.5535 -0.6846 -1.3305
12924TIP3   OH260186   4.932   2.792   5.016  0.0298 -0.0760 -0.3951
12924TIP3    H160187   4.889   2.867   4.975 -0.3385  0.0875  0.2736
12924TIP3    H260188   5.022   2.819   5.030 -0.4010  0.7446  1.0264
12925TIP3   OH260189   3.006   2.228  13.263 -0.3992  0.4638  0.2128
12925TIP3    H160190   3.091   2.268  13.280 -0.1692  0.5690 -1.1283
12925TIP3    H260191   3.011   2.196  13.173 -1.4671 -0.3362  0.4107
12926TIP3   OH260192   4.856   0.224  12.144 -0.4708 -0.8435  0.0842
12926TIP3    H160193   4.827   0.141  12.107 -2.8122  0.4230 -1.0967
12926TIP3    H260194   4.789   0.246  12.208 -0.4768  0.6550 -0.4066
12927TIP3   OH260195   4.265   4.559   2.378  0.0729 -0.3463  0.0259
12927TIP3    H160196   4.295   4.499   2.447 -2.8840  1.0134  2.7916
12927TIP3    H260197   4.256   4.643   2.423 -0.8827  0.9060 -2.3735
12928TIP3   OH260198   5.798   1.866   1.338  0.1401 -0.3852 -0.8580
12928TIP3    H160199   5.705   1.866   1.315 -0.7346  1.8582  2.0332
12928TIP3    H260200   5.841   1.822   1.264 -3.2395 -2.2331 -1.9579
12929TIP3   OH260201   6.659   5.296  10.886 -0.6980  0.7619 -0.0199
12929TIP3    H160202   6.713   5.355  10.833  2.6498 -2.2399 -0.3981
12929TIP3    H260203   6.677   5.209  10.849 -0.4030 -1.1880  4.1689
12930TIP3   OH260204   2.445   6.600  10.670  0.6469 -0.4548 -0.5142
12930TIP3    H160205   2.537   6.590  10.695  0.4454 -0.2337  0.3555
12930TIP3    H260206   2.399   6.534  10.722  0.1418  0.4429  0.2032
12931TIP3   OH260207   5.058   4.903   6.626  0.0971  0.3039  0.0254
12931TIP3    H160208   5.104   4.884   6.707 -0.4097 -0.2340  0.1878
12931TIP3    H260209   4.971   4.867   6.638 -0.0023  0.2710 -0.7338
12932TIP3   OH260210   0.576   4.987   2.237  0.0147  0.0500 -0.2190
12932TIP3    H160211   0.525   4.976   2.318  0.2684  0.4980  0.0040
12932TIP3    H260212   0.629   5.065   2.252  1.0117 -0.5787 -0.3190
12933TIP3   OH260213   3.155   3.849  16.339 -0.4463  0.5447 -0.6298
12933TIP3    H160214   3.228   3.805  16.297  1.1034  2.6421 -0.2894
12933TIP3    H260215   3.146   3.805  16.423  1.3766  1.1272 -0.0872
12934TIP3   OH260216   1.954   4.524  14.530  0.3423  0.1771  0.2047
12934TIP3    H160217   1.863   4.505  14.508  0.1154 -0.5648  1.6796
12934TIP3    H260218   1.952   4.610  14.571  0.3525  0.2862 -0.0218
12935TIP3   OH260219   0.930   4.948   2.195  0.1343  0.0417 -0.4139
12935TIP3    H160220   0.897   4.988   2.276 -0.3948  0.3107 -0.7613
12935TIP3    H260221   0.929   5.019   2.131  1.8523  0.1860 -0.3216
12936TIP3   OH260222   2.991   4.399  12.960 -0.2573  0.2787  0.2341
12936TIP3    H160223   2.940   4.372  12.883 -1.2999  2.3798  0.1384
12936TIP3    H260224   3.061   4.333  12.965 -1.9586 -1.7385 -0.6185
12937TIP3   OH260225   2.669   2.462  12.679  0.1795  0.4317 -0.0048
12937TIP3    H160226   2.693   2.483  12.589 -2.2720  0.9316 -0.6172
12937TIP3    H260227   2.680   2.367  12.686  0.0422  0.3423 -0.9470
12938TIP3   OH260228   0.679   1.823   0.966 -0.5061  0.1516 -0.2137
12938TIP3    H160229   0.630   1.751   1.005 -1.2862 -0.0601 -1.4972
12938TIP3    H260230   0.766   1.787   0.950 -0.2904  0.1307  0.9530
12939TIP3   OH260231   1.584   0.503  14.062 -0.0507 -0.1216  0.1531
12939TIP3    H160232   1.614   0.585  14.101 -0.2490  0.3729 -0.6979
12939TIP3    H260233   1.639   0.492  13.985 -0.7951 -0.1749 -0.3805
12940TIP3   OH260234   3.261   4.819   2.574  0.1856  0.1337 -0.0605
12940TIP3    H160235   3.208   4.789   2.501 -0.5760  0.6180  0.2798
12940TIP3    H260236   3.250   4.914   2.575 -0.9423  0.0400  1.4964
12941TIP3   OH260237   5.605   1.919  16.730 -0.4502  0.0078  0.3046
12941TIP3    H160238   5.651   1.871  16.662 -1.2399 -0.6478  0.2209
12941TIP3    H260239   5.548   1.854  16.772 -1.1821  0.7548  0.5018
12942TIP3   OH260240   1.588   6.491  11.872  0.1604 -0.0923  0.0084
12942TIP3    H160241   1.510   6.456  11.830  0.5504  0.1630 -0.9534
12942TIP3    H260242   1.646   6.513  11.800  0.9899  0.0361  0.7018
12943TIP3   OH260243   0.778   1.237   4.091 -0.0975 -0.6102 -0.3596
12943TIP3    H160244   0.796   1.180   4.165  0.1210  0.7731  0.6937
12943TIP3    H260245   0.698   1.284   4.116  0.7923  0.9525 -0.2889
12944TIP3   OH260246   2.580   3.165   0.672 -0.3793  0.1109  0.3397
12944TIP3    H160247   2.512   3.167   0.740 -0.3481 -0.2248  0.3837
12944TIP3    H260248   2.536   3.130   0.595 -0.3176  0.1311  0.2949
12945TIP3   OH260249   2.569   1.598  14.155 -0.3685 -0.3381 -0.1741
12945TIP3    H160250   2.610   1.582  14.070  2.4720 -1.0200  1.1894
12945TIP3    H260251   2.597   1.524  14.209  0.5532  1.5952  2.1940
12946TIP3   OH260252   1.653   2.857  10.424 -0.0148  0.3271 -0.6932
12946TIP3    H160253   1.641   2.946  10.458 -0.5794  0.6336 -1.6556
12946TIP3    H260254   1.578   2.808  10.458 -0.0835  0.4008 -0.7379
12947TIP3   OH260255   6.200   5.251   0.954  0.8991  0.1354 -0.1170
12947TIP3    H160256   6.185   5.335   0.996 -0.6601  0.0164 -0.3603
12947TIP3    H260257   6.135   5.248   0.884  2.1589 -0.4871 -1.3166
12948TIP3   OH260258   0.016   4.759   1.229 -0.4321  0.2963 -0.5677
12948TIP3    H160259   0.060   4.807   1.300 -1.1749 -0.0259  0.1246
12948TIP3    H260260   0.061   4.788   1.150  1.6715 -0.7147  0.1806
12949TIP3   OH260261   1.330   4.280  10.734 -0.0929 -0.3541 -0.2412
12949TIP3    H160262   1.329   4.223  10.656 -0.9710  0.2251 -0.6749
12949TIP3    H260263   1.416   4.265  10.773 -0.0412 -1.4619 -0.7235
12950TIP3   OH260264   0.267   4.962  12.081 -0.0528  0.3910  0.3611
12950TIP3    H160265   0.238   4.958  11.990  2.3172  0.5971 -0.4874
12950TIP3    H260266   0.279   5.055  12.099  1.6610  0.2678  0.0627
12951TIP3   OH260267   1.520   3.209   6.178  0.0663  0.3762  0.7041
12951TIP3    H160268   1.604   3.188   6.139 -0.7749  0.3405 -1.1872
12951TIP3    H260269   1.464   3.135   6.155 -0.4483  0.3043  2.1020
12952TIP3   OH260270   5.640   1.559   3.634 -0.1872  0.3370 -0.0119
12952TIP3    H160271   5.627   1.546   3.728  0.3885 -0.1053  0.0111
12952TIP3    H260272   5.735   1.558   3.623 -0.2724 -1.1024 -0.7932
12953TIP3   OH260273   5.518   3.271   6.281 -0.7553  0.1089  0.1465
12953TIP3    H160274   5.606   3.257   6.315 -1.6314 -0.7370  2.2434
12953TIP3    H260275   5.516   3.363   6.255  0.6829  0.1844  0.2343
12954TIP3   OH260276   3.553   3.312  13.195 -0.3535 -0.7593  0.1668
12954TIP3    H160277   3.531   3.372  13.266  0.0179 -1.0478  0.5269
12954TIP3    H260278   3.471   3.265  13.178 -0.6509 -0.1501 -0.1285
12955TIP3   OH260279   2.934   2.241  10.576 -0.2717 -0.3721 -0.6235
12955TIP3    H160280   2.944   2.146  10.567  1.8527 -0.5224  1.9560
12955TIP3    H260281   2.968   2.277  10.494 -1.2355 -1.8025 -1.6906
12956TIP3   OH260282   6.536   2.464   5.372 -0.1592  0.6279  0.3981
12956TIP3    H160283   6.508   2.546   5.331 -0.1774  0.8535  0.8484
12956TIP3    H260284   6.458   2.434   5.419 -0.1505  0.3552  0.2388
12957TIP3   OH260285   0.906   4.279   5.307  0.2216 -0.1658 -0.0412
12957TIP3    H160286   0.826   4.322   5.340  1.6365  2.0155  0.7939
12957TIP3    H260287   0.894   4.277   5.212 -1.3062 -0.9586  0.1318
12958TIP3   OH260288   4.612   5.414   5.239 -0.2938  0.0469  0.3552
12958TIP3    H160289   4.591   5.324   5.215 -2.5035  0.4983  0.3758
12958TIP3    H260290   4.664   5.407   5.319 -0.2678 -1.1958  0.2400
12959TIP3   OH260291   6.129   1.547  12.013 -0.0083 -0.2283 -0.2862
12959TIP3    H160292   6.155   1.485  11.945  0.2577 -0.1123 -0.2903
12959TIP3    H260293   6.146   1.633  11.976 -2.4251 -0.0361 -1.1521
12960TIP3   OH260294   3.357   1.598  11.404 -0.1656  0.2068  0.5013
12960TIP3    H160295   3.266   1.574  11.422  0.1445 -1.0589  0.4744
12960TIP3    H260296   3.408   1.543  11.462  0.6296 -0.0328 -0.3984
12961TIP3   OH260297   0.211   1.000  15.668  0.5077  0.3605  0.3870
12961TIP3    H160298   0.296   0.961  15.689  0.5547  0.8981  1.2125
12961TIP3    H260299   0.228   1.094  15.665 -0.1344  0.4994  0.9361
12962TIP3   OH260300   0.331   2.638   4.097  0.1918 -0.1307 -0.0908
12962TIP3    H160301   0.358   2.565   4.152 -1.0158  0.4398  1.3178
12962TIP3    H260302   0.317   2.710   4.157  1.3895  1.3056 -1.4659
12963TIP3   OH260303   4.102   6.324  15.834 -0.5050  0.1496 -0.0101
12963TIP3    H160304   4.083   6.243  15.880 -0.2364  0.2872  0.3470
12963TIP3    H260305   4.075   6.307  15.743 -2.4307  0.3832  0.4801
12964TIP3   OH260306   2.132   6.125  17.059  0.9208  0.2725 -0.4576
12964TIP3    H160307   2.203   6.101  17.119  1.6830  0.2101 -1.3642
12964TIP3    H260308   2.153   6.214  17.031  0.1303  0.6052 -0.0235
12965TIP3   OH260309   4.592   1.074   2.705  0.7119 -0.1264 -0.2637
12965TIP3    H160310   4.602   1.084   2.610 -2.2222 -2.5271 -0.9823
12965TIP3    H260311   4.530   1.143   2.730 -0.1219 -0.7762 -0.5092
12966TIP3   OH260312   3.268   5.320   4.496 -0.1759 -0.0113  0.2458
12966TIP3    H160313   3.215   5.315   4.417  0.0579 -2.4061  0.1505
12966TIP3    H260314   3.229   5.256   4.555  1.1743 -0.0981  1.0884
12967TIP3   OH260315   3.143   1.427   2.167 -0.4479  0.1427 -0.2289
12967TIP3    H160316   3.215   1.374   2.201  0.1952  1.0372 -0.1741
12967TIP3    H260317   3.107   1.473   2.243 -2.7063 -2.1196  0.2006
12968TIP3   OH260318   6.214   6.583  11.881 -0.0496 -0.2399 -0.5195
12968TIP3    H160319   6.127   6.615  11.858 -0.0377 -1.0871 -1.8210
12968TIP3    H260320   6.244   6.537  11.803  0.8296 -1.5105  0.5361
12969TIP3   OH260321   6.020   4.214  14.346  0.3528 -0.4432  0.2866
12969TIP3    H160322   5.938   4.232  14.391 -0.5845 -0.2797 -1.4095
12969TIP3    H260323   6.060   4.300  14.334  0.1307 -0.3810 -0.0296
12970TIP3   OH260324   6.389   3.216  13.619  0.4072  0.2607  0.3468
12970TIP3    H160325   6.389   3.143  13.557  1.1139  0.7362 -0.2232
12970TIP3    H260326   6.426   3.179  13.700  0.0629 -0.1991  0.2998
12971TIP3   OH260327   4.906   2.899   6.288  0.4498 -0.5334 -0.3692
12971TIP3    H160328   4.823   2.946   6.300  0.5807 -0.3771 -0.0955
12971TIP3    H260329   4.973   2.960   6.316  0.7785 -0.0812 -2.0350
12972TIP3   OH260330   6.391   4.413   1.057  0.2892  0.2630 -0.0599
12972TIP3    H160331   6.306   4.413   1.012 -0.1785  1.7085  0.7430
12972TIP3    H260332   6.401   4.503   1.088  2.6111  0.3744 -0.9866
12973TIP3   OH260333   2.556   2.770  11.291  0.0719  0.3156 -0.4056
12973TIP3    H160334   2.556   2.710  11.366  1.9996  0.5899 -0.1292
12973TIP3    H260335   2.617   2.730  11.230  0.0979  1.1596 -0.9361
12974TIP3   OH260336   3.534   2.608   5.335 -0.1127  0.2238  0.5620
12974TIP3    H160337   3.473   2.600   5.262 -0.5173 -1.0581  1.0217
12974TIP3    H260338   3.536   2.521   5.375  2.3387  0.1033  0.3179
12975TIP3   OH260339   0.886   1.312   1.495  0.0613  0.4376  0.1166
12975TIP3    H160340   0.939   1.362   1.558 -1.4183  1.0386  0.9209
12975TIP3    H260341   0.941   1.306   1.417  1.3059  1.0555  0.9085
12976TIP3   OH260342   3.144   0.300  16.038  0.6518 -0.0275 -0.6259
12976TIP3    H160343   3.120   0.269  15.951 -0.4918 -0.5905 -0.1313
12976TIP3    H260344   3.101   0.385  16.046 -1.4291 -1.0820  0.3004
12977TIP3   OH260345   3.156   1.285  15.703  0.2000 -0.2279 -0.1138
12977TIP3    H160346   3.175   1.314  15.614  0.5054 -0.5070 -0.1390
12977TIP3    H260347   3.060   1.288  15.709  0.2178  0.8067 -0.1059
12978TIP3   OH260348   2.704   0.856   4.275  0.3175  0.0750 -0.8555
12978TIP3    H160349   2.722   0.895   4.360  0.9085 -0.2585 -0.8227
12978TIP3    H260350   2.691   0.930   4.216  0.8097  0.3145 -0.6650
12979TIP3   OH260351   1.298   0.859   5.764  0.3163  0.6459  0.3417
12979TIP3    H160352   1.248   0.785   5.799  1.3641 -0.7122 -0.8697
12979TIP3    H260353   1.245   0.936   5.784 -0.9458 -0.4536  1.4311
12980TIP3   OH260354   2.142   6.680   1.810  0.4918  0.0222 -0.0376
12980TIP3    H160355   2.196   6.601   1.807  0.1750 -0.1748 -0.7646
12980TIP3    H260356   2.110   6.684   1.900 -0.4950 -1.3619 -0.3004
12981TIP3   OH260357   0.500   0.662   1.489  0.4149 -0.0415 -0.3703
12981TIP3    H160358   0.458   0.671   1.403 -0.5615 -3.3729 -0.3774
12981TIP3    H260359   0.454   0.726   1.544 -0.7280  0.3580 -1.7116
12982TIP3   OH260360   6.435   1.641   5.350 -0.0490 -0.3117  0.1736
12982TIP3    H160361   6.360   1.670   5.402 -0.7319  0.2194 -1.0759
12982TIP3    H260362   6.506   1.699   5.376 -0.5574  0.3727  0.0487
12983TIP3   OH260363   4.758   2.043  14.475 -0.0746 -0.2360  0.0176
12983TIP3    H160364   4.820   1.984  14.432  0.5425  0.7772 -0.5340
12983TIP3    H260365   4.672   2.012  14.446  0.2392 -0.8206 -0.3176
12984TIP3   OH260366   3.392   6.090  13.296 -0.3666  0.1953 -0.3484
12984TIP3    H160367   3.461   6.152  13.318 -0.3939  0.5672 -1.2576
12984TIP3    H260368   3.373   6.107  13.203 -1.7316  0.1615 -0.0990
12985TIP3   OH260369   3.664   3.004   6.335 -0.2756 -0.1672  0.0172
12985TIP3    H160370   3.682   3.044   6.250  0.6123 -1.2996 -0.3611
12985TIP3    H260371   3.592   2.944   6.318  0.1986 -0.7259 -0.0507
12986TIP3   OH260372   0.409   1.429  16.510 -0.2486  0.2113 -0.3932
12986TIP3    H160373   0.449   1.492  16.569 -0.0711 -0.6800  0.4551
12986TIP3    H260374   0.317   1.425  16.537  0.1137 -1.1648  0.7031
12987TIP3   OH260375   5.514   3.414  13.543  1.7310  0.0356  0.1316
12987TIP3    H160376   5.573   3.442  13.613  1.3889  0.7739  0.1401
12987TIP3    H260377   5.448   3.483  13.539  0.3665 -1.1715  0.7168
12988TIP3   OH260378   6.624   4.903   6.005 -0.7335 -0.5656  0.2747
12988TIP3    H160379   6.617   4.998   6.012 -0.9829 -0.6096  0.6486
12988TIP3    H260380   6.658   4.875   6.090 -3.5031 -1.0950  1.3109
12989TIP3   OH260381   0.365   1.537   0.589  0.2250  0.4485  0.7889
12989TIP3    H160382   0.437   1.491   0.631  0.3203  0.0483  0.1981
12989TIP3    H260383   0.324   1.587   0.660  0.5417 -0.0023  1.3000
12990TIP3   OH260384   0.198   5.684  14.420 -0.4789 -0.3692  0.2753
12990TIP3    H160385   0.115   5.682  14.467 -1.8352 -0.6666 -1.9506
12990TIP3    H260386   0.253   5.744  14.470 -2.8597  1.7176  0.5749
12991TIP3   OH260387   3.759   4.123  12.568  0.3141 -0.1976 -0.1040
12991TIP3    H160388   3.682   4.120  12.511 -0.3424 -1.0358  0.7787
12991TIP3    H260389   3.798   4.209  12.551  0.0276 -0.3464 -1.6390
12992TIP3   OH260390   0.788   0.549  15.840 -0.0636 -1.0143 -0.1037
12992TIP3    H160391   0.749   0.624  15.795  0.8037  0.4830  1.5513
12992TIP3    H260392   0.869   0.533  15.792  0.4526  0.0440  0.3941
12993TIP3   OH260393   4.867   6.176   6.592  0.2537 -0.0849  0.2892
12993TIP3    H160394   4.820   6.256   6.571  0.7208  0.3982  1.0334
12993TIP3    H260395   4.826   6.145   6.673  0.6625 -0.1127  0.4865
12994TIP3   OH260396   0.969   0.915  12.450  0.2228  0.2079 -0.1661
12994TIP3    H160397   0.999   1.003  12.474 -0.0745  0.3483 -0.2873
12994TIP3    H260398   1.033   0.856  12.488  1.2443  0.5341 -1.3013
12995TIP3   OH260399   0.125   0.674  15.238  0.5654  0.6137  0.1228
12995TIP3    H160400   0.189   0.661  15.168 -0.6414  0.2439 -0.9341
12995TIP3    H260401   0.134   0.597  15.294 -0.8109 -0.8419 -1.5473
12996TIP3   OH260402   2.396   0.785  11.086 -0.3818 -0.3739 -0.4898
12996TIP3    H160403   2.323   0.845  11.073 -0.8299 -0.7564  0.2034
12996TIP3    H260404   2.428   0.767  10.998 -2.6076 -2.0184 -1.0457
12997TIP3   OH260405   2.813   3.687  11.902  0.0080 -0.0064  0.3795
12997TIP3    H160406   2.742   3.626  11.884  0.1012 -0.0395  0.1276
12997TIP3    H260407   2.778   3.773  11.877  0.5945 -0.2078 -1.2482
12998TIP3   OH260408   6.030   3.696   3.710  0.4417  0.2548 -0.1076
12998TIP3    H160409   6.102   3.734   3.761  0.1868  0.8099 -0.1600
12998TIP3    H260410   6.059   3.607   3.691  1.1262  0.4820 -0.1456
12999TIP3   OH260411   3.824   4.247   2.759 -0.9121 -0.4926  0.8804
12999TIP3    H160412   3.848   4.172   2.814  2.1190  0.5422  1.1494
12999TIP3    H260413   3.804   4.317   2.820  0.7021  0.1461  0.7250
13000TIP3   OH260414   6.149   4.592   3.456 -0.3148  0.4293 -0.4184
13000TIP3    H160415   6.219   4.589   3.391  0.4729 -2.2604  0.4095
13000TIP3    H260416   6.070   4.608   3.406  0.6453  1.5361 -1.6309
13001TIP3   OH260417   0.023   5.016  13.226 -0.0658  0.0191 -0.1847
13001TIP3    H160418  -0.025   5.043  13.304  1.9911 -2.1484  2.0280
13001TIP3    H260419   0.091   5.083  13.216  0.6889 -0.5473  0.9545
13002TIP3   OH260420   1.722   1.220   0.273 -0.0486  0.0293 -0.2521
13002TIP3    H160421   1.774   1.288   0.230 -1.5883  1.8528  0.6121
13002TIP3    H260422   1.698   1.259   0.357 -1.8003 -1.2169 -0.1330
13003TIP3   OH260423   0.930   4.496   4.497  0.2740  0.1163 -0.1472
13003TIP3    H160424   0.863   4.488   4.429 -1.1654  0.3322  1.2019
13003TIP3    H260425   0.968   4.583   4.483  0.7031 -0.2290 -1.2685
13004TIP3   OH260426   4.027   4.367   4.545  0.4924 -0.1742 -1.1840
13004TIP3    H160427   3.952   4.309   4.532  1.0251 -0.9192 -0.9884
13004TIP3    H260428   3.989   4.455   4.548 -0.7526 -0.6979  1.9332
13005TIP3   OH260429   1.888   3.504   0.317 -0.5985  0.1197 -0.0311
13005TIP3    H160430   1.883   3.410   0.334  0.4499 -0.2764 -1.6601
13005TIP3    H260431   1.956   3.536   0.377  0.1194 -0.4626 -0.5213
13006TIP3   OH260432   0.095   6.656  14.404  0.6158  0.2423 -0.2069
13006TIP3    H160433   0.060   6.568  14.413 -0.8585  0.8677  0.4616
13006TIP3    H260434   0.029   6.703  14.353  0.1473  1.6236  1.5952
13007TIP3   OH260435   4.142   2.625   0.646  0.1021  0.3185  0.1924
13007TIP3    H160436   4.219   2.584   0.608 -0.6064 -0.4913 -0.4133
13007TIP3    H260437   4.137   2.711   0.603  0.4226  0.2015 -0.0816
13008TIP3   OH260438   6.113   3.628  15.562 -0.2941  0.8146 -0.1011
13008TIP3    H160439   6.058   3.663  15.632 -0.0856  0.6157  0.1655
13008TIP3    H260440   6.080   3.539  15.548  0.1170  0.6005  0.2395
13009TIP3   OH260441   1.343   4.210  12.407  0.3253 -0.1170 -0.1119
13009TIP3    H160442   1.376   4.132  12.362  1.3485  0.8408 -1.0888
13009TIP3    H260443   1.403   4.221  12.481  0.4569  0.0008 -0.2365
13010TIP3   OH260444   6.516   1.803  15.582  0.8211 -0.2730  0.5528
13010TIP3    H160445   6.564   1.786  15.501  1.8178 -0.6819  1.2069
13010TIP3    H260446   6.489   1.894  15.576  1.0376 -0.2556 -0.1645
13011TIP3   OH260447   0.838   5.775   0.065  0.5661  0.2478 -0.0878
13011TIP3    H160448   0.760   5.817   0.028  0.6764 -0.0090 -0.6321
13011TIP3    H260449   0.840   5.689   0.023 -0.6743 -1.0527  2.3385
13012TIP3   OH260450   1.057   6.218  15.086 -0.6747 -0.1079 -0.1228
13012TIP3    H160451   1.074   6.269  15.007 -1.6244  1.1530  0.4329
13012TIP3    H260452   0.962   6.206  15.087 -0.5868 -0.8161  0.4036
13013TIP3   OH260453   6.737   0.020  13.185  0.0043 -0.0480  0.1419
13013TIP3    H160454   6.684  -0.042  13.134  3.9109 -2.7425 -1.1321
13013TIP3    H260455   6.768  -0.031  13.260  0.5703  1.4818  0.9926
13014TIP3   OH260456   3.738   2.515   1.998  0.6012  0.1087  0.3707
13014TIP3    H160457   3.760   2.451   2.065 -1.4660  0.2056  1.1950
13014TIP3    H260458   3.806   2.503   1.931  0.1406 -3.1838  0.3041
13015TIP3   OH260459   3.158   1.289   3.503  0.3677  0.2198 -0.4812
13015TIP3    H160460   3.202   1.232   3.567  0.5542 -0.1367 -0.9287
13015TIP3    H260461   3.136   1.231   3.430  0.3745  0.6817 -0.8490
13016TIP3   OH260462   6.211   1.202  15.557 -0.7445 -0.3302  0.3639
13016TIP3    H160463   6.195   1.119  15.512  1.6603 -1.3393  1.2161
13016TIP3    H260464   6.206   1.181  15.650 -2.4915  1.0501  0.6449
13017TIP3   OH260465   3.412   3.590   5.417  0.0816  0.3954  0.4472
13017TIP3    H160466   3.417   3.545   5.502 -0.9839 -1.6053 -0.4786
13017TIP3    H260467   3.327   3.633   5.417 -0.3794 -0.4737  0.0402
13018TIP3   OH260468   1.919   4.159   4.849 -0.4782 -0.0311  0.2165
13018TIP3    H160469   1.926   4.178   4.942  3.4726 -0.2360  0.1162
13018TIP3    H260470   1.870   4.234   4.813  0.0815  1.3294  2.1157
13019TIP3   OH260471   4.597   3.495  15.697  0.6683 -0.8083 -0.4485
13019TIP3    H160472   4.687   3.465  15.711  0.8353  0.5230  1.6623
13019TIP3    H260473   4.553   3.482  15.781 -0.1460  1.6498 -0.3952
13020TIP3   OH260474   4.066   5.729  15.295 -0.2883  0.0731  0.3688
13020TIP3    H160475   4.151   5.766  15.320 -0.4302  1.5979 -1.2285
13020TIP3    H260476   4.081   5.688  15.210 -0.8556 -0.8420  0.7033
13021TIP3   OH260477   1.626   2.485   4.756  0.0462  0.3645  0.0981
13021TIP3    H160478   1.630   2.506   4.662  2.3416  2.5309  0.5747
13021TIP3    H260479   1.690   2.416   4.768 -0.1376  0.1938  0.0946
13022TIP3   OH260480   1.302   6.645   3.736 -0.0854 -0.2333 -0.6646
13022TIP3    H160481   1.350   6.632   3.817 -1.0108  0.3821  0.0053
13022TIP3    H260482   1.339   6.581   3.676  0.8461 -0.4733  0.1329
13023TIP3   OH260483   5.626   2.108  12.595  0.3742  0.6878 -0.1123
13023TIP3    H160484   5.702   2.057  12.624  0.1591  0.4788  0.0874
13023TIP3    H260485   5.617   2.089  12.502 -0.5320 -0.7168  0.2412
13024TIP3   OH260486   3.367   2.946   1.696 -0.1357  0.2637  0.0025
13024TIP3    H160487   3.404   2.883   1.758 -0.7483  0.0212  0.1256
13024TIP3    H260488   3.443   2.995   1.664  0.1191  1.0366  1.6506
13025TIP3   OH260489   1.090   4.340   1.526 -0.1394 -0.0506 -0.2701
13025TIP3    H160490   1.156   4.273   1.508 -1.1893 -1.3451  0.4855
13025TIP3    H260491   1.055   4.317   1.612 -2.1160  0.1301 -0.9671
13026TIP3   OH260492   5.845   2.944  12.433 -0.5611 -0.1344 -0.6245
13026TIP3    H160493   5.874   3.023  12.389  0.0914 -0.3808 -0.6494
13026TIP3    H260494   5.838   2.968  12.525 -0.9984  0.1251 -0.7253
13027TIP3   OH260495   5.259   6.125  12.053  0.1236 -0.0564  0.2563
13027TIP3    H160496   5.252   6.096  12.144 -0.6371 -0.0241  0.2211
13027TIP3    H260497   5.216   6.056  12.002 -0.0433  0.2317 -0.0062
13028TIP3   OH260498   5.738   6.526   0.298  0.6573 -0.4032  0.2682
13028TIP3    H160499   5.783   6.474   0.232  0.0903 -0.1803 -0.3013
13028TIP3    H260500   5.776   6.614   0.291 -0.5376  0.0468 -0.9025
13029TIP3   OH260501   4.232   1.864  13.271 -0.5209 -0.5251  0.3456
13029TIP3    H160502   4.175   1.922  13.322 -0.1221  0.1585  0.0414
13029TIP3    H260503   4.283   1.817  13.337 -0.7499 -0.4222  0.6012
13030TIP3   OH260504   1.397   0.546  16.282  0.3013  0.0306 -0.5244
13030TIP3    H160505   1.360   0.484  16.344  1.9251 -0.2531  0.2268
13030TIP3    H260506   1.355   0.630  16.304  0.1562 -0.2583  0.3348
13031TIP3   OH260507   2.669   1.257  12.454  0.0448 -0.1866 -0.5357
13031TIP3    H160508   2.596   1.228  12.400  1.0133 -1.2375 -1.3392
13031TIP3    H260509   2.643   1.237  12.544 -0.4195 -1.0512 -0.8613
13032TIP3   OH260510   4.851   5.830  13.602  0.5397 -0.7491  0.4249
13032TIP3    H160511   4.762   5.825  13.637  0.7249  0.4101  1.1260
13032TIP3    H260512   4.877   5.921  13.615  0.8400 -0.3583 -2.2819
13033TIP3   OH260513   4.029   3.862   5.662  0.1899 -0.3456  0.3212
13033TIP3    H160514   4.100   3.831   5.718 -1.7521 -1.1562  2.4768
13033TIP3    H260515   4.000   3.783   5.615  0.2871 -0.1286 -0.1150
13034TIP3   OH260516   1.670   4.053   2.372  0.0464 -0.0335  0.1128
13034TIP3    H160517   1.591   4.004   2.396  0.2443 -0.0272  0.8013
13034TIP3    H260518   1.721   4.058   2.453  0.5968  0.2583 -0.2437
13035TIP3   OH260519   3.694   5.039   1.518  0.0255  0.2104 -0.3401
13035TIP3    H160520   3.785   5.051   1.492 -1.2414  2.7238 -4.4992
13035TIP3    H260521   3.663   4.966   1.464 -0.6903  0.0075  0.3257
13036TIP3   OH260522   5.673   5.407   0.596  0.1650  0.2870 -0.0112
13036TIP3    H160523   5.660   5.400   0.502  1.8662  0.1625 -0.2773
13036TIP3    H260524   5.592   5.375   0.635 -0.0783 -0.8702 -1.4237
13037TIP3   OH260525   0.476   4.218  15.016  0.1961 -0.2612  0.0336
13037TIP3    H160526   0.387   4.228  14.985  0.0230 -0.0097  0.6006
13037TIP3    H260527   0.528   4.205  14.937 -0.1051  1.2548 -0.4484
13038TIP3   OH260528   4.142   1.454   3.100 -0.4036  0.0169 -0.3773
13038TIP3    H160529   4.079   1.384   3.117 -0.3564 -0.0595 -0.5098
13038TIP3    H260530   4.113   1.526   3.155 -1.6068  0.5789 -1.6764
13039TIP3   OH260531   0.321   1.483  11.007 -0.0201  0.3069  0.0451
13039TIP3    H160532   0.247   1.543  10.993  1.4146  1.8554 -1.3306
13039TIP3    H260533   0.339   1.447  10.920  2.5099  2.0872 -0.2912
13040TIP3   OH260534   2.696   2.875  12.391  0.3315 -0.0552 -0.3791
13040TIP3    H160535   2.684   2.910  12.303 -1.6481  2.6058  0.7894
13040TIP3    H260536   2.762   2.932  12.431 -1.9785  1.7865  1.1368
13041TIP3   OH260537   5.983   6.533   6.414  0.3797  0.5410 -0.1158
13041TIP3    H160538   5.944   6.470   6.474  2.0789 -0.0429  0.4275
13041TIP3    H260539   5.966   6.618   6.453  1.1821  0.1860  1.0737
13042TIP3   OH260540   3.964   1.186  13.079 -0.5061 -0.5437  0.0497
13042TIP3    H160541   4.035   1.158  13.021  0.6253  0.5178  0.8628
13042TIP3    H260542   3.909   1.241  13.023 -0.4109 -0.9656 -0.4685
13043TIP3   OH260543   6.082   1.321   1.020  0.2096  0.1639  0.4245
13043TIP3    H160544   6.001   1.371   1.028 -0.1139 -0.6160  2.5363
13043TIP3    H260545   6.132   1.344   1.098  1.4536 -0.3854 -0.1801
13044TIP3   OH260546   5.694   4.389  12.795 -0.1717 -0.2454 -0.0358
13044TIP3    H160547   5.681   4.330  12.869 -2.3740  0.0052 -0.1562
13044TIP3    H260548   5.749   4.460  12.830 -0.5062 -0.5373  1.1195
13045TIP3   OH260549   0.760   0.549   4.288 -0.3408  0.1840 -0.5307
13045TIP3    H160550   0.726   0.460   4.298 -0.6423  0.4918  1.7220
13045TIP3    H260551   0.705   0.602   4.346  0.8818  1.5475 -0.5693
13046TIP3   OH260552   0.457   3.115   0.060  0.0633 -0.6273 -0.1528
13046TIP3    H160553   0.452   3.079   0.149  0.5933 -2.7543 -0.9300
13046TIP3    H260554   0.541   3.083   0.026 -1.2778 -2.0765 -2.3075
13047TIP3   OH260555   0.988   0.139   3.680  0.2057  0.2207 -0.4740
13047TIP3    H160556   1.063   0.157   3.737  0.3965 -0.4808 -0.4948
13047TIP3    H260557   1.027   0.106   3.599 -0.1046  0.4285 -0.7100
13048TIP3   OH260558   3.258   4.579  14.666 -0.3396  0.2705 -0.4278
13048TIP3    H160559   3.182   4.590  14.722 -0.4103  1.0655 -0.6723
13048TIP3    H260560   3.331   4.617  14.715 -0.3568  0.7467 -0.7586
13049TIP3   OH260561   1.900   4.976   5.499  0.2502 -0.2529 -0.0861
13049TIP3    H160562   1.988   4.963   5.533 -0.3522 -2.3508  0.8355
13049TIP3    H260563   1.852   5.019   5.569  0.1298 -0.6499  0.0820
13050TIP3   OH260564   4.952   0.398   2.638 -0.4178 -0.5139 -0.0906
13050TIP3    H160565   4.895   0.400   2.561 -0.3968 -1.8542 -0.1704
13050TIP3    H260566   4.906   0.341   2.700 -0.1753  0.1182  0.6885
13051TIP3   OH260567   1.773   3.960  11.435 -0.8274 -0.3861  0.2843
13051TIP3    H160568   1.727   3.956  11.519 -1.3250  1.3162  0.1279
13051TIP3    H260569   1.709   3.996  11.374 -0.4904 -1.6671 -0.8779
13052TIP3   OH260570   2.421   3.638   3.436  0.7370 -0.5979 -0.6713
13052TIP3    H160571   2.350   3.618   3.375  0.6889 -1.5678 -0.3063
13052TIP3    H260572   2.422   3.734   3.439  1.0347 -0.5061 -2.5221
13053TIP3   OH260573   3.388   0.572  11.834  0.9512 -0.1685  0.4209
13053TIP3    H160574   3.313   0.601  11.887  0.4406 -0.4730 -0.1268
13053TIP3    H260575   3.381   0.622  11.753 -0.4259 -2.3148 -0.9027
13054TIP3   OH260576   1.816   5.380   3.611  0.3726 -0.3520 -0.4658
13054TIP3    H160577   1.893   5.329   3.637 -0.2458 -1.4365 -0.6971
13054TIP3    H260578   1.772   5.326   3.546 -0.5628  0.2671 -0.3725
13055TIP3   OH260579   0.429   4.144   1.860 -0.1841  0.3588 -0.3344
13055TIP3    H160580   0.351   4.198   1.874  0.8189  1.3372  2.0973
13055TIP3    H260581   0.470   4.180   1.781 -0.8068  1.5972 -0.1161
13056TIP3   OH260582   0.764   0.151  14.440  0.3253  0.0907 -0.6243
13056TIP3    H160583   0.771   0.159  14.345  3.8761  0.5023 -0.4693
13056TIP3    H260584   0.853   0.164  14.472 -0.8890  1.0590  2.8812
13057TIP3   OH260585   1.838   5.417  16.436  0.2103  0.4371  0.3074
13057TIP3    H160586   1.787   5.338  16.415 -0.3878  1.4344 -2.4124
13057TIP3    H260587   1.921   5.383  16.470 -1.9266 -1.2556  4.6685
13058TIP3   OH260588   4.611   6.158  14.998  0.0362  0.2465 -0.0628
13058TIP3    H160589   4.695   6.121  15.026 -0.6087 -3.5915 -2.3674
13058TIP3    H260590   4.552   6.143  15.071  0.8930  1.0897  0.8139
13059TIP3   OH260591   6.149   4.715   2.111 -0.1649  0.4817  0.2602
13059TIP3    H160592   6.169   4.726   2.018  0.2127  0.6926  0.3646
13059TIP3    H260593   6.190   4.632   2.134  0.0129  0.5849  0.3144
13060TIP3   OH260594   4.601   0.852   3.506  0.0248 -0.3601 -0.6081
13060TIP3    H160595   4.665   0.921   3.492 -0.3546 -0.2104 -1.6465
13060TIP3    H260596   4.531   0.894   3.556  0.1359 -0.1904 -0.5953
13061TIP3   OH260597   5.360   6.278  15.750  0.1764  0.3428 -0.0135
13061TIP3    H160598   5.354   6.355  15.693  1.9931  2.1033  1.9834
13061TIP3    H260599   5.425   6.222  15.709  0.2638  0.8155 -0.5271
13062TIP3   OH260600   6.730   1.881   4.603 -0.5976  0.1196  0.1469
13062TIP3    H160601   6.652   1.825   4.601  0.1479 -0.9399 -0.3995
13062TIP3    H260602   6.769   1.872   4.516  0.3587  0.2995  0.5424
13063TIP3   OH260603   0.783   1.503   4.644  0.8316 -0.2530 -0.0070
13063TIP3    H160604   0.741   1.547   4.718  1.4034 -0.7575  0.6430
13063TIP3    H260605   0.837   1.571   4.603  2.4729 -0.5063  1.5730
13064TIP3   OH260606   0.334   3.300  11.280  0.2761  0.5551  0.1332
13064TIP3    H160607   0.334   3.331  11.371  1.9321  1.5635 -0.1781
13064TIP3    H260608   0.393   3.359  11.234  0.5232 -0.7608 -1.3328
13065TIP3   OH260609   3.143   0.954  13.409  0.0363 -0.5306  0.5533
13065TIP3    H160610   3.116   0.903  13.333  0.2451  0.6740 -0.3708
13065TIP3    H260611   3.066   1.007  13.432 -0.5584 -2.0384  2.2210
13066TIP3   OH260612   1.800   2.175  15.534  0.2583 -0.0187 -0.0528
13066TIP3    H160613   1.755   2.256  15.555 -0.4087 -0.8561  1.9818
13066TIP3    H260614   1.889   2.202  15.509  0.1944  1.3119  1.0638
13067TIP3   OH260615   4.140   3.825  16.127  0.1827 -0.0978  0.0670
13067TIP3    H160616   4.194   3.746  16.124  1.3033  0.6609 -0.4480
13067TIP3    H260617   4.051   3.792  16.139  0.7830 -1.3610  1.3649
13068TIP3   OH260618   6.009   1.391   5.179 -0.0010 -0.4400  0.6118
13068TIP3    H160619   5.995   1.307   5.135 -1.7343 -0.3424  0.9045
13068TIP3    H260620   5.922   1.433   5.180  0.8242  1.3747  0.4492
13069TIP3   OH260621   4.179   4.194  12.740  0.0010  0.1648 -0.4748
13069TIP3    H160622   4.110   4.226  12.797 -2.2912 -1.3336 -2.2404
13069TIP3    H260623   4.190   4.102  12.765 -0.8394 -0.4411 -2.1453
13070TIP3   OH260624   0.351   3.199  13.063  0.1069 -0.0778 -0.9309
13070TIP3    H160625   0.314   3.283  13.038  0.0641  0.5086  0.9402
13070TIP3    H260626   0.314   3.182  13.150  0.7980 -1.6103 -0.9073
13071TIP3   OH260627   3.943   1.903  11.714 -0.3282  0.5366 -0.4181
13071TIP3    H160628   4.012   1.907  11.780 -2.3023  3.5032  1.6922
13071TIP3    H260629   3.988   1.919  11.631  1.8602 -0.5837  0.4721
13072TIP3   OH260630   5.307   4.391   5.972 -0.3429  0.2930  1.0343
13072TIP3    H160631   5.351   4.393   6.057  0.5926 -2.4049  0.6962
13072TIP3    H260632   5.281   4.300   5.961  1.8826 -0.0915 -2.6723
13073TIP3   OH260633   3.152   1.680   2.942  0.8684  0.2309  0.0721
13073TIP3    H160634   3.216   1.615   2.912  1.9730  1.2214  0.2063
13073TIP3    H260635   3.119   1.645   3.024  1.4563 -0.1596  0.1464
13074TIP3   OH260636   0.497   3.962   4.114  0.0947 -0.2112 -0.2164
13074TIP3    H160637   0.552   3.884   4.106  0.1676 -0.3784  1.4724
13074TIP3    H260638   0.559   4.034   4.125  0.0167 -0.0158 -1.0525
13075TIP3   OH260639   3.119   5.897  11.854 -0.3971  0.1343 -0.1360
13075TIP3    H160640   3.206   5.912  11.891  0.4501 -2.1483 -1.0060
13075TIP3    H260641   3.115   5.952  11.776  1.5689 -1.9060 -1.8185
13076TIP3   OH260642   1.646   6.444  16.274 -0.3551 -0.0098 -0.1317
13076TIP3    H160643   1.668   6.537  16.268  1.6590 -0.5333 -2.4615
13076TIP3    H260644   1.579   6.431  16.208 -1.8407  0.0277  1.3113
13077TIP3   OH260645   5.872   2.362  14.855 -0.7068  0.3161  0.1762
13077TIP3    H160646   5.791   2.332  14.813 -1.3584  3.1191 -0.7945
13077TIP3    H260647   5.844   2.407  14.934 -0.1560  1.5894 -0.3250
13078TIP3   OH260648   3.362   4.052   5.834  0.2574  0.1826  0.3011
13078TIP3    H160649   3.293   4.010   5.885 -0.3073 -1.4362 -1.6840
13078TIP3    H260650   3.434   4.064   5.897  0.0700 -2.8448  1.2620
13079TIP3   OH260651   5.413   3.611  16.208 -0.5283  0.1775 -0.4489
13079TIP3    H160652   5.490   3.557  16.191 -0.0831  0.6546  0.0211
13079TIP3    H260653   5.339   3.554  16.188 -0.0811  0.4775 -3.4080
13080TIP3   OH260654   2.885   6.292   4.423  0.0825  0.2068  0.0562
13080TIP3    H160655   2.875   6.201   4.398 -0.9344  0.6046 -1.1085
13080TIP3    H260656   2.972   6.298   4.461 -0.1758 -1.4205  0.9692
13081TIP3   OH260657   1.494   4.914  15.207  0.0436 -0.0040  0.3065
13081TIP3    H160658   1.504   4.978  15.278 -0.5533  1.4355 -0.8560
13081TIP3    H260659   1.537   4.954  15.132  3.7249 -2.9647  0.5581
13082TIP3   OH260660   0.148   2.070  11.557  0.0848  0.9859 -0.3866
13082TIP3    H160661   0.104   2.075  11.642  0.2726 -1.9628  0.0147
13082TIP3    H260662   0.236   2.104  11.574 -0.5168  2.4218  0.0134
13083TIP3   OH260663   0.604   6.152   1.083 -0.1077 -0.0287  0.0460
13083TIP3    H160664   0.671   6.136   1.016 -0.6260 -2.4001  0.0122
13083TIP3    H260665   0.542   6.080   1.072  0.1849 -0.9763  3.5472
13084TIP3   OH260666   2.420   1.591  11.252  0.2078 -0.5152 -0.0256
13084TIP3    H160667   2.507   1.627  11.271 -0.5287  0.6859  1.2983
13084TIP3    H260668   2.362   1.635  11.315 -1.4699 -0.7869 -1.3147
13085TIP3   OH260669   6.609   3.611   4.759 -0.8566 -0.1774  0.0318
13085TIP3    H160670   6.611   3.529   4.709  1.4868  0.4550 -1.0657
13085TIP3    H260671   6.656   3.591   4.840  2.3573  0.6617 -1.4555
13086TIP3   OH260672   0.542   1.292   5.960 -0.3866  0.2670  0.2091
13086TIP3    H160673   0.608   1.244   5.908 -0.6333 -1.9611  1.8002
13086TIP3    H260674   0.592   1.331   6.031 -0.4019  1.1335 -0.2465
13087TIP3   OH260675   2.297   5.551   0.402 -0.2989  0.3182  0.3995
13087TIP3    H160676   2.224   5.554   0.339  0.0008  1.0826  0.0838
13087TIP3    H260677   2.288   5.465   0.443 -0.6927 -0.0751 -0.4625
13088TIP3   OH260678   5.603   1.724   5.612  0.4736 -0.2041 -0.2189
13088TIP3    H160679   5.693   1.740   5.583  0.5532  1.5218  0.8341
13088TIP3    H260680   5.612   1.687   5.700  0.1665 -1.8331 -0.8460
13089TIP3   OH260681   1.349   0.044  14.062  0.2564 -0.1837 -0.0488
13089TIP3    H160682   1.301  -0.030  14.098 -1.7473  0.4976 -1.1847
13089TIP3    H260683   1.395   0.008  13.986 -0.8865 -0.2464 -0.7276
13090TIP3   OH260684   4.266   0.106   1.095 -0.2120 -0.5299  0.0312
13090TIP3    H160685   4.321   0.132   1.021 -1.4168  1.5507 -0.2347
13090TIP3    H260686   4.226   0.024   1.067 -0.2710 -0.0407 -1.4431
13091TIP3   OH260687   4.367   5.379  11.294 -0.1784  0.0033 -0.3499
13091TIP3    H160688   4.407   5.442  11.353 -1.2856  0.7003 -0.3090
13091TIP3    H260689   4.355   5.427  11.212  1.2124 -0.9066 -1.1252
13092TIP3   OH260690   5.391   0.420   1.277 -0.0336  0.4762 -0.3945
13092TIP3    H160691   5.471   0.369   1.268 -0.3119 -0.3885  1.5660
13092TIP3    H260692   5.327   0.375   1.223  0.0644 -0.5506  0.3161
13093TIP3   OH260693   4.731   4.962   2.566 -0.1250  0.0733 -0.1760
13093TIP3    H160694   4.747   5.051   2.534  1.0499 -0.9833 -2.8020
13093TIP3    H260695   4.755   4.906   2.492 -3.4193 -2.3369  0.3833
13094TIP3   OH260696   1.376   5.321   0.045  0.6170  0.5327 -0.0991
13094TIP3    H160697   1.443   5.389   0.056 -0.5673  1.5178  1.3447
13094TIP3    H260698   1.342   5.307   0.133 -1.5810  0.5806 -0.8832
13095TIP3   OH260699   1.641   1.543   2.676 -0.5151 -0.2987  0.3294
13095TIP3    H160700   1.688   1.579   2.600 -0.0869 -0.8092  0.3547
13095TIP3    H260701   1.708   1.500   2.728 -0.1827  2.7428  2.6877
13096TIP3   OH260702   1.758   4.881   3.248 -0.1381  0.3032  0.0105
13096TIP3    H160703   1.841   4.907   3.287  0.5935 -0.1237 -1.1924
13096TIP3    H260704   1.733   4.802   3.296  0.9342 -0.4318 -0.5886
13097TIP3   OH260705   3.916   3.756  12.158 -0.1467  0.0297  0.2254
13097TIP3    H160706   3.906   3.719  12.070  1.0251  2.2255 -0.8873
13097TIP3    H260707   3.934   3.680  12.213 -1.6078 -1.4915 -1.2647
13098TIP3   OH260708   4.209   4.970   1.563  0.4807 -0.5263  0.7087
13098TIP3    H160709   4.279   4.913   1.531  1.3081  1.0398 -0.3774
13098TIP3    H260710   4.231   5.057   1.531 -1.9393  0.0493  0.3915
13099TIP3   OH260711   5.641   2.824  14.146  0.3529  0.2339  0.2571
13099TIP3    H160712   5.729   2.824  14.108  0.6198 -0.7946  0.8254
13099TIP3    H260713   5.605   2.738  14.124 -0.6295  0.7475 -0.2032
13100TIP3   OH260714   6.612   5.299   5.597  0.2717 -0.0095  0.2053
13100TIP3    H160715   6.625   5.328   5.687 -1.2300  1.6010 -0.0505
13100TIP3    H260716   6.695   5.257   5.573  0.7330 -0.3794  2.2772
13101TIP3   OH260717   6.200   2.622   5.982 -0.5443 -0.1155  0.3468
13101TIP3    H160718   6.138   2.616   5.909  1.9567 -0.8891 -1.8937
13101TIP3    H260719   6.259   2.694   5.958  0.5343 -0.6007  1.4125
13102TIP3   OH260720   0.204   5.482  16.878  0.1604  0.7125  0.3687
13102TIP3    H160721   0.150   5.464  16.801  1.9248 -1.0047 -0.5532
13102TIP3    H260722   0.160   5.435  16.949 -0.7497  1.1895  0.1351
13103TIP3   OH260723   3.202   0.122   1.660  0.1108 -0.5560 -0.4494
13103TIP3    H160724   3.220   0.200   1.712  0.1503 -0.0673 -1.1947
13103TIP3    H260725   3.280   0.110   1.607 -0.8352  0.3253 -2.1220
13104TIP3   OH260726   2.672   3.682  11.613 -0.1055 -0.4171 -0.0938
13104TIP3    H160727   2.757   3.721  11.634 -0.9931  1.5072  0.0500
13104TIP3    H260728   2.655   3.622  11.686  1.6979 -1.8762 -0.7754
13105TIP3   OH260729   4.823   0.447  11.387 -0.0955  0.4391  0.2703
13105TIP3    H160730   4.890   0.498  11.342  0.6061 -0.6977  0.0024
13105TIP3    H260731   4.870   0.400  11.456 -0.6991  0.0126  0.3998
13106TIP3   OH260732   6.751   0.816  12.204 -0.2577 -0.2056 -0.8648
13106TIP3    H160733   6.838   0.783  12.228 -0.5004 -0.8222 -0.8310
13106TIP3    H260734   6.705   0.827  12.287  0.9994  3.7088 -0.4776
13107TIP3   OH260735   0.159   2.160  12.474 -0.1747  0.0659  0.7010
13107TIP3    H160736   0.121   2.220  12.410 -1.6569 -0.2534  1.2318
13107TIP3    H260737   0.213   2.101  12.422  1.8783  2.2004  0.2454
13108TIP3   OH260738   5.833   0.837  17.038  0.0260  0.2022  0.2273
13108TIP3    H160739   5.816   0.743  17.035  1.0938  0.0200 -0.9195
13108TIP3    H260740   5.904   0.851  16.974 -1.4710  2.0626 -1.1594
13109TIP3   OH260741   2.516   6.618   5.139 -0.2524 -0.3141 -0.1200
13109TIP3    H160742   2.525   6.706   5.101  0.4069  0.1362  1.0233
13109TIP3    H260743   2.468   6.568   5.073 -0.9040  0.9856 -0.6702
13110TIP3   OH260744   2.868   0.664  15.412  0.5916 -0.4322 -0.0292
13110TIP3    H160745   2.951   0.658  15.364  0.6727 -0.8979  0.1571
13110TIP3    H260746   2.839   0.754  15.399  2.4674  0.5888  2.1097
13111TIP3   OH260747   4.714   4.733  12.483 -0.1575 -0.0508  0.3319
13111TIP3    H160748   4.712   4.658  12.541 -0.1462 -0.2967  0.0192
13111TIP3    H260749   4.780   4.711  12.417  1.4359  1.1483  1.4399
13112TIP3   OH260750   2.755   4.556  11.444  0.7190  0.5954 -0.0987
13112TIP3    H160751   2.755   4.464  11.468  0.7035  0.7264  0.4075
13112TIP3    H260752   2.701   4.561  11.365  0.9296  0.1351 -0.2704
13113TIP3   OH260753   6.687   4.714   1.963  0.4684  0.1831 -0.0906
13113TIP3    H160754   6.722   4.764   1.889 -1.5057  0.1158 -1.1380
13113TIP3    H260755   6.596   4.697   1.939 -0.6765  1.3066  2.9513
13114TIP3   OH260756   6.232   3.313  12.105 -0.1786 -0.2597 -0.3070
13114TIP3    H160757   6.166   3.255  12.067  0.2232  0.2980 -1.9239
13114TIP3    H260758   6.302   3.255  12.135 -0.5333 -0.7154 -0.3572
13115TIP3   OH260759   5.189   2.936   1.788 -0.3146  0.0747  0.2338
13115TIP3    H160760   5.173   2.883   1.710  1.8311  0.8798 -0.8401
13115TIP3    H260761   5.107   2.981   1.804 -0.9707 -0.5483 -1.2183
13116TIP3   OH260762   4.984   3.125   2.089  0.8909 -0.2696 -0.1762
13116TIP3    H160763   5.064   3.164   2.124  0.8675  0.0271 -0.4520
13116TIP3    H260764   4.925   3.121   2.164  0.5833  1.0299 -0.3263
13117TIP3   OH260765   4.672   0.019   4.211  0.6529 -0.0437 -0.4059
13117TIP3    H160766   4.601   0.005   4.148  0.0423  0.8174  0.0579
13117TIP3    H260767   4.627   0.050   4.290  1.6106  1.4613 -0.4153
13118TIP3   OH260768   6.655   3.355  12.693  0.3939  0.0075 -0.0489
13118TIP3    H160769   6.669   3.449  12.681  0.7469 -0.1425 -0.8846
13118TIP3    H260770   6.578   3.349  12.749 -2.0818  0.7811 -3.0924
13119TIP3   OH260771   3.165   2.115  11.395  0.6097  0.1224  0.3130
13119TIP3    H160772   3.107   2.081  11.327 -0.9085  0.4515  1.4009
13119TIP3    H260773   3.204   2.037  11.435 -1.5523 -0.3331  1.6709
13120TIP3   OH260774   2.580   0.256   0.512 -0.2984 -0.6775  0.3419
13120TIP3    H160775   2.506   0.309   0.482 -1.6755 -2.8657 -0.2958
13120TIP3    H260776   2.552   0.166   0.501  0.9262 -1.6629  3.7822
13121TIP3   OH260777   5.044   4.474  16.839 -0.1766 -0.6763 -0.6853
13121TIP3    H160778   5.112   4.536  16.812  0.1472 -0.8707 -0.3228
13121TIP3    H260779   5.089   4.389  16.841 -0.5872 -0.9100 -1.0640
13122TIP3   OH260780   3.000   1.853  13.251  0.1769  0.1570  0.0744
13122TIP3    H160781   3.008   1.938  13.207  1.5722  0.3055  0.5872
13122TIP3    H260782   2.926   1.811  13.207  0.0895  1.2318 -0.8574
13123TIP3   OH260783   1.781   3.107   5.188 -0.1559 -0.1928  0.6754
13123TIP3    H160784   1.695   3.129   5.225 -0.4204 -0.3802  0.1832
13123TIP3    H260785   1.762   3.043   5.119 -0.0289  2.2088 -1.7744
13124TIP3   OH260786   3.437   2.494  14.181  0.4929  0.5018  0.2640
13124TIP3    H160787   3.393   2.469  14.099 -1.8713 -0.9952  1.8847
13124TIP3    H260788   3.513   2.437  14.185  0.2138  0.0561 -0.5179
13125TIP3   OH260789   5.598   0.921   4.865 -0.2265  0.2761 -0.3013
13125TIP3    H160790   5.606   0.987   4.935 -0.8119 -2.3947  2.5144
13125TIP3    H260791   5.505   0.897   4.866  0.2866 -1.8356  0.0420
13126TIP3   OH260792   6.666   3.035   4.971  0.4641  0.5359 -0.0429
13126TIP3    H160793   6.696   2.984   4.896 -0.3087  0.8447 -0.5754
13126TIP3    H260794   6.575   3.055   4.951  0.1243  0.2788  1.1733
13127TIP3   OH260795   6.601   4.465   3.131  0.3878  0.4056  0.1227
13127TIP3    H160796   6.672   4.427   3.184 -0.4590 -0.9437  0.3313
13127TIP3    H260797   6.560   4.390   3.088 -1.2692  1.0851  0.4378
13128TIP3   OH260798   2.129   4.937   1.762 -0.2026 -0.4764  0.0627
13128TIP3    H160799   2.192   4.915   1.832 -0.1863 -0.4157  0.0670
13128TIP3    H260800   2.057   4.876   1.776  0.3624 -1.3421 -0.6466
13129TIP3   OH260801   5.014   6.100  14.843 -0.0371 -0.1415  0.1145
13129TIP3    H160802   4.989   6.192  14.847  0.3149 -0.0417  0.0569
13129TIP3    H260803   5.033   6.084  14.751  2.3533  0.4033  0.4443
13130TIP3   OH260804   1.972   4.856  14.443 -0.4137 -0.0166  0.4581
13130TIP3    H160805   1.907   4.926  14.446 -1.5527 -1.0540  1.0547
13130TIP3    H260806   1.963   4.812  14.527  0.6321 -0.5754  0.2883
13131TIP3   OH260807   5.101   3.108  11.795 -0.6488  0.1858  0.0470
13131TIP3    H160808   5.110   3.174  11.864  1.9866 -0.5695  0.5449
13131TIP3    H260809   5.126   3.154  11.715  1.9621 -0.2661  0.5008
13132TIP3   OH260810   2.134   5.998   2.338  0.1789  0.4998  0.5104
13132TIP3    H160811   2.079   5.928   2.300  1.2007  1.2764 -2.7053
13132TIP3    H260812   2.151   5.968   2.428 -1.2369 -2.2785 -0.0079
13133TIP3   OH260813   1.755   5.460  12.974  0.3621 -0.0774  0.0126
13133TIP3    H160814   1.759   5.367  12.953  0.1483  0.3580 -2.2190
13133TIP3    H260815   1.727   5.502  12.893 -2.1172  1.7199  1.6420
13134TIP3   OH260816   0.686   0.625  14.238 -0.2568  0.3541 -0.0861
13134TIP3    H160817   0.605   0.665  14.271  0.9020  1.2957  1.7508
13134TIP3    H260818   0.715   0.685  14.170 -1.0978 -0.0043 -0.7837
13135TIP3   OH260819   3.433   6.614   1.148 -0.5513 -0.0800 -0.2381
13135TIP3    H160820   3.361   6.610   1.211  0.3201 -2.1711  0.6976
13135TIP3    H260821   3.416   6.542   1.087 -1.2218  1.7161 -2.3069
13136TIP3   OH260822   3.470   6.028  16.014 -0.1720 -0.0574  0.3398
13136TIP3    H160823   3.516   6.109  16.037 -2.0936  1.4421 -0.8269
13136TIP3    H260824   3.488   6.017  15.921 -1.6215  0.2101  0.0139
13137TIP3   OH260825   4.331   0.494  11.262  0.1861  0.2160 -0.0388
13137TIP3    H160826   4.319   0.484  11.168 -0.2446  1.0610 -0.0840
13137TIP3    H260827   4.415   0.538  11.271 -0.4338  1.4392 -0.1070
13138TIP3   OH260828   4.158   5.116  11.543 -0.1958 -0.1890 -0.4688
13138TIP3    H160829   4.067   5.130  11.517 -0.2187 -1.0986 -0.9104
13138TIP3    H260830   4.179   5.028  11.512 -0.0794 -1.1990  2.1668
13139TIP3   OH260831   0.599   3.043  12.279  0.1224 -0.0315 -0.6448
13139TIP3    H160832   0.536   3.087  12.222 -0.2685 -1.1896 -1.1404
13139TIP3    H260833   0.547   2.978  12.327  1.0954 -2.0048 -2.0927
13140TIP3   OH260834   4.871   1.199  14.279 -0.0360 -0.5233  0.1386
13140TIP3    H160835   4.781   1.194  14.309  0.5113 -0.7567  1.8365
13140TIP3    H260836   4.870   1.158  14.192 -1.7105  0.3831 -0.3070
13141TIP3   OH260837   6.200   0.995  13.029 -0.5397 -0.1257 -0.1037
13141TIP3    H160838   6.115   0.961  13.059  0.0117 -0.4203  1.2034
13141TIP3    H260839   6.183   1.028  12.941 -1.7366 -1.2642 -0.3224
13142TIP3   OH260840   1.732   1.492  14.185  0.0254 -0.2050 -0.3820
13142TIP3    H160841   1.645   1.529  14.170 -0.6484 -1.4038  0.4010
13142TIP3    H260842   1.716   1.401  14.210  1.5538 -0.6794 -0.9929
13143TIP3   OH260843   4.287   2.235  13.344 -0.1460  0.5669  0.3471
13143TIP3    H160844   4.364   2.203  13.297  0.4657  3.1311 -0.5274
13143TIP3    H260845   4.253   2.306  13.289 -3.4699 -0.7667  0.4464
13144TIP3   OH260846   3.012   2.917   1.988  0.5981  0.0919  0.0794
13144TIP3    H160847   3.045   2.837   1.947 -1.0281 -0.3002 -0.5268
13144TIP3    H260848   2.934   2.940   1.936 -0.7105  0.3704  2.0742
13145TIP3   OH260849   3.121   0.116   1.957  0.1898 -0.4625 -0.3546
13145TIP3    H160850   3.117   0.065   1.876  0.1842 -1.0820  0.0273
13145TIP3    H260851   3.174   0.193   1.935 -1.8708  0.6626 -1.6333
13146TIP3   OH260852   0.353   5.320   2.208 -0.0703 -0.0524  0.7316
13146TIP3    H160853   0.411   5.389   2.238  0.6559  0.2774 -1.2846
13146TIP3    H260854   0.267   5.344   2.242  0.6217  0.4313  2.2237
13147TIP3   OH260855   4.138   1.884   1.112  0.0409  0.4312 -0.2675
13147TIP3    H160856   4.114   1.926   1.195 -1.6877  0.2881 -0.6530
13147TIP3    H260857   4.055   1.848   1.079  0.6012  0.9184 -2.3025
13148TIP3   OH260858   6.725   0.847   6.306 -0.0829 -0.2992 -0.6604
13148TIP3    H160859   6.810   0.875   6.341 -0.7855 -1.0679  1.8274
13148TIP3    H260860   6.727   0.752   6.311 -1.1238 -0.3244 -0.4607
13149TIP3   OH260861   5.808   0.582  16.991 -0.4188 -0.9833  0.6162
13149TIP3    H160862   5.855   0.512  17.035  2.0665 -0.5555 -1.1379
13149TIP3    H260863   5.752   0.537  16.927 -0.5226 -1.4226  1.0116
13150TIP3   OH260864   5.585   5.762   2.457  0.3556 -0.1090 -0.3190
13150TIP3    H160865   5.532   5.687   2.430  0.6710 -0.4446 -0.0212
13150TIP3    H260866   5.592   5.816   2.378 -0.0738 -0.2702 -0.4704
13151TIP3   OH260867   0.802   5.045   6.416 -0.1205  0.2489 -0.1198
13151TIP3    H160868   0.773   5.131   6.448  1.4769  0.2921  1.4029
13151TIP3    H260869   0.722   5.002   6.386 -1.5377  0.9630  2.2918
13152TIP3   OH260870   2.562   4.579   5.702  0.1447 -0.0472 -0.2432
13152TIP3    H160871   2.536   4.564   5.611  0.0793 -0.5286 -0.1457
13152TIP3    H260872   2.624   4.652   5.697  0.0485  0.0104 -0.6599
13153TIP3   OH260873   1.026   0.944  13.956  0.2552 -0.1273  0.1925
13153TIP3    H160874   1.050   0.975  14.043  0.0024  0.9424 -0.1036
13153TIP3    H260875   1.110   0.939  13.909  0.3174 -0.0740  0.2965
13154TIP3   OH260876   1.270   0.187  11.921  0.0904  0.3592 -0.2488
13154TIP3    H160877   1.181   0.154  11.929 -0.0736  0.9562  0.5315
13154TIP3    H260878   1.271   0.266  11.974  1.4972 -0.4576  1.0200
13155TIP3   OH260879   4.959   2.221  16.125  0.4464 -0.2821  0.4239
13155TIP3    H160880   4.938   2.154  16.190 -1.7109  1.0071  1.1534
13155TIP3    H260881   4.964   2.302  16.176  3.9046  0.1235 -0.2758
13156TIP3   OH260882   5.144   1.141   4.571  0.2010  0.0774 -0.5547
13156TIP3    H160883   5.235   1.129   4.599  0.3163  0.4856 -0.7398
13156TIP3    H260884   5.096   1.158   4.652  0.5767  1.5137 -0.5885
13157TIP3   OH260885   4.991   2.620  13.295  0.2925 -0.2441 -0.3515
13157TIP3    H160886   4.941   2.680  13.350 -0.0638  0.1387 -1.0884
13157TIP3    H260887   5.071   2.604  13.345  0.3756  0.8068 -0.1262
13158TIP3   OH260888   6.459   0.498  10.900  0.0177  0.3827 -0.1997
13158TIP3    H160889   6.425   0.447  10.827  0.3351 -1.7132  1.0321
13158TIP3    H260890   6.392   0.565  10.915 -1.4888 -0.9631 -0.5965
13159TIP3   OH260891   6.493   1.962  13.329 -0.1591 -0.1442  0.9096
13159TIP3    H160892   6.578   1.949  13.372  0.1409  1.9305  1.0354
13159TIP3    H260893   6.433   1.904  13.376  0.9997 -1.0012  1.3864
13160TIP3   OH260894   4.898   4.542  14.663  0.2152  0.0529  0.1606
13160TIP3    H160895   4.957   4.484  14.615 -1.1106 -1.3175  0.1120
13160TIP3    H260896   4.884   4.497  14.747 -2.3124 -0.7031 -0.6007
13161TIP3   OH260897   6.241   1.251   5.253  0.5627  0.3077 -0.0630
13161TIP3    H160898   6.322   1.300   5.241 -0.0576  1.2872 -0.4469
13161TIP3    H260899   6.172   1.314   5.232 -0.2998 -0.4932  0.2804
13162TIP3   OH260900   5.209   6.042  12.309  0.5047  0.6507 -0.1250
13162TIP3    H160901   5.142   5.977  12.292 -1.5600  2.7984 -0.7204
13162TIP3    H260902   5.243   6.020  12.396 -1.9315  0.2129  0.8011
13163TIP3   OH260903   0.458   6.452   5.969  0.4140  0.0602  0.8534
13163TIP3    H160904   0.466   6.369   5.922  1.5458  0.8869 -0.5246
13163TIP3    H260905   0.402   6.432   6.044  0.3785 -1.8526  0.3810
13164TIP3   OH260906   3.150   3.498  13.945  0.2306 -0.6478  0.5583
13164TIP3    H160907   3.225   3.553  13.923  0.8376 -1.8937 -0.6354
13164TIP3    H260908   3.086   3.559  13.981  1.8449  0.4245  1.7499
13165TIP3   OH260909   2.000   5.695  13.964 -0.1079 -0.5643  0.5956
13165TIP3    H160910   1.930   5.744  13.920 -1.8445 -2.7377  0.7546
13165TIP3    H260911   2.021   5.748  14.041  0.3313  1.4253 -0.7909
13166TIP3   OH260912   4.501   4.387  16.906  0.5703  0.0915 -0.6344
13166TIP3    H160913   4.479   4.459  16.847  0.6226  1.6155  1.1118
13166TIP3    H260914   4.596   4.386  16.909  0.5788 -0.3294 -0.9685
13167TIP3   OH260915   0.227   6.162   4.710  0.3405 -0.1008 -0.6759
13167TIP3    H160916   0.240   6.247   4.750  0.0198  2.0508 -4.6542
13167TIP3    H260917   0.298   6.153   4.647 -1.4449 -1.1758 -2.6760
13168TIP3   OH260918   6.573   2.506   4.979  0.0822  0.2270 -0.4590
13168TIP3    H160919   6.613   2.420   4.966 -1.2419 -0.3759 -0.7340
13168TIP3    H260920   6.626   2.547   5.048  2.6716  0.5064 -2.4997
13169TIP3   OH260921   5.181   4.640   4.064 -0.6913  0.0707  0.5485
13169TIP3    H160922   5.122   4.620   3.992  0.0639 -0.8533  0.1585
13169TIP3    H260923   5.225   4.556   4.082  0.8727  0.8409  0.4670
13170TIP3   OH260924   6.100   2.620  13.634 -0.0989  0.1045  0.0802
13170TIP3    H160925   6.148   2.703  13.629 -0.6402  0.4880  0.9147
13170TIP3    H260926   6.088   2.593  13.543  1.0913  0.3440 -0.1700
13171TIP3   OH260927   3.627   0.467  13.473 -0.1601 -0.2709 -1.0511
13171TIP3    H160928   3.681   0.543  13.451 -0.1406 -0.4349 -1.5695
13171TIP3    H260929   3.640   0.455  13.567 -0.3719  0.5293 -0.9178
13172TIP3   OH260930   0.637   1.598  15.637 -0.1139 -0.7182  0.1872
13172TIP3    H160931   0.665   1.535  15.704 -0.4236 -2.8991 -1.6492
13172TIP3    H260932   0.542   1.597  15.641 -0.1317  0.7234  1.0390
13173TIP3   OH260933   0.249   2.498  11.513  0.5654  0.2533 -0.5977
13173TIP3    H160934   0.184   2.503  11.583  1.3742  1.6142  0.1115
13173TIP3    H260935   0.221   2.424  11.460 -0.0711 -0.8598  1.1699
13174TIP3   OH260936   0.797   2.965   4.169  0.0713  0.1465  0.2890
13174TIP3    H160937   0.804   3.058   4.188 -1.0325  0.3389 -0.2006
13174TIP3    H260938   0.803   2.959   4.074 -1.7842 -0.0714  0.1612
13175TIP3   OH260939   2.203   6.439  14.053  0.5243 -0.5295  0.3611
13175TIP3    H160940   2.197   6.382  14.130 -0.9061 -0.6208  0.2106
13175TIP3    H260941   2.240   6.384  13.984 -0.4827 -1.1779  0.3240
13176TIP3   OH260942   3.727   6.638   2.339  0.2752 -0.1547  0.2318
13176TIP3    H160943   3.688   6.718   2.304 -1.3984 -1.0222 -0.0143
13176TIP3    H260944   3.756   6.590   2.261 -0.5414 -0.6586  0.2278
13177TIP3   OH260945   0.444   4.165  12.982  0.0623 -0.1120 -0.2069
13177TIP3    H160946   0.515   4.230  12.983  0.4786 -0.5545  1.6809
13177TIP3    H260947   0.384   4.196  12.913  0.3250  2.2016  0.5317
13178TIP3   OH260948   0.636   0.305   6.120 -0.2914 -0.0713  0.0841
13178TIP3    H160949   0.720   0.351   6.115 -0.3403  0.0925  0.6941
13178TIP3    H260950   0.597   0.318   6.034 -0.3950  1.2255  0.3044
13179TIP3   OH260951   2.649   4.245   6.106  0.2609  0.7150 -0.2657
13179TIP3    H160952   2.649   4.341   6.104 -1.7311  0.8506  1.8114
13179TIP3    H260953   2.698   4.223   6.185 -1.1029  0.1510  0.4514
13180TIP3   OH260954   5.777   0.344  12.919 -0.1583  0.0950 -0.0430
13180TIP3    H160955   5.697   0.330  12.969  0.5339 -0.5941  0.9112
13180TIP3    H260956   5.801   0.257  12.886  0.9638  0.0127  0.9078
13181TIP3   OH260957   1.772   2.823  15.374  0.6175  0.4098  0.0732
13181TIP3    H160958   1.795   2.800  15.284  0.6084  1.7495 -0.2958
13181TIP3    H260959   1.824   2.764  15.428 -0.2745 -1.2352 -0.7982
13182TIP3   OH260960   6.051   3.248  14.414  0.0963 -0.6245  0.1263
13182TIP3    H160961   5.960   3.222  14.429  0.0491  0.3644  1.7792
13182TIP3    H260962   6.047   3.342  14.398  0.8244 -0.5450  0.3570
13183TIP3   OH260963   2.986   5.664  15.872  0.0897 -0.1946 -0.0447
13183TIP3    H160964   2.947   5.607  15.939 -2.0116 -0.0614 -1.0628
13183TIP3    H260965   3.080   5.650  15.880 -0.2450 -2.1072  1.2249
13184TIP3   OH260966   4.694   5.768   4.062 -0.6191  0.2074  0.0590
13184TIP3    H160967   4.687   5.726   3.976  1.2827 -0.9852  0.4205
13184TIP3    H260968   4.669   5.700   4.124  0.9158  0.0622  0.5690
13185TIP3   OH260969   4.687   0.032  12.818  0.4198  0.2808 -0.6234
13185TIP3    H160970   4.783   0.028  12.827  0.3513 -3.4288 -0.1689
13185TIP3    H260971   4.661  -0.057  12.795 -3.2669 -0.0758  3.5972
13186TIP3   OH260972   4.853   5.957   0.462  0.2481 -0.1340  0.4716
13186TIP3    H160973   4.783   6.017   0.488 -0.0254 -0.3211  0.1751
13186TIP3    H260974   4.807   5.878   0.434  0.4410  0.5438 -1.9937
13187TIP3   OH260975   3.779   6.091  12.809 -0.0901  0.7282 -0.5362
13187TIP3    H160976   3.843   6.021  12.820 -1.1523 -0.0317  1.2848
13187TIP3    H260977   3.797   6.126  12.722  2.1496 -0.0764 -0.4672
13188TIP3   OH260978   4.639   3.665  14.118 -0.2017 -0.2148 -0.2762
13188TIP3    H160979   4.609   3.612  14.045 -0.4621  0.1691 -0.4533
13188TIP3    H260980   4.612   3.754  14.096 -0.6976 -0.1594  0.4983
13189TIP3   OH260981   0.285   1.040  14.697  0.2392  0.2426 -0.7297
13189TIP3    H160982   0.251   1.062  14.783 -2.2321 -0.6104 -1.4066
13189TIP3    H260983   0.309   1.124  14.658  1.3700  0.6322  0.7301
13190TIP3   OH260984   5.991   5.993  15.233 -0.0156 -0.1118  0.0731
13190TIP3    H160985   5.974   5.976  15.141 -0.3287  0.5575  0.0017
13190TIP3    H260986   5.993   5.906  15.274 -0.7071 -0.3629 -0.4181
13191TIP3   OH260987   6.544   5.204  13.927  0.8288 -0.6101 -0.1393
13191TIP3    H160988   6.460   5.228  13.888  0.4174  0.5563  1.3651
13191TIP3    H260989   6.609   5.233  13.863  0.1140 -1.6308 -1.3732
13192TIP3   OH260990   3.539   3.558  11.037 -0.3710  0.4392 -0.0752
13192TIP3    H160991   3.484   3.552  10.959  0.0578 -1.5323 -0.2816
13192TIP3    H260992   3.583   3.643  11.029 -0.6829  0.4737 -1.7443
13193TIP3   OH260993   1.191   6.685  13.685  0.3475  0.5473 -0.0115
13193TIP3    H160994   1.204   6.671  13.591 -0.8947  0.1094 -0.1349
13193TIP3    H260995   1.140   6.765  13.691 -0.1870  0.1976  0.2419
13194TIP3   OH260996   2.474   4.908  11.644  0.7005  0.3180 -0.2830
13194TIP3    H160997   2.561   4.872  11.628  0.6042 -0.2725  0.4876
13194TIP3    H260998   2.432   4.846  11.704 -0.9131 -0.3569 -1.9930
13195TIP3   OH260999   1.100   2.216  12.338 -0.1277 -0.7687  0.2604
13195TIP3    H161000   1.025   2.156  12.343 -0.6557 -0.0946  0.6166
13195TIP3    H261001   1.065   2.301  12.364  0.3899 -0.0871 -1.1465
13196TIP3   OH261002   0.258   3.473   5.930  0.0327  0.3868 -0.1806
13196TIP3    H161003   0.175   3.472   5.976  0.0079  1.7321 -0.1568
13196TIP3    H261004   0.300   3.390   5.953  1.2209  1.9715  4.4781
13197TIP3   OH261005   6.126   3.399   2.613 -0.8279  0.4335 -0.2127
13197TIP3    H161006   6.082   3.467   2.664 -1.5213  0.2264 -0.5211
13197TIP3    H261007   6.212   3.392   2.653 -0.9461  1.0962  0.1836
13198TIP3   OH261008   0.024   1.716  12.532  0.9453 -0.7027 -0.1940
13198TIP3    H161009  -0.044   1.669  12.483  0.4783 -0.7437  0.4771
13198TIP3    H261010   0.074   1.762  12.464  0.4964 -0.9901 -0.7368
13199TIP3   OH261011   0.744   5.319   4.609 -0.2517  0.4208  0.1668
13199TIP3    H161012   0.811   5.388   4.605  0.6749 -0.4652 -2.6172
13199TIP3    H261013   0.670   5.359   4.654  0.2161  3.2995 -1.3851
13200TIP3   OH261014   5.344   5.810  16.587  0.1214  0.1846  0.1825
13200TIP3    H161015   5.330   5.877  16.654  2.0100  1.1224 -0.2710
13200TIP3    H261016   5.339   5.858  16.504 -1.0436 -0.7495 -0.3160
13201TIP3   OH261017   3.658   4.134   0.711 -0.2602 -0.1084 -0.5325
13201TIP3    H161018   3.737   4.102   0.754  0.1649  1.3616 -0.1612
13201TIP3    H261019   3.679   4.224   0.687 -1.9257  0.4042 -0.1752
13202TIP3   OH261020   4.896   3.433  12.701  0.0436 -0.7876 -0.0122
13202TIP3    H161021   4.813   3.402  12.664 -0.0632 -0.5550  0.0318
13202TIP3    H261022   4.954   3.442  12.625 -0.0788 -0.6160 -0.0854
13203TIP3   OH261023   1.387   5.099  14.216  0.2893 -0.1899 -0.1481
13203TIP3    H161024   1.418   5.029  14.157 -0.1207 -1.2442  0.8439
13203TIP3    H261025   1.465   5.152  14.232  0.4626 -0.0121 -1.4419
13204TIP3   OH261026   4.968   5.658   1.125 -0.4551 -0.0469  0.3843
13204TIP3    H161027   4.924   5.580   1.159 -1.3537  0.1244 -0.3517
13204TIP3    H261028   5.048   5.665   1.178  0.2397 -2.1217 -0.2967
13205TIP3   OH261029   0.050   0.974  12.402  0.8567 -0.4723 -0.8930
13205TIP3    H161030   0.001   1.031  12.342 -4.6853  0.8948  3.9551
13205TIP3    H261031   0.117   1.032  12.440  1.0727  0.0959 -2.0813
13206TIP3   OH261032   6.168   5.349  11.854 -0.2070  0.0600  0.0092
13206TIP3    H161033   6.138   5.353  11.944  3.5707 -0.9747  1.4996
13206TIP3    H261034   6.121   5.274  11.817  0.1617 -1.2542  2.0331
13207TIP3   OH261035   2.890   0.134  16.394  0.3029 -0.3444  0.5392
13207TIP3    H161036   2.921   0.224  16.379 -2.7508  0.7676  0.2273
13207TIP3    H261037   2.930   0.083  16.324  0.2429  1.2762 -0.7358
13208TIP3   OH261038   1.068   0.679  15.168  0.2171 -0.0530 -0.7273
13208TIP3    H161039   0.988   0.677  15.114  0.3132  0.0891 -0.8757
13208TIP3    H261040   1.094   0.587  15.175 -0.7579 -0.2646  0.5155
13209TIP3   OH261041   6.758   4.937  14.933  0.1703  0.1590 -0.4238
13209TIP3    H161042   6.748   5.026  14.968 -0.1894  0.0500 -0.2461
13209TIP3    H261043   6.733   4.945  14.841 -1.9437 -0.1600  0.0647
13210TIP3   OH261044   3.915   6.157  12.576  0.0881 -0.3849  0.3262
13210TIP3    H161045   3.914   6.232  12.518 -0.4887 -0.1219  0.6705
13210TIP3    H261046   3.917   6.081  12.517  1.8215 -0.1201 -0.0330
13211TIP3   OH261047   1.102   2.836   2.842  0.4256 -0.0826  0.4962
13211TIP3    H161048   1.092   2.827   2.937 -0.2011  1.0878  0.5603
13211TIP3    H261049   1.026   2.887   2.814  0.2557 -0.9494 -0.7443
13212TIP3   OH261050   4.211   5.747  15.589  0.1614  0.0081 -0.1177
13212TIP3    H161051   4.207   5.652  15.578  1.7698  0.1045 -1.9423
13212TIP3    H261052   4.304   5.768  15.585  0.0153  1.4881  2.3175
13213TIP3   OH261053   3.507   3.994  14.198 -0.0582 -0.0098 -0.1487
13213TIP3    H161054   3.550   3.941  14.266  0.3106 -0.6868 -0.8857
13213TIP3    H261055   3.450   4.053  14.246  2.5138  1.7377  0.9769
13214TIP3   OH261056   3.176   4.363  16.781  0.4235 -0.5687  0.8625
13214TIP3    H161057   3.265   4.336  16.804  0.5946 -2.0482 -1.2276
13214TIP3    H261058   3.119   4.312  16.838  0.8885 -1.8100  0.2546
13215TIP3   OH261059   2.821   3.046   0.595 -0.1759 -0.4213 -0.5120
13215TIP3    H161060   2.761   3.092   0.654 -0.0914 -1.6407  0.5792
13215TIP3    H261061   2.821   3.099   0.515 -1.3671  0.5361  0.0775
13216TIP3   OH261062   3.090   5.349   5.154  0.0863 -0.0944  0.3502
13216TIP3    H161063   3.025   5.419   5.163 -1.2018 -1.2906  0.7862
13216TIP3    H261064   3.127   5.362   5.067  0.0983  1.2919  0.5306
13217TIP3   OH261065   5.879   0.578  10.847  0.1003  0.1007  0.4860
13217TIP3    H161066   5.964   0.558  10.806 -0.6574 -0.8141 -0.6851
13217TIP3    H261067   5.814   0.539  10.789 -1.1123  0.2004  1.7203
13218TIP3   OH261068   2.421   2.405  16.789 -0.2651  0.3214 -0.3405
13218TIP3    H161069   2.374   2.486  16.806  1.1287  0.9116  0.9672
13218TIP3    H261070   2.372   2.338  16.836 -0.4955  0.7065 -0.0287
13219TIP3   OH261071   5.787   5.417   2.974  0.7238  0.5169 -0.4257
13219TIP3    H161072   5.846   5.480   2.933  1.7010 -0.3277 -0.3627
13219TIP3    H261073   5.799   5.336   2.924  0.6270 -0.0343  0.4161
13220TIP3   OH261074   1.564   6.094  12.495  0.4365 -0.5040 -0.4211
13220TIP3    H161075   1.603   6.061  12.576  0.2225 -1.2238 -0.6072
13220TIP3    H261076   1.629   6.076  12.428  0.2273 -0.7629 -0.5593
13221TIP3   OH261077   3.805   6.206   3.078 -0.5492  0.4292  0.1958
13221TIP3    H161078   3.812   6.294   3.115 -1.0869  0.2740  0.6875
13221TIP3    H261079   3.832   6.148   3.149  0.5548  0.2177 -0.3677
13222TIP3   OH261080   3.562   6.515   3.235 -0.1467 -0.5444  0.9675
13222TIP3    H161081   3.578   6.450   3.167 -1.4811 -0.9568  1.0340
13222TIP3    H261082   3.467   6.522   3.241 -0.0488  0.0831  2.2264
13223TIP3   OH261083   2.044   6.051   5.935 -0.0025  0.6796 -0.2124
13223TIP3    H161084   2.137   6.066   5.952 -0.2801  4.6688 -1.2463
13223TIP3    H261085   2.005   6.045   6.023  1.0656  0.4433  0.2604
13224TIP3   OH261086   0.270   2.331  11.095 -0.1636 -0.0838 -0.1260
13224TIP3    H161087   0.355   2.373  11.082  0.1260 -0.4069  0.6580
13224TIP3    H261088   0.252   2.285  11.013 -0.1332  0.9381 -0.7231
13225TIP3   OH261089   3.542   5.238   1.712  0.0652  0.0279  0.2674
13225TIP3    H161090   3.596   5.290   1.652 -0.5837  1.0782  0.5654
13225TIP3    H261091   3.606   5.197   1.771  0.6949 -0.8438 -0.9700
13226TIP3   OH261092   6.508   0.796  11.845  0.3670  0.2193  0.5549
13226TIP3    H161093   6.465   0.805  11.930  0.6444 -3.4031  1.2393
13226TIP3    H261094   6.436   0.775  11.785  0.0097  3.8232 -0.4962
13227TIP3   OH261095   1.625   5.155   4.162 -0.1764 -0.5958 -0.2877
13227TIP3    H161096   1.655   5.065   4.177 -1.2936 -1.4374 -2.6159
13227TIP3    H261097   1.696   5.196   4.112 -0.4590 -0.7623 -0.8227
13228TIP3   OH261098   1.446   2.959  12.796  0.0671  0.1819  0.3583
13228TIP3    H161099   1.475   2.879  12.839  0.9127  0.1905 -0.1775
13228TIP3    H261100   1.481   2.953  12.707 -1.6997  0.1202 -0.3901
13229TIP3   OH261101   2.785   2.257   4.134 -0.2082  0.1879 -0.6719
13229TIP3    H161102   2.824   2.170   4.143  0.0348  0.1748 -1.6953
13229TIP3    H261103   2.813   2.286   4.047 -1.4546  0.7014 -0.9158
13230TIP3   OH261104   0.022   4.426   4.426 -0.2814  0.9253  0.0278
13230TIP3    H161105   0.002   4.510   4.466  0.9337  0.3168  2.0652
13230TIP3    H261106  -0.043   4.366   4.464 -0.1155  0.6278 -0.1550
13231TIP3   OH261107   3.713   3.293   1.600 -0.3253  0.5354  0.0492
13231TIP3    H161108   3.669   3.372   1.631  1.3122  1.3525  0.4267
13231TIP3    H261109   3.713   3.302   1.505  0.4169  1.3569  0.1066
13232TIP3   OH261110   0.230   3.178  13.304 -0.0515  0.4654  0.0563
13232TIP3    H161111   0.151   3.197  13.354 -1.2385 -0.4279 -1.3926
13232TIP3    H261112   0.275   3.110  13.354 -0.2503  0.8941  0.8285
13233TIP3   OH261113   3.980   6.338   1.942 -0.0421  0.0367 -0.0064
13233TIP3    H161114   4.070   6.343   1.974  0.4577 -1.1313 -1.1486
13233TIP3    H261115   3.934   6.288   2.010  1.0083 -2.4163 -0.9825
13234TIP3   OH261116   0.389   6.225   5.827 -0.3428  0.1114  0.4361
13234TIP3    H161117   0.309   6.174   5.821  0.2396 -1.0486  1.8485
13234TIP3    H261118   0.424   6.226   5.738 -1.3585 -0.3082  0.0262
13235TIP3   OH261119   3.906   3.160   2.758 -0.0012  0.2702 -0.0403
13235TIP3    H161120   3.816   3.183   2.735  0.1283  0.2256 -0.5960
13235TIP3    H261121   3.899   3.073   2.798 -0.3202  0.6778  0.8117
13236TIP3   OH261122   5.348   3.599   1.200 -0.1444  0.0627  0.0922
13236TIP3    H161123   5.275   3.603   1.263 -0.8249 -0.3229 -0.6612
13236TIP3    H261124   5.323   3.531   1.138  1.2604 -0.6574  0.2942
13237TIP3   OH261125   6.064   4.534  12.008  0.2995  0.2078  0.0173
13237TIP3    H161126   6.093   4.495  12.090 -0.6646  1.1468  0.8370
13237TIP3    H261127   6.093   4.625  12.013 -2.5470  1.1622  0.8327
13238TIP3   OH261128   2.992   5.060   5.930 -0.1583 -0.0983 -0.7779
13238TIP3    H161129   2.923   5.125   5.916 -1.7727 -1.1316  1.6274
13238TIP3    H261130   3.051   5.100   5.993  1.6848  0.8632 -2.9840
13239TIP3   OH261131   2.992   3.511   1.699 -0.3548 -0.1561  0.2759
13239TIP3    H161132   2.937   3.463   1.637 -1.2363  0.8705  0.2175
13239TIP3    H261133   2.931   3.543   1.766  0.0714  1.3908 -0.0267
13240TIP3   OH261134   2.816   6.378  11.692 -1.3332 -0.0006 -0.4261
13240TIP3    H161135   2.775   6.442  11.635 -1.0145  1.5245  0.9879
13240TIP3    H261136   2.757   6.302  11.690 -2.3512  0.7920 -1.2022
13241TIP3   OH261137   1.775   0.556   2.727  0.1031 -0.2991 -0.6211
13241TIP3    H161138   1.722   0.623   2.685  0.9502  1.8834  1.5056
13241TIP3    H261139   1.865   0.581   2.707  0.4607 -0.1515  0.9741
13242TIP3   OH261140   1.392   4.790   1.491  0.6103  0.1506  0.1742
13242TIP3    H161141   1.339   4.870   1.487  1.5218  0.7898  0.4317
13242TIP3    H261142   1.462   4.811   1.552  2.4732  0.1540 -1.8163
13243TIP3   OH261143   2.324   4.907   4.883  0.5782 -0.3052 -0.0798
13243TIP3    H161144   2.389   4.974   4.862  0.3744 -0.1640 -0.2651
13243TIP3    H261145   2.372   4.842   4.935  0.6407  0.2776  0.6144
13244TIP3   OH261146   0.620   3.751   0.260 -0.1876 -0.0005 -0.4374
13244TIP3    H161147   0.537   3.790   0.233 -0.7795 -0.1409  1.1014
13244TIP3    H261148   0.644   3.799   0.339  1.7479  0.7436 -1.4002
13245TIP3   OH261149   4.841   3.971   5.952  0.6801  0.3214 -0.1492
13245TIP3    H161150   4.890   4.022   6.016  1.1838 -1.3354  0.8519
13245TIP3    H261151   4.873   3.881   5.963 -2.0008 -0.7056 -0.0126
13246TIP3   OH261152   4.054   3.305  16.689 -0.1351 -0.4192  0.1770
13246TIP3    H161153   4.055   3.395  16.656  0.2275 -1.0783 -1.7879
13246TIP3    H261154   4.140   3.292  16.728  1.3632 -0.9893 -2.9748
13247TIP3   OH261155   0.218   1.892   2.920 -0.3311 -0.6516 -0.1778
13247TIP3    H161156   0.291   1.946   2.889 -0.2989 -0.7937 -0.3532
13247TIP3    H261157   0.261   1.813   2.954 -0.4089 -0.7851 -0.3860
13248TIP3   OH261158   3.752   5.767  14.855 -0.3249 -0.0812 -0.1421
13248TIP3    H161159   3.822   5.710  14.823  0.0786  0.4531 -0.2323
13248TIP3    H261160   3.696   5.710  14.907 -0.3920 -0.7436 -0.9110
13249TIP3   OH261161   4.978   0.897  13.382  0.4363 -0.3061 -0.7510
13249TIP3    H161162   5.013   0.809  13.370  0.8012 -0.2774  0.0395
13249TIP3    H261163   5.053   0.949  13.411  0.2425  0.2870 -1.2963
13250TIP3   OH261164   0.182   3.168  14.111 -0.4119 -0.7461  0.2665
13250TIP3    H161165   0.125   3.177  14.187  0.0204  1.4471  0.4152
13250TIP3    H261166   0.124   3.143  14.039 -1.0664 -1.3836  1.0086
13251TIP3   OH261167   2.871   6.041   1.910  0.0735 -0.6680 -0.2211
13251TIP3    H161168   2.810   5.968   1.900  1.5038 -1.9665  0.1759
13251TIP3    H261169   2.845   6.103   1.842 -3.5557  0.2503  1.7571
13252TIP3   OH261170   3.273   4.149   3.191  0.3788 -0.7849  0.3175
13252TIP3    H161171   3.330   4.073   3.205  1.4562  0.2051  1.5900
13252TIP3    H261172   3.204   4.139   3.257 -0.3991 -1.4640 -0.5710
13253TIP3   OH261173   6.127   6.499   0.564 -0.1718  0.1016 -0.1286
13253TIP3    H161174   6.171   6.547   0.635  2.4553 -1.8994 -0.2701
13253TIP3    H261175   6.082   6.427   0.608  1.1113 -0.8953 -0.3975
13254TIP3   OH261176   6.494   2.896  13.731  0.2580  0.0322 -0.5011
13254TIP3    H161177   6.568   2.951  13.706  0.1959  0.1572 -0.4136
13254TIP3    H261178   6.486   2.832  13.661  0.7801 -0.3122 -0.2433
13255TIP3   OH261179   2.730   3.609   2.178  0.2273  0.2187  0.2916
13255TIP3    H161180   2.760   3.662   2.253 -2.0796  0.1052  1.3867
13255TIP3    H261181   2.641   3.640   2.162  0.8050  0.5992 -2.8253
13256TIP3   OH261182   6.784   1.811  11.258  0.4132  0.2547 -0.1285
13256TIP3    H161183   6.730   1.782  11.184 -0.0188  1.0016 -0.1134
13256TIP3    H261184   6.826   1.891  11.227  1.4452 -0.2488 -0.1007
13257TIP3   OH261185   2.021   6.671   6.500  0.0029 -0.3018 -0.6552
13257TIP3    H161186   2.109   6.647   6.470  0.0581 -1.8477  0.6162
13257TIP3    H261187   1.990   6.733   6.434  1.1035 -1.5451 -2.4526
13258TIP3   OH261188   3.589   1.628   4.669 -0.4243 -0.3908  0.0465
13258TIP3    H161189   3.684   1.639   4.667 -0.4267 -0.3149  0.3351
13258TIP3    H261190   3.564   1.646   4.760 -0.8094  0.4348 -0.2059
13259TIP3   OH261191   1.454   2.598  10.374 -0.4368 -0.1558 -0.4328
13259TIP3    H161192   1.363   2.618  10.354 -1.1400 -1.3521  1.3173
13259TIP3    H261193   1.475   2.656  10.448  0.8757  1.4806 -2.0112
13260TIP3   OH261194   5.673   2.675   0.194 -0.7860 -0.4108  0.2949
13260TIP3    H161195   5.679   2.702   0.286  0.7083 -0.1313  0.1464
13260TIP3    H261196   5.708   2.585   0.194 -0.6908 -0.3732 -0.0057
13261TIP3   OH261197   5.090   2.323  13.655 -0.1298 -0.0151  0.2664
13261TIP3    H161198   5.098   2.411  13.690  1.1345 -0.2157  0.5412
13261TIP3    H261199   5.172   2.308  13.608 -0.5226 -0.8758 -0.1726
13262TIP3   OH261200   4.472   5.580   2.266  0.0991 -0.1894  0.0283
13262TIP3    H161201   4.436   5.603   2.180  0.2227 -1.2934 -0.3294
13262TIP3    H261202   4.555   5.628   2.270 -0.2580  0.4604 -0.1447
13263TIP3   OH261203   1.791   6.184  16.045  0.2079 -0.7528 -0.0554
13263TIP3    H161204   1.827   6.132  15.973 -1.4148  0.6701 -2.0295
13263TIP3    H261205   1.700   6.154  16.052 -0.8240  1.8261 -1.3757
13264TIP3   OH261206   5.243   5.934   6.266 -0.5516  0.4141 -0.7179
13264TIP3    H161207   5.178   5.869   6.293 -0.3799  0.1220 -1.0063
13264TIP3    H261208   5.217   5.959   6.178 -0.9023  1.1033 -0.4271
13265TIP3   OH261209   0.016   2.065  11.100 -0.1169 -0.2071  0.0114
13265TIP3    H161210  -0.045   2.053  11.027 -0.4261 -0.7574  0.3582
13265TIP3    H261211   0.093   2.106  11.060 -0.2717 -0.5285 -0.6282
13266TIP3   OH261212   5.242   4.738   5.296  0.3789 -0.0511 -0.3622
13266TIP3    H161213   5.316   4.794   5.320 -0.4724  0.6671  0.7067
13266TIP3    H261214   5.165   4.785   5.327 -0.5592 -0.7092 -1.5883
13267TIP3   OH261215   1.480   5.705   3.792 -0.1171 -0.1753 -0.1723
13267TIP3    H161216   1.413   5.638   3.803  0.0688 -0.4406 -0.6253
13267TIP3    H261217   1.563   5.657   3.797  0.0331  0.1097  0.1036
13268TIP3   OH261218   0.733   6.592  15.818 -0.6895  0.1537  0.1890
13268TIP3    H161219   0.804   6.649  15.788  0.2782 -1.0504  0.0875
13268TIP3    H261220   0.772   6.541  15.889 -1.2085 -1.0497 -0.3566
13269TIP3   OH261221   0.088   3.849   3.817 -0.0201 -0.3046  0.2278
13269TIP3    H161222  -0.005   3.842   3.838  0.1945 -0.8821  1.0342
13269TIP3    H261223   0.123   3.912   3.881 -0.1016  0.9499 -0.9286
13270TIP3   OH261224   2.476   6.337  13.189  0.3966  0.3138 -0.1900
13270TIP3    H161225   2.534   6.286  13.132  0.0202 -0.1688 -0.1573
13270TIP3    H261226   2.413   6.272  13.221  0.0723  0.7572  0.0702
13271TIP3   OH261227   4.030   2.613   2.218  0.0718  0.3883 -0.0911
13271TIP3    H161228   4.095   2.554   2.256 -0.8996 -0.8340 -0.2275
13271TIP3    H261229   4.050   2.699   2.255  1.1547 -0.1488  0.6081
13272TIP3   OH261230   5.664   4.057  12.193  0.2968 -0.1456  0.0572
13272TIP3    H161231   5.673   4.065  12.288 -0.3644  0.5499  0.0713
13272TIP3    H261232   5.736   4.110  12.158  0.0278  0.3120  0.1782
13273TIP3   OH261233   4.813   2.908   4.721 -0.4570  0.3193  0.5800
13273TIP3    H161234   4.861   2.825   4.717 -2.5618 -0.9419 -2.4950
13273TIP3    H261235   4.733   2.888   4.770  0.4469  1.5256  2.7180
13274TIP3   OH261236   0.985   2.770  12.940 -0.4722 -0.2664 -0.0905
13274TIP3    H161237   0.896   2.798  12.917 -0.3883  0.0069 -0.0930
13274TIP3    H261238   1.041   2.812  12.874 -0.3595 -0.5922 -0.2035
13275TIP3   OH261239   4.080   6.080  14.534  0.0508 -0.6074  0.0349
13275TIP3    H161240   4.164   6.124  14.521 -0.5189  1.8212  3.1679
13275TIP3    H261241   4.104   5.995  14.571  1.1321 -0.7472 -0.9198
13276TIP3   OH261242   1.421   3.566  13.268 -0.2429 -0.0051  0.6846
13276TIP3    H161243   1.487   3.612  13.216  1.2852 -0.6417  1.9751
13276TIP3    H261244   1.343   3.621  13.262  0.8421  1.5552  0.3234
13277TIP3   OH261245   5.794   5.625   2.604 -0.0878 -0.0474 -0.5134
13277TIP3    H161246   5.736   5.666   2.540  1.0256 -0.8702 -2.1083
13277TIP3    H261247   5.864   5.690   2.617  0.1411 -0.2337 -0.8057
13278TIP3   OH261248   4.133   5.891   2.842  0.3238  0.1483 -0.3175
13278TIP3    H161249   4.055   5.898   2.898 -1.2258  1.5710 -2.4984
13278TIP3    H261250   4.137   5.799   2.817  1.7039 -0.8079  2.8329
13279TIP3   OH261251   3.528   2.022  15.353 -0.5632 -0.3839 -0.7014
13279TIP3    H161252   3.616   2.035  15.387  0.0235 -2.8755 -1.0959
13279TIP3    H261253   3.478   1.992  15.429 -0.5827 -0.8333 -0.8906
13280TIP3   OH261254   2.929   1.951   4.596 -0.1735 -0.0778  0.0527
13280TIP3    H161255   2.879   1.894   4.538  0.5879  0.5264 -1.2163
13280TIP3    H261256   3.007   1.901   4.618 -0.7151 -0.5303  1.0559
13281TIP3   OH261257   6.176   5.276   3.522 -0.3523  0.6435 -0.2591
13281TIP3    H161258   6.124   5.329   3.582  0.4546  1.2178 -0.0528
13281TIP3    H261259   6.206   5.338   3.455 -1.1977  0.0201 -1.2342
13282TIP3   OH261260   1.172   4.378   2.860  0.2460  0.1160 -0.5356
13282TIP3    H161261   1.090   4.393   2.907 -1.5076 -0.3659 -3.2450
13282TIP3    H261262   1.174   4.283   2.846  0.0288  0.3698 -2.5085
13283TIP3   OH261263   5.045   5.184   0.989  0.2936 -0.0526 -0.1476
13283TIP3    H161264   5.084   5.213   0.906  0.1799 -0.8418 -0.4865
13283TIP3    H261265   4.953   5.169   0.968  0.2999 -0.4210  0.0853
13284TIP3   OH261266   4.774   6.205  15.400  0.4096 -0.1394 -0.6264
13284TIP3    H161267   4.750   6.250  15.480  0.4046  0.2366 -0.8389
13284TIP3    H261268   4.764   6.271  15.331  4.4953  0.8808 -0.4588
13285TIP3   OH261269   5.882   3.719   3.965  0.1114 -0.4123 -0.4389
13285TIP3    H161270   5.864   3.670   3.885 -0.3732 -1.0451  0.0415
13285TIP3    H261271   5.976   3.707   3.980 -0.3599 -3.2815  0.9438
13286TIP3   OH261272   1.558   4.283  15.084  0.1297  0.0508 -0.4583
13286TIP3    H161273   1.643   4.319  15.109 -0.5386  1.8768 -0.6826
13286TIP3    H261274   1.496   4.354  15.099 -1.2484 -0.9735 -1.0670
13287TIP3   OH261275   0.206   1.737   5.082 -0.0249 -0.9727  0.0984
13287TIP3    H161276   0.162   1.740   5.166 -2.6797  0.8790 -1.2056
13287TIP3    H261277   0.299   1.742   5.103 -0.6467  1.9503  2.9337
13288TIP3   OH261278   3.746   6.779   4.926  0.1307  0.3761  0.1275
13288TIP3    H161279   3.802   6.845   4.967  1.0876  0.5317 -1.3375
13288TIP3    H261280   3.807   6.721   4.880 -0.6917 -1.4325  1.1749
13289TIP3   OH261281   4.528   0.688   5.685  0.8722 -0.4390  0.2637
13289TIP3    H161282   4.558   0.769   5.727 -0.9584  0.3194  0.2221
13289TIP3    H261283   4.548   0.700   5.592 -2.0081  1.3598 -0.2449
13290TIP3   OH261284   0.817   2.475   3.659 -0.3013 -0.0749  0.0505
13290TIP3    H161285   0.798   2.471   3.565  1.8880  1.9220 -0.5676
13290TIP3    H261286   0.744   2.524   3.697 -1.5069 -1.4021 -0.4414
13291TIP3   OH261287   6.482   4.546   2.360  0.4810 -0.0076 -0.9191
13291TIP3    H161288   6.547   4.490   2.402  1.9923  2.3744  0.1498
13291TIP3    H261289   6.532   4.619   2.324 -1.1767 -0.1727 -3.8959
13292TIP3   OH261290   2.813   3.006   6.034  0.2072  0.6524 -0.3400
13292TIP3    H161291   2.812   2.924   6.083 -1.9542 -0.6121 -2.3002
13292TIP3    H261292   2.731   3.050   6.058 -0.2368  0.6412 -1.7408
13293TIP3   OH261293   2.305   2.268   0.715  0.3779  0.5668  0.7666
13293TIP3    H161294   2.280   2.186   0.671  1.2955  1.0352 -0.7134
13293TIP3    H261295   2.247   2.273   0.791 -0.5455 -0.8359  0.2009
13294TIP3   OH261296   1.177   3.132  15.322  0.3843 -0.1042  0.5506
13294TIP3    H161297   1.104   3.109  15.264 -0.6221  0.9316  1.3904
13294TIP3    H261298   1.232   3.191  15.270 -0.3323  0.5428  0.5174
13295TIP3   OH261299   3.400   0.167   4.435  0.5361  0.0479 -0.2460
13295TIP3    H161300   3.310   0.162   4.466  0.8930  0.4133  0.8843
13295TIP3    H261301   3.395   0.135   4.345 -1.0171  1.7108 -0.8168
13296TIP3   OH261302   0.479   1.109  11.372  0.4947  0.1360  0.1706
13296TIP3    H161303   0.424   1.177  11.411 -1.1401 -0.9932 -0.0898
13296TIP3    H261304   0.510   1.148  11.289 -2.2061 -0.1360 -1.0753
13297TIP3   OH261305   5.575   5.911   5.091  0.1615 -0.4104 -0.1072
13297TIP3    H161306   5.577   5.841   5.155  1.5473  0.5267  0.9399
13297TIP3    H261307   5.490   5.903   5.048 -1.5645 -0.0753  2.9791
13298TIP3   OH261308   6.566   2.697   0.345  0.2123  0.1208 -0.5678
13298TIP3    H161309   6.473   2.713   0.358  0.5890  3.1341 -0.8733
13298TIP3    H261310   6.595   2.656   0.427 -0.8237  2.0059  0.8020
13299TIP3   OH261311   3.181   5.642  10.604 -0.0884  0.4210  0.6169
13299TIP3    H161312   3.274   5.638  10.579 -0.2057  0.5672  0.1419
13299TIP3    H261313   3.165   5.736  10.617 -0.0751  0.3624  1.0835
13300TIP3   OH261314   5.547   4.992  13.722  0.4864  0.5938  0.5335
13300TIP3    H161315   5.635   4.965  13.698  0.1702 -2.1060  1.9510
13300TIP3    H261316   5.516   4.922  13.781 -3.0968  0.6622 -0.9977
13301TIP3   OH261317   3.423   5.461  15.772 -0.7765  1.0970 -0.4655
13301TIP3    H161318   3.464   5.494  15.692 -1.3943  0.8300 -0.9032
13301TIP3    H261319   3.486   5.399  15.808 -1.2735 -0.2237 -1.7698
13302TIP3   OH261320   3.372   6.052   1.580  0.8970  0.3295 -0.3385
13302TIP3    H161321   3.365   6.114   1.507  1.3243  0.5433 -0.2042
13302TIP3    H261322   3.287   6.010   1.584  0.2846  1.5438  0.1357
13303TIP3   OH261323   1.190   3.989   1.881 -0.0609  0.0728  0.8876
13303TIP3    H161324   1.121   3.999   1.815  0.4809 -2.3837 -0.1814
13303TIP3    H261325   1.260   3.942   1.835  1.2315  0.1815  2.6546
13304TIP3   OH261326   2.347   1.846  16.948 -0.0883  0.1944  0.4835
13304TIP3    H161327   2.274   1.815  17.001  0.2244 -0.5563  0.4918
13304TIP3    H261328   2.424   1.800  16.982  0.3219  0.6529  0.2017
13305TIP3   OH261329   3.629   1.243   2.956  0.1914 -0.2899 -0.5332
13305TIP3    H161330   3.671   1.207   3.034  0.6243 -2.5515 -1.7334
13305TIP3    H261331   3.539   1.213   2.962 -0.1249  0.6599 -0.2865
13306TIP3   OH261332   4.943   6.120   6.165 -0.0017  0.4082 -0.0408
13306TIP3    H161333   4.949   6.070   6.247 -0.9898  1.8813  0.9916
13306TIP3    H261334   4.855   6.102   6.133  1.0354 -1.7715 -1.9443
13307TIP3   OH261335   2.739   1.118  12.830 -0.0206 -0.1206  0.5487
13307TIP3    H161336   2.657   1.090  12.871  0.2312 -0.0819  1.0823
13307TIP3    H261337   2.807   1.073  12.880  0.3119  0.2996  0.4725
13308TIP3   OH261338   6.098   2.410   1.458 -0.1894 -0.2287 -0.4542
13308TIP3    H161339   6.188   2.394   1.483 -0.2807  0.8428  0.6561
13308TIP3    H261340   6.082   2.349   1.386  0.5392 -2.4515  1.1385
13309TIP3   OH261341   2.545   1.024   2.179  0.0998  0.1159  0.3960
13309TIP3    H161342   2.558   1.091   2.246  2.4559  1.8338 -1.5818
13309TIP3    H261343   2.450   1.019   2.168 -0.1970  2.0610  1.6746
13310TIP3   OH261344   6.259   1.502   2.084 -0.3591 -0.5696  0.1615
13310TIP3    H161345   6.311   1.546   2.151 -0.2828  0.4116 -0.5198
13310TIP3    H261346   6.320   1.489   2.011 -1.2305  1.3209 -0.9619
13311TIP3   OH261347   5.100   4.982  12.526 -0.2670 -0.1691 -0.0504
13311TIP3    H161348   5.035   4.925  12.567 -0.5240 -0.1712 -0.4600
13311TIP3    H261349   5.076   4.984  12.434  0.5151 -0.4352 -0.2661
13312TIP3   OH261350   6.051   3.200   3.256 -0.1781  0.1854 -0.0051
13312TIP3    H161351   5.971   3.167   3.213  1.3145 -1.0768 -1.9891
13312TIP3    H261352   6.102   3.121   3.273  0.8519  1.0180  0.8181
13313TIP3   OH261353   6.697   5.434  12.452  0.6560  0.8100  0.2588
13313TIP3    H161354   6.728   5.372  12.517  0.1642  0.7753  0.4694
13313TIP3    H261355   6.724   5.397  12.368  1.0119  0.6912  0.4242
13314TIP3   OH261356   5.858   5.201   3.440 -0.2067 -0.0573  0.9855
13314TIP3    H161357   5.938   5.206   3.492  1.0748 -0.1732 -0.8595
13314TIP3    H261358   5.886   5.225   3.351 -1.8615 -1.7242 -0.0707
13315TIP3   OH261359   0.834   2.090  16.721 -0.4720  0.5883  0.3636
13315TIP3    H161360   0.920   2.114  16.757 -0.7338 -0.1298  1.5438
13315TIP3    H261361   0.789   2.174  16.710 -0.5047  0.8557  2.1430
13316TIP3   OH261362   1.149   0.629  10.855 -0.7377 -0.1818 -0.3844
13316TIP3    H161363   1.058   0.623  10.884 -0.3556 -2.3292  0.5532
13316TIP3    H261364   1.145   0.611  10.761 -1.4719  2.0364 -0.8374
13317TIP3   OH261365   0.896   4.750  15.970  0.2558  0.1797  0.1882
13317TIP3    H161366   0.985   4.745  15.937  0.2963  0.0936  0.3121
13317TIP3    H261367   0.870   4.659  15.985 -0.5053  0.0511 -1.6060
13318TIP3   OH261368   4.835   0.865  14.829  0.1990 -0.1515  0.3723
13318TIP3    H161369   4.884   0.903  14.756 -1.6646  1.4831 -0.1138
13318TIP3    H261370   4.761   0.925  14.842 -1.7913 -2.5807  0.9531
13319TIP3   OH261371   3.600   2.061  14.093 -0.5640 -0.5196 -0.5089
13319TIP3    H161372   3.645   2.049  14.009 -0.2044  0.9157 -0.5536
13319TIP3    H261373   3.660   2.025  14.158  1.1972  2.1708 -0.4686
13320TIP3   OH261374   2.223   0.333  10.638  0.2543  0.0651 -0.6637
13320TIP3    H161375   2.140   0.285  10.651 -0.2062  0.7444 -1.0330
13320TIP3    H261376   2.290   0.266  10.645 -0.2550 -0.3301  0.6971
13321TIP3   OH261377   0.338   0.765  13.363  0.0522  0.0922  0.5392
13321TIP3    H161378   0.305   0.729  13.281  1.5282  0.4860 -0.2619
13321TIP3    H261379   0.305   0.855  13.366  1.7626  0.8310 -0.7658
13322TIP3   OH261380   3.379   5.594  15.098  0.6291  0.2095  0.2216
13322TIP3    H161381   3.355   5.686  15.095 -2.1831 -0.3622  1.5691
13322TIP3    H261382   3.325   5.552  15.031  0.6631 -0.6666  0.7158
13323TIP3   OH261383   0.455   0.998  11.954  0.0857 -0.2107 -0.0534
13323TIP3    H161384   0.509   0.923  11.929 -0.7665 -1.2373  1.0760
13323TIP3    H261385   0.409   1.022  11.874 -1.9219 -2.8588  0.1792
13324TIP3   OH261386   6.615   5.698  12.927  0.2545  0.2608  0.0824
13324TIP3    H161387   6.575   5.726  13.010  1.3377 -1.0312  1.0808
13324TIP3    H261388   6.566   5.746  12.860 -1.6180  0.2460  1.3580
13325TIP3   OH261389   2.414   6.390   5.500  0.0000 -0.0653 -0.2929
13325TIP3    H161390   2.358   6.333   5.552 -0.2818 -1.2895 -1.8451
13325TIP3    H261391   2.354   6.450   5.457  0.0532 -0.1273 -0.4579
13326TIP3   OH261392   0.840   2.789  13.348  0.6170  0.1998  0.0231
13326TIP3    H161393   0.844   2.871  13.397  1.3955 -0.0787  0.4528
13326TIP3    H261394   0.898   2.803  13.273 -0.6892  0.6770 -0.9244
13327TIP3   OH261395   0.758   5.003  15.522  0.1543  0.5165  0.1342
13327TIP3    H161396   0.770   4.935  15.589 -0.4443  0.1505 -0.1197
13327TIP3    H261397   0.842   5.008  15.477  0.0663 -0.3989 -0.1494
13328TIP3   OH261398   2.812   5.058   4.031  0.0844  0.2683 -0.1473
13328TIP3    H161399   2.763   5.012   3.962  0.6683 -0.2041 -0.2530
13328TIP3    H261400   2.849   5.135   3.988 -0.0026  0.2635 -0.2304
13329TIP3   OH261401   0.305   5.269  11.188 -0.3496 -0.5070 -0.2711
13329TIP3    H161402   0.332   5.359  11.175 -0.6494 -0.1753  1.2353
13329TIP3    H261403   0.345   5.221  11.115  1.4804  0.4983  0.0264
13330TIP3   OH261404   6.150   4.762  14.904  0.1858 -0.4735  0.2994
13330TIP3    H161405   6.212   4.697  14.938  1.3915  0.1035 -0.7192
13330TIP3    H261406   6.196   4.846  14.914 -0.1458 -0.1098 -1.1121
13331TIP3   OH261407   6.562   2.192   4.131  0.0524 -0.3265 -0.2720
13331TIP3    H161408   6.467   2.193   4.138 -0.1766  0.0080 -2.5289
13331TIP3    H261409   6.584   2.099   4.120  0.1493 -0.5367  1.4122
13332TIP3   OH261410   6.020   5.490  12.525  0.1883  0.1175  0.0587
13332TIP3    H161411   6.090   5.440  12.482 -0.5367 -2.1547  1.3494
13332TIP3    H261412   5.941   5.469  12.476 -0.1441 -0.1204  0.6812
13333TIP3   OH261413   3.226   3.784   3.556  0.2279  0.1163 -0.1881
13333TIP3    H161414   3.175   3.781   3.637 -0.8580 -0.6522 -0.8588
13333TIP3    H261415   3.275   3.865   3.561  0.1337  0.1059  1.2102
13334TIP3   OH261416   2.170   2.292  14.908 -0.5905  0.9822  0.1500
13334TIP3    H161417   2.157   2.372  14.856  2.1881  0.6951 -1.1558
13334TIP3    H261418   2.250   2.308  14.957 -0.6085 -0.5741  0.7336
13335TIP3   OH261419   0.799   5.891  15.376 -0.0659 -0.3735 -0.5594
13335TIP3    H161420   0.711   5.854  15.382 -0.7755  1.1867 -1.0200
13335TIP3    H261421   0.796   5.948  15.300  0.5682  1.7131  0.8897
13336TIP3   OH261422   2.657   2.014  16.394 -0.3026  0.1946  0.0903
13336TIP3    H161423   2.630   1.932  16.351  1.1268 -0.1047 -0.2846
13336TIP3    H261424   2.688   2.069  16.322 -1.8683  1.3673  0.2485
13337TIP3   OH261425   6.600   4.252   0.572 -0.2383  0.2591  0.0352
13337TIP3    H161426   6.563   4.267   0.659  0.4633  0.9950  0.2242
13337TIP3    H261427   6.571   4.328   0.521 -0.2624  0.0656 -0.2366
13338TIP3   OH261428   2.632   3.027   1.484  0.0919  0.7429  0.4182
13338TIP3    H161429   2.723   3.050   1.471  0.1650 -0.2625 -0.9921
13338TIP3    H261430   2.613   2.961   1.418 -1.0333 -0.7581  2.1349
13339TIP3   OH261431   3.814   3.994   1.485 -0.3889 -0.1972  0.2046
13339TIP3    H161432   3.885   4.057   1.496  0.1480 -0.7113 -0.2575
13339TIP3    H261433   3.854   3.920   1.440 -1.2770 -0.3956 -0.2882
13340TIP3   OH261434   1.077   2.601   4.495  0.1861 -0.5130 -0.4027
13340TIP3    H161435   1.118   2.674   4.449 -2.4302  0.8481 -0.7569
13340TIP3    H261436   1.029   2.554   4.427  1.1689 -2.1500 -0.0245
13341TIP3   OH261437   1.299   5.785  15.661 -0.3240  0.7765  0.0554
13341TIP3    H161438   1.353   5.720  15.615 -2.7001 -0.8131 -0.6710
13341TIP3    H261439   1.320   5.868  15.619  0.8694  0.0652 -0.8219
13342TIP3   OH261440   6.753   5.155   3.688 -0.7432  0.5185 -0.0492
13342TIP3    H161441   6.718   5.228   3.739 -1.2160 -0.2348  0.7218
13342TIP3    H261442   6.775   5.088   3.752 -0.3904 -0.0591 -0.7514
13343TIP3   OH261443   4.776   6.451   2.928 -0.0073  0.1294 -0.4734
13343TIP3    H161444   4.820   6.376   2.968  2.7767  1.5173 -0.6607
13343TIP3    H261445   4.766   6.428   2.836 -0.0874 -0.4022 -0.3309
13344TIP3   OH261446   2.116   1.310   5.614  0.3095 -0.1539  0.3673
13344TIP3    H161447   2.153   1.361   5.686  0.7116 -0.5206  0.4274
13344TIP3    H261448   2.049   1.255   5.656 -0.2339  0.4248  0.2767
13345TIP3   OH261449   6.025   2.796   0.313  0.4831  0.0076  0.0050
13345TIP3    H161450   5.951   2.744   0.282 -0.3815  1.0527  0.2618
13345TIP3    H261451   5.986   2.877   0.346  1.5539 -0.1851  1.8965
13346TIP3   OH261452   0.301   1.604   1.648  0.0740 -0.0708 -1.0520
13346TIP3    H161453   0.210   1.613   1.621 -0.1488 -1.6807 -0.9104
13346TIP3    H261454   0.297   1.586   1.741  0.6492  1.4679 -0.6956
13347TIP3   OH261455   1.924   0.336  12.071  0.3805  0.1270 -0.0809
13347TIP3    H161456   1.901   0.334  11.978  0.3135  0.1790 -0.0655
13347TIP3    H261457   2.012   0.375  12.073  0.3320  0.2388 -0.1135
13348TIP3   OH261458   3.849   6.403  15.449  0.2020 -0.1845 -0.5959
13348TIP3    H161459   3.812   6.405  15.361  1.4951 -0.1565 -1.1623
13348TIP3    H261460   3.939   6.372  15.436  0.8110  1.0247  0.5616
13349TIP3   OH261461   2.670   5.906  16.061 -0.6420  0.0415  0.4099
13349TIP3    H161462   2.637   5.995  16.049  2.3731  1.3370  0.7603
13349TIP3    H261463   2.682   5.873  15.972  0.6833  1.0412  0.1883
13350TIP3   OH261464   0.333   1.619   3.654 -0.4511 -0.3046  0.1314
13350TIP3    H161465   0.245   1.579   3.654 -1.0594  0.9580 -0.7903
13350TIP3    H261466   0.316   1.712   3.641  1.0546 -0.0950 -0.4576
13351TIP3   OH261467   3.802   6.631  13.852 -0.4123  0.1481 -0.3155
13351TIP3    H161468   3.767   6.570  13.787 -1.0010 -0.6341  0.7133
13351TIP3    H261469   3.752   6.613  13.931 -0.3062  1.6880  0.1313
13352TIP3   OH261470   2.212   6.305  14.628  0.0614  0.3328 -0.5038
13352TIP3    H161471   2.246   6.241  14.566  1.1967  0.1425  0.2769
13352TIP3    H261472   2.284   6.368  14.639  0.2527 -0.1239  1.2648
13353TIP3   OH261473   5.787   4.931  11.160 -0.1418 -0.7596 -0.0256
13353TIP3    H161474   5.810   4.999  11.097  0.8083 -0.0881  1.0033
13353TIP3    H261475   5.787   4.850  11.109  1.2855 -0.3254 -0.7597
13354TIP3   OH261476   6.276   2.453  16.164 -0.3889 -0.4891 -0.2023
13354TIP3    H161477   6.370   2.458  16.148 -0.2745 -0.5488  0.4136
13354TIP3    H261478   6.244   2.542  16.150  0.7091  1.1278  5.1253
13355TIP3   OH261479   2.712   5.646  12.433 -0.2151 -0.0184  0.7902
13355TIP3    H161480   2.797   5.609  12.457 -0.4538 -0.1689  1.4461
13355TIP3    H261481   2.650   5.600  12.489 -0.6563  0.5396  0.7692
13356TIP3   OH261482   4.789   3.109   2.271 -0.2216 -0.2467  0.4245
13356TIP3    H161483   4.811   3.042   2.336 -0.1278  0.0402  0.6912
13356TIP3    H261484   4.793   3.192   2.319  0.5910  0.0395 -0.1219
13357TIP3   OH261485   6.449   4.358  11.009  0.0258 -0.1465  0.5104
13357TIP3    H161486   6.505   4.396  11.077 -0.5658 -0.5752  1.2521
13357TIP3    H261487   6.500   4.366  10.928  1.0310 -0.2623  1.1207
13358TIP3   OH261488   4.077   1.984  14.075 -0.2032 -0.2242  0.3148
13358TIP3    H161489   4.080   1.919  14.005  1.0482  0.4310 -0.2906
13358TIP3    H261490   4.105   1.937  14.153  3.3604  0.0541 -0.6098
13359TIP3   OH261491   2.855   6.097  16.643 -0.9237 -0.3071 -0.6140
13359TIP3    H161492   2.809   6.031  16.591 -2.0766 -1.0823  1.2812
13359TIP3    H261493   2.798   6.174  16.641 -0.2937  0.1451 -1.6123
13360TIP3   OH261494   6.480   0.805   5.424  0.4682 -0.3010 -0.3424
13360TIP3    H161495   6.496   0.847   5.508 -0.5379 -0.2304 -0.1652
13360TIP3    H261496   6.537   0.850   5.362  1.1004 -0.2492  0.2667
13361TIP3   OH261497   1.286   5.204   2.652  1.0449  0.1956  0.2869
13361TIP3    H161498   1.251   5.161   2.730 -0.5756  2.1921  0.7421
13361TIP3    H261499   1.374   5.232   2.677  1.4507 -1.2357  0.5536
13362TIP3   OH261500   0.663   5.558  13.857  0.4785  0.5350 -0.1721
13362TIP3    H161501   0.585   5.575  13.805  1.1727  1.4247 -0.9577
13362TIP3    H261502   0.632   5.504  13.930 -0.8733  0.9361 -0.4181
13363TIP3   OH261503   0.056   4.791   3.407  0.0887  0.1948 -0.4446
13363TIP3    H161504   0.047   4.705   3.450 -0.7237  0.5219  0.0749
13363TIP3    H261505   0.066   4.771   3.314  1.5927 -0.5229 -0.1604
13364TIP3   OH261506   2.608   0.749  15.823 -0.7273 -0.3038 -0.2859
13364TIP3    H161507   2.696   0.748  15.787 -1.0494  0.0653 -1.0917
13364TIP3    H261508   2.619   0.779  15.913 -0.3110  2.4162 -1.1691
13365TIP3   OH261509   3.774   0.042   1.566 -0.7180  0.0114 -0.6622
13365TIP3    H161510   3.810   0.124   1.601  0.4432 -0.5714 -0.4569
13365TIP3    H261511   3.789   0.048   1.472  0.4613 -0.4832 -0.5121
13366TIP3   OH261512   5.100   3.789  11.481  0.2648 -0.0653 -0.0612
13366TIP3    H161513   5.119   3.696  11.493 -1.8141 -0.6247 -0.6798
13366TIP3    H261514   5.110   3.803  11.386 -2.4248 -0.4708 -0.4762
13367TIP3   OH261515   2.604   0.843   1.963 -0.0126  0.9844  0.2737
13367TIP3    H161516   2.592   0.901   2.038 -1.0406 -0.5649  1.3686
13367TIP3    H261517   2.528   0.784   1.966  1.2580 -0.7764 -0.4367
13368TIP3   OH261518   5.682   1.326  11.281  0.7766  0.4075 -0.0909
13368TIP3    H161519   5.706   1.392  11.216  1.3827  0.1087 -0.1825
13368TIP3    H261520   5.587   1.330  11.287  0.4466 -1.2307 -2.7767
13369TIP3   OH261521   4.189   3.544  15.857 -0.0967  0.8810 -0.2841
13369TIP3    H161522   4.166   3.495  15.935 -0.4378 -0.4857 -1.2123
13369TIP3    H261523   4.131   3.621  15.859 -1.3852 -0.0676 -0.1281
13370TIP3   OH261524   6.304   1.329  16.511 -0.3049  0.2509  0.2440
13370TIP3    H161525   6.239   1.319  16.581  1.4028  0.3833  1.9292
13370TIP3    H261526   6.329   1.421  16.515 -0.0416  0.2086 -0.4088
13371TIP3   OH261527   0.704   2.990   0.004 -0.2476  0.7672  0.4040
13371TIP3    H161528   0.641   2.926  -0.030 -0.6225  0.2530  1.9796
13371TIP3    H261529   0.786   2.969  -0.040 -0.4556 -0.5814  0.6287
13372TIP3   OH261530   5.515   0.183   2.729  0.0349 -0.1487 -0.0910
13372TIP3    H161531   5.582   0.230   2.780  0.1308  0.2374 -0.5604
13372TIP3    H261532   5.433   0.225   2.754 -0.1019 -0.9409  0.8470
13373TIP3   OH261533   3.104   4.852  15.491 -0.1797  0.4419  0.1436
13373TIP3    H161534   3.097   4.947  15.496 -3.3120  0.3217  0.5311
13373TIP3    H261535   3.126   4.824  15.580  2.0195  0.8130 -0.2497
13374TIP3   OH261536   4.158   4.636   3.317  0.2412 -0.0481 -0.3894
13374TIP3    H161537   4.119   4.596   3.395 -1.1614 -0.2475 -1.1544
13374TIP3    H261538   4.245   4.596   3.310  0.7311  0.5769  1.5045
13375TIP3   OH261539   1.677   0.558  15.629  0.5096  0.0154 -0.5783
13375TIP3    H161540   1.617   0.591  15.563  1.5018  0.9392 -1.0465
13375TIP3    H261541   1.667   0.617  15.703 -1.3403 -1.5989  0.5570
13376TIP3   OH261542   4.604   0.929   5.766  0.1053 -0.6538 -0.1928
13376TIP3    H161543   4.624   1.023   5.770 -1.4948 -0.2966  0.0104
13376TIP3    H261544   4.677   0.892   5.716  1.7086  0.3915  1.2144
13377TIP3   OH261545   6.292   1.696   3.726 -0.6246  0.1442  0.3109
13377TIP3    H161546   6.296   1.605   3.754  1.6148 -0.3718 -1.4153
13377TIP3    H261547   6.383   1.727   3.731 -0.8091  1.3136 -2.0282
13378TIP3   OH261548   4.768   2.773   3.044 -0.1878 -0.1587  0.5318
13378TIP3    H161549   4.856   2.753   3.075 -0.3699 -1.0755  0.5100
13378TIP3    H261550   4.755   2.713   2.970 -0.4086  0.7695 -0.1921
13379TIP3   OH261551   6.191   4.709  13.034 -0.3404 -0.0605  0.4371
13379TIP3    H161552   6.276   4.679  13.004 -0.5256 -0.6172  0.4626
13379TIP3    H261553   6.194   4.804  13.023  0.4646 -0.0233  0.8995
13380TIP3   OH261554   3.598   5.293   2.378  0.3620 -0.4666  0.0325
13380TIP3    H161555   3.635   5.253   2.300 -0.0778  1.3177 -1.1368
13380TIP3    H261556   3.516   5.334   2.349  0.2037  0.2813  1.4066
13381TIP3   OH261557   3.885   5.944  11.578  0.6223  0.1917 -0.2124
13381TIP3    H161558   3.845   6.020  11.536  0.0666  0.2282  0.3550
13381TIP3    H261559   3.811   5.896  11.616  0.7897 -1.4297 -1.7912
13382TIP3   OH261560   1.412   1.201   5.225 -0.2212  0.1342  1.1185
13382TIP3    H161561   1.389   1.278   5.277 -0.5840  1.0522 -0.3645
13382TIP3    H261562   1.499   1.220   5.191 -1.4595  1.2980 -1.6963
13383TIP3   OH261563   2.081   5.560  11.661 -0.2526  0.0927 -0.0048
13383TIP3    H161564   2.040   5.497  11.721 -0.7621  0.4259  0.0076
13383TIP3    H261565   2.060   5.645  11.698 -0.9281  0.3237 -0.8628
13384TIP3   OH261566   2.042   1.434   2.610  0.5067  0.1763  0.6509
13384TIP3    H161567   2.001   1.490   2.544  0.1668 -0.2462  0.5009
13384TIP3    H261568   2.071   1.357   2.562 -1.4739 -1.0156  1.2938
13385TIP3   OH261569   2.298   1.747  11.538  0.3122  0.1673  0.1121
13385TIP3    H161570   2.262   1.740  11.627 -0.0825 -0.3095 -0.0814
13385TIP3    H261571   2.223   1.766  11.483  0.7919  2.2046  0.0817
13386TIP3   OH261572   6.310   0.490   3.560 -0.2160  0.2542 -0.2943
13386TIP3    H161573   6.394   0.485   3.605  0.1143  0.5198 -0.8589
13386TIP3    H261574   6.332   0.523   3.472 -1.1588  2.5871  0.2676
13387TIP3   OH261575   4.453   5.573   3.695  0.1040 -0.2174  0.1623
13387TIP3    H161576   4.441   5.595   3.603  3.4215 -1.2970 -0.6316
13387TIP3    H261577   4.472   5.656   3.738  2.2533 -0.1160 -0.8839
13388TIP3   OH261578   5.707   5.181   2.823  0.9307  0.1191  0.0803
13388TIP3    H161579   5.664   5.130   2.891  0.4851 -0.2737 -0.4830
13388TIP3    H261580   5.764   5.119   2.779  3.3039  0.9584  1.7871
13389TIP3   OH261581   4.266   5.761   5.048  0.2176  0.2696  0.0394
13389TIP3    H161582   4.275   5.676   5.090  0.9186 -0.2514 -1.1460
13389TIP3    H261583   4.336   5.814   5.088  1.7243 -0.5986 -1.3310
13390TIP3   OH261584   0.304   2.883  15.176 -0.2557 -0.2024 -0.2365
13390TIP3    H161585   0.313   2.790  15.154  2.6506  0.1454 -0.8889
13390TIP3    H261586   0.324   2.888  15.269  0.8567 -0.1216 -0.4653
13391TIP3   OH261587   2.195   5.533   4.001 -0.4857 -0.0573  0.5604
13391TIP3    H161588   2.284   5.567   4.007 -0.5685  0.1236  0.7489
13391TIP3    H261589   2.144   5.606   3.965 -0.3112 -0.5759 -0.7992
13392TIP3   OH261590   5.346   4.769  11.509  0.2595  0.4410 -0.1849
13392TIP3    H161591   5.365   4.855  11.471 -1.4145  1.2850  0.7275
13392TIP3    H261592   5.283   4.788  11.579  0.0992 -1.5103  0.2564
13393TIP3   OH261593   6.258   4.270   4.091 -0.1644 -0.1258  0.1399
13393TIP3    H161594   6.331   4.231   4.042 -1.2097  0.1461 -1.7663
13393TIP3    H261595   6.228   4.342   4.036 -2.1768 -0.5487  0.5859
13394TIP3   OH261596   1.006   5.552  13.518  0.1729 -0.2419 -0.1812
13394TIP3    H161597   0.942   5.579  13.584  1.6741 -0.3003  1.3753
13394TIP3    H261598   0.967   5.578  13.435 -1.1367  1.2076  0.8211
13395TIP3   OH261599   0.762   5.692   0.987  0.5870 -0.1278 -0.0663
13395TIP3    H161600   0.774   5.617   1.045 -0.5581  0.6926  1.2876
13395TIP3    H261601   0.674   5.680   0.950  0.5332  0.3669 -0.1037
13396TIP3   OH261602   4.607   4.785   0.520  0.0272 -0.2465  0.1264
13396TIP3    H161603   4.683   4.820   0.473  1.5686 -1.2591  1.7146
13396TIP3    H261604   4.638   4.774   0.610 -2.2052 -0.1909  0.9464
13397TIP3   OH261605   6.068   1.758  14.281  0.2650 -0.9138  0.7642
13397TIP3    H161606   6.131   1.789  14.347  0.0319  1.1299  0.1053
13397TIP3    H261607   5.985   1.753  14.328 -0.0295  1.1416  0.5566
13398TIP3   OH261608   1.914   1.482   3.008 -0.1176  0.4828  0.3075
13398TIP3    H161609   1.904   1.547   3.077  0.0456  0.4727  0.3412
13398TIP3    H261610   1.948   1.404   3.053 -0.2227  0.4056  0.2525
13399TIP3   OH261611   6.713   1.667   2.747 -0.3401 -0.0674  0.7033
13399TIP3    H161612   6.789   1.683   2.691  1.1052  0.4130  2.6904
13399TIP3    H261613   6.646   1.726   2.714  0.3599 -0.0170 -0.6884
13400TIP3   OH261614   4.026   4.539  16.686 -0.1404 -0.4426 -0.8376
13400TIP3    H161615   4.017   4.525  16.780  0.9689  0.6616 -0.5470
13400TIP3    H261616   4.106   4.492  16.662 -1.1951 -1.9602 -1.5345
13401TIP3   OH261617   1.254   0.260   3.771  0.6402  0.2483 -0.6163
13401TIP3    H161618   1.299   0.228   3.849  1.3810  0.3228 -1.0051
13401TIP3    H261619   1.231   0.350   3.791 -1.6922 -0.5434  0.5889
13402TIP3   OH261620   2.156   4.433   1.528 -0.4821  0.2278  0.1579
13402TIP3    H161621   2.085   4.487   1.563  0.9956  1.3822  1.5414
13402TIP3    H261622   2.216   4.422   1.602  1.7181  0.9223 -1.4234
13403TIP3   OH261623   5.069   3.812  12.527 -0.1194 -0.1008 -0.4377
13403TIP3    H161624   5.157   3.824  12.490  0.8367 -1.1114  1.3611
13403TIP3    H261625   5.062   3.880  12.594 -0.5307 -0.2967 -0.2805
13404TIP3   OH261626   1.192   3.406  12.271  0.2311 -0.4371 -0.4835
13404TIP3    H161627   1.160   3.328  12.226 -2.5354 -0.2118  0.8473
13404TIP3    H261628   1.138   3.477  12.236  1.2867  0.5409 -0.1941
13405TIP3   OH261629   4.990   4.977   1.231  0.5975 -0.3871  0.1664
13405TIP3    H161630   5.023   5.000   1.144 -0.8081  0.0711 -0.2554
13405TIP3    H261631   5.061   4.925   1.270  1.7809  0.4980 -0.7405
13406TIP3   OH261632   5.541   0.728  13.216  0.2797 -0.1806 -0.3161
13406TIP3    H161633   5.480   0.734  13.143  0.2051 -1.1128 -0.3305
13406TIP3    H261634   5.510   0.795  13.278  0.6151  0.9434 -1.3123
13407TIP3   OH261635   1.791   2.565  11.858 -0.4265  0.1845  0.1790
13407TIP3    H161636   1.788   2.492  11.796  4.1051 -0.6795  0.6994
13407TIP3    H261637   1.745   2.636  11.812 -1.0076 -1.6251 -2.2822
13408TIP3   OH261638   1.117   2.887   0.294 -0.0908 -0.2944 -0.2609
13408TIP3    H161639   1.137   2.810   0.348  0.9816 -0.2675 -0.5954
13408TIP3    H261640   1.022   2.887   0.287 -0.3603  0.2251  2.3901
13409TIP3   OH261641   2.584   4.996  16.872 -0.2313 -0.0063 -0.2255
13409TIP3    H161642   2.530   4.925  16.907  0.9855 -1.3742 -1.0218
13409TIP3    H261643   2.673   4.962  16.874  0.6755  2.2363  1.1749
13410TIP3   OH261644   5.059   6.540  10.325  0.2179  0.2460  0.1597
13410TIP3    H161645   5.050   6.465  10.384  1.9594  0.6167  0.9493
13410TIP3    H261646   5.142   6.580  10.349 -1.0885  3.0315  0.3876
13411TIP3   OH261647   6.645   2.515  15.177  0.3242  0.1046  0.3978
13411TIP3    H161648   6.595   2.447  15.221 -0.8161  0.7889  0.2053
13411TIP3    H261649   6.624   2.504  15.084  2.0836 -0.8270  0.0582
13412TIP3   OH261650   4.007   1.292  14.698  0.1215  0.4081  0.0115
13412TIP3    H161651   4.091   1.265  14.734  0.5845 -1.6450 -2.3029
13412TIP3    H261652   4.028   1.364  14.639  0.2819 -0.0867 -0.5456
13413TIP3   OH261653   2.108   3.208   2.585  0.1442 -0.2282 -0.0961
13413TIP3    H161654   2.014   3.195   2.572  0.4612 -0.9416 -2.1225
13413TIP3    H261655   2.130   3.150   2.658 -0.8443 -0.6902 -0.1437
13414TIP3   OH261656   5.250   4.769  12.953  0.6838 -0.1046  0.0532
13414TIP3    H161657   5.267   4.813  12.869  1.5848  0.1607  0.3604
13414TIP3    H261658   5.298   4.686  12.946  1.5794  0.3514  0.6772
13415TIP3   OH261659   2.771   3.509  15.143  0.1770  0.1931  0.6227
13415TIP3    H161660   2.812   3.456  15.075 -0.8031 -0.4440  0.5143
13415TIP3    H261661   2.691   3.462  15.166 -0.1042  1.0080  1.3801
13416TIP3   OH261662   1.568   1.813   2.121 -0.3686 -0.1986  0.1854
13416TIP3    H161663   1.634   1.766   2.070 -1.7279 -0.2669 -1.6368
13416TIP3    H261664   1.596   1.904   2.118  0.9177 -0.5103  1.5583
13417TIP3   OH261665   2.439   5.797   0.728 -0.5425 -0.4261  0.2695
13417TIP3    H161666   2.529   5.823   0.708 -0.3111 -0.7151  0.9117
13417TIP3    H261667   2.415   5.850   0.804 -0.4830 -1.2269  0.8530
13418TIP3   OH261668   5.711   1.672   3.197  0.1476  0.2115 -0.7270
13418TIP3    H161669   5.801   1.664   3.165  0.5620  2.6486 -0.3722
13418TIP3    H261670   5.687   1.583   3.223  1.7807 -0.8469 -2.5150
13419TIP3   OH261671   2.880   2.864  14.493  0.3112  0.4283 -0.2789
13419TIP3    H161672   2.907   2.937  14.549 -0.6230 -1.7318  3.3222
13419TIP3    H261673   2.808   2.898  14.441  0.8908  2.4319  0.1497
13420TIP3   OH261674   1.250   1.136   6.551  0.0872 -0.1194  0.0870
13420TIP3    H161675   1.194   1.088   6.612  1.0888 -0.8686  0.4496
13420TIP3    H261676   1.336   1.096   6.562  0.4784  0.3382 -1.1871
13421TIP3   OH261677   4.750   0.744   2.714 -0.1991  0.0711 -0.0871
13421TIP3    H161678   4.655   0.742   2.700 -0.4163  0.1474  1.2149
13421TIP3    H261679   4.782   0.813   2.656 -1.0253  0.4630 -0.0850
13422TIP3   OH261680   1.765   4.577  15.812  0.5611  0.3141  0.2874
13422TIP3    H161681   1.718   4.551  15.732 -1.1719 -0.8885  1.6182
13422TIP3    H261682   1.843   4.621  15.780 -1.0122  1.6504 -2.0826
13423TIP3   OH261683   2.183   5.470   0.940  0.3564 -0.5364 -0.3496
13423TIP3    H161684   2.210   5.515   0.860 -1.2060  0.7525 -0.1889
13423TIP3    H261685   2.262   5.465   0.993  1.4719 -1.5895 -2.0171
13424TIP3   OH261686   4.151   1.485   5.290  0.6786 -0.1290  0.4143
13424TIP3    H161687   4.071   1.443   5.258 -0.3153  2.6999 -1.1284
13424TIP3    H261688   4.221   1.447   5.236 -0.3342  0.9056 -1.7507
13425TIP3   OH261689   4.842   6.422   6.165 -0.4707 -0.3757 -0.6938
13425TIP3    H161690   4.933   6.441   6.189 -0.9703 -0.3346  1.3855
13425TIP3    H261691   4.834   6.327   6.173 -1.1533 -0.2025  1.5666
13426TIP3   OH261692   3.028   3.413  11.562  0.2847 -0.1880 -0.5299
13426TIP3    H161693   2.943   3.384  11.528  0.1790 -0.3053 -0.1791
13426TIP3    H261694   3.044   3.356  11.637 -0.8330  1.8170  1.3657
13427TIP3   OH261695   0.178   6.434   5.848  0.2611  0.3911  0.6006
13427TIP3    H161696   0.190   6.340   5.856  2.3951  0.6771  1.4535
13427TIP3    H261697   0.083   6.447   5.849 -0.2821 -1.9875 -3.0577
13428TIP3   OH261698   3.420   2.501   4.879 -0.2509 -0.4746 -0.1651
13428TIP3    H161699   3.475   2.501   4.957 -0.2881 -2.8640 -0.0747
13428TIP3    H261700   3.336   2.536   4.909  0.7959  2.3177 -0.0985
13429TIP3   OH261701   2.103   0.564  14.945  0.3158  0.2637 -0.4261
13429TIP3    H161702   2.137   0.605  14.866  0.2947 -0.8075 -1.0050
13429TIP3    H261703   2.008   0.579  14.941  0.5397  2.2359  0.5998
13430TIP3   OH261704   0.438   5.663  11.530 -0.3373 -0.2634  0.1035
13430TIP3    H161705   0.347   5.649  11.504 -0.7219  0.2341  1.1110
13430TIP3    H261706   0.486   5.590  11.492 -1.1687 -0.5556 -0.4000
13431TIP3   OH261707   2.652   1.482  16.059  0.1548  0.2248  0.1227
13431TIP3    H161708   2.627   1.480  16.151 -0.8502 -0.8361 -0.1537
13431TIP3    H261709   2.726   1.422  16.053  0.0316  0.0657  0.1897
13432TIP3   OH261710   6.125   3.035  12.964 -0.4557  0.0434 -0.1199
13432TIP3    H161711   6.033   3.041  12.990 -0.4571 -0.5875  0.0235
13432TIP3    H261712   6.131   2.954  12.914  0.3274 -0.7174  1.1581
13433TIP3   OH261713   0.079   0.296  12.288  0.2953 -0.1920  0.0356
13433TIP3    H161714   0.041   0.209  12.272  0.8021  0.0238 -2.8144
13433TIP3    H261715   0.130   0.285  12.368 -0.9351 -2.0761  0.6416
13434TIP3   OH261716   0.456   4.077  11.732  0.0696  0.2273 -0.0031
13434TIP3    H161717   0.518   4.060  11.661 -0.1842 -0.9826  0.0518
13434TIP3    H261718   0.505   4.129  11.795  0.8309 -0.1856 -0.2501
13435TIP3   OH261719   4.622   6.099  16.742  0.6751 -0.6022 -0.5806
13435TIP3    H161720   4.588   6.181  16.704  0.0952 -1.3187 -1.6872
13435TIP3    H261721   4.550   6.066  16.796  1.3951  0.2662  0.9798
13436TIP3   OH261722   1.579   4.168  14.459 -0.0404  0.2480  0.0318
13436TIP3    H161723   1.537   4.087  14.429 -1.7278  1.2806 -0.5313
13436TIP3    H261724   1.524   4.198  14.532  0.2178  1.1663 -0.1375
13437TIP3   OH261725   4.397   1.714   4.054  0.1681 -0.3453  0.7203
13437TIP3    H161726   4.346   1.661   3.993  0.8942 -0.2876  0.0475
13437TIP3    H261727   4.410   1.657   4.130  3.8108 -2.5657 -1.2756
13438TIP3   OH261728   2.374   4.886  11.381 -0.3842 -0.1417 -0.3252
13438TIP3    H161729   2.304   4.831  11.417 -0.0964 -1.1017 -1.1834
13438TIP3    H261730   2.411   4.930  11.458  0.0293 -1.9147  0.5593
13439TIP3   OH261731   2.854   6.347   6.109 -0.2221 -0.4486 -0.0336
13439TIP3    H161732   2.813   6.431   6.130  0.2914 -0.1744 -0.1079
13439TIP3    H261733   2.938   6.349   6.155  0.3376 -0.3912 -1.0294
13440TIP3   OH261734   6.133   2.453  16.552 -0.2595  0.3333  0.0463
13440TIP3    H161735   6.209   2.510  16.537 -0.7278  0.6064 -1.4828
13440TIP3    H261736   6.162   2.367  16.520 -0.5116  0.3898 -0.3442
13441TIP3   OH261737   5.410   3.995  12.098 -0.1223  0.0206  1.1647
13441TIP3    H161738   5.498   4.026  12.118 -1.0997  3.2258  1.0789
13441TIP3    H261739   5.404   3.998  12.003 -0.2932 -0.2571  1.1655
13442TIP3   OH261740   3.887   2.120   4.416 -0.2436  0.6099 -0.6393
13442TIP3    H161741   3.870   2.197   4.362  0.9324  0.6915 -0.9129
13442TIP3    H261742   3.982   2.118   4.425 -0.2132 -1.1023 -1.0710
13443TIP3   OH261743   2.421   5.325   6.338 -0.0907 -0.2598  0.3314
13443TIP3    H161744   2.479   5.252   6.319 -0.0977 -0.3784  0.7402
13443TIP3    H261745   2.338   5.283   6.363 -0.0444 -0.1199  0.7276
13444TIP3   OH261746   6.689   5.021   0.999 -0.3589 -0.1519  0.0029
13444TIP3    H161747   6.681   5.087   1.068  0.0320 -0.0720 -0.0260
13444TIP3    H261748   6.617   4.960   1.015 -0.1583 -0.2432  0.5977
13445TIP3   OH261749   5.072   0.621  11.634 -0.3895  0.0415  0.6048
13445TIP3    H161750   5.047   0.605  11.543 -1.0647  1.6065  0.4978
13445TIP3    H261751   4.989   0.619  11.682  0.0504 -1.7602  1.3777
13446TIP3   OH261752   2.545   6.261  13.783  0.1938 -0.2870  0.4562
13446TIP3    H161753   2.526   6.167  13.779 -0.1156 -0.1949 -0.8579
13446TIP3    H261754   2.616   6.273  13.719 -2.1447  0.8612 -2.1467
13447TIP3   OH261755   5.599   4.266   3.704 -0.2598  0.0485  0.3941
13447TIP3    H161756   5.608   4.190   3.760  1.4962 -2.0560 -2.4905
13447TIP3    H261757   5.562   4.232   3.623 -2.0265  2.8077 -0.1032
13448TIP3   OH261758   5.118   4.184   2.296 -0.2230 -0.2494 -0.2923
13448TIP3    H161759   5.205   4.220   2.277 -1.0656  3.7391  2.1305
13448TIP3    H261760   5.129   4.137   2.378 -0.0132 -1.5438 -1.0458
13449TIP3   OH261761   1.610   5.204  12.624  0.2520 -0.4031 -0.1806
13449TIP3    H161762   1.524   5.166  12.642  0.1412  0.3769  1.0999
13449TIP3    H261763   1.592   5.272  12.558  0.0665 -0.9449 -0.6961
13450TIP3   OH261764   1.045   0.291  15.418  0.2132  0.2775 -0.1228
13450TIP3    H161765   1.074   0.204  15.390 -0.5742  0.3328 -1.1544
13450TIP3    H261766   1.026   0.338  15.337  2.6315  2.1657  0.3186
13451TIP3   OH261767   4.305   2.417  16.530  0.2093 -0.1145 -0.3262
13451TIP3    H161768   4.323   2.323  16.525  1.8151  0.0799  1.0112
13451TIP3    H261769   4.227   2.423  16.585 -0.8133 -0.6985 -1.6456
13452TIP3   OH261770   1.655   2.112  15.897  0.3213 -0.5060 -0.3484
13452TIP3    H161771   1.715   2.109  15.972  0.3387 -2.2134 -0.3910
13452TIP3    H261772   1.678   2.193  15.852 -0.0776  0.8785  1.7787
13453TIP3   OH261773   5.938   0.027  11.471  0.2738  0.0202  0.1235
13453TIP3    H161774   5.942  -0.066  11.492  1.3175  0.0911  0.2675
13453TIP3    H261775   5.869   0.033  11.405 -1.3520 -0.5368  1.6821
13454TIP3   OH261776   0.788   3.484  13.434  0.4901  0.1932  0.6845
13454TIP3    H161777   0.696   3.466  13.454  0.3298 -0.3654 -0.4878
13454TIP3    H261778   0.786   3.563  13.380  0.5032 -0.9114 -1.0012
13455TIP3   OH261779   3.164   0.512  16.508  0.8615 -0.0471  0.3940
13455TIP3    H161780   3.080   0.466  16.505  0.6518  0.3346  0.4958
13455TIP3    H261781   3.210   0.482  16.429 -0.0919  1.1254 -0.6476
13456TIP3   OH261782   6.422   4.921   4.094  0.1655 -0.3087 -0.0508
13456TIP3    H161783   6.341   4.957   4.127 -0.1954 -0.7111 -0.4771
13456TIP3    H261784   6.404   4.900   4.002  0.6659 -0.6461 -0.0807
13457TIP3   OH261785   6.616   5.848   1.695 -0.0350  0.1252 -0.2396
13457TIP3    H161786   6.605   5.758   1.663 -0.6083  0.2769 -0.4858
13457TIP3    H261787   6.675   5.840   1.770  0.7617 -0.3218 -0.8981
13458TIP3   OH261788   0.306   0.233  15.773 -0.1365  0.3013 -0.1525
13458TIP3    H161789   0.286   0.256  15.864  0.2024  1.8076 -0.4284
13458TIP3    H261790   0.361   0.305  15.742 -0.4692 -0.0530 -1.6365
13459TIP3   OH261791   4.874   4.991   4.940  0.5049 -0.4675  0.1847
13459TIP3    H161792   4.966   4.995   4.965  0.3979 -0.3590  0.5676
13459TIP3    H261793   4.838   4.922   4.995  0.1238  0.2099  0.7980
13460TIP3   OH261794   2.875   4.423  14.417 -0.5520 -0.5123 -0.3194
13460TIP3    H161795   2.932   4.388  14.349 -1.0446 -3.1950  0.5330
13460TIP3    H261796   2.801   4.461  14.370 -0.1490 -0.9357 -1.3184
13461TIP3   OH261797   3.474   6.263   6.286 -0.4199 -0.5518 -0.4558
13461TIP3    H161798   3.543   6.199   6.270  1.0177  0.6818  0.6053
13461TIP3    H261799   3.393   6.216   6.267  0.6991 -1.9686 -1.9519
13462TIP3   OH261800   5.019   5.841  14.171 -0.0176 -0.1694 -0.0308
13462TIP3    H161801   4.981   5.762  14.131  1.5540 -0.6621 -0.6376
13462TIP3    H261802   5.032   5.901  14.098 -0.9223  0.5589  0.3884
13463TIP3   OH261803   3.130   2.693   5.882  0.2367  0.0480  0.0810
13463TIP3    H161804   3.198   2.703   5.816  1.4198 -1.5108  0.9753
13463TIP3    H261805   3.162   2.744   5.957  0.2319 -0.3801  0.3754
13464TIP3   OH261806   2.207   2.663   2.904 -0.1240 -0.1850  0.4216
13464TIP3    H161807   2.277   2.706   2.854  0.7084 -0.4195  1.3349
13464TIP3    H261808   2.236   2.572   2.912 -0.3118 -0.1849  1.1770
13465TIP3   OH261809   4.369   5.664   4.376 -0.5885 -0.2631  0.2841
13465TIP3    H161810   4.288   5.620   4.347 -0.3168  0.0063 -0.9250
13465TIP3    H261811   4.439   5.618   4.331 -0.2649  1.1541 -0.7069
13466TIP3   OH261812   1.719   0.089  16.999 -0.0944 -0.3682 -0.0132
13466TIP3    H161813   1.753   0.008  17.037  0.7616  0.6288  1.4495
13466TIP3    H261814   1.625   0.088  17.021 -0.3325 -1.4711 -0.9995
13467TIP3   OH261815   3.393   3.809   4.492  0.4419  0.4530  0.7063
13467TIP3    H161816   3.337   3.844   4.560  0.2878 -0.1782  0.9030
13467TIP3    H261817   3.341   3.742   4.449  0.1203  1.5849 -0.7698
13468TIP3   OH261818   1.109   4.832  16.120 -0.2197 -0.0354  0.1066
13468TIP3    H161819   1.135   4.749  16.080  0.9105  0.0705  0.5721
13468TIP3    H261820   1.014   4.824  16.132 -0.2836 -0.8365 -0.7918
13469TIP3   OH261821   5.396   2.767  10.090  0.1635 -0.5029  0.1157
13469TIP3    H161822   5.386   2.861  10.078  0.8088 -0.1913  1.7797
13469TIP3    H261823   5.319   2.729  10.046  0.0132  0.7615 -0.7603
13470TIP3   OH261824   3.779   6.611  10.746 -0.1142  0.6306 -0.3119
13470TIP3    H161825   3.787   6.558  10.667  0.1886  1.5614 -0.9295
13470TIP3    H261826   3.845   6.577  10.806 -0.5041 -0.2319 -0.3664
13471TIP3   OH261827   3.402   1.210  16.399 -0.0008 -0.0029 -0.5986
13471TIP3    H161828   3.358   1.132  16.434 -0.7147  0.7439  0.1932
13471TIP3    H261829   3.331   1.270  16.377  0.5920  1.3251  0.9161
13472TIP3   OH261830   5.610   1.158  16.745 -0.2996  0.0301 -0.7152
13472TIP3    H161831   5.702   1.145  16.767 -0.2939 -0.9022 -1.2355
13472TIP3    H261832   5.562   1.098  16.803 -0.8038  2.2310  1.2732
13473TIP3   OH261833   6.184   3.784   5.623  0.0648 -0.3427 -0.0985
13473TIP3    H161834   6.206   3.877   5.627 -1.3821  0.0057  0.4305
13473TIP3    H261835   6.260   3.743   5.582  0.7398  1.0652 -0.3173
13474TIP3   OH261836   2.284   5.952  11.666 -0.1050  0.6633 -0.7213
13474TIP3    H161837   2.281   6.007  11.588 -0.6528  0.0715 -1.1230
13474TIP3    H261838   2.322   6.009  11.734  2.1922  0.6178 -1.8662
13475TIP3   OH261839   1.726   6.189   5.854  0.0452  0.2422  0.3127
13475TIP3    H161840   1.672   6.115   5.883  0.3996 -0.0619  0.2082
13475TIP3    H261841   1.672   6.235   5.791 -1.3372  1.7639  2.4593
13476TIP3   OH261842   5.385   6.406   1.098  0.1246  0.3258 -0.5804
13476TIP3    H161843   5.468   6.427   1.141 -0.1336  0.2028 -0.0218
13476TIP3    H261844   5.318   6.440   1.156 -0.2113  0.8637 -1.2741
13477TIP3   OH261845   2.008   5.679  13.580  0.3531 -0.2693 -0.6375
13477TIP3    H161846   1.977   5.769  13.593 -1.7056 -1.1379  0.9464
13477TIP3    H261847   2.103   5.685  13.595  0.0475  1.3879  1.1801
13478TIP3   OH261848   3.002   4.402   4.501 -0.2612 -0.4191  0.1359
13478TIP3    H161849   3.059   4.327   4.518 -0.2713 -0.0203  2.1896
13478TIP3    H261850   2.949   4.375   4.427  0.4076 -2.0594  0.2042
13479TIP3   OH261851   5.199   2.264   4.195  0.4679  0.2844  0.4996
13479TIP3    H161852   5.294   2.271   4.197  0.4522  0.9164 -0.3014
13479TIP3    H261853   5.179   2.186   4.247  1.4010  0.2705  0.8539
13480TIP3   OH261854   1.766   2.440   3.067 -0.1230 -0.3813 -0.0878
13480TIP3    H161855   1.781   2.366   3.009  0.3488 -1.5298  1.4303
13480TIP3    H261856   1.833   2.504   3.041 -0.3322 -0.5963 -1.2070
13481TIP3   OH261857   4.658   2.617  14.644  0.0644 -0.3366  0.1595
13481TIP3    H161858   4.580   2.594  14.594  0.0287 -0.6047  0.3307
13481TIP3    H261859   4.717   2.542  14.632  0.3731 -0.0521 -0.1248
13482TIP3   OH261860   1.398   2.357   5.762 -0.1464 -0.8208  0.1603
13482TIP3    H161861   1.413   2.356   5.667  0.9849 -1.3264  0.3224
13482TIP3    H261862   1.486   2.363   5.799 -0.4435 -2.3584  1.1979
13483TIP3   OH261863   5.676   4.852   4.485  0.4525 -0.1023  0.2655
13483TIP3    H161864   5.684   4.804   4.567  2.7262 -2.5118 -1.2046
13483TIP3    H261865   5.765   4.877   4.462  0.0803 -0.6330 -2.0498
13484TIP3   OH261866   3.230   2.923  10.754 -0.7249 -0.6278 -0.4827
13484TIP3    H161867   3.222   2.844  10.808 -0.4342  1.1152  2.2953
13484TIP3    H261868   3.307   2.968  10.788 -1.0980  1.0458 -1.7250
13485TIP3   OH261869   1.721   6.036  14.411 -0.1555 -0.0930  0.3464
13485TIP3    H161870   1.809   6.073  14.415 -0.1006 -0.2905  1.0320
13485TIP3    H261871   1.724   5.961  14.471 -0.0953 -1.5735 -1.3941
13486TIP3   OH261872   3.574   0.412   4.991  0.4476  0.0867  0.0172
13486TIP3    H161873   3.567   0.322   4.959 -0.4921  0.1149  0.1310
13486TIP3    H261874   3.617   0.403   5.077  0.4795 -0.2361 -0.0303
13487TIP3   OH261875   1.342   6.500  16.311 -0.1152  0.1289 -0.1819
13487TIP3    H161876   1.307   6.424  16.357  1.9498  0.2132  1.6988
13487TIP3    H261877   1.265   6.548  16.282 -1.4773 -2.1803 -0.6408
13488TIP3   OH261878   0.444   0.701  15.387 -0.4517 -0.1444  0.7046
13488TIP3    H161879   0.406   0.779  15.346  0.4111 -0.3653 -0.5544
13488TIP3    H261880   0.538   0.709  15.372 -0.2507 -0.9294  1.4657
13489TIP3   OH261881   2.171   5.869   5.571  0.4981 -0.0916 -0.3548
13489TIP3    H161882   2.217   5.948   5.541  0.9910 -0.0622  0.4740
13489TIP3    H261883   2.228   5.831   5.637 -0.4498 -0.3143  0.3535
13490TIP3   OH261884   5.828   5.143  12.333  0.0031  0.0495  0.0425
13490TIP3    H161885   5.847   5.137  12.427  0.9038 -2.3327 -0.2170
13490TIP3    H261886   5.751   5.088  12.321 -0.2987  0.5997 -0.5705
13491TIP3   OH261887   3.784   5.383   5.833  0.3180  0.3300 -0.4667
13491TIP3    H161888   3.748   5.426   5.910 -0.0947  0.2877 -0.6358
13491TIP3    H261889   3.731   5.415   5.761  0.6701  0.3280 -0.7310
13492TIP3   OH261890   0.586   5.984   3.003 -0.2882 -0.3614  0.7569
13492TIP3    H161891   0.633   6.036   3.068 -0.3315 -0.9721  1.2933
13492TIP3    H261892   0.511   5.948   3.051 -2.7930  2.5453 -0.6179
13493TIP3   OH261893   4.717   3.845   5.482 -0.6157  0.2359 -0.2244
13493TIP3    H161894   4.734   3.920   5.538 -0.5903 -0.0570  0.1615
13493TIP3    H261895   4.706   3.883   5.395  2.9936  0.4318 -0.7825
13494TIP3   OH261896   3.383   6.792  13.564 -0.2155 -0.1726  0.1676
13494TIP3    H161897   3.322   6.732  13.607  1.4164 -0.8231  1.7347
13494TIP3    H261898   3.445   6.735  13.519 -0.2797  0.4395 -0.7110
13495TIP3   OH261899   2.933   0.855   4.497  0.0475  0.0444 -0.6556
13495TIP3    H161900   2.893   0.775   4.463  2.0304 -1.7020  0.8295
13495TIP3    H261901   2.996   0.881   4.429  1.3463 -1.2943 -0.0202
13496TIP3   OH261902   5.609   1.030  14.671 -0.1398  0.4644 -0.4317
13496TIP3    H161903   5.650   0.978  14.739  0.2557 -1.6542 -2.1607
13496TIP3    H261904   5.515   1.018  14.684 -0.0677  0.1481 -0.2113
13497TIP3   OH261905   3.236   0.798  13.633  0.1244  0.4215  0.1948
13497TIP3    H161906   3.190   0.861  13.577  0.5570 -0.7360 -1.5472
13497TIP3    H261907   3.308   0.765  13.579  1.1364 -0.0860  1.7784
13498TIP3   OH261908   1.911   6.557  13.005  0.7383  0.4524 -0.2131
13498TIP3    H161909   1.869   6.479  13.040 -1.1554  1.4941 -0.0610
13498TIP3    H261910   1.993   6.565  13.055 -0.1969 -0.0831  1.4621
13499TIP3   OH261911   6.540   2.427   1.068 -0.3532 -0.2713 -0.4462
13499TIP3    H161912   6.478   2.380   1.123  0.1009 -0.0378  0.2818
13499TIP3    H261913   6.514   2.519   1.076  0.0926 -0.1716 -0.1267
13500TIP3   OH261914   4.157   6.027   1.185  0.3442 -0.0525 -0.0908
13500TIP3    H161915   4.192   6.112   1.213  2.1804 -1.1490  1.1792
13500TIP3    H261916   4.166   5.971   1.263  0.7612 -1.8464 -1.3792
13501TIP3   OH261917   3.357   5.402  16.170 -0.1085 -0.4107 -0.1316
13501TIP3    H161918   3.414   5.472  16.202 -0.8212  0.1270 -0.0089
13501TIP3    H261919   3.407   5.361  16.100  1.3910 -1.4480  1.4703
13502TIP3   OH261920   5.027   3.766  15.834  0.1094  0.6493  0.7961
13502TIP3    H161921   5.121   3.759  15.848  0.2339 -0.4686 -0.4908
13502TIP3    H261922   4.990   3.694  15.886  0.0743  0.3158  0.3135
13503TIP3   OH261923   1.801   1.545   0.430  0.4128  0.3966 -0.6339
13503TIP3    H161924   1.892   1.552   0.400  0.2824  1.1519 -0.8917
13503TIP3    H261925   1.749   1.562   0.351 -0.0344 -2.9240 -1.2201
13504TIP3   OH261926   4.350   1.972   3.638  0.0155 -0.3595  0.1714
13504TIP3    H161927   4.400   2.037   3.687  1.4339 -0.4470 -1.0831
13504TIP3    H261928   4.416   1.926   3.585 -1.3905 -0.3050 -1.7422
13505TIP3   OH261929   1.543   6.020   0.140  0.3067  0.0070  0.0495
13505TIP3    H161930   1.596   6.048   0.215 -0.5032 -0.6117  0.8833
13505TIP3    H261931   1.537   6.098   0.084  0.0625  0.8003  1.1414
13506TIP3   OH261932   2.583   1.945   3.158 -0.7730 -0.0998 -0.1415
13506TIP3    H161933   2.650   1.931   3.225  0.2386  0.7235 -0.9550
13506TIP3    H261934   2.562   2.038   3.164 -1.0351 -0.1231 -0.6448
13507TIP3   OH261935   2.800   5.327  10.740 -0.1222 -0.0526  0.1087
13507TIP3    H161936   2.892   5.351  10.731 -0.1120  0.7373  1.8454
13507TIP3    H261937   2.798   5.234  10.717  1.7698 -0.9859  3.0487
13508TIP3   OH261938   5.757   5.102  13.157  0.1410 -1.0393  0.1129
13508TIP3    H161939   5.775   5.039  13.228  0.3521 -1.4254 -0.2758
13508TIP3    H261940   5.844   5.130  13.127  0.0655  0.8507  1.4923
13509TIP3   OH261941   0.982   2.549   6.195  0.5096 -0.4511  0.2341
13509TIP3    H161942   1.068   2.552   6.237  1.4066  0.2690 -1.5653
13509TIP3    H261943   0.936   2.626   6.228  0.3479 -1.1045  1.5804
13510TIP3   OH261944   5.863   2.118   4.259 -0.0825  0.1035  0.1819
13510TIP3    H161945   5.899   2.207   4.253  0.3426 -0.0119  0.9024
13510TIP3    H261946   5.899   2.083   4.341  1.1312 -1.3436 -0.9077
13511TIP3   OH261947   5.566   3.089   3.369  0.5528  0.2188 -0.3743
13511TIP3    H161948   5.497   3.147   3.400 -0.7111  0.0876 -2.7161
13511TIP3    H261949   5.625   3.079   3.444 -1.1542  1.5395  1.2275
13512TIP3   OH261950   5.309   6.012  11.120 -0.2161  0.2827 -0.0631
13512TIP3    H161951   5.281   6.092  11.076  0.5473  0.8361  0.4365
13512TIP3    H261952   5.313   6.035  11.213 -0.1737 -0.3913  0.1106
13513TIP3   OH261953   3.421   5.017  15.869  0.3246  0.8766 -0.2325
13513TIP3    H161954   3.476   4.998  15.793 -1.2358  1.3597 -1.5537
13513TIP3    H261955   3.373   4.936  15.885  0.8412  0.6969  0.4021
13514TIP3   OH261956   6.025   5.967  13.168  0.5163  0.4265  0.2856
13514TIP3    H161957   5.939   5.972  13.126  0.1863 -0.1845  0.8572
13514TIP3    H261958   6.010   5.914  13.246  1.6529 -0.7585 -0.2451
13515TIP3   OH261959   0.793   1.276   4.993  0.0494 -0.0729 -0.1229
13515TIP3    H161960   0.861   1.338   4.969 -1.4333  1.3012 -0.9741
13515TIP3    H261961   0.827   1.191   4.965  2.0957  0.3038  1.0065
13516TIP3   OH261962   2.081   1.980  16.725  0.1265 -0.3274 -0.6885
13516TIP3    H161963   2.147   2.037  16.684  0.3708  1.1211  1.5220
13516TIP3    H261964   1.997   2.015  16.695  0.2773  1.2184  0.5266
13517TIP3   OH261965   0.112   3.999  15.043  0.1879 -0.1073 -0.0139
13517TIP3    H161966   0.201   4.021  15.072 -0.4431  0.9892  1.2060
13517TIP3    H261967   0.120   3.911  15.006  1.2727 -1.3530  2.8255
13518TIP3   OH261968   0.002   2.878   4.108 -1.0463 -0.1857  0.0480
13518TIP3    H161969   0.041   2.943   4.050  2.3028 -2.9118 -1.1373
13518TIP3    H261970   0.046   2.891   4.192 -0.2877 -0.9354 -0.2228
13519TIP3   OH261971   3.836   6.260  16.734  0.2186 -0.7107 -0.4601
13519TIP3    H161972   3.788   6.188  16.693 -0.2359 -1.0460  0.6284
13519TIP3    H261973   3.786   6.338  16.708  2.1032 -0.4184 -3.7283
13520TIP3   OH261974   1.118   0.010   0.732 -0.1989 -0.1363  0.0916
13520TIP3    H161975   1.190  -0.053   0.733  0.2591  0.3911  1.1466
13520TIP3    H261976   1.066  -0.015   0.655  0.0047 -1.7512  0.4424
13521TIP3   OH261977   1.213   5.161   5.742  0.4970  0.1992  0.3348
13521TIP3    H161978   1.266   5.204   5.809  2.8218 -2.4259  0.3837
13521TIP3    H261979   1.276   5.112   5.689 -1.6116 -0.5665 -1.6631
13522TIP3   OH261980   5.515   5.511  13.509  0.0662 -0.0439 -0.4398
13522TIP3    H161981   5.454   5.583  13.519  1.8492  1.4908 -0.0644
13522TIP3    H261982   5.463   5.432  13.525 -1.4576  1.2647  1.4606
13523TIP3   OH261983   1.313   6.254  16.491 -0.1501  0.1437 -0.7621
13523TIP3    H161984   1.399   6.246  16.533 -0.7372  1.1235  0.6743
13523TIP3    H261985   1.313   6.185  16.425  0.4228 -2.1497  1.5026
13524TIP3   OH261986   0.425   1.467  15.238  0.1102  0.3414  0.1707
13524TIP3    H161987   0.520   1.470  15.249  0.2040  0.3931 -0.5948
13524TIP3    H261988   0.412   1.476  15.144 -0.6040 -0.7385  0.1500
13525TIP3   OH261989   2.839   0.810   1.830  0.1106  0.3782 -0.2040
13525TIP3    H161990   2.764   0.847   1.877 -0.2132  1.5749 -1.5899
13525TIP3    H261991   2.914   0.859   1.864  0.2286 -0.4927  0.8411
13526TIP3   OH261992   0.703   0.716  15.616 -0.0827 -0.0044 -0.0502
13526TIP3    H161993   0.708   0.756  15.529  1.5495  0.6212  0.2763
13526TIP3    H261994   0.794   0.715  15.646 -0.5407 -0.8147  1.3844
13527TIP3   OH261995   5.548   6.668   6.489 -0.3449 -0.0066  0.0414
13527TIP3    H161996   5.522   6.737   6.429  1.2462 -0.0124 -0.6996
13527TIP3    H261997   5.638   6.690   6.514 -0.7094 -0.4177  1.8345
13528TIP3   OH261998   5.031   2.371  11.045  0.0083 -0.1520  0.1880
13528TIP3    H161999   4.991   2.457  11.057  2.4728  1.1720 -0.4512
13528TIP3    H262000   5.016   2.350  10.953 -0.3561 -0.3187  0.2805
13529TIP3   OH262001   2.184   3.081  11.279  0.9494 -0.3157  0.6396
13529TIP3    H162002   2.256   3.043  11.229  0.4436  0.8182 -1.0134
13529TIP3    H262003   2.127   3.007  11.299  0.0644 -0.5724 -2.3773
13530TIP3   OH262004   0.820   6.097  12.704 -0.6674  0.1550 -0.0604
13530TIP3    H162005   0.776   6.150  12.638 -1.8459  1.8604  1.9602
13530TIP3    H262006   0.754   6.034  12.733 -0.4890  0.0706  0.1719
13531TIP3   OH262007   4.530   3.598  11.577  0.4400 -0.3736  0.1445
13531TIP3    H162008   4.452   3.640  11.612  1.6816  1.1060  1.2947
13531TIP3    H262009   4.554   3.533  11.643  1.0315  0.2760  0.5959
13532TIP3   OH262010   3.226   2.356   1.840 -0.2144 -0.6995  0.3244
13532TIP3    H162011   3.278   2.421   1.887  1.3416 -1.6682 -0.0034
13532TIP3    H262012   3.282   2.328   1.768 -1.1503 -1.8738  0.0217
13533TIP3   OH262013   5.244   6.761   1.134 -0.4636 -0.5151  0.1989
13533TIP3    H162014   5.225   6.679   1.179  1.6770 -2.0797 -1.4811
13533TIP3    H262015   5.213   6.747   1.044 -2.5305  1.6332  0.4654
13534TIP3   OH262016   1.635   0.124   0.591  0.5335  0.7834  0.0879
13534TIP3    H162017   1.720   0.084   0.607  0.2059  0.8389  2.1983
13534TIP3    H262018   1.652   0.218   0.593  0.6715  0.7987 -1.1271
13535TIP3   OH262019   2.283   1.802   4.737  0.0005 -0.1160  0.1587
13535TIP3    H162020   2.218   1.797   4.667  0.0707 -0.4405  0.1166
13535TIP3    H262021   2.365   1.778   4.694  0.1055  0.0529  0.2682
13536TIP3   OH262022   2.944   5.389   6.824 -0.1306 -0.2003  0.3781
13536TIP3    H162023   2.874   5.379   6.760 -0.2378 -0.1332  0.4843
13536TIP3    H262024   3.018   5.425   6.774 -0.0079 -0.7386  0.1645
13537TIP3   OH262025   2.331   2.183   2.030 -0.1698  0.4100 -0.1577
13537TIP3    H162026   2.272   2.259   2.028 -0.2685  0.3313 -0.3045
13537TIP3    H262027   2.340   2.161   2.123 -2.8201 -1.4645 -0.2260
13538TIP3   OH262028   2.742   1.478   3.732 -0.2913 -0.3612 -0.7607
13538TIP3    H162029   2.836   1.480   3.749 -0.7764  0.4765  2.4091
13538TIP3    H262030   2.713   1.568   3.748 -1.6416 -0.5940 -1.7212
13539TIP3   OH262031   5.412   6.540   4.652  0.4761  0.2695 -0.3792
13539TIP3    H162032   5.492   6.511   4.695  0.5777  1.4707  0.2754
13539TIP3    H262033   5.440   6.607   4.590 -0.2025  2.2863  1.3851
13540TIP3   OH262034   5.182   4.871  11.122  0.7523  0.3637  0.1070
13540TIP3    H162035   5.258   4.929  11.106 -0.4064  2.6393  2.1055
13540TIP3    H262036   5.111   4.932  11.142 -0.9562 -1.7891  0.8382
13541TIP3   OH262037   2.505   0.570   2.130 -0.0403 -0.3549  0.7179
13541TIP3    H162038   2.460   0.499   2.085 -0.5830  0.5486 -0.2001
13541TIP3    H262039   2.587   0.531   2.160  0.1230 -1.1221 -0.6290
13542TIP3   OH262040   3.549   5.545   0.610 -0.2208 -0.3071  0.6731
13542TIP3    H162041   3.478   5.481   0.607 -1.5106  1.0738  0.3988
13542TIP3    H262042   3.604   5.517   0.683 -0.1321 -2.3178 -0.1217
13543TIP3   OH262043   3.868   1.306  14.048 -0.1982  0.1950 -0.4104
13543TIP3    H162044   3.783   1.349  14.061 -1.5085 -2.2917 -0.0455
13543TIP3    H262045   3.883   1.313  13.954 -0.4777  1.2049 -0.3952
13544TIP3   OH262046   3.333   3.985  13.175  0.2910 -0.1824  0.2104
13544TIP3    H162047   3.417   4.008  13.135 -0.3933  1.4733 -0.3825
13544TIP3    H262048   3.353   3.972  13.267  1.1663  0.4922  0.1306
13545TIP3   OH262049   3.244   5.050   5.478  0.1756 -0.2398 -0.5575
13545TIP3    H162050   3.166   5.049   5.534  0.4864 -0.0830 -0.1183
13545TIP3    H262051   3.245   4.963   5.438 -0.4497 -0.1034 -0.8832
13546TIP3   OH262052   4.361   1.815  11.341 -0.3584 -0.2133  0.1409
13546TIP3    H162053   4.441   1.768  11.365 -0.0801  0.7065  1.0550
13546TIP3    H262054   4.304   1.747  11.305  0.5119 -1.0304  0.2552
13547TIP3   OH262055   5.503   1.259  13.545  0.3323 -0.2598 -0.5217
13547TIP3    H162056   5.590   1.281  13.577 -0.1950  2.2131 -0.6155
13547TIP3    H262057   5.516   1.180  13.493  2.4618 -0.0972 -0.3246
13548TIP3   OH262058   4.747   2.378   5.264 -0.2191 -0.2091  0.0193
13548TIP3    H162059   4.692   2.370   5.187  0.7487  0.2820 -0.7410
13548TIP3    H262060   4.809   2.448   5.243  0.2895 -0.3058  1.1000
13549TIP3   OH262061   5.510   1.879   4.089  0.1133  0.3999 -0.6335
13549TIP3    H162062   5.526   1.926   4.171  1.4216 -0.9186 -0.0891
13549TIP3    H262063   5.552   1.934   4.022  0.6172  0.6061 -0.1645
13550TIP3   OH262064   4.072   1.937  13.511 -0.8469 -0.3985 -0.0578
13550TIP3    H162065   4.136   1.994  13.554 -1.1856  0.2851 -0.4490
13550TIP3    H262066   4.017   1.996  13.460 -0.8321 -1.1356 -0.9595
13551TIP3   OH262067   0.745   4.082   1.628 -0.4311 -0.5153 -0.2184
13551TIP3    H162068   0.662   4.101   1.670 -0.0378  1.5408 -0.2782
13551TIP3    H262069   0.736   4.117   1.539  0.1198 -1.2781 -0.5947
13552TIP3   OH262070   4.539   4.725   3.938  0.4810  0.1657  0.0594
13552TIP3    H162071   4.493   4.740   3.855  0.5098 -0.0091  0.0126
13552TIP3    H262072   4.615   4.784   3.934  0.5019  0.1311 -0.0547
13553TIP3   OH262073   0.625   2.600   3.822 -0.4109 -0.3064 -0.0869
13553TIP3    H162074   0.618   2.675   3.881 -0.6809 -1.7753  1.8405
13553TIP3    H262075   0.573   2.531   3.864 -0.6808 -1.4098 -2.1040
13554TIP3   OH262076   0.877   4.221   1.103 -0.0381  0.4309 -0.6764
13554TIP3    H162077   0.893   4.302   1.150  0.1051  0.5819 -0.9830
13554TIP3    H262078   0.962   4.197   1.066 -0.7278  2.1241 -3.7096
13555TIP3   OH262079   4.552   2.605   1.020  0.3800 -0.0298 -0.3162
13555TIP3    H162080   4.509   2.521   1.035  0.0307  0.1540 -0.2585
13555TIP3    H262081   4.503   2.644   0.947 -0.2786  0.6608  0.4676
13556TIP3   OH262082   1.652   2.555  16.462  0.4867 -0.0606  0.1751
13556TIP3    H162083   1.597   2.603  16.523 -0.0994 -0.0724 -0.3368
13556TIP3    H262084   1.661   2.468  16.501 -0.5413 -0.3136 -0.1452
13557TIP3   OH262085   1.027   1.249  15.593 -0.1198 -0.3237  0.2273
13557TIP3    H162086   1.092   1.205  15.648 -1.7261 -1.3404  1.4149
13557TIP3    H262087   1.041   1.343  15.609  2.1669 -0.3762 -0.9478
13558TIP3   OH262088   0.816   0.968   3.412 -0.1584 -0.0181  0.4320
13558TIP3    H162089   0.842   0.921   3.491 -0.0077 -1.5109 -0.4720
13558TIP3    H262090   0.737   0.924   3.382 -0.0117  0.2872 -0.4520
13559TIP3   OH262091   5.121   6.787  13.531  0.0114 -0.3323 -0.0062
13559TIP3    H162092   5.144   6.854  13.596 -0.8404  1.0855 -1.1282
13559TIP3    H262093   5.111   6.834  13.449  0.7887 -2.0541 -1.1727
13560TIP3   OH262094   4.116   2.547   5.539  0.0997 -0.6300  0.1217
13560TIP3    H162095   4.082   2.498   5.614 -2.2444  1.0188  0.2758
13560TIP3    H262096   4.142   2.632   5.576  2.1689 -0.9714 -0.4350
13561TIP3   OH262097   2.641   6.088   5.393  0.1251  0.6651  0.3482
13561TIP3    H162098   2.726   6.063   5.429  0.0116  0.6562  0.6159
13561TIP3    H262099   2.652   6.179   5.365 -0.3102  1.3366  2.1746
13562TIP3   OH262100   1.512   0.041  16.786  0.3777 -0.4682 -0.5222
13562TIP3    H162101   1.527  -0.011  16.707 -0.2953 -1.8079  0.1942
13562TIP3    H262102   1.599   0.054  16.823  0.5571 -1.0972 -0.7096
13563TIP3   OH262103   5.569   5.472   2.752 -0.4385  0.1770  0.1793
13563TIP3    H162104   5.591   5.392   2.799 -1.1314  0.0951  0.3866
13563TIP3    H262105   5.652   5.506   2.720  0.1969  0.7004  2.2406
13564TIP3   OH262106   2.344   4.080  16.432 -0.2189 -0.1638  0.6790
13564TIP3    H162107   2.363   4.137  16.506  0.9601 -0.9009  0.9724
13564TIP3    H262108   2.263   4.035  16.456 -1.6065  1.9048  0.1039
13565TIP3   OH262109   2.027   2.090  13.304 -0.1510 -0.0315  0.1803
13565TIP3    H162110   1.952   2.072  13.247 -2.8357  2.8451  2.4782
13565TIP3    H262111   2.071   2.165  13.263 -0.5414  0.3855  0.5112
13566TIP3   OH262112   3.062   4.556  13.170  0.4722 -0.3934 -0.6948
13566TIP3    H162113   3.046   4.499  13.245 -1.5162 -0.4259 -1.0763
13566TIP3    H262114   3.023   4.510  13.096  0.8604  0.4243 -1.4335
13567TIP3   OH262115   0.879   2.714  13.972  0.1451  0.1099 -0.4758
13567TIP3    H162116   0.970   2.703  13.944  0.2710  1.7717 -0.8780
13567TIP3    H262117   0.833   2.639  13.936  1.5192 -1.2979  0.5828
13568TIP3   OH262118   6.108   6.486  15.984 -0.5776  0.0832 -0.6960
13568TIP3    H162119   6.044   6.523  16.045 -0.5989 -0.3796 -0.4330
13568TIP3    H262120   6.192   6.496  16.029 -0.5832 -0.1854 -0.6270
13569TIP3   OH262121   5.973   6.080   2.822 -0.4301 -0.2462  0.4615
13569TIP3    H162122   6.058   6.053   2.787  0.7808  1.0518  2.2268
13569TIP3    H262123   5.971   6.042   2.910 -2.1798 -1.1347  0.0879
13570TIP3   OH262124   4.951   0.834   4.822 -0.3024 -0.4517 -0.0526
13570TIP3    H162125   4.981   0.850   4.732  0.7201  3.3146  0.7535
13570TIP3    H262126   4.858   0.857   4.821 -0.4477 -1.0190 -0.2273
13571TIP3   OH262127   5.578   1.475  15.262 -0.8972  0.1502  0.6955
13571TIP3    H162128   5.565   1.483  15.167 -2.6423  3.5092  1.0731
13571TIP3    H262129   5.547   1.387  15.283 -2.5039  0.0734 -1.5782
13572TIP3   OH262130   2.903   3.594   0.572  0.3458  0.4602 -0.2535
13572TIP3    H162131   2.863   3.601   0.659  1.5583  0.9455  0.2999
13572TIP3    H262132   2.936   3.504   0.568  0.8064  0.6116  0.0386
13573TIP3   OH262133   3.724   4.471  16.671  0.1654 -0.6287  0.0826
13573TIP3    H162134   3.815   4.475  16.701  0.2430 -0.1225 -0.2203
13573TIP3    H262135   3.675   4.440  16.747  0.1721  1.7670  1.1569
13574TIP3   OH262136   3.188   4.157   0.786  0.0426 -0.6753  1.0133
13574TIP3    H162137   3.191   4.065   0.815 -1.9786 -1.5471 -1.1811
13574TIP3    H262138   3.106   4.190   0.823 -0.9452 -0.8511 -0.8929
13575TIP3   OH262139   3.756   2.956  14.904 -0.6712  0.0097 -0.1063
13575TIP3    H162140   3.771   3.035  14.956 -1.3663  0.9029 -1.2091
13575TIP3    H262141   3.687   2.909  14.951 -1.7386  1.1202 -0.4984
13576TIP3   OH262142   5.826   6.365  11.111 -0.4662 -0.2698  0.1396
13576TIP3    H162143   5.782   6.449  11.118 -0.0267 -0.1381  1.9145
13576TIP3    H262144   5.920   6.386  11.117 -0.3491 -0.8471  0.4888
13577TIP3   OH262145   2.396   0.136  13.976  0.0637  0.1645 -0.0631
13577TIP3    H162146   2.405   0.230  13.992  1.3163  0.0435  0.0535
13577TIP3    H262147   2.485   0.102  13.984  0.0772 -0.6168 -2.8274
13578TIP3   OH262148   3.270   3.059   0.391  0.1078 -0.3638  0.4794
13578TIP3    H162149   3.260   3.091   0.302 -1.5672  0.7268  1.0161
13578TIP3    H262150   3.354   3.093   0.420  0.7043 -0.7996 -0.6866
13579TIP3   OH262151   2.083   1.749   2.245  0.3019 -0.0901  0.1603
13579TIP3    H162152   2.116   1.731   2.157  1.2472 -0.6946  0.6259
13579TIP3    H262153   2.057   1.841   2.243 -3.1184 -0.9115 -1.8008
13580TIP3   OH262154   5.504   3.338  16.031  0.0619 -0.2836 -0.2049
13580TIP3    H162155   5.585   3.372  15.992  1.4302 -0.8560  1.9318
13580TIP3    H262156   5.531   3.256  16.072 -1.6574 -0.5506  0.4427
13581TIP3   OH262157   4.937   1.002  12.096 -0.4638  0.0123  0.3330
13581TIP3    H162158   4.975   1.076  12.048  0.4348 -0.1753  0.7348
13581TIP3    H262159   4.981   0.925  12.061  0.8971 -0.0516  2.0657
13582TIP3   OH262160   1.831   0.620  14.887  0.0744 -0.1862 -0.4188
13582TIP3    H162161   1.839   0.703  14.934  1.0259  0.0929 -1.0566
13582TIP3    H262162   1.763   0.637  14.822 -0.4622 -0.2325  0.1225
13583TIP3   OH262163   6.534   6.113  14.711  0.0812 -0.0727 -0.7171
13583TIP3    H162164   6.614   6.129  14.762 -1.1067 -0.2763  1.2957
13583TIP3    H262165   6.544   6.023  14.680  0.4104 -0.2894 -0.0179
13584TIP3   OH262166   5.580   1.640  13.593  0.2031 -0.4334 -0.3210
13584TIP3    H162167   5.654   1.631  13.653  0.8884 -2.6829 -1.4013
13584TIP3    H262168   5.591   1.728  13.556  1.3283 -0.0597  0.8188
13585TIP3   OH262169   2.010   6.100  10.592  0.5234 -0.4391 -0.6760
13585TIP3    H162170   2.003   6.018  10.642  1.3666 -0.6888 -0.9467
13585TIP3    H262171   2.035   6.165  10.657  0.3652 -0.5030 -0.5499
13586TIP3   OH262172   1.793   3.815   3.669 -0.0532 -0.0005  0.5899
13586TIP3    H162173   1.698   3.809   3.671 -0.1598  1.0924 -0.2109
13586TIP3    H262174   1.824   3.735   3.713 -1.3272 -0.1321  1.2722
13587TIP3   OH262175   5.004   2.017   5.395 -0.4745 -0.2598 -0.2220
13587TIP3    H162176   4.916   2.027   5.359 -0.6992  0.6950  0.5533
13587TIP3    H262177   5.037   1.936   5.356 -2.1947 -1.3499  0.4754
13588TIP3   OH262178   3.808   6.337   5.741 -0.3663  0.3338  0.1970
13588TIP3    H162179   3.830   6.329   5.834 -2.1523  2.1724  0.8418
13588TIP3    H262180   3.760   6.419   5.735 -1.6993 -0.5356 -2.1013
13589TIP3   OH262181   5.950   2.205   3.362 -0.3593 -0.1822 -0.5224
13589TIP3    H162182   5.926   2.297   3.369 -0.2478 -0.1615 -0.4203
13589TIP3    H262183   5.996   2.186   3.444 -0.6858 -0.4160 -0.3901
13590TIP3   OH262184   4.744   2.563   0.600  0.3156 -0.1248  0.1599
13590TIP3    H162185   4.722   2.613   0.521  0.0073  0.9183  0.8844
13590TIP3    H262186   4.663   2.517   0.621 -0.3915  1.5265  1.2374
13591TIP3   OH262187   0.376   3.393  15.728 -0.1814  0.4581 -0.8417
13591TIP3    H162188   0.429   3.328  15.682 -0.9550 -0.6830 -0.1770
13591TIP3    H262189   0.288   3.379  15.695 -1.0213 -1.3239  1.8623
13592TIP3   OH262190   4.575   5.450  12.492 -0.6544  0.3083  0.0200
13592TIP3    H162191   4.499   5.461  12.436 -0.5762 -1.1654 -0.4158
13592TIP3    H262192   4.539   5.431  12.579 -0.7702  0.8394  0.0925
13593TIP3   OH262193   3.950   6.042   2.056 -0.4715 -0.3444 -0.0461
13593TIP3    H162194   3.887   6.053   1.985 -0.3407  1.7999  0.0965
13593TIP3    H262195   3.965   5.948   2.060 -1.8123 -0.6882 -1.6839
13594TIP3   OH262196   5.607   4.659  16.840  0.6287  0.5888 -0.0672
13594TIP3    H162197   5.579   4.736  16.889  1.5223  0.1305  1.2134
13594TIP3    H262198   5.537   4.643  16.777 -0.0165  1.8618  0.3028
13595TIP3   OH262199   0.776   4.299   1.425  0.9040 -0.4580  0.0357
13595TIP3    H162200   0.688   4.319   1.392  0.7642  0.0689  0.7042
13595TIP3    H262201   0.798   4.216   1.384  1.3093  0.7917 -2.4850
13596TIP3   OH262202   3.551   3.585   0.399  0.5827 -1.0748  0.1154
13596TIP3    H162203   3.474   3.606   0.345  0.4799 -1.1037  0.2508
13596TIP3    H262204   3.559   3.658   0.459  0.8179 -0.9457 -0.0696
13597TIP3   OH262205   3.650   2.433  15.504  0.1778 -0.4056  0.5807
13597TIP3    H162206   3.621   2.360  15.558  0.0720 -1.0441 -0.3207
13597TIP3    H262207   3.731   2.463  15.546  0.5079 -1.3869  0.6763
13598TIP3   OH262208   4.054   3.332   0.844  0.3739  0.3309  0.1830
13598TIP3    H162209   4.009   3.265   0.895 -3.1075  0.4330 -2.3719
13598TIP3    H262210   4.103   3.283   0.777  0.8265  0.3122  0.5203
13599TIP3   OH262211   4.552   2.170  11.641 -0.0792  0.1485  0.8393
13599TIP3    H162212   4.639   2.210  11.642  0.1204 -0.2192  2.9588
13599TIP3    H262213   4.500   2.228  11.586  1.3797  0.6124 -0.1227
13600TIP3   OH262214   4.586   3.893   2.752  0.5665 -0.0075  0.3262
13600TIP3    H162215   4.609   3.983   2.730 -0.4303  0.6119  1.6344
13600TIP3    H262216   4.523   3.867   2.684  0.4927  0.4463  0.2200
13601TIP3   OH262217   3.865   0.486  16.823 -0.1889 -0.3229  0.4536
13601TIP3    H162218   3.852   0.580  16.806 -0.3161 -0.4200 -0.0037
13601TIP3    H262219   3.949   0.482  16.868  0.3110 -0.0755 -0.4352
13602TIP3   OH262220   4.893   1.211   2.226  0.2620  0.6158  0.0175
13602TIP3    H162221   4.964   1.230   2.287 -1.5717  0.9733  2.1683
13602TIP3    H262222   4.849   1.295   2.215 -0.9702  0.0231  0.2884
13603TIP3   OH262223   5.416   4.509  11.595  0.4556  0.3742 -0.0961
13603TIP3    H162224   5.414   4.600  11.563 -0.2725 -0.3866 -2.4141
13603TIP3    H262225   5.498   4.474  11.563  0.0919 -0.1763 -0.4404
13604TIP3   OH262226   0.522   4.431  15.197 -0.6823  0.4134  0.2139
13604TIP3    H162227   0.494   4.447  15.107  0.1914  0.9721  0.0301
13604TIP3    H262228   0.488   4.343  15.218 -3.0144  1.2469  0.2079
13605TIP3   OH262229   0.926   1.782   2.007 -0.2439 -0.3930 -0.5265
13605TIP3    H162230   0.904   1.869   2.042 -0.6746 -1.1950  1.2849
13605TIP3    H262231   0.863   1.768   1.937 -1.2470  0.0988  0.2481
13606TIP3   OH262232   6.710   3.979  13.578  0.9035  0.0671 -0.0154
13606TIP3    H162233   6.736   3.910  13.517 -0.3119 -1.2387  0.9067
13606TIP3    H262234   6.776   3.976  13.648 -1.3792 -3.1689  2.2643
13607TIP3   OH262235   0.205   1.563   1.140 -0.3419  0.0893  0.0338
13607TIP3    H162236   0.252   1.607   1.069 -1.2529  0.4322 -0.3669
13607TIP3    H262237   0.115   1.558   1.110 -0.5470 -0.6778  0.7441
13608TIP3   OH262238   4.734   6.580  13.175 -0.4176  0.3383  0.1375
13608TIP3    H162239   4.719   6.494  13.136  1.5199  1.2496 -2.9148
13608TIP3    H262240   4.691   6.641  13.116  0.3372  1.6431  0.8968
13609TIP3   OH262241   1.073   3.062  11.419 -0.0874 -0.1532  0.2263
13609TIP3    H162242   1.162   3.092  11.399 -0.9487  1.7495 -0.9984
13609TIP3    H262243   1.059   3.089  11.510 -0.4477  2.4337 -0.5100
13610TIP3   OH262244   1.909   3.814  14.292  0.2138 -0.3768  0.8667
13610TIP3    H162245   1.975   3.858  14.345  0.3365  1.1020 -0.4377
13610TIP3    H262246   1.858   3.886  14.253 -0.7435 -1.4407  0.0809
13611TIP3   OH262247   3.786   0.035  15.427 -0.0270 -0.1067 -0.1626
13611TIP3    H162248   3.842   0.038  15.350 -1.7830  0.7427 -1.4546
13611TIP3    H262249   3.825   0.098  15.488  1.4376 -0.8742 -0.2715
13612TIP3   OH262250   0.902   5.138  12.542  0.5542  0.0009  0.3977
13612TIP3    H162251   0.828   5.103  12.493  1.0904 -2.2213  1.0906
13612TIP3    H262252   0.979   5.097  12.504  1.3744  1.4572  0.3963
13613TIP3   OH262253   2.959   4.080   5.060  0.1929 -0.4033 -0.5055
13613TIP3    H162254   2.897   4.138   5.017  0.0127 -0.5223 -0.4063
13613TIP3    H262255   2.995   4.132   5.132  0.3087 -0.2900 -0.6430
13614TIP3   OH262256   0.401   5.088   1.661 -0.4245 -0.0086  0.1879
13614TIP3    H162257   0.467   5.123   1.601 -0.6169 -0.8042 -0.4912
13614TIP3    H262258   0.447   5.019   1.709 -0.3394  0.4623  0.8083
13615TIP3   OH262259   0.611   5.088  13.310 -0.1881 -0.6069 -0.0491
13615TIP3    H162260   0.629   5.001  13.276  1.6926 -1.1385  2.0975
13615TIP3    H262261   0.695   5.120  13.342 -1.4147  0.6548  2.1802
13616TIP3   OH262262   5.216   1.554  10.883  0.0793  0.0531 -0.3891
13616TIP3    H162263   5.279   1.562  10.811  0.7638 -0.2133  0.1745
13616TIP3    H262264   5.146   1.500  10.848  0.4098 -0.0747 -0.8560
13617TIP3   OH262265   1.072   4.037  10.576  0.2775  0.4880  0.2599
13617TIP3    H162266   1.048   3.945  10.560  1.0223  0.3410 -0.0530
13617TIP3    H262267   1.157   4.032  10.619  0.6946  1.0570 -0.4754
13618TIP3   OH262268   2.678   5.685   4.025 -0.1380  0.3777 -0.3717
13618TIP3    H162269   2.654   5.746   4.095  2.6302  1.2616 -0.0672
13618TIP3    H262270   2.599   5.677   3.972 -1.6771  1.3761  1.6297
13619TIP3   OH262271   3.115   3.508   2.728 -0.2816 -0.0532 -0.2260
13619TIP3    H162272   3.052   3.512   2.801 -3.6426 -1.9830 -2.7181
13619TIP3    H262273   3.148   3.418   2.731  1.4492  0.5544  0.2222
13620TIP3   OH262274   6.555   3.094  15.300  0.2071  0.5611  1.0051
13620TIP3    H162275   6.579   3.171  15.351 -0.2853  0.5756  1.2228
13620TIP3    H262276   6.468   3.070  15.332 -1.0153  1.7460 -1.1273
13621TIP3   OH262277   2.533   6.114   5.715 -0.1596 -0.1908 -0.2055
13621TIP3    H162278   2.491   6.044   5.765 -2.0377  0.7000 -0.4507
13621TIP3    H262279   2.471   6.133   5.644  0.3546  1.6377 -0.2029
13622TIP3   OH262280   1.501   3.204   2.131 -0.0238 -0.4227  0.4997
13622TIP3    H162281   1.502   3.134   2.195  0.1101 -0.8136  0.0768
13622TIP3    H262282   1.434   3.265   2.162  0.2945 -0.4185  1.2013
13623TIP3   OH262283   2.670   6.275   0.722  0.4538 -0.0013  0.5790
13623TIP3    H162284   2.711   6.317   0.646 -1.3311  2.9952  1.1320
13623TIP3    H262285   2.637   6.192   0.688  3.8894 -1.0264 -0.6482
13624TIP3   OH262286   6.176   4.254  15.972 -0.0541  0.5957  0.2577
13624TIP3    H162287   6.209   4.227  16.057 -1.8842  1.8040  1.4151
13624TIP3    H262288   6.121   4.330  15.990 -1.1022  0.4330 -1.9011
13625TIP3   OH262289   2.294   1.498   2.362  0.6636 -0.0141  0.0099
13625TIP3    H162290   2.214   1.459   2.328  1.5722 -1.7006 -0.2667
13625TIP3    H262291   2.329   1.549   2.289  0.2924  0.0343 -0.1355
13626TIP3   OH262292   5.606   5.376   3.517  0.0147 -0.4797 -0.6115
13626TIP3    H162293   5.543   5.353   3.449  0.8011  0.9154 -1.8774
13626TIP3    H262294   5.677   5.312   3.508 -0.2381 -0.7623 -0.5966
13627TIP3   OH262295   1.892   4.933  12.842  1.0041 -0.1308  0.0819
13627TIP3    H162296   1.979   4.914  12.878  0.6635 -0.5157  0.7387
13627TIP3    H262297   1.838   4.861  12.875 -0.6650  2.4968  3.7744
13628TIP3   OH262298   5.514   3.702  14.204 -0.1974 -0.7994  0.6598
13628TIP3    H162299   5.550   3.775  14.154 -1.2979 -0.6618  0.0381
13628TIP3    H262300   5.581   3.683  14.271  0.2748  0.4999  0.5780
13629TIP3   OH262301   5.661   3.187  10.790  0.3074  0.0922 -0.0718
13629TIP3    H162302   5.571   3.179  10.760  0.4441 -0.6382 -0.2932
13629TIP3    H262303   5.709   3.120  10.741  1.1727  1.1786 -0.7512
13630TIP3   OH262304   5.427   0.086   5.870 -0.4232  0.0704  0.1696
13630TIP3    H162305   5.334   0.099   5.889 -0.9162 -1.0391 -1.3157
13630TIP3    H262306   5.454   0.167   5.828 -1.2230 -0.2866 -1.0949
13631TIP3   OH262307   0.507   2.812  17.033 -0.5844  0.2290 -0.7432
13631TIP3    H162308   0.530   2.723  17.059 -1.1810  0.0283 -0.8871
13631TIP3    H262309   0.413   2.808  17.016 -0.3961  0.6187 -1.9010
13632TIP3   OH262310   2.946   1.070  16.493 -0.1781  0.3938 -0.3547
13632TIP3    H162311   2.957   1.036  16.582 -0.6920 -1.1838 -0.8543
13632TIP3    H262312   2.855   1.050  16.471  0.0384  0.4634 -1.3476
13633TIP3   OH262313   5.761   5.620  13.510 -0.1018 -0.5718 -0.3547
13633TIP3    H162314   5.693   5.556  13.529  1.4090 -2.1268  0.1023
13633TIP3    H262315   5.777   5.611  13.416  1.3936 -2.2950  0.0075
13634TIP3   OH262316   0.339   4.223  16.284  0.5667 -1.0355  0.2865
13634TIP3    H162317   0.382   4.210  16.199 -1.2698 -0.4293 -0.7786
13634TIP3    H262318   0.368   4.310  16.312 -0.2680 -0.4440 -0.6336
13635TIP3   OH262319   2.498   4.191  10.730  0.4465  0.0213 -0.1587
13635TIP3    H162320   2.564   4.139  10.686  1.8718  1.2068  0.4770
13635TIP3    H262321   2.475   4.259  10.667  0.2535 -0.0485 -0.1652
13636TIP3   OH262322   5.259   1.118  16.424  0.0813 -0.2367  0.3025
13636TIP3    H162323   5.341   1.073  16.404 -0.4157 -0.4385 -1.4874
13636TIP3    H262324   5.287   1.196  16.472  1.2674 -0.6185  0.2832
13637TIP3   OH262325   2.056   4.882   1.212  0.4926  0.2418  0.2388
13637TIP3    H162326   1.990   4.951   1.217 -0.2394 -0.3663 -0.6792
13637TIP3    H262327   2.118   4.913   1.146 -0.4035 -0.4213 -0.9468
13638TIP3   OH262328   1.621   2.166  16.929 -0.1991  0.2206  0.1508
13638TIP3    H162329   1.551   2.153  16.993 -2.9375  0.4721 -2.5701
13638TIP3    H262330   1.600   2.250  16.888  0.5289 -0.6116 -2.0803
13639TIP3   OH262331   0.925   0.229  16.980  0.2543 -0.1174  0.4016
13639TIP3    H162332   0.975   0.150  16.961  0.7477  0.4196 -0.6368
13639TIP3    H262333   0.847   0.198  17.025  0.6152 -1.1573  0.3386
13640TIP3   OH262334   1.059   3.242  13.789 -0.4291  0.4311 -0.1395
13640TIP3    H162335   0.974   3.248  13.745 -0.7172 -0.0103  0.3383
13640TIP3    H262336   1.051   3.164  13.845  0.2950  0.3771 -0.1012
13641TIP3   OH262337   0.557   3.536  14.256  0.0703 -0.3672 -0.4256
13641TIP3    H162338   0.556   3.491  14.340  1.2660 -2.4579 -1.4520
13641TIP3    H262339   0.496   3.487  14.201 -2.0798  2.0237 -0.3767
13642TIP3   OH262340   0.787   2.645   5.404  0.3921  0.2601 -0.2095
13642TIP3    H162341   0.871   2.689   5.388  0.6005  0.2521  0.8008
13642TIP3    H262342   0.779   2.582   5.332  1.8205 -0.5542  0.2943
13643TIP3   OH262343   0.614   3.994  13.294  0.2098 -0.4181 -0.2356
13643TIP3    H162344   0.640   3.926  13.357  2.4210  0.4012 -0.1577
13643TIP3    H262345   0.677   3.986  13.223 -1.4555 -0.4692 -1.7588
13644TIP3   OH262346   0.722   1.775   5.120  0.3310 -0.3924  1.1522
13644TIP3    H162347   0.740   1.695   5.170  0.7989  0.3412  2.1977
13644TIP3    H262348   0.637   1.804   5.153  1.6635  1.3428  3.2801
13645TIP3   OH262349   3.561   3.173  11.798  0.2368  0.2484  0.4177
13645TIP3    H162350   3.504   3.249  11.799 -1.0218 -0.6655  0.5722
13645TIP3    H262351   3.516   3.108  11.852  0.1905 -1.3484 -1.4138
13646TIP3   OH262352   3.940   0.632  13.798  0.5563 -0.9643 -0.4630
13646TIP3    H162353   3.998   0.707  13.813  1.3647 -1.9263  1.5785
13646TIP3    H262354   4.000   0.561  13.773  0.1589 -1.6851  0.5780
13647TIP3   OH262355   6.790   0.512  12.369  0.3167  0.2104  0.6580
13647TIP3    H162356   6.815   0.504  12.461  2.6564  0.9547  0.1577
13647TIP3    H262357   6.802   0.424  12.333  0.5290  0.1645  0.8382
13648TIP3   OH262358   5.896   3.781  13.052  0.0498 -0.4587  0.1010
13648TIP3    H162359   5.810   3.823  13.048 -0.5717 -1.7715 -1.7032
13648TIP3    H262360   5.877   3.688  13.063  1.1439 -0.9589 -1.7681
13649TIP3   OH262361   4.383   6.723   5.392  0.1102 -0.5400 -0.4463
13649TIP3    H162362   4.303   6.670   5.387  0.0882 -0.4447 -1.2284
13649TIP3    H262363   4.407   6.738   5.301  0.5857  0.0964 -0.2194
13650TIP3   OH262364   2.186   3.349   1.347 -0.3082  0.5745  0.1729
13650TIP3    H162365   2.249   3.381   1.282 -0.3269 -1.1226 -0.7213
13650TIP3    H262366   2.213   3.259   1.365 -1.5402  0.3411  0.9672
13651TIP3   OH262367   5.151   2.991   3.226  0.5622  0.2235  0.2489
13651TIP3    H162368   5.197   2.910   3.247  0.0739  0.2879  1.6532
13651TIP3    H262369   5.098   3.010   3.304 -1.6637  0.2712 -1.1648
13652TIP3   OH262370   2.310   4.126   5.142 -0.2430 -0.3869  0.1103
13652TIP3    H162371   2.235   4.172   5.105 -0.2601 -1.7665 -1.7322
13652TIP3    H262372   2.277   4.040   5.166  0.7117 -1.0267 -0.7535
13653TIP3   OH262373   3.823   1.558   1.628  0.0739 -0.2768 -0.1383
13653TIP3    H162374   3.728   1.572   1.628 -0.1046 -1.3817  0.4183
13653TIP3    H262375   3.856   1.618   1.695 -0.3334 -0.4605  0.2296
13654TIP3   OH262376   1.139   1.955  13.673  0.1482 -0.6452 -0.6762
13654TIP3    H162377   1.120   1.898  13.748 -0.5006 -1.1616 -1.2206
13654TIP3    H262378   1.063   1.944  13.615 -0.8319  2.0709 -0.0428
13655TIP3   OH262379   0.200   5.793  13.669 -0.0623  0.5387  0.5594
13655TIP3    H162380   0.112   5.817  13.695 -0.5050 -0.4369  0.0106
13655TIP3    H262381   0.254   5.869  13.691 -1.0701  1.2182  0.7019
13656TIP3   OH262382   4.845   6.452  14.464  0.3320 -0.8268 -0.0974
13656TIP3    H162383   4.827   6.485  14.376  0.3586 -0.5805 -0.0124
13656TIP3    H262384   4.898   6.520  14.505  1.0964 -1.3561 -0.1961
13657TIP3   OH262385   5.931   0.189  15.746  0.2843 -0.4810 -0.7777
13657TIP3    H162386   6.001   0.254  15.739  0.3973 -0.6785 -1.5992
13657TIP3    H262387   5.854   0.232  15.710  0.3246 -0.7372 -1.1831
13658TIP3   OH262388   3.052   3.352   1.120 -0.2875  0.0615 -0.6802
13658TIP3    H162389   3.031   3.260   1.138 -1.3446  0.5771  0.8733
13658TIP3    H262390   3.115   3.348   1.048  0.8659 -1.9576  0.3395
13659TIP3   OH262391   5.186   4.446  14.845 -0.2918  1.2053  0.2894
13659TIP3    H162392   5.164   4.393  14.922 -1.4858  0.3044 -0.6330
13659TIP3    H262393   5.214   4.530  14.881 -0.3471  0.6378  1.7243
13660TIP3   OH262394   4.207   1.612  14.205  0.0202  0.4839  0.4359
13660TIP3    H162395   4.300   1.626  14.188  0.1245  0.9393  1.3117
13660TIP3    H262396   4.187   1.670  14.279 -0.9972  0.5154  0.1579
13661TIP3   OH262397   3.370   0.924   1.835  0.0726 -0.1713 -0.3291
13661TIP3    H162398   3.421   0.844   1.822  0.2500 -0.1131 -0.0010
13661TIP3    H262399   3.281   0.900   1.811  0.1208 -0.4706 -0.2122
13662TIP3   OH262400   3.270   4.135  12.458 -0.3330  0.2527  0.2087
13662TIP3    H162401   3.285   4.097  12.545 -0.4316  0.0199  0.1273
13662TIP3    H262402   3.202   4.201  12.472  0.8340  1.3986  0.6007
13663TIP3   OH262403   5.227   1.082  13.182 -0.3941 -0.5530  0.1088
13663TIP3    H162404   5.174   1.151  13.142  0.3934  1.7555  2.6930
13663TIP3    H262405   5.175   1.002  13.173 -2.5863  0.8987 -0.6848
13664TIP3   OH262406   1.163   3.238   3.094  0.3231  0.2955  0.0855
13664TIP3    H162407   1.185   3.248   3.187 -0.0487 -2.2661  0.5228
13664TIP3    H262408   1.248   3.229   3.050  0.4612 -0.9475  0.5607
13665TIP3   OH262409   3.603   0.316  12.358 -0.4769 -0.4901 -0.4846
13665TIP3    H162410   3.527   0.282  12.404  0.0521 -1.3320 -0.2147
13665TIP3    H262411   3.570   0.339  12.271 -1.4859  1.1411  0.2826
13666TIP3   OH262412   0.453   5.416  13.476  0.0366 -0.8302  0.2805
13666TIP3    H162413   0.394   5.459  13.414  0.3827 -0.2744  0.3263
13666TIP3    H262414   0.407   5.336  13.502 -0.1160 -1.0677 -0.6891
13667TIP3   OH262415   0.943   6.190  11.893  0.2770  0.1600  0.0146
13667TIP3    H162416   0.864   6.166  11.844 -1.2927 -0.3595  2.6096
13667TIP3    H262417   0.921   6.274  11.933  0.9639 -0.0759  0.9181
13668TIP3   OH262418   5.598   1.467  13.254  0.2561 -0.2811  0.6109
13668TIP3    H162419   5.548   1.547  13.272 -0.1668 -0.5353  0.5749
13668TIP3    H262420   5.550   1.424  13.184  1.5503  0.3915 -0.7702
13669TIP3   OH262421   0.529   2.271   0.107  0.2661  0.0493  0.2006
13669TIP3    H162422   0.487   2.266   0.192 -2.4792  0.9331 -0.9913
13669TIP3    H262423   0.512   2.186   0.067  0.3522  0.1179  0.0161
13670TIP3   OH262424   4.354   2.516   5.374  0.0454  0.0433  0.4993
13670TIP3    H162425   4.267   2.524   5.413  0.2865 -1.3390  1.3772
13670TIP3    H262426   4.363   2.423   5.355  1.0015  0.3051 -0.4078
13671TIP3   OH262427   5.464   4.873   5.319 -0.6981  0.4675 -0.3593
13671TIP3    H162428   5.518   4.884   5.240  0.4831  0.6247  0.4457
13671TIP3    H262429   5.527   4.873   5.391 -1.6384 -0.8283  0.5134
13672TIP3   OH262430   0.610   1.502  16.700 -0.0316  0.0867 -0.1281
13672TIP3    H162431   0.655   1.508  16.784 -2.6610 -0.5366  1.4223
13672TIP3    H262432   0.616   1.410  16.676 -1.2050 -0.1698  0.5309
13673TIP3   OH262433   0.608   4.242   3.912 -0.2646  0.0322 -0.3213
13673TIP3    H162434   0.538   4.254   3.847 -1.4425  1.5585  1.1318
13673TIP3    H262435   0.671   4.311   3.893 -1.1456  1.1796  0.7535
13674TIP3   OH262436   3.068   4.652   5.699 -0.0415 -0.1927  0.4379
13674TIP3    H162437   2.973   4.657   5.699 -0.1228 -1.4579  0.6266
13674TIP3    H262438   3.091   4.619   5.613  0.5742  4.3584 -1.4344
13675TIP3   OH262439   6.026   3.860   0.568  0.3177  0.7390 -0.5501
13675TIP3    H162440   5.989   3.945   0.593  0.3312  0.5937 -0.0216
13675TIP3    H262441   6.067   3.876   0.483  0.1605  1.2172 -0.5400
13676TIP3   OH262442   4.676   1.359  11.293 -0.3409 -0.5130 -0.2735
13676TIP3    H162443   4.638   1.408  11.220 -0.7781 -0.5315 -0.0582
13676TIP3    H262444   4.754   1.410  11.317 -0.4834 -0.2230 -0.4155
13677TIP3   OH262445   4.947   4.558   3.437  0.2663  0.3170  0.6297
13677TIP3    H162446   5.014   4.599   3.382  0.6969 -1.7256 -0.4697
13677TIP3    H262447   4.885   4.522   3.375 -0.2016 -0.4953  1.5582
13678TIP3   OH262448   6.245   2.971   1.636 -0.1298 -0.0706 -0.0634
13678TIP3    H162449   6.227   3.065   1.639  1.1454  0.1714  1.6181
13678TIP3    H262450   6.195   2.935   1.710 -1.3202 -0.8899 -1.2202
13679TIP3   OH262451   0.856   3.249  12.077 -0.1518 -0.2249  0.0271
13679TIP3    H162452   0.866   3.274  12.169 -0.2183  0.9164 -0.2572
13679TIP3    H262453   0.922   3.181  12.063  1.4004  1.1352  0.3713
13680TIP3   OH262454   4.654   2.408  16.256 -0.6661  0.7124 -0.0191
13680TIP3    H162455   4.569   2.442  16.230 -0.6275  0.1224 -0.9444
13680TIP3    H262456   4.665   2.438  16.346 -2.9943 -1.3285  1.0514
13681TIP3   OH262457   1.894   3.751  14.609 -0.3725 -0.7270  0.1458
13681TIP3    H162458   1.976   3.702  14.596 -0.4740 -0.8156 -0.1674
13681TIP3    H262459   1.920   3.842  14.596 -0.2498 -0.7232  0.4062
13682TIP3   OH262460   4.534   6.462   2.098  0.0715  0.3010  0.0019
13682TIP3    H162461   4.570   6.513   2.025  2.2050 -0.5259  0.3873
13682TIP3    H262462   4.538   6.522   2.173  0.5393  0.2749  0.0047
13683TIP3   OH262463   6.002   2.982  17.080  0.4528  0.1245  0.4923
13683TIP3    H162464   6.022   2.895  17.045 -0.2892 -0.3438  1.1764
13683TIP3    H262465   6.087   3.018  17.106  1.1250  0.7626 -2.2852
13684TIP3   OH262466   4.301   6.509   1.615  0.2337  0.0110  0.2280
13684TIP3    H162467   4.265   6.426   1.645  1.6381 -0.9387 -0.6470
13684TIP3    H262468   4.337   6.491   1.528  3.8272  0.5576  1.4362
13685TIP3   OH262469   2.745   1.048   4.516  0.2233  0.2866 -0.3279
13685TIP3    H162470   2.706   1.060   4.602  0.1989 -0.9740 -0.1374
13685TIP3    H262471   2.833   1.014   4.534  0.2945  0.2113 -0.7977
13686TIP3   OH262472   5.956   3.370  15.715  0.4792 -0.3230  0.5453
13686TIP3    H162473   5.861   3.381  15.705  0.7615  1.0069 -0.9915
13686TIP3    H262474   5.988   3.355  15.626  1.5781 -2.2305  1.1979
13687TIP3   OH262475   1.292   2.259   1.853  0.1721  0.1337 -0.2417
13687TIP3    H162476   1.293   2.164   1.841 -0.3277  0.2417 -1.2195
13687TIP3    H262477   1.200   2.283   1.853  0.2148  0.4494  1.6478
13688TIP3   OH262478   2.773   0.812   2.714  0.5887 -0.5496 -0.8636
13688TIP3    H162479   2.786   0.898   2.673 -2.8948  1.7117  2.1076
13688TIP3    H262480   2.855   0.795   2.761  0.8765  1.9836 -0.3048
13689TIP3   OH262481   4.361   2.724  13.157 -0.2647  0.0051 -0.0665
13689TIP3    H162482   4.319   2.794  13.207 -2.0454 -0.0028 -1.4518
13689TIP3    H262483   4.392   2.662  13.223 -1.9143  0.3119  1.0521
13690TIP3   OH262484   5.374   1.642  13.007  0.7312  0.0367 -0.0938
13690TIP3    H162485   5.403   1.716  13.060  1.7678  0.6461 -1.4462
13690TIP3    H262486   5.308   1.599  13.060  0.0697  1.9585  0.7458
13691TIP3   OH262487   2.779   1.449  13.937  0.1150 -0.3503  1.0133
13691TIP3    H162488   2.822   1.512  13.879 -0.3804 -1.5273 -0.7282
13691TIP3    H262489   2.838   1.441  14.011  1.2939  0.4779  0.2114
13692TIP3   OH262490   5.495   0.480   3.059 -0.1683 -0.6510 -0.4327
13692TIP3    H162491   5.448   0.486   2.976  0.0313 -1.5256 -0.6138
13692TIP3    H262492   5.443   0.533   3.120  0.4935  1.2804 -1.4555
13693TIP3   OH262493   3.942   5.549  14.870 -0.2045  0.2221 -0.3517
13693TIP3    H162494   3.974   5.478  14.925 -0.7735  0.0712 -0.2100
13693TIP3    H262495   3.889   5.507  14.803 -0.2632  0.4786 -0.4691
13694TIP3   OH262496   2.401   2.048  15.098  0.1700 -0.0139  0.2232
13694TIP3    H162497   2.335   2.043  15.168  0.4759  0.3368  0.5396
13694TIP3    H262498   2.485   2.052  15.144  0.3390  0.8715 -0.1413
13695TIP3   OH262499   4.053   6.332  12.202 -0.3394 -0.1479 -0.5482
13695TIP3    H162500   4.008   6.254  12.171 -1.1427  0.3425 -0.6408
13695TIP3    H262501   4.142   6.303  12.221 -0.2772 -0.7940 -1.7982
13696TIP3   OH262502   2.143   0.838   1.855  0.0268  0.2265 -0.1046
13696TIP3    H162503   2.196   0.893   1.798 -0.0446  1.3156  0.8379
13696TIP3    H262504   2.069   0.811   1.801  1.9013 -2.0718 -1.7303
13697TIP3   OH262505   2.539   6.679  14.161  0.5579  0.2148 -0.3175
13697TIP3    H162506   2.612   6.728  14.125  1.5774  0.3236  1.7833
13697TIP3    H262507   2.547   6.592  14.121  1.3350  0.4716 -0.7347
13698TIP3   OH262508   0.853   3.718  12.477  0.2583  0.3971  0.2265
13698TIP3    H162509   0.817   3.702  12.390 -1.3396 -1.0128  1.0853
13698TIP3    H262510   0.778   3.708  12.536  1.0742  2.3316  1.7123
13699TIP3   OH262511   5.718   1.323   5.592  0.2988  0.0253 -0.6579
13699TIP3    H162512   5.716   1.355   5.683  2.0463 -1.2790 -0.1135
13699TIP3    H262513   5.626   1.313   5.568 -0.1956  0.4339  0.9530
13700TIP3   OH262514   0.344   2.464   3.178  0.2039  0.2293 -0.2009
13700TIP3    H162515   0.256   2.441   3.208  0.5856 -1.4467 -0.2688
13700TIP3    H262516   0.339   2.557   3.156 -1.2668  0.4040  0.7881
13701TIP3   OH262517   1.947   1.049   1.542  0.5101 -0.4813 -0.5347
13701TIP3    H162518   1.891   0.990   1.592  0.0844 -0.4321 -0.9519
13701TIP3    H262519   1.898   1.067   1.462  0.3161  1.0336 -0.1009
13702TIP3   OH262520   3.134   2.854  11.074 -0.3201 -0.5994  0.1707
13702TIP3    H162521   3.100   2.932  11.029 -1.7740 -0.7239  0.9837
13702TIP3    H262522   3.164   2.797  11.004  2.8626  1.5303 -0.4206
13703TIP3   OH262523   2.182   1.943   2.921 -0.0554  1.0029 -0.3384
13703TIP3    H162524   2.202   1.958   3.014 -0.2737  0.3211 -0.1751
13703TIP3    H262525   2.093   1.978   2.910 -1.7117 -2.3946  0.7006
13704TIP3   OH262526   4.345   5.572  12.344  0.0027 -0.2779  0.4053
13704TIP3    H162527   4.365   5.649  12.397  1.4074 -1.0813  1.1165
13704TIP3    H262528   4.277   5.525  12.393  1.5102 -1.1789  1.7429
13705TIP3   OH262529   1.816   3.869  12.230  0.5444  0.0014  0.5719
13705TIP3    H162530   1.744   3.807  12.229  0.1950  0.4001 -0.3812
13705TIP3    H262531   1.885   3.828  12.177  1.1055 -0.4625  1.6354
13706TIP3   OH262532   1.509   6.015   3.436 -0.0981  0.0738  0.5727
13706TIP3    H162533   1.433   6.025   3.378  0.5542  2.8380  0.0438
13706TIP3    H262534   1.564   6.091   3.417  1.5301 -0.4178  2.8553
13707TIP3   OH262535   0.728   1.955  15.967 -0.4566 -0.5361 -0.7166
13707TIP3    H162536   0.812   2.000  15.976 -1.2400  0.9175 -0.3373
13707TIP3    H262537   0.679   1.979  16.045 -1.5623 -0.6107 -1.3637
13708TIP3   OH262538   0.942   3.597   2.824 -0.1956  0.1509 -0.1710
13708TIP3    H162539   0.919   3.672   2.878  1.8766 -0.2955  1.4499
13708TIP3    H262540   0.961   3.527   2.886  2.3237 -0.3754 -1.3990
13709TIP3   OH262541   4.752   1.056  13.455 -0.4576  0.0004 -0.5558
13709TIP3    H162542   4.798   0.983  13.413 -0.5493  0.4077 -1.3795
13709TIP3    H262543   4.813   1.129  13.448 -1.5263  0.7580 -2.3781
13710TIP3   OH262544   4.250   0.595   2.723  0.4664  0.0236  0.1609
13710TIP3    H162545   4.202   0.526   2.678  2.1895 -0.4383 -1.0832
13710TIP3    H262546   4.202   0.675   2.702 -0.5744 -0.5775  0.1849
13711TIP3   OH262547   4.002   3.319  15.633 -0.2333 -0.2760 -0.6953
13711TIP3    H162548   4.005   3.275  15.718  2.3787  0.9678 -0.0270
13711TIP3    H262549   4.053   3.262  15.575 -0.2625 -0.1303 -0.8651
13712TIP3   OH262550   6.171   4.378  16.395 -0.1051  0.3364 -0.4210
13712TIP3    H162551   6.204   4.383  16.485 -1.2825  2.3771 -0.0207
13712TIP3    H262552   6.175   4.285  16.373  1.8516 -0.0184  1.0788
13713TIP3   OH262553   0.441   5.957   3.251  0.5503 -0.2209 -0.1444
13713TIP3    H162554   0.498   5.960   3.327  1.4456  0.3007 -0.8110
13713TIP3    H262555   0.399   5.871   3.255 -0.2109  0.2011  1.4733
13714TIP3   OH262556   4.844   1.287   6.181  0.5232 -0.1086  0.0315
13714TIP3    H162557   4.859   1.193   6.188  0.3733 -0.1082  0.3712
13714TIP3    H262558   4.781   1.307   6.250 -1.8735 -0.2923 -1.9882
13715TIP3   OH262559   5.515   3.651   0.093 -0.5915 -0.5943  0.1359
13715TIP3    H162560   5.546   3.572   0.138  0.6860 -1.1413 -1.6169
13715TIP3    H262561   5.574   3.662   0.019  0.3643  2.9835  1.1928
13716TIP3   OH262562   4.179   4.158   1.257 -0.3568  0.0753  0.0489
13716TIP3    H162563   4.169   4.215   1.181  1.6250 -0.3602 -0.6027
13716TIP3    H262564   4.169   4.069   1.221  1.8045 -0.1959 -0.0054
13717TIP3   OH262565   3.841   1.530  11.424  0.1003  0.2736  0.0446
13717TIP3    H162566   3.835   1.549  11.517 -0.9636  0.1146  0.0194
13717TIP3    H262567   3.909   1.463  11.418 -0.5668 -0.5007  0.8390
13718TIP3   OH262568   4.534   2.337  14.914  0.4320 -0.5965 -0.0910
13718TIP3    H162569   4.594   2.363  14.844 -0.5624 -0.6515 -0.9826
13718TIP3    H262570   4.559   2.247  14.935  0.1127 -0.9333 -1.0761
13719TIP3   OH262571   5.069   4.912  14.605 -0.6883  0.3267 -0.5344
13719TIP3    H162572   5.140   4.894  14.666 -0.6026  0.3859 -0.6174
13719TIP3    H262573   5.060   4.832  14.553 -2.6451 -0.8228  1.4291
13720TIP3   OH262574   0.490   0.670   3.934  0.3981 -0.2295 -0.4519
13720TIP3    H162575   0.554   0.664   3.863  0.3261  1.6002 -0.7163
13720TIP3    H262576   0.519   0.604   3.997 -0.0158 -2.5072 -2.4899
13721TIP3   OH262577   4.936   1.086  10.823 -0.0123 -0.1561  0.4866
13721TIP3    H162578   4.949   1.036  10.743 -2.4026 -1.5657  0.8793
13721TIP3    H262579   5.008   1.150  10.823  1.3658 -1.5600 -1.5949
13722TIP3   OH262580   5.369   4.325  10.307 -0.3456 -0.0315  0.0145
13722TIP3    H162581   5.380   4.249  10.251  2.0986 -0.5528  1.0552
13722TIP3    H262582   5.440   4.384  10.282 -0.6090  0.7438  1.0088
13723TIP3   OH262583   3.631   1.679   4.414  0.3214 -0.1313  0.3603
13723TIP3    H162584   3.708   1.731   4.434 -0.7412  1.2445  1.0390
13723TIP3    H262585   3.587   1.666   4.498 -0.3636 -0.6158 -0.0496
13724TIP3   OH262586   0.592   3.577   5.077 -0.0133 -0.2981 -0.2266
13724TIP3    H162587   0.554   3.665   5.076  1.1030  0.2077  0.1949
13724TIP3    H262588   0.635   3.571   5.162  0.6820 -0.9223 -0.6150
13725TIP3   OH262589   2.082   0.403  13.505 -0.1392  0.1812 -0.6399
13725TIP3    H162590   1.989   0.384  13.497 -0.4621 -0.7806  3.2601
13725TIP3    H262591   2.087   0.498  13.519 -0.8376  0.0099  1.0567
13726TIP3   OH262592   4.711   5.881  15.397 -0.0234 -0.6785 -0.0659
13726TIP3    H162593   4.800   5.855  15.419 -0.4213 -2.1780 -0.1514
13726TIP3    H262594   4.713   5.977  15.401  0.9915 -0.7168  2.3737
13727TIP3   OH262595   3.447   3.708   1.776  0.0181  0.5334 -0.1215
13727TIP3    H162596   3.465   3.793   1.817  1.9148  0.5320 -0.8643
13727TIP3    H262597   3.362   3.682   1.811  1.5563  0.3760  4.1109
13728TIP3   OH262598   1.426   3.841   0.174  0.0283 -0.3358 -0.0826
13728TIP3    H162599   1.430   3.937   0.173  1.3998 -0.3575 -1.7645
13728TIP3    H262600   1.444   3.815   0.083 -0.0740 -2.2036  0.3829
13729TIP3   OH262601   3.097   0.045   0.233 -0.6050 -0.1270  0.4671
13729TIP3    H162602   3.042   0.097   0.290 -2.8174 -0.3318 -1.3213
13729TIP3    H262603   3.142   0.109   0.177 -2.3953 -0.0027 -0.9196
13730TIP3   OH262604   3.207   2.792  14.462 -0.4214 -0.1082  0.5383
13730TIP3    H162605   3.199   2.711  14.513  0.5941  0.4234  1.5957
13730TIP3    H262606   3.134   2.846  14.491 -1.9841 -1.1626 -1.2465
13731TIP3   OH262607   0.274   5.812  15.814 -0.1117  0.4953  0.4163
13731TIP3    H162608   0.237   5.863  15.742  0.4504  0.8962  0.4063
13731TIP3    H262609   0.335   5.872  15.857 -0.5760  0.3192  1.3420
13732TIP3   OH262610   0.739   1.744  14.676  0.3591  0.1352  0.1760
13732TIP3    H162611   0.716   1.653  14.693 -0.0046  0.4574  1.5629
13732TIP3    H262612   0.789   1.771  14.753  1.1846  0.8740 -0.5978
13733TIP3   OH262613   3.161   1.036  11.121  0.4167 -0.2381  0.5345
13733TIP3    H162614   3.115   1.106  11.075  1.2752  0.5844  0.8832
13733TIP3    H262615   3.166   0.964  11.057  2.3752  1.1923 -1.0320
13734TIP3   OH262616   3.803   1.981  15.338  0.2434  0.2520  0.5535
13734TIP3    H162617   3.870   1.947  15.397 -0.8943 -0.7201  1.3371
13734TIP3    H262618   3.804   1.922  15.263 -0.0636 -0.0594  0.7921
13735TIP3   OH262619   3.289   2.747  14.200  0.5949 -0.0374  0.4499
13735TIP3    H162620   3.352   2.676  14.207 -1.0463 -1.4184  2.3759
13735TIP3    H262621   3.271   2.772  14.291  0.0334  1.8498 -0.1420
13736TIP3   OH262622   1.557   0.123  14.572 -0.3603  0.2944  0.1248
13736TIP3    H162623   1.561   0.062  14.499 -0.6778  2.0837 -1.4878
13736TIP3    H262624   1.465   0.124  14.598 -0.8727  1.8574 -1.5327
13737TIP3   OH262625   1.779   3.721   2.135 -0.3847  1.2886  0.3370
13737TIP3    H162626   1.693   3.761   2.144 -0.3927  1.7652 -1.3937
13737TIP3    H262627   1.763   3.638   2.089 -0.0648  0.6597  1.3394
13738TIP3   OH262628   5.574   3.825  12.596  0.0135 -0.6940 -0.4961
13738TIP3    H162629   5.520   3.857  12.668 -1.5375 -1.2108 -1.3673
13738TIP3    H262630   5.511   3.785  12.536  0.9118  1.9086 -3.3841
13739TIP3   OH262631   3.670   4.952   3.837 -0.0916  0.4523  0.1699
13739TIP3    H162632   3.693   5.028   3.890 -0.1178  1.1890 -0.8521
13739TIP3    H262633   3.733   4.954   3.765 -0.4254 -0.2035 -0.1404
13740TIP3   OH262634   2.740   4.404  13.770  0.3651  0.4602  0.3710
13740TIP3    H162635   2.679   4.473  13.798 -0.0450  0.4486 -0.4863
13740TIP3    H262636   2.720   4.389  13.678 -0.5695 -1.8372  0.8615
13741TIP3   OH262637   4.653   5.183  13.914  0.1731 -0.0689  0.0597
13741TIP3    H162638   4.705   5.222  13.844 -3.4752  0.5306 -2.5825
13741TIP3    H262639   4.712   5.119  13.955  3.1837  1.1529 -2.0281
13742TIP3   OH262640   2.512   0.940  13.279  0.3155 -0.1024 -0.1394
13742TIP3    H162641   2.537   0.861  13.231 -0.1230 -0.3116 -0.0301
13742TIP3    H262642   2.595   0.982  13.302  0.7293 -2.1186  2.5083
13743TIP3   OH262643   3.899   3.733  16.214 -0.7435 -0.5183  0.3757
13743TIP3    H162644   3.871   3.705  16.301  0.6001 -0.7295  0.7606
13743TIP3    H262645   3.876   3.659  16.157 -1.0706 -0.6307  0.6431
13744TIP3   OH262646   1.709   0.943   1.655 -0.1370 -0.0132  0.1856
13744TIP3    H162647   1.688   0.857   1.617 -1.4853 -1.3662  3.5786
13744TIP3    H262648   1.718   0.926   1.749  2.7046  3.0834  0.6619
13745TIP3   OH262649   1.533   3.482   3.955  0.7623 -0.3818  0.7460
13745TIP3    H162650   1.490   3.560   3.992  1.3067  0.1762  0.2248
13745TIP3    H262651   1.594   3.454   4.023  0.8351 -0.1264  0.7874
13746TIP3   OH262652   1.734   2.620  13.807 -0.1520  0.2632 -0.3560
13746TIP3    H162653   1.703   2.611  13.717  1.7430  0.5834 -1.0997
13746TIP3    H262654   1.789   2.542  13.821 -1.8811 -0.7474  1.2082
13747TIP3   OH262655   4.087   4.052   0.762 -0.5848 -0.2427 -0.0877
13747TIP3    H162656   4.170   4.005   0.771 -0.5571 -0.1532  0.1485
13747TIP3    H262657   4.086   4.083   0.672 -1.0550 -1.5352 -0.5509
13748TIP3   OH262658   5.283   1.676  10.387 -0.2874 -0.4267 -0.0015
13748TIP3    H162659   5.350   1.613  10.414 -0.0586  0.8758  2.7324
13748TIP3    H262660   5.328   1.760  10.386 -0.5431 -0.1487 -3.8099
13749TIP3   OH262661   5.334   0.673  13.412  0.1942  0.0492 -0.0399
13749TIP3    H162662   5.344   0.726  13.491  1.7139  0.1332 -0.2726
13749TIP3    H262663   5.406   0.610  13.415 -0.5733 -0.8927 -0.6464
13750TIP3   OH262664   3.121   0.886  12.410  0.6584  0.0233  0.1061
13750TIP3    H162665   3.128   0.954  12.343 -0.4062  2.3732  2.2144
13750TIP3    H262666   3.212   0.868  12.435  0.9475  1.2673  0.0371
13751TIP3   OH262667   6.207   5.722   3.621 -0.0378 -0.2937  0.1380
13751TIP3    H162668   6.131   5.713   3.563 -0.7448  0.7895  0.8507
13751TIP3    H262669   6.242   5.634   3.627 -0.5293 -0.6132 -1.1434
13752TIP3   OH262670   2.155   6.221   3.620  0.1766 -0.8521  0.0743
13752TIP3    H162671   2.127   6.190   3.534 -0.1123  0.2185 -0.2357
13752TIP3    H262672   2.246   6.247   3.608  0.7122 -2.3827  0.5631
13753TIP3   OH262673   5.216   1.724   5.528  0.0336  0.0472  0.1355
13753TIP3    H162674   5.209   1.810   5.570  0.6056  0.5102 -0.6957
13753TIP3    H262675   5.204   1.742   5.435 -0.3341 -0.8501 -0.0002
13754TIP3   OH262676   1.150   1.331  11.439  0.1461  0.2387  0.2513
13754TIP3    H162677   1.071   1.281  11.417 -0.6048  1.1530  0.8121
13754TIP3    H262678   1.152   1.402  11.374 -0.7555  1.5349  1.5909
13755TIP3   OH262679   6.531   4.183  14.729 -0.4607 -0.4729 -0.1063
13755TIP3    H162680   6.495   4.170  14.817 -1.3260  0.5189 -0.2993
13755TIP3    H262681   6.458   4.164  14.670 -0.1501 -0.2325 -0.5768
13756TIP3   OH262682   0.145   2.782  15.923  0.2570  0.0108  0.1121
13756TIP3    H162683   0.215   2.839  15.955  1.1606 -1.2054  0.3629
13756TIP3    H262684   0.082   2.842  15.883  0.2201  1.3631  2.0571
13757TIP3   OH262685   3.138   1.508  13.787  0.6640 -0.6054  0.0572
13757TIP3    H162686   3.060   1.513  13.731  2.0699 -0.2637 -1.9494
13757TIP3    H262687   3.102   1.497  13.876 -1.6942  0.8115 -0.6220
13758TIP3   OH262688   2.205   3.657  15.318  0.1886  0.0184  0.1104
13758TIP3    H162689   2.136   3.706  15.273 -0.3100 -0.3096  0.4923
13758TIP3    H262690   2.220   3.580  15.262 -2.2768 -1.7777  1.6657
13759TIP3   OH262691   1.054   0.363   0.308 -0.0696 -0.2035  0.1680
13759TIP3    H162692   1.030   0.274   0.335 -1.5844 -0.3336 -1.4723
13759TIP3    H262693   0.972   0.402   0.278  0.8167  1.3032 -0.3855
13760TIP3   OH262694   4.533   1.284  14.651  0.0389 -0.5806  0.1566
13760TIP3    H162695   4.477   1.332  14.712 -0.0287 -1.1210  0.5310
13760TIP3    H262696   4.474   1.220  14.610  0.1547 -0.4387 -0.2420
13761TIP3   OH262697   4.009   2.691  13.381 -0.5030 -0.2166 -0.3937
13761TIP3    H162698   3.929   2.742  13.393  1.2879  2.2386  2.8120
13761TIP3    H262699   4.017   2.641  13.462  0.8940 -0.9028 -0.9350
13762TIP3   OH262700   2.774   3.820   1.615  0.3075  0.6949 -0.3317
13762TIP3    H162701   2.865   3.798   1.596  0.0156 -1.0174  0.1358
13762TIP3    H262702   2.731   3.736   1.632 -1.4237  1.4386 -0.7650
13763TIP3   OH262703   2.361   5.053   4.145 -0.0334 -0.1445  0.4518
13763TIP3    H162704   2.414   5.097   4.212 -0.9136 -0.3726  1.3250
13763TIP3    H262705   2.338   5.123   4.083  1.4482 -0.0862 -0.0647
13764TIP3   OH262706   0.046   0.539   6.579 -0.7505  0.4720 -0.2260
13764TIP3    H162707   0.003   0.534   6.494 -0.6143  0.8532 -0.3195
13764TIP3    H262708   0.076   0.630   6.585 -2.1482  0.9067  0.8953
13765TIP3   OH262709   1.242   4.653   0.281  0.3081 -0.1519 -0.1347
13765TIP3    H162710   1.180   4.662   0.209  0.4232 -0.7334 -0.3101
13765TIP3    H262711   1.276   4.741   0.295  1.5444 -0.3106 -1.9096
13766TIP3   OH262712   3.487   5.681   3.773 -0.5575 -0.6148  0.1102
13766TIP3    H162713   3.464   5.588   3.781  1.4503 -1.1086  1.0231
13766TIP3    H262714   3.578   5.679   3.744 -0.6852  1.0995 -0.4634
13767TIP3   OH262715   1.497   2.819  15.519  0.4007 -0.0319  0.3124
13767TIP3    H162716   1.478   2.879  15.447 -1.9646 -1.9426 -0.8077
13767TIP3    H262717   1.581   2.780  15.497  0.9642  1.3301 -0.0063
13768TIP3   OH262718   6.108   6.362  16.411 -0.4259 -0.6556 -0.7904
13768TIP3    H162719   6.116   6.313  16.328  0.2040 -1.8202 -0.0628
13768TIP3    H262720   6.179   6.329  16.465 -1.0117 -0.1092  0.3312
13769TIP3   OH262721   0.240   4.680  13.501 -0.2417  0.7681  0.3848
13769TIP3    H162722   0.254   4.595  13.542  0.5101  0.2505 -0.8903
13769TIP3    H262723   0.213   4.659  13.411 -1.2976  1.8684  0.4233
13770TIP3   OH262724   6.395   2.141   4.865 -0.4009 -0.1779  0.4498
13770TIP3    H162725   6.325   2.206   4.868 -0.0358  0.2421 -0.0007
13770TIP3    H262726   6.424   2.141   4.773 -1.3219 -1.9579  0.1115
13771TIP3   OH262727   0.154   2.731  12.744 -0.5338  0.4269  0.1699
13771TIP3    H162728   0.192   2.750  12.830 -2.2106  1.9961  0.6343
13771TIP3    H262729   0.173   2.808  12.692 -0.6394  0.0291 -0.4630
13772TIP3   OH262730   2.405   1.589   5.301  0.6149  0.2162  0.1953
13772TIP3    H162731   2.485   1.577   5.353 -0.2643 -0.4500  1.4424
13772TIP3    H262732   2.368   1.501   5.294  0.6461  0.3095 -1.5053
13773TIP3   OH262733   1.047   5.545   5.447 -0.2275  0.2821 -0.3874
13773TIP3    H162734   1.066   5.505   5.362  1.3724 -0.0298  0.0835
13773TIP3    H262735   0.972   5.495   5.480  0.3178 -0.8472 -0.8037
13774TIP3   OH262736   5.718   2.678   0.493  0.3438  0.0930 -0.5290
13774TIP3    H162737   5.648   2.657   0.554  0.2742  1.0465 -0.2647
13774TIP3    H262738   5.736   2.771   0.507  1.4008 -0.0399 -0.8580
13775TIP3   OH262739   4.414   3.381   0.484 -0.1550 -0.0411  0.5017
13775TIP3    H162740   4.390   3.354   0.573  0.1677  0.3991  0.7267
13775TIP3    H262741   4.501   3.343   0.470  1.5228  2.9316  1.8183
13776TIP3   OH262742   5.608   4.125  11.293 -0.2766 -0.6523  0.8960
13776TIP3    H162743   5.701   4.129  11.270 -0.6144  1.9022 -0.3810
13776TIP3    H262744   5.587   4.032  11.294  1.4140 -1.2156 -2.6841
13777TIP3   OH262745   2.125   0.145   6.220  0.0771 -1.3247  0.2349
13777TIP3    H162746   2.072   0.139   6.299 -0.3671  0.6831  0.1345
13777TIP3    H262747   2.123   0.057   6.183 -1.2857 -1.8375  1.4394
13778TIP3   OH262748   4.026   2.336  16.192  0.5044 -0.2619 -0.1989
13778TIP3    H162749   4.054   2.422  16.226  1.3800 -0.7012  0.2267
13778TIP3    H262750   4.093   2.314  16.127  0.1733 -0.5358 -0.4440
13779TIP3   OH262751   5.105   2.446   0.213 -0.3967 -0.2232 -0.3459
13779TIP3    H162752   5.085   2.356   0.236 -1.1267 -0.1597 -0.7253
13779TIP3    H262753   5.041   2.499   0.261  0.3070  0.1295  0.2286
13780TIP3   OH262754   0.233   3.080  11.651 -0.3759  0.7506 -0.3584
13780TIP3    H162755   0.183   3.130  11.716  0.5144  0.3608  0.6685
13780TIP3    H262756   0.174   3.009  11.626 -0.4624  0.4672  0.6115
13781TIP3   OH262757   4.501   4.917   4.822  0.2628 -0.8038 -0.6088
13781TIP3    H162758   4.427   4.968   4.788 -0.0422 -1.8604 -1.6104
13781TIP3    H262759   4.529   4.863   4.748  1.0768 -1.5080  0.1856
13782TIP3   OH262760   3.341   4.073   5.175 -0.8144 -0.0785 -0.3132
13782TIP3    H162761   3.329   4.146   5.114 -0.7738  0.9819  0.8928
13782TIP3    H262762   3.388   4.112   5.249 -0.2170 -1.4941  0.0807
13783TIP3   OH262763   3.393   2.202   3.970  0.0144 -0.0934  0.0371
13783TIP3    H162764   3.331   2.175   3.902  0.5181 -0.9604 -0.0992
13783TIP3    H262765   3.352   2.276   4.013  0.0802  1.0774 -1.8266
13784TIP3   OH262766   5.199   5.717  11.400 -0.6339  0.9945 -0.3884
13784TIP3    H162767   5.114   5.721  11.443 -1.0233  0.7924 -1.1102
13784TIP3    H262768   5.194   5.638  11.345 -0.2215  1.3361 -0.9254
13785TIP3   OH262769   2.175   5.328   1.990 -0.5238 -0.6325 -0.4358
13785TIP3    H162770   2.137   5.286   1.913 -0.7879 -1.8226  0.3160
13785TIP3    H262771   2.106   5.325   2.056  0.5238 -2.0282  0.6729
13786TIP3   OH262772   5.233   3.681   4.766 -0.1398 -0.0256 -0.3109
13786TIP3    H162773   5.254   3.773   4.782 -2.4280  0.4680  0.3063
13786TIP3    H262774   5.213   3.645   4.853  1.5300 -1.3681 -0.4378
13787TIP3   OH262775   0.627   4.032   4.783  0.2575  0.4443  0.6269
13787TIP3    H162776   0.602   4.101   4.844 -1.6699 -1.6293  2.3411
13787TIP3    H262777   0.716   4.007   4.811  0.5174  1.4351  0.7158
13788TIP3   OH262778   6.463   3.954  13.966 -0.1942  0.9359 -0.5874
13788TIP3    H162779   6.392   3.890  13.952 -0.5443  0.7609  1.6546
13788TIP3    H262780   6.542   3.906  13.943 -0.6383  0.4812 -1.2253
13789TIP3   OH262781   0.417   2.902  12.424  0.1026 -0.4460  0.6178
13789TIP3    H162782   0.377   2.861  12.347  3.0795 -2.3720 -0.0894
13789TIP3    H262783   0.345   2.915  12.485 -2.6101  2.0607 -2.7223
13790TIP3   OH262784   4.358   6.253  15.403  0.3320  0.0796 -0.3624
13790TIP3    H162785   4.398   6.261  15.489  0.2941 -2.5592 -0.0191
13790TIP3    H262786   4.355   6.343  15.369 -0.2002  1.2753  2.5929
13791TIP3   OH262787   2.149   1.834  13.073 -0.0860 -0.1111 -0.4297
13791TIP3    H162788   2.192   1.752  13.049 -1.3809 -0.5768 -1.2849
13791TIP3    H262789   2.105   1.863  12.992 -1.8568  0.0010  0.5085
13792TIP3   OH262790   0.292   3.304   4.394 -0.3117 -0.6800 -0.2188
13792TIP3    H162791   0.299   3.327   4.486  1.5721 -1.2610 -0.1683
13792TIP3    H262792   0.304   3.387   4.347  0.2728 -0.6133  0.0435
13793TIP3   OH262793   1.617   4.994  11.105  0.6316  0.2879 -0.4427
13793TIP3    H162794   1.641   5.007  11.196  3.2429  0.1822 -1.0275
13793TIP3    H262795   1.614   4.899  11.094  4.5841  0.0616 -1.2763
13794TIP3   OH262796   4.359   5.838  11.161  0.0619 -0.1390  0.1498
13794TIP3    H162797   4.453   5.849  11.146 -0.3823  1.4558 -1.9807
13794TIP3    H262798   4.323   5.927  11.152 -1.6873 -0.7743  0.5434
13795TIP3   OH262799   0.828   4.601  16.840  0.2582 -0.0286  0.4387
13795TIP3    H162800   0.881   4.544  16.896  0.7682 -0.0600 -0.0680
13795TIP3    H262801   0.800   4.672  16.898  0.6109 -0.1676  0.7848
13796TIP3   OH262802   5.136   1.312   0.689  0.2684 -0.0205  0.0686
13796TIP3    H162803   5.054   1.355   0.666 -1.2980 -2.4554  0.7394
13796TIP3    H262804   5.142   1.321   0.784 -0.4616 -1.7987  0.3175
13797TIP3   OH262805   5.740   1.388  15.026 -0.1451 -0.3792 -0.0316
13797TIP3    H162806   5.689   1.390  14.945 -2.3486  0.2911  1.2740
13797TIP3    H262807   5.785   1.472  15.028  0.7470 -0.8147 -1.0239
13798TIP3   OH262808   4.339   4.325  13.340  0.2863  0.2833 -0.1441
13798TIP3    H162809   4.271   4.267  13.374  1.1282 -0.8868 -0.4039
13798TIP3    H262810   4.313   4.343  13.250 -0.5545  1.2347  0.2663
13799TIP3   OH262811   5.330   2.979   2.815  0.3557 -0.3739  0.1573
13799TIP3    H162812   5.293   2.896   2.845  0.0698 -0.0664  0.6611
13799TIP3    H262813   5.372   3.017   2.892 -0.4406  0.4523  0.1984
13800TIP3   OH262814   3.005   5.297   2.787 -0.3583 -0.5097  0.8330
13800TIP3    H162815   3.091   5.272   2.756 -0.0610  0.7772  0.5677
13800TIP3    H262816   3.019   5.327   2.877 -0.4706 -0.0365  0.6980
13801TIP3   OH262817   1.347   4.476   2.082  0.7579 -0.0772  0.0471
13801TIP3    H162818   1.395   4.512   2.156 -0.9899 -1.4508  1.9523
13801TIP3    H262819   1.257   4.466   2.114 -0.1900 -0.2412 -2.4416
13802TIP3   OH262820   5.928   4.652  11.516  0.0185  0.4424 -0.5648
13802TIP3    H162821   6.008   4.676  11.470  1.5607 -2.8069  0.1772
13802TIP3    H262822   5.927   4.556  11.514 -1.8819  0.2636  2.7091
13803TIP3   OH262823   0.555   5.043   4.985 -0.3259  0.5405  0.3489
13803TIP3    H162824   0.557   5.079   5.074 -0.8343 -0.5838  0.8352
13803TIP3    H262825   0.647   5.035   4.960 -0.1317 -0.1908  1.2383
13804TIP3   OH262826   3.212   6.086   5.295 -0.1280 -0.2032 -0.2098
13804TIP3    H162827   3.120   6.090   5.272 -0.4934  0.1182  1.2494
13804TIP3    H262828   3.231   5.992   5.306 -0.5590 -0.2133  0.5124
13805TIP3   OH262829   4.983   5.915   4.191  0.3738 -0.4099  0.6345
13805TIP3    H162830   5.040   5.943   4.262  0.8411 -1.4232  0.6661
13805TIP3    H262831   4.956   5.826   4.215  0.7271 -0.8572 -0.5568
13806TIP3   OH262832   0.068   5.143   5.557 -0.5980 -0.8889  0.9193
13806TIP3    H162833   0.139   5.093   5.517 -1.3301  0.3854 -2.2595
13806TIP3    H262834   0.091   5.235   5.541 -2.3192 -0.4100  0.9885
13807TIP3   OH262835   5.299   1.299   4.380  0.5420 -0.4188 -0.6916
13807TIP3    H162836   5.284   1.251   4.298 -1.6179  1.0427 -1.2391
13807TIP3    H262837   5.254   1.247   4.447 -0.4295 -0.0088 -1.0103
13808TIP3   OH262838   1.506   2.703  16.622 -0.4505  0.0473  0.2781
13808TIP3    H162839   1.432   2.712  16.683  1.4670  1.2497  2.5985
13808TIP3    H262840   1.522   2.793  16.592  1.0737  0.0915  1.1445
13809TIP3   OH262841   1.153   3.324  14.035 -0.0058  0.4398  0.2203
13809TIP3    H162842   1.063   3.312  14.068  0.3269  1.1601  1.4319
13809TIP3    H262843   1.144   3.320  13.940 -0.9892 -1.8442  0.3331
13810TIP3   OH262844   4.211   4.685  16.458 -0.2813  0.3305 -0.4898
13810TIP3    H162845   4.201   4.593  16.436  0.5600  0.6499 -2.3521
13810TIP3    H262846   4.130   4.727  16.428 -0.2922  0.3368 -0.4524
13811TIP3   OH262847   1.517   2.981  15.820 -0.3931  0.0851  0.3222
13811TIP3    H162848   1.461   2.912  15.784  2.6275 -1.2445 -2.3610
13811TIP3    H262849   1.530   3.042  15.747  1.1336  0.6709  1.0468
13812TIP3   OH262850   5.737   1.227   2.014  0.4804 -0.2065 -0.4643
13812TIP3    H162851   5.738   1.165   2.087  0.1801  0.4045  0.0748
13812TIP3    H262852   5.782   1.182   1.943  2.8823  0.0049  0.7999
13813TIP3   OH262853   1.993   1.984  11.925  0.1734  0.2135  0.0802
13813TIP3    H162854   2.046   1.928  11.868  0.9270 -0.4571  1.3827
13813TIP3    H262855   2.001   2.072  11.889  2.2154  0.1306  0.2622
13814TIP3   OH262856   2.969   4.236  16.953  0.4154  0.0103 -0.2302
13814TIP3    H162857   2.924   4.176  16.893  0.1516  0.6475 -0.6785
13814TIP3    H262858   2.924   4.223  17.037  0.0792 -0.1185 -0.4263
13815TIP3   OH262859   1.146   2.409   5.897  0.4693  0.5164 -0.0747
13815TIP3    H162860   1.236   2.388   5.873 -0.0069 -3.1855  0.8498
13815TIP3    H262861   1.130   2.361   5.978 -1.9169  2.3337  0.6832
13816TIP3   OH262862   6.191   0.194  16.368 -0.1505 -0.3254 -0.2753
13816TIP3    H162863   6.217   0.119  16.421  1.2239  1.7184  2.1736
13816TIP3    H262864   6.124   0.238  16.421 -0.7311  0.3349 -1.5257
13817TIP3   OH262865   1.285   0.426   5.130  0.3427  0.2331 -0.2282
13817TIP3    H162866   1.289   0.516   5.164  0.5739 -0.0014  0.3789
13817TIP3    H262867   1.201   0.393   5.162  1.6473 -0.8538  2.3905
13818TIP3   OH262868   3.916   6.298  16.178  0.2506 -0.1513 -0.3911
13818TIP3    H162869   3.933   6.375  16.233  1.7174 -0.0004 -1.0004
13818TIP3    H262870   3.872   6.237  16.237  1.6554  0.0582  0.9572
13819TIP3   OH262871   5.750   3.253  11.050  0.0220  0.2534  0.2062
13819TIP3    H162872   5.672   3.290  11.092 -0.3604  0.1611 -0.4016
13819TIP3    H262873   5.722   3.236  10.960  0.6219 -0.1748  0.0962
13820TIP3   OH262874   0.067   0.710  17.053  0.7271  0.6251  0.2496
13820TIP3    H162875  -0.027   0.701  17.037  0.8051  0.1436  0.0395
13820TIP3    H262876   0.073   0.735  17.145  0.3566  1.5220  0.0394
13821TIP3   OH262877   3.905   5.198   6.027 -0.4563 -0.5068  0.0904
13821TIP3    H162878   3.890   5.288   6.058  0.4153  0.4181 -1.9404
13821TIP3    H262879   3.843   5.187   5.955 -0.5516 -1.5481  0.3235
13822TIP3   OH262880   1.408   3.952   3.136 -0.2525  0.4099  0.2074
13822TIP3    H162881   1.339   3.944   3.070  0.4395 -2.8898 -0.2685
13822TIP3    H262882   1.482   3.991   3.089 -0.4001 -0.0885 -0.4541
13823TIP3   OH262883   3.262   6.002  12.237  0.6437  0.5090 -0.2173
13823TIP3    H162884   3.168   6.002  12.259  0.5883  1.1128 -0.4379
13823TIP3    H262885   3.291   6.091  12.258  1.1640  0.3322 -0.1797
13824TIP3   OH262886   2.342   5.591  12.794 -0.6419 -0.2297  0.1706
13824TIP3    H162887   2.438   5.595  12.791 -0.5254 -0.5127  1.9756
13824TIP3    H262888   2.319   5.637  12.875 -1.8837 -1.9071  0.8208
13825TIP3   OH262889   6.784   3.440  14.055  0.6107  0.2305  0.6698
13825TIP3    H162890   6.760   3.515  14.001 -1.2356 -0.1740  0.8403
13825TIP3    H262891   6.780   3.365  13.995  0.8515  0.0694  0.8533
13826TIP3   OH262892   1.026   2.719   5.306  0.0273  1.1205 -0.8975
13826TIP3    H162893   1.073   2.791   5.348 -0.1537  0.8210 -0.1741
13826TIP3    H262894   1.019   2.746   5.214  1.5804  1.1990 -1.0188
13827TIP3   OH262895   5.270   2.697  12.843 -0.2364 -0.7001 -0.0682
13827TIP3    H162896   5.224   2.627  12.798 -0.0997 -0.0214 -1.3083
13827TIP3    H262897   5.245   2.777  12.795  0.8865 -0.1141  0.2895
13828TIP3   OH262898   0.243   5.862   5.616 -0.3181 -0.5962  0.3401
13828TIP3    H162899   0.205   5.901   5.694  0.7553 -0.5640  0.8714
13828TIP3    H262900   0.168   5.827   5.567 -1.0393 -0.2276  1.1581
13829TIP3   OH262901   2.657   4.452  12.003  0.3988 -0.0345  0.6390
13829TIP3    H162902   2.646   4.389  11.932 -2.6133  0.2300  0.7380
13829TIP3    H262903   2.619   4.534  11.969 -0.7094  0.2125  2.3327
13830TIP3   OH262904   1.888   5.518  14.371 -0.0709  0.6725 -0.2160
13830TIP3    H162905   1.854   5.604  14.347  0.2152  0.7098 -0.4946
13830TIP3    H262906   1.894   5.471  14.288 -5.8989 -1.8083  0.2775
13831TIP3   OH262907   1.816   3.369   6.351 -0.1622 -0.1467 -0.1124
13831TIP3    H162908   1.861   3.432   6.295 -2.7617  1.7269 -0.2889
13831TIP3    H262909   1.828   3.285   6.307  0.8580  0.7067 -1.5533
13832TIP3   OH262910   1.386   4.798  12.533 -0.5265  0.3402 -0.2810
13832TIP3    H162911   1.342   4.755  12.606  0.3224  0.4858  0.3199
13832TIP3    H262912   1.424   4.726  12.483  0.7284  0.3447  0.6188
13833TIP3   OH262913   1.550   4.811   1.098  0.3268  0.2195  0.3166
13833TIP3    H162914   1.502   4.799   1.180  0.3519  0.0204  0.3024
13833TIP3    H262915   1.608   4.736   1.093  0.8653  0.6149  0.4855
13834TIP3   OH262916   4.521   5.103   2.681 -0.0630 -0.0652 -0.2240
13834TIP3    H162917   4.574   5.030   2.649 -0.9352 -1.7666  1.8868
13834TIP3    H262918   4.582   5.176   2.691  1.1276 -0.9078 -1.1458
13835TIP3   OH262919   1.351   5.432  10.788 -0.0188  0.3117  0.2323
13835TIP3    H162920   1.306   5.402  10.867  0.6028  0.4603  0.6471
13835TIP3    H262921   1.364   5.526  10.803  0.2295  0.3120  0.0133
13836TIP3   OH262922   3.617   6.640   1.390  0.7374  0.0982  0.3706
13836TIP3    H162923   3.588   6.671   1.476  0.4292  1.3485 -0.1612
13836TIP3    H262924   3.571   6.696   1.328  1.6093 -0.2302 -0.5952
13837TIP3   OH262925   6.214   1.989  11.212  0.0843 -0.4756 -0.2628
13837TIP3    H162926   6.291   2.039  11.240 -1.3757  1.3599  0.7177
13837TIP3    H262927   6.185   1.943  11.291  0.3994 -1.5118 -0.7329
13838TIP3   OH262928   2.324   3.124   1.442  0.1615 -0.4693  0.1818
13838TIP3    H162929   2.404   3.177   1.444 -0.7605  0.9559  0.6611
13838TIP3    H262930   2.334   3.062   1.515 -0.1072  1.1545  1.6463
13839TIP3   OH262931   1.832   0.410   0.113 -0.6429  0.1502 -0.0355
13839TIP3    H162932   1.825   0.417   0.208  2.2013  3.3501  0.1568
13839TIP3    H262933   1.845   0.317   0.096  1.3027 -0.2603  3.0106
13840TIP3   OH262934   1.532   1.115  15.299  0.0967  0.3481  0.2268
13840TIP3    H162935   1.572   1.122  15.386  1.0902  1.8078 -0.3037
13840TIP3    H262936   1.594   1.160  15.241 -1.3479  0.8616 -0.9727
13841TIP3   OH262937   6.341   0.813  15.270 -0.6108  0.2252 -0.0349
13841TIP3    H162938   6.315   0.722  15.257 -1.0345  0.3838 -0.3234
13841TIP3    H262939   6.265   0.864  15.241 -0.0043  0.6986 -0.8495
13842TIP3   OH262940   5.546   2.259  14.133 -0.1488 -0.6944  0.0293
13842TIP3    H162941   5.522   2.297  14.048 -2.0877 -1.0358  0.3752
13842TIP3    H262942   5.633   2.222  14.119  0.8831  1.8886 -0.9356
13843TIP3   OH262943   4.789   6.082   1.853  0.0321  0.1894  0.4870
13843TIP3    H162944   4.851   6.018   1.890  0.5027  0.1316 -0.3741
13843TIP3    H262945   4.835   6.118   1.778 -2.0069 -1.8580 -1.8991
13844TIP3   OH262946   1.437   0.010  12.945  0.2011  0.1505  0.5403
13844TIP3    H162947   1.523  -0.016  12.912  0.1426  0.4330  0.1600
13844TIP3    H262948   1.456   0.077  13.010  0.2647  0.2631  0.4057
13845TIP3   OH262949   6.428   3.503  14.662 -0.4822  0.3027  0.1507
13845TIP3    H162950   6.393   3.505  14.573  1.5141  0.2508 -0.6878
13845TIP3    H262951   6.408   3.415  14.694  0.3272 -0.2843 -0.9146
13846TIP3   OH262952   4.071   3.005  13.979 -0.9112 -0.8914 -0.0751
13846TIP3    H162953   3.995   3.062  13.968 -0.4007  0.0897  1.2643
13846TIP3    H262954   4.041   2.935  14.037 -0.4647  0.2173  1.5422
13847TIP3   OH262955   5.828   6.273   4.577  0.0271  0.0299 -0.5053
13847TIP3    H162956   5.764   6.313   4.518  0.8847  0.4439 -1.1923
13847TIP3    H262957   5.796   6.184   4.591 -0.9791  0.3995 -0.3807
13848TIP3   OH262958   0.562   1.010  12.228 -0.1776  0.6640 -0.5742
13848TIP3    H162959   0.502   1.021  12.154  0.5962  1.6360 -1.1001
13848TIP3    H262960   0.642   1.054  12.199  0.0686  1.2797  0.9385
13849TIP3   OH262961   2.132   3.218  15.122  0.7602  0.7983 -0.1196
13849TIP3    H162962   2.067   3.286  15.105  0.3701  0.1440 -1.4117
13849TIP3    H262963   2.174   3.203  15.037 -0.0016 -1.3870 -0.1912
13850TIP3   OH262964   3.398   1.926  12.319  0.3490  0.7880  0.1054
13850TIP3    H162965   3.407   1.959  12.230  1.1508  0.1743 -0.0550
13850TIP3    H262966   3.315   1.961  12.350  0.3494  1.4897 -0.6748
13851TIP3   OH262967   4.103   1.222  11.800 -0.0607  0.4599  0.4426
13851TIP3    H162968   4.168   1.291  11.785 -1.6846  1.7945 -0.7429
13851TIP3    H262969   4.080   1.192  11.713 -1.0042 -0.0302  0.8496
13852TIP3   OH262970   2.790   3.106  11.604  0.2863 -0.3244  0.3075
13852TIP3    H162971   2.715   3.153  11.640  0.0906 -1.4699  1.4408
13852TIP3    H262972   2.767   3.013  11.611  1.8624 -0.7117  0.8277
13853TIP3   OH262973   5.414   4.583  13.361  0.4560 -0.1155  0.3002
13853TIP3    H162974   5.321   4.603  13.367 -0.4061 -3.3936  0.0335
13853TIP3    H262975   5.433   4.585  13.267  1.2056  2.3199  0.4372
13854TIP3   OH262976   6.407   5.080   1.792 -0.0611 -0.7490  0.0169
13854TIP3    H162977   6.436   5.171   1.790  2.5952 -1.5381 -0.6065
13854TIP3    H262978   6.326   5.079   1.741 -0.3599  1.2994  0.3864
13855TIP3   OH262979   2.576   1.014  13.714  0.7098  0.1668 -0.4147
13855TIP3    H162980   2.487   1.049  13.721  1.0195  1.3330 -1.9071
13855TIP3    H262981   2.633   1.090  13.723  1.5006 -0.3433 -0.9566
13856TIP3   OH262982   2.403   0.718   5.753 -0.3048 -0.1307  0.3682
13856TIP3    H162983   2.352   0.662   5.696  1.2138  0.8370 -2.1028
13856TIP3    H262984   2.358   0.802   5.751 -0.1404 -0.0390  0.4322
13857TIP3   OH262985   4.073   4.849   1.026 -0.4484 -0.1319  0.7592
13857TIP3    H162986   4.144   4.886   0.974 -0.8532  0.0218  0.3134
13857TIP3    H262987   4.002   4.836   0.964 -0.8179 -0.2716  1.2072
13858TIP3   OH262988   3.038   1.259  10.985 -0.3645  0.1185  0.3800
13858TIP3    H162989   2.969   1.324  10.970 -1.2591 -0.9427 -0.1800
13858TIP3    H262990   3.112   1.290  10.933 -0.6710  0.8307  0.3480
13859TIP3   OH262991   5.616   0.251   1.269  0.6905 -0.1371 -0.8298
13859TIP3    H162992   5.606   0.251   1.174  2.1710 -1.1351 -1.0127
13859TIP3    H262993   5.706   0.223   1.284  0.3805 -0.3312  0.8785
13860TIP3   OH262994   0.150   1.866   3.347  0.1695  0.2580 -0.0411
13860TIP3    H162995   0.230   1.914   3.368  1.9418 -2.0391 -1.0562
13860TIP3    H262996   0.114   1.841   3.432  0.3972  1.4826  0.4320
13861TIP3   OH262997   3.394   2.886   0.630 -0.2609  0.0522  0.3013
13861TIP3    H162998   3.391   2.836   0.549  1.9416 -0.3844  0.4353
13861TIP3    H262999   3.302   2.894   0.657 -0.7795 -3.9379  0.2789
13862TIP3   OH263000   1.578   5.333   1.069 -0.1498  0.3761  0.2819
13862TIP3    H163001   1.617   5.351   1.155  0.5449  1.3082 -0.2169
13862TIP3    H263002   1.590   5.239   1.058  0.7658  0.4279  0.7277
13863TIP3   OH263003   4.153   3.272   5.657  0.2700 -0.0866  0.5712
13863TIP3    H163004   4.239   3.240   5.685  0.0302 -0.7203  0.6112
13863TIP3    H263005   4.105   3.285   5.739  0.6780  1.3237  0.6090
13864TIP3   OH263006   2.690   6.579   0.723  0.1864 -1.0389  0.4847
13864TIP3    H163007   2.738   6.529   0.788 -1.7220 -1.1173  1.8979
13864TIP3    H263008   2.610   6.530   0.708  0.1107 -0.4859 -1.1924
13865TIP3   OH263009   4.984   3.953  16.416 -0.2031  0.3231 -0.0402
13865TIP3    H163010   4.977   4.040  16.378 -0.2094 -0.2449 -1.4186
13865TIP3    H263011   5.072   3.923  16.392  1.0262  1.0954  3.0738
13866TIP3   OH263012   3.059   0.927  11.382 -0.1976 -0.0959 -0.0106
13866TIP3    H163013   3.099   0.928  11.295  1.7576 -0.1102  0.8340
13866TIP3    H263014   3.091   1.007  11.424 -1.2241 -0.0153  0.6564
13867TIP3   OH263015   1.501   5.467   2.558 -0.3012  0.1306  0.0369
13867TIP3    H163016   1.563   5.517   2.505 -0.2151 -0.8319 -0.8120
13867TIP3    H263017   1.434   5.531   2.584 -0.5830  0.5640 -1.6244
13868TIP3   OH263018   3.223   2.422   2.308 -0.1200  0.1204 -0.2392
13868TIP3    H163019   3.303   2.464   2.339 -1.1575  0.2223  2.6827
13868TIP3    H263020   3.249   2.331   2.291  0.7805  0.3244 -0.0093
13869TIP3   OH263021   1.111   3.436  11.403  1.0721 -0.9904  0.0724
13869TIP3    H163022   1.198   3.430  11.365  0.6269 -1.2485 -0.9473
13869TIP3    H263023   1.091   3.346  11.429  1.6719 -0.6987  1.6574
13870TIP3   OH263024   4.787   2.605   5.414 -0.4814  0.1764 -0.0216
13870TIP3    H163025   4.873   2.593   5.456 -2.4114 -0.9509  4.1001
13870TIP3    H263026   4.769   2.521   5.372 -0.2580 -0.1547  0.5347
13871TIP3   OH263027   6.094   2.504  13.899  0.0751 -0.7175 -0.8011
13871TIP3    H163028   6.110   2.567  13.970 -1.6534 -0.1348 -0.8906
13871TIP3    H263029   6.145   2.538  13.825  0.5696 -0.4171 -0.3315
13872TIP3   OH263030   1.460   2.080   2.915  0.1537  0.0791  0.1190
13872TIP3    H163031   1.396   2.138   2.874 -0.4940 -1.9691 -1.9547
13872TIP3    H263032   1.410   2.032   2.981  0.4187  0.9109  0.9645
13873TIP3   OH263033   0.494   3.851   4.582 -0.2204 -0.9790  0.3720
13873TIP3    H163034   0.529   3.913   4.646  0.8779 -1.7393  0.5578
13873TIP3    H263035   0.540   3.872   4.501  2.3411 -3.2541  1.0755
13874TIP3   OH263036   3.765   5.130   5.102  0.1629  0.5513 -0.4887
13874TIP3    H163037   3.708   5.180   5.161 -0.1657 -1.0568  0.6331
13874TIP3    H263038   3.847   5.120   5.151 -0.1135 -0.7941 -0.2399
13875TIP3   OH263039   4.240   5.912   2.209 -0.2156 -0.1083 -0.2875
13875TIP3    H163040   4.171   5.874   2.155  0.9087  1.4117 -2.9664
13875TIP3    H263041   4.321   5.888   2.165  0.9298 -0.4659  1.8905
13876TIP3   OH263042   4.386   3.521   5.381  0.2848 -0.5359  0.1792
13876TIP3    H163043   4.370   3.609   5.417  1.6111 -1.2758  2.7743
13876TIP3    H263044   4.301   3.477   5.390  0.1705 -0.1874  0.9592
13877TIP3   OH263045   4.968   4.041   5.704 -0.1738 -0.5984  0.6455
13877TIP3    H163046   4.961   4.120   5.650  1.4101 -0.0807  1.1329
13877TIP3    H263047   4.885   4.035   5.750  0.0469  1.3808  1.3729
13878TIP3   OH263048   2.479   4.938   5.450 -0.0057  0.5103  0.0428
13878TIP3    H163049   2.418   4.866   5.437  0.1327  0.4440 -0.2755
13878TIP3    H263050   2.442   5.010   5.400 -0.5643  0.9138  1.0266
13879TIP3   OH263051   2.279   2.937  14.652 -0.5274  0.0427 -0.1756
13879TIP3    H163052   2.216   2.929  14.723 -2.2800 -1.8366 -1.8282
13879TIP3    H263053   2.320   2.851  14.646 -1.1981 -0.1888 -2.0859
13880TIP3   OH263054   4.811   5.121  14.541 -0.3142 -0.0302 -1.1159
13880TIP3    H163055   4.872   5.062  14.584  1.7600  2.9819  0.4524
13880TIP3    H263056   4.725   5.080  14.552  0.9329 -2.4586  0.2453
13881TIP3   OH263057   5.323   6.261   5.381  0.0836 -0.6535  0.1005
13881TIP3    H163058   5.315   6.333   5.317  0.3803  0.8111  1.6392
13881TIP3    H263059   5.415   6.236   5.376 -0.2336 -1.6463 -1.1521
13882TIP3   OH263060   5.456   0.584   3.539  0.0702  0.3088 -0.4958
13882TIP3    H163061   5.489   0.541   3.460 -1.1411  1.5909 -1.7507
13882TIP3    H263062   5.494   0.672   3.536  0.7596  0.0782  0.8757
13883TIP3   OH263063   4.711   2.850   3.405 -0.4541 -0.1197 -0.1723
13883TIP3    H163064   4.713   2.889   3.317  2.4111 -1.9876 -1.0747
13883TIP3    H263065   4.768   2.908   3.457 -0.8357  0.0752  0.0312
13884TIP3   OH263066   4.359   0.077   6.005  0.6890  0.3680  0.7282
13884TIP3    H163067   4.271   0.078   5.968  0.4319 -1.4340  1.2082
13884TIP3    H263068   4.373   0.166   6.036 -0.4478  1.0127 -0.5315
13885TIP3   OH263069   2.664   4.658   3.969  0.7737 -0.1511  0.3644
13885TIP3    H163070   2.630   4.573   3.943 -0.2149  0.7463 -1.4219
13885TIP3    H263071   2.759   4.652   3.956  0.7729 -1.1212  0.7585
13886TIP3   OH263072   1.081   4.327  11.441 -0.6234  0.0224  0.3058
13886TIP3    H163073   1.140   4.401  11.425 -0.0898 -0.2414  0.9818
13886TIP3    H263074   1.013   4.335  11.374 -0.1185  0.6510 -0.1441
13887TIP3   OH263075   3.442   4.127  11.660  0.2648  0.0142 -0.1771
13887TIP3    H163076   3.400   4.158  11.579  0.0843  0.5993  0.1321
13887TIP3    H263077   3.447   4.032  11.649 -2.8308 -0.3435  0.5257
13888TIP3   OH263078   1.148   4.762  15.424 -0.3116 -0.4640  0.0445
13888TIP3    H163079   1.055   4.777  15.406 -0.3301  1.0858  1.1961
13888TIP3    H263080   1.180   4.846  15.456  1.4937 -0.9873 -0.2699
13889TIP3   OH263081   3.838   6.800  16.186  0.4969 -0.2278  0.4449
13889TIP3    H163082   3.899   6.822  16.256  2.6883 -1.9846 -0.7827
13889TIP3    H263083   3.864   6.856  16.113 -0.6551  0.3592  0.4496
13890TIP3   OH263084   6.473   1.117  11.996  0.3586 -0.3471  0.2396
13890TIP3    H163085   6.416   1.126  11.920  0.4040 -0.4438  0.1931
13890TIP3    H263086   6.559   1.099  11.959  0.3225 -0.7022  0.3157
13891TIP3   OH263087   2.318   4.378  11.708 -0.0999  0.0777 -0.4144
13891TIP3    H163088   2.336   4.403  11.617 -0.0401 -2.6392 -1.2268
13891TIP3    H263089   2.324   4.460  11.757  1.2195  1.4050 -2.6375
13892TIP3   OH263090   3.104   0.342  14.843  0.3396  0.1301  0.0794
13892TIP3    H163091   3.148   0.259  14.826  0.3276 -0.0240  0.7602
13892TIP3    H263092   3.159   0.408  14.801 -0.2732 -0.3194 -1.4813
13893TIP3   OH263093   0.690   2.975   1.485  0.3146 -0.5012  0.1132
13893TIP3    H163094   0.777   2.983   1.524  0.4066  2.6625 -0.4922
13893TIP3    H263095   0.707   2.950   1.394  0.5849 -0.1729  0.0704
13894TIP3   OH263096   1.598   5.804  10.758 -0.2776 -0.2468 -0.3434
13894TIP3    H163097   1.637   5.819  10.672 -0.6748 -2.3738 -0.9527
13894TIP3    H263098   1.577   5.892  10.791  1.3074  0.6975 -1.7203
13895TIP3   OH263099   0.196   2.145  12.920 -0.1510 -0.2605 -0.6333
13895TIP3    H163100   0.225   2.213  12.859 -0.3497  1.2616  0.8852
13895TIP3    H263101   0.110   2.119  12.887 -0.3435  0.6785 -0.9093
13896TIP3   OH263102   4.617   1.051  14.121  0.1047  0.9119  0.0881
13896TIP3    H163103   4.593   0.960  14.136 -1.1286  1.1760 -0.1277
13896TIP3    H263104   4.701   1.047  14.075 -0.0497 -0.1186 -0.1323
13897TIP3   OH263105   0.035   4.258   5.494  0.4683 -0.4621 -0.3968
13897TIP3    H163106   0.052   4.310   5.573  1.2816  1.5299 -1.7919
13897TIP3    H263107  -0.060   4.266   5.480  0.2359 -1.2638  0.6351
13898TIP3   OH263108   0.412   6.170  14.431  0.2309  0.1953  1.3556
13898TIP3    H163109   0.500   6.154  14.464  0.7653 -1.6766 -0.7509
13898TIP3    H263110   0.425   6.203  14.342 -1.1551 -1.5916  0.4274
13899TIP3   OH263111   5.300   1.390   3.067 -0.4718 -0.0928  0.3516
13899TIP3    H163112   5.312   1.446   2.991 -0.0962  1.8366  1.7668
13899TIP3    H263113   5.205   1.380   3.076 -0.6661  2.1789  1.3265
13900TIP3   OH263114   4.294   3.296  14.532 -0.0095 -0.3578 -0.5973
13900TIP3    H163115   4.382   3.306  14.568 -0.0670 -1.4366 -0.1125
13900TIP3    H263116   4.300   3.327  14.442  0.6672  0.3258 -0.3254
13901TIP3   OH263117   6.018   0.522  16.784  0.6267 -0.2340 -0.3120
13901TIP3    H163118   6.087   0.506  16.849  2.2720  0.1986 -1.8888
13901TIP3    H263119   5.954   0.451  16.800  0.4587  0.3782  2.3387
13902TIP3   OH263120   6.482   2.715   5.285 -0.4167 -0.2685 -0.3495
13902TIP3    H163121   6.452   2.794   5.331 -1.9293 -1.3389  0.6201
13902TIP3    H263122   6.451   2.726   5.195  2.1196  1.6196 -1.0790
13903TIP3   OH263123   2.095   2.990   0.412 -0.1058 -0.1744 -0.2963
13903TIP3    H163124   2.053   2.947   0.486  1.6376  0.8931  1.3995
13903TIP3    H263125   2.153   2.924   0.375  0.0922 -0.2793  0.2004
13904TIP3   OH263126   6.142   6.796   0.300 -0.3015  0.4619  0.6486
13904TIP3    H163127   6.191   6.850   0.362  0.3981  0.7256 -0.1120
13904TIP3    H263128   6.191   6.714   0.296  0.5480  0.9912 -0.6662
13905TIP3   OH263129   5.777   4.448  16.841 -0.0470  0.1144  0.2030
13905TIP3    H163130   5.715   4.419  16.774  0.3604  2.0706 -1.1093
13905TIP3    H263131   5.754   4.539  16.857  0.6498  0.0343  1.8736
13906TIP3   OH263132   2.962   2.434  11.946  0.3572 -0.0069 -0.1846
13906TIP3    H163133   2.944   2.348  11.985  0.0746  0.6344  1.1616
13906TIP3    H263134   2.941   2.423  11.853 -0.6245 -1.1329  0.1393
13907TIP3   OH263135   3.275   5.285   5.349  0.0993 -0.0244  0.2858
13907TIP3    H163136   3.255   5.194   5.371 -1.6929 -0.1397 -1.5155
13907TIP3    H263137   3.205   5.311   5.289  1.6359  1.9360 -0.7884
13908TIP3   OH263138   2.776   5.434  11.545  0.6725 -0.2545 -0.4524
13908TIP3    H163139   2.743   5.364  11.490 -0.0534 -0.0764 -0.2597
13908TIP3    H263140   2.777   5.398  11.633  0.0736  0.0457 -0.3180
13909TIP3   OH263141   4.796   5.906  16.195  0.0641  0.2994 -0.7252
13909TIP3    H163142   4.871   5.847  16.203  1.1156  1.6280 -0.2663
13909TIP3    H263143   4.811   5.952  16.113 -0.9137 -0.2678 -1.2386
13910TIP3   OH263144   5.998   4.004   1.262 -0.2354 -0.4925 -0.0274
13910TIP3    H163145   5.949   3.948   1.201  1.0554 -0.3941 -1.2191
13910TIP3    H263146   6.089   3.995   1.234  0.2576  0.4757  1.1856
13911TIP3   OH263147   0.277   3.722   5.101  0.5525 -0.3109  0.0831
13911TIP3    H163148   0.279   3.707   5.195 -0.9910 -1.2073  0.0124
13911TIP3    H263149   0.359   3.766   5.081  1.5189 -1.3505  1.6273
13912TIP3   OH263150   5.046   2.820  11.624 -1.4993  0.2466  0.5319
13912TIP3    H163151   4.969   2.808  11.680 -1.1539  0.9988  1.1806
13912TIP3    H263152   5.119   2.827  11.684 -0.9261 -0.3711 -0.0800
13913TIP3   OH263153   5.428   2.576  11.941 -0.4352  0.1041 -0.0525
13913TIP3    H163154   5.504   2.528  11.972  0.4020  0.2641 -1.7209
13913TIP3    H263155   5.360   2.557  12.005  0.5753 -1.2779  0.6739
13914TIP3   OH263156   6.319   1.043  14.034  0.8667  0.3642 -0.2704
13914TIP3    H163157   6.281   1.131  14.033  1.8548  0.8140 -1.9140
13914TIP3    H263158   6.397   1.050  14.089  0.9355  0.5092 -0.3877
13915TIP3   OH263159   3.895   4.491   2.611  0.5223  0.6433  0.5865
13915TIP3    H163160   3.819   4.548   2.622  0.6933  0.7701  1.1507
13915TIP3    H263161   3.872   4.412   2.660 -0.0333 -0.0988 -0.8183
13916TIP3   OH263162   6.435   1.006  13.180  0.1221 -0.3015 -0.2519
13916TIP3    H163163   6.374   0.991  13.108  0.0904 -2.7829  0.2153
13916TIP3    H263164   6.416   0.936  13.243  0.5680  1.3886  1.9173
13917TIP3   OH263165   3.050   1.783   4.980  0.0284 -0.0246 -0.3959
13917TIP3    H163166   3.065   1.726   4.905  0.3799 -0.6973  0.1763
13917TIP3    H263167   2.996   1.732   5.039  0.2705  0.2659  0.0833
13918TIP3   OH263168   0.375   0.968  16.370 -0.1042  0.0723 -0.5023
13918TIP3    H163169   0.348   0.898  16.309  0.2304 -0.8233  0.3452
13918TIP3    H263170   0.470   0.973  16.360  0.0808 -0.7287  0.5694
13919TIP3   OH263171   1.256   6.012   3.299 -0.0830 -0.0485  0.3114
13919TIP3    H163172   1.235   6.049   3.214  1.0865 -0.3396 -0.1180
13919TIP3    H263173   1.217   5.924   3.297 -0.4716  0.1211  0.2742
13920TIP3   OH263174   4.056   5.410   3.949 -0.0877  0.4185 -0.1653
13920TIP3    H163175   4.110   5.411   3.869 -0.5583 -3.9997 -0.7924
13920TIP3    H263176   4.101   5.349   4.007 -1.9643  0.2776  1.2275
13921TIP3   OH263177   6.673   5.549  13.768 -0.5748  0.1369  0.3322
13921TIP3    H163178   6.579   5.532  13.758 -0.4817  0.1942 -0.7830
13921TIP3    H263179   6.711   5.462  13.785 -0.8140  0.0926  0.6459
13922TIP3   OH263180   0.888   0.737  14.107 -0.1455  0.2778 -0.0782
13922TIP3    H163181   0.891   0.821  14.061  1.2000 -0.3346 -1.1742
13922TIP3    H263182   0.957   0.744  14.173  1.2238 -0.5682 -1.3474
13923TIP3   OH263183   4.236   2.986  11.283  0.8759  0.1261 -0.2709
13923TIP3    H163184   4.240   2.916  11.217  2.3179  0.3790 -0.4660
13923TIP3    H263185   4.321   3.029  11.278  0.6330  0.8010  1.0577
13924TIP3   OH263186   4.477   5.041   1.979  0.0661 -0.4604 -0.6881
13924TIP3    H163187   4.462   5.040   2.074 -0.1567 -1.4469 -0.7303
13924TIP3    H263188   4.417   4.976   1.944  0.7773 -0.7440 -1.4120
13925TIP3   OH263189   2.759   6.723   0.326  0.2138 -0.9294  0.2561
13925TIP3    H163190   2.722   6.764   0.405  0.5525 -0.9886  0.4459
13925TIP3    H263191   2.755   6.792   0.260  0.5005 -0.6848  0.4930
13926TIP3   OH263192   6.154   5.227  15.095 -0.1463 -0.2466 -0.1025
13926TIP3    H163193   6.187   5.152  15.144  2.4263  1.0622  0.3214
13926TIP3    H263194   6.166   5.202  15.003  1.8118  0.0404  0.0373
13927TIP3   OH263195   0.560   0.652   4.456 -0.6981  0.4688  0.0774
13927TIP3    H163196   0.535   0.735   4.497  1.2540  0.4004  1.5470
13927TIP3    H263197   0.482   0.598   4.463 -1.2962  1.4139  1.2290
13928TIP3   OH263198   4.522   1.472   0.031  0.5952 -0.1457 -0.3604
13928TIP3    H163199   4.542   1.408  -0.037 -1.0736 -2.7275  1.3716
13928TIP3    H263200   4.433   1.450   0.059  0.0025  2.8971  0.4686
13929TIP3   OH263201   2.888   5.640  12.834 -0.1554  0.0309  0.2354
13929TIP3    H163202   2.959   5.698  12.807 -0.3577 -0.4306 -1.3982
13929TIP3    H263203   2.917   5.604  12.918  0.1686  2.1218  1.0838
13930TIP3   OH263204   5.315   1.812   2.841  0.1983  0.2380 -0.8299
13930TIP3    H163205   5.406   1.842   2.832 -0.2583  2.4581  0.9524
13930TIP3    H263206   5.320   1.740   2.903  0.7362  0.4533 -0.6158
13931TIP3   OH263207   1.152   0.792   3.743  0.0110 -0.3327  0.3715
13931TIP3    H163208   1.152   0.877   3.700 -0.3512 -0.5955 -0.1622
13931TIP3    H263209   1.075   0.794   3.800 -3.2595 -2.1187 -3.4411
13932TIP3   OH263210   4.831   3.404  14.132  0.0867  0.5213  0.9559
13932TIP3    H163211   4.880   3.324  14.151  0.5233 -0.2454 -2.5696
13932TIP3    H263212   4.857   3.465  14.201  2.7119 -1.1960  1.6562
13933TIP3   OH263213   3.701   2.477   0.954 -0.2188  0.0676 -0.3216
13933TIP3    H163214   3.751   2.547   0.996 -0.9691 -0.1918  1.0373
13933TIP3    H263215   3.754   2.399   0.965 -0.2608  0.0615 -0.1728
13934TIP3   OH263216   0.936   5.401  16.213  0.1553 -0.3747  0.0847
13934TIP3    H163217   0.885   5.327  16.246  1.5941 -0.5839  2.0467
13934TIP3    H263218   0.892   5.427  16.133 -0.6412 -3.0821 -0.4484
13935TIP3   OH263219   4.846   6.703   1.380 -0.1482 -0.2631  0.2981
13935TIP3    H163220   4.901   6.696   1.458  0.4775 -1.2196 -0.2095
13935TIP3    H263221   4.789   6.778   1.398  0.9925  0.4587  1.0375
13936TIP3   OH263222   2.984   1.650   1.499 -0.4978 -0.5248  0.0716
13936TIP3    H163223   3.074   1.621   1.485 -0.8558 -0.9013 -1.7535
13936TIP3    H263224   2.979   1.734   1.453 -1.1766 -0.7358 -0.2578
13937TIP3   OH263225   0.656   2.343   1.032 -0.7258 -0.1135 -0.1904
13937TIP3    H163226   0.716   2.349   1.107  1.8492  1.2783 -2.1798
13937TIP3    H263227   0.647   2.249   1.018  1.9187 -0.4294 -0.3857
13938TIP3   OH263228   6.733   5.805  13.729  0.0663  0.0587 -0.0559
13938TIP3    H163229   6.657   5.838  13.776  0.4127  0.9275 -0.0783
13938TIP3    H263230   6.728   5.710  13.737 -0.2935  0.1618  1.0805
13939TIP3   OH263231   1.550   1.416  12.475 -0.1403 -0.2483 -0.5257
13939TIP3    H163232   1.461   1.414  12.509 -0.4267 -0.0505 -1.2562
13939TIP3    H263233   1.602   1.451  12.547 -0.5883 -0.7213  0.0388
13940TIP3   OH263234   2.231   5.931  10.324  0.6018  0.3428  0.2512
13940TIP3    H163235   2.301   5.994  10.316  0.0577  0.9756  0.3806
13940TIP3    H263236   2.157   5.970  10.278  0.4339 -0.4675 -0.1837
13941TIP3   OH263237   1.020   1.392  14.693 -0.0022 -0.3605  0.1602
13941TIP3    H163238   0.950   1.368  14.632 -1.3634  1.3974  0.9424
13941TIP3    H263239   1.100   1.389  14.640 -0.8562 -0.9342 -1.1480
13942TIP3   OH263240   2.775   5.194   5.322 -0.4874 -0.1274 -0.3270
13942TIP3    H163241   2.805   5.255   5.389 -1.9456  0.3754 -0.1104
13942TIP3    H263242   2.780   5.243   5.240  1.5148 -0.8140 -0.6676
13943TIP3   OH263243   0.581   2.569  13.651  0.4438  0.2143 -0.5984
13943TIP3    H163244   0.557   2.561  13.559 -0.1579  0.3462 -0.4640
13943TIP3    H263245   0.568   2.662  13.670 -2.1545 -0.2554  0.3092
13944TIP3   OH263246   0.626   4.995   0.936  0.5879 -0.0465 -0.1118
13944TIP3    H163247   0.649   5.075   0.888  1.4547  0.0094  0.3942
13944TIP3    H263248   0.641   4.925   0.873 -2.9151  0.2961 -1.5945
13945TIP3   OH263249   5.989   3.858   1.486  0.7578  0.0770 -0.2274
13945TIP3    H163250   5.893   3.864   1.487  0.7842  0.5012  0.8834
13945TIP3    H263251   6.015   3.916   1.415  0.2472  0.9529  0.2890
13946TIP3   OH263252   4.228   6.086   4.780  0.2564 -0.1968 -0.1576
13946TIP3    H163253   4.205   6.004   4.737 -0.6411 -0.3131  0.4972
13946TIP3    H263254   4.303   6.065   4.835  1.3395 -0.0705 -1.5489
13947TIP3   OH263255   2.153   1.984  12.553 -0.0585  0.1291 -0.7891
13947TIP3    H163256   2.181   2.075  12.562  0.1195 -0.0114  0.0916
13947TIP3    H263257   2.234   1.933  12.560 -0.5211 -0.3670  2.9832
13948TIP3   OH263258   4.007   2.958   6.238 -0.0342 -0.1285  0.1386
13948TIP3    H163259   4.004   2.885   6.176  0.1001  0.7307 -0.8989
13948TIP3    H263260   4.070   3.019   6.200  1.1736 -0.2197  1.8544
13949TIP3   OH263261   2.912   5.886   2.931 -0.2514  0.5972  0.3360
13949TIP3    H163262   2.888   5.819   2.867  2.9305  0.1282 -0.5021
13949TIP3    H263263   2.872   5.966   2.897 -2.8587 -0.5035  0.5599
13950TIP3   OH263264   0.442   5.966   4.017 -0.0504  0.0044  0.6003
13950TIP3    H163265   0.358   5.981   4.060  0.0699 -1.3391  1.3693
13950TIP3    H263266   0.502   6.027   4.059 -0.0178 -1.0360  2.1225
13951TIP3   OH263267   5.008   3.650  12.823  0.2240 -0.1457 -0.2117
13951TIP3    H163268   4.953   3.576  12.795 -0.8794  0.1854  0.9763
13951TIP3    H263269   4.946   3.721  12.840  1.1671  0.7012 -0.2153
13952TIP3   OH263270   5.529   4.082   2.145  0.3225 -0.4682 -0.6454
13952TIP3    H163271   5.435   4.067   2.149  0.4006 -0.7560  0.5660
13952TIP3    H263272   5.540   4.174   2.169  0.2106  0.2381 -3.0740
13953TIP3   OH263273   1.727   3.243  16.941  0.5170 -0.0937 -0.6294
13953TIP3    H163274   1.637   3.224  16.969  0.5126 -1.1478 -1.2867
13953TIP3    H263275   1.770   3.278  17.019 -0.7724  1.5685 -0.6080
13954TIP3   OH263276   3.446   1.773   2.685  0.1093  0.4815 -0.2149
13954TIP3    H163277   3.465   1.842   2.622  2.0077  1.7360  1.6139
13954TIP3    H263278   3.530   1.730   2.701 -0.2379  0.4089  1.6596
13955TIP3   OH263279   5.135   1.464   5.918  0.8163  0.1271 -0.6520
13955TIP3    H163280   5.095   1.468   6.005  0.7422 -0.6354 -0.6474
13955TIP3    H263281   5.094   1.388   5.876  0.1751  1.0276 -1.7018
13956TIP3   OH263282   3.462   4.340   6.444 -0.1253 -0.2620  0.2682
13956TIP3    H163283   3.523   4.292   6.500  2.3487  1.0817 -1.0895
13956TIP3    H263284   3.470   4.297   6.358 -1.7363 -0.5470  0.2404
13957TIP3   OH263285   5.903   0.868  11.966 -0.2969 -0.2427 -0.6413
13957TIP3    H163286   5.906   0.875  12.061  1.4963 -1.1440 -0.5793
13957TIP3    H263287   5.885   0.957  11.935  1.6048  0.6085  0.4977
13958TIP3   OH263288   2.294   6.653   3.577  0.3326  0.0489 -0.0117
13958TIP3    H163289   2.297   6.732   3.631  0.1574 -0.7534  1.2046
13958TIP3    H263290   2.202   6.629   3.575  0.4606 -0.4634  0.1462
13959TIP3   OH263291   2.418   2.119  14.110 -0.3477  0.4613  0.5673
13959TIP3    H163292   2.351   2.187  14.104 -1.5382 -0.5901  1.3938
13959TIP3    H263293   2.481   2.141  14.041 -1.8129  1.1774 -0.5964
13960TIP3   OH263294   2.836   4.486  12.465 -0.3270  0.5533  0.2540
13960TIP3    H163295   2.906   4.423  12.483 -1.2266 -0.5384  0.0675
13960TIP3    H263296   2.790   4.449  12.390 -0.4886  1.7862 -0.2749
13961TIP3   OH263297   3.851   2.180  14.520  0.1980  0.2783 -0.2842
13961TIP3    H163298   3.925   2.237  14.499  1.2682 -0.4024  1.4369
13961TIP3    H263299   3.872   2.143  14.606 -1.7772 -0.5571 -0.0947
13962TIP3   OH263300   5.145   4.615  13.916 -0.3245  0.1419  0.0456
13962TIP3    H163301   5.214   4.632  13.980 -0.4939  1.9077 -0.1708
13962TIP3    H263302   5.165   4.674  13.843 -2.2553  1.0199  0.1584
13963TIP3   OH263303   4.718   3.553  16.387  0.3033  0.0263 -0.0698
13963TIP3    H163304   4.810   3.547  16.414  0.5704  1.1506 -0.6787
13963TIP3    H263305   4.721   3.559  16.292 -0.3228  1.2149 -0.0376
13964TIP3   OH263306   1.072   0.856   0.388 -0.7226 -0.0189  0.5978
13964TIP3    H163307   0.987   0.813   0.403  0.3113 -1.6999  2.0208
13964TIP3    H263308   1.122   0.792   0.338 -0.8118  1.6687 -1.8012
13965TIP3   OH263309   1.853   5.814   4.842 -0.0534  0.3874  0.1997
13965TIP3    H163310   1.778   5.871   4.855  0.8739  1.6361  0.2065
13965TIP3    H263311   1.926   5.860   4.882  0.4746 -1.4837  1.5026
13966TIP3   OH263312   0.496   5.455  12.593 -0.0553  0.1131 -0.3084
13966TIP3    H163313   0.435   5.470  12.664  0.2758 -0.3195  0.0691
13966TIP3    H263314   0.441   5.443  12.516 -0.4023  2.8421 -0.6136
13967TIP3   OH263315   1.640   5.806  11.447  0.2411 -0.3959  0.4389
13967TIP3    H163316   1.656   5.727  11.499  0.7196 -0.0190  0.8672
13967TIP3    H263317   1.636   5.774  11.357  0.1519 -0.9493  0.6339
13968TIP3   OH263318   2.949   5.155  16.086 -0.0545  0.6752  0.4182
13968TIP3    H163319   3.017   5.188  16.027 -0.9086  0.7959 -0.5267
13968TIP3    H263320   2.976   5.184  16.173  0.0664  2.4829 -0.1767
13969TIP3   OH263321   3.862   6.419   1.623 -0.3392  0.8609 -0.1523
13969TIP3    H163322   3.831   6.394   1.710 -0.5597 -1.1536 -0.7571
13969TIP3    H263323   3.914   6.498   1.638  0.2040  0.1780  1.9046
13970TIP3   OH263324   2.199   4.713   3.426  0.0693 -0.0536 -0.4552
13970TIP3    H163325   2.236   4.685   3.509 -1.4887 -0.5737  0.1153
13970TIP3    H263326   2.211   4.638   3.368  1.2272  0.3380 -0.7281
13971TIP3   OH263327   3.767   4.172  10.272  0.7312  0.1516 -0.6581
13971TIP3    H163328   3.825   4.190  10.198  1.1825  1.3426 -0.0391
13971TIP3    H263329   3.820   4.119  10.331  0.2952 -0.9982 -1.2571
13972TIP3   OH263330   2.140   2.159  13.004  0.4092 -0.0984 -0.3690
13972TIP3    H163331   2.160   2.066  13.011  0.3019 -0.3006 -2.1395
13972TIP3    H263332   2.223   2.200  12.980  0.4341  0.2564  0.3086
13973TIP3   OH263333   4.743   6.054   2.717  0.1438  0.3523  0.3312
13973TIP3    H163334   4.833   6.038   2.745  0.7740  0.7056 -1.3874
13973TIP3    H263335   4.691   5.989   2.765  1.4973 -0.8687  0.2071
13974TIP3   OH263336   4.002   5.905   4.240 -0.2190  0.1151 -0.1971
13974TIP3    H163337   3.960   5.900   4.155 -0.3643  0.0203 -0.1202
13974TIP3    H263338   4.092   5.878   4.225 -0.7096 -1.7473  0.0259
13975TIP3   OH263339   2.097   5.560  15.542  0.3080  0.1910  0.0266
13975TIP3    H163340   2.086   5.656  15.545 -1.7292  0.0425 -0.7327
13975TIP3    H263341   2.108   5.535  15.634  2.1594  1.2326  0.1428
13976TIP3   OH263342   5.133   1.913   4.030  0.3144 -0.0902  0.0131
13976TIP3    H163343   5.046   1.893   3.997 -0.2161  3.0165 -0.7257
13976TIP3    H263344   5.192   1.880   3.962 -0.4647  0.7184 -1.0778
13977TIP3   OH263345   2.949   3.991   4.305  0.2077  0.0525 -0.1591
13977TIP3    H163346   2.860   3.991   4.269  0.8543  0.7333 -1.8732
13977TIP3    H263347   2.981   3.902   4.291 -0.1166 -0.1305  0.2489
13978TIP3   OH263348   2.125   0.138  13.420 -0.3245  0.0623 -0.1937
13978TIP3    H163349   2.134   0.233  13.430 -0.3602  0.0390  0.0571
13978TIP3    H263350   2.120   0.105  13.509 -0.2756 -0.1798 -0.2808
13979TIP3   OH263351   4.939   0.037   2.396  0.0570 -0.4168  0.3149
13979TIP3    H163352   4.883   0.029   2.473  0.0460  1.5135  0.5506
13979TIP3    H263353   4.884   0.008   2.323  0.2366 -2.7872  1.0226
13980TIP3   OH263354   6.679   3.037   3.386 -0.4107 -0.3853 -0.5313
13980TIP3    H163355   6.618   2.974   3.425 -1.1154 -0.6301 -1.9458
13980TIP3    H263356   6.757   2.985   3.368  0.2786 -0.0535  1.3613
13981TIP3   OH263357   5.389   6.427   0.552  0.3153 -0.2198 -0.1798
13981TIP3    H163358   5.461   6.483   0.523 -0.1376  0.4649 -0.0182
13981TIP3    H263359   5.379   6.447   0.645  0.1687 -0.5963 -0.1124
13982TIP3   OH263360   4.257   6.742   2.516 -0.0912  0.5789 -0.1242
13982TIP3    H163361   4.341   6.780   2.490  2.3115 -3.3025  1.0543
13982TIP3    H263362   4.275   6.699   2.600 -2.7745 -1.7913 -0.5987
13983TIP3   OH263363   2.611   4.806   2.461  0.1289 -0.0911  0.2347
13983TIP3    H163364   2.552   4.734   2.484 -0.2460  0.5588  1.3580
13983TIP3    H263365   2.697   4.777   2.492 -0.0165 -0.0681  0.6600
13984TIP3   OH263366   2.224   5.111   4.649 -0.1345 -0.3806  0.3340
13984TIP3    H163367   2.277   5.087   4.726  0.6700 -0.7191 -0.3022
13984TIP3    H263368   2.268   5.189   4.613  0.1267 -0.8369 -0.3692
13985TIP3   OH263369   5.585   4.844  12.774 -0.0045 -0.1040 -0.3383
13985TIP3    H163370   5.513   4.793  12.737  0.1760 -0.8425  0.2881
13985TIP3    H263371   5.549   4.883  12.853  0.3244 -0.6061  0.0625
13986TIP3   OH263372   3.634   3.886   5.909 -0.6230 -0.0874  0.6124
13986TIP3    H163373   3.629   3.963   5.966  0.1790  0.0382  0.5118
13986TIP3    H263374   3.642   3.922   5.821  0.9733 -0.2630  0.6595
13987TIP3   OH263375   6.408   2.265   5.559  0.7320  0.2900 -0.5881
13987TIP3    H163376   6.352   2.188   5.568  0.6851  0.5127  1.8447
13987TIP3    H263377   6.482   2.235   5.507 -0.3019 -0.7757 -1.5121
13988TIP3   OH263378   3.934   2.559  12.040 -0.0271  0.1819  0.1300
13988TIP3    H163379   3.868   2.599  11.983  0.2568  0.5069  0.0220
13988TIP3    H263380   3.884   2.514  12.108 -0.3730  1.6311  0.8896
13989TIP3   OH263381   3.644   0.120   0.641  0.4920 -0.2266 -0.1539
13989TIP3    H163382   3.595   0.053   0.689 -1.5673  1.2137 -0.1151
13989TIP3    H263383   3.734   0.113   0.674 -0.1882 -1.3982  1.5460
13990TIP3   OH263384   5.540   4.641  12.369  0.1812 -0.6761  0.3078
13990TIP3    H163385   5.514   4.552  12.342 -0.2613 -0.2463 -0.7513
13990TIP3    H263386   5.492   4.657  12.450 -2.1405 -0.2872 -1.0738
13991TIP3   OH263387   3.812   0.150   3.980  0.3830  0.1978 -0.1626
13991TIP3    H163388   3.750   0.088   3.941  1.3813 -0.1779 -1.2062
13991TIP3    H263389   3.824   0.217   3.912 -1.7499  2.3837  1.4475
13992TIP3   OH263390   5.935   3.088  14.024 -0.4946  0.1224 -0.0339
13992TIP3    H163391   5.962   3.034  13.949  1.8155  2.1159 -0.7608
13992TIP3    H263392   6.017   3.111  14.068 -1.6832  0.3873  2.1753
13993TIP3   OH263393   3.449   0.831  14.584 -0.4079  0.6698  0.0007
13993TIP3    H163394   3.485   0.886  14.514  1.2590  1.4340  1.3913
13993TIP3    H263395   3.519   0.825  14.648 -1.0615 -1.9268  0.5834
13994TIP3   OH263396   2.715   0.819  16.315  0.1292  0.5437  0.4109
13994TIP3    H163397   2.794   0.782  16.352  0.6128  1.0426 -0.1038
13994TIP3    H263398   2.732   0.825  16.221 -0.7489  0.1012  0.2071
13995TIP3   OH263399   1.957   5.760  15.764  0.0780  0.3430  0.4944
13995TIP3    H163400   1.982   5.671  15.738 -1.6912 -0.3731  1.0445
13995TIP3    H263401   2.020   5.817  15.721  1.6705 -1.2146  0.6493
13996TIP3   OH263402   4.601   4.015  14.757  0.2762  0.1650 -0.6920
13996TIP3    H163403   4.560   4.067  14.688 -0.4553  0.4144 -0.0896
13996TIP3    H263404   4.597   4.072  14.835  4.5122  1.4914 -1.2026
13997TIP3   OH263405   6.628   0.942   4.758  0.3284 -0.4439  1.2161
13997TIP3    H163406   6.665   0.853   4.756 -2.7121 -1.8076  0.2205
13997TIP3    H263407   6.546   0.933   4.807 -0.4953  1.6250  0.3184
13998TIP3   OH263408   6.004   0.066  15.180  0.0350  0.3065  0.8083
13998TIP3    H163409   6.063   0.060  15.255 -1.0972  1.1484  1.8344
13998TIP3    H263410   5.923   0.024  15.210 -0.5805  1.0418  0.2347
13999TIP3   OH263411   3.783   2.971   5.233  0.6089 -0.0984  0.5956
13999TIP3    H163412   3.752   2.892   5.190  0.7342  0.3153 -0.2804
13999TIP3    H263413   3.820   2.941   5.316 -2.0400 -0.6318  1.6944
14000TIP3   OH263414   0.003   1.152  15.420 -0.0348 -0.5241  0.6650
14000TIP3    H163415   0.036   1.177  15.334 -2.5318  2.1615  0.3118
14000TIP3    H263416   0.006   1.056  15.420 -0.0049 -0.6309 -2.4673
14001TIP3   OH263417   1.255   5.330  15.812 -0.3216 -0.2012 -0.1970
14001TIP3    H163418   1.193   5.262  15.839 -1.8301  0.7558 -1.0828
14001TIP3    H263419   1.200   5.396  15.770  1.2929  0.8517 -0.7190
14002TIP3   OH263420   2.291   6.613   1.101  0.1960 -0.1581  0.2045
14002TIP3    H163421   2.236   6.668   1.158  1.6507 -1.6213  3.2160
14002TIP3    H263422   2.230   6.551   1.062 -0.7363  0.2012  1.0434
14003TIP3   OH263423   0.756   3.094  13.406 -0.7064  0.3518  0.3024
14003TIP3    H163424   0.676   3.140  13.429 -0.7230 -0.2392  1.4917
14003TIP3    H263425   0.778   3.042  13.483  1.3141  1.1787  0.3657
14004TIP3   OH263426   1.618   4.648   0.254 -0.1151  0.5028 -0.0287
14004TIP3    H163427   1.551   4.581   0.240 -0.3306  0.7214 -0.0447
14004TIP3    H263428   1.659   4.624   0.337  0.1092  0.0991 -0.2516
14005TIP3   OH263429   4.801   2.889  15.940 -0.1657  0.0606  0.6538
14005TIP3    H163430   4.759   2.840  16.010 -0.7609  2.2067  1.8880
14005TIP3    H263431   4.746   2.967  15.929  1.9753  1.6432  0.4649
14006TIP3   OH263432   2.223   5.708   5.340 -0.2545 -0.6958  0.0940
14006TIP3    H163433   2.189   5.749   5.420  0.8552 -0.4185  0.4351
14006TIP3    H263434   2.211   5.614   5.353  1.1479 -0.7458  1.1817
14007TIP3   OH263435   0.007   1.330   6.230  0.0771  0.3148 -0.3451
14007TIP3    H163436  -0.078   1.336   6.185  1.2926  0.3025 -2.8270
14007TIP3    H263437   0.050   1.255   6.189  1.3044  0.3206  0.8717
14008TIP3   OH263438   1.763   4.385   4.796  0.4184 -0.1022  0.4516
14008TIP3    H163439   1.725   4.456   4.744 -0.7979  2.4635  4.3897
14008TIP3    H263440   1.843   4.422   4.833  0.8151 -1.5041  1.0808
14009TIP3   OH263441   1.616   1.520  14.446 -0.2424  1.0338  0.1029
14009TIP3    H163442   1.607   1.441  14.393 -0.8618  0.5611  0.8933
14009TIP3    H263443   1.693   1.565  14.409 -0.0609  0.2250 -0.5412
14010TIP3   OH263444   2.146   2.725  12.121  0.0593  0.0880  0.1227
14010TIP3    H163445   2.081   2.658  12.101 -0.2948 -0.4082  2.6056
14010TIP3    H263446   2.096   2.806  12.130 -0.2038 -0.2014  1.5367
14011TIP3   OH263447   0.231   5.202  16.997 -0.5327 -0.2699  0.3326
14011TIP3    H163448   0.187   5.145  17.060  1.3345 -0.8571  1.1687
14011TIP3    H263449   0.313   5.226  17.040 -1.1356  2.8932 -0.0813
14012TIP3   OH263450   4.674   6.348   0.086  0.2348  0.2372 -0.0324
14012TIP3    H163451   4.703   6.351   0.177  1.0566 -0.7994 -0.2396
14012TIP3    H263452   4.618   6.270   0.081  1.7060 -0.8320 -0.7961
14013TIP3   OH263453   6.692   4.267   2.707  0.0905  0.0862  0.1801
14013TIP3    H163454   6.738   4.188   2.736  0.6282 -0.2450 -1.5007
14013TIP3    H263455   6.761   4.327   2.680 -0.3097  1.2112  1.4932
14014TIP3   OH263456   1.593   4.048  12.194 -0.3120 -0.4932 -0.0701
14014TIP3    H163457   1.680   4.010  12.207  0.8189  1.7967 -0.5315
14014TIP3    H263458   1.534   3.972  12.190  1.2274 -2.0145  3.0092
14015TIP3   OH263459   3.141   0.704   6.413  0.0200  0.2106  0.2397
14015TIP3    H163460   3.053   0.668   6.401 -0.6298  2.1222 -1.3974
14015TIP3    H263461   3.199   0.640   6.372 -0.6447 -0.8245  0.8788
14016TIP3   OH263462   0.712   5.532   1.914  0.2653 -0.0827  0.0496
14016TIP3    H163463   0.652   5.499   1.981 -0.2428  0.2278 -0.2451
14016TIP3    H263464   0.711   5.627   1.925  1.4927 -0.1232  0.7002
14017TIP3   OH263465   2.392   3.841   6.297  0.4928  0.0715  0.0725
14017TIP3    H163466   2.355   3.866   6.382  0.6396 -0.1787  0.2118
14017TIP3    H263467   2.486   3.855   6.306  0.6837 -1.2241  0.4203
14018TIP3   OH263468   2.249   2.048   0.549 -0.2341 -0.4879  0.1041
14018TIP3    H163469   2.207   2.072   0.466 -1.6408 -0.3845  0.8055
14018TIP3    H263470   2.293   1.965   0.531 -2.4286 -1.6703 -0.2072
14019TIP3   OH263471   4.277   2.195   1.734  0.1675 -0.0785  0.4463
14019TIP3    H163472   4.223   2.118   1.716  1.6751 -1.3236  0.9823
14019TIP3    H263473   4.269   2.208   1.828  1.6198 -0.9667  0.7226
14020TIP3   OH263474   1.037   1.877  16.809  0.2787 -0.3336  0.2251
14020TIP3    H163475   1.018   1.925  16.889 -1.2320 -1.7773  0.7822
14020TIP3    H263476   1.101   1.811  16.835 -1.9450 -2.3427  0.8721
14021TIP3   OH263477   5.753   0.327  11.851 -0.3929  0.3098  0.0312
14021TIP3    H163478   5.803   0.284  11.781 -2.2434  0.0826 -1.2194
14021TIP3    H263479   5.741   0.417  11.820 -0.7508  0.3626  0.3183
14022TIP3   OH263480   1.189   0.589   2.105  0.2664  0.1598 -0.0131
14022TIP3    H163481   1.159   0.676   2.132 -0.1671  0.1979 -0.6091
14022TIP3    H263482   1.108   0.542   2.084  0.4443 -0.6298  1.0033
14023TIP3   OH263483   5.993   1.656   3.122  0.2220  0.3566  0.0234
14023TIP3    H163484   6.011   1.736   3.173 -0.4577  0.0040  0.8500
14023TIP3    H263485   6.079   1.618   3.106  0.5818  1.4422 -0.7024
14024TIP3   OH263486   0.959   1.913   4.659 -0.1952 -0.2638 -0.4296
14024TIP3    H163487   0.865   1.909   4.679 -0.5136  0.5066 -1.6287
14024TIP3    H263488   0.975   2.005   4.641  0.8491 -0.3624 -0.0546
14025TIP3   OH263489   6.467   6.625   4.323 -0.0618  0.2635 -0.8146
14025TIP3    H163490   6.424   6.558   4.376  1.1946  1.2184  1.5540
14025TIP3    H263491   6.403   6.697   4.318  0.2128  0.6141  0.4164
14026TIP3   OH263492   0.642   5.249   2.551 -0.0875  0.4333  0.1127
14026TIP3    H163493   0.567   5.274   2.606 -0.9341 -0.5911 -0.5295
14026TIP3    H263494   0.697   5.327   2.549 -2.2678  2.0675 -1.2969
14027TIP3   OH263495   5.602   3.750  13.719  0.1938 -0.3653 -0.7099
14027TIP3    H163496   5.554   3.747  13.636 -0.6883 -0.2645 -0.2165
14027TIP3    H263497   5.534   3.741  13.786  0.9843 -1.3301 -0.0122
14028TIP3   OH263498   2.333   0.381   0.859  0.8911 -0.1570 -0.3940
14028TIP3    H163499   2.382   0.298   0.859  0.4583 -0.4345  0.9489
14028TIP3    H263500   2.317   0.399   0.951 -0.3274  0.6660 -0.7473
14029TIP3   OH263501   1.645   2.698   3.223  0.2789  0.2812  0.6660
14029TIP3    H163502   1.640   2.788   3.256 -0.2988 -0.3337  2.3705
14029TIP3    H263503   1.736   2.686   3.199  0.4916  1.1428  0.9905
14030TIP3   OH263504   6.473   6.662  12.722  0.1604 -0.0955  0.3622
14030TIP3    H163505   6.492   6.720  12.796 -0.6527 -0.1249  0.6099
14030TIP3    H263506   6.443   6.581  12.763 -0.3722 -0.0856  0.0060
14031TIP3   OH263507   3.056   3.799   0.190  0.1495  0.3817 -0.6308
14031TIP3    H163508   3.123   3.864   0.212 -0.9728  1.0184  1.1165
14031TIP3    H263509   2.976   3.850   0.176 -0.7690 -0.5687  0.8416
14032TIP3   OH263510   5.558   3.077  16.628  0.0851  0.6335 -0.2977
14032TIP3    H163511   5.514   3.018  16.690  2.7481 -0.3067  0.8494
14032TIP3    H263512   5.489   3.103  16.567 -2.7028  1.4614  2.8576
14033TIP3   OH263513   2.035   2.013  10.464  0.3106  0.4123 -0.1240
14033TIP3    H163514   2.102   1.949  10.440  0.4660  0.2654  0.6706
14033TIP3    H263515   1.998   2.042  10.381 -0.0159 -0.9819 -0.4860
14034TIP3   OH263516   5.481   5.919   1.745 -0.0919 -0.2146  0.0742
14034TIP3    H163517   5.395   5.886   1.717 -1.5361  0.5590  3.1401
14034TIP3    H263518   5.495   5.997   1.691 -1.6419  0.0012 -0.0744
14035TIP3   OH263519   2.954   5.253  14.183 -0.3322  0.0447  0.0728
14035TIP3    H163520   3.038   5.221  14.148 -1.2123 -0.8768 -1.2967
14035TIP3    H263521   2.897   5.176  14.182 -1.7166  1.0308 -0.7472
14036TIP3   OH263522   2.645   5.105  13.098 -0.6575 -0.3103 -0.3419
14036TIP3    H163523   2.589   5.104  13.021  0.7849  0.8548 -1.4712
14036TIP3    H263524   2.665   5.198  13.112 -0.4495 -0.5460  1.1160
14037TIP3   OH263525   5.356   0.851   0.214 -0.2659  0.2784  0.2209
14037TIP3    H163526   5.345   0.829   0.307 -2.6901  1.3387  0.2641
14037TIP3    H263527   5.394   0.939   0.215 -0.9988  0.6044  0.2524
14038TIP3   OH263528   4.194   6.111  13.629 -0.0539  0.4177  0.7591
14038TIP3    H163529   4.154   6.033  13.590  1.3982  0.4990 -0.9891
14038TIP3    H263530   4.120   6.159  13.667 -1.3192 -0.5355 -0.3842
14039TIP3   OH263531   1.231   1.965  16.638  0.2909 -0.1417 -0.0475
14039TIP3    H163532   1.166   1.936  16.702 -0.5937 -1.4672 -1.4683
14039TIP3    H263533   1.244   1.889  16.581  1.4692  0.8037 -1.1041
14040TIP3   OH263534   1.150   2.681   5.966 -0.0045  0.1446 -0.3232
14040TIP3    H163535   1.172   2.698   6.057  1.1833  0.5186 -0.6651
14040TIP3    H263536   1.178   2.591   5.951 -0.1251  0.1106 -0.3490
14041TIP3   OH263537   4.069   6.136  16.642  0.2241 -0.0837 -0.0501
14041TIP3    H163538   4.043   6.049  16.612 -1.2499  0.2498  0.2164
14041TIP3    H263539   3.991   6.172  16.683  1.5943  0.2244  2.5228
14042TIP3   OH263540   4.699   4.090  12.110 -0.0684  0.0912  0.4689
14042TIP3    H163541   4.730   4.179  12.094 -0.6080 -0.0885 -1.8916
14042TIP3    H263542   4.681   4.088  12.204  0.3991  2.3120  0.6684
14043TIP3   OH263543   3.244   3.277  13.687 -0.0967 -0.2307  0.5579
14043TIP3    H163544   3.164   3.309  13.645 -1.3382  1.0322  3.5929
14043TIP3    H263545   3.224   3.185  13.708 -0.5157 -0.0920  0.7783
14044TIP3   OH263546   2.231   6.708   6.272  0.2616  0.2873  0.2521
14044TIP3    H163547   2.282   6.643   6.321  0.3311  0.8796  0.9819
14044TIP3    H263548   2.188   6.658   6.203  0.8099 -0.4312  0.4234
14045TIP3   OH263549   1.824   4.595  13.221 -0.0568  0.1803  0.1936
14045TIP3    H163550   1.852   4.639  13.301 -1.8993  0.8941  0.4985
14045TIP3    H263551   1.772   4.661  13.175 -1.2359 -1.0642 -0.2994
14046TIP3   OH263552   4.140   5.145   6.496  0.1354 -0.3542 -0.1284
14046TIP3    H163553   4.151   5.156   6.402  0.2341  1.6490  0.0750
14046TIP3    H263554   4.184   5.062   6.516 -0.5738 -1.2149 -1.9295
14047TIP3   OH263555   0.951   1.186   3.839  0.0082  0.6947 -0.2031
14047TIP3    H163556   0.914   1.225   3.918  0.0854  1.0504 -0.3370
14047TIP3    H263557   0.879   1.139   3.798 -0.0581  0.6008  0.0236
14048TIP3   OH263558   3.926   6.477  12.708 -0.7223  0.0961 -0.3061
14048TIP3    H163559   3.920   6.501  12.616  1.2864  1.1232 -0.2287
14048TIP3    H263560   4.020   6.477  12.727 -1.0788 -0.1579  1.7209
14049TIP3   OH263561   3.285   5.258   2.259 -0.3427 -0.0199  0.4965
14049TIP3    H163562   3.303   5.169   2.229 -3.7488 -0.1125 -1.7762
14049TIP3    H263563   3.192   5.258   2.283 -0.2826  2.7471  1.1371
14050TIP3   OH263564   6.539   5.821   0.480 -0.1143 -0.7091 -0.5859
14050TIP3    H163565   6.527   5.909   0.444 -0.7184 -1.1816 -1.6090
14050TIP3    H263566   6.571   5.769   0.406  1.3992 -1.1052  0.3037
14051TIP3   OH263567   1.306   3.473   1.367  0.1261  0.3738  0.0831
14051TIP3    H163568   1.248   3.451   1.294  2.9186 -1.9769 -1.6908
14051TIP3    H263569   1.351   3.553   1.339 -0.3705  0.7224  0.2689
14052TIP3   OH263570   1.412   3.163   4.577 -0.0339 -0.0717  0.5999
14052TIP3    H163571   1.323   3.126   4.581  0.3113 -0.8163  2.1378
14052TIP3    H263572   1.451   3.141   4.661  1.3274  1.0199  0.2946
14053TIP3   OH263573   6.675   4.031   5.240 -0.5113  0.2498 -0.9195
14053TIP3    H163574   6.750   3.975   5.261 -0.4637 -0.6391 -3.1467
14053TIP3    H263575   6.599   3.975   5.253 -0.4884 -0.2709 -2.7489
14054TIP3   OH263576   2.068   5.781  12.470  0.1141  0.4324  0.3890
14054TIP3    H163577   1.981   5.755  12.501  0.2686 -1.9100 -0.9684
14054TIP3    H263578   2.050   5.844  12.400 -0.5139  0.0196  0.1646
14055TIP3   OH263579   4.263   4.775  13.788 -0.6240  0.1299  0.0665
14055TIP3    H163580   4.217   4.692  13.774  1.0526 -0.7209 -0.6313
14055TIP3    H263581   4.286   4.804  13.700  1.9968 -0.5562  0.4621
14056TIP3   OH263582   5.244   6.256  10.668  0.6912 -0.3139  0.2696
14056TIP3    H163583   5.265   6.251  10.575 -2.5879 -0.5421 -0.5723
14056TIP3    H263584   5.269   6.171  10.703  0.7471 -0.7183 -0.7207
14057TIP3   OH263585   5.298   2.683   4.777  0.0263 -0.1478 -0.2511
14057TIP3    H163586   5.389   2.672   4.750 -0.2235  0.1406 -1.2511
14057TIP3    H263587   5.272   2.596   4.808 -0.1111 -0.9351 -2.4050
14058TIP3   OH263588   5.435   2.966   5.313 -0.1313  0.4036  0.7069
14058TIP3    H163589   5.460   3.030   5.380 -1.7161  2.1086 -0.2396
14058TIP3    H263590   5.387   3.017   5.248 -1.3497 -1.7518 -0.1746
14059TIP3   OH263591   0.388   0.867   1.227 -0.2368  0.7398 -0.3875
14059TIP3    H163592   0.442   0.916   1.289  1.8077  1.9603 -2.9432
14059TIP3    H263593   0.322   0.930   1.198  0.5255  1.0954 -1.4264
14060TIP3   OH263594   1.339   3.038   2.363 -0.5455 -1.0853 -0.0478
14060TIP3    H163595   1.300   3.028   2.450 -1.0509 -1.6693 -0.3337
14060TIP3    H263596   1.275   3.090   2.314  0.1105 -0.0446  0.1537
14061TIP3   OH263597   4.440   4.423   2.540  0.4029 -0.0886 -0.1370
14061TIP3    H163598   4.410   4.339   2.576  0.9326 -0.0715  0.3554
14061TIP3    H263599   4.535   4.413   2.532  0.3828  0.1950 -0.8006
14062TIP3   OH263600   0.737   4.887  12.815 -0.1832 -0.9978 -0.0144
14062TIP3    H163601   0.683   4.951  12.768 -2.0814 -2.4279  0.1087
14062TIP3    H263602   0.769   4.828  12.747  0.0700 -0.9537  0.0686
14063TIP3   OH263603   4.625   6.120  12.851 -0.0829  0.5684  0.2422
14063TIP3    H163604   4.541   6.092  12.815 -0.8579  0.2732  2.1585
14063TIP3    H263605   4.602   6.187  12.916  1.2723  1.3476 -0.0452
14064TIP3   OH263606   0.673   3.629  13.986  0.0796 -0.1557 -0.2185
14064TIP3    H163607   0.646   3.590  14.069  0.2341 -0.1057 -0.1432
14064TIP3    H263608   0.751   3.680  14.008  0.0087  0.0128 -0.3594
14065TIP3   OH263609   1.384   5.177   4.042 -0.0532  1.0904  0.1146
14065TIP3    H163610   1.471   5.161   4.078 -0.2033  1.0655  0.4753
14065TIP3    H263611   1.394   5.163   3.948 -0.3796 -2.2869  0.4291
14066TIP3   OH263612   6.636   0.200   2.788 -0.0199  0.0785 -0.2839
14066TIP3    H163613   6.662   0.290   2.808 -0.7750  0.0889  0.7075
14066TIP3    H263614   6.685   0.146   2.850  0.9455 -0.2786 -1.3111
14067TIP3   OH263615   6.767   3.711  16.703  0.3980  0.1767  0.2029
14067TIP3    H163616   6.797   3.626  16.670 -1.5618 -0.8834  1.0001
14067TIP3    H263617   6.837   3.740  16.761  1.1183 -0.8921 -0.0981
14068TIP3   OH263618   5.686   6.572  15.331 -0.1526  0.2837 -0.0604
14068TIP3    H163619   5.701   6.575  15.425  0.2003  1.6208 -0.1422
14068TIP3    H263620   5.609   6.515  15.321  0.4209 -0.7131  0.9348
14069TIP3   OH263621   3.293   0.397   6.078  0.3586  0.5333  0.4718
14069TIP3    H163622   3.290   0.403   6.174 -0.9001  0.5610  0.4423
14069TIP3    H263623   3.204   0.419   6.050  0.3857 -0.7031 -0.6405
14070TIP3   OH263624   2.608   6.516  15.034  0.1073 -0.2073 -0.6167
14070TIP3    H163625   2.696   6.525  14.997  0.2769 -0.6178 -0.3299
14070TIP3    H263626   2.578   6.430  15.004  0.1599 -0.4478  0.0065
14071TIP3   OH263627   5.049   0.235   0.102 -0.0312 -0.3831  0.0605
14071TIP3    H163628   5.084   0.157   0.058  0.3073  0.1672 -0.6606
14071TIP3    H263629   4.958   0.212   0.121  0.9172 -2.2765  2.9953
14072TIP3   OH263630   5.800   0.844   4.272 -0.2403 -0.5048 -0.0430
14072TIP3    H163631   5.766   0.773   4.218 -0.0680  0.0096 -0.8544
14072TIP3    H263632   5.883   0.812   4.306 -0.1876 -0.7096 -0.3676
14073TIP3   OH263633   1.641   4.994   5.986 -0.4294 -0.4549 -0.6411
14073TIP3    H163634   1.659   5.062   6.050  1.8595 -1.6791  0.1415
14073TIP3    H263635   1.588   4.930   6.034 -1.4745  0.1214 -0.9912
14074TIP3   OH263636   2.562   5.207   1.711 -0.0549 -0.6346 -0.9589
14074TIP3    H163637   2.653   5.235   1.720  0.1680 -1.5723 -0.1013
14074TIP3    H263638   2.549   5.147   1.784 -1.4036 -0.4159 -1.0074
14075TIP3   OH263639   1.860   2.985  10.983 -0.1458 -0.2256  0.3003
14075TIP3    H163640   1.953   2.995  10.963  0.8292 -3.3650  2.3800
14075TIP3    H263641   1.825   2.935  10.910  0.3763 -0.9027  0.4981
14076TIP3   OH263642   4.974   5.902   5.691 -0.3949  0.6903 -0.3120
14076TIP3    H163643   5.047   5.964   5.678  1.0026 -0.9427 -0.6729
14076TIP3    H263644   5.016   5.823   5.724 -2.2389  0.1582  0.9022
14077TIP3   OH263645   3.583   6.691  16.196 -0.2059 -0.5573  0.0021
14077TIP3    H163646   3.676   6.696  16.218 -0.1827  0.5455 -0.2780
14077TIP3    H263647   3.553   6.782  16.199 -1.1416 -0.8381 -0.4702
14078TIP3   OH263648   1.071   5.994  15.532 -0.5596 -0.2496  0.1677
14078TIP3    H163649   1.145   5.972  15.588 -1.1095 -1.5554  0.4247
14078TIP3    H263650   1.044   5.910  15.493 -0.3932  0.5723 -1.8260
14079TIP3   OH263651   3.701   0.137  16.662 -0.3902  0.6403 -0.0265
14079TIP3    H163652   3.634   0.171  16.722 -0.7059  0.6551 -0.3851
14079TIP3    H263653   3.726   0.213  16.609  2.1135  1.4266  2.0809
14080TIP3   OH263654   4.851   3.136  13.804 -0.7158 -0.8027 -0.1939
14080TIP3    H163655   4.856   3.054  13.852  0.3672  1.6695  4.4155
14080TIP3    H263656   4.937   3.147  13.764 -0.7894 -1.6973 -0.6267
14081TIP3   OH263657   4.391   2.280  10.192  0.1417 -0.2027 -0.2696
14081TIP3    H163658   4.382   2.310  10.101  1.8854  2.1791  0.2496
14081TIP3    H263659   4.470   2.227  10.193  1.1886  1.3118  0.1503
14082TIP3   OH263660   5.755   6.228   0.401 -0.5318 -0.3330  0.3005
14082TIP3    H163661   5.692   6.238   0.473  0.8362 -0.1340  1.5117
14082TIP3    H263662   5.736   6.300   0.342  0.0664  1.1327  1.8384
14083TIP3   OH263663   3.543   0.043   0.929 -0.1874 -0.2716 -0.7026
14083TIP3    H163664   3.637   0.063   0.940 -0.6219  1.7076 -0.0108
14083TIP3    H263665   3.522  -0.015   1.002  0.1700  0.6920  0.2045
14084TIP3   OH263666   3.382   0.231  12.540 -0.0287 -0.0319  0.1793
14084TIP3    H163667   3.341   0.299  12.592 -1.6226  0.0885 -1.1552
14084TIP3    H263668   3.317   0.209  12.473  1.2596 -1.3899 -0.6976
14085TIP3   OH263669   0.252   5.568   0.485  0.2309 -0.7600  0.0797
14085TIP3    H163670   0.295   5.486   0.510  0.0667 -1.9055 -3.0156
14085TIP3    H263671   0.323   5.622   0.450  0.1770  0.1286  1.2585
14086TIP3   OH263672   5.871   6.003  11.753  0.0900 -0.1454  0.4365
14086TIP3    H163673   5.864   5.994  11.848 -0.8836  2.9944  0.7737
14086TIP3    H263674   5.783   5.983  11.720  0.7445 -2.5348 -0.0223
14087TIP3   OH263675   6.695   5.471  13.246 -0.0407  0.8214  0.0672
14087TIP3    H163676   6.641   5.408  13.294 -0.0245  1.2790  0.7013
14087TIP3    H263677   6.635   5.542  13.224 -0.3622  0.0297 -1.7624
14088TIP3   OH263678   1.412   6.403   3.242 -0.2520  0.3912  0.2789
14088TIP3    H163679   1.481   6.343   3.210 -0.0923  0.6439  0.1479
14088TIP3    H263680   1.459   6.467   3.295 -0.6122 -0.5199  1.7605
14089TIP3   OH263681   6.551   3.191  14.720 -0.7674  0.2752 -0.0692
14089TIP3    H163682   6.515   3.140  14.647  0.2582 -0.0643 -0.3500
14089TIP3    H263683   6.500   3.162  14.796  0.6184 -2.1917  0.0201
14090TIP3   OH263684   1.832   6.679   1.321  0.7270 -0.4565  0.1263
14090TIP3    H163685   1.843   6.748   1.386 -0.8581  0.5261 -0.5948
14090TIP3    H263686   1.887   6.706   1.248  0.3492 -0.1043 -0.0321
14091TIP3   OH263687   5.945   3.664  14.630 -0.3038  0.3663 -0.3338
14091TIP3    H163688   5.906   3.632  14.711 -0.0891  0.1680 -0.3072
14091TIP3    H263689   6.021   3.608  14.616 -0.2041  0.5506 -0.5477
14092TIP3   OH263690   4.426   1.494   4.243 -0.1988  0.3457  0.1648
14092TIP3    H163691   4.520   1.477   4.243 -0.1340  0.6557 -0.6615
14092TIP3    H263692   4.392   1.444   4.316  0.4093 -0.9447 -0.4136
14093TIP3   OH263693   5.899   2.510  11.948 -0.2188  0.2209  0.4162
14093TIP3    H163694   5.813   2.479  11.973 -0.2488 -0.2344 -0.2106
14093TIP3    H263695   5.884   2.560  11.868  0.2409 -0.9282 -0.4208
14094TIP3   OH263696   3.672   1.811  14.671  0.2297  0.4510  0.0501
14094TIP3    H163697   3.642   1.893  14.708  0.8644  0.4628  0.5391
14094TIP3    H263698   3.712   1.764  14.744  1.7788  0.6114 -0.6571
14095TIP3   OH263699   3.569   6.282   2.247  0.0578  0.0276 -0.5754
14095TIP3    H163700   3.556   6.203   2.195 -1.0314 -1.3564  1.6515
14095TIP3    H263701   3.495   6.337   2.227  0.8304  0.5362 -2.1577
14096TIP3   OH263702   2.275   3.432   0.277  0.6956 -0.6522 -0.4496
14096TIP3    H163703   2.228   3.405   0.355  1.9323  0.7424  0.8403
14096TIP3    H263704   2.285   3.527   0.287  0.8698 -0.4261 -2.3264
14097TIP3   OH263705   2.747   5.804  10.318 -0.2295  0.8986 -0.3306
14097TIP3    H163706   2.683   5.858  10.272 -0.5714 -0.1617 -1.1354
14097TIP3    H263707   2.744   5.720  10.273 -1.0858 -0.4516  2.0699
14098TIP3   OH263708   6.259   3.808  13.893  0.0102  0.0355  0.0819
14098TIP3    H163709   6.182   3.861  13.873 -0.4327 -0.1371  1.2476
14098TIP3    H263710   6.234   3.719  13.869 -0.5430 -0.1811  1.3509
14099TIP3   OH263711   0.110   4.585  15.434  0.1817  0.5251  0.3371
14099TIP3    H163712   0.155   4.523  15.376 -0.2214  1.2777 -0.8227
14099TIP3    H263713   0.029   4.541  15.458 -1.1508  1.3332 -2.2216
14100TIP3   OH263714   3.226   5.119   0.793  0.0112  0.3964 -0.2938
14100TIP3    H163715   3.193   5.085   0.710  0.9500  1.4331 -1.1276
14100TIP3    H263716   3.309   5.162   0.770 -0.1040  1.3999  1.0454
14101TIP3   OH263717   4.343   3.405   1.426  0.2517  0.3932  0.3253
14101TIP3    H163718   4.296   3.438   1.349 -0.1011 -1.5133 -0.3231
14101TIP3    H263719   4.421   3.461   1.432  0.7405  0.0543 -1.9502
14102TIP3   OH263720   3.403   3.161   5.630  0.7065 -0.3075  0.2695
14102TIP3    H163721   3.461   3.086   5.617  2.4878  0.3693  3.4292
14102TIP3    H263722   3.432   3.225   5.566  1.8473 -0.8596  0.2167
14103TIP3   OH263723   0.344   6.369   1.537  0.7305 -0.3817  0.1341
14103TIP3    H163724   0.376   6.394   1.624 -1.5569  1.6918  0.5035
14103TIP3    H263725   0.366   6.443   1.481 -2.2979  0.7267  0.2129
14104TIP3   OH263726   6.273   4.066  11.829 -0.6424 -0.2970  0.6453
14104TIP3    H163727   6.272   4.158  11.858  1.4751  0.7562 -2.1719
14104TIP3    H263728   6.365   4.043  11.827 -1.0603 -2.0369 -0.0879
14105TIP3   OH263729   6.295   4.977  11.690  0.4150  0.0025  0.1517
14105TIP3    H163730   6.243   4.994  11.612 -0.1965  0.9691  0.7471
14105TIP3    H263731   6.386   4.986  11.661  0.1747  1.6208 -0.1922
14106TIP3   OH263732   4.522   2.400   5.079  0.1216 -0.5848 -0.1858
14106TIP3    H163733   4.457   2.450   5.029  0.7253 -0.9426 -1.3840
14106TIP3    H263734   4.474   2.368   5.155 -0.5664  0.8568  0.0298
14107TIP3   OH263735   6.530   6.257   3.517 -0.6874 -0.2398  0.6170
14107TIP3    H163736   6.440   6.272   3.488 -0.7622 -0.3613  0.7833
14107TIP3    H263737   6.556   6.175   3.475 -0.8993 -0.5731  1.1211
14108TIP3   OH263738   4.718   2.465  10.305 -0.0254  0.5247  0.6879
14108TIP3    H163739   4.776   2.466  10.381  1.6168 -1.9617 -0.4027
14108TIP3    H263740   4.716   2.373  10.278 -0.9911  1.2313 -1.9563
14109TIP3   OH263741   6.097   0.872  15.959 -0.6103  0.4253  0.3896
14109TIP3    H163742   6.185   0.861  15.921 -0.4957 -0.2773  0.8618
14109TIP3    H263743   6.113   0.891  16.051 -0.9150  1.6136  0.2165
14110TIP3   OH263744   4.644   2.154  16.161 -0.2418 -0.2752  0.4251
14110TIP3    H163745   4.674   2.242  16.180 -1.0627  0.0606  0.2192
14110TIP3    H263746   4.657   2.105  16.242  0.6647 -0.0985  0.3960
14111TIP3   OH263747   6.215   2.606   1.179 -0.1691 -0.5017 -0.0643
14111TIP3    H163748   6.269   2.647   1.112  0.0937 -0.5886  0.0933
14111TIP3    H263749   6.151   2.673   1.202  1.3421  0.5135  1.4720
14112TIP3   OH263750   3.645   1.011  16.358  0.4340 -0.9308  0.1009
14112TIP3    H163751   3.585   1.085  16.364  1.4656  0.0668 -1.1937
14112TIP3    H263752   3.606   0.954  16.291 -0.5878 -1.8294  1.4076
14113TIP3   OH263753   2.983   2.876   0.280 -0.0838  0.6402  0.3138
14113TIP3    H163754   3.074   2.882   0.312  0.1579  0.8586 -0.3948
14113TIP3    H263755   2.958   2.785   0.296  0.1889  0.6298  0.7056
14114TIP3   OH263756   1.311   2.849   4.767  0.0313  0.5135 -0.3001
14114TIP3    H163757   1.339   2.793   4.839 -1.1109 -0.7717 -0.7998
14114TIP3    H263758   1.312   2.937   4.802  0.1197 -0.0216  1.0846
14115TIP3   OH263759   6.520   6.485   6.057 -0.9840  0.2868  0.3438
14115TIP3    H163760   6.465   6.561   6.078 -1.2705  0.2242 -0.1686
14115TIP3    H263761   6.598   6.522   6.017 -1.1567  0.3084  0.0251
14116TIP3   OH263762   6.240   0.302  13.133 -0.4195  0.1776 -0.7791
14116TIP3    H163763   6.228   0.387  13.089 -3.9662  1.2262  1.7391
14116TIP3    H263764   6.215   0.238  13.067  2.0681  0.9838 -2.6527
14117TIP3   OH263765   5.624   0.811  11.703  0.2292 -0.1652  0.7940
14117TIP3    H163766   5.667   0.893  11.680 -0.7677 -0.1915 -1.4373
14117TIP3    H263767   5.669   0.744  11.652 -2.6842 -0.0999 -2.1977
14118TIP3   OH263768   3.208   3.698  14.863 -0.3070  1.0302 -0.3210
14118TIP3    H163769   3.249   3.719  14.779 -2.1180  1.5496 -1.1247
14118TIP3    H263770   3.208   3.603  14.866 -0.6880  0.9927 -1.1633
14119TIP3   OH263771   4.460   1.711  14.879 -0.0238 -0.1639 -0.0322
14119TIP3    H163772   4.381   1.762  14.860 -0.0248 -0.5543 -1.1491
14119TIP3    H263773   4.511   1.766  14.938 -0.0615  1.1141 -1.1437
14120TIP3   OH263774   4.535   3.125  13.058 -0.3098 -0.2534 -0.3718
14120TIP3    H163775   4.522   3.043  13.011  1.4123 -0.2147 -1.0043
14120TIP3    H263776   4.498   3.192  13.002  0.9358 -0.3057 -1.2966
14121TIP3   OH263777   5.968   2.924  14.859 -0.4620  0.0616  0.5692
14121TIP3    H163778   6.036   2.985  14.886  2.3868 -2.7430  0.2649
14121TIP3    H263779   5.988   2.903  14.768 -0.8698 -1.7964  0.8576
14122TIP3   OH263780   1.616   5.842   1.907 -0.2063  0.7786 -0.0841
14122TIP3    H163781   1.616   5.749   1.933  1.1111  0.7007 -0.3037
14122TIP3    H263782   1.585   5.841   1.817  1.6278  0.3078 -0.7612
14123TIP3   OH263783   2.007   4.348  12.007  0.5419 -0.6142  0.1228
14123TIP3    H163784   1.971   4.414  11.949  0.2603 -1.3080 -0.5177
14123TIP3    H263785   2.011   4.390  12.092 -0.5444 -0.0858 -0.0673
14124TIP3   OH263786   5.917   6.488  13.089  0.0123  0.0802 -0.0817
14124TIP3    H163787   5.888   6.432  13.161 -0.2654 -0.4962 -0.6286
14124TIP3    H263788   5.915   6.431  13.013 -0.9769  1.0294 -0.7958
14125TIP3   OH263789   1.699   3.017  12.026  0.4099  0.0231 -0.1431
14125TIP3    H163790   1.746   3.016  12.109  1.2664  1.5421 -0.5656
14125TIP3    H263791   1.631   3.083  12.038 -0.4996 -0.8791 -0.1482
14126TIP3   OH263792   3.158   5.440   5.589  0.2657 -0.5511  0.0687
14126TIP3    H163793   3.220   5.412   5.522  1.9501 -1.1344  1.7692
14126TIP3    H263794   3.212   5.485   5.655 -1.4265  0.7221  0.6780
14127TIP3   OH263795   4.583   1.551  13.579  0.4053 -0.2681 -0.5324
14127TIP3    H163796   4.504   1.522  13.625 -0.8451 -0.1918 -2.5058
14127TIP3    H263797   4.581   1.502  13.497 -0.1482  3.0285 -2.6790
14128TIP3   OH263798   1.747   3.472  13.941  0.6452 -0.4208 -0.3518
14128TIP3    H163799   1.716   3.556  13.907 -0.7355  0.1879  2.1491
14128TIP3    H263800   1.677   3.410  13.920 -1.3590  0.4240  3.0258
14129TIP3   OH263801   0.212   4.656   3.173  0.6820 -0.3155 -0.0271
14129TIP3    H163802   0.296   4.681   3.212  0.6402 -0.5126  0.1958
14129TIP3    H263803   0.233   4.627   3.085  0.9605 -1.1568  0.3103
14130TIP3   OH263804   5.579   0.104   2.251  0.0007 -0.3385 -0.1183
14130TIP3    H163805   5.542   0.192   2.249  0.7631  0.0207  0.9980
14130TIP3    H263806   5.555   0.066   2.166 -0.6036  0.8263 -0.4819
14131TIP3   OH263807   6.305   6.276   0.210  0.0734  0.4125 -0.1019
14131TIP3    H163808   6.352   6.337   0.267 -0.1500  0.6660 -0.1907
14131TIP3    H263809   6.363   6.265   0.134  0.0651  0.5905 -0.1334
14132TIP3   OH263810   1.308   2.891   4.097  0.9911 -0.4332 -0.0355
14132TIP3    H163811   1.248   2.953   4.057  0.4038 -0.9537  0.0146
14132TIP3    H263812   1.389   2.898   4.046  0.5517 -0.4533 -0.7463
14133TIP3   OH263813   0.445   0.716   6.157 -1.1363  0.3549 -0.4162
14133TIP3    H163814   0.467   0.809   6.153 -1.7275  0.6461  1.7827
14133TIP3    H263815   0.382   0.710   6.229 -0.2989 -1.8971  0.1891
14134TIP3   OH263816   4.695   1.347  16.081  0.3659 -0.2874 -0.2297
14134TIP3    H163817   4.719   1.308  15.996 -2.6279  0.6516 -1.6270
14134TIP3    H263818   4.726   1.437  16.075  1.2890 -0.5552  0.2539
14135TIP3   OH263819   0.502   2.057   5.069  0.2768 -0.1860  0.1602
14135TIP3    H163820   0.465   2.105   4.995  1.3719  0.6509  0.1175
14135TIP3    H263821   0.455   1.974   5.071 -0.9092  0.4530 -0.4519
14136TIP3   OH263822   6.774   2.135   6.264  0.4304  0.2166 -0.2069
14136TIP3    H163823   6.756   2.203   6.199 -0.8183 -0.8440 -1.0245
14136TIP3    H263824   6.779   2.183   6.347  3.1309  1.7378 -1.1302
14137TIP3   OH263825   6.727   4.949  11.071 -0.0396  0.5161  0.0863
14137TIP3    H163826   6.760   5.039  11.080 -0.2978  0.7605 -1.2136
14137TIP3    H263827   6.806   4.895  11.076  0.0644  0.7495  1.4214
14138TIP3   OH263828   1.110   3.933  13.687 -0.3030 -0.0263 -0.4756
14138TIP3    H163829   1.200   3.900  13.688 -0.6392 -0.9860 -0.2721
14138TIP3    H263830   1.094   3.960  13.777  0.5342  2.3827 -0.9720
14139TIP3   OH263831   0.605   1.955  15.260  0.5526  0.5901 -0.0570
14139TIP3    H163832   0.647   1.932  15.343  0.7382  1.7859  0.2088
14139TIP3    H263833   0.582   1.871  15.220  1.9801 -0.0532  0.4122
14140TIP3   OH263834   6.309   2.592  11.510  0.3161  0.0179  0.3596
14140TIP3    H163835   6.352   2.512  11.539  0.3294 -0.9997 -2.2361
14140TIP3    H263836   6.372   2.662  11.530  1.6861 -1.0119 -0.2146
14141TIP3   OH263837   2.603   0.645  13.233  0.2207 -0.6188  0.5094
14141TIP3    H163838   2.514   0.661  13.265 -0.2659 -0.8428 -0.6813
14141TIP3    H263839   2.593   0.575  13.169  1.0637  0.2150 -0.5699
14142TIP3   OH263840   2.136   2.158   5.509  0.4442  0.0801  0.3351
14142TIP3    H163841   2.210   2.140   5.567 -0.8751  1.7330  2.7417
14142TIP3    H263842   2.089   2.075   5.504  1.4241 -0.4891  0.3255
14143TIP3   OH263843   2.514   5.225   4.385  0.0226 -0.3165  0.0415
14143TIP3    H163844   2.464   5.294   4.429  1.9651  0.8230  0.5800
14143TIP3    H263845   2.539   5.166   4.456  0.7827 -0.0132  0.0263
14144TIP3   OH263846   1.192   3.266   3.358  0.2228 -0.8221  0.2060
14144TIP3    H163847   1.223   3.328   3.424  3.5898  1.1698 -2.8645
14144TIP3    H263848   1.231   3.182   3.384 -1.0090 -0.8306  2.2374
14145TIP3   OH263849   2.526   5.525  13.920  0.1862  0.2134  0.1525
14145TIP3    H163850   2.440   5.517  13.880 -1.4996  0.4345  3.4780
14145TIP3    H263851   2.559   5.610  13.888 -1.1385  0.4718 -0.5787
14146TIP3   OH263852   4.203   2.396  13.708 -0.2987  0.8678 -1.0279
14146TIP3    H163853   4.170   2.433  13.626 -1.8522  0.8806 -0.4408
14146TIP3    H263854   4.156   2.445  13.776  0.4761  0.4127 -0.1403
14147TIP3   OH263855   2.584   3.021  14.665 -0.1117  0.1984 -0.0945
14147TIP3    H163856   2.621   2.933  14.664 -1.3178 -0.3490  0.9671
14147TIP3    H263857   2.497   3.011  14.627 -1.7055  0.1736  3.2541
14148TIP3   OH263858   3.368   0.535  11.488 -0.1716 -0.1559 -0.6181
14148TIP3    H163859   3.286   0.490  11.511  0.5101 -0.9461  0.3340
14148TIP3    H263860   3.339   0.617  11.448 -1.4357 -0.6551 -0.7824
14149TIP3   OH263861   5.086   2.801   0.880  0.0190 -0.7257 -0.5063
14149TIP3    H163862   5.159   2.775   0.822  0.5599 -0.3931  0.0192
14149TIP3    H263863   5.017   2.737   0.860  0.5039 -1.1414 -0.9085
14150TIP3   OH263864   2.384   0.588  11.252 -0.7489 -0.4814  0.2255
14150TIP3    H163865   2.465   0.537  11.251 -1.0212 -0.9614  1.1607
14150TIP3    H263866   2.399   0.659  11.190 -0.1685 -1.4176 -0.7409
14151TIP3   OH263867   5.831   0.230   3.827  0.8644 -0.4973 -0.3621
14151TIP3    H163868   5.776   0.307   3.831  0.4798 -0.7391 -0.9325
14151TIP3    H263869   5.774   0.158   3.854  0.3834 -1.0057 -2.5359
14152TIP3   OH263870   4.053   5.058   2.543  0.2858  0.0933  0.0670
14152TIP3    H163871   3.990   5.065   2.471  0.6722 -0.4565 -0.3329
14152TIP3    H263872   4.129   5.108   2.514  0.4248 -0.0954  0.0995
14153TIP3   OH263873   3.873   4.347  12.020 -0.1416  0.0487 -0.1175
14153TIP3    H163874   3.801   4.394  11.979 -0.6766  0.3523  1.1442
14153TIP3    H263875   3.841   4.324  12.107  0.2165 -2.3761 -0.5637
14154TIP3   OH263876   5.286   5.510   0.272 -0.3446  0.5558  0.0692
14154TIP3    H163877   5.233   5.436   0.241 -0.4884  1.0265 -0.8289
14154TIP3    H263878   5.360   5.514   0.211 -0.7481  1.6274 -0.3815
14155TIP3   OH263879   6.029   3.930  11.051 -0.2911 -0.4217 -0.0912
14155TIP3    H163880   6.121   3.928  11.075 -0.0878  0.5305 -0.7298
14155TIP3    H263881   6.029   3.927  10.955 -0.8994 -0.0362 -0.1110
14156TIP3   OH263882   5.658   5.715  10.558 -0.2615  0.2973 -0.5182
14156TIP3    H163883   5.719   5.644  10.578 -0.8880 -0.7484 -2.1476
14156TIP3    H263884   5.597   5.716  10.631  0.9995  0.5995  0.5705
14157TIP3   OH263885   4.884   4.402  14.893 -0.0486  0.2289  0.1100
14157TIP3    H163886   4.808   4.403  14.951 -0.2313 -0.0697 -0.1228
14157TIP3    H263887   4.959   4.390  14.952 -0.2130  0.1428  0.3033
14158TIP3   OH263888   3.258   0.564  12.357 -0.2616 -0.2901 -0.7890
14158TIP3    H163889   3.232   0.523  12.274  3.2143  0.1010 -2.2481
14158TIP3    H263890   3.253   0.658  12.341 -0.2127 -0.2027 -0.3179
14159TIP3   OH263891   0.626   0.767  11.165 -0.0353 -0.0458 -0.1478
14159TIP3    H163892   0.655   0.688  11.211 -0.9611  0.0457  0.6410
14159TIP3    H263893   0.561   0.736  11.102 -1.1683  0.1651  0.8725
14160TIP3   OH263894   3.007   4.954  14.370 -0.1082 -0.2176 -0.1586
14160TIP3    H163895   3.009   4.873  14.421  0.0665 -0.0505  0.1072
14160TIP3    H263896   3.087   4.951  14.317 -0.7181 -0.7907 -1.0617
14161TIP3   OH263897   0.958   3.577  13.805  0.0404 -0.3676  0.9943
14161TIP3    H163898   0.951   3.501  13.747  0.2014 -0.5870  1.2647
14161TIP3    H263899   0.961   3.541  13.893 -0.2436 -0.0312  1.1473
14162TIP3   OH263900   2.764   0.915  13.051  0.0624 -0.0097  0.3466
14162TIP3    H163901   2.805   0.987  13.098  0.1816 -0.5384  1.0727
14162TIP3    H263902   2.827   0.843  13.058 -0.7084 -0.6403  0.9371
14163TIP3   OH263903   5.653   1.599   1.807 -0.0979 -0.2443  0.3608
14163TIP3    H163904   5.730   1.543   1.819  0.6068  0.7927  0.8810
14163TIP3    H263905   5.579   1.540   1.820  0.6151 -1.0910  0.7662
14164TIP3   OH263906   5.633   5.152  16.133  0.4798 -0.2482 -0.1685
14164TIP3    H163907   5.683   5.183  16.209 -1.4937  0.9341  0.7478
14164TIP3    H263908   5.697   5.143  16.063  2.6277 -2.5909  1.8996
14165TIP3   OH263909   5.623   0.441  16.824 -0.3296 -0.5743 -0.3497
14165TIP3    H163910   5.598   0.494  16.748  0.7522  0.6416  0.1116
14165TIP3    H263911   5.677   0.371  16.788  2.2450  1.3741 -0.5162
14166TIP3   OH263912   3.496   3.840  12.254  0.1110  0.1311  0.4037
14166TIP3    H163913   3.554   3.807  12.323 -0.2687 -1.6987 -0.0834
14166TIP3    H263914   3.408   3.831  12.290  0.0346  2.2267  0.8669
14167TIP3   OH263915   0.729   2.272  15.215  0.0102 -0.1822 -0.0394
14167TIP3    H163916   0.718   2.179  15.231  0.3018  0.0809  1.9376
14167TIP3    H263917   0.684   2.288  15.132  2.0176 -2.4796 -1.7074
14168TIP3   OH263918   3.409   4.611  15.590 -0.3953  0.0208  0.3664
14168TIP3    H163919   3.376   4.620  15.500  0.0709  3.5951  0.3973
14168TIP3    H263920   3.334   4.634  15.644 -0.4903 -1.4878  0.9000
14169TIP3   OH263921   5.645   0.037  15.543  0.1006 -0.0042  0.1579
14169TIP3    H163922   5.692  -0.042  15.570 -1.1000 -0.5335  0.7921
14169TIP3    H263923   5.670   0.049  15.451  1.6792 -0.0807  0.5472
14170TIP3   OH263924   2.865   0.897  12.382  0.1422 -0.1184 -0.0007
14170TIP3    H163925   2.817   0.822  12.417 -0.3792  0.8755  1.5356
14170TIP3    H263926   2.957   0.878  12.400  0.4396 -1.9718 -2.8296
14171TIP3   OH263927   2.655   3.143  15.243 -0.3019 -0.2738 -0.2529
14171TIP3    H163928   2.703   3.171  15.321 -1.5241 -2.0529  1.2204
14171TIP3    H263929   2.599   3.217  15.220 -0.9684 -0.2156  1.4610
14172TIP3   OH263930   3.157   5.099  11.618 -0.0955 -0.2590  0.2933
14172TIP3    H163931   3.173   5.050  11.698 -0.2230 -2.7112 -1.0841
14172TIP3    H263932   3.244   5.120  11.585  0.0096 -0.9351  0.1232
14173TIP3   OH263933   2.638   3.217   3.322  0.1407 -0.2251 -0.3086
14173TIP3    H163934   2.704   3.241   3.257  0.1435  0.2117 -0.1455
14173TIP3    H263935   2.635   3.291   3.382  0.3062 -0.7270  0.3261
14174TIP3   OH263936   3.910   0.160  15.626 -0.1270  0.2823 -0.3009
14174TIP3    H163937   3.887   0.111  15.705 -0.1321 -0.1170 -0.5510
14174TIP3    H263938   3.883   0.250  15.646 -0.1299  0.1843  0.1523
14175TIP3   OH263939   4.273   0.116   4.215  0.1080 -0.6973 -0.8658
14175TIP3    H163940   4.191   0.093   4.171 -1.3756 -1.5227  2.0724
14175TIP3    H263941   4.308   0.032   4.245  1.0601 -0.1781 -0.4695
14176TIP3   OH263942   5.826   1.523   0.209 -0.5179 -0.5552 -0.1017
14176TIP3    H163943   5.791   1.556   0.292 -0.2354  0.3068 -0.3146
14176TIP3    H263944   5.749   1.505   0.156 -0.6933 -0.8226  0.2340
14177TIP3   OH263945   3.601   3.659  15.434  0.0142  0.1315  0.4066
14177TIP3    H163946   3.543   3.645  15.509  0.7090 -0.4827  0.8363
14177TIP3    H263947   3.640   3.745  15.450 -0.0462  0.1217  0.6124
14178TIP3   OH263948   1.105   2.367   0.953 -0.1573 -0.0875  0.5841
14178TIP3    H163949   1.016   2.335   0.941 -0.1992  0.4715 -0.7760
14178TIP3    H263950   1.112   2.386   1.047 -1.0115 -1.4270  0.9483
14179TIP3   OH263951   6.398   6.201  11.877  0.1622 -0.3410  0.2028
14179TIP3    H163952   6.336   6.255  11.925  0.6241  0.6327 -0.2775
14179TIP3    H263953   6.412   6.247  11.794 -0.5661 -1.9449 -0.8745
14180TIP3   OH263954   3.294   6.646   6.263  0.0849  0.0335 -0.1522
14180TIP3    H163955   3.276   6.740   6.267 -0.7508 -0.0345 -1.6348
14180TIP3    H263956   3.335   6.633   6.177 -0.5754 -1.0616 -0.3236
14181TIP3   OH263957   5.032   0.652   0.967 -0.5661  0.5412 -0.1425
14181TIP3    H163958   5.117   0.622   0.998 -1.5223 -0.6239  1.5059
14181TIP3    H263959   4.996   0.702   1.040 -2.3209 -1.1392  0.2323
14182TIP3   OH263960   0.475   0.154   2.753 -0.1577  0.1139 -0.3557
14182TIP3    H163961   0.564   0.167   2.722 -0.7165  3.9064 -0.8767
14182TIP3    H263962   0.427   0.119   2.678  0.5462 -0.5579 -0.5031
14183TIP3   OH263963   2.161   2.026   4.144 -0.3696 -0.8826  0.3745
14183TIP3    H163964   2.122   2.025   4.057  2.0841  0.9696 -0.8957
14183TIP3    H263965   2.221   1.951   4.144  0.7531 -0.0149 -0.1692
14184TIP3   OH263966   5.266   0.533  11.296  0.3557 -0.6912 -0.0716
14184TIP3    H163967   5.188   0.510  11.245  0.2575 -0.5988  0.0379
14184TIP3    H263968   5.264   0.476  11.372 -0.0848 -0.0798  0.3858
14185TIP3   OH263969   1.517   1.399  10.532  0.3212  0.3245  0.3728
14185TIP3    H163970   1.445   1.339  10.510  0.9654 -0.6043  0.7198
14185TIP3    H263971   1.497   1.479  10.484 -1.0304  0.1445  0.5878
14186TIP3   OH263972   2.103   2.394  12.718 -0.2271  0.2059  0.0358
14186TIP3    H163973   2.105   2.483  12.682  2.8272 -0.1821 -1.0693
14186TIP3    H263974   2.053   2.402  12.799 -1.0094  2.6595 -0.5997
14187TIP3   OH263975   6.284   0.305   0.144 -0.6301 -0.8941 -0.7444
14187TIP3    H163976   6.333   0.254   0.080  1.1651 -0.0010 -0.1403
14187TIP3    H263977   6.321   0.279   0.229 -3.3501 -2.5047  0.0880
14188TIP3   OH263978   4.271   0.253   2.328 -0.4126  0.1349  0.1338
14188TIP3    H163979   4.350   0.200   2.341  0.2710  0.4968 -2.0383
14188TIP3    H263980   4.208   0.220   2.392  2.0110  1.0271  3.2349
14189TIP3   OH263981   2.062   0.146  15.625  0.3467 -0.0763 -0.5163
14189TIP3    H163982   2.048   0.191  15.709 -0.5596 -2.3186  0.6022
14189TIP3    H263983   2.156   0.127  15.624  0.6515  1.3476 -0.7781
14190TIP3   OH263984   3.375   6.718  16.760  0.2161  0.1945 -0.3674
14190TIP3    H163985   3.458   6.712  16.807  0.4026 -0.8706 -0.8128
14190TIP3    H263986   3.331   6.635  16.779 -0.1571  0.1867 -1.2311
14191TIP3   OH263987   5.160   2.413   0.799 -0.1500  0.0687 -0.0266
14191TIP3    H163988   5.106   2.492   0.798 -1.2080 -0.6403  0.0808
14191TIP3    H263989   5.107   2.348   0.844  0.2841 -0.9950 -0.9989
14192TIP3   OH263990   0.756   6.746   2.967 -0.1440 -0.2030 -0.4129
14192TIP3    H163991   0.810   6.824   2.949 -0.8533  0.8912  1.7970
14192TIP3    H263992   0.819   6.674   2.968  0.5615  0.3086 -2.3518
14193TIP3   OH263993   1.912   5.424  11.817 -0.1535 -0.0711  0.1030
14193TIP3    H163994   1.830   5.375  11.807  1.0019 -2.1255  0.2326
14193TIP3    H263995   1.955   5.384  11.893  0.2957  2.0146  1.0155
14194TIP3   OH263996   1.036   3.360   5.890  0.2883  0.2446  0.0724
14194TIP3    H163997   0.996   3.366   5.976 -1.7854  1.0424 -0.8673
14194TIP3    H263998   0.974   3.309   5.838  0.3134  1.7353 -1.5282
14195TIP3   OH263999   0.303   5.961  15.166  0.0044 -0.4505 -0.1280
14195TIP3    H164000   0.369   5.906  15.125  0.5881  0.7699 -0.8708
14195TIP3    H264001   0.243   5.899  15.208  2.1368 -1.5680  1.4274
14196TIP3   OH264002   4.614   2.961   3.165  0.1153 -0.6177  0.4103
14196TIP3    H164003   4.675   2.909   3.112 -0.0324 -0.0111 -0.3658
14196TIP3    H264004   4.529   2.919   3.154 -0.3204  0.6385 -1.4710
14197TIP3   OH264005   4.323   1.313   4.443 -0.1948 -0.5254 -0.9584
14197TIP3    H164006   4.283   1.336   4.527 -0.2446  0.1639 -1.1597
14197TIP3    H264007   4.365   1.228   4.458 -0.4795 -0.5590 -0.3307
14198TIP3   OH264008   5.834   4.514  15.037  0.5896 -0.0522  0.2961
14198TIP3    H164009   5.891   4.522  14.960  0.0415 -0.7848 -0.2023
14198TIP3    H264010   5.894   4.511  15.111  1.1478  0.2740 -0.1297
14199TIP3   OH264011   2.001   5.256   3.790  0.0085 -0.5444 -0.3263
14199TIP3    H164012   2.018   5.163   3.773  1.5519 -0.3264 -0.1092
14199TIP3    H264013   2.009   5.265   3.885  1.5005  0.0869 -0.4903
14200TIP3   OH264014   1.537   6.389   4.324 -0.2484 -0.3055 -0.0368
14200TIP3    H164015   1.598   6.405   4.396 -0.6980 -1.2293  0.5728
14200TIP3    H264016   1.472   6.330   4.361 -1.1616  0.1538 -0.8607
14201TIP3   OH264017   0.703   6.691  14.050 -0.0635 -0.1733 -0.8100
14201TIP3    H164018   0.785   6.730  14.018 -1.0177  2.0704 -0.6748
14201TIP3    H264019   0.726   6.654  14.135  0.8264  0.4913 -0.7411
14202TIP3   OH264020   1.301   4.181   4.473  0.5376  0.6664 -0.0642
14202TIP3    H164021   1.207   4.171   4.464  0.4984  0.8470  0.1394
14202TIP3    H264022   1.316   4.275   4.466  1.0355  0.4587 -3.2559
14203TIP3   OH264023   5.376   5.046  11.490  0.2297  0.4843  0.0857
14203TIP3    H164024   5.417   5.112  11.546 -1.4026  2.1476 -0.5645
14203TIP3    H264025   5.292   5.086  11.464  0.7318 -0.3216 -3.2350
14204TIP3   OH264026   4.957   1.991   1.093 -0.6586  0.4632  0.1533
14204TIP3    H164027   5.007   1.929   1.147  0.1425 -1.5433 -2.6512
14204TIP3    H264028   4.870   1.953   1.088 -0.3612 -0.1218 -0.9864
14205TIP3   OH264029   1.172   6.140   4.598 -0.3653  0.3339 -0.1705
14205TIP3    H164030   1.158   6.070   4.535 -1.9129  0.1694  0.3066
14205TIP3    H264031   1.087   6.151   4.641  0.9043 -0.4700  2.8199
14206TIP3   OH264032   4.985   2.855   2.208 -0.2444  0.5281  0.1968
14206TIP3    H164033   4.957   2.921   2.145 -1.1662  0.3891  0.4430
14206TIP3    H264034   4.988   2.773   2.158 -0.0506  0.5844  0.1165
14207TIP3   OH264035   2.647   5.836   4.512  0.3294 -0.4453  0.0761
14207TIP3    H164036   2.687   5.914   4.473 -1.2706 -0.8204 -2.6141
14207TIP3    H264037   2.619   5.864   4.599  1.5037  1.3867 -0.0834
14208TIP3   OH264038   0.482   0.224   4.822  0.2217 -0.1213  0.4753
14208TIP3    H164039   0.565   0.177   4.822  0.3661  0.1282  0.7721
14208TIP3    H264040   0.428   0.178   4.758  0.4381 -0.5515  0.5984
14209TIP3   OH264041   5.389   4.717   4.575  0.3574 -0.0250 -0.2164
14209TIP3    H164042   5.457   4.672   4.624 -2.9006 -2.6016  2.4282
14209TIP3    H264043   5.324   4.650   4.556 -2.4987  2.5995 -0.5325
14210TIP3   OH264044   2.420   3.698   3.058 -0.6115  0.2487  0.4584
14210TIP3    H164045   2.380   3.637   3.121 -2.1167 -0.1112 -0.7743
14210TIP3    H264046   2.347   3.726   3.002  0.6515  0.5906 -1.0953
14211TIP3   OH264047   1.479   3.357   2.397 -0.0932 -0.1636 -0.0969
14211TIP3    H164048   1.429   3.355   2.479  0.6048  2.0704  0.4368
14211TIP3    H264049   1.432   3.420   2.342  2.2107  2.2337  0.5356
14212TIP3   OH264050   0.228   1.880  12.855 -0.0787  0.3560 -0.0322
14212TIP3    H164051   0.323   1.867  12.858 -0.3061 -1.6228  0.0121
14212TIP3    H264052   0.215   1.968  12.890  1.7626  0.8551 -0.4938
14213TIP3   OH264053   6.417   5.399   2.669 -0.2199 -0.0511  0.0111
14213TIP3    H164054   6.329   5.382   2.637 -0.0117  0.1162 -0.6726
14213TIP3    H264055   6.474   5.372   2.597  0.2746  0.0921  0.3445
14214TIP3   OH264056   6.291   5.663  12.236 -0.1624  0.7369  0.2039
14214TIP3    H164057   6.332   5.590  12.282  1.3268 -0.4747 -2.8105
14214TIP3    H264058   6.208   5.628  12.204  0.5519  0.3258 -1.2412
14215TIP3   OH264059   6.631   4.821   0.121 -0.0815  0.1378 -0.3971
14215TIP3    H164060   6.645   4.733   0.156 -1.5038 -0.4323 -1.1618
14215TIP3    H264061   6.706   4.872   0.152  1.0872 -1.4895 -0.4407
14216TIP3   OH264062   6.164   2.259   2.659  0.3477  0.4699  0.2873
14216TIP3    H164063   6.117   2.342   2.660 -1.6962 -0.6083  0.0272
14216TIP3    H264064   6.122   2.207   2.728 -1.0145 -1.6122 -1.9555
14217TIP3   OH264065   3.860   3.190   0.616 -0.4183 -0.9245  0.4802
14217TIP3    H164066   3.785   3.249   0.617  1.1904  1.2910 -0.0010
14217TIP3    H264067   3.908   3.214   0.536  3.2272  1.1573  2.9730
14218TIP3   OH264068   3.843   4.044   5.686  0.3108  0.1565  0.1480
14218TIP3    H164069   3.902   3.969   5.677 -1.4328 -1.5461  1.9788
14218TIP3    H264070   3.770   4.024   5.627 -0.3438  0.2188  0.9237
14219TIP3   OH264071   2.208   3.766  14.136 -0.2586  0.5810 -0.3720
14219TIP3    H164072   2.202   3.853  14.176 -0.1985  1.8188 -2.8656
14219TIP3    H264073   2.240   3.782  14.047  2.1005 -2.2240 -0.2050
14220TIP3   OH264074   2.643   4.971   1.016 -0.8934 -0.6171  0.3164
14220TIP3    H164075   2.590   4.974   0.936 -0.3638 -0.5081 -0.0363
14220TIP3    H264076   2.579   4.974   1.087 -1.3933 -1.1945 -0.1041
14221TIP3   OH264077   2.714   0.034   1.088 -0.1884  0.0104 -0.4834
14221TIP3    H164078   2.637   0.019   1.143  1.0716  0.3220  1.4559
14221TIP3    H264079   2.768   0.094   1.138  2.2389 -1.7311 -0.8331
14222TIP3   OH264080   6.682   4.204   4.310 -0.4323 -0.1052 -0.5863
14222TIP3    H164081   6.641   4.275   4.359  1.7068 -0.0543  1.2628
14222TIP3    H264082   6.741   4.247   4.249 -1.0918 -0.2615 -1.3607
14223TIP3   OH264083   0.273   0.284  16.030  0.2046  0.0746 -0.4668
14223TIP3    H164084   0.249   0.377  16.026  0.9304  0.3483  0.8039
14223TIP3    H264085   0.190   0.237  16.035 -0.1472  0.7596  0.3190
14224TIP3   OH264086   1.087   6.008  16.109  0.5565 -0.0626  0.3787
14224TIP3    H164087   1.052   5.969  16.189 -0.6473 -0.0103 -0.0953
14224TIP3    H264088   1.101   5.934  16.051  1.2704 -0.0830  0.5648
14225TIP3   OH264089   5.882   5.550  11.860  0.1636 -0.1847 -0.0802
14225TIP3    H164090   5.884   5.495  11.781  0.9649  1.0132 -0.9447
14225TIP3    H264091   5.932   5.628  11.835  2.7652 -0.8867  2.4738
14226TIP3   OH264092   6.200   0.849   1.367  0.0016 -0.2799  0.0939
14226TIP3    H164093   6.215   0.764   1.407 -0.6982 -0.0982  0.7544
14226TIP3    H264094   6.199   0.831   1.273 -0.8868 -1.1314  0.2517
14227TIP3   OH264095   2.422   4.517   5.935 -0.1587 -0.9031  0.1261
14227TIP3    H164096   2.455   4.532   5.847 -0.1120  0.9189  0.4285
14227TIP3    H264097   2.492   4.547   5.993 -1.6145  1.5468  0.7672
14228TIP3   OH264098   1.990   0.699   4.810 -0.0735 -0.1415  0.1156
14228TIP3    H164099   1.911   0.736   4.850  1.0899  1.9436  0.5909
14228TIP3    H264100   1.969   0.694   4.716 -0.7872  0.3222  0.2408
14229TIP3   OH264101   0.207   4.483  14.379  0.2526  0.4615  0.2782
14229TIP3    H164102   0.115   4.511  14.374 -0.1049 -0.4132  1.4477
14229TIP3    H264103   0.250   4.530  14.308 -1.2306  0.3767 -0.7296
14230TIP3   OH264104   6.740   5.854  15.918 -0.1146 -0.1249  0.2682
14230TIP3    H164105   6.686   5.933  15.922 -0.6273 -0.5174  2.1585
14230TIP3    H264106   6.829   5.885  15.934 -0.0760  0.2651 -0.6806
14231TIP3   OH264107   0.969   6.190  12.260  0.4686 -0.3207  0.5194
14231TIP3    H164108   0.902   6.244  12.217  1.8587  0.9210 -0.1614
14231TIP3    H264109   0.969   6.108  12.209  1.2889  0.6843 -1.2005
14232TIP3   OH264110   6.504   5.504  12.725 -0.2449  0.3540 -0.2526
14232TIP3    H164111   6.451   5.556  12.787  0.3849  0.3377  0.3129
14232TIP3    H264112   6.482   5.540  12.639  0.7411  2.1061  0.1802
14233TIP3   OH264113   3.426   6.081   3.909 -0.1091 -0.5240 -0.1269
14233TIP3    H164114   3.344   6.113   3.947  0.6152  1.8108 -0.3976
14233TIP3    H264115   3.448   6.146   3.843  2.8053 -0.1547  1.0690
14234TIP3   OH264116   1.446   5.645  15.486  0.2850  0.0315  0.2894
14234TIP3    H164117   1.500   5.581  15.534  0.6126  0.7980  0.9710
14234TIP3    H264118   1.508   5.691  15.430 -0.0781 -0.7689 -0.8158
14235TIP3   OH264119   3.499   4.493  16.851  0.0468  0.6453  0.4982
14235TIP3    H164120   3.482   4.479  16.944 -0.9580  0.1011  0.2524
14235TIP3    H264121   3.449   4.424  16.807  0.2279  1.1098 -0.4596
14236TIP3   OH264122   4.185   6.024  10.985  0.1513  0.0042 -0.2813
14236TIP3    H164123   4.205   6.109  10.945 -1.0474  0.2807 -0.3208
14236TIP3    H264124   4.121   5.985  10.926 -0.3003 -0.3546  0.4417
14237TIP3   OH264125   5.795   3.444  10.365  0.0389 -0.1555 -0.1059
14237TIP3    H164126   5.747   3.391  10.300  0.4301 -0.0718 -0.4686
14237TIP3    H264127   5.798   3.532  10.327  0.9979 -0.2920 -0.3751
14238TIP3   OH264128   5.695   3.053   2.718 -0.4405 -0.0775  0.1095
14238TIP3    H164129   5.761   2.987   2.739 -0.7195 -0.0217  1.2022
14238TIP3    H264130   5.634   3.008   2.659 -0.0815 -0.4962  0.0543
14239TIP3   OH264131   3.517   1.170  14.165  0.3479  0.0501  0.7524
14239TIP3    H164132   3.427   1.192  14.187 -0.3696 -1.4723 -0.4918
14239TIP3    H264133   3.536   1.223  14.087 -0.5152 -1.7312 -0.7318
14240TIP3   OH264134   2.595   4.574  11.221  0.1943 -0.1208 -0.0264
14240TIP3    H164135   2.538   4.608  11.153 -1.4220 -0.2532  1.2091
14240TIP3    H264136   2.549   4.498  11.255  0.8427  0.0950  1.3945
14241TIP3   OH264137   6.343   2.220   3.501  0.5681  0.1494  0.4945
14241TIP3    H164138   6.395   2.241   3.423 -0.7801 -0.0997 -0.5121
14241TIP3    H264139   6.408   2.204   3.570  1.8948 -1.6488 -1.0692
14242TIP3   OH264140   5.062   6.073   2.894  0.6408 -0.8762  0.0913
14242TIP3    H164141   5.068   5.979   2.912  2.4898 -1.0261 -1.0275
14242TIP3    H264142   5.112   6.085   2.813 -0.5284  0.9179 -0.4335
14243TIP3   OH264143   4.664   0.913  14.445  0.0961  0.4541  0.5827
14243TIP3    H164144   4.701   0.980  14.502 -0.0971  0.1954  1.0189
14243TIP3    H264145   4.576   0.897  14.479 -0.3172  0.8359 -0.2538
14244TIP3   OH264146   3.500   3.616   1.536  0.7897  0.2240 -0.3943
14244TIP3    H164147   3.466   3.640   1.622  1.5490 -1.7234  0.4992
14244TIP3    H264148   3.429   3.638   1.475 -0.6901 -0.5394  0.9983
14245TIP3   OH264149   5.394   3.565  12.161 -0.5385  0.4013 -0.6022
14245TIP3    H164150   5.422   3.505  12.092 -0.8602  0.1601 -0.5247
14245TIP3    H264151   5.431   3.650  12.135 -0.0596  0.1671 -0.6961
14246TIP3   OH264152   1.730   6.612   1.639 -0.2101 -0.2898 -0.2477
14246TIP3    H164153   1.734   6.565   1.723 -2.2463  0.3843  0.3047
14246TIP3    H264154   1.679   6.554   1.582 -1.2545  0.4550 -0.1005
14247TIP3   OH264155   1.555   2.278   5.241  0.1106  0.3504  0.2238
14247TIP3    H164156   1.468   2.254   5.208  1.4145 -1.1305 -2.4226
14247TIP3    H264157   1.582   2.202   5.293 -0.8241  1.5707  2.6593
14248TIP3   OH264158   3.403   1.448  13.967 -0.6624 -0.2277 -0.2647
14248TIP3    H164159   3.347   1.396  13.910 -2.2899  0.5570  0.5578
14248TIP3    H264160   3.397   1.537  13.931  2.7706 -0.6173 -2.1879
14249TIP3   OH264161   1.704   1.245  12.920 -0.0162 -0.2488  0.8733
14249TIP3    H164162   1.792   1.282  12.931 -0.1446  0.4797 -0.3286
14249TIP3    H264163   1.699   1.176  12.985  1.5145 -0.4181  0.8538
14250TIP3   OH264164   5.593   5.922   5.804 -0.4174  0.2646  0.4120
14250TIP3    H164165   5.528   5.969   5.856 -0.3663  1.0258 -0.2097
14250TIP3    H264166   5.626   5.854   5.864 -0.9387  0.6106  1.1078
14251TIP3   OH264167   5.807   5.397  15.196 -0.6366  0.1309  0.0278
14251TIP3    H164168   5.713   5.411  15.207 -0.9332  0.5499 -2.5900
14251TIP3    H264169   5.842   5.483  15.175  0.4976  0.0996  1.5768
14252TIP3   OH264170   2.213   0.089   0.063 -0.4805  0.0968  0.1249
14252TIP3    H164171   2.179   0.088   0.153 -0.2250 -1.3176  0.2426
14252TIP3    H264172   2.166   0.018   0.020  1.6018 -1.3370  0.0412
14253TIP3   OH264173   4.305   0.159  11.216 -0.1009 -0.5594 -0.1851
14253TIP3    H164174   4.211   0.166  11.198 -0.4416 -1.9980  0.9025
14253TIP3    H264175   4.313   0.180  11.309  0.3343 -2.6253  0.2813
14254TIP3   OH264176   2.937   1.905   5.741 -0.4969  0.2052 -0.0845
14254TIP3    H164177   2.852   1.896   5.700 -1.4397  1.6243  1.4216
14254TIP3    H264178   2.946   1.828   5.797 -0.0683 -0.7291 -1.3914
14255TIP3   OH264179   4.589   0.445  11.726  0.5904 -0.4091  0.4925
14255TIP3    H164180   4.610   0.368  11.674 -2.3300 -0.8113 -0.3078
14255TIP3    H264181   4.579   0.516  11.662  0.4968 -0.0372  0.9089
14256TIP3   OH264182   2.627   5.272   4.086  0.3400 -0.0364 -0.0954
14256TIP3    H164183   2.613   5.240   4.175 -1.4629  1.5438  0.2431
14256TIP3    H264184   2.722   5.265   4.073  0.3987 -2.5676  1.0070
14257TIP3   OH264185   6.632   2.964   2.710  0.2727  0.2370  0.3666
14257TIP3    H164186   6.564   3.025   2.740  0.8233  0.7563  0.5724
14257TIP3    H264187   6.583   2.892   2.669 -0.3691  1.3423 -0.9006
14258TIP3   OH264188   0.622   1.082  15.117  0.1254  0.3162  0.4186
14258TIP3    H164189   0.563   1.145  15.078 -2.1526 -2.3212 -0.7404
14258TIP3    H264190   0.594   0.997  15.082  1.7820 -1.5935  3.2543
14259TIP3   OH264191   6.283   2.237  15.463  0.4264 -0.0792 -0.4747
14259TIP3    H164192   6.317   2.197  15.383 -0.6184  1.6640 -1.8605
14259TIP3    H264193   6.199   2.194  15.478  1.1384 -1.2285  0.4014
14260TIP3   OH264194   6.427   2.716  12.012  0.0841 -0.0463  0.0723
14260TIP3    H164195   6.390   2.682  11.931  0.8436 -1.3395  0.2354
14260TIP3    H264196   6.453   2.637  12.061  2.5567  0.7483  0.1717
14261TIP3   OH264197   2.478   0.180  10.631  0.7998  0.1718  0.1665
14261TIP3    H164198   2.410   0.116  10.651  1.3122 -2.0487 -4.0087
14261TIP3    H264199   2.533   0.183  10.710 -1.1577 -1.9553  1.7221
14262TIP3   OH264200   5.026   1.852  13.106  0.5905 -0.9645 -0.3789
14262TIP3    H164201   4.980   1.864  13.022 -0.2656  0.8627  0.2985
14262TIP3    H264202   4.973   1.788  13.153 -0.8729  0.4652  0.0359
14263TIP3   OH264203   3.306   2.579  12.749  0.3138  0.0811  0.6025
14263TIP3    H164204   3.338   2.623  12.671  0.7671  1.2125  1.3948
14263TIP3    H264205   3.298   2.648  12.814  1.0730 -1.0037  1.9144
14264TIP3   OH264206   0.962   1.294   4.600  0.1023 -0.0798  0.8312
14264TIP3    H164207   1.057   1.302   4.610  0.0267  1.5726  0.4547
14264TIP3    H264208   0.929   1.383   4.609 -1.2942 -0.4350 -0.4313
14265TIP3   OH264209   2.599   4.755  15.626  0.1475  0.0499 -0.4208
14265TIP3    H164210   2.613   4.675  15.676 -0.5333 -0.0196 -0.3348
14265TIP3    H264211   2.659   4.747  15.551 -0.6595 -1.0331 -0.9777
14266TIP3   OH264212   5.659   4.693  10.292  0.6070 -0.2444 -0.2276
14266TIP3    H164213   5.681   4.662  10.380  0.8797 -1.7976 -0.8070
14266TIP3    H264214   5.744   4.702  10.248  0.4279 -0.3242 -0.5934
14267TIP3   OH264215   6.104   5.543   4.352  0.2171 -0.0444  0.1518
14267TIP3    H164216   6.063   5.601   4.288  0.1750 -0.9390 -0.6462
14267TIP3    H264217   6.197   5.543   4.328  0.1024 -0.8882 -0.3325
14268TIP3   OH264218   4.810   5.838   5.088 -0.4983  0.6034 -0.7168
14268TIP3    H164219   4.826   5.864   5.179  1.2193 -0.5108 -0.6606
14268TIP3    H264220   4.725   5.796   5.090 -0.2824  0.1959  0.4723
14269TIP3   OH264221   4.949   3.565  16.774  0.0395  0.0445  0.3385
14269TIP3    H164222   4.941   3.582  16.680  0.2571  0.3423  0.3716
14269TIP3    H264223   4.983   3.476  16.779 -0.6572 -0.2313  0.1544
14270TIP3   OH264224   2.533   1.068  14.347 -0.5321 -0.4131  0.1995
14270TIP3    H164225   2.624   1.041  14.349 -0.4388 -0.0701  1.1100
14270TIP3    H264226   2.484   0.989  14.368 -0.5947 -1.0649 -2.0887
14271TIP3   OH264227   4.284   3.608   2.729  0.0807  0.4135  0.5951
14271TIP3    H164228   4.278   3.520   2.691  0.7160 -0.0356  1.5024
14271TIP3    H264229   4.326   3.595   2.814  0.8476  1.6855  0.4318
14272TIP3   OH264230   0.629   0.029   5.110 -0.1667  0.1589 -0.1315
14272TIP3    H164231   0.616   0.097   5.177  3.1378 -0.6498  1.5468
14272TIP3    H264232   0.677   0.073   5.040 -0.6357  0.2265 -0.4112
14273TIP3   OH264233   3.279   4.808  15.967 -0.1673  0.0109 -0.5349
14273TIP3    H164234   3.339   4.767  16.029  0.9557  1.0715 -0.8898
14273TIP3    H264235   3.244   4.883  16.016  0.5688  0.7326 -1.0918
14274TIP3   OH264236   2.582   5.969   6.004  0.9201 -0.4181 -0.3682
14274TIP3    H164237   2.637   6.011   6.071  0.4517 -2.1185  1.1639
14274TIP3    H264238   2.644   5.926   5.946  1.4690  2.8642 -2.4564
14275TIP3   OH264239   0.094   2.585   1.158  0.1488  0.1225 -0.2639
14275TIP3    H164240   0.186   2.591   1.129 -0.0207  0.1178 -0.8189
14275TIP3    H264241   0.091   2.638   1.238  0.1345  2.1291 -1.5227
14276TIP3   OH264242   5.290   0.697   0.015 -0.2786  0.3385 -0.2197
14276TIP3    H164243   5.370   0.646  -0.001 -0.6705 -1.2197  2.1681
14276TIP3    H264244   5.317   0.763   0.079 -0.4670  1.2497 -1.0507
14277TIP3   OH264245   1.728   6.721  10.394 -0.2120 -0.6750  0.2536
14277TIP3    H164246   1.777   6.775  10.456  2.1609 -1.4489 -0.8377
14277TIP3    H264247   1.727   6.772  10.313 -0.9799 -0.8033  0.1739
14278TIP3   OH264248   1.485   4.559  16.311 -0.0670  0.1394  0.1161
14278TIP3    H164249   1.401   4.604  16.311 -1.1132 -1.6358 -1.4856
14278TIP3    H264250   1.545   4.619  16.265 -0.2795  1.6205  1.6880
14279TIP3   OH264251   2.380   6.529  14.592  0.2931  0.0329 -0.7894
14279TIP3    H164252   2.457   6.543  14.537  0.7948 -0.1484 -0.1502
14279TIP3    H264253   2.410   6.548  14.681 -0.5344  0.4366 -0.5795
14280TIP3   OH264254   6.311   5.952  14.856 -0.2514 -0.7105 -0.6399
14280TIP3    H164255   6.384   5.972  14.798  0.2770 -2.8794 -0.7744
14280TIP3    H264256   6.233   5.960  14.801  0.0822 -0.7633 -1.1268
14281TIP3   OH264257   5.068   6.374   5.715  0.3930  0.4639 -0.4534
14281TIP3    H164258   5.001   6.436   5.742  0.6259  0.3421  0.4401
14281TIP3    H264259   5.146   6.428   5.700  0.3686  0.4836 -0.5105
14282TIP3   OH264260   3.022   5.231   6.132  0.1202  0.0229  0.1305
14282TIP3    H164261   3.102   5.203   6.177 -0.6318 -1.6016  0.5064
14282TIP3    H264262   2.959   5.245   6.203 -0.3234 -0.0465 -0.2494
14283TIP3   OH264263   0.510   3.849   3.546 -0.2703 -0.2197 -0.6882
14283TIP3    H164264   0.585   3.792   3.531 -0.0674 -0.2594  0.3972
14283TIP3    H264265   0.531   3.895   3.628 -1.6704 -0.6382 -0.0701
14284TIP3   OH264266   2.042   3.804   2.641  0.5955  0.0611  0.1168
14284TIP3    H164267   1.957   3.797   2.685  1.0081 -0.4632  0.8442
14284TIP3    H264268   2.025   3.774   2.552  0.2935 -1.3836  0.6339
14285TIP3   OH264269   3.735   5.671   1.572 -0.3187 -0.2316  0.0956
14285TIP3    H164270   3.752   5.701   1.483 -0.3792 -0.6854 -0.0738
14285TIP3    H264271   3.662   5.724   1.602 -1.4550 -1.2527 -0.7626
14286TIP3   OH264272   3.619   1.158  14.793  0.7795 -0.1537  0.0730
14286TIP3    H164273   3.649   1.075  14.757  0.2595 -0.0072 -0.7319
14286TIP3    H264274   3.572   1.135  14.873  0.0381 -0.7108 -0.5135
14287TIP3   OH264275   0.974   6.667  16.410 -0.0746 -0.3947 -0.2243
14287TIP3    H164276   1.036   6.611  16.457 -0.1062  0.4938  0.9498
14287TIP3    H264277   0.975   6.749  16.460  0.0632  0.6978 -1.9530
14288TIP3   OH264278   0.111   4.001   3.152  0.0084 -0.2364 -0.4162
14288TIP3    H164279   0.096   3.982   3.245  2.0167  2.3048  0.5440
14288TIP3    H264280   0.029   4.040   3.122 -0.4044 -0.3818  0.4800
14289TIP3   OH264281   2.366   0.321   1.132 -0.1808  0.0883  0.3974
14289TIP3    H164282   2.432   0.376   1.175 -1.3860  0.5212  1.7690
14289TIP3    H264283   2.390   0.232   1.155  0.7759  0.1457 -0.3579
14290TIP3   OH264284   3.876   1.075  12.148 -0.0224  0.5038  0.1708
14290TIP3    H164285   3.825   1.124  12.083  2.6483  2.5597 -0.5455
14290TIP3    H264286   3.955   1.127  12.161  2.6209 -3.1063  0.1759
14291TIP3   OH264287   1.022   5.110   4.009 -0.4877  0.1890  0.3257
14291TIP3    H164288   1.014   5.028   3.959  1.6994  0.6381 -0.8980
14291TIP3    H264289   1.069   5.085   4.088 -0.4674  0.1474  0.3008
14292TIP3   OH264290   3.259   2.822  14.960  0.4801 -0.2229 -0.1850
14292TIP3    H164291   3.217   2.904  14.934  2.3265  0.1081 -2.4632
14292TIP3    H264292   3.340   2.820  14.909  1.8042 -2.2024  1.8121
14293TIP3   OH264293   4.826   1.953   4.573  0.2765 -0.2789  0.5233
14293TIP3    H164294   4.846   1.912   4.658 -0.3930 -1.6333  0.0653
14293TIP3    H264295   4.893   1.919   4.514 -0.6859 -1.3267 -0.0166
14294TIP3   OH264296   0.873   3.902  15.268 -0.4318  0.0311  0.3086
14294TIP3    H164297   0.918   3.885  15.185  0.9555  2.0603  0.5782
14294TIP3    H264298   0.810   3.971  15.249 -1.1208 -0.4871  0.6575
14295TIP3   OH264299   5.327   4.838   0.172  0.1870 -0.1431 -0.5130
14295TIP3    H164300   5.361   4.920   0.208 -1.5346  0.5118 -0.2554
14295TIP3    H264301   5.235   4.837   0.199  0.1863 -2.2002 -0.4718
14296TIP3   OH264302   6.683   3.345   0.667  0.1270 -0.5789 -0.3103
14296TIP3    H164303   6.599   3.384   0.688 -0.4065 -0.2696 -2.7221
14296TIP3    H264304   6.741   3.374   0.738 -1.6551 -0.4729  1.1829
14297TIP3   OH264305   0.015   1.531  10.345  0.6611 -0.2320  0.0978
14297TIP3    H164306  -0.046   1.585  10.295 -0.1754 -0.5698  0.7434
14297TIP3    H264307   0.037   1.459  10.287 -0.3893 -0.6786  0.2397
14298TIP3   OH264308   5.501   3.253   2.472 -0.0964 -0.0330 -0.4571
14298TIP3    H164309   5.580   3.225   2.427 -0.2883  1.1113 -1.5673
14298TIP3    H264310   5.456   3.171   2.495  0.3368 -0.6699 -1.7816
14299TIP3   OH264311   0.788   1.531  12.049 -0.0676 -0.4159 -0.6704
14299TIP3    H164312   0.875   1.561  12.022 -0.7645  0.4736 -2.0795
14299TIP3    H264313   0.787   1.438  12.025  0.8921 -0.7488  0.4826
14300TIP3   OH264314   1.387   5.469   5.231 -0.1587 -0.4167 -1.0544
14300TIP3    H164315   1.361   5.400   5.291 -0.7882 -0.1810 -1.0408
14300TIP3    H264316   1.409   5.543   5.288 -1.8813  0.1944 -1.1011
14301TIP3   OH264317   4.548   5.796  15.193  0.3842 -0.4999 -0.4262
14301TIP3    H164318   4.595   5.801  15.276  2.4408 -2.0613 -1.4077
14301TIP3    H264319   4.569   5.877  15.148 -2.0341  1.1096  1.1121
14302TIP3   OH264320   3.234   0.096   3.568  0.1371  0.5940 -0.2230
14302TIP3    H164321   3.230   0.040   3.490  0.8108  2.7943 -1.9230
14302TIP3    H264322   3.327   0.117   3.578  0.0184  0.6110  1.0068
14303TIP3   OH264323   1.340   1.466   5.366  0.0450  0.0380 -0.0623
14303TIP3    H164324   1.419   1.497   5.322 -0.5453  0.2596 -0.9852
14303TIP3    H264325   1.326   1.531   5.436  0.8184 -0.1543  0.2870
14304TIP3   OH264326   2.742   2.877   3.053  1.0269 -0.1317  0.0186
14304TIP3    H164327   2.816   2.838   3.007  0.6777 -0.0287 -0.6382
14304TIP3    H264328   2.666   2.850   3.002  0.8448  2.2770 -1.1064
14305TIP3   OH264329   6.582   1.281   4.313 -0.1047  0.5223 -0.4289
14305TIP3    H164330   6.548   1.370   4.307 -1.0900  0.0675 -2.2936
14305TIP3    H264331   6.660   1.281   4.258  2.2830  1.1850  2.7000
14306TIP3   OH264332   6.051   5.353   2.839  0.4370  0.1507  0.1475
14306TIP3    H164333   6.100   5.379   2.917  1.5382 -2.1598  0.3130
14306TIP3    H264334   6.117   5.351   2.769 -0.2435  0.7785 -0.5304
14307TIP3   OH264335   3.805   0.573  15.528 -0.2235 -0.7914 -0.2825
14307TIP3    H164336   3.732   0.632  15.544 -1.2951 -2.0057 -0.5752
14307TIP3    H264337   3.798   0.551  15.435  1.1733 -0.1027 -0.5967
14308TIP3   OH264338   3.588   2.981  13.138 -0.3533 -0.3048  0.3751
14308TIP3    H164339   3.555   3.059  13.092  1.7098  0.6836  0.4255
14308TIP3    H264340   3.530   2.971  13.213 -1.8300 -0.0025 -0.6719
14309TIP3   OH264341   0.173   5.802   3.671 -0.2646 -0.4946 -0.4171
14309TIP3    H164342   0.170   5.711   3.700  2.7427  0.0422  2.2100
14309TIP3    H264343   0.257   5.810   3.625 -1.0473  0.7164 -1.6992
14310TIP3   OH264344   3.486   5.351  14.306 -0.6176 -0.0846  0.3177
14310TIP3    H164345   3.438   5.433  14.293 -0.4255 -0.1212 -0.6792
14310TIP3    H264346   3.574   5.370  14.275 -0.6763 -0.7787 -0.2997
14311TIP3   OH264347   0.772   2.889   3.644 -0.3122  0.2381 -0.1958
14311TIP3    H164348   0.816   2.843   3.716 -2.4437 -0.3667  0.7973
14311TIP3    H264349   0.835   2.885   3.572  0.5631 -2.1874  0.5694
14312TIP3   OH264350   0.418   2.994   1.500  0.0912 -0.0323 -0.5570
14312TIP3    H164351   0.513   2.984   1.513  0.5059  1.5990 -1.9443
14312TIP3    H264352   0.398   2.938   1.426  0.4301  1.2553 -1.6650
14313TIP3   OH264353   3.151   0.087  14.744  0.3942  0.4416 -0.1264
14313TIP3    H164354   3.119   0.078  14.834  0.3739 -1.6635 -0.2818
14313TIP3    H264355   3.230   0.032  14.743  0.3777  0.4281 -1.3903
14314TIP3   OH264356   6.533   1.259  15.236  0.2783 -0.2709 -0.1181
14314TIP3    H164357   6.510   1.182  15.184 -2.1698 -0.0656  0.5168
14314TIP3    H264358   6.567   1.322  15.172 -0.2211 -0.9370 -1.0586
14315TIP3   OH264359   6.777   0.088  11.549  0.6037 -0.1415  0.0276
14315TIP3    H164360   6.720   0.105  11.474  1.7779 -1.1909 -1.1544
14315TIP3    H264361   6.719   0.057  11.618 -0.6596  1.9553 -0.0230
14316TIP3   OH264362   5.161   0.148  12.122 -0.0455 -0.7238  0.1349
14316TIP3    H164363   5.067   0.162  12.129  0.2930  1.2860  1.2288
14316TIP3    H264364   5.182   0.087  12.192 -0.1853  0.8459  1.5869
14317TIP3   OH264365   5.442   0.008   1.310 -0.5709 -0.2005 -0.3753
14317TIP3    H164366   5.361  -0.024   1.269 -1.4637  1.0919  0.2899
14317TIP3    H264367   5.483   0.063   1.243  0.0369 -1.2438 -0.8852
14318TIP3   OH264368   4.163   5.758  14.847 -0.2731 -0.5941  1.0176
14318TIP3    H164369   4.194   5.820  14.781 -0.4475 -1.2177  0.3451
14318TIP3    H264370   4.067   5.766  14.845 -0.2603 -0.2707  1.5330
14319TIP3   OH264371   3.609   6.318  13.301 -0.0869  0.7127 -0.0490
14319TIP3    H164372   3.635   6.370  13.225  0.8318 -0.3459 -0.4829
14319TIP3    H264373   3.655   6.358  13.375 -0.4593  1.3348 -0.1477
14320TIP3   OH264374   0.591   2.820  15.931 -0.2060 -0.1573 -0.1275
14320TIP3    H164375   0.631   2.734  15.939  1.3246  0.2992 -2.0136
14320TIP3    H264376   0.611   2.848  15.841  0.6591  2.7757  0.8511
14321TIP3   OH264377   2.859   6.732   1.816  0.3667 -0.0796 -0.1215
14321TIP3    H164378   2.830   6.683   1.893  0.1561 -0.6935 -0.5902
14321TIP3    H264379   2.944   6.694   1.795  0.1020 -0.4008 -0.6208
14322TIP3   OH264380   5.919   0.431  10.425 -0.3276  0.1560  0.0962
14322TIP3    H164381   6.013   0.416  10.438 -0.3962 -0.2973  0.0978
14322TIP3    H264382   5.881   0.343  10.424 -0.6972  0.3162 -0.3345
14323TIP3   OH264383   4.593   0.530  14.565  0.2495  0.0694 -0.0861
14323TIP3    H164384   4.603   0.579  14.483  0.1202  0.9529  0.4183
14323TIP3    H264385   4.588   0.597  14.633 -2.3980 -0.5299  0.3920
14324TIP3   OH264386   4.601   3.103  16.973  0.2425 -0.0824 -0.4186
14324TIP3    H164387   4.645   3.038  16.919 -1.2700 -0.5723 -1.1075
14324TIP3    H264388   4.518   3.120  16.928  0.4391  2.0864 -0.0977
14325TIP3   OH264389   1.702   3.673   2.477  0.1511  0.3494 -0.7404
14325TIP3    H164390   1.755   3.744   2.441  1.6142 -0.9361 -1.2339
14325TIP3    H264391   1.628   3.665   2.417 -0.2916  1.7329 -0.4163
14326TIP3   OH264392   6.547   6.456  11.453  0.4267 -0.1317  0.3949
14326TIP3    H164393   6.471   6.397  11.448 -0.7369  1.4069 -1.6101
14326TIP3    H264394   6.617   6.407  11.410  0.3606 -1.2028  1.4392
14327TIP3   OH264395   2.137   2.001   6.445  0.5075 -0.2251  0.3018
14327TIP3    H164396   2.211   2.036   6.494 -0.2238  0.0320  1.2773
14327TIP3    H264397   2.075   2.074   6.441  0.4012 -0.3568 -0.7195
14328TIP3   OH264398   2.233   1.043   4.422  0.3078  1.1283  0.0408
14328TIP3    H164399   2.279   1.127   4.411 -0.6235  1.4637 -1.6419
14328TIP3    H264400   2.177   1.036   4.345  1.2229 -1.6116 -0.4868
14329TIP3   OH264401   3.251   3.811  12.928  0.6726  0.1051 -0.2352
14329TIP3    H164402   3.295   3.818  13.013 -0.2680 -1.8019  0.4720
14329TIP3    H264403   3.157   3.813  12.949  0.3862  2.1923 -1.5156
14330TIP3   OH264404   6.157   5.940   0.223 -0.3768 -0.4486  0.2072
14330TIP3    H164405   6.207   5.949   0.142 -1.8804 -0.5841 -0.7722
14330TIP3    H264406   6.173   5.850   0.252  0.5622 -0.2478  0.3627
14331TIP3   OH264407   6.191   4.354   0.849 -0.6048  0.3031  0.3786
14331TIP3    H164408   6.185   4.326   0.757 -0.2738  1.3240  0.0224
14331TIP3    H264409   6.101   4.349   0.881 -0.6607 -0.4405  0.1218
14332TIP3   OH264410   4.750   1.628  16.717 -0.1010  0.6830  0.0658
14332TIP3    H164411   4.785   1.576  16.646 -2.9353 -0.0712 -0.9341
14332TIP3    H264412   4.660   1.597  16.727 -1.8467  4.9930 -0.2453
14333TIP3   OH264413   2.570   0.418   0.130 -0.2537 -0.2272  0.6803
14333TIP3    H164414   2.617   0.447   0.051  1.4607  0.3339  1.8397
14333TIP3    H264415   2.537   0.332   0.108  0.8523 -0.4020 -0.4250
14334TIP3   OH264416   6.479   0.084   4.103 -0.1142  0.4453 -0.1970
14334TIP3    H164417   6.525   0.149   4.157  0.1179  0.5979 -0.5745
14334TIP3    H264418   6.434   0.028   4.167 -0.0896  0.8041  0.1431
14335TIP3   OH264419   2.657   0.113  15.382 -0.6260  0.0565 -0.2594
14335TIP3    H164420   2.709   0.046  15.426 -1.2935  0.1661  0.7211
14335TIP3    H264421   2.567   0.091  15.404 -0.9248  0.5980 -0.9108
14336TIP3   OH264422   4.808   0.368   1.788 -0.4193 -0.3465  0.4051
14336TIP3    H164423   4.823   0.279   1.820 -0.4403 -0.0798  1.1904
14336TIP3    H264424   4.820   0.423   1.866  1.2412  0.4986 -0.3885
14337TIP3   OH264425   4.333   2.357   0.834 -0.0163  0.3181  0.2493
14337TIP3    H164426   4.293   2.410   0.902 -1.9267 -0.5873 -0.1069
14337TIP3    H264427   4.282   2.375   0.755  1.6152  0.7023 -0.7846
14338TIP3   OH264428   2.994   5.892  10.403 -0.9297  0.3055 -0.2513
14338TIP3    H164429   2.901   5.880  10.383 -0.9052 -1.4100  0.4850
14338TIP3    H264430   3.040   5.850  10.330 -0.7911 -1.1318  0.6263
14339TIP3   OH264431   1.954   1.517   5.258  0.2190  0.1378 -0.1979
14339TIP3    H164432   1.859   1.514   5.269  0.4856 -1.0841  2.3535
14339TIP3    H264433   1.978   1.605   5.287 -0.1050  0.4703 -0.9017
14340TIP3   OH264434   5.739   4.200   6.565 -0.2801 -1.0278 -0.2418
14340TIP3    H164435   5.691   4.207   6.482  0.0861 -2.0574 -0.5648
14340TIP3    H264436   5.713   4.115   6.600  0.6772 -1.2348 -0.0158
14341TIP3   OH264437   3.768   0.668   2.148  0.0522  0.1062  0.6077
14341TIP3    H164438   3.689   0.616   2.136  0.0519 -0.0433  1.2114
14341TIP3    H264439   3.741   0.740   2.206  0.3270  0.1250  0.7164
14342TIP3   OH264440   5.004   4.663  13.601 -0.2089  0.4136 -0.3759
14342TIP3    H164441   5.052   4.725  13.656 -0.4949 -0.8608  1.4066
14342TIP3    H264442   5.054   4.660  13.520  2.4838 -0.4373  1.1859
14343TIP3   OH264443   4.785   0.291   3.675 -0.0958 -0.2494 -0.6583
14343TIP3    H164444   4.846   0.327   3.740  0.3597 -0.2323 -1.0851
14343TIP3    H264445   4.738   0.222   3.722 -1.4168  1.2707  0.3483
14344TIP3   OH264446   0.840   1.856   3.718  0.5205  0.7140  0.2598
14344TIP3    H164447   0.816   1.766   3.693  1.2942  0.8798 -1.1866
14344TIP3    H264448   0.933   1.862   3.697  0.0371  2.4752 -1.6781
14345TIP3   OH264449   0.943   2.656   0.347 -0.4946 -0.1831 -0.8811
14345TIP3    H164450   1.022   2.604   0.329 -0.4548 -1.3045  1.9711
14345TIP3    H264451   0.886   2.641   0.271  0.8595 -1.7108 -1.6620
14346TIP3   OH264452   1.401   3.800  16.598 -0.3113  0.5442 -0.4830
14346TIP3    H164453   1.427   3.853  16.674  0.3246 -0.2415 -0.1308
14346TIP3    H264454   1.479   3.747  16.579 -1.0948 -0.6306 -0.4857
14347TIP3   OH264455   4.495   2.839  12.960  0.6825  0.0818 -0.1976
14347TIP3    H164456   4.433   2.783  13.006 -1.3556  0.6800 -2.0402
14347TIP3    H264457   4.486   2.814  12.868  1.0375  2.1955 -0.8629
14348TIP3   OH264458   4.712   3.025   5.933  0.1907 -0.0382  0.3166
14348TIP3    H164459   4.669   3.105   5.965  1.0027  0.0502  1.1958
14348TIP3    H264460   4.705   3.032   5.837  1.2274  1.6443  0.3328
14349TIP3   OH264461   0.344   1.525  11.936  0.1961 -0.2732 -0.0327
14349TIP3    H164462   0.271   1.464  11.931 -0.2115 -0.1991  3.1932
14349TIP3    H264463   0.309   1.600  11.984  1.5038  1.2840 -1.3809
14350TIP3   OH264464   2.942   5.094  15.016 -0.5157  0.0689  0.2940
14350TIP3    H164465   2.992   5.055  14.944 -1.0385  0.4042 -0.2640
14350TIP3    H264466   3.007   5.142  15.067 -0.2616  0.4832 -0.4066
14351TIP3   OH264467   2.181   6.102   0.952 -0.1158 -0.4217  0.1126
14351TIP3    H164468   2.197   6.008   0.944  0.3117 -0.4000  0.6334
14351TIP3    H264469   2.157   6.114   1.044 -1.1219 -0.1557 -0.1765
14352TIP3   OH264470   2.935   5.816  14.621 -0.1160 -0.0397  0.2485
14352TIP3    H164471   3.016   5.766  14.612  0.2617  0.5671  0.2440
14352TIP3    H264472   2.896   5.784  14.702 -0.0228 -0.5395  0.1017
14353TIP3   OH264473   1.278   0.828  11.230 -0.5879 -0.0498  0.1793
14353TIP3    H164474   1.224   0.752  11.209 -0.2486  0.1504 -1.5738
14353TIP3    H264475   1.297   0.819  11.323 -1.3012 -1.6121  0.2086
14354TIP3   OH264476   6.666   0.019   1.285 -0.1266  0.6935 -0.0582
14354TIP3    H164477   6.735   0.054   1.229 -0.9929  2.1214 -0.2791
14354TIP3    H264478   6.675   0.066   1.368 -0.0943  0.0173  0.3355
14355TIP3   OH264479   4.238   1.414   3.474  0.5465  0.0838 -0.5921
14355TIP3    H164480   4.295   1.379   3.542 -0.8737 -1.1613  0.0124
14355TIP3    H264481   4.276   1.384   3.392  1.1616 -0.0881 -0.2491
14356TIP3   OH264482   0.218   3.431  10.910 -0.3393  0.1532  0.2119
14356TIP3    H164483   0.206   3.339  10.887 -2.1704  0.7148 -1.3139
14356TIP3    H264484   0.309   3.450  10.886 -0.1690 -1.0524 -0.1756
14357TIP3   OH264485   1.144   0.071   6.252  0.2682 -0.7651 -0.1137
14357TIP3    H164486   1.144   0.166   6.262  1.5925 -0.3986 -2.7377
14357TIP3    H264487   1.088   0.039   6.323 -0.4814  1.9726  0.6326
14358TIP3   OH264488   0.602   2.592  14.910 -0.2051  0.2265  0.0395
14358TIP3    H164489   0.528   2.649  14.889 -0.1899  0.1883 -0.1208
14358TIP3    H264490   0.578   2.550  14.993 -1.1520 -1.1422 -0.8896
14359TIP3   OH264491   5.238   4.907  13.175  0.5503  0.4058 -0.0014
14359TIP3    H164492   5.238   4.861  13.091 -2.2347 -0.5866  0.4366
14359TIP3    H264493   5.321   4.955  13.176  1.0656 -0.2186 -2.9225
14360TIP3   OH264494   2.944   2.044  15.169 -0.2524 -0.3474 -0.0881
14360TIP3    H164495   2.848   2.047  15.166 -0.2724 -0.1322  0.7028
14360TIP3    H264496   2.972   2.110  15.105 -0.5647 -3.7092 -4.1409
14361TIP3   OH264497   1.380   1.804   4.752 -0.2770  0.4315 -0.1109
14361TIP3    H164498   1.420   1.722   4.723  0.0019  1.3071 -2.4218
14361TIP3    H264499   1.352   1.786   4.842  0.8876 -1.7754 -0.1063
14362TIP3   OH264500   5.979   3.890   5.821  0.7657 -0.3725  0.7026
14362TIP3    H164501   6.007   3.955   5.757  1.8318  0.0521  1.5554
14362TIP3    H264502   5.916   3.936   5.877  1.7830  0.0727  1.5222
14363TIP3   OH264503   6.589   5.435   5.350  0.1447 -0.2485  0.0581
14363TIP3    H164504   6.576   5.378   5.426  2.1391 -0.4786  0.2863
14363TIP3    H264505   6.635   5.380   5.286  0.2142  0.4917 -0.5467
14364TIP3   OH264506   1.806   1.010  16.034  0.2820 -0.9600 -0.2882
14364TIP3    H164507   1.889   0.999  16.079  0.2245  0.8021  0.3526
14364TIP3    H264508   1.780   0.922  16.008  1.8891 -1.6420  0.3075
14365TIP3   OH264509   2.395   1.595   1.517  0.3558 -0.5842 -0.2815
14365TIP3    H164510   2.464   1.530   1.504  0.2698 -0.8805  0.6774
14365TIP3    H264511   2.330   1.574   1.450  0.8760 -0.7254 -0.7562
14366TIP3   OH264512   4.393   0.756   5.993 -0.3163 -0.3098  0.2305
14366TIP3    H164513   4.309   0.796   5.971  0.2907  1.1509  0.3941
14366TIP3    H264514   4.372   0.688   6.057 -1.6354 -1.7702 -1.6724
14367TIP3   OH264515   3.813   0.364  15.769 -0.2141  0.1420  0.0572
14367TIP3    H164516   3.768   0.445  15.743 -0.5254 -0.0315  0.0591
14367TIP3    H264517   3.863   0.388  15.847  0.8446  0.7129 -0.7594
14368TIP3   OH264518   2.408   3.781  11.969  0.0666  0.2507  0.2524
14368TIP3    H164519   2.387   3.699  11.924  1.0397  0.7008 -1.0872
14368TIP3    H264520   2.323   3.822  11.984 -0.3247 -0.1601 -0.7390
14369TIP3   OH264521   5.006   4.604  11.616 -0.4005  0.3161  0.4672
14369TIP3    H164522   4.918   4.572  11.594  0.2007 -0.8869 -0.3094
14369TIP3    H264523   5.065   4.539  11.578  0.9150  2.3060 -1.1072
14370TIP3   OH264524   6.284   6.258  13.624 -0.1318  0.0333  0.3633
14370TIP3    H164525   6.237   6.270  13.707  1.0486  1.0340  0.9299
14370TIP3    H264526   6.270   6.339  13.577 -1.7858 -0.9725 -1.0017
14371TIP3   OH264527   4.892   1.090  12.707  0.5183  0.1193 -0.6337
14371TIP3    H164528   4.841   1.074  12.628  0.5790  1.8977 -1.0705
14371TIP3    H264529   4.828   1.120  12.771  0.9216  2.0508 -1.0873
14372TIP3   OH264530   5.725   5.126   5.444 -0.4283 -0.3058  0.4093
14372TIP3    H164531   5.643   5.100   5.486  0.7414 -3.7001  0.8338
14372TIP3    H264532   5.785   5.142   5.517  0.9423 -3.9487  0.2702
14373TIP3   OH264533   2.475   1.843  13.907 -0.0473  0.0663 -0.0530
14373TIP3    H164534   2.404   1.881  13.855 -0.3554  0.1312  0.4185
14373TIP3    H264535   2.547   1.833  13.844 -0.9094 -1.2924 -0.8686
14374TIP3   OH264536   4.945   6.379   3.921  0.2429  0.4079  0.3271
14374TIP3    H164537   5.022   6.326   3.941  0.0835 -0.9875 -2.2759
14374TIP3    H264538   4.960   6.408   3.831 -2.6438 -0.6802 -0.5977
14375TIP3   OH264539   5.553   5.757   4.717  0.3300 -0.6583  0.0524
14375TIP3    H164540   5.640   5.743   4.680  0.6662 -0.0068  0.5728
14375TIP3    H264541   5.542   5.688   4.781  0.0224 -1.3791 -0.7524
14376TIP3   OH264542   4.484   1.831   5.818  0.2993 -0.2371  0.9228
14376TIP3    H164543   4.509   1.885   5.743  1.0877 -0.7909  0.7709
14376TIP3    H264544   4.394   1.858   5.838  1.1655  2.2638  1.8683
14377TIP3   OH264545   5.562   4.775  12.133 -0.5207  0.3442  0.4461
14377TIP3    H164546   5.568   4.761  12.227 -3.1142  0.4044  0.6893
14377TIP3    H264547   5.583   4.690  12.094  0.1773  0.2184  1.0756
14378TIP3   OH264548   2.544   1.097   2.878  0.1017  0.4758 -0.0362
14378TIP3    H164549   2.520   1.109   2.786  0.3187 -0.6942 -0.2584
14378TIP3    H264550   2.639   1.084   2.877 -0.2523 -2.9618 -0.0751
14379TIP3   OH264551   6.255   1.136   1.493 -0.0065 -0.1537  0.1089
14379TIP3    H164552   6.170   1.115   1.455  0.4006  0.6801 -1.3169
14379TIP3    H264553   6.253   1.094   1.580 -2.0804  0.3500  0.3575
14380TIP3   OH264554   3.125   2.572   3.675  0.8795  0.1808  0.2390
14380TIP3    H164555   3.103   2.485   3.708 -1.1759 -0.1522 -1.7946
14380TIP3    H264556   3.117   2.629   3.752 -1.7827 -0.8547  0.8447
14381TIP3   OH264557   4.786   6.686   4.799  0.4918  0.0352 -0.3516
14381TIP3    H164558   4.823   6.769   4.831 -0.5525  0.0458  0.9115
14381TIP3    H264559   4.707   6.673   4.852 -0.0317 -1.1585 -1.3795
14382TIP3   OH264560   5.374   4.312  12.532 -0.4906  0.6182 -0.3438
14382TIP3    H164561   5.403   4.340  12.445  1.0726  0.1880 -0.0025
14382TIP3    H264562   5.330   4.228  12.518  0.0614  0.3816 -0.6981
14383TIP3   OH264563   6.036   5.943  13.618 -0.0772  0.2810  0.1908
14383TIP3    H164564   5.941   5.942  13.607 -0.0781  0.3153  0.1962
14383TIP3    H264565   6.058   5.852  13.639 -0.1301  0.3081  0.3677
14384TIP3   OH264566   5.407   3.639   0.428  0.1369  1.0753  0.1230
14384TIP3    H164567   5.474   3.676   0.485  0.1440 -0.0189  0.8541
14384TIP3    H264568   5.324   3.669   0.466  0.1741  1.5201 -0.1381
14385TIP3   OH264569   1.164   2.237  13.637 -0.1281 -0.1780 -0.0022
14385TIP3    H164570   1.131   2.150  13.659 -0.4725  0.1545  0.8506
14385TIP3    H264571   1.168   2.238  13.541  1.4568 -1.7025 -0.0096
14386TIP3   OH264572   5.283   6.802  10.296  0.1934  0.1477  0.5174
14386TIP3    H164573   5.335   6.812  10.216  0.3633 -0.5117  0.5410
14386TIP3    H264574   5.334   6.740  10.350 -0.1060  0.2961  0.9752
14387TIP3   OH264575   1.538   2.859   3.572 -0.3141 -0.3802  0.4376
14387TIP3    H164576   1.453   2.828   3.541 -0.0205 -1.3441  0.5635
14387TIP3    H264577   1.517   2.918   3.644 -0.8597 -1.0779  0.8637
14388TIP3   OH264578   2.788   4.797   4.736  0.1938 -0.1744 -0.3456
14388TIP3    H164579   2.801   4.784   4.642  1.0040 -0.4175 -0.2106
14388TIP3    H264580   2.856   4.859   4.762 -0.0667 -0.0535  0.0714
14389TIP3   OH264581   1.305   5.337   6.435  0.0860  0.2180 -0.2365
14389TIP3    H164582   1.212   5.325   6.416  0.3063 -2.4702  0.0041
14389TIP3    H264583   1.321   5.430   6.422 -2.5941  0.7070 -0.4429
14390TIP3   OH264584   0.279   0.289   5.093 -0.3386  0.1891 -0.4548
14390TIP3    H164585   0.185   0.304   5.079 -0.2314 -0.9762 -2.9591
14390TIP3    H264586   0.292   0.196   5.073  1.5754  0.7036 -1.9144
14391TIP3   OH264587   1.815   3.559   3.812 -0.0376  0.1955  0.7395
14391TIP3    H164588   1.723   3.538   3.796 -0.2546  0.2308  1.8560
14391TIP3    H264589   1.826   3.547   3.907  1.5856 -1.7154  0.3779
14392TIP3   OH264590   4.385   2.226   5.279 -0.2877  0.5894 -0.5479
14392TIP3    H164591   4.432   2.144   5.264  0.0970  0.9288 -1.2686
14392TIP3    H264592   4.296   2.209   5.247 -0.6346 -0.0065  0.6823
14393TIP3   OH264593   6.533   5.470   4.757  0.1726  0.6554  0.8185
14393TIP3    H164594   6.593   5.543   4.750  0.2364  0.6775  1.5510
14393TIP3    H264595   6.475   5.492   4.830 -0.4485  0.4323  0.4114
14394TIP3   OH264596   5.621   4.892   5.555  0.0445 -0.0086 -0.1649
14394TIP3    H164597   5.712   4.863   5.554  0.1498  0.3144 -1.3731
14394TIP3    H264598   5.602   4.910   5.648  1.8130  1.8045 -0.1124
14395TIP3   OH264599   2.774   2.758   1.212 -0.2000 -0.7983 -0.1458
14395TIP3    H164600   2.816   2.777   1.296 -2.4600 -0.9633  1.0863
14395TIP3    H264601   2.809   2.673   1.186 -1.1803 -1.8755  1.8399
14396TIP3   OH264602   5.112   0.312   6.108 -0.4980 -0.1152  0.0385
14396TIP3    H164603   5.097   0.251   6.035 -0.1136  1.6059 -1.5523
14396TIP3    H264604   5.103   0.399   6.069  4.9165  1.0902  0.6378
14397TIP3   OH264605   3.521   4.542  14.189 -0.5795  0.1721 -0.1982
14397TIP3    H164606   3.450   4.511  14.246 -0.1507 -0.2667  0.1067
14397TIP3    H264607   3.601   4.529  14.241 -0.3388  1.3794 -0.2373
14398TIP3   OH264608   5.264   1.955   3.252 -0.0840 -0.5465  0.0017
14398TIP3    H164609   5.196   1.891   3.273  0.3049 -1.7586 -2.1478
14398TIP3    H264610   5.344   1.904   3.246  0.8030  0.6393  1.0324
14399TIP3   OH264611   3.336   5.296  13.752 -0.6197  0.5196  0.2547
14399TIP3    H164612   3.367   5.315  13.841 -0.1309 -0.3490  0.2773
14399TIP3    H264613   3.371   5.210  13.732 -2.1398 -0.0375 -0.1416
14400TIP3   OH264614   5.361   6.621  11.401  0.3479 -0.0822 -0.1684
14400TIP3    H164615   5.291   6.586  11.346 -0.6006  2.1901 -0.5116
14400TIP3    H264616   5.403   6.544  11.439 -0.3799 -1.6295 -2.3359
14401TIP3   OH264617   4.483   4.448  16.192  0.6728  0.5449 -0.0255
14401TIP3    H164618   4.574   4.449  16.160  1.0821 -1.1759  0.9801
14401TIP3    H264619   4.490   4.419  16.283 -0.9775 -0.6279 -0.2368
14402TIP3   OH264620   1.542   5.025  13.981 -0.5835 -0.0265  0.1779
14402TIP3    H164621   1.596   5.097  13.949  1.7420 -0.8968  1.8720
14402TIP3    H264622   1.504   4.986  13.902 -1.0545  2.3290 -0.8507
14403TIP3   OH264623   2.180   2.133  15.434 -0.0321  0.4625 -0.5231
14403TIP3    H164624   2.160   2.059  15.377 -2.9144 -1.9031  3.0453
14403TIP3    H264625   2.113   2.198  15.415 -0.8815 -0.2486 -0.0520
14404TIP3   OH264626   2.292   2.293   1.440 -0.3486 -0.1920  0.0296
14404TIP3    H164627   2.239   2.361   1.398 -0.3246 -1.0115 -1.3856
14404TIP3    H264628   2.320   2.333   1.522 -0.8345  1.2911 -0.4756
14405TIP3   OH264629   0.250   1.825  16.773  0.2437  0.7450  0.0512
14405TIP3    H164630   0.251   1.732  16.797 -0.5551  0.8136  0.3868
14405TIP3    H264631   0.265   1.826  16.679  0.3949  0.2821  0.0671
14406TIP3   OH264632   5.242   0.151   0.758  0.4254  0.1661 -0.3286
14406TIP3    H164633   5.241   0.240   0.722  0.9145  0.2483 -0.1440
14406TIP3    H264634   5.189   0.100   0.697 -0.6266  0.7674  0.0515
14407TIP3   OH264635   1.746   4.762  13.453 -0.1244  0.4165 -0.2788
14407TIP3    H164636   1.711   4.844  13.487  2.2441  1.4331 -0.1784
14407TIP3    H264637   1.673   4.700  13.463 -0.9268  1.6859  2.6425
14408TIP3   OH264638   6.658   3.934  15.136  0.0200  0.0558 -0.2804
14408TIP3    H164639   6.615   3.906  15.055  3.4226 -1.9446 -1.6278
14408TIP3    H264640   6.749   3.948  15.111  0.9189  0.8423  2.9467
14409TIP3   OH264641   3.316   3.255  12.223 -0.4958 -0.3438  0.5550
14409TIP3    H164642   3.399   3.208  12.230  0.1880  0.5193 -1.1428
14409TIP3    H264643   3.258   3.195  12.177 -0.5603 -0.6545  1.0440
14410TIP3   OH264644   3.810   3.517  15.328  0.1486 -0.0983  0.3591
14410TIP3    H164645   3.716   3.525  15.349  0.2038  2.4419 -0.0670
14410TIP3    H264646   3.817   3.546  15.237  1.0744 -2.7288 -0.4827
14411TIP3   OH264647   5.810   6.574  16.245 -0.0418  0.3876  0.3063
14411TIP3    H164648   5.898   6.586  16.212 -0.5180 -1.0728 -1.6622
14411TIP3    H264649   5.808   6.484  16.277 -1.4020 -0.4562 -1.9009
14412TIP3   OH264650   1.830   1.982   1.041  0.8012  0.0108  0.1651
14412TIP3    H164651   1.873   1.897   1.030 -0.4591 -0.7226  0.6703
14412TIP3    H264652   1.742   1.968   1.008  0.6308  1.1943  0.0837
14413TIP3   OH264653   2.252   4.119  10.950  0.2827  0.0054  0.1785
14413TIP3    H164654   2.270   4.207  10.915 -0.1321  0.3857  0.8925
14413TIP3    H264655   2.264   4.129  11.045 -1.6004 -0.2310  0.4804
14414TIP3   OH264656   1.713   1.280   2.491  0.0259  0.2036 -0.0483
14414TIP3    H164657   1.618   1.271   2.480 -0.0738  0.6391  0.4132
14414TIP3    H264658   1.723   1.347   2.559  0.6552 -0.7646  0.8385
14415TIP3   OH264659   3.987   2.499   1.563 -0.2751  0.4874 -0.0970
14415TIP3    H164660   3.969   2.439   1.636 -0.5652  1.2844  0.4991
14415TIP3    H264661   3.994   2.585   1.604  0.7966  0.7781 -0.8632
14416TIP3   OH264662   4.110   6.032  15.994  0.3667 -0.3967  0.4730
14416TIP3    H164663   4.014   6.035  16.003  0.1411 -3.2333 -0.0532
14416TIP3    H264664   4.132   5.939  16.002  3.0936  0.1675  0.4640
14417TIP3   OH264665   1.152   2.253   6.134 -0.1651  0.2401  0.0348
14417TIP3    H164666   1.114   2.213   6.213 -1.9509 -1.4623 -1.5509
14417TIP3    H264667   1.233   2.294   6.164 -0.9732  0.0108  2.8058
14418TIP3   OH264668   6.166   4.359   1.291  0.5711  0.2906 -0.2862
14418TIP3    H164669   6.141   4.288   1.351  1.1976 -1.6019 -2.1084
14418TIP3    H264670   6.258   4.375   1.309  0.1632  1.4657  0.8720
14419TIP3   OH264671   1.460   0.290  10.360  0.3111  0.3050  0.1715
14419TIP3    H164672   1.386   0.335  10.402  0.3252 -0.4249  0.9996
14419TIP3    H264673   1.477   0.215  10.417  0.5921 -0.4889 -0.9488
14420TIP3   OH264674   3.151   5.818  14.164  0.5759  0.3359 -0.1836
14420TIP3    H164675   3.060   5.848  14.167  0.1589 -0.9225  1.8601
14420TIP3    H264676   3.148   5.738  14.112  0.4365  0.1306  0.1341
14421TIP3   OH264677   4.862   4.761  17.032 -0.2229  0.2845  0.2535
14421TIP3    H164678   4.956   4.743  17.041 -0.0922 -0.2753 -1.7432
14421TIP3    H264679   4.820   4.677  17.046 -0.1912 -0.0451 -1.3670
14422TIP3   OH264680   4.336   1.722   0.986  0.3403 -0.0681 -0.0894
14422TIP3    H164681   4.376   1.777   0.919 -0.3595  0.7396  0.1370
14422TIP3    H264682   4.270   1.778   1.027  0.0547 -0.8736  0.5861
14423TIP3   OH264683   0.555   3.124  16.123  0.6915  0.6011 -0.3248
14423TIP3    H164684   0.554   3.143  16.029  0.6499 -1.3036 -0.7383
14423TIP3    H264685   0.463   3.109  16.145  0.6223  1.6442  0.1901
14424TIP3   OH264686   3.750   0.410   6.237 -0.1165  0.1858 -0.0462
14424TIP3    H164687   3.715   0.460   6.310 -1.2160  2.0795 -1.7806
14424TIP3    H264688   3.797   0.474   6.184 -0.1621 -0.9268 -1.5036
14425TIP3   OH264689   3.723   4.333   5.505  0.2963 -0.0817  0.1723
14425TIP3    H164690   3.768   4.417   5.500 -0.3738  0.2481 -0.5081
14425TIP3    H264691   3.743   4.301   5.593  2.9251 -0.5721 -0.5007
14426TIP3   OH264692   1.764   4.308   3.867 -0.8382  0.0796  0.2903
14426TIP3    H164693   1.810   4.318   3.784  0.5535  1.4744  1.1892
14426TIP3    H264694   1.673   4.293   3.841 -0.2433 -0.7773 -1.4893
14427TIP3   OH264695   2.211   6.262   5.687  0.5464 -0.8137  0.0528
14427TIP3    H164696   2.225   6.168   5.677 -1.1024 -0.8821 -2.2455
14427TIP3    H264697   2.123   6.270   5.723  1.1494 -0.1212  1.4701
14428TIP3   OH264698   5.128   2.122   5.690  0.0431 -0.0613 -0.0418
14428TIP3    H164699   5.115   2.204   5.737  0.8650  0.5571 -0.8545
14428TIP3    H264700   5.153   2.059   5.758  0.7671  0.6996  0.4186
14429TIP3   OH264701   3.422   3.621  12.765 -0.1526  0.2439  0.5756
14429TIP3    H164702   3.364   3.675  12.819 -0.2006  1.2933 -0.4808
14429TIP3    H264703   3.505   3.620  12.812 -0.3624  0.6458  0.9632
14430TIP3   OH264704   0.702   4.232   4.593  0.8942  0.1863 -0.6359
14430TIP3    H164705   0.677   4.150   4.637  1.6651  0.1184 -0.3037
14430TIP3    H264706   0.797   4.229   4.589  0.8549  0.2893 -2.1558
14431TIP3   OH264707   3.750   5.598  15.986 -0.2971 -0.2348 -0.8153
14431TIP3    H164708   3.826   5.617  15.932  0.2859 -0.3164 -0.0390
14431TIP3    H264709   3.676   5.629  15.934  0.2573 -0.1603 -1.5822
14432TIP3   OH264710   1.991   3.882   3.497 -0.4630  0.4225 -0.0109
14432TIP3    H164711   1.921   3.879   3.562  0.1082  0.0108  0.6089
14432TIP3    H264712   2.067   3.846   3.543  0.3120  1.4212 -0.4718
14433TIP3   OH264713   4.963   3.509  13.517 -0.3053  0.4039  0.1227
14433TIP3    H164714   4.908   3.532  13.442 -0.9740 -0.9000  0.1875
14433TIP3    H264715   5.033   3.455  13.481 -0.5026 -0.0420  0.3992
14434TIP3   OH264716   2.252   6.242   2.662 -0.3897  0.4718 -0.3792
14434TIP3    H164717   2.189   6.171   2.656  1.9498 -1.7357 -0.5371
14434TIP3    H264718   2.336   6.198   2.679  1.0934  3.2438  0.0381
14435TIP3   OH264719   3.387   5.889   2.425  0.0736  0.8030  0.5478
14435TIP3    H164720   3.336   5.808   2.419  1.3778 -0.1293  1.5796
14435TIP3    H264721   3.466   5.872   2.375  0.6891  1.1692  1.3720
14436TIP3   OH264722   6.803   6.395  14.348  0.0777 -0.0528 -0.4805
14436TIP3    H164723   6.849   6.311  14.347 -0.4280 -0.4638  2.2172
14436TIP3    H264724   6.726   6.379  14.403 -1.0726  1.6857 -1.5037
14437TIP3   OH264725   5.518   5.964   3.808 -0.2304  0.3860  0.2315
14437TIP3    H164726   5.612   5.946   3.805 -0.3491 -0.1617 -2.0167
14437TIP3    H264727   5.486   5.936   3.723 -1.8925  3.6202 -0.3486
14438TIP3   OH264728   0.374   1.678  15.621 -0.4138  0.0255  0.3867
14438TIP3    H164729   0.390   1.699  15.529 -2.0691 -0.7558 -0.1166
14438TIP3    H264730   0.330   1.593  15.619 -0.9165  0.2215  1.8800
14439TIP3   OH264731   2.443   4.035  12.539 -0.2223  0.1301  0.0665
14439TIP3    H164732   2.384   4.110  12.549 -0.5745 -0.0837 -0.3485
14439TIP3    H264733   2.464   4.034  12.445 -1.2357 -1.0336 -0.1770
14440TIP3   OH264734   3.952   4.937   1.310 -0.4308 -0.1211  0.4180
14440TIP3    H164735   4.022   4.960   1.249  0.8053  1.5486  2.3300
14440TIP3    H264736   3.871   4.953   1.261  0.4973 -0.7831 -1.4042
14441TIP3   OH264737   0.853   6.287   3.896 -0.1101 -0.0563  0.5170
14441TIP3    H164738   0.784   6.300   3.961 -0.1877  1.1485  0.2179
14441TIP3    H264739   0.816   6.322   3.815 -0.1894 -1.9536 -0.3212
14442TIP3   OH264740   0.281   1.957  10.365 -0.0149  0.0524 -0.8832
14442TIP3    H164741   0.365   1.997  10.340  0.0600  0.6383  0.2401
14442TIP3    H264742   0.263   1.993  10.451 -0.2231 -1.9257 -0.0551
14443TIP3   OH264743   1.033   2.388  10.839  0.8572 -0.2066  0.8515
14443TIP3    H164744   0.980   2.460  10.873  1.4565  0.2982  0.7351
14443TIP3    H264745   1.103   2.431  10.790  0.4545 -0.9044 -0.3610
14444TIP3   OH264746   4.847   0.469   3.463 -0.1727  0.0957 -0.1267
14444TIP3    H164747   4.794   0.432   3.533 -0.6937  2.8211  1.0624
14444TIP3    H264748   4.787   0.482   3.390 -0.4938  0.5146  0.2061
14445TIP3   OH264749   0.397   4.363   4.684 -0.1194  0.4865  0.3963
14445TIP3    H164750   0.314   4.321   4.705 -0.8577  2.1804  1.0438
14445TIP3    H264751   0.393   4.379   4.590 -0.7081  0.8873  0.4818
14446TIP3   OH264752   6.660   0.961   1.726 -0.6171 -0.0212  0.0850
14446TIP3    H164753   6.607   0.886   1.754 -1.2137  0.4025  0.1040
14446TIP3    H264754   6.721   0.976   1.798 -0.4014 -0.5720  0.0238
14447TIP3   OH264755   5.189   1.689  16.270  0.1334  0.1322  0.4769
14447TIP3    H164756   5.138   1.719  16.194 -2.1840 -0.8875  1.5175
14447TIP3    H264757   5.245   1.620  16.235 -0.8208 -0.2601 -0.3450
14448TIP3   OH264758   2.052   2.975   4.314 -0.4295 -0.6199  0.0460
14448TIP3    H164759   2.003   2.992   4.395  0.8359 -1.1670  0.9454
14448TIP3    H264760   1.998   2.910   4.267 -1.1348 -0.3499  0.4605
14449TIP3   OH264761   0.181   4.909   4.574  0.1465  0.2590 -0.0973
14449TIP3    H164762   0.229   4.835   4.612  1.3867  1.0639 -0.0331
14449TIP3    H264763   0.121   4.937   4.643  0.9043  0.3952  0.5219
14450TIP3   OH264764   4.639   3.467  13.316  0.3531  0.0083  0.1761
14450TIP3    H164765   4.593   3.500  13.393 -0.2855  1.8948 -0.9597
14450TIP3    H264766   4.716   3.522  13.308  1.0191 -0.9134  0.0828
14451TIP3   OH264767   0.097   6.740  13.762  0.4732 -0.4268 -0.3256
14451TIP3    H164768   0.033   6.695  13.707 -0.4267  0.5057 -0.0817
14451TIP3    H264769   0.103   6.828  13.725 -0.3068  0.2871  1.1542
14452TIP3   OH264770   4.593   4.326   4.633 -0.0099  0.3040 -0.2148
14452TIP3    H164771   4.565   4.407   4.591  0.9809  0.1749 -1.1617
14452TIP3    H264772   4.552   4.257   4.581  0.6305  0.1599 -0.5348
14453TIP3   OH264773   5.418   1.518  13.787  0.7595 -0.3716  0.2522
14453TIP3    H164774   5.464   1.538  13.705  1.1245  0.9475  0.7456
14453TIP3    H264775   5.362   1.594  13.802  1.4515 -0.1056  1.7198
14454TIP3   OH264776   3.262   1.517  15.819  0.1794 -0.7085 -0.0051
14454TIP3    H164777   3.287   1.574  15.747 -1.4590  1.8630  1.2813
14454TIP3    H264778   3.221   1.441  15.777  0.3738  0.1202 -1.7763
14455TIP3   OH264779   3.738   2.238  16.126  0.6240 -1.0244 -0.6415
14455TIP3    H164780   3.715   2.180  16.199 -0.5739  0.7438  0.4679
14455TIP3    H264781   3.804   2.297  16.163 -0.5589  0.3808 -0.7195
14456TIP3   OH264782   4.355   2.673  11.918  0.1178 -0.1731 -0.1690
14456TIP3    H164783   4.329   2.627  11.998 -1.4143 -1.2309 -1.2039
14456TIP3    H264784   4.272   2.704  11.881  0.7737  0.1633 -1.4045
14457TIP3   OH264785   4.607   3.849   4.032 -0.0868 -0.2888  0.1947
14457TIP3    H164786   4.668   3.860   3.960 -1.5184 -0.4002 -1.0983
14457TIP3    H264787   4.629   3.763   4.069  0.1806 -0.5729 -0.6009
14458TIP3   OH264788   2.383   3.185  12.748 -0.7070 -0.2891  0.3217
14458TIP3    H164789   2.447   3.246  12.786 -0.1474 -1.0330  0.5977
14458TIP3    H264790   2.371   3.118  12.816 -1.6339 -0.2677  0.1922
14459TIP3   OH264791   5.087   3.145  13.580  0.1826  0.1424  0.1101
14459TIP3    H164792   5.110   3.213  13.517  1.4177 -1.0086 -0.7368
14459TIP3    H264793   5.149   3.156  13.652  0.1468  0.1328  0.1426
14460TIP3   OH264794   0.326   3.309   3.115  0.7302  0.1502  0.3277
14460TIP3    H164795   0.318   3.218   3.087  1.6654 -0.4491  1.8715
14460TIP3    H264796   0.245   3.350   3.086  1.0390 -0.7048 -1.9704
14461TIP3   OH264797   5.131   5.777  11.094 -0.2788 -0.2676  0.5009
14461TIP3    H164798   5.160   5.708  11.154 -0.7390 -0.5314  0.4274
14461TIP3    H264799   5.204   5.838  11.090 -0.5599  0.1899  1.9937
14462TIP3   OH264800   1.787   2.408  14.639 -0.0941 -0.1531 -0.5446
14462TIP3    H164801   1.695   2.412  14.667 -0.3527  0.6737 -1.4807
14462TIP3    H264802   1.818   2.324  14.674 -1.3362 -0.6615 -0.5901
14463TIP3   OH264803   5.927   0.929  13.069  0.1216  0.0387  0.2461
14463TIP3    H164804   5.857   0.968  13.122 -0.5940  0.1168 -0.7286
14463TIP3    H264805   5.910   0.961  12.981  0.8260 -0.7323 -0.1779
14464TIP3   OH264806   2.269   2.399   2.587 -0.0019  0.0354  0.0652
14464TIP3    H164807   2.344   2.361   2.633  0.0788  0.4134  0.2556
14464TIP3    H264808   2.305   2.476   2.542 -0.6244  1.3898  1.7582
14465TIP3   OH264809   4.393   5.209  12.413  0.3109 -0.8334  0.5700
14465TIP3    H164810   4.326   5.222  12.480  0.6581 -0.1137  0.7799
14465TIP3    H264811   4.476   5.221  12.459  0.5583  2.3733 -0.4731
14466TIP3   OH264812   2.793   2.033   0.045 -0.6557  0.0002 -0.1446
14466TIP3    H164813   2.700   2.020   0.027 -0.3502 -0.5801 -1.3636
14466TIP3    H264814   2.836   2.024  -0.040  0.7828 -2.2612  0.7428
14467TIP3   OH264815   6.208   1.326   0.319  0.3578 -0.0332 -0.4390
14467TIP3    H164816   6.169   1.349   0.403 -1.3836 -2.0716 -0.6036
14467TIP3    H264817   6.227   1.232   0.326  0.5102 -0.1685 -2.1948
14468TIP3   OH264818   2.741   2.816  10.901 -0.3870 -0.2322 -0.5874
14468TIP3    H164819   2.807   2.776  10.846 -0.8508 -0.6799 -0.8247
14468TIP3    H264820   2.743   2.766  10.983 -0.0469  0.1130 -0.3805
14469TIP3   OH264821   4.229   5.116  15.068 -0.2161 -0.1585  0.4402
14469TIP3    H164822   4.234   5.183  15.000 -0.0037 -1.0833 -0.4878
14469TIP3    H264823   4.312   5.069  15.061 -0.5328 -0.7779  0.7914
14470TIP3   OH264824   5.114   1.985   2.194 -0.2133  0.1110 -0.7156
14470TIP3    H164825   5.204   2.018   2.205  0.6553 -1.6851 -1.9843
14470TIP3    H264826   5.066   2.024   2.267  1.7038  0.7472  0.2973
14471TIP3   OH264827   3.352   2.396   4.195 -0.1989 -0.1248 -0.0186
14471TIP3    H164828   3.427   2.455   4.184  0.7236 -0.9880  1.3513
14471TIP3    H264829   3.303   2.435   4.268  0.3189 -0.9291  0.7734
14472TIP3   OH264830   3.814   1.885   4.549  0.1701  0.2687  0.6702
14472TIP3    H164831   3.815   1.927   4.635 -1.2189  0.9927  0.3516
14472TIP3    H264832   3.836   1.955   4.488 -0.8200  0.2349  0.2626
14473TIP3   OH264833   2.127   4.406  10.167 -0.4613  0.3554  0.1393
14473TIP3    H164834   2.150   4.483  10.218 -1.3641  0.5005  0.3426
14473TIP3    H264835   2.188   4.338  10.197 -0.4481  0.6659  0.8211
14474TIP3   OH264836   4.275   3.358  10.500  0.3161  0.1049  0.8416
14474TIP3    H164837   4.233   3.441  10.474  1.6467  0.5339 -0.0140
14474TIP3    H264838   4.362   3.362  10.461  0.8321 -1.1787  1.8103
14475TIP3   OH264839   6.309   3.316  15.534 -0.0446 -0.1611 -0.2772
14475TIP3    H164840   6.281   3.311  15.443 -2.4253  1.3437  0.2862
14475TIP3    H264841   6.253   3.253  15.579  0.4397 -0.1902  0.2893
14476TIP3   OH264842   3.679   3.145   6.587  0.2168  0.6350  0.3685
14476TIP3    H164843   3.598   3.110   6.624  0.8324 -0.1219  1.0557
14476TIP3    H264844   3.681   3.111   6.498  0.1269  0.0358  0.5841
14477TIP3   OH264845   6.059   6.039  16.442 -1.2229  0.3306  0.2641
14477TIP3    H164846   6.011   6.090  16.508 -0.6090 -0.7203  1.5669
14477TIP3    H264847   6.094   5.964  16.490 -1.0334 -0.6578 -1.3391
14478TIP3   OH264848   6.433   2.057  14.334  0.2465 -0.1611 -0.2086
14478TIP3    H164849   6.403   2.052  14.243 -0.8687 -0.0477  0.1315
14478TIP3    H264850   6.441   1.966  14.362 -1.3081 -0.2115  0.1514
14479TIP3   OH264851   6.778   1.856  17.013  0.5241  0.4091 -0.1502
14479TIP3    H164852   6.847   1.864  16.947 -0.9640 -1.9049 -2.1552
14479TIP3    H264853   6.739   1.770  16.997 -2.3021  1.2628  1.4155
14480TIP3   OH264854   5.648   4.024   1.209 -1.2936 -0.7905 -0.2775
14480TIP3    H164855   5.645   3.935   1.246 -1.9749 -1.6476 -2.2560
14480TIP3    H264856   5.565   4.034   1.163 -2.4522  1.9882  2.1630
14481TIP3   OH264857   3.982   6.098  12.065 -0.3874 -0.2897 -0.0316
14481TIP3    H164858   4.057   6.044  12.039 -0.7384 -0.2005 -1.3155
14481TIP3    H264859   3.962   6.150  11.988 -0.5806  1.0994  0.9293
14482TIP3   OH264860   1.972   4.266   4.508 -0.1713  0.3937  0.5494
14482TIP3    H164861   1.892   4.318   4.498 -0.2132  0.4030  0.9167
14482TIP3    H264862   2.040   4.330   4.529  0.7589  0.9205 -3.2759
14483TIP3   OH264863   3.812   2.869   3.955 -1.0587 -0.1955 -0.5046
14483TIP3    H164864   3.866   2.923   3.898 -0.2563  0.8553  1.2009
14483TIP3    H264865   3.732   2.854   3.904  0.1137 -0.3685 -2.3916
14484TIP3   OH264866   1.254   5.196  11.551 -0.1290 -0.5266 -0.3462
14484TIP3    H164867   1.163   5.167  11.548 -0.3677  0.2325 -0.6524
14484TIP3    H264868   1.249   5.291  11.558  0.6287 -0.2855 -2.3353
14485TIP3   OH264869   2.533   5.603   4.458  0.3665 -0.1610 -0.1232
14485TIP3    H164870   2.566   5.690   4.482  1.0788 -0.9231  1.9258
14485TIP3    H264871   2.525   5.606   4.363  1.6110  1.7274 -0.2386
14486TIP3   OH264872   1.351   1.383   4.055  0.2896  0.0599 -0.1663
14486TIP3    H164873   1.388   1.402   4.141 -0.3654  1.2975 -0.1209
14486TIP3    H264874   1.351   1.468   4.011 -0.0564 -0.4236 -1.1160
14487TIP3   OH264875   1.343   6.243  10.714  0.1893 -0.3913  0.2210
14487TIP3    H164876   1.304   6.330  10.705  0.6798 -0.3296 -1.6083
14487TIP3    H264877   1.377   6.223  10.627 -0.9831 -2.9252  0.2704
14488TIP3   OH264878   3.622   5.117  12.642 -0.4610 -0.2869  0.1163
14488TIP3    H164879   3.630   5.032  12.686 -1.4108  0.3372  1.5891
14488TIP3    H264880   3.636   5.098  12.549  1.3644 -1.7252  0.6154
14489TIP3   OH264881   0.806   0.470  13.433 -0.0040  0.5615 -0.0231
14489TIP3    H164882   0.856   0.532  13.485 -3.0510  0.9132  2.8113
14489TIP3    H264883   0.820   0.386  13.477 -2.3434  0.8076  1.4046
14490TIP3   OH264884   4.999   3.297   3.307  0.2181 -0.2763  0.4963
14490TIP3    H164885   5.027   3.348   3.231 -0.5464  1.0155  1.0607
14490TIP3    H264886   5.064   3.317   3.374  0.0776 -0.2726  0.6318
14491TIP3   OH264887   5.184   0.731   2.327  0.3377 -0.4806 -0.0888
14491TIP3    H164888   5.094   0.708   2.302 -0.2031  0.8600  0.5382
14491TIP3    H264889   5.234   0.723   2.245 -0.6542  0.2002 -0.7839
14492TIP3   OH264890   5.340   1.005   5.114  0.1153  0.1292 -0.7727
14492TIP3    H164891   5.427   0.964   5.111 -0.9274 -2.1472 -1.9167
14492TIP3    H264892   5.288   0.956   5.051 -2.7136 -0.2125  1.6433
14493TIP3   OH264893   6.021   4.436  16.158  0.2988  0.3241  0.3749
14493TIP3    H164894   6.054   4.419  16.246  2.8729  0.3474 -0.4962
14493TIP3    H264895   6.034   4.530  16.145 -2.2693  0.8230  0.7176
14494TIP3   OH264896   0.096   5.581   4.106  0.2646  0.1240  0.3948
14494TIP3    H164897   0.168   5.621   4.155  1.0627 -1.2309  0.3942
14494TIP3    H264898   0.049   5.528   4.170 -0.5541  0.7582  0.3278
14495TIP3   OH264899   4.520   4.030   1.631  0.1306  0.4453  1.0231
14495TIP3    H164900   4.600   4.069   1.597  0.7332 -1.1568  0.4892
14495TIP3    H264901   4.455   4.100   1.626  0.8751  1.0684 -0.9122
14496TIP3   OH264902   6.323   1.059  13.425  0.0374  0.4128 -0.5189
14496TIP3    H164903   6.309   1.142  13.469  0.2012 -0.1188  0.5720
14496TIP3    H264904   6.327   1.081  13.332 -4.0545  1.1483 -0.7086
14497TIP3   OH264905   2.186   4.980   5.531 -0.3563 -0.6023  0.3624
14497TIP3    H164906   2.260   4.986   5.590 -0.4073  0.5389  0.3285
14497TIP3    H264907   2.195   4.894   5.489  0.8978 -0.5037  0.4093
14498TIP3   OH264908   1.209   4.179   0.414 -0.2092 -0.0384  0.0074
14498TIP3    H164909   1.304   4.192   0.408 -0.3058  1.3069  1.0310
14498TIP3    H264910   1.172   4.245   0.355 -0.5160 -0.9548 -0.8538
14499TIP3   OH264911   6.197   0.658   1.159 -0.1893  0.0436 -0.2155
14499TIP3    H164912   6.226   0.628   1.245 -0.3527 -0.5345 -0.3575
14499TIP3    H264913   6.215   0.584   1.101 -0.5248  0.2525 -0.5890
14500TIP3   OH264914   6.718   2.694   0.589 -0.7598  0.7124 -0.0228
14500TIP3    H164915   6.727   2.615   0.643 -1.2502 -0.7004 -1.9184
14500TIP3    H264916   6.674   2.757   0.646  1.2490  0.3095  2.1642
14501TIP3   OH264917   4.266   6.352  14.698  0.5850 -0.5541 -0.5857
14501TIP3    H164918   4.318   6.352  14.618  0.0744  0.5479 -0.9376
14501TIP3    H264919   4.252   6.445  14.718 -0.6270 -0.8198 -0.0924
14502TIP3   OH264920   4.480   5.806  15.539  0.4969 -0.5006 -0.0800
14502TIP3    H164921   4.563   5.774  15.575 -0.4824 -2.1045  0.8685
14502TIP3    H264922   4.505   5.881  15.485  2.8428 -2.1925 -1.5598
14503TIP3   OH264923   4.901   4.218   3.236  0.0051 -0.5159 -0.4705
14503TIP3    H164924   4.968   4.278   3.269 -0.0902 -0.6151 -0.0922
14503TIP3    H264925   4.835   4.275   3.198  0.1000 -0.3968 -0.4584
14504TIP3   OH264926   2.123   1.496   4.697 -0.4653 -0.1244  0.1634
14504TIP3    H164927   2.120   1.518   4.790 -0.3852 -0.8844  0.3439
14504TIP3    H264928   2.152   1.577   4.655  0.1104  0.0433  0.8594
14505TIP3   OH264929   3.848   0.318  13.393 -0.0704 -0.2731 -0.1730
14505TIP3    H164930   3.893   0.236  13.412 -1.5793 -1.0978  0.0356
14505TIP3    H264931   3.776   0.321  13.456  0.9195  2.0777  0.9925
14506TIP3   OH264932   2.515   4.621   0.919  0.5077 -0.1731  0.1451
14506TIP3    H164933   2.465   4.600   0.840  0.1311 -0.9033  0.5730
14506TIP3    H264934   2.467   4.694   0.958  1.1353  0.7276 -0.6967
14507TIP3   OH264935   4.974   4.207  12.514 -0.3142  0.3387 -0.0856
14507TIP3    H164936   4.888   4.169  12.532 -0.5134  1.2760  1.0656
14507TIP3    H264937   4.974   4.224  12.420 -0.5469 -1.6393 -0.4723
14508TIP3   OH264938   3.253   0.968  13.871 -0.6062 -0.5018  0.3214
14508TIP3    H164939   3.344   0.939  13.866 -0.2836  0.5657 -0.7683
14508TIP3    H264940   3.205   0.909  13.813 -0.2863 -0.0164 -0.4504
14509TIP3   OH264941   4.672   0.639   3.302  0.1633 -0.4925 -0.3119
14509TIP3    H164942   4.656   0.696   3.226 -0.2609 -0.3996 -0.1552
14509TIP3    H264943   4.663   0.697   3.377 -0.3230 -0.7757 -0.1476
14510TIP3   OH264944   3.982   3.409   3.312 -0.1621  0.1232  0.6784
14510TIP3    H164945   4.061   3.452   3.279  0.1110  0.1368  1.3239
14510TIP3    H264946   3.951   3.354   3.240  1.2742 -1.0356  0.9105
14511TIP3   OH264947   0.036   0.957   0.633  0.5154 -0.4832  0.1445
14511TIP3    H164948  -0.008   1.011   0.697  0.5496 -1.2993  0.8748
14511TIP3    H264949  -0.027   0.888   0.611  0.8461 -0.7532  0.0213
14512TIP3   OH264950   0.426   0.168  11.000 -0.1538  0.1269  0.1730
14512TIP3    H164951   0.511   0.168  10.958 -0.0184  0.4627  0.4435
14512TIP3    H264952   0.373   0.108  10.948 -0.0970  0.8084 -0.6871
14513TIP3   OH264953   2.965   3.912  14.691 -0.0409 -0.2984  0.5421
14513TIP3    H164954   2.987   3.870  14.608 -0.3101  3.0438 -1.3785
14513TIP3    H264955   3.049   3.946  14.723 -0.3626  0.8961  0.1354
14514TIP3   OH264956   5.845   0.038   3.565  0.6891 -0.1707 -0.2700
14514TIP3    H164957   5.939   0.054   3.553  0.5968 -0.0969 -0.9167
14514TIP3    H264958   5.804   0.081   3.490  0.1765 -0.6090 -0.2415
14515TIP3   OH264959   1.149   2.529   0.712  0.3993  0.1726  0.5389
14515TIP3    H164960   1.176   2.469   0.782 -0.8058  1.1893  1.9146
14515TIP3    H264961   1.057   2.509   0.697  0.5106  0.3246 -0.4183
14516TIP3   OH264962   1.799   0.800   2.421 -0.3049 -0.1448  0.2306
14516TIP3    H164963   1.791   0.866   2.352 -1.5911 -0.9207 -0.3888
14516TIP3    H264964   1.881   0.755   2.400 -1.3694 -1.3422 -1.7167
14517TIP3   OH264965   4.993   1.594  12.236 -0.0459  0.3076  0.8734
14517TIP3    H164966   4.934   1.536  12.284 -0.8214  0.5422  0.2161
14517TIP3    H264967   4.937   1.666  12.206  0.4217  0.1512 -0.4148
14518TIP3   OH264968   5.990   6.197   3.942  0.1468  0.3363  0.4733
14518TIP3    H164969   5.967   6.195   4.035  1.0668 -0.1621  0.6956
14518TIP3    H264970   6.060   6.133   3.932 -2.0490 -2.0210 -1.1526
14519TIP3   OH264971   0.222   4.423  15.234  0.3344 -0.2185 -0.2789
14519TIP3    H164972   0.305   4.469  15.219  0.6103 -0.1907  1.1581
14519TIP3    H264973   0.183   4.413  15.147  0.4272  2.4139 -0.6854
14520TIP3   OH264974   5.916   3.906  13.306 -0.3189 -0.0731  0.2499
14520TIP3    H164975   5.898   3.867  13.220 -0.9452  0.7508 -0.0075
14520TIP3    H264976   5.990   3.856  13.340  0.0042 -0.3467 -0.8200
14521TIP3   OH264977   3.981   6.472   5.059  0.2448 -0.2220 -0.0231
14521TIP3    H164978   4.074   6.495   5.070  0.5125 -0.9768 -0.6074
14521TIP3    H264979   3.983   6.390   5.010 -0.7329 -0.4069  0.2381
14522TIP3   OH264980   1.850   6.568  16.763 -0.2433 -0.0910  0.5746
14522TIP3    H164981   1.922   6.505  16.764 -0.5332 -0.5124 -1.3038
14522TIP3    H264982   1.831   6.581  16.670 -1.4372  1.3487  0.9836
14523TIP3   OH264983   2.566   4.375  14.207  0.3149  0.2283  0.7289
14523TIP3    H164984   2.638   4.437  14.193 -0.1505  0.7737  0.7552
14523TIP3    H264985   2.497   4.427  14.247  0.1990 -0.4711  1.4546
14524TIP3   OH264986   3.243   4.172  15.663  0.5021  0.0286 -0.0561
14524TIP3    H164987   3.150   4.150  15.655  0.2675  1.5086 -2.6597
14524TIP3    H264988   3.286   4.118  15.597  0.8653  2.0845 -1.6103
14525TIP3   OH264989   5.354   5.029   4.799 -0.4798  0.3941 -0.3742
14525TIP3    H164990   5.332   5.022   4.706  0.2874  0.8870 -0.6005
14525TIP3    H264991   5.449   5.038   4.800 -0.1260 -2.3344  0.5957
14526TIP3   OH264992   2.158   3.773  14.968  0.7271 -0.5882  0.0009
14526TIP3    H164993   2.071   3.763  14.928  0.2876 -3.1695  1.4452
14526TIP3    H264994   2.145   3.840  15.035  0.1893 -0.0526 -0.6092
14527TIP3   OH264995   1.934   2.371   3.506 -0.4140  0.0356  0.6332
14527TIP3    H164996   2.003   2.330   3.559  1.1165  1.7054  0.0319
14527TIP3    H264997   1.915   2.453   3.552 -0.5918  0.4984 -0.2486
14528TIP3   OH264998   4.320   4.635   5.186 -0.0295  0.2258  0.0729
14528TIP3    H164999   4.312   4.541   5.201 -0.9816  0.5286  1.8944
14528TIP3    H265000   4.360   4.644   5.100 -0.8238 -1.8314 -0.5501
14529TIP3   OH265001   4.041   6.579   0.301  0.2632  0.2922  0.4412
14529TIP3    H165002   4.084   6.657   0.336 -1.4335  0.8693  1.3240
14529TIP3    H265003   4.026   6.523   0.377 -0.6683  0.1828  0.1907
14530TIP3   OH265004   2.261   6.710  13.352  0.0986 -0.2913  0.3971
14530TIP3    H165005   2.350   6.742  13.341  0.2165 -0.5936  0.4947
14530TIP3    H265006   2.211   6.788  13.379  0.2407 -0.0270 -0.0923
14531TIP3   OH265007   3.229   2.689  15.965 -0.1652 -0.5899 -0.4897
14531TIP3    H165008   3.227   2.778  15.929  0.3196 -0.8536 -1.2038
14531TIP3    H265009   3.297   2.691  16.031  0.7148 -0.7262 -1.3670
14532TIP3   OH265010   4.773   0.351   0.955  0.0807 -0.5899 -0.6443
14532TIP3    H165011   4.801   0.335   1.045  0.0476 -0.8886 -0.6864
14532TIP3    H265012   4.854   0.353   0.905  0.1364  0.0198 -0.5460
14533TIP3   OH265013   3.175   0.911  13.080 -0.7839 -0.1368 -0.6195
14533TIP3    H165014   3.218   0.993  13.055  0.9771 -1.1981 -1.2712
14533TIP3    H265015   3.246   0.846  13.082 -2.1291 -1.6667 -0.2104
14534TIP3   OH265016   1.881   5.687   4.575 -0.1747 -0.6490  0.6750
14534TIP3    H165017   1.829   5.675   4.654 -1.5491 -2.2751 -0.3958
14534TIP3    H265018   1.817   5.714   4.509  0.3229 -2.4145 -0.6138
14535TIP3   OH265019   6.008   1.196  15.017  0.0210  0.1583 -0.3617
14535TIP3    H165020   6.087   1.251  15.025 -0.9195  1.4175  0.6620
14535TIP3    H265021   5.950   1.227  15.086 -0.9394 -1.5262 -0.3575
14536TIP3   OH265022   3.870   5.440   4.984 -0.5607  0.4907 -0.6019
14536TIP3    H165023   3.852   5.534   4.995  0.7139  0.5368  1.6480
14536TIP3    H265024   3.792   5.406   4.940 -1.4700  2.4334 -0.6182
14537TIP3   OH265025   5.568   1.562   2.286  0.5218  0.0978  0.5725
14537TIP3    H165026   5.481   1.539   2.253 -0.1170  0.3090  2.0084
14537TIP3    H265027   5.576   1.656   2.269  1.7743 -0.4318 -2.3100
14538TIP3   OH265028   4.485   5.491   6.034  0.3441 -0.2359  0.7491
14538TIP3    H165029   4.431   5.569   6.044 -0.6848 -0.3605 -2.5781
14538TIP3    H265030   4.426   5.418   6.052  0.1964 -0.3062  0.0077
14539TIP3   OH265031   0.986   2.544  16.873  0.0380  0.5637 -0.4926
14539TIP3    H165032   0.988   2.525  16.779  1.7588 -2.0493 -0.0371
14539TIP3    H265033   0.894   2.531  16.898 -0.3341  0.7473 -1.6971
14540TIP3   OH265034   5.835   0.951  14.890 -0.0315 -0.5178  0.5598
14540TIP3    H165035   5.861   1.036  14.926 -1.4627 -0.2334  0.9862
14540TIP3    H265036   5.878   0.887  14.948  2.3989 -0.1657 -0.7253
14541TIP3   OH265037   0.774   2.233   3.276  0.0671  0.5019 -0.0427
14541TIP3    H165038   0.692   2.184   3.273  0.4244 -0.0601 -1.1359
14541TIP3    H265039   0.801   2.239   3.185  1.2636  0.6496  0.3117
14542TIP3   OH265040   6.135   0.774   0.576 -0.4853  0.3904 -0.7146
14542TIP3    H165041   6.140   0.703   0.512 -0.3942 -0.3734  0.1273
14542TIP3    H265042   6.226   0.787   0.605 -0.6624  0.0273  0.0183
14543TIP3   OH265043   1.365   3.643   3.399  0.2124  0.4363  0.4795
14543TIP3    H165044   1.405   3.729   3.394  0.8561  0.0917 -0.8397
14543TIP3    H265045   1.271   3.660   3.387  0.4253  0.8907 -0.6688
14544TIP3   OH265046   0.500   6.510  14.030 -0.1205 -0.4353  0.2427
14544TIP3    H165047   0.582   6.561  14.035 -0.6179  0.3145  1.0543
14544TIP3    H265048   0.433   6.576  14.014 -0.7389 -0.8744  0.9785
14545TIP3   OH265049   6.044   5.878  16.909  0.2117 -0.1132 -0.6351
14545TIP3    H165050   6.019   5.786  16.898 -2.6791  0.2793  1.5819
14545TIP3    H265051   5.978   5.927  16.861  1.3912  0.8935 -1.3097
14546TIP3   OH265052   3.471   2.455   3.006  0.5419 -0.0584 -0.3704
14546TIP3    H165053   3.393   2.460   3.061 -0.3779 -0.7197 -1.5807
14546TIP3    H265054   3.475   2.541   2.963  2.2949  1.1602  1.9995
14547TIP3   OH265055   3.409   4.956   1.606  0.6731 -0.2216  0.7123
14547TIP3    H165056   3.473   4.911   1.552 -0.5985 -2.7061  1.1254
14547TIP3    H265057   3.461   5.016   1.660  2.5579 -1.5727  0.4993
14548TIP3   OH265058   2.101   5.864   4.649 -0.5177 -0.1029  0.4552
14548TIP3    H165059   2.080   5.926   4.580 -1.7566 -0.3715  0.5645
14548TIP3    H265060   2.032   5.798   4.643  0.0947 -0.8215  1.1149
14549TIP3   OH265061   4.081   0.594   1.336 -0.1132 -0.6320 -0.0916
14549TIP3    H165062   4.011   0.655   1.314  0.4980 -0.9524 -3.3269
14549TIP3    H265063   4.137   0.643   1.396 -1.4704  0.7080  0.1420
14550TIP3   OH265064   3.312   1.569   5.507 -0.3072  0.3362 -0.0066
14550TIP3    H165065   3.238   1.586   5.449 -1.6718 -0.9560  1.2815
14550TIP3    H265066   3.299   1.629   5.580  0.4513  0.7399 -0.1863
14551TIP3   OH265067   5.638   0.251  14.731  0.1971  0.2190  0.0318
14551TIP3    H165068   5.588   0.173  14.753  0.6987  0.6273  2.9878
14551TIP3    H265069   5.572   0.316  14.708 -0.2224 -1.0209 -2.7046
14552TIP3   OH265070   0.444   5.002   3.185  0.5056 -0.1670 -0.4324
14552TIP3    H165071   0.487   5.012   3.270  1.3471 -0.2858 -0.8349
14552TIP3    H265072   0.483   5.070   3.130 -2.8665  2.6507  0.3227
14553TIP3   OH265073   5.071   5.724   6.291 -0.6044 -0.3716  0.3152
14553TIP3    H165074   4.976   5.739   6.287 -1.0126 -2.8838 -1.3144
14553TIP3    H265075   5.089   5.663   6.219  2.6471  1.8052 -0.9513
14554TIP3   OH265076   3.148   4.906  14.991 -0.1667 -0.3808 -0.1683
14554TIP3    H165077   3.227   4.955  15.014 -1.6808  1.8015  0.8272
14554TIP3    H265078   3.158   4.887  14.898  0.6810  1.6265 -0.5517
14555TIP3   OH265079   6.236   3.841  15.209 -0.0790  0.6900  0.0302
14555TIP3    H165080   6.290   3.775  15.252 -0.9913 -0.4939 -0.5651
14555TIP3    H265081   6.170   3.790  15.162 -0.0606  1.9910 -1.4762
14556TIP3   OH265082   0.637   0.525  10.688  0.1337 -0.1238  0.7009
14556TIP3    H165083   0.727   0.519  10.654 -0.4023 -0.0519 -0.7838
14556TIP3    H265084   0.607   0.434  10.692 -0.4143 -0.0313 -0.7758
14557TIP3   OH265085   1.922   0.792  14.618 -0.1207  0.1430  0.2147
14557TIP3    H165086   1.855   0.836  14.671 -0.3351  1.1738 -0.8769
14557TIP3    H265087   1.965   0.863  14.570  0.9581 -0.6339 -0.0068
14558TIP3   OH265088   1.880   2.997  12.805  0.0205  1.5164 -0.0211
14558TIP3    H165089   1.899   2.955  12.889 -0.4648  2.5089  0.5928
14558TIP3    H265090   1.965   3.025  12.772  0.6855 -1.7394 -1.4660
14559TIP3   OH265091   0.770   0.416  13.075  0.1401 -0.3492  0.0013
14559TIP3    H165092   0.768   0.400  13.170  2.0971 -0.3787  0.0684
14559TIP3    H265093   0.814   0.340  13.038  0.8624  0.4164 -0.7465
14560TIP3   OH265094   3.481   3.492  13.377  0.3800 -0.2119 -0.2510
14560TIP3    H165095   3.426   3.497  13.456  0.5708 -0.5094 -0.0968
14560TIP3    H265096   3.566   3.527  13.405  0.1858  0.5471 -0.5737
14561TIP3   OH265097   2.423   4.423   5.048 -0.2354 -0.2577  0.3763
14561TIP3    H165098   2.345   4.369   5.064  0.1625 -0.5077  1.5700
14561TIP3    H265099   2.414   4.452   4.957 -0.9616 -1.5163  0.0238
14562TIP3   OH265100   4.871   4.611  14.127  0.0290 -0.1190  0.1226
14562TIP3    H165101   4.784   4.582  14.100 -0.7405  1.4299  0.8737
14562TIP3    H265102   4.925   4.602  14.048 -1.2454  0.6423 -0.8588
14563TIP3   OH265103   2.465   1.311  11.941  0.1370  0.1563 -0.8892
14563TIP3    H165104   2.437   1.333  11.852 -1.1948 -0.3231 -0.6059
14563TIP3    H265105   2.384   1.314  11.993  0.7382 -0.5461  0.1110
14564TIP3   OH265106   2.893   6.064  13.088  0.2918 -0.1825  0.1892
14564TIP3    H165107   2.803   6.078  13.119  0.6674  0.3676  1.0873
14564TIP3    H265108   2.912   6.140  13.033  0.4545  0.0835  0.6059
14565TIP3   OH265109   3.596   4.719  16.572  0.5601 -0.1024 -1.0720
14565TIP3    H165110   3.510   4.722  16.614 -0.0939 -1.0152 -2.2634
14565TIP3    H265111   3.648   4.660  16.627 -0.4711 -1.7836 -1.8122
14566TIP3   OH265112   4.540   0.088  14.626 -0.2025 -0.2450  0.2244
14566TIP3    H165113   4.530   0.100  14.532 -1.0046 -0.4430  0.2692
14566TIP3    H265114   4.596   0.160  14.654  1.4698 -1.1461 -0.6430
14567TIP3   OH265115   4.633   4.998  13.676  0.7835  0.3881 -0.0643
14567TIP3    H165116   4.607   5.040  13.758 -0.0063 -1.4783  0.6961
14567TIP3    H265117   4.724   4.974  13.690  0.5738 -0.1657  0.3839
14568TIP3   OH265118   0.130   1.088   6.173  0.1227  0.4000 -0.6803
14568TIP3    H165119   0.147   1.043   6.255 -2.7187  1.3391  0.5629
14568TIP3    H265120   0.047   1.050   6.142 -0.1306  1.7904 -1.8006
14569TIP3   OH265121   4.216   0.146  12.721 -0.4430  0.2248  0.1459
14569TIP3    H165122   4.211   0.051  12.708 -0.8099 -0.0917  2.1984
14569TIP3    H265123   4.240   0.156  12.813  0.5977  2.1431 -0.2774
14570TIP3   OH265124   0.931   3.945  11.647  0.1360 -0.7496 -0.8242
14570TIP3    H165125   0.940   3.903  11.733 -0.1675 -2.0905 -1.4128
14570TIP3    H265126   1.016   3.933  11.605  1.0248  1.8255  0.0462
14571TIP3   OH265127   6.556   5.474  16.913 -0.1372 -0.0874  0.3871
14571TIP3    H165128   6.466   5.463  16.942 -0.2450  0.8263  0.4197
14571TIP3    H265129   6.566   5.411  16.841 -0.5945 -0.6533  0.8115
14572TIP3   OH265130   2.814   1.051   2.536  0.2314  0.1115  0.5248
14572TIP3    H165131   2.886   1.081   2.592  0.3583  0.9085 -0.0481
14572TIP3    H265132   2.857   1.002   2.467  0.0710 -0.9081  1.1278
14573TIP3   OH265133   3.442   5.748   5.583 -0.0151 -0.4397 -0.3976
14573TIP3    H165134   3.465   5.831   5.624  0.0093 -0.9506  0.6402
14573TIP3    H265135   3.399   5.698   5.652  0.9509 -1.7208 -0.6858
14574TIP3   OH265136   5.301   5.620   1.826 -0.2229 -0.2457  0.4506
14574TIP3    H165137   5.342   5.692   1.874  0.3667 -1.0168  1.1371
14574TIP3    H265138   5.266   5.563   1.895  1.6175 -1.9555  0.0519
14575TIP3   OH265139   1.860   2.556  12.343 -0.3037 -0.3800 -0.4211
14575TIP3    H165140   1.836   2.464  12.338 -0.5620 -0.3651  0.3774
14575TIP3    H265141   1.889   2.579  12.255  1.7590 -1.7508 -0.1724
14576TIP3   OH265142   0.843   2.926  13.607 -0.8477 -0.1277  0.0747
14576TIP3    H165143   0.797   2.972  13.676 -1.7345 -1.8792  0.7175
14576TIP3    H265144   0.914   2.880  13.652  0.9558  1.6765 -0.7551
14577TIP3   OH265145   3.146   1.113  16.205 -0.2832 -0.3454 -0.4541
14577TIP3    H165146   3.083   1.104  16.277 -1.7200  0.7473 -1.5014
14577TIP3    H265147   3.149   1.027  16.165 -1.2185 -0.3959 -0.4445
14578TIP3   OH265148   1.418   3.057   0.246 -0.3283  0.5561 -0.1586
14578TIP3    H165149   1.377   3.142   0.232 -0.1560  0.7915  0.6970
14578TIP3    H265150   1.368   3.018   0.318  0.9114  0.8680  0.9293
14579TIP3   OH265151   4.586   2.474  16.514  0.6103 -0.4533 -0.0341
14579TIP3    H165152   4.505   2.456  16.466  0.2788  0.1261  0.2983
14579TIP3    H265153   4.557   2.503  16.600  1.1232  1.1443 -0.3626
14580TIP3   OH265154   5.578   1.326   1.778 -0.0105 -0.3192 -0.1792
14580TIP3    H165155   5.499   1.273   1.767 -0.0297 -0.7375  1.6855
14580TIP3    H265156   5.615   1.297   1.861  0.6469  1.7613  0.2991
14581TIP3   OH265157   6.209   3.260  15.257  0.0028 -0.1675 -0.1586
14581TIP3    H165158   6.206   3.306  15.173  0.6251 -1.0974 -0.7158
14581TIP3    H265159   6.196   3.168  15.234  1.3241 -0.5822  0.6251
14582TIP3   OH265160   0.948   6.780  13.996 -0.3432  0.0601  0.0730
14582TIP3    H165161   0.980   6.804  14.082  0.1694 -0.5219  0.0500
14582TIP3    H265162   1.023   6.791  13.938 -1.0639  1.9041 -0.5932
14583TIP3   OH265163   3.736   4.559  11.882 -0.5998  0.3257  0.4907
14583TIP3    H165164   3.751   4.570  11.788 -0.3350  2.3537  0.7318
14583TIP3    H265165   3.652   4.513  11.887 -1.0518  0.9490 -0.7310
14584TIP3   OH265166   3.376   3.748   1.007 -0.3064  0.1035 -0.0776
14584TIP3    H165167   3.371   3.697   1.089  0.0352  0.4239  0.1456
14584TIP3    H265168   3.469   3.769   0.998 -0.4161  0.5054 -0.2852
14585TIP3   OH265169   0.689   5.855   0.690  0.3262  0.5826 -0.3471
14585TIP3    H165170   0.755   5.804   0.642  1.9643  2.6950 -0.4390
14585TIP3    H265171   0.732   5.938   0.710 -1.6700  1.2802  1.3457
14586TIP3   OH265172   1.456   4.151   1.717 -0.5102 -0.5417 -0.4029
14586TIP3    H165173   1.469   4.217   1.785 -0.9350 -0.9908  0.1280
14586TIP3    H265174   1.371   4.174   1.678 -1.8240 -2.0576  1.3306
14587TIP3   OH265175   6.710   6.069  15.232 -0.2019 -0.0084 -0.1154
14587TIP3    H165176   6.739   5.981  15.211 -0.0918 -0.0835  0.3335
14587TIP3    H265177   6.768   6.097  15.303 -0.2459  0.4177 -0.2444
14588TIP3   OH265178   4.663   4.965  15.212  0.0986  0.8215  0.0481
14588TIP3    H165179   4.617   5.043  15.243 -0.6599  0.1663  0.5772
14588TIP3    H265180   4.632   4.894  15.267  2.0945  0.4249  0.7625
14589TIP3   OH265181   4.667   4.895  13.424  0.9993 -0.0955  0.0564
14589TIP3    H165182   4.630   4.909  13.511  1.2553 -0.5436  0.2431
14589TIP3    H265183   4.685   4.983  13.391  0.8564  0.0795  0.4384
14590TIP3   OH265184   4.547   6.649   3.726 -0.0169  0.2476  0.0989
14590TIP3    H165185   4.637   6.642   3.758 -0.2029 -1.1630  0.3878
14590TIP3    H265186   4.495   6.670   3.803 -0.2084 -1.2379  0.4181
14591TIP3   OH265187   5.185   3.634   3.828 -0.1965 -1.0186 -0.5194
14591TIP3    H165188   5.206   3.710   3.882  0.5114 -1.5657 -0.0182
14591TIP3    H265189   5.213   3.658   3.740 -1.9584  0.1425 -0.8277
14592TIP3   OH265190   5.074   1.923   0.480 -0.8094  0.0369 -0.2197
14592TIP3    H165191   5.161   1.954   0.456 -0.5744 -1.7737 -1.9575
14592TIP3    H265192   5.073   1.927   0.576  1.4708 -0.5878 -0.1062
14593TIP3   OH265193   1.699   1.949   3.509 -0.1125 -0.0345 -0.4119
14593TIP3    H165194   1.735   2.037   3.519  0.4762 -0.2817 -0.3460
14593TIP3    H265195   1.608   1.957   3.538 -0.1987  0.6565 -0.8459
14594TIP3   OH265196   4.949   0.265   3.087 -0.0493 -0.1538  0.3462
14594TIP3    H165197   5.010   0.204   3.046  2.4405  2.0432  0.4866
14594TIP3    H265198   4.993   0.296   3.165 -1.6679  1.0245  0.8668
14595TIP3   OH265199   2.941   5.729   3.940 -0.1719  0.2015  0.6454
14595TIP3    H165200   2.928   5.743   3.846  0.7848 -1.1186  0.2961
14595TIP3    H265201   2.853   5.716   3.974 -0.4785 -0.0229 -0.1926
14596TIP3   OH265202   1.041   1.561   0.822 -0.1578 -0.3706 -0.3277
14596TIP3    H165203   0.998   1.550   0.737 -0.3435  0.7824 -0.4042
14596TIP3    H265204   1.036   1.475   0.862 -1.8748 -0.4763 -0.6654
14597TIP3   OH265205   4.881   0.237   5.672 -0.1021  0.1641 -0.0657
14597TIP3    H165206   4.831   0.160   5.700  1.5535 -0.1051  2.4122
14597TIP3    H265207   4.896   0.222   5.579 -2.8700 -0.6913 -0.4765
14598TIP3   OH265208   2.080   3.647   5.212  0.3329  0.7948 -0.2228
14598TIP3    H165209   1.998   3.652   5.164  0.4301 -0.2966 -0.5365
14598TIP3    H265210   2.105   3.554   5.207  1.5690  1.1041 -0.1174
14599TIP3   OH265211   4.061   6.562  13.838 -0.7959 -0.0340 -1.0513
14599TIP3    H165212   3.972   6.598  13.841 -0.5009  0.6540 -0.0607
14599TIP3    H265213   4.076   6.544  13.745 -1.7084  0.5022 -1.3196
14600TIP3   OH265214   4.761   1.336  12.125 -0.2852  0.0818 -0.4142
14600TIP3    H165215   4.786   1.262  12.070  1.7379 -1.2488  2.0937
14600TIP3    H265216   4.669   1.351  12.104 -0.8626 -3.2959 -0.9275
14601TIP3   OH265217   0.868   4.857  11.955  0.0399  0.4784 -0.1022
14601TIP3    H165218   0.793   4.915  11.939  0.0990  0.3437 -0.8669
14601TIP3    H265219   0.896   4.880  12.044 -0.3575  1.1499 -0.1387
14602TIP3   OH265220   4.003   0.704  16.503 -0.3932 -0.3300 -0.0078
14602TIP3    H165221   3.995   0.798  16.484  0.4787 -0.5328 -1.5565
14602TIP3    H265222   3.913   0.675  16.520 -0.5634  0.9618  1.4853
14603TIP3   OH265223   4.384   4.211  16.377 -0.0119  0.7316 -0.1335
14603TIP3    H165224   4.451   4.208  16.446 -0.3750  2.0527  0.3022
14603TIP3    H265225   4.425   4.166  16.303  1.6624  2.1376 -0.1180
14604TIP3   OH265226   3.785   3.307  12.005 -0.2451  0.2299  0.4676
14604TIP3    H165227   3.739   3.289  11.923 -1.9755 -2.3355  1.8651
14604TIP3    H265228   3.878   3.308  11.981 -0.6758 -0.9119 -1.4746
14605TIP3   OH265229   2.453   2.511   1.909 -0.2710  0.2313 -0.5707
14605TIP3    H165230   2.468   2.605   1.897  3.0205 -0.3797 -2.3645
14605TIP3    H265231   2.533   2.479   1.950 -0.5833 -2.0763 -1.6259
14606TIP3   OH265232   2.188   3.799   1.284 -0.5983 -0.1067  0.3141
14606TIP3    H165233   2.108   3.846   1.260 -0.6001 -0.5200 -0.5213
14606TIP3    H265234   2.211   3.749   1.206 -0.5607 -1.4371  1.1367
14607TIP3   OH265235   0.627   6.603  12.274 -0.2079  0.4203  0.4409
14607TIP3    H165236   0.684   6.656  12.329 -0.2053 -0.0789  0.9291
14607TIP3    H265237   0.550   6.658  12.260 -0.5338  0.2829  1.5704
14608TIP3   OH265238   3.184   4.620  16.621 -0.1065 -0.6639 -0.5666
14608TIP3    H165239   3.172   4.555  16.691 -1.2769  0.5340  0.3995
14608TIP3    H265240   3.245   4.684  16.658 -1.6943  0.6496 -0.0958
14609TIP3   OH265241   5.217   6.321   4.019  0.2119 -0.1190  0.3341
14609TIP3    H165242   5.253   6.232   4.012  0.1660 -0.1120  0.0100
14609TIP3    H265243   5.159   6.317   4.095 -0.3141 -0.5546 -0.0734
14610TIP3   OH265244   3.267   4.456   2.930 -0.6070 -0.0699 -0.5801
14610TIP3    H165245   3.200   4.524   2.929 -0.7217 -0.1810 -0.5333
14610TIP3    H265246   3.219   4.375   2.911 -0.3800 -0.0552 -1.2300
14611TIP3   OH265247   5.203   4.329  16.477  0.0643  0.7771 -0.3159
14611TIP3    H165248   5.191   4.324  16.382  0.3902  1.1520 -0.3780
14611TIP3    H265249   5.147   4.401  16.505  0.8739  1.4519 -0.3880
14612TIP3   OH265250   6.585   0.270  14.031  0.0602 -0.1166  0.1590
14612TIP3    H165251   6.544   0.326  13.966 -0.8320  0.8767  1.5048
14612TIP3    H265252   6.668   0.315  14.051 -0.7266  0.8743  1.3525
14613TIP3   OH265253   1.943   2.427  13.750 -0.3035 -0.0302 -0.6788
14613TIP3    H165254   2.015   2.481  13.717  1.3745 -3.2136 -2.7832
14613TIP3    H265255   1.977   2.389  13.831 -0.4940  0.1672 -0.5062
14614TIP3   OH265256   0.093   6.185  11.578  0.2778 -0.5137 -0.4085
14614TIP3    H165257   0.066   6.148  11.663 -0.0490 -1.4033 -0.8798
14614TIP3    H265258   0.013   6.185  11.526  0.4698  0.0611 -0.7059
14615TIP3   OH265259   3.994   6.184   4.338  0.1075 -0.4431 -0.6012
14615TIP3    H165260   3.910   6.140   4.330  0.2331 -1.2964  2.0640
14615TIP3    H265261   4.057   6.113   4.350  0.6129  0.3195  1.5633
14616TIP3   OH265262   4.506   5.595  11.697  0.1663  0.4601  0.5165
14616TIP3    H165263   4.461   5.679  11.705 -0.6358 -0.1318  3.6777
14616TIP3    H265264   4.444   5.531  11.733  1.1930 -1.3429 -0.7497
14617TIP3   OH265265   4.519   3.517  10.796 -0.2383 -0.0367 -0.2467
14617TIP3    H165266   4.550   3.481  10.879 -0.3730 -0.8867 -0.5515
14617TIP3    H265267   4.525   3.612  10.807 -1.0472 -0.1086  1.0395
14618TIP3   OH265268   2.275   0.404  12.342  0.0723  0.4372 -0.4172
14618TIP3    H165269   2.210   0.428  12.276  0.6849  1.3813 -0.7079
14618TIP3    H265270   2.356   0.446  12.312  1.1440 -1.6799 -0.7019
14619TIP3   OH265271   5.468   0.347   0.921  0.0168 -0.0123 -0.2066
14619TIP3    H165272   5.556   0.334   0.886  0.0489 -1.2402  0.2775
14619TIP3    H265273   5.413   0.364   0.844  0.4020 -0.8338 -0.6692
14620TIP3   OH265274   3.390   0.629  16.048  0.1438  0.1758 -0.3493
14620TIP3    H165275   3.320   0.602  15.989  0.1935 -1.8818  0.4615
14620TIP3    H265276   3.464   0.647  15.990 -0.6749  1.1878 -1.1156
14621TIP3   OH265277   2.599   2.761  16.325  0.9992  0.3642  0.1820
14621TIP3    H165278   2.618   2.741  16.233 -0.1889  1.2589 -0.2878
14621TIP3    H265279   2.611   2.677  16.370 -2.7511 -1.3319 -1.5118
14622TIP3   OH265280   5.785   3.875   3.688  0.0359 -0.4042  0.0975
14622TIP3    H165281   5.767   3.881   3.782  0.8721  1.7500  0.1810
14622TIP3    H265282   5.880   3.871   3.682  0.0439  0.5853 -0.6762
14623TIP3   OH265283   3.320   2.880  15.760 -0.4861  0.3866 -0.4004
14623TIP3    H165284   3.269   2.813  15.714  1.5015 -0.0516 -2.1477
14623TIP3    H265285   3.404   2.838  15.778 -0.2668  1.4557  1.2920
14624TIP3   OH265286   5.592   3.343  13.010  0.2426  0.4302 -0.7639
14624TIP3    H165287   5.596   3.263  12.957 -0.4194  1.1273 -1.9131
14624TIP3    H265288   5.548   3.407  12.953 -1.2137  0.9973  0.9229
14625TIP3   OH265289   1.991   0.011  16.286  0.4836  0.2937  0.1744
14625TIP3    H165290   1.969  -0.005  16.377 -0.3576  2.1139  0.3247
14625TIP3    H265291   2.061   0.076  16.289  1.0439 -0.2583 -0.4786
14626TIP3   OH265292   6.358   2.930   4.355 -0.0494 -0.7042  0.0554
14626TIP3    H165293   6.439   2.889   4.326  1.1909 -0.4130  2.7786
14626TIP3    H265294   6.367   3.022   4.329  1.1189 -0.4011  1.4389
14627TIP3   OH265295   6.371   5.924   0.912  0.1314  0.1806  1.1214
14627TIP3    H165296   6.454   5.946   0.869 -1.3330  0.4235 -1.8762
14627TIP3    H265297   6.371   5.828   0.914 -0.3795  0.0761 -0.9797
14628TIP3   OH265298   6.396   3.656   2.454 -0.0328 -0.2321 -0.3267
14628TIP3    H165299   6.310   3.628   2.422 -0.0940 -0.7113  0.2401
14628TIP3    H265300   6.377   3.726   2.516 -0.2495 -2.0260  1.7731
14629TIP3   OH265301   2.284   6.017   3.991  0.8042  0.4226 -0.2092
14629TIP3    H165302   2.334   6.008   3.910 -0.1604 -0.1643 -0.7507
14629TIP3    H265303   2.220   6.085   3.973 -1.1361 -1.4806 -0.8587
14630TIP3   OH265304   1.467   4.606  13.564  0.4908 -0.0396  0.2872
14630TIP3    H165305   1.414   4.603  13.485 -0.2034  0.8358  0.7008
14630TIP3    H265306   1.446   4.526  13.611 -1.4623  0.8682  1.0529
14631TIP3   OH265307   5.510   1.634  12.500  0.3263 -0.1265  0.0846
14631TIP3    H165308   5.473   1.607  12.584  0.1291 -0.2732 -0.0479
14631TIP3    H265309   5.605   1.630  12.513  0.3028 -1.1351 -0.0104
14632TIP3   OH265310   6.657   3.878  11.629 -0.1792 -0.7204 -0.1387
14632TIP3    H165311   6.730   3.818  11.636 -0.8305 -1.4559  0.6168
14632TIP3    H265312   6.623   3.886  11.718 -2.2151 -1.9428 -0.7296
14633TIP3   OH265313   4.411   3.813  16.267  0.2969  0.1758 -0.1453
14633TIP3    H165314   4.466   3.888  16.246  0.4298  0.4273  1.0344
14633TIP3    H265315   4.323   3.840  16.243  0.3022  0.8351  0.5192
14634TIP3   OH265316   1.793   0.541   1.034 -0.0398 -0.1406 -0.3788
14634TIP3    H165317   1.787   0.446   1.028 -1.6954 -0.0363 -0.7042
14634TIP3    H265318   1.814   0.569   0.944  1.6962 -0.2399 -0.0451
14635TIP3   OH265319   4.538   6.334   3.028 -0.5271 -0.0174 -0.4720
14635TIP3    H165320   4.612   6.392   3.044 -0.0224 -1.2059  2.2112
14635TIP3    H265321   4.461   6.387   3.049 -0.1219  0.0376  1.0480
14636TIP3   OH265322   6.354   1.587  12.197  0.5104  0.9279 -0.3702
14636TIP3    H165323   6.289   1.622  12.257 -0.7692 -0.1439 -1.0753
14636TIP3    H265324   6.313   1.509  12.160  1.3480  1.4010 -2.4306
14637TIP3   OH265325   3.709   5.531   0.846  0.4862  0.0535 -0.1781
14637TIP3    H165326   3.692   5.620   0.878  0.8825 -0.1528  0.6343
14637TIP3    H265327   3.792   5.538   0.798  0.1959  0.2458 -0.6555
14638TIP3   OH265328   3.498   0.509  12.950  0.3138  0.1881  0.2678
14638TIP3    H165329   3.429   0.544  12.893 -0.3814  0.9070  1.4997
14638TIP3    H265330   3.543   0.443  12.897 -0.0835  1.0742 -1.2132
14639TIP3   OH265331   3.158   2.010  12.796  0.0603  0.7462  0.4240
14639TIP3    H165332   3.244   1.976  12.770  0.3455  2.6537 -1.4983
14639TIP3    H265333   3.099   1.977  12.728 -0.5025  0.4743  1.0412
14640TIP3   OH265334   5.955   3.678   1.152 -0.3337  0.0826 -0.3279
14640TIP3    H165335   5.908   3.676   1.069  0.9846 -1.7469 -1.0787
14640TIP3    H265336   6.044   3.650   1.131 -0.1611 -1.2238  1.8027
14641TIP3   OH265337   4.979   5.935  11.429  0.2211  0.6893  0.2047
14641TIP3    H165338   4.956   5.890  11.348 -1.0670 -0.8236  1.3495
14641TIP3    H265339   4.895   5.948  11.474  1.0498 -0.3207  2.1767
14642TIP3   OH265340   5.468   2.053  14.342  0.4030 -0.0204  0.3265
14642TIP3    H165341   5.375   2.057  14.364  0.7503 -0.3993  2.0765
14642TIP3    H265342   5.485   2.133  14.293 -0.8308  0.0823  0.0281
14643TIP3   OH265343   4.141   4.940   5.858 -0.6207 -0.3250  0.1573
14643TIP3    H165344   4.176   4.858   5.823 -0.7870 -0.3255 -0.0103
14643TIP3    H265345   4.165   4.939   5.951 -0.1113 -0.2880  0.0312
14644TIP3   OH265346   6.374   2.597  16.574  0.4428 -0.1620  0.3634
14644TIP3    H165347   6.439   2.658  16.541  0.1939 -0.1995 -0.2112
14644TIP3    H265348   6.425   2.524  16.610  0.7176 -0.6402 -0.9457
14645TIP3   OH265349   5.404   2.474  11.287  0.0065  0.0302 -0.2520
14645TIP3    H165350   5.343   2.465  11.214  1.7758 -0.7423 -1.7008
14645TIP3    H265351   5.370   2.548  11.337  0.1393  2.3530 -3.3138
14646TIP3   OH265352   5.511   3.828   2.931 -0.0175 -0.4381 -0.6480
14646TIP3    H165353   5.433   3.882   2.933  0.6171  0.5265 -1.3086
14646TIP3    H265354   5.509   3.780   3.014 -1.9857 -1.4301 -1.2072
14647TIP3   OH265355   2.004   1.874   2.659 -0.2144  0.4517 -0.2624
14647TIP3    H165356   1.962   1.794   2.690 -0.1896  0.5585  0.0499
14647TIP3    H265357   2.031   1.919   2.738  2.2150 -0.5076 -0.4545
14648TIP3   OH265358   4.052   3.200   2.517  0.3574  0.0876  0.5486
14648TIP3    H165359   4.006   3.167   2.594 -0.5648 -0.7925 -0.3368
14648TIP3    H265360   3.987   3.196   2.447  1.2335  0.6663 -0.3236
14649TIP3   OH265361   0.646   5.475   0.243 -0.2647  0.4554 -0.2060
14649TIP3    H165362   0.551   5.482   0.239 -0.1734  1.5084 -1.2144
14649TIP3    H265363   0.675   5.490   0.152  0.9514  2.0083  0.3856
14650TIP3   OH265364   5.904   4.491   4.195  0.2322 -0.2064 -0.1356
14650TIP3    H165365   5.889   4.433   4.270  0.8529 -2.4988 -1.6537
14650TIP3    H265366   5.853   4.452   4.124  0.2294  1.4730 -1.1075
14651TIP3   OH265367   5.584   2.457  16.223 -0.3279 -0.9498  0.6903
14651TIP3    H165368   5.515   2.466  16.157  0.5185 -2.7548 -0.5267
14651TIP3    H265369   5.576   2.368  16.255 -0.4579 -0.2367  2.8025
14652TIP3   OH265370   4.925   0.417   0.525  0.4122  0.3845 -0.4666
14652TIP3    H165371   4.956   0.507   0.532  1.3262  0.0467  0.0393
14652TIP3    H265372   4.957   0.374   0.605  1.5416 -0.8266 -1.5036
14653TIP3   OH265373   4.014   0.717   2.017 -0.2096 -0.0445 -0.2066
14653TIP3    H165374   4.043   0.625   2.018  1.3605  0.4162 -0.1340
14653TIP3    H265375   3.937   0.718   2.073  0.5520 -1.0872  0.9230
14654TIP3   OH265376   3.724   6.758   3.284  0.3382 -0.2116  0.3557
14654TIP3    H165377   3.653   6.694   3.274  0.3811 -0.4997  1.7190
14654TIP3    H265378   3.785   6.717   3.346  0.6170  0.9251  0.8630
14655TIP3   OH265379   1.871   2.069  15.230 -0.0606 -0.2867  0.3209
14655TIP3    H165380   1.884   2.136  15.298 -0.7929 -0.4121  0.5968
14655TIP3    H265381   1.806   2.010  15.267 -1.6682  0.5097 -1.0923
14656TIP3   OH265382   4.267   1.917   0.086 -0.5870  0.0641  0.3124
14656TIP3    H165383   4.350   1.954   0.116 -0.1237 -0.7167  0.0081
14656TIP3    H265384   4.257   1.950  -0.003 -0.0080 -0.7937 -0.0805
14657TIP3   OH265385   6.055   5.387   2.155 -0.2293 -0.3727  0.3448
14657TIP3    H165386   6.003   5.456   2.114  0.8923  1.0839  1.2665
14657TIP3    H265387   6.003   5.357   2.229 -0.0647  0.6295  0.8857
14658TIP3   OH265388   1.969   3.702  13.714 -0.1051  0.0547 -0.3918
14658TIP3    H165389   2.051   3.735  13.678 -0.0921  1.6595  0.9713
14658TIP3    H265390   1.978   3.715  13.809 -0.4338 -3.2374  0.2200
14659TIP3   OH265391   3.893   2.207   0.009  0.1650  0.8524  0.2358
14659TIP3    H165392   3.872   2.296  -0.018  0.0683  0.3463 -1.5483
14659TIP3    H265393   3.950   2.174  -0.061 -0.3743 -0.7128  0.4881
14660TIP3   OH265394   2.513   5.530   4.197  0.2064  0.4183 -0.0127
14660TIP3    H165395   2.513   5.439   4.168  1.6424  0.0936  0.9186
14660TIP3    H265396   2.576   5.574   4.140 -2.0048  1.3849 -1.8953
14661TIP3   OH265397   0.174   0.210   2.432  0.0485  0.3719  0.6427
14661TIP3    H165398   0.083   0.234   2.414  0.4659  1.5920  0.0423
14661TIP3    H265399   0.207   0.280   2.488  1.3448  1.4126 -1.2884
14662TIP3   OH265400   4.263   0.742   1.509  0.2514  0.5082  0.2413
14662TIP3    H165401   4.226   0.779   1.589 -2.1281 -0.7614 -0.1606
14662TIP3    H265402   4.314   0.667   1.538  0.6985  0.9728  0.6667
14663TIP3   OH265403   3.269   3.973  14.480 -0.1018  0.2909  0.2691
14663TIP3    H165404   3.180   3.950  14.455 -0.3630  1.8856 -0.3824
14663TIP3    H265405   3.262   4.009  14.569 -0.0519  0.0929  0.3537
14664TIP3   OH265406   2.991   6.520  11.903 -0.2070  0.3094 -0.5807
14664TIP3    H165407   2.980   6.541  11.996  0.9362 -0.9308 -0.1475
14664TIP3    H265408   2.925   6.575  11.859 -0.9920  0.6777  0.9682
14665TIP3   OH265409   6.372   5.021  15.264  0.2610  0.4789  0.7114
14665TIP3    H165410   6.321   5.079  15.321 -0.0170  0.1145  0.8440
14665TIP3    H265411   6.441   5.076  15.229 -0.3565  1.0437  0.3596
14666TIP3   OH265412   2.285   1.886  10.423  0.0807 -0.3411 -0.0859
14666TIP3    H165413   2.341   1.813  10.396 -0.3294 -0.7495  0.1557
14666TIP3    H265414   2.335   1.929  10.492 -0.3396 -1.3566  0.8994
14667TIP3   OH265415   4.834   1.229   3.967  0.0355  0.3367 -0.3457
14667TIP3    H165416   4.766   1.162   3.955  0.0918  0.5344 -2.0734
14667TIP3    H265417   4.822   1.261   4.056  0.0370 -2.0012  0.5654
14668TIP3   OH265418   0.594   1.914   0.695 -0.5215 -0.5003  0.0336
14668TIP3    H165419   0.530   1.850   0.665  1.0630 -1.6710 -1.0128
14668TIP3    H265420   0.629   1.877   0.776  0.9008 -1.3983 -0.9344
14669TIP3   OH265421   1.914   0.994  13.872 -0.3268  0.8985 -0.0285
14669TIP3    H165422   1.886   0.902  13.873 -0.3168  0.7849 -3.0486
14669TIP3    H265423   2.010   0.989  13.873 -0.3267  0.9279  0.5266
14670TIP3   OH265424   5.246   6.784  10.718  0.6851  0.0877 -0.3229
14670TIP3    H165425   5.301   6.861  10.732 -0.4019  0.8716 -0.2152
14670TIP3    H265426   5.242   6.742  10.804 -1.2682  1.6957  0.4685
14671TIP3   OH265427   4.291   6.253  10.837 -0.5052 -0.0865 -0.2180
14671TIP3    H165428   4.379   6.227  10.811 -0.9073 -1.4685 -0.2798
14671TIP3    H265429   4.263   6.316  10.770  0.4658  0.4776 -0.1157
14672TIP3   OH265430   5.522   0.079   1.051 -0.2718  0.3790 -0.0186
14672TIP3    H165431   5.439   0.079   1.002  0.3933  2.6342 -1.2890
14672TIP3    H265432   5.588   0.099   0.985  1.4242 -1.7953  0.8804
14673TIP3   OH265433   3.434   2.803  13.874 -0.2622  0.3869  0.2809
14673TIP3    H165434   3.523   2.828  13.900 -0.7467  1.7324  0.7228
14673TIP3    H265435   3.403   2.748  13.945  1.2086 -2.6296 -1.1984
14674TIP3   OH265436   3.808   3.197   0.287  0.5448 -0.0748 -0.0461
14674TIP3    H165437   3.889   3.157   0.257  1.3915  1.5515 -0.0775
14674TIP3    H265438   3.830   3.290   0.297 -1.5405  0.5664 -0.8693
14675TIP3   OH265439   6.207   1.005  11.470 -0.9244  0.2940  0.8465
14675TIP3    H165440   6.171   1.086  11.505 -1.6106  0.8448 -0.9991
14675TIP3    H265441   6.148   0.981  11.399  2.2245  1.3169 -2.4429
14676TIP3   OH265442   2.520   4.909  13.775 -0.2685  0.3504  0.4526
14676TIP3    H165443   2.575   4.969  13.825  0.6401 -0.0351 -0.0633
14676TIP3    H265444   2.436   4.954  13.769  0.5574  1.8642 -0.4394
14677TIP3   OH265445   0.888   4.655   1.156  0.0801 -0.1495 -0.1065
14677TIP3    H165446   0.913   4.748   1.150  1.8600 -0.5846  0.0381
14677TIP3    H265447   0.949   4.618   1.219 -0.6752 -1.4207 -0.0901
14678TIP3   OH265448   5.675   4.112  11.756  0.1494 -0.3151 -0.4747
14678TIP3    H165449   5.651   4.181  11.694 -0.5140 -0.7053 -0.6649
14678TIP3    H265450   5.640   4.031  11.717  0.8353 -0.7483 -0.2130
14679TIP3   OH265451   0.447   0.345  16.388 -0.1610 -0.0567  0.3020
14679TIP3    H165452   0.528   0.389  16.413  0.3713 -0.4916 -0.6057
14679TIP3    H265453   0.400   0.409  16.334 -0.4812  0.2326  0.9127
14680TIP3   OH265454   3.985   2.552   2.550  0.1662  0.5007  0.1729
14680TIP3    H165455   3.988   2.538   2.644 -1.1593  1.3387  0.3684
14680TIP3    H265456   4.076   2.550   2.522  0.4814 -1.5509  1.1786
14681TIP3   OH265457   1.105   1.914   6.153  0.4396 -0.1147 -0.8149
14681TIP3    H165458   1.056   1.836   6.130 -0.3147 -0.3057  1.2137
14681TIP3    H265459   1.155   1.889   6.231  0.2625  1.3791 -0.1808
14682TIP3   OH265460   0.126   3.564  12.131 -0.1305  0.2426  0.2645
14682TIP3    H165461   0.054   3.509  12.099  0.2177 -0.6666  1.0045
14682TIP3    H265462   0.094   3.599  12.214  0.7800 -1.3130  1.3227
14683TIP3   OH265463   2.991   1.236   5.212  0.2630 -0.2522  0.1639
14683TIP3    H165464   2.921   1.229   5.147  0.1076 -0.6926  0.3741
14683TIP3    H265465   3.058   1.290   5.170 -0.1267  0.0195 -0.1066
14684TIP3   OH265466   5.715   0.281   2.918  0.5574  0.2937  0.2758
14684TIP3    H165467   5.670   0.357   2.956 -0.1023 -0.7096  1.5982
14684TIP3    H265468   5.797   0.274   2.968 -0.3390 -1.0644  1.6588
14685TIP3   OH265469   4.190   0.933  13.227 -0.1099  0.1889 -0.3669
14685TIP3    H165470   4.152   0.979  13.152 -1.6045 -2.8839 -1.6587
14685TIP3    H265471   4.125   0.943  13.296  0.6114  1.7901  0.1433
14686TIP3   OH265472   2.911   0.905   3.758  0.1811 -0.4021  0.7215
14686TIP3    H165473   2.921   0.996   3.730  0.9161 -0.6049  0.3004
14686TIP3    H265474   2.999   0.869   3.754  0.1862 -0.6668  2.5709
14687TIP3   OH265475   2.606   6.108   0.156  0.3346 -0.0761  0.7665
14687TIP3    H165476   2.577   6.182   0.102 -1.1404 -0.3219  1.1869
14687TIP3    H265477   2.692   6.085   0.121 -0.5914 -0.2852 -1.5384
14688TIP3   OH265478   3.917   4.843   4.140  0.5545 -0.2786  0.1287
14688TIP3    H165479   3.980   4.886   4.198  0.0660  0.5964  0.0303
14688TIP3    H265480   3.964   4.767   4.107  2.6732  1.8159 -2.1496
14689TIP3   OH265481   3.293   5.454  16.748 -0.2119 -0.3127  0.1407
14689TIP3    H165482   3.351   5.474  16.822  0.1375 -0.8886  0.0284
14689TIP3    H265483   3.349   5.462  16.671 -0.6452  0.5727 -0.1018
14690TIP3   OH265484   6.786   6.190  14.823 -0.2461  0.6821  0.3941
14690TIP3    H165485   6.857   6.237  14.780 -0.0874 -0.0540 -0.1581
14690TIP3    H265486   6.830   6.127  14.880 -0.4314 -0.5511 -0.7908
14691TIP3   OH265487   3.221   5.593   3.136 -0.0360  0.0651  0.4825
14691TIP3    H165488   3.241   5.584   3.230  1.0193 -0.1827  0.2504
14691TIP3    H265489   3.211   5.687   3.123  2.5655  0.3968  0.3605
14692TIP3   OH265490   0.940   5.115  14.976 -0.4847 -0.3518  0.5446
14692TIP3    H165491   1.026   5.157  14.969 -0.7104  0.2443  1.2918
14692TIP3    H265492   0.919   5.089  14.886  0.2560 -0.0629  0.2792
14693TIP3   OH265493   3.512   5.014  10.511  0.1079 -0.2735 -0.4487
14693TIP3    H165494   3.541   5.053  10.429 -0.5022  1.0020 -0.0775
14693TIP3    H265495   3.457   5.081  10.552 -0.1123 -1.1255  0.7074
14694TIP3   OH265496   5.101   4.463  14.238  0.1281 -0.5473  0.3158
14694TIP3    H165497   5.148   4.519  14.299 -0.8763 -0.5108  1.0783
14694TIP3    H265498   5.050   4.523  14.184  0.8114 -0.5960 -0.4012
14695TIP3   OH265499   6.657   1.780  11.941 -0.5312  0.5212  0.0698
14695TIP3    H165500   6.568   1.809  11.963  0.1681  0.9345  2.7430
14695TIP3    H265501   6.655   1.685  11.956 -0.8789  0.2974 -1.3181
14696TIP3   OH265502   5.452   1.301  13.100  0.4647  0.4439  0.2607
14696TIP3    H165503   5.411   1.217  13.121  2.9917 -0.9906 -0.1497
14696TIP3    H265504   5.431   1.316  13.008 -1.5129  1.2405  0.7965
14697TIP3   OH265505   0.946   0.478   2.091  0.1375  0.3766  0.0098
14697TIP3    H165506   0.943   0.397   2.040  0.8085 -0.4824  1.2942
14697TIP3    H265507   0.856   0.511   2.088 -0.6630 -1.5381  1.2097
14698TIP3   OH265508   6.142   0.294   4.271 -0.1938 -0.2205  0.2588
14698TIP3    H165509   6.131   0.339   4.187 -1.2935  1.0108  1.0207
14698TIP3    H265510   6.060   0.311   4.318  0.3025 -1.0987  1.4843
14699TIP3   OH265511   5.038   2.277   2.819 -0.5570  0.2948 -0.1725
14699TIP3    H165512   5.099   2.205   2.831  0.2683  0.5810 -2.2200
14699TIP3    H265513   4.953   2.235   2.807 -0.1037 -0.3628 -1.2211
14700TIP3   OH265514   5.278   6.765   4.802 -0.3427  0.2087 -0.2565
14700TIP3    H165515   5.279   6.674   4.771 -0.6613 -0.6283  1.9653
14700TIP3    H265516   5.196   6.801   4.768 -1.1437 -0.9514  0.3945
14701TIP3   OH265517   4.725   2.511  17.037  0.2542 -0.0544 -0.7194
14701TIP3    H165518   4.669   2.468  17.102 -0.1428 -1.1451 -1.7478
14701TIP3    H265519   4.805   2.458  17.036  0.1531 -0.2018 -1.3007
14702TIP3   OH265520   1.667   5.509  12.699 -0.3257  0.1391 -0.2723
14702TIP3    H165521   1.594   5.449  12.710 -0.1397 -0.1111 -0.4017
14702TIP3    H265522   1.638   5.590  12.742 -0.5465 -0.0640 -0.0333
14703TIP3   OH265523   5.948   2.541   4.524  0.5231  0.0545 -0.5511
14703TIP3    H165524   6.038   2.570   4.540  0.8269 -0.2279 -1.7021
14703TIP3    H265525   5.953   2.446   4.527 -0.2407  0.0274  1.9491
14704TIP3   OH265526   3.325   6.469  13.357  0.5159  0.0605 -0.0068
14704TIP3    H165527   3.373   6.547  13.329  0.9642 -0.7250 -1.5192
14704TIP3    H265528   3.289   6.432  13.276  0.8694 -1.6539  0.5756
14705TIP3   OH265529   2.953   6.737  15.544  0.1266  0.4162  0.1489
14705TIP3    H165530   2.985   6.664  15.490  0.0438  1.1172 -0.8681
14705TIP3    H265531   2.867   6.708  15.575  0.5095 -0.3121  0.5570
14706TIP3   OH265532   6.799   0.700   1.084 -0.8377  0.4507 -0.2706
14706TIP3    H165533   6.829   0.787   1.057 -1.0960  0.7812  0.4910
14706TIP3    H265534   6.785   0.653   1.002 -1.7155  1.4763 -0.7159
14707TIP3   OH265535   1.194   1.729  12.183 -0.1220  0.0617  0.0438
14707TIP3    H165536   1.122   1.765  12.133 -0.0231 -1.6797 -1.4580
14707TIP3    H265537   1.247   1.681  12.119  0.1668 -2.0308  1.7103
14708TIP3   OH265538   6.262   4.688   1.815  0.4033 -0.3618 -0.0061
14708TIP3    H165539   6.318   4.622   1.857  1.7302  1.5261  1.4220
14708TIP3    H265540   6.305   4.771   1.836 -0.6868  0.9320 -2.4783
14709TIP3   OH265541   5.916   6.210   4.850 -0.4489 -0.3740  0.0788
14709TIP3    H165542   5.848   6.160   4.895 -0.1805 -1.7197 -0.9470
14709TIP3    H265543   5.925   6.168   4.764  2.3057 -0.8660  0.4990
14710TIP3   OH265544   6.525   1.454  10.920  0.0030  0.0125 -0.3107
14710TIP3    H165545   6.466   1.497  10.858 -0.1635  2.3611  1.3670
14710TIP3    H265546   6.488   1.366  10.932 -1.2995  0.3343 -1.7032
14711TIP3   OH265547   4.021   2.638   3.976  0.2368  1.2222 -0.1291
14711TIP3    H165548   4.012   2.682   4.060  2.5970 -0.8102  1.3401
14711TIP3    H265549   4.105   2.670   3.941  0.2300  0.6047 -0.7468
14712TIP3   OH265550   1.824   6.388  13.363 -0.1764  0.9358  0.4143
14712TIP3    H165551   1.852   6.410  13.452  1.2276 -2.1430  0.8705
14712TIP3    H265552   1.741   6.341  13.375  0.4806 -0.3204  0.2748
14713TIP3   OH265553   2.435   2.646  15.434  0.5595 -0.1094  0.1075
14713TIP3    H165554   2.526   2.655  15.405  0.3250  1.3316 -0.2341
14713TIP3    H265555   2.397   2.581  15.376  0.7897  0.8773 -1.1770
14714TIP3   OH265556   2.171   6.328   0.223  0.0024 -0.0720 -0.2565
14714TIP3    H165557   2.135   6.332   0.134 -0.8206  0.7052  0.0965
14714TIP3    H265558   2.177   6.234   0.241 -3.2372 -0.3146  0.1735
14715TIP3   OH265559   0.659   3.952  11.565  0.1275 -0.0248  0.1183
14715TIP3    H165560   0.646   3.883  11.630 -1.0567  0.0106 -0.0488
14715TIP3    H265561   0.752   3.974  11.570  0.4760 -1.4666  0.3324
14716TIP3   OH265562   0.865   0.360   4.910  0.2607 -0.5703  0.3590
14716TIP3    H165563   0.930   0.357   4.979 -0.3912 -0.7656  0.9818
14716TIP3    H265564   0.781   0.357   4.956 -0.1914 -0.0795 -0.4113
14717TIP3   OH265565   0.813   1.871  15.684  0.1782 -0.0844 -0.7877
14717TIP3    H165566   0.889   1.812  15.688  0.3768  0.2292  0.6080
14717TIP3    H265567   0.765   1.853  15.765 -0.2078  1.0840 -0.7413
14718TIP3   OH265568   6.127   6.159  16.219  0.4572  0.0044 -0.1115
14718TIP3    H165569   6.043   6.160  16.173 -0.2654 -0.2428  1.1415
14718TIP3    H265570   6.108   6.114  16.301  1.5804  0.8601  0.6423
14719TIP3   OH265571   5.189   6.185   4.831  0.1967 -0.0420  0.2575
14719TIP3    H165572   5.256   6.135   4.877  0.4921 -1.6844 -1.8020
14719TIP3    H265573   5.122   6.203   4.897  0.3374 -2.7351  1.2480
14720TIP3   OH265574   6.685   6.700   3.995 -0.1488  0.5389  0.1155
14720TIP3    H165575   6.640   6.742   4.068  0.4578  0.6993  0.4025
14720TIP3    H265576   6.615   6.657   3.945 -0.5218  0.0656  1.0233
14721TIP3   OH265577   3.837   5.202   0.705  0.2915 -0.4485 -0.0400
14721TIP3    H165578   3.837   5.243   0.792  1.4660 -0.9430  0.2098
14721TIP3    H265579   3.764   5.140   0.709  1.7636 -2.2016  1.4680
14722TIP3   OH265580   2.287   4.537   2.518 -0.9487  0.3246  0.5734
14722TIP3    H165581   2.271   4.592   2.442 -0.6926  1.3007  1.2052
14722TIP3    H265582   2.202   4.498   2.538 -2.0333  3.1685  2.1338
14723TIP3   OH265583   1.625   1.577  11.501 -0.1966  0.4660  0.7958
14723TIP3    H165584   1.545   1.622  11.527 -1.5541 -0.4596 -1.3881
14723TIP3    H265585   1.634   1.597  11.407  1.2339 -0.7381  0.6400
14724TIP3   OH265586   3.677   2.949   0.312  0.1347  0.1042 -0.2636
14724TIP3    H165587   3.715   3.036   0.323 -1.4617  0.9988 -1.4354
14724TIP3    H265588   3.626   2.955   0.231  1.9109 -2.6443 -1.7334
14725TIP3   OH265589   0.568   6.335   0.697 -0.4379  0.6341  0.1485
14725TIP3    H165590   0.500   6.280   0.657  0.5729 -0.4608 -0.1249
14725TIP3    H265591   0.533   6.424   0.690 -1.1928  0.2715 -1.3451
14726TIP3   OH265592   5.154   1.974   1.893  0.3933  0.2619  0.4038
14726TIP3    H165593   5.066   1.963   1.858  1.3133 -1.0546 -1.7398
14726TIP3    H265594   5.160   1.909   1.963 -0.0840 -0.2262  0.0024
14727TIP3   OH265595   5.049   4.870   5.441  0.3606 -0.1213  0.4992
14727TIP3    H165596   4.981   4.917   5.394 -0.3216 -1.9946 -0.4786
14727TIP3    H265597   5.003   4.824   5.511  0.9198  0.0878  1.0180
14728TIP3   OH265598   3.203   0.896   0.947 -0.2771 -0.4714  0.1411
14728TIP3    H165599   3.268   0.935   0.888  1.8650 -1.9917  1.3389
14728TIP3    H265600   3.213   0.802   0.935 -1.9245 -0.7683  0.7777
14729TIP3   OH265601   3.766   3.749   0.550  0.3798 -0.0245  0.1192
14729TIP3    H165602   3.836   3.702   0.505  0.3818  1.2394 -1.2786
14729TIP3    H265603   3.768   3.716   0.639  0.9890 -1.9579 -0.5678
14730TIP3   OH265604   3.903   1.609  12.097  0.2008  0.5116 -0.2925
14730TIP3    H165605   3.823   1.559  12.081  0.7242  0.1429 -1.9481
14730TIP3    H265606   3.888   1.692  12.052  0.9919  0.1694 -1.2297
14731TIP3   OH265607   0.569   0.492   3.460  0.0235  0.5768 -0.5488
14731TIP3    H165608   0.531   0.410   3.427 -0.6417  0.4124  0.5889
14731TIP3    H265609   0.652   0.499   3.414  0.7470 -1.4719  0.3082
14732TIP3   OH265610   6.729   2.337   3.925  0.4422 -0.0757  0.3426
14732TIP3    H165611   6.733   2.427   3.959  2.6355 -1.0106  2.9363
14732TIP3    H265612   6.664   2.294   3.981  0.6801 -0.5219  0.2749
14733TIP3   OH265613   4.236   1.696   3.468 -0.6567 -0.4207  0.1186
14733TIP3    H165614   4.324   1.719   3.497 -0.5205 -0.2651 -0.4054
14733TIP3    H265615   4.230   1.602   3.482 -0.7462 -0.2891  1.0376
14734TIP3   OH265616   4.940   2.600   0.817  0.0460 -0.1979 -0.1206
14734TIP3    H165617   4.893   2.542   0.877  0.5986 -1.1727 -0.6097
14734TIP3    H265618   4.880   2.612   0.743 -0.1373 -0.0066  0.0599
14735TIP3   OH265619   5.981   2.287   2.404  0.1174 -0.5004 -0.0689
14735TIP3    H165620   5.965   2.375   2.372 -1.4858 -1.1322 -1.0852
14735TIP3    H265621   6.059   2.296   2.459 -0.7588  1.7862  0.9336
14736TIP3   OH265622   0.899   1.287   1.883  0.7271 -0.2383  0.4673
14736TIP3    H165623   0.936   1.319   1.800  0.5757  0.8769  0.8081
14736TIP3    H265624   0.821   1.238   1.856 -2.3451  4.2408  0.0183
14737TIP3   OH265625   4.491   4.192  14.559  0.0862 -0.5756 -0.1697
14737TIP3    H165626   4.536   4.259  14.508  0.8999 -1.7573 -1.0528
14737TIP3    H265627   4.404   4.228  14.575  0.8860  1.2129  0.4563
14738TIP3   OH265628   4.123   5.206   3.579 -0.2708 -0.2988  0.0911
14738TIP3    H165629   4.162   5.289   3.608  2.2662 -2.3002  2.9797
14738TIP3    H265630   4.103   5.159   3.660  0.4559 -3.3875 -1.3835
14739TIP3   OH265631   5.362   4.796  15.178  0.0541 -0.0086  0.5790
14739TIP3    H165632   5.453   4.826  15.181  0.2590 -0.3462 -1.1602
14739TIP3    H265633   5.311   4.876  15.189  0.5762  0.3939  0.1668
14740TIP3   OH265634   3.301   1.002   0.178 -0.1474  0.8926 -0.0365
14740TIP3    H165635   3.366   0.972   0.242  0.6866  0.2501 -1.1508
14740TIP3    H265636   3.295   0.930   0.115 -0.7490  1.6249 -0.8281
14741TIP3   OH265637   3.879   4.501   0.448  0.0109 -0.5358 -0.6633
14741TIP3    H165638   3.935   4.424   0.451 -0.7950 -1.1142  1.1605
14741TIP3    H265639   3.872   4.529   0.540 -3.0292 -0.8016 -0.7067
14742TIP3   OH265640   6.667   1.649   0.167 -0.2884  1.1718  0.0313
14742TIP3    H165641   6.723   1.638   0.244  0.5733  1.1788 -0.5808
14742TIP3    H265642   6.700   1.584   0.104 -1.2055  0.9235 -0.2078
14743TIP3   OH265643   6.310   6.453  12.815  0.1226  0.2369  0.4296
14743TIP3    H165644   6.257   6.495  12.747  0.9946 -0.3274 -0.6239
14743TIP3    H265645   6.255   6.382  12.848 -0.3037  0.5112  0.3235
14744TIP3   OH265646   5.065   5.811  13.858 -0.2608 -0.6206  0.4720
14744TIP3    H165647   5.069   5.897  13.817  0.2303 -0.1397  1.4837
14744TIP3    H265648   4.972   5.792  13.867 -0.3909 -1.0685 -1.4854
14745TIP3   OH265649   3.148   2.568   3.408  0.3790 -0.1895  0.4273
14745TIP3    H165650   3.180   2.658   3.401  0.0014 -0.0129  0.9430
14745TIP3    H265651   3.134   2.555   3.501  1.7175 -1.2408  0.5143
14746TIP3   OH265652   2.761   1.821  11.889 -0.1315  0.3123 -0.3683
14746TIP3    H165653   2.674   1.831  11.850 -0.6355  0.4622  0.7559
14746TIP3    H265654   2.748   1.841  11.981  0.8701 -0.7714  0.0303
14747TIP3   OH265655   1.296   4.655   0.643  0.1489 -0.3851  0.1594
14747TIP3    H165656   1.268   4.703   0.721  1.2831 -1.0062  0.9760
14747TIP3    H265657   1.320   4.723   0.580  0.5073  0.1325  0.8396
14748TIP3   OH265658   4.202   3.102   3.811 -0.2554  0.2468  0.1892
14748TIP3    H165659   4.223   3.058   3.728 -2.1177 -0.3132 -0.0346
14748TIP3    H265660   4.220   3.195   3.794  1.6510 -0.1301 -0.0382
14749TIP3   OH265661   4.050   0.232   1.476 -0.3048  0.0750 -0.5488
14749TIP3    H165662   4.129   0.269   1.438  1.0676 -0.4694  1.5718
14749TIP3    H265663   4.037   0.150   1.429 -0.6789  1.0126 -2.1242
14750TIP3   OH265664   1.079   3.776   5.567 -0.1450  0.1452  0.3195
14750TIP3    H165665   1.110   3.855   5.611 -0.8219  1.1031 -0.8611
14750TIP3    H265666   0.987   3.793   5.547 -0.3787 -1.0525  0.2743
14751TIP3   OH265667   4.003   2.766  12.373 -0.4987 -0.4072  0.5338
14751TIP3    H165668   4.007   2.858  12.348  1.0971 -0.1996  1.4445
14751TIP3    H265669   3.997   2.767  12.468  0.6367 -1.2426  0.6317
14752TIP3   OH265670   0.398   2.041   0.244 -0.1422  0.2016  0.2726
14752TIP3    H165671   0.427   1.949   0.241 -0.1046  0.1646  1.4894
14752TIP3    H265672   0.317   2.042   0.193  0.7659 -0.1462 -1.2441
14753TIP3   OH265673   5.740   6.538   3.832 -0.2381 -0.1368 -0.1695
14753TIP3    H165674   5.830   6.516   3.856  0.1637  0.6908 -0.8892
14753TIP3    H265675   5.729   6.503   3.744 -0.4386  0.2610 -0.3033
14754TIP3   OH265676   2.128   4.037   2.956  0.2728 -0.1305  0.0821
14754TIP3    H165677   2.132   4.132   2.952  1.9624 -0.2152 -2.6952
14754TIP3    H265678   2.042   4.015   2.919  0.0649  0.2835  0.3159
14755TIP3   OH265679   2.420   1.568   3.570 -0.2324  0.0696 -0.2768
14755TIP3    H165680   2.465   1.633   3.516  1.2200 -0.6126  0.0531
14755TIP3    H265681   2.415   1.490   3.515  0.3716 -0.3188  0.1932
14756TIP3   OH265682   5.238   0.651   5.114 -0.4271 -0.2290 -0.2723
14756TIP3    H165683   5.184   0.720   5.151  1.5768  0.8384  0.8292
14756TIP3    H265684   5.177   0.599   5.061 -1.8896  2.7555 -1.7737
14757TIP3   OH265685   5.014   6.544  13.537 -0.4523 -0.2047  0.5227
14757TIP3    H165686   5.066   6.624  13.528 -0.7979  0.3940  2.9993
14757TIP3    H265687   4.924   6.573  13.521 -0.6789  0.1488  2.2377
14758TIP3   OH265688   1.412   5.973  13.740  0.4969  0.5115  0.5574
14758TIP3    H165689   1.413   6.029  13.662  1.3086  0.0725  0.2338
14758TIP3    H265690   1.449   5.890  13.710  0.7299  0.3029  1.3854
14759TIP3   OH265691   5.526   5.455   3.099 -0.4689 -0.0546 -0.1599
14759TIP3    H165692   5.612   5.446   3.058 -0.6286 -1.1365 -0.2905
14759TIP3    H265693   5.510   5.550   3.102 -0.3233  0.0874 -2.3322
14760TIP3   OH265694   4.005   6.536   2.782 -0.2209 -0.5487  0.1061
14760TIP3    H165695   4.026   6.450   2.745  3.0163  0.1189  0.1518
14760TIP3    H265696   3.991   6.518   2.875 -0.1857 -1.0998  0.0090
14761TIP3   OH265697   5.505   1.873   3.591  0.2227  0.2848  0.1092
14761TIP3    H165698   5.543   1.830   3.668 -0.3778  0.1444  0.3307
14761TIP3    H265699   5.568   1.941   3.568  0.0708  0.8072  1.1665
14762TIP3   OH265700   0.336   3.218  12.481 -0.2348  0.4925  0.1206
14762TIP3    H165701   0.386   3.163  12.541 -0.1065  1.9100  1.3603
14762TIP3    H265702   0.245   3.192  12.493 -0.0679 -0.2097 -0.1257
14763TIP3   OH265703   5.914   6.570   3.431  0.1086 -0.4046 -0.7207
14763TIP3    H165704   5.966   6.545   3.507 -0.3557  1.5747  0.3078
14763TIP3    H265705   5.823   6.550   3.456 -0.1566  1.2246 -0.2885
14764TIP3   OH265706   5.017   4.360   5.066 -0.2397  0.4251  0.1484
14764TIP3    H165707   4.961   4.435   5.086  0.0943  0.4348  1.1012
14764TIP3    H265708   5.069   4.387   4.991 -2.8442 -0.2754 -2.0884
14765TIP3   OH265709   4.795   0.340  10.997 -0.5488  0.2380 -0.0433
14765TIP3    H165710   4.816   0.429  11.025 -1.5124  0.8488 -1.1247
14765TIP3    H265711   4.703   0.329  11.019 -0.1690 -0.9117  1.0603
14766TIP3   OH265712   0.159   5.930   1.160 -0.2515  0.3244  0.2218
14766TIP3    H165713   0.087   5.874   1.131  0.4541 -0.3469 -0.2887
14766TIP3    H265714   0.201   5.880   1.230 -0.4240  0.8161  0.6769
14767TIP3   OH265715   6.318   3.654  14.165 -0.0497 -0.1759 -0.2524
14767TIP3    H165716   6.263   3.686  14.237 -0.7174  3.2906 -2.0437
14767TIP3    H265717   6.257   3.636  14.094  0.8405  2.0099 -1.7033
14768TIP3   OH265718   3.641   2.065   1.980  0.0477  0.2546 -0.9209
14768TIP3    H165719   3.651   1.983   2.029  0.6262 -0.8564 -2.7859
14768TIP3    H265720   3.598   2.125   2.041  0.5904 -1.0919  0.8634
14769TIP3   OH265721   5.449   6.426   6.484  0.0837  0.1425  0.3853
14769TIP3    H165722   5.355   6.442   6.489  0.1147  0.3625  0.2722
14769TIP3    H265723   5.488   6.513   6.480  0.2648  0.0443 -0.0620
14770TIP3   OH265724   6.527   1.428   4.920  0.1298  0.3953 -0.8750
14770TIP3    H165725   6.602   1.473   4.957  0.2692  0.7774 -1.6261
14770TIP3    H265726   6.564   1.359   4.866 -0.0740 -0.9350  0.5786
14771TIP3   OH265727   0.636   3.746  12.720  0.1807  0.4571  0.3273
14771TIP3    H165728   0.566   3.710  12.774  0.8598 -0.2296  0.7677
14771TIP3    H265729   0.603   3.831  12.692 -1.3941 -0.4144 -0.5923
14772TIP3   OH265730   5.882   1.060  15.859  0.4601 -0.1585  0.3947
14772TIP3    H165731   5.959   1.016  15.894 -0.8785 -2.3900  0.7484
14772TIP3    H265732   5.898   1.153  15.873  2.5374 -0.6387  1.5249
14773TIP3   OH265733   4.188   4.147  14.019 -0.2888  0.0840 -0.5212
14773TIP3    H165734   4.197   4.054  14.040 -1.6863  0.0404 -0.0158
14773TIP3    H265735   4.129   4.148  13.943 -2.4388  0.6402  1.0708
14774TIP3   OH265736   5.346   4.518   5.179 -0.0889 -1.2138 -1.6550
14774TIP3    H165737   5.310   4.599   5.213 -1.1515 -1.9117 -1.0383
14774TIP3    H265738   5.373   4.538   5.089  0.6091  0.0623 -1.1808
14775TIP3   OH265739   1.476   3.413  11.538  0.2372  0.1812  0.0362
14775TIP3    H165740   1.446   3.378  11.454 -0.0033 -1.7442  0.8623
14775TIP3    H265741   1.561   3.451  11.520  0.7400 -1.2959 -0.8880
14776TIP3   OH265742   1.685   4.022   5.100 -0.2558  0.2148  0.2966
14776TIP3    H165743   1.722   3.977   5.024  0.4234 -0.0386  0.7658
14776TIP3    H265744   1.630   3.956   5.142 -0.8137  0.4259 -0.1054
14777TIP3   OH265745   6.037   3.986   0.339 -0.7552 -0.3383  0.1826
14777TIP3    H165746   6.073   4.048   0.403  0.5755 -0.7646 -0.1058
14777TIP3    H265747   6.061   4.023   0.254 -1.2701 -0.4959 -0.0359
14778TIP3   OH265748   1.551   4.033  10.993 -0.1820 -0.6975  0.0994
14778TIP3    H165749   1.543   4.049  10.900 -1.0810  3.3217  0.6850
14778TIP3    H265750   1.645   4.045  11.011 -0.0171 -1.4235 -0.2385
14779TIP3   OH265751   4.500   3.722  14.960  0.0607  0.0873  0.2177
14779TIP3    H165752   4.574   3.671  14.992  1.3499  1.1871 -0.9321
14779TIP3    H265753   4.518   3.737  14.868 -1.7131  0.2294 -0.1529
14780TIP3   OH265754   1.470   2.169   0.068 -0.0551 -0.1143  0.1939
14780TIP3    H165755   1.408   2.110   0.110  0.2010 -0.3668  0.2232
14780TIP3    H265756   1.483   2.240   0.131 -1.2650  0.5998 -0.3184
14781TIP3   OH265757   3.717   0.956   1.330 -0.0620 -0.0951 -0.1022
14781TIP3    H165758   3.673   0.920   1.408  0.6843 -0.9142 -0.0501
14781TIP3    H265759   3.764   1.032   1.363 -0.0217 -0.2417  0.1901
14782TIP3   OH265760   1.585   3.347   5.913 -0.2089 -0.1677  0.0708
14782TIP3    H165761   1.497   3.345   5.875 -0.0246 -0.4923 -0.3482
14782TIP3    H265762   1.572   3.377   6.003 -0.7149  0.0810 -0.0823
14783TIP3   OH265763   6.276   3.604   0.987 -0.5321  0.1829  0.4005
14783TIP3    H165764   6.309   3.688   0.955 -0.5740 -0.1309 -0.4973
14783TIP3    H265765   6.253   3.556   0.908 -1.0119 -0.4731  0.9290
14784TIP3   OH265766   6.501   3.464  14.039  0.0814  0.0117  0.6177
14784TIP3    H165767   6.565   3.447  14.108  0.3649  1.7274  0.8313
14784TIP3    H265768   6.439   3.526  14.078 -0.7422 -0.3247 -0.1243
14785TIP3   OH265769   1.195   0.819   4.948  0.5199 -0.7283 -0.2283
14785TIP3    H165770   1.210   0.908   4.915 -3.0176  0.9266  1.9403
14785TIP3    H265771   1.274   0.799   4.999  0.6253  2.1447  0.9479
14786TIP3   OH265772   5.719   3.344   4.443  0.2808 -0.1907  0.5460
14786TIP3    H165773   5.706   3.255   4.410  1.2196  0.0524 -0.5382
14786TIP3    H265774   5.664   3.349   4.521 -1.3752 -1.0594 -0.5094
14787TIP3   OH265775   6.296   6.564   3.019  0.3631 -0.4342  0.1943
14787TIP3    H165776   6.231   6.527   3.079 -0.2396  1.3775  0.7175
14787TIP3    H265777   6.300   6.501   2.947 -1.8518 -0.7059  0.2262
14788TIP3   OH265778   6.108   2.748  16.978  0.3101  0.0458 -0.3876
14788TIP3    H165779   6.160   2.795  16.912  2.5079 -0.6711  0.7280
14788TIP3    H265780   6.069   2.675  16.930  1.4003 -0.1424 -1.0389
14789TIP3   OH265781   4.925   2.512   2.642 -0.4467 -0.3784  0.5912
14789TIP3    H165782   4.903   2.420   2.628 -2.4849  0.2103 -0.5473
14789TIP3    H265783   4.893   2.531   2.730 -0.6324 -0.6014  0.5728
14790TIP3   OH265784   1.060   3.913   2.613  0.1894  0.3818 -0.3783
14790TIP3    H165785   0.991   3.870   2.562  0.7155 -0.9768 -0.0075
14790TIP3    H265786   1.073   3.997   2.570 -2.0059  0.8847 -0.1812
14791TIP3   OH265787   2.531   3.957   0.627  0.0610 -0.0265 -0.0105
14791TIP3    H165788   2.545   4.008   0.708 -1.0440  0.0617  0.1381
14791TIP3    H265789   2.567   3.871   0.647  0.7092  0.2892  0.2193
14792TIP3   OH265790   5.868   5.120  16.776 -0.1528 -0.0452 -0.2753
14792TIP3    H165791   5.883   5.186  16.843  1.1140 -0.7279  0.1512
14792TIP3    H265792   5.826   5.167  16.704 -0.8464  0.8491  0.6904
14793TIP3   OH265793   5.468   6.344  16.891  0.5294 -0.4866  0.0363
14793TIP3    H165794   5.449   6.398  16.968 -1.4877  1.3948 -1.6500
14793TIP3    H265795   5.561   6.358  16.875  0.4462  1.1228  0.6995
14794TIP3   OH265796   0.070   6.712  14.693 -0.4625 -0.5270 -0.0104
14794TIP3    H165797  -0.018   6.676  14.681  0.5115 -2.9016 -0.7493
14794TIP3    H265798   0.106   6.715  14.604  0.3526 -0.0258  0.3338
14795TIP3   OH265799   2.330   0.472   1.452  0.0548  0.4764  0.1498
14795TIP3    H165800   2.400   0.464   1.387 -1.8849 -1.8454 -1.8336
14795TIP3    H265801   2.364   0.428   1.530  0.1306 -2.7607 -1.5259
14796TIP3   OH265802   0.003   2.509  11.641 -0.3060  0.4192 -0.6581
14796TIP3    H165803  -0.061   2.467  11.585 -0.0898 -1.5402  0.4977
14796TIP3    H265804  -0.008   2.469  11.727  2.4494 -0.0624 -0.4093
14797TIP3   OH265805   1.539   3.628   1.693  0.3842 -0.1609  0.0533
14797TIP3    H165806   1.585   3.569   1.633  1.4604  0.2013  0.4929
14797TIP3    H265807   1.486   3.684   1.635  2.7936  1.4077 -0.8089
14798TIP3   OH265808   1.347   1.844  10.955  0.7268  0.3302  0.1852
14798TIP3    H165809   1.333   1.853  10.860 -0.4296 -2.7566 -0.0469
14798TIP3    H265810   1.272   1.887  10.994 -0.2263 -0.6832 -0.4572
14799TIP3   OH265811   3.175   6.743  15.290 -0.1266  0.4036  0.1334
14799TIP3    H165812   3.143   6.654  15.307  0.8659  0.0202  0.0641
14799TIP3    H265813   3.209   6.772  15.375  2.7466 -0.6486 -0.5140
14800TIP3   OH265814   2.453   0.792   1.263 -0.4810 -0.1394  0.6136
14800TIP3    H165815   2.514   0.863   1.242 -3.0279  2.1171  0.3086
14800TIP3    H265816   2.459   0.782   1.357 -0.0120  0.4330  0.6479
14801TIP3   OH265817   6.655   0.416  14.959  0.0137 -0.7625  0.6072
14801TIP3    H165818   6.569   0.416  14.916  0.4901  0.5323 -0.4131
14801TIP3    H265819   6.708   0.355  14.908  0.1960 -0.2224  0.1365
14802TIP3   OH265820   2.368   4.090   1.025 -0.1093  0.0692 -0.0801
14802TIP3    H165821   2.360   4.154   1.096 -0.3124 -1.8065  1.6958
14802TIP3    H265822   2.278   4.078   0.993 -0.2732 -0.2803  0.4970
14803TIP3   OH265823   5.042   6.811   4.657  0.3536  0.3801  0.1929
14803TIP3    H165824   5.032   6.720   4.631 -0.3963  1.1041 -2.3459
14803TIP3    H265825   5.002   6.816   4.744 -0.8487 -1.4425 -0.2121
14804TIP3   OH265826   2.290   0.516   3.156  0.0957 -0.0495 -0.0511
14804TIP3    H165827   2.367   0.529   3.100  1.1162  0.1017  1.3393
14804TIP3    H265828   2.253   0.433   3.128  1.4359 -0.6844  0.0138
14805TIP3   OH265829   4.018   5.228  15.334  0.3610  0.0952 -0.2722
14805TIP3    H165830   3.951   5.161  15.332  0.9987 -0.5641 -2.1988
14805TIP3    H265831   4.089   5.190  15.386 -0.6197  0.7387  1.6444
14806TIP3   OH265832   2.903   0.814  16.105  0.5848 -0.4589  0.2112
14806TIP3    H165833   2.909   0.848  16.015  0.4061  1.7227  0.9638
14806TIP3    H265834   2.991   0.826  16.141  1.0003 -2.5118 -0.0166
14807TIP3   OH265835   2.106   6.422  13.227 -0.0147  0.1579  0.0577
14807TIP3    H165836   2.043   6.470  13.281 -1.5029 -1.5352 -0.1068
14807TIP3    H265837   2.187   6.422  13.279  0.1290  2.8950  0.0085
14808TIP3   OH265838   3.518   5.769  14.157 -0.2745 -0.3090 -0.0560
14808TIP3    H165839   3.610   5.780  14.183 -0.0888 -0.4079 -0.6373
14808TIP3    H265840   3.521   5.700  14.090 -0.7200 -0.0312 -0.3683
14809TIP3   OH265841   0.666   2.619  16.152 -0.5001  0.3149 -0.5447
14809TIP3    H165842   0.715   2.591  16.074 -2.0702  1.7196 -2.1102
14809TIP3    H265843   0.646   2.537  16.197  1.0299 -0.4901 -1.2220
14810TIP3   OH265844   5.370   2.100  11.831  0.0041 -0.5402  0.5858
14810TIP3    H165845   5.380   2.062  11.918 -0.1494 -0.9945  0.4073
14810TIP3    H265846   5.276   2.111  11.820 -0.0045 -0.8532  0.3225
14811TIP3   OH265847   1.756   3.059   4.487  0.5942  0.0942 -0.4619
14811TIP3    H165848   1.696   3.056   4.413  2.2883 -0.0403 -1.9050
14811TIP3    H265849   1.700   3.054   4.564 -1.1175 -2.2524 -1.7359
14812TIP3   OH265850   6.455   3.447  12.849 -0.2297  0.5136 -0.7480
14812TIP3    H165851   6.434   3.517  12.910 -0.8342 -0.1805 -0.1323
14812TIP3    H265852   6.386   3.382  12.862  0.1156 -0.0378 -1.5542
14813TIP3   OH265853   5.003   2.513   5.576 -0.2113  0.0504  0.0219
14813TIP3    H165854   5.094   2.527   5.550 -0.3007  1.2050  0.2499
14813TIP3    H265855   4.995   2.560   5.659 -0.5507 -1.5542  0.9373
14814TIP3   OH265856   5.460   5.334  15.914 -0.1524 -0.2557  0.8716
14814TIP3    H165857   5.460   5.331  15.818 -1.5496 -1.5366  0.8680
14814TIP3    H265858   5.367   5.340  15.938 -0.1307 -3.0608  2.1484
14815TIP3   OH265859   6.110   2.785  16.603  0.1547 -0.2039  0.7355
14815TIP3    H165860   6.178   2.718  16.599 -1.2540 -1.7588  1.5499
14815TIP3    H265861   6.129   2.834  16.683  0.5436 -0.3541  0.7375
14816TIP3   OH265862   1.019   6.763  15.518 -0.3717 -0.4151  0.0641
14816TIP3    H165863   1.109   6.729  15.515  0.0139  0.5502  0.4769
14816TIP3    H265864   1.004   6.797  15.430  0.0978  0.4769  0.3147
14817TIP3   OH265865   1.378   4.045   2.813 -0.0633  0.0052 -0.0613
14817TIP3    H165866   1.285   4.061   2.796  0.1802  0.2555 -1.2012
14817TIP3    H265867   1.423   4.116   2.768  0.6214  0.9508  1.9825
14818TIP3   OH265868   5.141   5.802   5.126  0.3770  0.4918 -0.2454
14818TIP3    H165869   5.130   5.885   5.173  1.9904  0.2899  0.5419
14818TIP3    H265870   5.141   5.735   5.195 -0.4703 -0.1397 -0.8341
14819TIP3   OH265871   5.460   6.039   0.693 -0.1363 -0.3899  0.8308
14819TIP3    H165872   5.424   6.094   0.762 -1.2944  0.4994 -0.4279
14819TIP3    H265873   5.470   6.097   0.618  2.0828 -1.0835  0.5094
14820TIP3   OH265874   5.113   6.157   2.327  0.1239 -0.5751  0.2362
14820TIP3    H165875   5.074   6.197   2.405 -0.5246 -0.2129 -0.2669
14820TIP3    H265876   5.206   6.178   2.334  0.0440 -0.3907  0.8169
14821TIP3   OH265877   0.797   4.951  15.128 -0.9163  0.0000  0.4254
14821TIP3    H165878   0.704   4.968  15.137 -1.0985 -0.3089 -0.7226
14821TIP3    H265879   0.826   5.013  15.061 -0.3750 -0.1657  0.5016
14822TIP3   OH265880   0.730   6.488   2.812 -0.0654  0.0067 -0.1725
14822TIP3    H165881   0.669   6.414   2.815 -0.8518  0.6745  0.8501
14822TIP3    H265882   0.675   6.564   2.796  0.8043  0.3370 -1.8486
14823TIP3   OH265883   4.897   5.064  15.615 -0.3014  0.0878 -0.7595
14823TIP3    H165884   4.809   5.099  15.603  0.3696  1.4217 -2.2993
14823TIP3    H265885   4.899   4.984  15.562 -0.7282 -0.2338 -0.2968
14824TIP3   OH265886   2.237   0.218   1.433 -0.5245 -0.1185  0.3663
14824TIP3    H165887   2.257   0.309   1.451  0.8567 -0.8607  3.0778
14824TIP3    H265888   2.208   0.182   1.517 -1.0929 -2.1810 -0.6341
14825TIP3   OH265889   5.590   4.524   4.548 -0.5802  0.5079 -0.1385
14825TIP3    H165890   5.587   4.579   4.470 -4.6111  0.7014 -0.0418
14825TIP3    H265891   5.574   4.436   4.516 -0.3485  0.3118  0.2746
14826TIP3   OH265892   3.183   0.701   3.437 -0.4299 -0.1152 -0.0591
14826TIP3    H165893   3.188   0.796   3.422 -1.1666 -0.0593 -0.0072
14826TIP3    H265894   3.273   0.674   3.452 -0.3770  0.8843  1.7721
14827TIP3   OH265895   1.703   6.191   4.688 -0.2676  0.2800  0.1019
14827TIP3    H165896   1.732   6.131   4.619 -0.2864  0.5689 -0.1586
14827TIP3    H265897   1.614   6.164   4.708 -0.0836 -0.1372  0.3811
14828TIP3   OH265898   4.340   3.856  14.583 -0.0561 -0.5389 -0.2666
14828TIP3    H165899   4.423   3.816  14.557 -0.4622 -1.7290  0.2159
14828TIP3    H265900   4.299   3.791  14.640 -0.3129  0.9745  1.3279
14829TIP3   OH265901   1.997   4.804   0.757 -0.2903 -0.3504 -0.0264
14829TIP3    H165902   2.039   4.727   0.796  0.0854 -0.5908 -0.8778
14829TIP3    H265903   2.068   4.866   0.741 -0.8227  1.0006  2.4066
14830TIP3   OH265904   3.407   0.694   2.141  0.0918 -0.2529  0.3192
14830TIP3    H165905   3.448   0.640   2.074 -1.0483  0.7219 -1.2340
14830TIP3    H265906   3.313   0.685   2.126 -0.1859  0.2352  1.6011
14831TIP3   OH265907   4.074   3.955  12.015  0.2068  0.2136  0.6785
14831TIP3    H165908   4.011   4.017  11.978  0.7405  2.1729  2.8344
14831TIP3    H265909   4.020   3.893  12.064 -0.1465  1.1490  1.4992
14832TIP3   OH265910   1.883   5.604   1.907  0.2437 -0.8014 -0.0061
14832TIP3    H165911   1.843   5.520   1.882 -0.5447 -0.1668 -0.9298
14832TIP3    H265912   1.815   5.649   1.956 -0.2882  0.3612 -1.7357
14833TIP3   OH265913   0.608   0.647   3.687  0.5243  0.2293  0.8644
14833TIP3    H165914   0.642   0.733   3.663 -2.7182  1.4265  0.0092
14833TIP3    H265915   0.597   0.601   3.603  1.0210 -0.5338  1.2087
14834TIP3   OH265916   3.985   3.243  15.201 -0.1484  0.2780  0.1150
14834TIP3    H165917   4.039   3.174  15.239 -0.8949 -0.2763  0.2097
14834TIP3    H265918   3.957   3.296  15.276  1.2303  1.2948 -0.0635
14835TIP3   OH265919   4.262   1.371   5.658  0.6192  0.3286 -0.3724
14835TIP3    H165920   4.321   1.392   5.586  0.5376 -1.9899 -1.1931
14835TIP3    H265921   4.319   1.338   5.728  0.4866  0.3005 -0.2758
14836TIP3   OH265922   1.988   5.380   1.314 -0.2821  0.0472  0.3640
14836TIP3    H165923   2.032   5.453   1.356  1.9747 -0.7087 -0.5041
14836TIP3    H265924   2.003   5.306   1.373  0.5644 -0.4384 -0.4281
14837TIP3   OH265925   3.160   1.586  15.507  0.2573  0.1712 -0.2068
14837TIP3    H165926   3.129   1.542  15.428  2.8229 -0.5864 -0.8738
14837TIP3    H265927   3.128   1.676  15.499 -0.6762 -0.2525 -1.4031
14838TIP3   OH265928   0.525   2.900  16.668  0.0567  0.2179  0.5186
14838TIP3    H165929   0.612   2.917  16.704  0.4623 -2.0031  0.7125
14838TIP3    H265930   0.482   2.986  16.668  2.0190  1.2651  0.9578
14839TIP3   OH265931   5.941   3.897   5.492  0.3551  0.5348  0.1746
14839TIP3    H165932   5.987   3.958   5.549 -0.2405 -0.2265  1.5097
14839TIP3    H265933   5.994   3.817   5.495  0.4907  0.5792 -0.6262
14840TIP3   OH265934   0.013   4.465  10.987  0.0117  0.2608 -0.3576
14840TIP3    H165935  -0.026   4.495  10.905 -0.8324 -1.3066 -0.5611
14840TIP3    H265936  -0.059   4.468  11.051 -0.3170 -1.9064 -0.5540
14841TIP3   OH265937   4.760   0.782  15.770  0.0074 -0.6666 -0.2884
14841TIP3    H165938   4.753   0.791  15.675  1.1573 -1.6242 -0.4899
14841TIP3    H265939   4.719   0.861  15.805  0.0986 -0.0185 -1.5905
14842TIP3   OH265940   4.243   1.095   2.882 -0.0685  0.1756  0.3129
14842TIP3    H165941   4.275   1.032   2.817  0.7557  2.1483 -1.3026
14842TIP3    H265942   4.269   1.057   2.966  1.2421 -1.1797 -0.6317
14843TIP3   OH265943   2.707   1.547   1.080  0.3787  0.7080  0.3854
14843TIP3    H165944   2.628   1.495   1.092  1.7854 -1.7617 -0.3366
14843TIP3    H265945   2.723   1.588   1.165 -1.4205  0.9281  0.6484
14844TIP3   OH265946   0.305   5.386  12.388 -0.0010 -0.5548 -0.0994
14844TIP3    H165947   0.309   5.353  12.298 -1.7068 -3.0422  0.6401
14844TIP3    H265948   0.257   5.319  12.436 -0.3889  1.3720  2.3970
14845TIP3   OH265949   6.682   5.425   2.925 -0.1498  0.2151  0.4549
14845TIP3    H165950   6.664   5.505   2.974  0.1383 -1.5503  3.6706
14845TIP3    H265951   6.712   5.362   2.990  2.6666 -1.6885 -2.3276
14846TIP3   OH265952   5.432   6.369  14.334  0.0687 -0.1887 -0.2669
14846TIP3    H165953   5.503   6.306  14.324 -2.3994 -3.4898  0.9316
14846TIP3    H265954   5.425   6.412  14.249  2.8302 -0.3917 -0.6666
14847TIP3   OH265955   4.947   4.307  15.723 -0.2977  0.1313  0.0791
14847TIP3    H165956   4.945   4.234  15.785  0.4173  0.5826  0.6584
14847TIP3    H265957   5.040   4.317  15.702 -0.2109  1.7371  1.0816
14848TIP3   OH265958   3.058   4.213  11.656  0.2309 -0.3466  0.0601
14848TIP3    H165959   3.029   4.200  11.565  1.9449 -1.5982 -0.3561
14848TIP3    H265960   3.036   4.304  11.675 -0.9010 -0.2848 -1.3166
14849TIP3   OH265961   1.876   3.231   0.371 -0.3323  0.0382  0.0563
14849TIP3    H165962   1.833   3.250   0.454 -2.1840  1.9688 -1.2431
14849TIP3    H265963   1.882   3.135   0.368 -1.0903 -0.1148  1.9612
14850TIP3   OH265964   4.205   1.673   0.166  0.2260  0.4011 -0.2030
14850TIP3    H165965   4.114   1.664   0.195  0.4958  1.6709  1.1632
14850TIP3    H265966   4.204   1.751   0.110  0.4106  0.1995 -0.4880
14851TIP3   OH265967   4.901   6.423   4.770 -0.4996  0.2364  0.0555
14851TIP3    H165968   4.874   6.332   4.778 -0.2187  0.1694  0.2369
14851TIP3    H265969   4.845   6.470   4.832 -1.9539  0.4664 -1.3542
14852TIP3   OH265970   2.529   5.008  15.491  0.2584 -0.1272 -1.3923
14852TIP3    H165971   2.562   4.919  15.508 -4.7296 -1.8513  1.6519
14852TIP3    H265972   2.461   4.995  15.426 -2.1690  0.8431  0.7980
14853TIP3   OH265973   2.084   0.272   1.171 -0.2040 -0.0138 -0.0023
14853TIP3    H165974   2.177   0.287   1.153 -0.1778  0.2501  0.3295
14853TIP3    H265975   2.080   0.265   1.267 -0.6385  0.7656  0.0379
14854TIP3   OH265976   3.032   0.074  13.498  0.2514  0.0270  0.3490
14854TIP3    H165977   3.069   0.150  13.543  0.9896 -0.3862  0.4465
14854TIP3    H265978   3.018   0.104  13.408  0.4780  0.2908  0.4021
14855TIP3   OH265979   3.293   1.219  13.349  0.4990 -0.0769  0.6043
14855TIP3    H165980   3.381   1.182  13.359 -0.0892 -1.9416 -0.4909
14855TIP3    H265981   3.236   1.155  13.392 -0.5387 -0.3102 -1.0242
14856TIP3   OH265982   0.075   4.817  12.501 -0.2567  0.3526  0.3939
14856TIP3    H165983  -0.004   4.832  12.553 -1.9376  1.7132 -2.3007
14856TIP3    H265984   0.065   4.728  12.467  0.0853  0.0114  1.1851
14857TIP3   OH265985   6.304   0.005  15.848  0.0817  0.3136  0.0102
14857TIP3    H165986   6.277  -0.050  15.774  0.4813 -0.3024  0.3161
14857TIP3    H265987   6.224   0.017  15.899 -0.3156  1.1807 -0.7938
14858TIP3   OH265988   4.448   5.033   3.510  0.3925 -0.5143  0.2474
14858TIP3    H165989   4.457   5.127   3.494  1.1041 -0.7515 -0.8736
14858TIP3    H265990   4.517   4.993   3.457 -0.5484 -1.7371 -0.0961
14859TIP3   OH265991   5.430   4.598  12.622 -0.0213  0.1006  0.5440
14859TIP3    H165992   5.372   4.528  12.590  0.0446  0.7359 -1.0517
14859TIP3    H265993   5.373   4.674  12.630 -0.1646 -0.1761  2.6207
14860TIP3   OH265994   6.246   0.842  14.262 -0.3366 -0.2062  0.2591
14860TIP3    H165995   6.170   0.893  14.291 -1.1316 -1.2030 -0.0375
14860TIP3    H265996   6.249   0.855  14.167  0.3453  0.4509  0.3547
14861TIP3   OH265997   3.981   1.549   0.849  0.5935 -0.0242 -0.7220
14861TIP3    H165998   3.949   1.470   0.891  1.5292 -0.8179 -1.4401
14861TIP3    H265999   3.968   1.618   0.914 -0.1544 -0.7731 -0.0495
14862TIP3   OH266000   4.975   0.840   6.410 -0.1445 -0.1219 -0.0326
14862TIP3    H166001   4.994   0.766   6.467 -0.4320  0.9461  1.4880
14862TIP3    H266002   5.023   0.820   6.329 -2.3099 -3.2293 -0.7280
14863TIP3   OH266003   3.609   2.013   1.729 -0.3437  0.1658  0.5402
14863TIP3    H166004   3.643   2.032   1.816  0.9620 -1.8130  0.5221
14863TIP3    H266005   3.524   1.971   1.745  0.5196 -1.4959  0.9796
14864TIP3   OH266006   0.446   3.573  15.069  0.6605  0.2330  0.0433
14864TIP3    H166007   0.513   3.635  15.041 -1.0950  1.2722 -2.1555
14864TIP3    H266008   0.476   3.488  15.037  2.0908  0.2100  1.3037
14865TIP3   OH266009   3.776   0.728   4.344 -0.3963  0.2388  0.0033
14865TIP3    H166010   3.698   0.680   4.373 -1.1759  1.0570 -0.6903
14865TIP3    H266011   3.844   0.704   4.407 -0.2131 -3.2501 -1.3022
14866TIP3   OH266012   3.063   0.516   2.833 -0.1091  0.1946 -0.2158
14866TIP3    H166013   2.981   0.468   2.825 -0.8076  1.5612 -1.5979
14866TIP3    H266014   3.037   0.604   2.860  1.0369  0.2243  0.8654
14867TIP3   OH266015   5.760   4.350  14.018  0.0644  0.0352  0.0496
14867TIP3    H166016   5.851   4.341  14.047 -0.4110  0.1189  1.6821
14867TIP3    H266017   5.729   4.429  14.061 -0.6873  0.2192 -0.7967
14868TIP3   OH266018   2.947   4.576  11.155 -0.5607  0.2436  0.5618
14868TIP3    H166019   3.026   4.554  11.106 -0.6472  0.4465  0.3309
14868TIP3    H266020   2.881   4.594  11.089 -0.8069  0.0588  0.7548
14869TIP3   OH266021   2.597   6.173   4.682 -0.1647 -0.3138  0.1798
14869TIP3    H166022   2.631   6.260   4.663 -0.9907  0.0225  0.1579
14869TIP3    H266023   2.629   6.153   4.770 -0.3465  0.2128  0.3721
14870TIP3   OH266024   5.546   1.957   6.263  0.5259 -0.0152  0.2392
14870TIP3    H166025   5.636   1.987   6.281  0.2748  0.0858  1.4765
14870TIP3    H266026   5.494   2.000   6.331 -0.4228 -0.2807 -0.3114
14871TIP3   OH266027   5.985   4.768  12.236 -0.4827 -0.3964 -0.4289
14871TIP3    H166028   5.908   4.773  12.179 -0.0415 -0.1042 -1.0128
14871TIP3    H266029   5.997   4.857  12.269 -1.4914 -0.8069  1.1757
14872TIP3   OH266030   1.673   4.175   6.217  0.6757  0.2914  0.2869
14872TIP3    H166031   1.741   4.205   6.156  1.4339 -1.8985 -0.0341
14872TIP3    H266032   1.721   4.135   6.289 -0.2598  1.4254  1.5894
14873TIP3   OH266033   4.946   3.049  16.851 -0.0280 -0.0243 -0.1709
14873TIP3    H166034   4.878   3.099  16.896 -0.1148  0.1106 -0.4527
14873TIP3    H266035   5.001   3.016  16.922 -0.2841  0.0125  0.0483
14874TIP3   OH266036   6.113   0.238  14.734 -0.6564  1.0754  0.0346
14874TIP3    H166037   6.066   0.222  14.652 -2.5989  0.8293  1.1326
14874TIP3    H266038   6.089   0.328  14.758  1.9972  2.1257 -0.9288
14875TIP3   OH266039   3.609   1.239  12.377  0.2094 -0.7979 -0.1771
14875TIP3    H166040   3.674   1.305  12.351 -0.2134 -0.3294 -0.0748
14875TIP3    H266041   3.538   1.290  12.416  0.6357 -1.4422  1.5362
14876TIP3   OH266042   1.643   6.776  16.278  0.0842  0.4731 -0.3836
14876TIP3    H166043   1.558   6.760  16.236  0.1908 -1.1410 -0.0500
14876TIP3    H266044   1.698   6.812  16.208 -0.3553 -0.1852 -1.0795
14877TIP3   OH266045   5.068   4.245  10.802  0.4721 -0.2473 -1.0725
14877TIP3    H166046   5.012   4.271  10.729 -1.0019 -1.1797 -0.3236
14877TIP3    H266047   5.037   4.297  10.876 -0.7258 -2.0999 -0.2001
14878TIP3   OH266048   5.666   5.553  10.834  0.1706  0.1268  0.2134
14878TIP3    H166049   5.613   5.628  10.807 -0.5940 -0.7913 -0.9328
14878TIP3    H266050   5.734   5.545  10.767 -0.6493 -1.0774 -0.5199
14879TIP3   OH266051   6.748   0.251  15.883  0.6806  0.3521 -0.7735
14879TIP3    H166052   6.735   0.264  15.977  1.9778  0.6287 -0.6232
14879TIP3    H266053   6.731   0.157  15.870  0.2854  0.3528 -0.3039
14880TIP3   OH266054   4.379   3.836   2.595  0.2244  0.4394  0.2503
14880TIP3    H166055   4.331   3.792   2.525  1.7068 -0.3315 -0.3357
14880TIP3    H266056   4.340   3.801   2.676  0.4688 -0.9752 -0.2049
14881TIP3   OH266057   4.705   3.538  15.317 -0.1029 -0.2782  0.2562
14881TIP3    H166058   4.757   3.616  15.299 -2.4207  0.8627 -2.2026
14881TIP3    H266059   4.738   3.473  15.254 -1.0972  0.1947 -0.7697
14882TIP3   OH266060   3.420   0.398   4.085  0.6509 -0.5619 -0.4120
14882TIP3    H166061   3.373   0.347   4.019 -0.8008 -0.1912  0.2897
14882TIP3    H266062   3.434   0.336   4.158  0.8643 -0.5532 -0.4452
14883TIP3   OH266063   1.592   0.057   3.905 -0.1443  0.5242  0.2388
14883TIP3    H166064   1.663   0.120   3.901 -0.4080  0.9583  1.6509
14883TIP3    H266065   1.527   0.098   3.962 -1.0145 -0.3569 -0.0840
14884TIP3   OH266066   4.642   6.730  12.335  0.2665 -0.0894  0.2559
14884TIP3    H166067   4.693   6.772  12.404 -0.8456 -1.0075  1.6979
14884TIP3    H266068   4.558   6.776  12.336 -0.0196 -0.6025  0.0305
14885TIP3   OH266069   1.515   2.124   2.440 -0.1494 -0.2453 -0.0669
14885TIP3    H166070   1.470   2.137   2.357 -0.8745 -0.9117  0.2117
14885TIP3    H266071   1.446   2.100   2.502  0.0523  2.2058  1.2414
14886TIP3   OH266072   4.466   2.791  11.009  0.0148  1.0726  0.0384
14886TIP3    H166073   4.479   2.830  10.923  1.8152 -0.4312 -0.4383
14886TIP3    H266074   4.371   2.788  11.020 -0.2707  0.9338 -2.0962
14887TIP3   OH266075   3.463   2.260   1.740  0.7095  0.2311  0.3767
14887TIP3    H166076   3.529   2.192   1.725  1.5690  1.0741  0.2303
14887TIP3    H266077   3.513   2.338   1.764  0.1172  1.9555 -3.2941
14888TIP3   OH266078   0.003   5.168   2.172 -0.6885 -0.0200 -0.1038
14888TIP3    H166079  -0.050   5.102   2.216 -2.3615  0.0348 -1.9046
14888TIP3    H266080   0.081   5.120   2.142 -0.2052 -0.3558  1.5719
14889TIP3   OH266081   5.706   6.138  12.061  0.2513 -0.1704  0.1021
14889TIP3    H166082   5.662   6.191  12.128  0.0108 -1.0980  0.6957
14889TIP3    H266083   5.644   6.132  11.989 -0.0920 -0.4086  0.4131
14890TIP3   OH266084   5.587   0.375  10.907  0.1846 -0.5716 -0.3094
14890TIP3    H166085   5.650   0.356  10.838  0.4735  0.1350 -0.2543
14890TIP3    H266086   5.581   0.471  10.908 -1.6425 -0.6442 -0.9631
14891TIP3   OH266087   5.633   1.795   3.827 -0.2946 -0.1069  0.2064
14891TIP3    H166088   5.610   1.735   3.898  1.7480 -0.2689  0.7929
14891TIP3    H266089   5.712   1.757   3.789  1.7026  2.7428  1.2748
14892TIP3   OH266090   2.970   1.523  15.735 -0.0278 -0.7619  0.1908
14892TIP3    H166091   3.025   1.567  15.670 -0.3561 -2.3483 -1.2438
14892TIP3    H266092   2.947   1.591  15.798  2.0003  0.3787 -0.2048
14893TIP3   OH266093   0.229   5.183   6.119  0.1060  0.3387 -0.1334
14893TIP3    H166094   0.242   5.154   6.029 -0.1586 -2.4891  0.6532
14893TIP3    H266095   0.165   5.122   6.156  1.8618 -0.0700  2.6018
14894TIP3   OH266096   2.065   3.496   2.628 -0.3988 -0.1102  0.3236
14894TIP3    H166097   2.085   3.403   2.615 -1.1543 -0.4592  1.5000
14894TIP3    H266098   2.003   3.516   2.558 -0.6020 -0.6121  0.3517
14895TIP3   OH266099   4.381   1.453  13.744  0.2939 -0.0112  0.6882
14895TIP3    H166100   4.337   1.538  13.738 -0.8850 -0.7209 -1.4426
14895TIP3    H266101   4.324   1.401  13.802 -0.4588 -0.1929 -0.1987
14896TIP3   OH266102   5.119   2.195   4.831  0.3452 -0.1856 -0.0639
14896TIP3    H166103   5.130   2.192   4.926 -0.0781  0.5030  0.0180
14896TIP3    H266104   5.195   2.148   4.796  1.2010  0.6814  0.5758
14897TIP3   OH266105   5.854   0.107  14.635  0.6080  0.3610  0.7249
14897TIP3    H166106   5.874   0.017  14.662  0.2192 -0.3467 -1.2021
14897TIP3    H266107   5.769   0.126  14.674  0.5815 -0.2001  0.9419
14898TIP3   OH266108   4.784   0.507   2.907 -0.4531  0.3051 -0.1468
14898TIP3    H166109   4.831   0.452   2.844 -0.8389 -2.2312  1.6393
14898TIP3    H266110   4.702   0.530   2.863 -0.4699 -0.9328 -0.7881
14899TIP3   OH266111   4.291   3.592  14.383 -0.0149 -0.4602  0.4049
14899TIP3    H166112   4.366   3.645  14.355  0.1180 -0.3815  0.8916
14899TIP3    H266113   4.300   3.510  14.335 -0.1839 -0.0645 -0.3081
14900TIP3   OH266114   3.284   1.294  15.444 -0.6696  0.1325  0.4408
14900TIP3    H166115   3.314   1.209  15.412 -1.2663  0.1961 -0.3245
14900TIP3    H266116   3.353   1.324  15.502 -0.8181 -1.2352  1.3531
14901TIP3   OH266117   6.059   0.346   3.520 -0.3057 -0.5106  0.2623
14901TIP3    H166118   6.132   0.407   3.534  0.4214 -1.0972 -0.7434
14901TIP3    H266119   6.052   0.298   3.602 -0.7201  0.7405  0.9737
14902TIP3   OH266120   4.895   5.417   1.892 -0.5382  0.3154  0.0238
14902TIP3    H166121   4.825   5.479   1.911 -0.7762  0.5357 -1.4531
14902TIP3    H266122   4.929   5.392   1.978 -2.3876  0.2252  0.7702
14903TIP3   OH266123   1.632   6.604   5.707 -0.0603 -0.0201  0.1912
14903TIP3    H166124   1.551   6.644   5.738 -0.0724  0.7546 -0.7901
14903TIP3    H266125   1.614   6.511   5.704 -1.1801  0.2091 -0.7494
14904TIP3   OH266126   5.578   6.733  13.428 -0.2943 -0.4108  0.4603
14904TIP3    H166127   5.485   6.708  13.426 -0.5916  0.6483  0.3240
14904TIP3    H266128   5.595   6.766  13.340  0.7222 -2.2717 -0.0919
14905TIP3   OH266129   0.873   5.958  13.634  0.2684  0.5687  0.0730
14905TIP3    H166130   0.950   5.938  13.580 -1.1404 -0.0596 -1.7896
14905TIP3    H266131   0.815   6.008  13.576 -0.5122  1.5520  1.6195
14906TIP3   OH266132   0.636   3.424  13.784 -0.3379 -0.2625  0.4184
14906TIP3    H166133   0.555   3.440  13.736 -1.2323  0.2449  2.0291
14906TIP3    H266134   0.649   3.503  13.836 -0.1248 -1.3057  2.0052
14907TIP3   OH266135   6.118   0.093   3.415 -0.0679  0.0816  0.0289
14907TIP3    H166136   6.086   0.181   3.432 -1.2294 -0.2426 -0.3853
14907TIP3    H266137   6.055   0.055   3.354  0.4031 -1.0419  0.2021
14908TIP3   OH266138   4.436   3.729  16.528 -0.2474  0.0309 -0.5491
14908TIP3    H166139   4.355   3.779  16.533 -0.9825 -1.2325  0.7570
14908TIP3    H266140   4.448   3.712  16.434 -1.6583 -0.0343 -0.7354
14909TIP3   OH266141   1.428   6.068  11.744  0.4415  0.4929 -1.2153
14909TIP3    H166142   1.354   6.126  11.728  0.1665  0.1519 -1.1867
14909TIP3    H266143   1.464   6.050  11.657  1.7197  2.2416 -1.0891
14910TIP3   OH266144   5.828   3.123  14.444 -0.0749  0.4685 -0.1883
14910TIP3    H166145   5.819   3.029  14.458 -1.1967  0.4379 -1.0268
14910TIP3    H266146   5.750   3.148  14.396  1.5688  1.3066 -2.5953
14911TIP3   OH266147   0.590   5.398   5.083 -0.2407 -0.1927  0.5849
14911TIP3    H166148   0.504   5.358   5.072 -0.5474  0.3263  1.0563
14911TIP3    H266149   0.633   5.387   4.998 -0.8036 -0.3686  0.3202
14912TIP3   OH266150   2.521   3.939   5.694 -0.2719  0.1066  0.5357
14912TIP3    H166151   2.570   3.861   5.721  0.2148  0.5802  1.0452
14912TIP3    H266152   2.583   4.011   5.703 -0.1632  0.3533 -1.6213
14913TIP3   OH266153   5.216   1.971  15.707  0.1174 -0.0743 -0.1570
14913TIP3    H166154   5.222   1.915  15.629 -0.7731 -0.8832  0.3303
14913TIP3    H266155   5.122   1.983  15.721  0.2853  1.0112  0.1446
14914TIP3   OH266156   2.941   5.976  14.052 -0.3011  0.0174 -0.7332
14914TIP3    H166157   3.012   5.984  13.989  2.0325 -1.8104  1.4265
14914TIP3    H266158   2.949   6.053  14.108 -0.4991  0.1732 -0.9174
14915TIP3   OH266159   2.634   4.990   5.875  0.2216 -0.5935  0.4922
14915TIP3    H166160   2.564   5.030   5.927  0.2932  0.7258 -0.3689
14915TIP3    H266161   2.707   4.980   5.937 -0.0970 -0.2173  0.9377
14916TIP3   OH266162   3.275   4.560   6.390 -0.3226 -0.1288  0.2891
14916TIP3    H166163   3.299   4.633   6.447 -0.0207 -0.4551  0.5828
14916TIP3    H266164   3.333   4.489   6.417 -0.8734 -0.5937  0.2583
14917TIP3   OH266165   6.717   2.591  16.954 -0.1423  0.3972 -0.1734
14917TIP3    H166166   6.676   2.553  16.876  0.1623 -0.4988  0.0854
14917TIP3    H266167   6.649   2.645  16.994 -1.2688 -1.4051  0.4927
14918TIP3   OH266168   2.667   3.210  13.960  0.2189  0.3368  0.6250
14918TIP3    H166169   2.756   3.212  13.994 -0.0421  0.9678  1.3148
14918TIP3    H266170   2.673   3.246  13.872  0.4461  1.7704  1.2003
14919TIP3   OH266171   1.937   4.822   5.268 -0.0872  0.0255 -0.2396
14919TIP3    H166172   1.893   4.873   5.199  1.3305 -0.1890 -1.3429
14919TIP3    H266173   1.959   4.887   5.335  0.6737  0.6937 -1.1077
14920TIP3   OH266174   0.369   6.432   5.493 -0.0443 -0.4204  0.0675
14920TIP3    H166175   0.427   6.385   5.433 -1.0577  0.5712 -1.7671
14920TIP3    H266176   0.358   6.372   5.567  2.0735 -1.2497 -0.2221
14921TIP3   OH266177   1.581   3.985  16.406  0.6453  0.1906  0.4288
14921TIP3    H166178   1.625   3.901  16.398  0.0735 -0.1060  0.3419
14921TIP3    H266179   1.491   3.968  16.379  0.5941  0.8940  0.1332
14922TIP3   OH266180   0.616   3.080  14.144 -0.6096 -0.0916 -0.4076
14922TIP3    H166181   0.697   3.029  14.143 -0.4721  0.0216  1.3191
14922TIP3    H266182   0.556   3.030  14.088  0.8083  0.1711 -2.2421
14923TIP3   OH266183   6.323   4.152  16.203 -0.2420 -0.2405 -0.3360
14923TIP3    H166184   6.370   4.069  16.194  0.2272 -0.1399  1.0098
14923TIP3    H266185   6.382   4.208  16.254 -0.1884  1.2325 -1.9456
14924TIP3   OH266186   2.664   3.651  13.051  0.8333 -0.8218 -0.1489
14924TIP3    H166187   2.662   3.744  13.071  1.1170 -0.6157 -1.0206
14924TIP3    H266188   2.672   3.608  13.136 -0.2128 -0.0945  0.3352
14925TIP3   OH266189   3.073   3.850  11.907  0.0789  0.0104 -0.1228
14925TIP3    H166190   3.117   3.931  11.882 -0.7057  0.0639 -1.4036
14925TIP3    H266191   3.142   3.797  11.948  1.2950  0.2042 -1.8134
14926TIP3   OH266192   3.082   4.649  13.522  0.3108  0.0265 -0.3891
14926TIP3    H166193   3.088   4.599  13.440 -1.0830 -2.0205  0.6563
14926TIP3    H266194   2.991   4.678  13.525 -0.0728 -1.2074  1.0848
14927TIP3   OH266195   5.404   3.141   4.188  0.2817 -0.4127 -0.4849
14927TIP3    H166196   5.476   3.079   4.186  1.4631  0.8316  0.8475
14927TIP3    H266197   5.422   3.201   4.116  2.0058  1.3179  1.2733
14928TIP3   OH266198   4.455   3.360  13.755  0.0534 -0.0236  0.8238
14928TIP3    H166199   4.488   3.294  13.816  0.2115 -0.0842  0.6741
14928TIP3    H266200   4.470   3.323  13.668 -2.0914 -0.8925  0.7453
14929TIP3   OH266201   2.358   6.057  11.376 -0.4234  0.0335 -0.0527
14929TIP3    H166202   2.407   5.983  11.412  0.5869  0.6681 -0.1006
14929TIP3    H266203   2.418   6.097  11.313 -1.5394 -0.0483 -1.2203
14930TIP3   OH266204   6.409   6.132   3.176 -0.1974 -0.1884  0.4739
14930TIP3    H166205   6.430   6.224   3.160 -1.0516 -0.1210 -0.3358
14930TIP3    H266206   6.445   6.114   3.263 -0.5635  1.0821  0.9012
14931TIP3   OH266207   0.107   0.059   4.827 -0.0080  0.0169  0.3302
14931TIP3    H166208   0.081  -0.033   4.832 -0.0207  0.0605  1.3533
14931TIP3    H266209   0.173   0.069   4.895 -0.4953  0.9156  0.6921
14932TIP3   OH266210   4.716   2.244   2.209 -0.1601 -0.2219 -0.1311
14932TIP3    H166211   4.638   2.247   2.265 -0.7856 -2.6119 -0.7746
14932TIP3    H266212   4.719   2.331   2.168 -1.3582  0.5677  1.3491
14933TIP3   OH266213   4.160   3.133  12.175  0.0230  0.2240  0.3151
14933TIP3    H166214   4.227   3.196  12.202 -0.1107  0.0276  1.1230
14933TIP3    H266215   4.207   3.075  12.114  0.3739  0.5633  0.2525
14934TIP3   OH266216   1.240   3.372   0.801  0.0931 -0.1071 -0.2332
14934TIP3    H166217   1.214   3.283   0.825 -1.0837  0.6836  1.6262
14934TIP3    H266218   1.183   3.394   0.727 -0.8321 -0.3067  0.4015
14935TIP3   OH266219   5.534   5.547   5.109 -0.1061 -0.0543  0.1700
14935TIP3    H166220   5.464   5.522   5.169 -0.3101  1.9315  0.8169
14935TIP3    H266221   5.496   5.539   5.022 -1.8573  2.7923  0.5586
14936TIP3   OH266222   5.865   1.928   0.236 -0.1154 -0.4436 -0.2822
14936TIP3    H166223   5.801   1.991   0.271 -1.0748 -1.6739  0.2364
14936TIP3    H266224   5.920   1.980   0.178  0.1244  1.2221  1.3293
14937TIP3   OH266225   5.554   2.887  12.572  0.1233 -0.3372 -0.1669
14937TIP3    H166226   5.611   2.835  12.516 -1.1260 -1.1951 -0.6858
14937TIP3    H266227   5.552   2.841  12.655  0.3064 -0.2165 -0.0941
14938TIP3   OH266228   3.340   6.254   4.186  0.5356  0.5932  0.4026
14938TIP3    H166229   3.403   6.265   4.257  1.4585 -2.2987  0.1266
14938TIP3    H266230   3.299   6.169   4.202  0.7230 -0.1441 -2.4336
14939TIP3   OH266231   0.208   4.604   0.405  0.0049 -0.7556 -0.5436
14939TIP3    H166232   0.193   4.698   0.391 -1.5560 -0.3402  2.7764
14939TIP3    H266233   0.298   4.598   0.434 -0.0657 -0.1747 -0.1836
14940TIP3   OH266234   3.745   4.463   2.901 -0.0766  0.4144 -0.6736
14940TIP3    H166235   3.810   4.459   2.971 -0.6668 -2.3987 -0.1623
14940TIP3    H266236   3.675   4.519   2.935  1.3261  2.2532 -0.6520
14941TIP3   OH266237   3.269   3.244   0.146  0.0715  0.7849  0.1776
14941TIP3    H166238   3.206   3.269   0.078 -0.5906 -0.3289  0.3593
14941TIP3    H266239   3.339   3.309   0.139 -1.0890  2.0411 -0.0313
14942TIP3   OH266240   2.585   5.184  11.502  0.2664  0.1082 -0.0079
14942TIP3    H166241   2.597   5.125  11.577 -1.0638  0.2750  0.3657
14942TIP3    H266242   2.537   5.259  11.538 -0.1494  0.3193 -0.9729
14943TIP3   OH266243   2.690   2.680  16.077  0.2506  0.2301 -0.3093
14943TIP3    H166244   2.629   2.650  16.010  1.6842  0.8209 -1.9242
14943TIP3    H266245   2.777   2.661  16.042  1.0487  0.0709  1.6199
14944TIP3   OH266246   4.640   4.477   4.001  0.1211  0.6956  0.3232
14944TIP3    H166247   4.706   4.546   4.014 -0.9873  1.4214  2.5829
14944TIP3    H266248   4.556   4.523   4.004 -0.6938 -0.7593  2.7635
14945TIP3   OH266249   6.270   0.800  16.285  0.8115  0.2404 -0.3449
14945TIP3    H166250   6.275   0.874  16.346  0.3788 -0.0711  0.0729
14945TIP3    H266251   6.207   0.741  16.325  0.7027 -0.0771 -0.9864
14946TIP3   OH266252   0.397   1.265   4.639 -0.5200  1.1521  0.3387
14946TIP3    H166253   0.445   1.249   4.720  2.1657 -1.1829 -1.4988
14946TIP3    H266254   0.456   1.320   4.587 -1.1835  0.7796 -0.8494
14947TIP3   OH266255   2.612   4.015   5.976  0.2152  0.4291  0.4132
14947TIP3    H166256   2.585   4.077   6.044 -0.0907  0.8604 -0.0886
14947TIP3    H266257   2.705   4.035   5.961  0.4807 -0.1746  1.2246
14948TIP3   OH266258   6.374   1.069   1.239 -0.0740 -0.7566 -0.2106
14948TIP3    H166259   6.349   1.104   1.324 -0.4025 -1.1594 -0.1371
14948TIP3    H266260   6.371   0.974   1.250 -0.9768 -0.8228 -0.9229
14949TIP3   OH266261   4.253   3.828  15.536  0.2488 -0.6271  0.4973
14949TIP3    H166262   4.243   3.804  15.444  0.6152 -3.0614  1.0209
14949TIP3    H266263   4.269   3.745  15.581 -0.1951  0.4499  2.8114
14950TIP3   OH266264   6.025   1.510  13.341  0.1910 -0.0731  0.0866
14950TIP3    H166265   6.120   1.505  13.328  0.0126  0.4524 -1.6812
14950TIP3    H266266   6.014   1.512  13.436  1.9657  0.1937  0.3236
14951TIP3   OH266267   5.442   3.850   1.875  0.1872  0.1457 -0.1294
14951TIP3    H166268   5.512   3.828   1.814  0.0395  0.3424 -0.3709
14951TIP3    H266269   5.441   3.777   1.938 -0.0866 -0.3870 -0.7358
14952TIP3   OH266270   0.835   1.608   3.593  0.2131 -0.2288 -0.7521
14952TIP3    H166271   0.879   1.537   3.544  1.0510  1.5691 -2.7596
14952TIP3    H266272   0.742   1.595   3.574  0.1643 -1.7440  0.3018
14953TIP3   OH266273   0.565   3.531  11.688 -0.4404  0.3038  0.0707
14953TIP3    H166274   0.583   3.607  11.743 -0.5567  0.8261 -0.5936
14953TIP3    H266275   0.469   3.526  11.686 -0.4297 -0.1419  0.4803
14954TIP3   OH266276   1.795   6.565  12.268 -0.1561 -0.3599  0.2944
14954TIP3    H166277   1.714   6.577  12.219 -0.0522  2.6894  0.6443
14954TIP3    H266278   1.776   6.494  12.330 -1.8393 -1.0853 -0.9804
14955TIP3   OH266279   6.554   2.145   3.212  0.0307 -0.1667  0.0584
14955TIP3    H166280   6.627   2.084   3.214  0.1322 -0.0242  1.1040
14955TIP3    H266281   6.591   2.226   3.178  0.9752  0.6467  2.7885
14956TIP3   OH266282   5.281   6.247   1.652 -0.1593  0.0922 -0.2187
14956TIP3    H166283   5.345   6.225   1.584  0.4240  0.3480  0.2417
14956TIP3    H266284   5.333   6.260   1.731 -1.0697 -3.0979  1.0392
14957TIP3   OH266285   5.779   5.190   2.455 -0.1500 -0.2931 -0.5150
14957TIP3    H166286   5.807   5.117   2.509 -0.1216 -0.1450 -0.3281
14957TIP3    H266287   5.686   5.201   2.475  0.2005  0.7524  0.6814
14958TIP3   OH266288   0.266   4.055  16.555 -0.2134  0.2905 -0.0196
14958TIP3    H166289   0.309   4.082  16.474  0.1648  0.1743  0.1359
14958TIP3    H266290   0.287   3.962  16.563 -0.0076  0.3635  0.3513
14959TIP3   OH266291   4.412   1.580   5.451 -0.4808 -0.1303  0.0786
14959TIP3    H166292   4.424   1.512   5.384  0.6651  0.4041 -0.2723
14959TIP3    H266293   4.500   1.612   5.470 -1.0496  2.0667 -0.6311
14960TIP3   OH266294   2.430   5.046  15.927 -0.0108 -0.5949  0.0122
14960TIP3    H166295   2.425   5.117  15.864  1.5210  0.3430  0.8585
14960TIP3    H266296   2.486   4.980  15.885 -0.4748 -0.7787 -0.3161
14961TIP3   OH266297   5.820   3.182  14.754 -0.5945  0.0097  0.0506
14961TIP3    H166298   5.827   3.089  14.776 -2.4673 -0.1010  0.3076
14961TIP3    H266299   5.814   3.184  14.658  1.5556  0.0564 -0.1256
14962TIP3   OH266300   4.387   3.084   5.729  0.1764 -0.6990  0.2561
14962TIP3    H166301   4.482   3.097   5.717  0.3545 -1.0553  1.2055
14962TIP3    H266302   4.379   2.995   5.762 -0.8232 -2.1416 -3.3912
14963TIP3   OH266303   1.115   1.535   3.413  0.0429 -0.1668 -0.1691
14963TIP3    H166304   1.024   1.509   3.418  0.3918 -1.5386 -0.5691
14963TIP3    H266305   1.113   1.622   3.371 -1.0301 -0.4708 -0.7823
14964TIP3   OH266306   0.358   1.533  15.888  0.2036 -0.6880 -0.6079
14964TIP3    H166307   0.370   1.524  15.794  1.1690 -1.2131 -0.4493
14964TIP3    H266308   0.413   1.607  15.912 -2.0644  1.1487 -0.8191
14965TIP3   OH266309   6.381   0.730  11.593  0.0302  0.0054  0.0670
14965TIP3    H166310   6.334   0.647  11.595 -0.2291  0.1512  1.6162
14965TIP3    H266311   6.353   0.772  11.512 -1.7058 -0.3880  0.4307
14966TIP3   OH266312   5.020   0.400   3.807 -0.3433  0.0009  0.1806
14966TIP3    H166313   5.069   0.373   3.729 -0.0145  0.1987  0.3139
14966TIP3    H266314   5.067   0.359   3.880  0.2421  1.0273  0.3976
14967TIP3   OH266315   2.358   2.247   4.376 -0.9739 -0.2344  0.0137
14967TIP3    H166316   2.281   2.201   4.411 -0.2771 -1.2243  0.2797
14967TIP3    H266317   2.365   2.325   4.431 -3.5289  1.4987 -1.8784
14968TIP3   OH266318   6.212   6.345  12.010  0.0066 -0.1103 -0.1254
14968TIP3    H166319   6.120   6.333  12.033  0.3250  1.6513  2.4659
14968TIP3    H266320   6.218   6.435  11.980  1.3414  1.0127  3.0641
14969TIP3   OH266321   1.059   0.134  11.502 -0.1877 -0.8213  0.1698
14969TIP3    H166322   1.057   0.038  11.503  1.0310 -0.8655 -0.0638
14969TIP3    H266323   1.053   0.159  11.594  1.9254 -1.2395  0.4882
14970TIP3   OH266324   2.706   1.588  12.693  0.5616 -0.5480 -0.1554
14970TIP3    H166325   2.782   1.632  12.730  1.1506 -1.0074 -0.7827
14970TIP3    H266326   2.715   1.497  12.721 -0.5823 -0.3227  1.0333
14971TIP3   OH266327   2.351   4.673  12.066  0.6728 -0.4884 -0.4182
14971TIP3    H166328   2.270   4.685  12.116  1.5476  2.0710  0.5542
14971TIP3    H266329   2.403   4.613  12.119 -0.3104 -1.6975 -0.7688
14972TIP3   OH266330   6.299   5.471   0.134 -0.1456  0.1683 -0.3712
14972TIP3    H166331   6.258   5.392   0.168  1.7388 -1.0952 -0.9274
14972TIP3    H266332   6.309   5.455   0.040  0.2752  1.0681 -0.4928
14973TIP3   OH266333   1.383   6.735   5.738 -0.5778 -0.1864  0.3066
14973TIP3    H166334   1.312   6.772   5.790 -0.7738  0.9644 -0.7617
14973TIP3    H266335   1.379   6.780   5.654  1.0117 -0.5550 -0.0069
14974TIP3   OH266336   2.374   2.931   2.354 -0.0336 -0.0077 -0.1524
14974TIP3    H166337   2.403   3.020   2.372  2.4274 -0.2345 -2.4127
14974TIP3    H266338   2.292   2.942   2.305 -0.0753  0.9732  0.1191
14975TIP3   OH266339   4.717   1.383   2.321 -0.4595 -0.2743 -0.8621
14975TIP3    H166340   4.748   1.374   2.411 -1.0798  0.8948 -0.5098
14975TIP3    H266341   4.622   1.393   2.329 -0.3483  1.8445 -1.4507
14976TIP3   OH266342   4.093   4.032  11.625 -0.3255  0.0354 -0.2100
14976TIP3    H166343   4.166   3.983  11.589  0.5781  0.3517  1.1332
14976TIP3    H266344   4.042   4.058  11.548  0.9990 -0.1292 -1.1848
14977TIP3   OH266345   3.499   1.981   5.152  0.2099  0.3044  0.9456
14977TIP3    H166346   3.457   2.006   5.070  1.8663 -0.6603 -0.2548
14977TIP3    H266347   3.435   1.925   5.195 -0.3086 -0.0001 -0.1769
14978TIP3   OH266348   1.489   1.762  12.310  0.5816 -0.0370 -0.0428
14978TIP3    H166349   1.421   1.828  12.324  0.2977 -0.0712 -1.1260
14978TIP3    H266350   1.451   1.702  12.245  0.5001 -1.7646  1.5047
14979TIP3   OH266351   0.673   1.025   3.795  0.3052  0.1443  0.3809
14979TIP3    H166352   0.667   1.014   3.890  0.2484  1.0858  0.4996
14979TIP3    H266353   0.583   1.042   3.767  0.4677  0.9733  0.3220
14980TIP3   OH266354   3.002   0.213   0.453 -0.2608  0.3424 -0.6085
14980TIP3    H166355   3.069   0.179   0.513 -0.6238 -2.1935 -1.4875
14980TIP3    H266356   2.920   0.199   0.501 -0.4356 -0.3166 -1.0857
14981TIP3   OH266357   3.731   4.548  10.848  0.3789 -0.6811  0.2462
14981TIP3    H166358   3.750   4.548  10.754 -1.8552 -0.0051 -0.2623
14981TIP3    H266359   3.765   4.464  10.879  0.2409 -1.3723 -1.3863
14982TIP3   OH266360   3.947   4.078   2.941  0.4470  0.2804  0.2378
14982TIP3    H166361   4.003   4.003   2.962 -0.8793 -1.0335 -0.7550
14982TIP3    H266362   3.877   4.074   3.005  0.3417  0.6578  0.1490
14983TIP3   OH266363   3.464   5.001   1.122  0.0860 -0.1911 -0.2790
14983TIP3    H166364   3.409   4.960   1.055 -3.3483 -0.5062  2.4429
14983TIP3    H266365   3.440   5.093   1.120  0.8877  0.0226 -0.2627
14984TIP3   OH266366   2.023   2.334   2.673 -0.0138 -0.1916 -0.3470
14984TIP3    H166367   2.002   2.383   2.593 -0.0421 -0.3861 -0.4602
14984TIP3    H266368   2.117   2.345   2.684  0.2840 -1.5104 -1.3215
14985TIP3   OH266369   5.046   6.606   4.041 -0.1694  0.1918 -0.0100
14985TIP3    H166370   5.028   6.516   4.013  0.9827 -0.3560  0.9003
14985TIP3    H266371   5.141   6.614   4.034 -0.1819  1.0787  0.6520
14986TIP3   OH266372   5.116   5.060   2.242  0.4896  0.1251 -0.1046
14986TIP3    H166373   5.096   5.024   2.329 -1.1995 -0.9616 -0.8907
14986TIP3    H266374   5.198   5.017   2.217  0.9470  0.3748  0.8867
14987TIP3   OH266375   3.697   1.383  12.059 -0.1267 -0.1992  0.6158
14987TIP3    H166376   3.653   1.434  11.991  1.3983  1.0684  0.5337
14987TIP3    H266377   3.743   1.314  12.011 -0.6136 -0.4861  0.5533
14988TIP3   OH266378   4.753   3.167   4.439  0.0397  0.2862 -0.0050
14988TIP3    H166379   4.799   3.180   4.522 -0.6188 -1.1771  0.6290
14988TIP3    H266380   4.811   3.110   4.388  0.2918  0.9105 -0.4204
14989TIP3   OH266381   1.831   2.825  15.846 -0.2037  0.1283  0.2010
14989TIP3    H166382   1.843   2.820  15.941 -0.1948 -0.1064  0.1885
14989TIP3    H266383   1.905   2.878  15.816 -0.2877  0.3276  0.3405
14990TIP3   OH266384   3.265   2.144   0.546 -0.2109  0.0974  0.6644
14990TIP3    H166385   3.259   2.112   0.456  1.2468 -0.4336  0.7250
14990TIP3    H266386   3.331   2.214   0.543 -0.2251  0.1503  1.2915
14991TIP3   OH266387   5.190   2.048   2.838  0.7485  0.0573  1.3131
14991TIP3    H166388   5.236   1.965   2.848  1.5348  0.4278  0.8249
14991TIP3    H266389   5.161   2.048   2.747  1.8752  0.8777  0.9344
14992TIP3   OH266390   3.615   5.063   2.548 -0.0302 -0.6037 -0.0861
14992TIP3    H166391   3.640   5.137   2.493  1.0720 -1.2662 -0.5136
14992TIP3    H266392   3.627   4.986   2.492 -1.2323 -1.1135  0.3205
14993TIP3   OH266393   0.569   3.849  13.665  0.4071  0.4844  0.2943
14993TIP3    H166394   0.635   3.818  13.726 -1.7328  1.0688  3.1553
14993TIP3    H266395   0.541   3.933  13.701  1.3819  2.6554 -3.5036
14994TIP3   OH266396   5.957   3.279   4.212 -0.1730 -0.1469 -0.0694
14994TIP3    H166397   6.022   3.258   4.280  0.4921  2.0680  0.0405
14994TIP3    H266398   6.009   3.300   4.135 -0.8836 -0.8972 -0.7812
14995TIP3   OH266399   3.298   3.402   1.443  0.1285 -0.2492 -0.0990
14995TIP3    H166400   3.266   3.335   1.503 -0.0577  0.2636  0.3758
14995TIP3    H266401   3.380   3.433   1.482 -1.2063  1.8239  1.2206
14996TIP3   OH266402   6.513   2.842  15.831 -0.5553 -0.0277  0.4363
14996TIP3    H166403   6.598   2.885  15.829 -1.1524  1.2097  0.8428
14996TIP3    H266404   6.529   2.755  15.793  0.3907  1.0490 -1.7797
14997TIP3   OH266405   2.091   1.236  10.922  0.2669 -0.7573  0.3033
14997TIP3    H166406   2.182   1.227  10.895  0.0434 -1.8694 -0.1464
14997TIP3    H266407   2.041   1.212  10.844 -0.4253  0.2468  0.4144
14998TIP3   OH266408   5.626   5.366   3.782 -0.5754 -0.3022 -0.0500
14998TIP3    H166409   5.612   5.390   3.690 -3.4980  0.2576  0.4348
14998TIP3    H266410   5.690   5.430   3.814 -1.7303  1.4115 -0.9972
14999TIP3   OH266411   3.490   6.013   5.625 -0.2917 -0.4723  0.5429
14999TIP3    H166412   3.434   6.088   5.604  0.9251 -0.3570 -3.0663
14999TIP3    H266413   3.515   6.025   5.716 -4.4465  0.5105  1.7500
15000TIP3   OH266414   4.929   1.588   4.063 -0.2587  0.1274 -0.1204
15000TIP3    H166415   4.989   1.561   4.133 -0.2332 -0.9193 -0.5269
15000TIP3    H266416   4.847   1.543   4.084 -0.0027 -0.8967 -1.2146
15001TIP3   OH266417   1.097   0.865   4.671  0.2757 -0.1001  0.6601
15001TIP3    H166418   1.129   0.937   4.725  0.2103  0.5589 -0.1658
15001TIP3    H266419   1.078   0.795   4.734  0.5415  0.5208  1.4499
15002TIP3   OH266420   0.817   3.802  16.153  0.2407 -0.2686  0.3686
15002TIP3    H166421   0.764   3.869  16.195  0.7696  0.9072 -0.7724
15002TIP3    H266422   0.755   3.735  16.126 -0.4262  0.2038  0.7107
15003TIP3   OH266423   1.211   0.637   3.515 -0.4925  0.1307  0.3436
15003TIP3    H166424   1.203   0.700   3.586 -0.6158  0.6644 -0.1423
15003TIP3    H266425   1.242   0.688   3.440 -0.1089 -0.4746  0.0815
15004TIP3   OH266426   0.023   5.353  13.526 -0.5127 -0.1606 -0.0752
15004TIP3    H166427  -0.062   5.349  13.483 -1.0443 -1.0105  1.0266
15004TIP3    H266428   0.050   5.262  13.535  1.2177  0.1381 -1.7209
15005TIP3   OH266429   5.624   2.079   3.878  0.3679 -0.0200 -0.3164
15005TIP3    H166430   5.691   2.140   3.848  0.0033 -0.0991 -1.3354
15005TIP3    H266431   5.649   1.995   3.838  1.0393 -0.6467  1.3126
15006TIP3   OH266432   4.505   4.858  15.762 -0.5962 -0.1391 -0.0617
15006TIP3    H166433   4.561   4.916  15.815  0.0044 -1.0842  0.3599
15006TIP3    H266434   4.499   4.902  15.678  2.2747 -0.8207 -0.7211
15007TIP3   OH266435   1.847   3.474   4.076 -0.2222 -0.0722  0.2294
15007TIP3    H166436   1.806   3.405   4.127 -1.1647  1.2716  1.3675
15007TIP3    H266437   1.906   3.517   4.137 -0.6047  0.9124 -0.0719
15008TIP3   OH266438   5.112   3.093   0.647 -0.7796  0.4294  0.6855
15008TIP3    H166439   5.038   3.051   0.691  0.3296  0.6760  2.9468
15008TIP3    H266440   5.096   3.187   0.659 -0.5426  0.5064  0.4011
15009TIP3   OH266441   2.718   6.668  11.162  0.0781  0.1161 -0.5071
15009TIP3    H166442   2.625   6.671  11.185  0.4537 -1.5414  1.4861
15009TIP3    H266443   2.719   6.643  11.069 -1.4709 -0.9606 -0.2732
15010TIP3   OH266444   0.385   6.606   5.735 -0.1825  0.2721 -0.0968
15010TIP3    H166445   0.383   6.559   5.651 -0.3639  1.1489 -0.5936
15010TIP3    H266446   0.370   6.538   5.801 -0.9433 -0.2881 -0.8328
15011TIP3   OH266447   3.709   6.290   2.834 -0.3861 -0.4506 -0.3263
15011TIP3    H166448   3.643   6.351   2.867  0.3934  0.3273 -0.1696
15011TIP3    H266449   3.730   6.323   2.746 -0.8725 -1.2449 -0.7599
15012TIP3   OH266450   5.534   3.699  15.600 -1.4093  0.0723  0.7795
15012TIP3    H166451   5.579   3.763  15.655  2.4770  1.2053 -3.1050
15012TIP3    H266452   5.493   3.752  15.531 -1.6642 -1.4357 -0.2621
15013TIP3   OH266453   2.563   2.879   2.592 -0.3878 -0.0011  0.2812
15013TIP3    H166454   2.604   2.847   2.511 -2.9888 -1.5997 -0.5438
15013TIP3    H266455   2.561   2.974   2.582  0.6944 -0.0638 -0.8138
15014TIP3   OH266456   4.962   2.214   2.351  0.2641  0.7029 -0.2085
15014TIP3    H166457   4.913   2.188   2.430 -1.3019  2.8119 -0.3593
15014TIP3    H266458   4.894   2.222   2.283  1.2212  1.1815 -1.1308
15015TIP3   OH266459   1.498   2.122  14.215  0.1661 -0.1167  0.4288
15015TIP3    H166460   1.427   2.073  14.257 -1.6938  1.0632 -1.1435
15015TIP3    H266461   1.456   2.166  14.141  2.7845 -0.1294 -1.1737
15016TIP3   OH266462   5.766   4.194  16.955  0.0757 -0.2151 -0.8325
15016TIP3    H166463   5.698   4.192  17.022  1.0186  0.9549  0.2229
15016TIP3    H266464   5.755   4.278  16.911  0.8411  0.0140 -0.6156
15017TIP3   OH266465   3.277   0.515  14.742 -0.0668 -0.2870 -0.4854
15017TIP3    H166466   3.368   0.523  14.770 -0.1520 -2.6495  0.6593
15017TIP3    H266467   3.281   0.511  14.647  0.9157  0.4393 -0.4921
15018TIP3   OH266468   4.184   4.917  12.148  0.2796  0.6821 -0.1273
15018TIP3    H166469   4.151   4.869  12.224 -0.5206  2.7186  0.8814
15018TIP3    H266470   4.215   5.000  12.183  0.4101  1.4578 -1.9538
15019TIP3   OH266471   6.496   1.714   4.558  0.2534 -0.3858 -0.0185
15019TIP3    H166472   6.460   1.626   4.554  1.4826 -1.0275  1.7170
15019TIP3    H266473   6.448   1.757   4.628 -0.1673  0.2729 -0.6899
15020TIP3   OH266474   1.373   1.048   5.481 -0.2362  0.0947  0.2743
15020TIP3    H166475   1.293   1.093   5.454 -1.1149 -1.1462  0.7106
15020TIP3    H266476   1.437   1.069   5.413 -0.1553  3.0720  1.1268
15021TIP3   OH266477   4.048   1.805   0.575 -0.1277 -0.3301  0.2548
15021TIP3    H166478   4.073   1.885   0.527  0.6623 -0.5538  0.2837
15021TIP3    H266479   3.952   1.809   0.579 -0.2047 -0.1557 -1.0922
15022TIP3   OH266480   1.064   4.238  10.745  0.2509 -0.4443 -0.3288
15022TIP3    H166481   1.157   4.253  10.760  0.2046 -0.6782  0.2253
15022TIP3    H266482   1.061   4.171  10.677  0.4754  0.4522 -1.2265
15023TIP3   OH266483   6.018   4.285  17.068  0.1600  0.3379  0.1125
15023TIP3    H166484   5.942   4.260  17.015  0.7650  0.1192 -0.6901
15023TIP3    H266485   6.053   4.363  17.024  0.0020  0.8395  0.8724
15024TIP3   OH266486   3.187   5.223   1.440  0.5578 -0.2795  0.4053
15024TIP3    H166487   3.273   5.228   1.400  0.3856 -0.4126  0.0174
15024TIP3    H266488   3.126   5.214   1.367  0.1079  0.9449  0.6159
15025TIP3   OH266489   1.819   5.515  14.089 -0.0274  0.0581 -0.1836
15025TIP3    H166490   1.871   5.436  14.071 -0.6248 -0.2134 -0.7733
15025TIP3    H266491   1.869   5.586  14.049  0.0630 -0.1563 -0.4572
15026TIP3   OH266492   0.283   2.346   2.460 -0.1577 -0.1601 -0.5096
15026TIP3    H166493   0.377   2.354   2.480 -0.4836  1.8202  0.5061
15026TIP3    H266494   0.280   2.289   2.383  2.0499  1.2159 -1.7427
15027TIP3   OH266495   0.491   5.481  16.389  0.0441 -0.4172 -0.3743
15027TIP3    H166496   0.401   5.490  16.419  0.1667 -0.3044 -0.0360
15027TIP3    H266497   0.532   5.564  16.410  0.9092 -1.3437  1.8489
15028TIP3   OH266498   4.151   1.708  12.154  0.0847 -0.0430  0.4733
15028TIP3    H166499   4.112   1.789  12.188 -0.2072 -0.8702  2.1954
15028TIP3    H266500   4.077   1.657  12.122  0.3833  0.8922 -1.9678
15029TIP3   OH266501   6.770   3.744  15.913  0.1509  0.6309  0.1231
15029TIP3    H166502   6.676   3.732  15.926  0.0000  0.7814 -0.7349
15029TIP3    H266503   6.777   3.787  15.828  1.0102  0.3311  0.0299
15030TIP3   OH266504   1.797   5.507   2.915  0.1901  0.8681 -0.1448
15030TIP3    H166505   1.841   5.578   2.961  1.0085  0.4582 -0.2679
15030TIP3    H266506   1.835   5.427   2.952  0.7320  0.5293 -1.3819
15031TIP3   OH266507   6.494   4.146   1.739  0.6206 -0.2854 -0.2801
15031TIP3    H166508   6.549   4.179   1.809  0.6210 -0.1102 -0.3617
15031TIP3    H266509   6.523   4.055   1.726  1.5273  0.0866 -0.9507
15032TIP3   OH266510   4.626   4.932   3.282  0.1526 -0.4868 -0.4403
15032TIP3    H166511   4.570   4.863   3.318 -0.1630  0.0025  0.0152
15032TIP3    H266512   4.611   4.929   3.188  2.6436 -3.2980 -0.9213
15033TIP3   OH266513   0.987   4.797   6.091  0.3121  0.3989 -0.3205
15033TIP3    H166514   0.963   4.718   6.042 -0.3060  0.1255  0.4117
15033TIP3    H266515   0.938   4.791   6.172  1.0987  1.0027  0.2157
15034TIP3   OH266516   6.326   1.258  11.018  0.1942  0.4780 -0.1132
15034TIP3    H166517   6.269   1.197  10.972 -0.8594  0.2548  1.3905
15034TIP3    H266518   6.270   1.294  11.088  0.9800  2.6525 -0.5312
15035TIP3   OH266519   3.643   6.544   4.651  0.0219 -0.0854  0.7159
15035TIP3    H166520   3.643   6.452   4.625 -0.6558 -0.5272  2.2037
15035TIP3    H266521   3.577   6.550   4.720 -0.0849  1.5648  0.5113
15036TIP3   OH266522   3.463   6.088   2.077 -0.5751 -0.3312 -0.0784
15036TIP3    H166523   3.503   6.016   2.028 -0.2156  0.3070 -0.7346
15036TIP3    H266524   3.424   6.045   2.153  1.8857 -0.9456  0.9523
15037TIP3   OH266525   1.584   1.384  13.394  0.1042 -0.4859  0.0997
15037TIP3    H166526   1.602   1.352  13.482  1.0329  3.9462  1.7916
15037TIP3    H266527   1.496   1.420  13.399 -0.0540 -0.7112 -0.9459
15038TIP3   OH266528   4.242   1.244  14.787  0.0820  0.0600 -0.1629
15038TIP3    H166529   4.270   1.335  14.779  0.7655  0.0239  1.3708
15038TIP3    H266530   4.303   1.206  14.851  0.3584 -1.7053 -1.3852
15039TIP3   OH266531   5.562   3.471   5.020 -0.3854 -0.5413 -0.3483
15039TIP3    H166532   5.590   3.425   5.099  0.8525 -0.2935 -0.6285
15039TIP3    H266533   5.563   3.563   5.045  3.0711 -0.1213 -1.4422
15040TIP3   OH266534   4.282   1.534  10.717  0.3010 -0.3273 -0.7032
15040TIP3    H166535   4.230   1.571  10.645 -0.7685  0.5323  0.4634
15040TIP3    H266536   4.331   1.463  10.676 -1.6162 -1.0353 -1.9321
15041TIP3   OH266537   3.246   6.443  16.872 -0.0124 -0.1028 -0.3294
15041TIP3    H166538   3.162   6.434  16.828 -0.6941 -1.9809  1.2204
15041TIP3    H266539   3.274   6.353  16.890  1.7889  0.5066  0.1957
15042TIP3   OH266540   5.927   5.439   0.405 -0.4487 -0.1517  0.2079
15042TIP3    H166541   5.916   5.521   0.357  0.3260  0.1818  0.5902
15042TIP3    H266542   5.869   5.448   0.481 -0.3571  0.0520  0.2561
15043TIP3   OH266543   4.770   3.887  13.130  0.1194  0.1599  0.1302
15043TIP3    H166544   4.692   3.886  13.186  0.7621 -1.6672  1.0735
15043TIP3    H266545   4.828   3.951  13.171 -0.7485  1.3431 -0.4298
15044TIP3   OH266546   6.267   5.931  11.280  0.4046 -0.5555  0.5056
15044TIP3    H166547   6.262   5.901  11.371 -1.2673 -1.5597  0.1103
15044TIP3    H266548   6.287   5.852  11.230  1.0774 -0.0467 -0.0529
15045TIP3   OH266549   2.495   4.161  14.896 -0.1521  0.2851 -0.3163
15045TIP3    H166550   2.535   4.231  14.844  0.3205 -1.6878 -2.8168
15045TIP3    H266551   2.402   4.166  14.876  0.1720 -1.2591 -2.5500
15046TIP3   OH266552   3.641   5.182   5.620 -0.3947 -0.0685 -0.3075
15046TIP3    H166553   3.691   5.242   5.675  1.4647 -0.8158 -1.0783
15046TIP3    H266554   3.555   5.178   5.661  0.4364  0.5725  1.6420
15047TIP3   OH266555   5.059   6.414  12.958  0.4563  0.2394  0.1222
15047TIP3    H166556   5.014   6.456  12.884  0.5994 -0.0402 -0.1240
15047TIP3    H266557   5.147   6.450  12.956  0.8024 -0.6198 -0.5418
15048TIP3   OH266558   0.771   5.112   0.555 -0.5054 -0.0962  0.5797
15048TIP3    H166559   0.748   5.104   0.462  0.5406  0.1437  0.2786
15048TIP3    H266560   0.757   5.204   0.576 -0.0642  0.0072  0.4495
15049TIP3   OH266561   6.771   2.885  15.765  0.1676  0.8720 -0.0509
15049TIP3    H166562   6.810   2.972  15.777  0.3715  0.4447  2.9351
15049TIP3    H266563   6.816   2.850  15.687  2.3373  2.2486  0.4923
15050TIP3   OH266564   6.625   4.693  11.018 -0.2427 -0.0094  0.0841
15050TIP3    H166565   6.587   4.742  10.945  0.8111  0.3151 -0.2710
15050TIP3    H266566   6.697   4.749  11.049  1.1174 -1.3944 -0.4612
15051TIP3   OH266567   2.491   2.573   5.461  0.7427 -0.0244 -0.5153
15051TIP3    H166568   2.547   2.516   5.514  0.3381 -0.8908 -0.9836
15051TIP3    H266569   2.535   2.658   5.462  0.1257  0.3356  2.1845
15052TIP3   OH266570   2.256   5.271   4.024 -0.0656  0.0669  0.1819
15052TIP3    H166571   2.231   5.283   4.116  1.2027  1.4809  0.3844
15052TIP3    H266572   2.220   5.347   3.979  1.4176  0.6815 -0.0158
15053TIP3   OH266573   2.333   3.672   2.671  0.5531  0.3002  0.2178
15053TIP3    H166574   2.260   3.676   2.610  0.4214 -0.1551  0.3423
15053TIP3    H266575   2.293   3.683   2.757  0.7007  0.6224  0.2469
15054TIP3   OH266576   0.589   3.777  14.931  0.2101 -0.2206 -0.0450
15054TIP3    H166577   0.573   3.745  14.843 -0.1730  1.6770 -0.7203
15054TIP3    H266578   0.683   3.790  14.936  0.3394 -1.2175  0.1624
15055TIP3   OH266579   5.750   3.544   2.963 -0.6763  0.2230  0.1016
15055TIP3    H166580   5.752   3.616   2.899 -0.7137 -0.1809 -0.3560
15055TIP3    H266581   5.691   3.480   2.925 -1.3618  0.3402  0.9377
15056TIP3   OH266582   5.828   6.040   5.070  0.0894 -0.9040  0.5847
15056TIP3    H166583   5.758   5.978   5.092 -0.0020 -0.7630  0.6907
15056TIP3    H266584   5.899   5.985   5.036 -0.0975 -1.0417  0.4123
15057TIP3   OH266585   0.525   2.243  13.533 -0.2149  0.0459  0.2772
15057TIP3    H166586   0.602   2.292  13.506 -0.3459  1.2109  1.8824
15057TIP3    H266587   0.452   2.287  13.491 -0.1715  0.1021  0.2613
15058TIP3   OH266588   2.969   4.180  10.997 -0.0416  1.0610  0.0973
15058TIP3    H166589   3.060   4.158  10.977  0.2462  2.7320 -0.6077
15058TIP3    H266590   2.919   4.147  10.922 -0.0788 -0.0603  0.5911
15059TIP3   OH266591   5.357   2.680   0.382 -0.3092  0.1688  0.0766
15059TIP3    H166592   5.403   2.757   0.345  1.3094 -0.4344  0.7443
15059TIP3    H266593   5.354   2.618   0.309 -1.6064  0.8285 -0.4609
15060TIP3   OH266594   0.575   0.050  13.510 -0.1238 -0.2515 -0.0443
15060TIP3    H166595   0.535   0.121  13.460 -0.7745 -1.8994 -1.9964
15060TIP3    H266596   0.612  -0.009  13.444  2.1705 -0.7725  1.5638
15061TIP3   OH266597   2.330   5.973  14.780 -0.4206 -0.1605  0.2524
15061TIP3    H166598   2.373   5.891  14.804  1.2056 -0.0313 -1.9038
15061TIP3    H266599   2.279   5.951  14.702  0.2676  0.9037 -0.5287
15062TIP3   OH266600   1.318   5.598   4.769  0.2185  0.5825 -0.2281
15062TIP3    H166601   1.288   5.520   4.816  1.1725 -0.9053 -1.9531
15062TIP3    H266602   1.243   5.658   4.773 -1.3211 -1.2098 -0.5198
15063TIP3   OH266603   1.474   4.205   2.595 -0.5438 -0.1904  0.1595
15063TIP3    H166604   1.430   4.163   2.521 -0.4382  0.8024 -0.4785
15063TIP3    H266605   1.483   4.297   2.569  1.0044 -0.1707  0.6910
15064TIP3   OH266606   4.975   6.440  11.492 -0.1138 -0.0069  0.8277
15064TIP3    H166607   5.021   6.380  11.433 -1.9387 -0.5663 -0.0880
15064TIP3    H266608   4.910   6.385  11.536 -0.6550  0.9694  1.2785
15065TIP3   OH266609   6.670   3.976  13.261 -0.4526  0.2483 -0.4281
15065TIP3    H166610   6.657   3.904  13.199 -0.0689 -0.4580  0.2942
15065TIP3    H266611   6.716   3.936  13.335 -1.5585  0.9108  0.6512
15066TIP3   OH266612   1.251   2.844  11.490  0.5059 -0.4036 -0.4477
15066TIP3    H166613   1.313   2.916  11.478  0.2978 -0.3987 -1.5846
15066TIP3    H266614   1.274   2.806  11.575  3.1469 -1.4723 -1.5634
15067TIP3   OH266615   3.923   3.892   3.340  0.1908 -0.2774  0.0830
15067TIP3    H166616   3.910   3.797   3.343 -0.8392 -0.2129 -1.2870
15067TIP3    H266617   3.888   3.923   3.424  0.4502 -1.0982  0.5014
15068TIP3   OH266618   4.438   0.749  15.893 -0.2480 -0.6825 -0.2126
15068TIP3    H166619   4.521   0.788  15.920  0.5322 -1.1312 -1.8628
15068TIP3    H266620   4.395   0.724  15.975  0.6173  0.7868  0.7234
15069TIP3   OH266621   3.950   5.254   1.707 -0.2799  0.1935 -0.2218
15069TIP3    H166622   3.957   5.232   1.615 -0.6877 -1.5295  0.1342
15069TIP3    H266623   3.863   5.294   1.716 -1.2398 -1.7924 -0.2082
15070TIP3   OH266624   3.623   5.174   2.126  0.5826 -0.3151  0.1630
15070TIP3    H166625   3.674   5.101   2.092 -0.8722 -1.6125  0.6300
15070TIP3    H266626   3.537   5.164   2.084  0.9911  2.5917 -1.6808
15071TIP3   OH266627   0.213   3.296   1.262  0.4666 -0.3502 -0.6290
15071TIP3    H166628   0.273   3.363   1.296  0.3545 -1.4509  1.9777
15071TIP3    H266629   0.254   3.267   1.180  2.8510 -0.1446  0.4045
15072TIP3   OH266630   5.703   4.503   5.153  0.6109  0.8425  0.0576
15072TIP3    H166631   5.697   4.598   5.145 -3.0785  0.7676  0.3821
15072TIP3    H266632   5.688   4.471   5.064 -3.1380  0.6341  0.5976
15073TIP3   OH266633   2.478   1.499  15.123  0.1950 -0.1099 -0.5045
15073TIP3    H166634   2.533   1.428  15.088 -0.4844 -0.2292 -1.3544
15073TIP3    H266635   2.422   1.525  15.050  1.2077  2.1124 -0.5965
15074TIP3   OH266636   3.064   2.812   5.317 -0.3848 -0.5222  0.3154
15074TIP3    H166637   2.981   2.852   5.291  0.0601  0.3139  0.1638
15074TIP3    H266638   3.127   2.884   5.317  0.2947 -1.1041  0.6604
15075TIP3   OH266639   2.194   6.199   4.503  0.0630 -0.2028 -0.3111
15075TIP3    H166640   2.133   6.242   4.443 -1.4715 -0.5971  0.9113
15075TIP3    H266641   2.216   6.267   4.567  0.1791 -0.3227 -0.2234
15076TIP3   OH266642   1.501   4.296  11.435  0.2788 -0.0329 -0.3418
15076TIP3    H166643   1.437   4.366  11.422 -1.2270 -0.9001  1.8004
15076TIP3    H266644   1.577   4.341  11.473  0.9670  0.9658 -2.6832
15077TIP3   OH266645   5.320   0.179  14.199  0.1725  0.4435  0.0375
15077TIP3    H166646   5.302   0.089  14.225 -0.0050  1.1366  2.5685
15077TIP3    H266647   5.387   0.172  14.131  1.2283 -1.5347  1.2036
15078TIP3   OH266648   5.702   3.116   2.326 -0.3015 -0.3709  0.3885
15078TIP3    H166649   5.679   3.180   2.258 -0.1650  0.4406  1.0897
15078TIP3    H266650   5.703   3.032   2.280  1.6885  0.3648 -1.0753
15079TIP3   OH266651   0.559   5.884   1.229 -0.0111 -0.4411  0.0584
15079TIP3    H166652   0.547   5.819   1.160  1.2130  0.8006 -1.3835
15079TIP3    H266653   0.472   5.891   1.270 -0.1001 -3.1924  0.5312
15080TIP3   OH266654   2.254   0.030  10.702  0.1789 -0.0106 -0.3510
15080TIP3    H166655   2.163   0.060  10.700  0.6417  1.4226 -0.9390
15080TIP3    H266656   2.250  -0.061  10.670 -1.0871 -0.1231  0.0870
15081TIP3   OH266657   5.890   6.665  12.293 -0.6155  0.5304 -0.1693
15081TIP3    H166658   5.968   6.722  12.289  0.9434 -1.5514 -1.2347
15081TIP3    H266659   5.892   6.627  12.380  0.5526 -0.7372 -0.7073
15082TIP3   OH266660   6.608   0.972   5.610 -0.1057 -0.3916  0.1786
15082TIP3    H166661   6.671   0.968   5.682 -1.8593  0.0859  1.8134
15082TIP3    H266662   6.589   1.065   5.600  0.0785 -0.4572 -0.8993
15083TIP3   OH266663   1.614   1.692   6.029 -0.3104  0.1821 -0.5526
15083TIP3    H166664   1.693   1.665   5.982  0.6471  1.3980  0.2786
15083TIP3    H266665   1.613   1.788   6.020 -1.5750  0.1983 -0.3642
15084TIP3   OH266666   5.106   0.560   4.654  0.1551 -0.0115  0.4213
15084TIP3    H166667   5.073   0.616   4.584 -0.4690 -1.6621 -0.6721
15084TIP3    H266668   5.082   0.471   4.627 -0.3724 -0.7030  2.8710
15085TIP3   OH266669   5.014   6.661  14.081 -0.5331 -0.2996 -0.8048
15085TIP3    H166670   5.027   6.722  14.008 -0.1691  1.8476  0.9552
15085TIP3    H266671   4.920   6.668  14.102 -0.4302 -0.0959 -0.4035
15086TIP3   OH266672   4.271   3.705  12.922  0.3029  0.3441  0.1123
15086TIP3    H166673   4.192   3.654  12.942  0.5843 -0.6510 -1.1920
15086TIP3    H266674   4.327   3.693  12.998  0.1635 -0.9226  0.0308
15087TIP3   OH266675   4.047   4.212  16.829 -0.3234  0.0630  0.0039
15087TIP3    H166676   4.036   4.226  16.924 -2.1877 -1.8195  0.1333
15087TIP3    H266677   4.126   4.261  16.807  1.4293 -1.1937  2.9371
15088TIP3   OH266678   2.372   6.145   4.991 -0.6248 -0.0120 -0.0497
15088TIP3    H166679   2.396   6.090   5.067 -1.3515  0.3239  0.4310
15088TIP3    H266680   2.362   6.083   4.919 -0.9492 -0.4616  0.3758
15089TIP3   OH266681   5.733   5.055   3.968  0.1888 -0.1997  0.1756
15089TIP3    H166682   5.704   4.969   3.938 -2.6748 -0.2478  2.6403
15089TIP3    H266683   5.660   5.113   3.949  1.6641  1.5479 -0.4968
15090TIP3   OH266684   6.311   3.306  13.046 -0.1034 -0.3947  0.3865
15090TIP3    H166685   6.267   3.374  13.097  0.8441  0.5915 -0.0759
15090TIP3    H266686   6.284   3.224  13.088 -1.4030  0.2364  0.8532
15091TIP3   OH266687   1.991   2.549  13.265  0.1814 -0.0834  0.4730
15091TIP3    H166688   1.925   2.504  13.319  0.5888 -1.2162  0.0623
15091TIP3    H266689   2.069   2.494  13.272  2.2414  2.8520  3.5620
15092TIP3   OH266690   4.049   2.319  11.079  0.6998 -0.1659 -0.2884
15092TIP3    H166691   3.985   2.261  11.121  0.1520  0.5486 -0.1272
15092TIP3    H266692   4.046   2.293  10.987  0.3034 -0.2630 -0.2531
15093TIP3   OH266693   1.245   4.579  11.692  0.6695 -0.1365  0.1997
15093TIP3    H166694   1.236   4.491  11.728 -1.4563  0.3894  1.1198
15093TIP3    H266695   1.231   4.637  11.767 -1.3514  0.9805 -0.9495
15094TIP3   OH266696   2.088   1.459  16.029  0.6480  0.0600 -0.2811
15094TIP3    H166697   2.180   1.486  16.024  0.9514 -0.6392  0.9410
15094TIP3    H266698   2.089   1.367  16.004  0.1270  0.2801 -1.1504
15095TIP3   OH266699   6.365   3.695   5.234 -0.8602 -0.3908  0.1444
15095TIP3    H166700   6.453   3.680   5.199 -0.7340  0.2398  0.1819
15095TIP3    H266701   6.307   3.668   5.163 -0.6663 -1.6885  0.4559
15096TIP3   OH266702   3.029   2.663  14.179 -0.0990  0.2857 -0.0448
15096TIP3    H166703   3.124   2.668  14.172 -0.1504  0.0802 -1.0629
15096TIP3    H266704   3.014   2.604  14.253  0.5560  0.7223  0.4477
15097TIP3   OH266705   4.522   6.376  15.666  0.2424  0.0387 -0.6328
15097TIP3    H166706   4.560   6.439  15.605  1.1780 -0.6876 -0.8409
15097TIP3    H266707   4.531   6.416  15.752  0.0744  0.5358 -0.8478
15098TIP3   OH266708   4.021   3.407   4.810 -0.1573 -0.3885  0.2234
15098TIP3    H166709   4.116   3.409   4.824  0.0020 -2.7320 -0.0895
15098TIP3    H266710   3.986   3.377   4.894 -0.6180  0.2604  0.2672
15099TIP3   OH266711   0.403   0.860   4.857 -0.1257  1.0575 -0.5033
15099TIP3    H166712   0.378   0.830   4.944 -2.9020  1.6169 -1.0230
15099TIP3    H266713   0.473   0.801   4.830 -0.6658 -0.4629  1.2474
15100TIP3   OH266714   6.361   3.645   5.494  0.3320  0.0765 -0.1281
15100TIP3    H166715   6.368   3.640   5.399  2.4266  1.1954 -0.1057
15100TIP3    H266716   6.452   3.649   5.524 -0.2928  0.0742  1.8961
15101TIP3   OH266717   5.914   4.623  10.832 -0.1637 -0.1974 -0.4844
15101TIP3    H166718   6.007   4.612  10.855 -0.2881  0.9298  0.6840
15101TIP3    H266719   5.889   4.539  10.794  1.3736 -0.4705 -0.9823
15102TIP3   OH266720   0.121   0.114  10.927 -0.1053 -0.3870 -0.9745
15102TIP3    H166721   0.089   0.101  10.838  0.8250  0.2789 -1.4323
15102TIP3    H266722   0.125   0.026  10.965  1.7469 -0.9910 -2.4150
15103TIP3   OH266723   3.813   0.445   1.452 -0.5303 -0.1919  0.1755
15103TIP3    H166724   3.856   0.519   1.410  0.3446 -0.7541  0.0311
15103TIP3    H266725   3.884   0.380   1.463 -0.9675 -0.4753  1.5295
15104TIP3   OH266726   4.221   4.539   1.703 -0.5072  0.1238 -0.0111
15104TIP3    H166727   4.287   4.496   1.649 -0.7240 -2.1460  1.4066
15104TIP3    H266728   4.261   4.545   1.790 -1.3129  0.8394  0.3240
15105TIP3   OH266729   3.908   0.915  15.812  0.5015  0.2064  0.2359
15105TIP3    H166730   3.882   0.893  15.902  0.3378 -0.1625  0.1033
15105TIP3    H266731   3.837   0.971  15.780 -0.3101 -1.0312 -0.2210
15106TIP3   OH266732   6.122   1.002  10.684 -0.1490 -0.0470  0.1569
15106TIP3    H166733   6.063   0.927  10.695  0.5636 -1.5008 -4.0436
15106TIP3    H266734   6.206   0.972  10.721 -0.5898 -0.0940  1.1709
15107TIP3   OH266735   4.825   4.299  13.336 -0.0647 -0.1339  0.1892
15107TIP3    H166736   4.786   4.361  13.275 -1.5402  0.5469  1.7599
15107TIP3    H266737   4.808   4.336  13.423  3.4042 -0.2211  1.0410
15108TIP3   OH266738   1.772   5.847  16.681  0.1449 -0.2873 -0.7486
15108TIP3    H166739   1.793   5.801  16.600 -0.5448 -0.2316 -0.9647
15108TIP3    H266740   1.833   5.811  16.746  0.2759 -0.7858 -1.1438
15109TIP3   OH266741   0.820   4.563   1.945  0.0924  0.2908 -0.0826
15109TIP3    H166742   0.751   4.546   1.881 -0.2078 -0.2509  0.3669
15109TIP3    H266743   0.806   4.654   1.972 -2.3768 -0.6051  2.1838
15110TIP3   OH266744   3.526   5.379  11.918 -0.4113 -0.3291  0.1827
15110TIP3    H166745   3.446   5.336  11.888 -0.6384  0.1475  0.0941
15110TIP3    H266746   3.595   5.343  11.863 -0.9230  1.0673 -1.4607
15111TIP3   OH266747   6.732   2.744   1.035  0.1312 -0.7616 -0.3845
15111TIP3    H166748   6.802   2.806   1.012 -0.0648 -0.6156 -0.5947
15111TIP3    H266749   6.778   2.669   1.072  0.4168 -0.7516 -0.7093
15112TIP3   OH266750   4.872   2.597   3.389 -0.2351 -0.3960  0.1227
15112TIP3    H166751   4.929   2.660   3.433 -1.2835 -1.3636  3.1348
15112TIP3    H266752   4.793   2.646   3.367  0.8051  0.4169 -2.0583
15113TIP3   OH266753   6.046   0.658  16.418  0.2322 -0.3305  0.3292
15113TIP3    H166754   5.994   0.701  16.350  0.1791  0.2195  0.7117
15113TIP3    H266755   5.982   0.606  16.467  0.2133 -0.4434  0.1884
15114TIP3   OH266756   1.491   4.964   6.410 -0.1050  0.5116 -0.1778
15114TIP3    H166757   1.485   4.879   6.366  1.9378 -0.1720  0.7416
15114TIP3    H266758   1.508   5.026   6.339  1.6116 -0.3439 -0.5669
15115TIP3   OH266759   2.180   5.840   2.086  0.4939  0.3501  0.3526
15115TIP3    H166760   2.196   5.772   2.020 -1.1468 -0.9703  1.2144
15115TIP3    H266761   2.090   5.823   2.115  0.0631  2.8641  0.6942
15116TIP3   OH266762   0.614   2.322  15.919  0.7677  0.2693  0.5897
15116TIP3    H166763   0.584   2.265  15.848  0.9366  0.3133  0.4827
15116TIP3    H266764   0.594   2.273  15.999 -2.1892  1.4479  0.7025
15117TIP3   OH266765   3.901   1.350  13.776  0.2740 -0.1611 -0.2443
15117TIP3    H166766   3.860   1.277  13.730 -1.0941  1.2952 -1.4624
15117TIP3    H266767   3.842   1.424  13.762  2.7858  1.8349 -1.1980
15118TIP3   OH266768   4.077   3.379   4.178  0.1054  0.4424 -0.2491
15118TIP3    H166769   4.006   3.430   4.138 -0.0036  0.5439  0.0725
15118TIP3    H266770   4.156   3.412   4.137  0.0944  1.3085  0.4088
15119TIP3   OH266771   1.423   3.897   5.706  0.3386  0.1375  0.2301
15119TIP3    H166772   1.399   3.847   5.628 -0.5210  1.1755 -0.1999
15119TIP3    H266773   1.341   3.906   5.754  0.8853 -0.5881  1.3286
15120TIP3   OH266774   0.690   2.801   2.142 -0.1885  0.1293 -0.0057
15120TIP3    H166775   0.721   2.775   2.228 -0.3542 -1.6233 -0.4260
15120TIP3    H266776   0.670   2.895   2.150  2.3336  0.6390  1.0734
15121TIP3   OH266777   6.722   4.613  16.977  0.2978 -0.4332  0.6104
15121TIP3    H166778   6.810   4.587  17.005  0.3214  0.4200  1.3593
15121TIP3    H266779   6.675   4.631  17.059 -0.2542  0.1381  0.1782
15122TIP3   OH266780   6.088   0.269  11.837 -0.0812  0.0039  0.1324
15122TIP3    H166781   6.025   0.218  11.889  0.9316 -1.9306 -0.4317
15122TIP3    H266782   6.142   0.314  11.902 -1.6326  1.2566  0.6368
15123TIP3   OH266783   3.331   3.630   0.593  0.7334 -0.0125 -0.5138
15123TIP3    H166784   3.340   3.545   0.549  0.6559 -0.5526  0.4747
15123TIP3    H266785   3.263   3.676   0.545  0.2112 -0.8379 -0.5791
15124TIP3   OH266786   3.948   5.226  13.650  0.6173  0.0904 -0.3569
15124TIP3    H166787   3.986   5.154  13.700 -0.8182  0.4931  1.3958
15124TIP3    H266788   3.921   5.186  13.567  1.0185 -1.1002  0.0666
15125TIP3   OH266789   4.327   2.835   1.252 -0.2363  0.0110  0.4900
15125TIP3    H166790   4.382   2.769   1.295 -0.1915 -1.5680 -1.8335
15125TIP3    H266791   4.389   2.890   1.204 -0.5347 -0.7798 -0.8332
15126TIP3   OH266792   0.285   3.358  11.562 -0.1702 -0.1347 -0.1636
15126TIP3    H166793   0.194   3.387  11.568  0.0027  0.2543  0.7325
15126TIP3    H266794   0.280   3.262  11.563 -0.7022 -0.1941 -2.5155
15127TIP3   OH266795   5.552   1.426  16.354  0.5939 -0.4662 -0.3076
15127TIP3    H166796   5.470   1.476  16.350  0.3470 -0.6974  1.3419
15127TIP3    H266797   5.589   1.434  16.265 -0.1449  1.4303 -0.4991
15128TIP3   OH266798   4.495   3.782  11.038  0.1427 -0.0453  0.1437
15128TIP3    H166799   4.466   3.738  11.118 -0.2282 -0.6824 -0.3372
15128TIP3    H266800   4.426   3.765  10.974  1.1253 -0.8085 -0.7484
15129TIP3   OH266801   5.289   0.597  14.510 -0.3167 -0.2551  0.2062
15129TIP3    H166802   5.199   0.609  14.541 -0.2393  1.2399 -0.0671
15129TIP3    H266803   5.279   0.557  14.424 -0.9000  2.0659 -0.8986
15130TIP3   OH266804   5.168   5.057   5.004  0.3789  0.1823 -0.3236
15130TIP3    H166805   5.228   5.086   5.072  0.5506  1.4299 -0.9853
15130TIP3    H266806   5.223   5.045   4.926  0.1111 -0.7821 -0.3875
15131TIP3   OH266807   4.646   5.090   6.329 -0.3385 -0.1968  0.3042
15131TIP3    H166808   4.628   5.162   6.389 -2.3006 -1.1780  0.9860
15131TIP3    H266809   4.728   5.052   6.361 -0.4636  0.3480  1.3053
15132TIP3   OH266810   4.668   0.297   0.705 -0.3417 -0.7393 -0.0994
15132TIP3    H166811   4.580   0.287   0.740 -0.3483 -1.1367 -0.2339
15132TIP3    H266812   4.721   0.323   0.780 -0.7808  0.6211 -0.2233
15133TIP3   OH266813   0.045   6.423  13.207 -0.7280 -0.3934  0.0957
15133TIP3    H166814   0.059   6.489  13.139 -1.4885  0.2759  0.5699
15133TIP3    H266815   0.065   6.340  13.164 -0.2450  0.0937 -0.6583
15134TIP3   OH266816   1.233   3.803  11.693 -0.1776 -0.3319 -0.0684
15134TIP3    H166817   1.204   3.867  11.629 -1.3474 -0.7802 -0.0232
15134TIP3    H266818   1.209   3.718  11.655  5.0217 -1.2367 -2.0991
15135TIP3   OH266819   4.979   2.630  12.889 -0.2967 -0.0723 -0.0257
15135TIP3    H166820   5.027   2.713  12.897 -0.2219 -0.1612  0.4424
15135TIP3    H266821   4.897   2.645  12.936  0.0648 -0.5322  0.7663
15136TIP3   OH266822   6.775   5.186  15.010 -0.0023  0.4361  0.5499
15136TIP3    H166823   6.841   5.194  14.941 -0.9454  1.3357 -0.2800
15136TIP3    H266824   6.753   5.277  15.033  0.6986  0.1826  2.4720
15137TIP3   OH266825   6.192   4.323  10.319  0.1019  0.0463  0.0937
15137TIP3    H166826   6.157   4.235  10.332 -0.5271  0.0048 -1.5800
15137TIP3    H266827   6.117   4.381  10.331 -0.1288  0.1156 -1.4253
15138TIP3   OH266828   1.863   1.586   1.075 -0.2980  0.3090  0.1942
15138TIP3    H166829   1.903   1.631   1.002 -0.5870 -2.3502 -1.7708
15138TIP3    H266830   1.768   1.594   1.060 -0.4071  1.0770  1.1929
15139TIP3   OH266831   1.239   4.689   3.679 -0.2511 -0.1183  0.2721
15139TIP3    H166832   1.304   4.749   3.643  0.3806 -0.0735  1.4343
15139TIP3    H266833   1.170   4.686   3.613  1.4005 -1.0007 -1.5115
15140TIP3   OH266834   0.998   4.302   1.790 -0.2159 -0.4051 -0.0525
15140TIP3    H166835   0.917   4.349   1.772 -0.6272 -0.9089  0.4211
15140TIP3    H266836   1.030   4.339   1.873 -0.6315 -1.0557  0.4105
15141TIP3   OH266837   3.344   4.396   5.132  0.2810  0.3656  0.3463
15141TIP3    H166838   3.393   4.397   5.214  0.7923  0.3372  0.0410
15141TIP3    H266839   3.285   4.472   5.139  0.8439  0.8035  0.4281
15142TIP3   OH266840   5.909   0.741   3.267  0.2340 -0.0349  0.3543
15142TIP3    H166841   5.872   0.806   3.327  0.3473  0.6851 -0.3205
15142TIP3    H266842   6.002   0.737   3.291  0.0422 -0.6584  1.0126
15143TIP3   OH266843   6.695   1.971   4.018  0.1761 -0.3431 -0.6274
15143TIP3    H166844   6.753   2.037   3.981  0.7547 -0.2411  0.4071
15143TIP3    H266845   6.735   1.887   3.993  0.4202 -0.2788 -0.4534
15144TIP3   OH266846   5.335   0.506   4.220  0.3164 -0.2645 -0.3892
15144TIP3    H166847   5.412   0.540   4.266  0.5662 -1.4446  0.1063
15144TIP3    H266848   5.363   0.496   4.129 -0.1776  2.0788 -0.8659
15145TIP3   OH266849   2.220   6.051   6.169 -0.2236 -0.0545  0.2668
15145TIP3    H166850   2.195   5.967   6.208 -1.7463 -0.0282 -0.5761
15145TIP3    H266851   2.308   6.067   6.202 -0.9962 -0.5709  2.7647
15146TIP3   OH266852   2.081   1.456   0.358  0.2162  0.0480  0.1287
15146TIP3    H166853   2.092   1.361   0.354  3.1532  0.3237 -0.7638
15146TIP3    H266854   2.147   1.491   0.298  0.6650  2.7137  1.9578
15147TIP3   OH266855   6.494   6.126   2.051 -0.2880  0.3854 -0.2075
15147TIP3    H166856   6.446   6.088   1.977 -3.2244  0.2915  1.5597
15147TIP3    H266857   6.442   6.101   2.128  2.5618  0.5163  1.9283
15148TIP3   OH266858   0.707   3.989  15.849 -0.0927  0.0234  0.1235
15148TIP3    H166859   0.732   4.031  15.767  0.1853 -0.6901 -0.1651
15148TIP3    H266860   0.635   4.042  15.882  1.0906  1.5039  0.4437
15149TIP3   OH266861   1.699   2.796   1.997 -0.7597 -0.6134 -0.0522
15149TIP3    H166862   1.630   2.862   2.002 -0.9193 -0.7254 -0.6942
15149TIP3    H266863   1.777   2.845   1.974 -0.9033 -0.6648 -0.6478
15150TIP3   OH266864   4.159   6.223   0.358  0.0022  0.4758  0.4782
15150TIP3    H166865   4.116   6.235   0.274 -0.2203 -0.2339  0.4866
15150TIP3    H266866   4.252   6.210   0.336 -0.4169 -2.4097  0.1086
15151TIP3   OH266867   6.298   3.853   0.175 -0.5934 -0.4648  0.1451
15151TIP3    H166868   6.308   3.784   0.240 -1.8644 -0.0156  0.8627
15151TIP3    H266869   6.227   3.908   0.209  1.5576  2.3153  0.5764
15152TIP3   OH266870   2.813   2.248  11.304 -0.1963 -0.1287  0.6720
15152TIP3    H166871   2.731   2.293  11.323  0.5021  1.5734 -0.1281
15152TIP3    H266872   2.881   2.310  11.330  0.8846 -1.5891  1.5415
15153TIP3   OH266873   6.280   4.754   5.841  0.1156 -0.5982  0.3039
15153TIP3    H166874   6.352   4.764   5.780 -0.3265 -1.2570 -0.3329
15153TIP3    H266875   6.228   4.834   5.831  1.3313  0.4083  1.5768
15154TIP3   OH266876   1.834   0.798  15.707  0.2164  0.1035 -0.0285
15154TIP3    H166877   1.855   0.748  15.628 -0.4537 -0.3252  0.0625
15154TIP3    H266878   1.909   0.783  15.765  0.7112  0.4179 -0.5758
15155TIP3   OH266879   5.220   3.053  15.684 -0.3634 -0.1634 -0.4770
15155TIP3    H166880   5.190   3.055  15.774 -0.1610  1.0241 -0.4204
15155TIP3    H266881   5.206   2.963  15.656  1.6504 -1.1713  1.4404
15156TIP3   OH266882   2.849   6.618   2.363  0.8705 -0.2223 -0.5709
15156TIP3    H166883   2.794   6.695   2.348 -2.2080 -1.4914  2.6907
15156TIP3    H266884   2.886   6.597   2.278 -0.1478  3.3610 -2.0577
15157TIP3   OH266885   5.310   6.586  12.897  0.7043 -0.1784  0.8501
15157TIP3    H166886   5.296   6.534  12.818  3.1384 -0.7778  0.7404
15157TIP3    H266887   5.296   6.676  12.870 -2.2164 -0.5744  0.7090
15158TIP3   OH266888   0.840   0.291   3.890 -0.6129  0.3097  0.4651
15158TIP3    H166889   0.861   0.269   3.980  0.6465  0.6525  0.2704
15158TIP3    H266890   0.860   0.211   3.841 -2.3020 -0.2368  0.5966
15159TIP3   OH266891   0.842   4.679   3.020 -0.1792  0.2879  0.0705
15159TIP3    H166892   0.859   4.773   3.031 -1.2727  0.5512 -0.3637
15159TIP3    H266893   0.752   4.674   2.988 -0.3960 -0.9504  0.7819
15160TIP3   OH266894   5.606   0.575   2.105  0.7372 -0.6895 -0.8031
15160TIP3    H166895   5.701   0.563   2.108  0.9507  0.8718  0.4128
15160TIP3    H266896   5.582   0.592   2.197 -0.5421 -0.0364 -1.2422
15161TIP3   OH266897   2.840   2.793  13.209 -0.2780 -0.2478 -0.4742
15161TIP3    H166898   2.747   2.791  13.186 -0.0836  1.3825 -1.5360
15161TIP3    H266899   2.881   2.728  13.152 -0.7872 -1.2185  0.2362
15162TIP3   OH266900   0.858   0.454  16.106  0.0101  0.2490 -0.1711
15162TIP3    H166901   0.807   0.534  16.117  0.3130  0.5711 -0.9921
15162TIP3    H266902   0.896   0.462  16.018  1.9848  0.3131  0.6411
15163TIP3   OH266903   0.460   6.045  12.294 -0.3246  0.3408 -0.3006
15163TIP3    H166904   0.542   6.038  12.342  0.3687  0.9100 -1.3700
15163TIP3    H266905   0.486   6.059  12.203 -1.5838  1.5396 -0.5185
15164TIP3   OH266906   1.225   3.641  14.841  0.2255  0.6233  0.3919
15164TIP3    H166907   1.315   3.670  14.823  1.3465 -0.4007  3.5654
15164TIP3    H266908   1.184   3.715  14.886 -0.6848  1.1991 -1.3162
15165TIP3   OH266909   6.406   4.881   1.971 -0.1672 -0.7604  0.4563
15165TIP3    H166910   6.396   4.959   1.917  1.7499 -0.5502  0.3619
15165TIP3    H266911   6.348   4.897   2.046 -1.4100 -0.2202 -0.5829
15166TIP3   OH266912   0.435   6.166  16.595 -0.0065 -0.0894  0.5228
15166TIP3    H166913   0.468   6.150  16.683 -0.2432 -0.1043  0.6083
15166TIP3    H266914   0.489   6.238  16.562  1.7703 -1.6875 -0.2630
15167TIP3   OH266915   3.837   3.880   5.058  0.5295 -0.1801  0.0874
15167TIP3    H166916   3.882   3.878   4.973 -0.7317  1.5674 -0.6979
15167TIP3    H266917   3.782   3.958   5.054 -2.2143 -1.8810  1.1445
15168TIP3   OH266918   3.974   5.834  17.037  0.0180 -0.9199 -0.1091
15168TIP3    H166919   4.048   5.775  17.043  0.1231 -0.7468  0.3929
15168TIP3    H266920   3.944   5.828  16.947  0.9430 -0.6237 -0.4424
15169TIP3   OH266921   1.829   5.903   5.463 -0.1051 -0.2838  0.5783
15169TIP3    H166922   1.843   5.997   5.473 -0.0448 -0.2669  0.3512
15169TIP3    H266923   1.752   5.896   5.407 -0.0604 -0.3686  0.5271
15170TIP3   OH266924   2.300   0.515  12.610 -0.4975 -0.6992  0.2322
15170TIP3    H166925   2.242   0.540  12.538 -0.5398  0.9780  0.8048
15170TIP3    H266926   2.386   0.505  12.569  0.0492  2.7965  0.2503
15171TIP3   OH266927   5.717   5.336  15.659  0.1075 -0.1255 -0.3375
15171TIP3    H166928   5.810   5.353  15.645  0.3181  0.7930  1.8202
15171TIP3    H266929   5.713   5.245  15.687  0.5879  0.3168  1.2337
15172TIP3   OH266930   6.060   4.119  16.441  0.1311  0.6781 -0.2223
15172TIP3    H166931   6.117   4.123  16.518 -0.5142 -0.8563  0.3771
15172TIP3    H266932   6.075   4.032  16.404 -0.9359  0.6945 -0.7402
15173TIP3   OH266933   3.331   1.258   2.272 -0.1172  0.6086  0.0098
15173TIP3    H166934   3.346   1.225   2.360 -0.1282  0.9283  0.1305
15173TIP3    H266935   3.370   1.192   2.215  0.0206  0.4754  0.2566
15174TIP3   OH266936   4.849   3.121  11.453 -0.2876 -0.5092 -0.5279
15174TIP3    H166937   4.804   3.074  11.383  1.1355 -2.5701 -0.1381
15174TIP3    H266938   4.884   3.053  11.509  1.7817  1.0359  0.1779
15175TIP3   OH266939   5.235   3.579   5.089 -0.6038 -0.4443 -0.0878
15175TIP3    H166940   5.218   3.501   5.142 -1.9280  0.5424  1.0242
15175TIP3    H266941   5.316   3.615   5.125 -0.0256 -1.2637 -0.5607
15176TIP3   OH266942   4.477   0.669   4.080  0.1816  0.0755 -0.5547
15176TIP3    H166943   4.418   0.631   4.145  0.6955 -1.2568 -0.8391
15176TIP3    H266944   4.495   0.757   4.113  0.0835 -0.4184  0.8783
15177TIP3   OH266945   2.016   4.099   5.378 -0.2451 -0.7870  0.6402
15177TIP3    H166946   2.059   4.139   5.454 -1.1256  0.7430  0.3671
15177TIP3    H266947   1.956   4.166   5.346  0.2418 -1.3076 -1.5552
15178TIP3   OH266948   4.733   3.409   2.111 -0.6178  0.4541 -0.4125
15178TIP3    H166949   4.662   3.467   2.139  0.0014  0.2462  1.7588
15178TIP3    H266950   4.700   3.320   2.127 -0.6432  0.2676 -1.4148
15179TIP3   OH266951   1.941   3.759   4.074 -0.0398 -0.3365  0.0033
15179TIP3    H166952   1.899   3.826   4.020  1.5019 -0.4924 -1.4994
15179TIP3    H266953   1.892   3.759   4.156  0.8824  3.7967  0.7734
15180TIP3   OH266954   1.082   4.363  16.274  0.0409  0.8560  0.1442
15180TIP3    H166955   1.136   4.337  16.349 -0.6717  0.0184  0.3802
15180TIP3    H266956   1.133   4.338  16.198  0.8369  1.8425  0.3308
15181TIP3   OH266957   2.477   1.211  11.454 -0.6611 -0.2319 -0.0951
15181TIP3    H166958   2.436   1.216  11.368 -0.2170 -2.0045 -0.4393
15181TIP3    H266959   2.411   1.246  11.514 -1.6634 -0.6150 -0.9466
15182TIP3   OH266960   0.204   2.691   0.475  0.1763 -0.5166  0.1078
15182TIP3    H166961   0.159   2.627   0.530 -0.8547  0.1165  0.0301
15182TIP3    H266962   0.153   2.772   0.485  0.1599 -0.2860 -1.4749
15183TIP3   OH266963   5.277   6.481  12.170 -0.1557  0.1058  0.2878
15183TIP3    H166964   5.322   6.565  12.181  0.9017 -0.4882  0.5629
15183TIP3    H266965   5.243   6.484  12.081 -0.2188  0.8606  0.3267
15184TIP3   OH266966   6.401   4.790  12.708 -0.1421  0.5991 -0.0547
15184TIP3    H166967   6.332   4.780  12.643  0.3971  0.9355 -0.6754
15184TIP3    H266968   6.378   4.726  12.776  0.0475 -0.7517 -1.2247
15185TIP3   OH266969   0.576   3.742  15.982  0.3284 -0.4657 -0.0563
15185TIP3    H166970   0.635   3.731  15.907  0.2905  1.5136 -0.4094
15185TIP3    H266971   0.572   3.836  15.996 -0.4366 -0.7480  1.8492
15186TIP3   OH266972   4.968   0.720   3.385  0.5940  0.2882 -0.1821
15186TIP3    H166973   4.951   0.645   3.443 -0.5009  0.6524 -0.0013
15186TIP3    H266974   4.926   0.695   3.302  3.1320 -0.7260 -1.2509
15187TIP3   OH266975   3.977   1.773  14.469  0.7955 -0.2187 -0.0810
15187TIP3    H166976   3.882   1.761  14.472  0.8070 -1.0898 -1.8504
15187TIP3    H266977   3.994   1.845  14.529 -1.2154  1.1802 -1.0598
15188TIP3   OH266978   4.354   2.397   1.544 -0.5599 -0.4736 -0.2743
15188TIP3    H166979   4.321   2.322   1.593 -3.1653  1.2727  0.8665
15188TIP3    H266980   4.445   2.374   1.522 -0.5279 -2.9537  1.9980
15189TIP3   OH266981   2.904   5.282   3.969 -0.2804 -0.7974 -0.1199
15189TIP3    H166982   2.886   5.299   3.876 -1.2573 -1.9065 -0.1552
15189TIP3    H266983   2.939   5.365   4.002  0.6273 -0.5516 -1.5980
15190TIP3   OH266984   1.129   2.008   5.529 -0.9545  0.5768  0.5757
15190TIP3    H166985   1.197   2.071   5.552  1.2678 -1.3341 -0.3283
15190TIP3    H266986   1.073   2.056   5.467  0.8088  1.6122 -0.3107
15191TIP3   OH266987   4.696   5.718   2.328 -0.3248 -0.7363 -0.0170
15191TIP3    H166988   4.651   5.802   2.327 -0.8721 -1.0127 -1.5441
15191TIP3    H266989   4.777   5.734   2.377 -0.6490  0.5382  0.1289
15192TIP3   OH266990   4.727   3.813   1.674 -0.0966  0.3217 -0.5791
15192TIP3    H166991   4.658   3.764   1.718  0.2265  0.0432 -0.3754
15192TIP3    H266992   4.698   3.818   1.583 -0.1077 -0.3106 -0.6188
15193TIP3   OH266993   3.571   1.379   6.162 -0.0274  0.4432 -0.0225
15193TIP3    H166994   3.617   1.355   6.242 -0.0781  1.0276  0.1902
15193TIP3    H266995   3.485   1.408   6.192  0.0870  1.0365 -0.2393
15194TIP3   OH266996   4.161   3.893   4.003  0.4485 -0.3813  0.4633
15194TIP3    H166997   4.210   3.917   3.925 -1.4151 -0.0391 -0.6721
15194TIP3    H266998   4.202   3.811   4.033  0.9297 -0.7627 -1.1319
15195TIP3   OH266999   2.590   2.629  14.418  0.5549  0.0911  0.3373
15195TIP3    H167000   2.585   2.706  14.361  0.8283  0.5090  0.8680
15195TIP3    H267001   2.561   2.557  14.363  0.1226  0.6016 -0.1160
15196TIP3   OH267002   2.244   4.038   3.719  0.4421  0.4429  0.4913
15196TIP3    H167003   2.198   4.085   3.787 -1.6936 -0.6303 -0.1022
15196TIP3    H267004   2.214   3.947   3.728  1.4543 -0.0584 -0.7734
15197TIP3   OH267005   6.261   2.871   5.824 -1.0772  0.2105 -0.4034
15197TIP3    H167006   6.349   2.909   5.822 -0.3847 -1.1525  1.4332
15197TIP3    H267007   6.204   2.944   5.849 -0.2532  0.7719 -0.1153
15198TIP3   OH267008   3.463   4.749  13.422 -0.4179 -0.4886  0.3301
15198TIP3    H167009   3.444   4.834  13.462  1.5416  0.0191  0.3232
15198TIP3    H267010   3.415   4.750  13.339 -1.4052  0.0850  0.8947
15199TIP3   OH267011   4.282   4.250   4.110 -0.1302 -0.6272 -0.0971
15199TIP3    H167012   4.349   4.189   4.079 -0.8540 -0.9065 -1.1682
15199TIP3    H267013   4.205   4.231   4.056  0.1418  2.4720 -1.8735
15200TIP3   OH267014   1.407   1.451  16.248 -0.2786  0.1264 -0.2195
15200TIP3    H167015   1.464   1.518  16.212  1.3401  0.7593  3.1545
15200TIP3    H267016   1.319   1.490  16.244 -0.4349 -0.2164 -3.9718
15201TIP3   OH267017   5.799   6.034  16.907 -0.2954 -0.3180  0.5812
15201TIP3    H167018   5.717   6.054  16.862 -0.0700  0.3209  0.4426
15201TIP3    H267019   5.814   6.110  16.964  1.2914  0.6324 -0.9865
15202TIP3   OH267020   4.013   6.013  13.935  0.6380 -0.0826 -0.0652
15202TIP3    H167021   4.082   5.955  13.902  0.9371  0.4270 -0.3517
15202TIP3    H267022   4.005   6.082  13.868  0.3333  0.2401  0.2961
15203TIP3   OH267023   4.943   2.837   5.294  0.0337 -0.2832  0.4977
15203TIP3    H167024   4.961   2.892   5.218  1.3647  2.0453  2.3336
15203TIP3    H267025   4.855   2.803   5.279 -1.0191  2.6653 -0.6767
15204TIP3   OH267026   4.549   5.248  11.077  0.2520  0.0151 -0.2896
15204TIP3    H167027   4.458   5.226  11.098 -0.9083  3.4397 -1.1193
15204TIP3    H267028   4.591   5.255  11.163 -1.1458  1.5184  0.3280
15205TIP3   OH267029   0.326   4.593   5.497 -0.0905  0.2180 -0.1789
15205TIP3    H167030   0.362   4.539   5.567  0.4664  0.2734 -0.4116
15205TIP3    H267031   0.392   4.661   5.483  0.7309 -0.8714 -2.0169
15206TIP3   OH267032   2.935   1.061   0.094 -0.4156 -0.0808  0.2542
15206TIP3    H167033   3.029   1.046   0.090 -0.9714 -4.7264 -2.3313
15206TIP3    H267034   2.906   1.014   0.172 -0.6633  1.4658  1.1321
15207TIP3   OH267035   3.806   5.376  15.514  0.2681  0.3737  0.5679
15207TIP3    H167036   3.737   5.407  15.573  1.2680  0.2212  1.8674
15207TIP3    H267037   3.772   5.293  15.479 -0.3761  0.5123  0.8446
15208TIP3   OH267038   1.237   2.628   4.133 -0.9133  0.0954  0.0421
15208TIP3    H167039   1.257   2.722   4.128 -0.0201  0.2073  3.2987
15208TIP3    H267040   1.266   2.593   4.049  0.2227  2.4986 -0.6575
15209TIP3   OH267041   3.763   2.327   5.225  0.8422 -0.1915  0.6773
15209TIP3    H167042   3.719   2.249   5.258 -0.6964  0.0717 -0.5806
15209TIP3    H267043   3.782   2.379   5.303 -3.5810  0.9204  1.3300
15210TIP3   OH267044   6.009   3.940   4.329  0.7535  0.0152  0.1636
15210TIP3    H167045   6.001   3.957   4.423  1.7451  0.7331  0.1326
15210TIP3    H267046   6.099   3.964   4.308  0.4781  0.0587 -1.0187
15211TIP3   OH267047   3.142   0.959   4.740 -0.5022  0.2791 -0.0428
15211TIP3    H167048   3.213   0.985   4.681 -0.3848  1.0472  0.4212
15211TIP3    H267049   3.093   1.040   4.757 -1.4527 -0.2244 -0.2993
15212TIP3   OH267050   2.247   5.700  11.384  0.2486  0.4484  0.1328
15212TIP3    H167051   2.268   5.708  11.477  0.4572  1.7656 -0.0151
15212TIP3    H267052   2.328   5.668  11.344  1.5659  3.7807 -0.1626
15213TIP3   OH267053   2.359   1.184  10.893  0.2029 -0.1065  0.8826
15213TIP3    H167054   2.424   1.119  10.865  0.9535  0.1773  1.8858
15213TIP3    H267055   2.408   1.243  10.951  0.1435  2.6932 -1.6603
15214TIP3   OH267056   0.774   2.718  16.408  0.5864  0.3000  0.7236
15214TIP3    H167057   0.784   2.812  16.391 -0.0898  0.3467  0.5568
15214TIP3    H267058   0.768   2.679  16.321 -1.4002  0.3737  0.7781
15215TIP3   OH267059   1.421   2.510  13.268  0.4089  0.4947 -0.1064
15215TIP3    H167060   1.358   2.458  13.218  0.0973 -0.1268  0.9200
15215TIP3    H267061   1.409   2.600  13.235  0.5555  0.0416 -1.4877
15216TIP3   OH267062   4.832   4.666   4.073  0.6849 -0.0468 -0.0893
15216TIP3    H167063   4.831   4.760   4.092 -0.8279  0.8515 -3.7118
15216TIP3    H267064   4.883   4.658   3.993 -0.6573 -2.0313 -0.8304
15217TIP3   OH267065   1.068   0.944  16.131 -0.1169 -0.2964 -0.0998
15217TIP3    H167066   0.995   0.994  16.093 -0.0379 -0.2216 -0.1536
15217TIP3    H267067   1.026   0.879  16.188 -0.1543  2.2655  3.0565
15218TIP3   OH267068   2.516   2.425  13.489 -0.0450 -0.2685  0.0565
15218TIP3    H167069   2.469   2.342  13.478  0.7243 -0.9208  1.4878
15218TIP3    H267070   2.474   2.466  13.564  1.1525 -0.5031  0.8715
15219TIP3   OH267071   4.691   5.054  15.876  0.2475  0.2735 -0.4354
15219TIP3    H167072   4.663   5.105  15.952  1.1142  0.0363  0.0637
15219TIP3    H267073   4.734   5.117  15.819  1.0315  0.1845  0.0333
15220TIP3   OH267074   4.504   1.131   6.053  0.1920 -0.2688 -0.5475
15220TIP3    H167075   4.545   1.046   6.039  1.0360 -0.2595  1.4943
15220TIP3    H267076   4.513   1.146   6.147 -0.3852  1.8655 -0.7931
15221TIP3   OH267077   1.055   0.520   2.597  0.4523 -1.1914 -0.2806
15221TIP3    H167078   1.053   0.458   2.669 -0.0254 -1.1924 -0.2855
15221TIP3    H267079   1.029   0.604   2.636  2.1379 -0.7380 -0.0540
15222TIP3   OH267080   4.881   4.164  17.062  0.1146 -0.3002  0.3094
15222TIP3    H167081   4.963   4.136  17.103 -0.3389 -0.5515  1.0720
15222TIP3    H267082   4.825   4.086  17.065  0.0094 -0.2757 -0.6536
15223TIP3   OH267083   0.979   5.837   1.514 -0.2742  0.1090  0.2000
15223TIP3    H167084   1.025   5.870   1.437 -1.3458  4.3062  1.1345
15223TIP3    H267085   0.887   5.831   1.487 -0.2671 -1.0833  0.4034
15224TIP3   OH267086   5.753   0.742  12.434  0.0520  0.2257 -0.2881
15224TIP3    H167087   5.666   0.726  12.398 -0.7953 -0.2299  1.8082
15224TIP3    H267088   5.736   0.782  12.520  1.9062 -0.0055  0.2316
15225TIP3   OH267089   1.191   1.522   4.666 -0.4176  0.4921 -0.3138
15225TIP3    H167090   1.252   1.582   4.623 -1.7709  1.0369 -1.5833
15225TIP3    H267091   1.131   1.579   4.713 -0.5038  0.0156  0.1577
15226TIP3   OH267092   5.118   0.194  10.413 -0.1387  0.4039  0.1243
15226TIP3    H167093   5.176   0.130  10.372  1.0046  1.4286  0.0833
15226TIP3    H267094   5.174   0.269  10.431 -1.2193  1.0175  1.0981
15227TIP3   OH267095   3.579   0.002   3.915  0.2128 -0.2119 -0.1031
15227TIP3    H167096   3.633  -0.074   3.936 -0.6146 -0.9126 -0.4605
15227TIP3    H267097   3.490  -0.033   3.908 -0.4451  1.0336  1.2888
15228TIP3   OH267098   0.951   1.443   5.810  0.1465  0.2497  0.2321
15228TIP3    H167099   0.949   1.526   5.762 -0.4339  0.3778  0.4624
15228TIP3    H267100   1.028   1.450   5.866  1.9791 -0.6906 -2.0032
15229TIP3   OH267101   0.861   1.362  16.307  0.5394  0.4021 -0.3438
15229TIP3    H167102   0.908   1.343  16.226  0.0670  2.9637 -1.3039
15229TIP3    H267103   0.840   1.455  16.301  0.1061  0.5666  2.5536
15230TIP3   OH267104   2.063   6.624  12.007  0.0616  0.8560 -0.4090
15230TIP3    H167105   2.153   6.616  11.976  0.1850 -1.8951  0.3453
15230TIP3    H267106   2.010   6.607  11.930  0.1980  1.4292 -0.6332
15231TIP3   OH267107   2.440   5.880   1.635 -0.2757  0.0075 -0.3415
15231TIP3    H167108   2.382   5.947   1.599 -0.1012  0.8343  0.8531
15231TIP3    H267109   2.527   5.903   1.602 -0.1261  0.7282  0.5040
15232TIP3   OH267110   5.145   2.174  12.473 -0.6240 -0.0918 -0.0390
15232TIP3    H167111   5.185   2.258  12.449 -1.3338  0.8891  1.9692
15232TIP3    H267112   5.125   2.132  12.389  0.0219  1.6111 -1.1033
15233TIP3   OH267113   2.578   4.816   3.447 -0.3162  0.4999 -0.2193
15233TIP3    H167114   2.632   4.854   3.377  0.0482  0.4149  0.0106
15233TIP3    H267115   2.637   4.755   3.492 -0.6268  0.3564 -0.0045
15234TIP3   OH267116   4.979   0.480  16.976 -0.2892 -0.1271 -0.0647
15234TIP3    H167117   5.070   0.453  16.991 -0.9502 -1.4656  1.9909
15234TIP3    H267118   4.968   0.557  17.032 -0.1679  0.6996 -1.1379
15235TIP3   OH267119   2.098   0.720   6.082 -0.0418 -1.0166 -0.1359
15235TIP3    H167120   2.018   0.676   6.051 -0.3646 -0.3864 -0.2096
15235TIP3    H267121   2.167   0.656   6.065 -0.3169 -0.9995 -1.4591
15236TIP3   OH267122   3.955   6.232   4.924 -1.1237  0.0284 -0.2585
15236TIP3    H167123   3.945   6.213   4.831 -2.3487  1.0018 -0.3559
15236TIP3    H267124   4.013   6.163   4.956  0.8985  0.7598 -2.1022
15237TIP3   OH267125   1.313   0.078  11.158 -0.7514  0.2795  0.1139
15237TIP3    H167126   1.331   0.160  11.111 -0.3824  1.1958  1.7512
15237TIP3    H267127   1.313   0.104  11.250 -1.5134 -1.4246  0.6270
15238TIP3   OH267128   6.098   5.905  10.577 -0.4075 -1.0738  0.2404
15238TIP3    H167129   6.024   5.934  10.525  1.5770 -0.2874 -2.3284
15238TIP3    H267130   6.125   5.823  10.537  0.8757 -0.6983  0.2901
15239TIP3   OH267131   5.141   1.844   1.272  0.5276  0.4697  0.5167
15239TIP3    H167132   5.104   1.854   1.360  0.9059  0.0634  0.7212
15239TIP3    H267133   5.168   1.753   1.267  0.3942  0.4558 -0.0703
15240TIP3   OH267134   1.224   2.973   3.780 -0.3006 -0.2181  0.6422
15240TIP3    H167135   1.156   2.905   3.775  0.0265 -0.5488  0.6085
15240TIP3    H267136   1.180   3.053   3.750 -0.6754 -0.4283  0.6220
15241TIP3   OH267137   0.416   0.877   1.658 -0.1604 -0.6474  0.2861
15241TIP3    H167138   0.477   0.942   1.625 -0.9905  1.0813  1.9150
15241TIP3    H267139   0.401   0.903   1.749 -0.5724 -3.1324  0.9989
15242TIP3   OH267140   5.999   4.428   3.633  0.2792 -0.0401  0.0661
15242TIP3    H167141   5.914   4.449   3.595 -0.0528 -1.6473 -0.1385
15242TIP3    H267142   6.062   4.460   3.569 -0.2450 -1.5041 -1.2607
15243TIP3   OH267143   1.845   2.042  16.605  0.6946  0.1613  0.6656
15243TIP3    H167144   1.859   2.025  16.512 -1.0805  3.0434 -0.2593
15243TIP3    H267145   1.773   1.984  16.630  0.0947  0.5166 -0.2012
15244TIP3   OH267146   4.881   5.275   3.928  0.2785 -0.1147 -0.2898
15244TIP3    H167147   4.922   5.192   3.901 -0.4370 -0.8503  0.7936
15244TIP3    H267148   4.954   5.336   3.935  0.8160 -0.6229 -1.1912
15245TIP3   OH267149   2.439   4.955  10.923 -0.3748 -0.1414  0.1788
15245TIP3    H167150   2.494   4.881  10.897 -0.2888 -0.2830  0.7659
15245TIP3    H267151   2.492   5.004  10.986 -0.6923  0.0492  0.3024
15246TIP3   OH267152   1.030   6.046   1.275  0.3684  0.4366  0.0396
15246TIP3    H167153   1.087   6.087   1.210 -1.1290  1.4341 -0.6980
15246TIP3    H267154   0.958   6.009   1.223  0.3403 -0.8528  0.9390
15247TIP3   OH267155   2.109   2.695   3.890 -0.5133 -0.4620 -0.6845
15247TIP3    H167156   2.049   2.730   3.823  0.7608 -0.5001 -1.8937
15247TIP3    H267157   2.124   2.604   3.864 -3.0359 -1.7770  1.8989
15248TIP3   OH267158   5.705   6.358  15.108  0.1582  0.2469  0.2338
15248TIP3    H167159   5.614   6.357  15.136  0.3744 -0.6546  0.9539
15248TIP3    H267160   5.706   6.311  15.025 -0.4107  2.5086 -1.1490
15249TIP3   OH267161   4.195   2.009  12.771  0.6036  0.0925  0.2831
15249TIP3    H167162   4.281   1.968  12.761  0.3295 -0.1185 -1.8380
15249TIP3    H267163   4.190   2.070  12.698 -1.5987 -0.9710 -0.5537
15250TIP3   OH267164   2.021   1.360   3.557 -0.4333 -0.6980  0.0061
15250TIP3    H167165   1.949   1.329   3.501  0.2285  1.4429 -2.1955
15250TIP3    H267166   2.050   1.282   3.604 -2.2555 -2.2305 -1.2467
15251TIP3   OH267167   0.807   6.194   5.588 -1.0934  0.1946  0.0200
15251TIP3    H167168   0.780   6.276   5.628  0.9046  0.3409  1.1898
15251TIP3    H267169   0.902   6.199   5.584 -0.9729 -1.6927 -0.7454
15252TIP3   OH267170   4.073   5.597   2.599  0.3856 -0.3777 -0.3877
15252TIP3    H167171   4.166   5.621   2.606  0.8217 -2.0038 -0.0952
15252TIP3    H267172   4.042   5.597   2.689 -0.5798  2.4380 -0.6289
15253TIP3   OH267173   3.832   1.086  13.693 -0.3372 -0.2685  0.1189
15253TIP3    H167174   3.741   1.059  13.678 -0.1561 -1.3519  0.8452
15253TIP3    H267175   3.880   1.051  13.618 -0.6907  1.4237 -0.9481
15254TIP3   OH267176   1.551   3.504  15.612  0.0892  0.4769 -0.2583
15254TIP3    H167177   1.597   3.505  15.528 -0.3728 -1.3986 -0.5743
15254TIP3    H267178   1.620   3.510  15.678  0.4299  2.4551 -0.7221
15255TIP3   OH267179   0.747   0.430  15.191  0.0245  0.1402 -0.1910
15255TIP3    H167180   0.673   0.385  15.150  1.2929 -2.0040 -0.2947
15255TIP3    H267181   0.814   0.432  15.123  1.8606 -2.6862  1.3354
15256TIP3   OH267182   2.176   4.473  11.277  0.1115  0.1028  0.2577
15256TIP3    H167183   2.203   4.507  11.192  2.8669 -0.1540  0.9358
15256TIP3    H267184   2.118   4.540  11.313 -0.6648  0.4603 -1.5516
15257TIP3   OH267185   2.720   5.874   0.788 -0.3832 -0.3197  0.7767
15257TIP3    H167186   2.756   5.796   0.830  0.3498 -0.7975 -0.6609
15257TIP3    H267187   2.734   5.944   0.851 -0.3473 -1.2007  1.7800
15258TIP3   OH267188   5.366   3.082  13.206 -0.2535 -0.1245  0.3776
15258TIP3    H167189   5.299   3.019  13.180 -0.4850  0.0705  0.5060
15258TIP3    H267190   5.336   3.166  13.172 -0.4754  0.1040  1.1133
15259TIP3   OH267191   1.417   5.401  16.497  0.1264 -0.5368 -0.3592
15259TIP3    H167192   1.463   5.413  16.413 -1.2008 -1.1762 -1.2151
15259TIP3    H267193   1.329   5.372  16.472 -0.3780 -0.4906  1.2633
15260TIP3   OH267194   4.569   3.013  14.380  0.1825 -0.0390 -0.2283
15260TIP3    H167195   4.545   3.027  14.288 -0.1528 -1.3982 -0.3566
15260TIP3    H267196   4.656   2.973  14.376  0.7953  1.2112  0.1131
15261TIP3   OH267197   3.394   5.377  13.017 -0.6684  0.4679  0.3012
15261TIP3    H167198   3.392   5.393  13.111 -1.5317  2.1220  0.0471
15261TIP3    H267199   3.312   5.332  12.998 -0.9071  0.9394  0.2151
15262TIP3   OH267200   4.445   5.847   3.755 -0.2809  0.1130 -0.2582
15262TIP3    H167201   4.522   5.900   3.732 -1.0464  0.6419 -1.7316
15262TIP3    H267202   4.447   5.842   3.851  0.3225  2.0501 -0.1343
15263TIP3   OH267203   1.779   6.574  15.901 -0.3146 -0.3543  0.0699
15263TIP3    H167204   1.800   6.656  15.855  0.9077 -0.5856  0.1604
15263TIP3    H267205   1.840   6.511  15.863 -2.0487 -1.5438 -0.8731
15264TIP3   OH267206   5.628   4.421  13.455  0.0738 -0.2450 -0.2110
15264TIP3    H167207   5.687   4.486  13.495 -1.2436  0.2768  0.9543
15264TIP3    H267208   5.552   4.472  13.428  0.0461 -0.9440 -1.5037
15265TIP3   OH267209   0.619   3.052   2.186 -0.0808  0.5643 -0.0892
15265TIP3    H167210   0.524   3.047   2.177 -0.2359  0.8342  1.2099
15265TIP3    H267211   0.643   3.133   2.143 -0.3084  0.0467 -1.2419
15266TIP3   OH267212   6.509   2.244  14.074  0.6707 -0.1701 -0.1947
15266TIP3    H167213   6.460   2.162  14.065 -0.8030  0.7636 -1.0417
15266TIP3    H267214   6.530   2.269  13.984 -0.3390  1.2145 -0.0650
15267TIP3   OH267215   5.859   0.832   3.555  0.1675 -0.0400 -0.0195
15267TIP3    H167216   5.846   0.922   3.524  1.0949 -0.0745 -0.5698
15267TIP3    H267217   5.775   0.807   3.593 -0.5290  0.5998 -1.0596
15268TIP3   OH267218   3.458   2.570   2.330 -0.0392  0.1866 -0.4099
15268TIP3    H167219   3.552   2.549   2.332  0.2452  1.4042 -0.2566
15268TIP3    H267220   3.432   2.570   2.422 -0.1738 -0.0481 -0.4466
15269TIP3   OH267221   3.566   0.266   1.844  0.0434 -0.2567 -0.1528
15269TIP3    H167222   3.552   0.226   1.758 -0.0495  0.4581 -0.4755
15269TIP3    H267223   3.661   0.280   1.847  0.1285 -0.8433  0.1232
15270TIP3   OH267224   5.699   3.885   2.734 -0.6811 -0.5738  0.7084
15270TIP3    H167225   5.628   3.873   2.798 -1.4542  3.9629  1.0601
15270TIP3    H267226   5.655   3.883   2.649 -1.0572  0.9191  0.8480
15271TIP3   OH267227   3.944   6.282   3.753  0.2100  0.3021  0.5741
15271TIP3    H167228   3.940   6.377   3.762 -0.3891  0.2250  1.2633
15271TIP3    H267229   3.976   6.251   3.838 -1.1485 -0.1997  0.9259
15272TIP3   OH267230   2.471   5.528   3.310  0.8844  0.2416 -0.4020
15272TIP3    H167231   2.500   5.504   3.222 -1.2491 -1.2618 -0.7833
15272TIP3    H267232   2.497   5.454   3.365 -2.5631 -1.5516 -0.9004
15273TIP3   OH267233   3.113   3.794   2.743  0.0033 -0.4148  0.7525
15273TIP3    H167234   3.169   3.841   2.682 -0.0440 -0.1880  0.8859
15273TIP3    H267235   3.133   3.701   2.726 -0.9047 -0.4148 -0.4605
15274TIP3   OH267236   3.677   0.948  17.051  0.0414  0.0319  0.0780
15274TIP3    H167237   3.687   0.885  16.980  1.4239  0.4494 -0.1329
15274TIP3    H267238   3.642   1.026  17.008  0.3319  0.0924 -0.0562
15275TIP3   OH267239   6.491   0.851  13.481  0.2581  0.0553  0.7796
15275TIP3    H167240   6.416   0.910  13.486 -0.4417 -0.8785  1.6516
15275TIP3    H267241   6.541   0.869  13.560  0.6509  0.2470  0.4963
15276TIP3   OH267242   2.588   2.863  14.021 -0.6141  0.1581  0.6470
15276TIP3    H167243   2.604   2.955  14.039  0.0230  0.1934 -0.0283
15276TIP3    H267244   2.676   2.824  14.018 -0.8733 -0.4560  0.8420
15277TIP3   OH267245   6.500   1.421   0.614 -0.1468  0.1313  0.2848
15277TIP3    H167246   6.407   1.400   0.626  0.0489 -0.7226  0.3352
15277TIP3    H267247   6.500   1.491   0.549 -0.7961 -0.2238 -0.1133
15278TIP3   OH267248   0.441   1.058  14.015 -0.4630  0.3350 -0.0448
15278TIP3    H167249   0.383   0.996  14.060 -2.1025  1.4762 -0.4714
15278TIP3    H267250   0.439   1.136  14.070 -0.2061  0.7712 -0.6451
15279TIP3   OH267251   6.737   4.236  15.410  0.3551 -0.6584 -0.0520
15279TIP3    H167252   6.684   4.164  15.444  0.1910 -1.9222 -2.7651
15279TIP3    H267253   6.820   4.229  15.458 -0.0488 -1.9454  0.5041
15280TIP3   OH267254   6.395   2.834   2.345  0.0705  0.0009  0.4281
15280TIP3    H167255   6.405   2.820   2.251 -1.0298 -0.1539  0.3276
15280TIP3    H267256   6.450   2.910   2.364  1.2780 -0.7045 -0.1068
15281TIP3   OH267257   1.914   2.447  11.126 -0.4272 -0.0808  0.3275
15281TIP3    H167258   1.860   2.514  11.170 -2.0731 -1.2806  0.2212
15281TIP3    H267259   1.963   2.406  11.197  1.9490  2.3225  0.2109
15282TIP3   OH267260   3.837   1.412  12.289  0.2313 -0.3183 -0.5820
15282TIP3    H167261   3.792   1.400  12.205  2.2854  2.5591 -2.2482
15282TIP3    H267262   3.930   1.406  12.268  0.8062  0.1052  1.5953
15283TIP3   OH267263   1.098   4.483   6.491 -0.1556  0.6328  0.0784
15283TIP3    H167264   1.147   4.559   6.523  0.8184  0.5685 -1.1662
15283TIP3    H267265   1.149   4.408   6.521 -1.9479  0.3335  2.6742
15284TIP3   OH267266   3.125   3.095   4.714  0.2722 -0.6537  0.5235
15284TIP3    H167267   3.066   3.065   4.784 -3.0713  0.7092 -1.4649
15284TIP3    H267268   3.164   3.175   4.749 -0.8697 -0.3220  1.1111
15285TIP3   OH267269   4.839   2.408   3.185 -0.2797 -0.2332  0.1520
15285TIP3    H167270   4.873   2.479   3.241  1.1365  0.9998 -2.1205
15285TIP3    H267271   4.744   2.419   3.189 -0.2390 -0.1684  2.2160
15286TIP3   OH267272   6.475   2.908  16.180  0.0238 -0.0891 -0.1612
15286TIP3    H167273   6.390   2.945  16.160  0.9184  2.0944 -0.1951
15286TIP3    H267274   6.527   2.920  16.101  1.0132  0.6911  0.5772
15287TIP3   OH267275   1.969   4.490  17.055  0.3757 -0.0309 -0.1841
15287TIP3    H167276   1.926   4.546  16.991  0.8146 -1.1747 -1.5280
15287TIP3    H267277   1.977   4.545  17.133 -1.6895  0.8528 -0.5271
15288TIP3   OH267278   5.195   5.932  14.941 -0.2163  0.2010 -0.1921
15288TIP3    H167279   5.114   5.965  14.902  0.2001 -0.2610 -1.5123
15288TIP3    H267280   5.235   5.880  14.871  1.4112  0.7292  0.3084
15289TIP3   OH267281   5.247   4.850   2.842  0.2249  0.3324  0.3737
15289TIP3    H167282   5.301   4.823   2.916 -0.1244 -1.7895 -0.0799
15289TIP3    H267283   5.309   4.885   2.778  0.5785  1.6732  1.3988
15290TIP3   OH267284   0.023   3.972   5.540  0.2481  0.3198  0.4401
15290TIP3    H167285   0.107   3.931   5.523 -0.8692 -1.0263 -2.5246
15290TIP3    H267286   0.035   4.064   5.516  0.0837 -0.5475 -3.5704
15291TIP3   OH267287   3.485   1.550  12.505  1.1274  0.3301  0.2320
15291TIP3    H167288   3.478   1.621  12.569  1.5477  1.1090 -0.5568
15291TIP3    H267289   3.395   1.537  12.475  0.9561  0.0891  0.8331
15292TIP3   OH267290   3.155   3.683   5.348 -0.5564 -0.4322  0.0451
15292TIP3    H167291   3.078   3.738   5.331 -1.2110 -1.1820  0.5267
15292TIP3    H267292   3.142   3.607   5.291 -0.6429 -0.9952  0.8130
15293TIP3   OH267293   0.784   5.604  11.096  0.6171 -0.2467  0.0289
15293TIP3    H167294   0.718   5.651  11.045 -0.4170 -0.2181  1.3271
15293TIP3    H267295   0.804   5.664  11.168 -0.0832 -1.3941  1.2321
15294TIP3   OH267296   4.693   2.571   6.129  0.9259  0.0211 -0.3694
15294TIP3    H167297   4.747   2.495   6.148  1.5260  0.5744  0.1760
15294TIP3    H267298   4.617   2.562   6.186  0.1654 -1.0165 -1.4878
15295TIP3   OH267299   4.030   6.807   4.120 -0.2055 -0.0272 -0.6385
15295TIP3    H167300   3.943   6.842   4.101  0.4398  1.9841 -0.0738
15295TIP3    H267301   4.021   6.768   4.207 -0.1090  1.9313  0.3023
15296TIP3   OH267302   2.091   3.592  15.819 -0.1466  0.3246  0.1545
15296TIP3    H167303   2.014   3.555  15.863  0.7536 -0.3613  1.1880
15296TIP3    H267304   2.164   3.574  15.878  0.9978 -0.0502 -1.3185
15297TIP3   OH267305   1.757   2.298  12.222 -0.5113 -0.5952  0.6590
15297TIP3    H167306   1.725   2.223  12.271 -1.1973 -1.2168 -0.6720
15297TIP3    H267307   1.705   2.298  12.141 -0.5611  1.3430  0.6361
15298TIP3   OH267308   6.114   3.993  14.208 -0.1335  0.2979 -0.3483
15298TIP3    H167309   6.201   4.029  14.190  0.0129 -0.6148 -1.6663
15298TIP3    H267310   6.059   4.070  14.223  0.3924  1.0466 -2.0058
15299TIP3   OH267311   3.490   3.142   0.510  0.1478  0.7288  0.2763
15299TIP3    H167312   3.484   3.051   0.539  0.7223  0.6118  0.0293
15299TIP3    H267313   3.530   3.188   0.584  0.9182  0.5663 -0.0286
15300TIP3   OH267314   6.570   3.676   2.224 -0.1435  0.4529  0.2134
15300TIP3    H167315   6.505   3.705   2.287 -0.0133  4.5695 -1.2130
15300TIP3    H267316   6.520   3.660   2.144  0.2755  1.8760 -0.3819
15301TIP3   OH267317   2.862   1.809  14.463  0.4706  0.1026  0.0890
15301TIP3    H167318   2.880   1.756  14.386 -0.8725 -2.2883  1.3137
15301TIP3    H267319   2.787   1.864  14.438 -0.0934 -0.8163 -0.2648
15302TIP3   OH267320   5.265   0.160  15.601  0.4150 -0.0336 -0.4996
15302TIP3    H167321   5.255   0.245  15.559 -0.0911  0.2754  0.2194
15302TIP3    H267322   5.206   0.163  15.676  1.0568 -0.6817  0.0577
15303TIP3   OH267323   0.924   5.899  11.850 -0.0619 -0.1128 -0.0257
15303TIP3    H167324   0.939   5.993  11.841  0.8341 -0.1113  1.2446
15303TIP3    H267325   1.010   5.859  11.835 -0.1707 -0.6316  0.6841
15304TIP3   OH267326   1.323   5.282   5.477 -0.2939  0.0646 -0.4405
15304TIP3    H167327   1.240   5.244   5.448 -1.2256  2.0230 -0.5205
15304TIP3    H267328   1.387   5.212   5.465 -1.8629 -1.3939 -0.7034
15305TIP3   OH267329   2.426   0.016   4.802  0.0043 -0.1046  0.4543
15305TIP3    H167330   2.480   0.088   4.834  2.0298 -0.5995 -1.5890
15305TIP3    H267331   2.359   0.058   4.748  0.1713  0.3562  0.6014
15306TIP3   OH267332   0.579   1.600   0.796 -0.1304 -0.8736  0.0646
15306TIP3    H167333   0.578   1.516   0.749  1.1661 -2.1982  2.2392
15306TIP3    H267334   0.525   1.585   0.874  0.3046  0.2364  0.6027
15307TIP3   OH267335   1.505   3.894  14.345 -1.0609 -0.5870 -0.6095
15307TIP3    H167336   1.530   3.819  14.290  1.4556  0.5935 -1.2034
15307TIP3    H267337   1.484   3.963  14.282 -0.1345  0.1709 -0.1061
15308TIP3   OH267338   2.642   0.282  11.162  0.0454 -0.3479  0.8912
15308TIP3    H167339   2.651   0.376  11.151 -0.7275 -0.4149 -0.5622
15308TIP3    H267340   2.732   0.249  11.164  0.3027  0.3107  0.3540
15309TIP3   OH267341   4.448   0.396   0.158 -0.3319  0.5088  0.6325
15309TIP3    H167342   4.394   0.330   0.202 -0.5141  0.6244  0.5846
15309TIP3    H267343   4.491   0.348   0.088 -2.4931  0.9431 -1.1058
15310TIP3   OH267344   4.307   0.176  11.500  0.0307 -0.6742 -0.0075
15310TIP3    H167345   4.247   0.159  11.573  0.4285 -0.0805  0.4673
15310TIP3    H267346   4.393   0.179  11.541  0.0186  2.5563  0.0047
15311TIP3   OH267347   0.773   5.308   1.107  0.3145  0.1444  0.0053
15311TIP3    H167348   0.764   5.258   1.026  0.9634  1.1070 -0.6750
15311TIP3    H267349   0.709   5.268   1.167 -1.8109  0.8180 -1.6603
15312TIP3   OH267350   2.771   5.252   2.320  0.6923  0.2434  0.3036
15312TIP3    H167351   2.741   5.167   2.350  0.1354  0.0847 -0.6706
15312TIP3    H267352   2.694   5.309   2.327  0.7479  0.3760 -0.1362
15313TIP3   OH267353   2.999   3.947  12.167  0.7032  0.8649  0.3104
15313TIP3    H167354   2.995   3.871  12.109  1.9317  1.0418 -0.0380
15313TIP3    H267355   2.913   3.949  12.210  1.4152 -2.1039  2.1087
15314TIP3   OH267356   1.313   4.845   3.923 -0.5714  0.3494  0.1641
15314TIP3    H167357   1.391   4.789   3.926  0.0865  1.2826  1.5746
15314TIP3    H267358   1.327   4.901   3.847  0.0015  0.3008  0.2237
15315TIP3   OH267359   1.247   4.869   0.014 -0.4408 -0.0912 -0.1080
15315TIP3    H167360   1.223   4.869   0.106 -0.4413  0.2883 -0.1071
15315TIP3    H267361   1.176   4.915  -0.030  0.3197  1.1682 -0.0888
15316TIP3   OH267362   5.746   4.991   0.201  0.4639 -0.4825 -0.0121
15316TIP3    H167363   5.670   4.950   0.241 -0.2513  0.1338 -0.6843
15316TIP3    H267364   5.751   4.953   0.113  0.4526  0.0437 -0.2495
15317TIP3   OH267365   1.301   2.828   2.158 -0.0202  0.4957 -0.7652
15317TIP3    H167366   1.324   2.883   2.233 -1.6111  1.4396 -0.9291
15317TIP3    H267367   1.325   2.740   2.186 -1.2655  0.7125  1.1742
15318TIP3   OH267368   1.578   2.454  15.257  0.1453 -0.0377 -0.6206
15318TIP3    H167369   1.570   2.391  15.329 -2.0181 -0.5983 -1.2721
15318TIP3    H267370   1.553   2.405  15.179  0.0991  1.1867 -1.4017
15319TIP3   OH267371   6.083   3.230   1.471 -0.0613 -0.1148  0.4301
15319TIP3    H167372   6.044   3.167   1.411 -0.7870 -1.1936  2.0103
15319TIP3    H267373   6.059   3.315   1.434 -2.1917 -0.7457  0.2542
15320TIP3   OH267374   5.466   3.001  13.516 -0.5803 -0.5932  0.3099
15320TIP3    H167375   5.470   3.094  13.538  1.2364 -0.1542 -1.5890
15320TIP3    H267376   5.418   2.998  13.433 -1.5786 -1.5134  0.8801
15321TIP3   OH267377   5.283   3.115   0.073  0.1294 -0.3860  0.6182
15321TIP3    H167378   5.252   3.167   0.147  0.0183 -2.0474  1.7731
15321TIP3    H267379   5.204   3.076   0.036  0.2496 -0.0457 -0.0148
15322TIP3   OH267380   2.669   1.935  10.494 -0.6977 -0.3472  0.0314
15322TIP3    H167381   2.686   1.993  10.420  0.0813 -0.2521  0.2761
15322TIP3    H267382   2.581   1.959  10.524 -1.5135 -1.1809 -1.5739
15323TIP3   OH267383   2.045   0.634   2.375 -0.0522  0.2622  0.2441
15323TIP3    H167384   2.124   0.645   2.322 -0.7089 -0.1889 -0.8635
15323TIP3    H267385   2.021   0.542   2.362 -0.1448  0.0949  1.4717
15324TIP3   OH267386   4.726   0.437   2.467 -0.0875  0.2938  0.0641
15324TIP3    H167387   4.690   0.488   2.394 -1.2791 -0.0530  0.3798
15324TIP3    H267388   4.658   0.440   2.534  0.7798  0.1775  0.9712
15325TIP3   OH267389   6.242   2.828   3.948 -0.1530  0.1402 -0.1399
15325TIP3    H167390   6.290   2.909   3.964 -0.4059  0.2589  0.0112
15325TIP3    H267391   6.276   2.796   3.864  1.0357 -0.3767  0.5064
15326TIP3   OH267392   0.620   5.553  11.321 -0.9405 -0.3858  0.2603
15326TIP3    H167393   0.629   5.459  11.332 -2.2693 -0.4747  0.8891
15326TIP3    H267394   0.602   5.565  11.228  0.1345 -0.6554  0.0087
15327TIP3   OH267395   0.819   3.914   5.656  0.8963  0.4926  0.3374
15327TIP3    H167396   0.762   3.902   5.732  1.7358  0.3044  0.9491
15327TIP3    H267397   0.812   4.008   5.636 -0.5580  0.2694 -0.3615
15328TIP3   OH267398   0.164   3.752  13.820  0.0855  0.1719 -0.1776
15328TIP3    H167399   0.131   3.671  13.782  0.5432  0.4184 -1.1382
15328TIP3    H267400   0.239   3.725  13.873  0.5962  0.0164 -0.9593
15329TIP3   OH267401   0.295   1.237   2.197 -0.2946 -0.6275 -0.0147
15329TIP3    H167402   0.218   1.290   2.175 -0.9145 -1.9691 -1.2745
15329TIP3    H267403   0.333   1.280   2.273 -2.0002  0.3797  0.3238
15330TIP3   OH267404   2.238   0.284   3.016 -0.3241  0.2014 -0.2588
15330TIP3    H167405   2.247   0.333   2.934  3.0484 -0.3538 -0.3252
15330TIP3    H267406   2.209   0.197   2.989 -1.5444  0.6808 -0.5778
15331TIP3   OH267407   3.885   5.321  16.996  0.2718 -0.0829  0.3869
15331TIP3    H167408   3.926   5.369  16.925  0.6625 -1.2363 -0.1952
15331TIP3    H267409   3.822   5.263  16.952 -1.0467  0.7123  1.1594
15332TIP3   OH267410   1.251   4.598   3.307 -0.1820 -0.1792  0.2019
15332TIP3    H167411   1.247   4.651   3.228 -0.8958 -0.4446  0.0472
15332TIP3    H267412   1.169   4.548   3.306  1.2252 -2.6520 -0.6263
15333TIP3   OH267413   0.870   1.858  16.544  0.3287  0.3177 -0.3671
15333TIP3    H167414   0.898   1.878  16.633 -0.6644 -1.1774  0.3111
15333TIP3    H267415   0.831   1.940  16.512  0.5064  0.8060  0.6302
15334TIP3   OH267416   1.126   4.121   1.066 -0.2913 -0.4395  0.0152
15334TIP3    H167417   1.186   4.064   1.115  0.4310  1.3551  1.3272
15334TIP3    H267418   1.184   4.179   1.016 -0.9717  0.2008 -0.0396
15335TIP3   OH267419   2.538   5.293  16.978 -0.1704  0.0483 -0.6879
15335TIP3    H167420   2.567   5.208  16.945 -0.2481 -0.3527  0.2500
15335TIP3    H267421   2.559   5.291  17.072 -0.6811  0.8449 -0.5482
15336TIP3   OH267422   2.872   1.364   2.449 -1.0499 -0.1854  0.5532
15336TIP3    H167423   2.960   1.402   2.438 -0.4370 -1.6023  0.3496
15336TIP3    H267424   2.879   1.311   2.528 -1.0846 -1.9696 -0.5906
15337TIP3   OH267425   4.271   5.316  14.627  0.0581 -0.9704  0.3792
15337TIP3    H167426   4.275   5.240  14.569  1.9405  0.9259 -2.2384
15337TIP3    H267427   4.342   5.372  14.597 -0.8634  1.5860  2.5792
15338TIP3   OH267428   5.382   0.220   3.339  0.2250  0.6891  0.7314
15338TIP3    H167429   5.338   0.140   3.367  2.1066 -0.9517 -0.7380
15338TIP3    H267430   5.410   0.263   3.420  0.5122 -0.9296  1.5186
15339TIP3   OH267431   2.768   1.094   1.882  0.2655  0.0344  0.1578
15339TIP3    H167432   2.735   1.162   1.940 -1.1629 -1.1832  0.8449
15339TIP3    H267433   2.693   1.037   1.867  1.0947 -0.7137 -1.4080
15340TIP3   OH267434   3.063   4.323  12.493  0.2287  0.2113 -0.1721
15340TIP3    H167435   3.084   4.333  12.400 -0.5043  1.4470 -0.2202
15340TIP3    H267436   3.127   4.378  12.538 -0.1231  0.5012 -0.0231
15341TIP3   OH267437   5.437   6.771   0.268 -0.5163  0.4515 -0.4479
15341TIP3    H167438   5.468   6.768   0.177 -0.4629 -3.4387 -0.4839
15341TIP3    H267439   5.344   6.747   0.262 -0.2134 -1.1279  0.5172
15342TIP3   OH267440   4.868   3.722   0.340 -0.7635 -0.0455 -0.0070
15342TIP3    H167441   4.823   3.722   0.255 -1.6828  0.3669  0.4677
15342TIP3    H267442   4.928   3.647   0.335 -0.3369  0.3470 -1.2504
15343TIP3   OH267443   5.382   5.842   3.166  0.0325  0.1019 -0.3708
15343TIP3    H167444   5.468   5.800   3.170  0.1875  0.2455 -1.9383
15343TIP3    H267445   5.374   5.886   3.251  2.2388  1.5176 -0.8288
15344TIP3   OH267446   3.499   4.644   2.978  0.2294 -0.0434 -0.4949
15344TIP3    H167447   3.454   4.708   2.922  1.9641  1.9935  0.3104
15344TIP3    H267448   3.438   4.570   2.983 -1.1335  0.7990 -2.8759
15345TIP3   OH267449   3.473   4.305   4.334 -0.5480 -0.0997  0.2567
15345TIP3    H167450   3.451   4.282   4.424  0.1280  1.0759  0.7458
15345TIP3    H267451   3.444   4.395   4.324  1.2977  0.5212  0.0132
15346TIP3   OH267452   0.318   2.224  11.993 -0.3554  0.2740 -0.5308
15346TIP3    H167453   0.407   2.208  12.027 -0.0428 -1.7885 -2.0695
15346TIP3    H267454   0.325   2.308  11.948  0.7427  0.2823 -0.3948
15347TIP3   OH267455   2.425   4.038  10.326  0.5615 -0.0507  0.4766
15347TIP3    H167456   2.373   3.958  10.329  0.6319 -0.2458 -1.8746
15347TIP3    H267457   2.513   4.011  10.352  0.3359 -0.4929  0.7991
15348TIP3   OH267458   0.042   5.625  11.808 -0.1140 -0.0218 -0.0717
15348TIP3    H167459   0.021   5.701  11.753 -1.7274 -1.2741 -1.2961
15348TIP3    H267460  -0.013   5.555  11.773 -1.8934 -0.7206  3.6433
15349TIP3   OH267461   5.512   3.116   6.009 -0.6555 -0.1280  0.5719
15349TIP3    H167462   5.484   3.196   5.965 -0.8650  0.7341  2.1856
15349TIP3    H267463   5.498   3.134   6.102 -1.9910 -2.5309  0.9189
15350TIP3   OH267464   2.303   6.433  16.791  0.0834  0.1427  0.6617
15350TIP3    H167465   2.330   6.495  16.858 -0.8139 -0.5391  1.6845
15350TIP3    H267466   2.301   6.485  16.710  0.8615  1.0509  1.2104
15351TIP3   OH267467   1.793   1.282   1.738 -0.5921  0.0642  0.4036
15351TIP3    H167468   1.788   1.203   1.792 -0.9606  0.1275  0.4600
15351TIP3    H267469   1.760   1.255   1.652 -1.5507  0.3711  0.6611
15352TIP3   OH267470   0.799   6.771   0.881  0.3862  0.3047 -0.0753
15352TIP3    H167471   0.825   6.853   0.839 -0.3961 -0.9927 -3.4911
15352TIP3    H267472   0.705   6.765   0.863  0.4541 -1.3392  0.0276
15353TIP3   OH267473   1.890   2.383   1.230 -0.4232  0.2098 -0.5717
15353TIP3    H167474   1.915   2.314   1.292  0.0907 -0.7340 -1.7821
15353TIP3    H267475   1.859   2.336   1.153  0.8344  1.2862 -1.7977
15354TIP3   OH267476   1.824   3.638  13.134  0.7086  0.3827  0.7661
15354TIP3    H167477   1.910   3.674  13.111  0.2488 -0.0100 -1.8740
15354TIP3    H267478   1.772   3.648  13.054 -1.8959  1.0805  2.4382
15355TIP3   OH267479   2.667   2.981  14.329  0.5157  0.1966 -0.4928
15355TIP3    H167480   2.577   2.950  14.332  0.9453 -1.0188  0.0993
15355TIP3    H267481   2.660   3.076  14.340 -0.7232  0.1763 -1.0280
15356TIP3   OH267482   5.107   4.071   1.310 -0.1170 -0.1240 -0.1206
15356TIP3    H167483   5.031   4.043   1.361  0.7333 -2.0027  0.2090
15356TIP3    H267484   5.142   4.146   1.359  0.7328 -1.9127  2.2379
15357TIP3   OH267485   2.262   0.917   2.121 -0.8466 -0.3903  0.6603
15357TIP3    H167486   2.187   0.936   2.177 -1.7856 -4.3919  1.0683
15357TIP3    H267487   2.224   0.899   2.035  0.2606  2.3589 -0.5071
15358TIP3   OH267488   5.531   6.412  15.529  0.2160 -0.2792  0.2667
15358TIP3    H167489   5.541   6.318  15.517  0.6732 -0.1642 -0.3274
15358TIP3    H267490   5.584   6.433  15.606  1.2418 -0.3097 -0.4126
15359TIP3   OH267491   4.245   5.249   2.517 -0.0950 -0.1522  0.0754
15359TIP3    H167492   4.306   5.180   2.494  0.5650 -0.0462  1.3611
15359TIP3    H267493   4.251   5.312   2.445  1.5917  0.0158  0.3164
15360TIP3   OH267494   2.085   0.951  16.026 -0.3603  0.0455 -0.3117
15360TIP3    H167495   2.168   0.940  16.072 -1.4324 -1.0992  1.4653
15360TIP3    H267496   2.083   0.880  15.962  0.2044  0.3412 -0.6647
15361TIP3   OH267497   4.400   2.684   0.787  0.6061  0.0667  0.6735
15361TIP3    H167498   4.403   2.632   0.707 -2.7262 -0.5728  0.8333
15361TIP3    H267499   4.307   2.685   0.812  0.8974  3.7078  2.2775
15362TIP3   OH267500   0.094   3.812   1.080 -0.4218 -0.1518  0.5014
15362TIP3    H167501   0.084   3.870   1.156 -0.5323  0.7260 -0.1698
15362TIP3    H267502   0.044   3.855   1.011 -0.0196 -0.7590 -0.1733
15363TIP3   OH267503   1.735   4.924  15.932  0.4302  0.4234  0.2522
15363TIP3    H167504   1.819   4.927  15.978  0.8269  0.5838 -0.4710
15363TIP3    H267505   1.758   4.896  15.843 -0.3223  0.1493  0.1393
15364TIP3   OH267506   6.660   1.354   5.314 -0.0520 -0.0499  0.1806
15364TIP3    H167507   6.567   1.363   5.293 -0.1777 -1.7045 -0.1678
15364TIP3    H267508   6.694   1.292   5.248  0.3998 -2.4508  2.4818
15365TIP3   OH267509   0.651   1.211  13.116 -0.0798 -0.3564  0.1856
15365TIP3    H167510   0.615   1.153  13.183 -1.0972  1.0908  0.9362
15365TIP3    H267511   0.683   1.151  13.048 -1.1722 -1.7928  0.8665
15366TIP3   OH267512   6.368   4.088   1.452 -0.5985 -0.6277  0.3014
15366TIP3    H167513   6.326   4.017   1.501 -1.8868 -0.3515 -0.3675
15366TIP3    H267514   6.329   4.083   1.365  1.6131 -1.0677 -0.7114
15367TIP3   OH267515   3.447   4.910   1.918  1.0816  0.3444  0.5694
15367TIP3    H167516   3.458   4.815   1.917 -1.0950 -0.0276 -2.2177
15367TIP3    H267517   3.525   4.944   1.875  1.0463 -0.3607 -0.0784
15368TIP3   OH267518   3.901   4.545   5.789  0.5111 -0.3316 -0.4596
15368TIP3    H167519   3.994   4.565   5.794  0.3288  0.3426  0.4714
15368TIP3    H267520   3.869   4.557   5.878 -0.1864 -2.0136 -0.4510
15369TIP3   OH267521   6.091   6.583  16.251 -0.4475 -1.0668  0.5212
15369TIP3    H167522   6.089   6.521  16.324 -0.0051  1.1852  2.5798
15369TIP3    H267523   6.177   6.572  16.212 -0.5438 -2.0269  0.5559
15370TIP3   OH267524   6.765   4.967  15.892 -0.3798 -0.1342 -0.3087
15370TIP3    H167525   6.832   4.902  15.873 -0.3110 -0.0637 -0.3104
15370TIP3    H267526   6.702   4.922  15.949  0.5699  0.3108  1.1375
15371TIP3   OH267527   0.708   4.211  13.797 -0.4660 -0.5874 -0.1109
15371TIP3    H167528   0.748   4.187  13.714 -0.1015 -0.9238  0.1605
15371TIP3    H267529   0.781   4.218  13.858 -0.7901 -0.9175  0.3199
15372TIP3   OH267530   2.239   4.213  11.207  0.6509 -0.5600 -0.1059
15372TIP3    H167531   2.280   4.155  11.271 -1.5730 -1.0623  0.9469
15372TIP3    H267532   2.243   4.300  11.247 -1.6277 -1.0211  1.2751
15373TIP3   OH267533   2.893   2.645   4.583  0.1075 -0.0490  0.2049
15373TIP3    H167534   2.908   2.669   4.491  1.1938  1.3346  0.7025
15373TIP3    H267535   2.811   2.689   4.606  0.2405  0.2536  0.1091
15374TIP3   OH267536   4.872   0.085   6.385 -0.2510 -0.1908 -0.4149
15374TIP3    H167537   4.777   0.092   6.375 -0.6966 -4.6214 -1.6758
15374TIP3    H267538   4.883   0.028   6.461  1.5373  1.3840  0.5814
15375TIP3   OH267539   3.910   4.938   3.125 -1.1475 -0.9277  0.1885
15375TIP3    H167540   3.969   4.924   3.050 -0.7435 -1.6063  0.6318
15375TIP3    H267541   3.965   4.980   3.191 -1.3708 -0.8248  0.3101
15376TIP3   OH267542   4.833   6.442   5.056  0.0151  0.3783 -0.6531
15376TIP3    H167543   4.887   6.363   5.044  1.5816  1.0575  1.3171
15376TIP3    H267544   4.887   6.500   5.110 -2.2987  1.5549  0.5582
15377TIP3   OH267545   0.228   0.528  13.919 -0.3679  0.7333  0.3642
15377TIP3    H167546   0.250   0.489  13.834 -0.6945 -0.8353  0.9685
15377TIP3    H267547   0.307   0.517  13.972 -0.0210  2.0766  0.1710
15378TIP3   OH267548   1.315   2.107   0.557  0.6598  0.1042  0.7447
15378TIP3    H167549   1.314   2.018   0.523  0.1580 -0.0620  1.1949
15378TIP3    H267550   1.257   2.156   0.497  3.0255  0.7678 -1.1724
15379TIP3   OH267551   5.906   2.894   2.831 -0.6471  0.4968  0.4861
15379TIP3    H167552   5.996   2.925   2.830  0.2410 -1.8890  0.5294
15379TIP3    H267553   5.894   2.857   2.918 -0.5137 -2.1217 -0.5146
15380TIP3   OH267554   5.098   3.683  15.551  0.2373  0.1757  0.6092
15380TIP3    H167555   5.105   3.725  15.637  1.6280 -0.0429  0.6239
15380TIP3    H267556   5.166   3.616  15.551 -1.7969 -2.0046  0.5098
15381TIP3   OH267557   0.291   4.358   0.639  0.2943  0.6027  0.1134
15381TIP3    H167558   0.233   4.345   0.713  2.2212 -0.5362  1.5216
15381TIP3    H267559   0.302   4.453   0.633 -0.5975  0.7459  0.7029
15382TIP3   OH267560   1.161   6.214   6.125  0.1904  0.5008 -0.6173
15382TIP3    H167561   1.070   6.227   6.151 -0.0529 -0.4092 -0.9966
15382TIP3    H267562   1.185   6.129   6.162 -0.1648 -0.8389 -3.2463
15383TIP3   OH267563   6.427   5.744  16.638  0.5454 -0.2203  0.0548
15383TIP3    H167564   6.463   5.714  16.722  0.4510  0.3223  0.2987
15383TIP3    H267565   6.426   5.666  16.583 -1.2897 -1.1117  1.2074
15384TIP3   OH267566   2.240   5.171  14.799  0.1370 -0.6557  0.2644
15384TIP3    H167567   2.256   5.077  14.791  0.5497 -0.8667  2.8720
15384TIP3    H267568   2.145   5.178  14.805  0.0372 -0.7825 -0.9427
15385TIP3   OH267569   3.353   1.769  14.300 -0.1715  0.0355  0.0569
15385TIP3    H167570   3.358   1.759  14.205 -0.6718  2.1104 -0.2326
15385TIP3    H267571   3.428   1.823  14.324 -1.4081  1.6501  0.4581
15386TIP3   OH267572   1.221   0.620  12.198  0.0607 -0.0914  0.1040
15386TIP3    H167573   1.282   0.559  12.156 -0.4272 -0.6736  0.2278
15386TIP3    H267574   1.271   0.702  12.207  0.2482 -0.0264 -1.3717
15387TIP3   OH267575   1.606   3.253  12.491 -0.1759 -0.0426  0.6041
15387TIP3    H167576   1.566   3.168  12.505 -0.7479  0.2678  0.9139
15387TIP3    H267577   1.677   3.257  12.555  0.7278 -0.8218 -0.3252
15388TIP3   OH267578   0.227   5.619   3.080  0.2733 -0.5046 -0.2613
15388TIP3    H167579   0.259   5.548   3.025  0.5747 -0.4824 -0.1146
15388TIP3    H267580   0.239   5.698   3.027  2.4349 -0.2135  0.5645
15389TIP3   OH267581   5.123   3.589   0.439 -0.8470  0.0610 -0.0960
15389TIP3    H167582   5.083   3.614   0.522 -1.5733 -1.4528  0.0540
15389TIP3    H267583   5.055   3.540   0.393 -0.1423  0.0424 -1.1752
15390TIP3   OH267584   5.746   1.538  16.070 -0.2175 -0.2474  0.1560
15390TIP3    H167585   5.738   1.527  15.975 -1.6528 -0.8096  0.3154
15390TIP3    H267586   5.755   1.633  16.083 -0.0096 -0.1705 -0.5441
15391TIP3   OH267587   3.747   4.731   3.976  0.6385  0.1930  0.1608
15391TIP3    H167588   3.798   4.782   4.039  0.3991  1.4275 -0.5969
15391TIP3    H267589   3.667   4.782   3.964  1.1777  0.6348 -2.0131
15392TIP3   OH267590   5.984   6.279  11.438 -0.2938  0.7963 -0.4815
15392TIP3    H167591   6.042   6.246  11.369 -0.4713  0.5345 -0.5082
15392TIP3    H267592   5.985   6.374  11.428  0.5165  0.8288 -0.1731
15393TIP3   OH267593   4.532   0.866  13.813  0.7775 -0.0734 -0.0768
15393TIP3    H167594   4.585   0.929  13.763 -1.0061  1.3174 -0.3386
15393TIP3    H267595   4.542   0.783  13.766  1.4412  0.5452 -1.0514
15394TIP3   OH267596   2.214   2.570  15.267 -0.4218  0.2025  0.2174
15394TIP3    H167597   2.179   2.545  15.181  1.6447  0.4479 -0.7486
15394TIP3    H267598   2.217   2.666  15.264 -1.6411  0.2974  1.1464
15395TIP3   OH267599   4.890   1.520   5.684  0.2408  0.4658 -0.2792
15395TIP3    H167600   4.930   1.595   5.728 -1.9656  2.3392 -1.2324
15395TIP3    H267601   4.823   1.488   5.746 -0.7286  1.1145 -0.9604
15396TIP3   OH267602   4.135   5.786   3.876 -0.4340 -0.0989 -0.2553
15396TIP3    H167603   4.047   5.780   3.913 -0.8007  1.8269 -0.6919
15396TIP3    H267604   4.121   5.793   3.782  0.2740 -0.8691 -0.4338
15397TIP3   OH267605   2.299   1.206  13.268 -0.1498 -0.1483  0.0436
15397TIP3    H167606   2.394   1.213  13.280 -0.1945 -0.3962  0.5941
15397TIP3    H267607   2.279   1.266  13.196  0.7173 -1.7040 -1.5696
15398TIP3   OH267608   5.746   4.414   3.555  0.1479  0.3840  0.0960
15398TIP3    H167609   5.707   4.360   3.623  0.5379 -3.0875 -2.1788
15398TIP3    H267610   5.673   4.440   3.499  0.3447 -1.0150 -0.8483
15399TIP3   OH267611   6.478   4.943   5.036  0.1829 -0.5086  0.0886
15399TIP3    H167612   6.414   4.924   5.104 -0.3076 -0.6666 -0.4126
15399TIP3    H267613   6.559   4.963   5.084 -0.4810  0.6798  0.7759
15400TIP3   OH267614   0.986   4.872   4.793  0.3533 -0.9895  0.2663
15400TIP3    H167615   0.892   4.859   4.781  0.4580 -1.4461 -0.0915
15400TIP3    H267616   1.007   4.946   4.736 -0.0939  0.2838  1.6805
15401TIP3   OH267617   6.093   1.503  15.037 -0.1008  0.1402  0.1496
15401TIP3    H167618   6.177   1.538  15.065 -0.6064  1.4234  0.1339
15401TIP3    H267619   6.062   1.452  15.112  0.1682  0.6217  0.5925
15402TIP3   OH267620   0.389   3.082   4.994  0.1301  0.6328 -0.3301
15402TIP3    H167621   0.414   3.026   5.068 -1.3168  1.1880  0.6372
15402TIP3    H267622   0.428   3.040   4.918  0.1085 -1.0195  0.5163
15403TIP3   OH267623   3.234   5.271  15.609 -0.4438  0.4992 -0.5811
15403TIP3    H167624   3.205   5.360  15.590 -0.3288  0.4437 -1.0316
15403TIP3    H267625   3.297   5.280  15.681 -0.1881  0.8170 -0.8428
15404TIP3   OH267626   1.816   5.359  16.011  0.2632 -0.2663 -0.1839
15404TIP3    H167627   1.752   5.325  16.074 -1.2258  0.4522 -1.2346
15404TIP3    H267628   1.817   5.453  16.026 -1.1526  0.1188 -2.0507
15405TIP3   OH267629   5.063   0.877   3.097 -0.3757 -0.0032  0.3260
15405TIP3    H167630   4.973   0.846   3.112 -1.7233  3.1194 -0.6225
15405TIP3    H267631   5.067   0.897   3.004  0.9525  0.9339  0.5532
15406TIP3   OH267632   0.111   4.275  14.585  0.6000 -0.5065 -0.3299
15406TIP3    H167633   0.091   4.313  14.500 -1.0189 -0.0966  0.2141
15406TIP3    H267634   0.079   4.338  14.648 -2.1652 -2.6445  0.6131
15407TIP3   OH267635   0.685   0.808  16.871  0.4537 -0.1508 -0.0557
15407TIP3    H167636   0.764   0.811  16.924  1.7826  1.1686 -2.0095
15407TIP3    H267637   0.647   0.722  16.890  0.6141  0.3581  3.2390
15408TIP3   OH267638   0.682   1.467   5.624 -0.1007  0.5741  0.3348
15408TIP3    H167639   0.759   1.449   5.678  0.3495 -1.4109 -0.8360
15408TIP3    H267640   0.693   1.558   5.596  0.4165  1.1763  2.2926
15409TIP3   OH267641   5.712   0.523  13.229  0.5493  0.2409 -0.7123
15409TIP3    H167642   5.653   0.598  13.234  0.6129  0.2654 -0.2952
15409TIP3    H267643   5.668   0.462  13.169  0.2386  0.3817 -0.6296
15410TIP3   OH267644   3.161   1.742  14.838 -0.2394  0.2686 -0.7606
15410TIP3    H167645   3.117   1.827  14.840  0.4123  0.6002  0.1333
15410TIP3    H267646   3.241   1.759  14.787  0.1905  0.3531 -0.0709
15411TIP3   OH267647   6.442   4.904  15.516  0.0368 -0.0511 -0.2102
15411TIP3    H167648   6.380   4.842  15.554 -0.0342  0.2017  0.0888
15411TIP3    H267649   6.412   4.917  15.426 -0.6670  0.4860  0.0885
15412TIP3   OH267650   4.376   3.886  14.253 -0.3131  0.1189  0.0186
15412TIP3    H167651   4.295   3.895  14.304 -0.6366  0.6595 -0.5750
15412TIP3    H267652   4.444   3.871  14.319 -1.1261 -2.1047  0.4365
15413TIP3   OH267653   5.040   1.262  11.149 -0.2584  0.4927  0.1824
15413TIP3    H167654   4.970   1.218  11.197  0.2948  0.7980  1.3259
15413TIP3    H267655   4.995   1.320  11.088 -1.0335  1.5389  1.6896
15414TIP3   OH267656   2.539   4.366   0.734 -0.2768  0.2054  0.8866
15414TIP3    H167657   2.602   4.418   0.783  1.6967 -0.5290 -0.7174
15414TIP3    H267658   2.548   4.277   0.769 -0.9195  0.2131  1.0880
15415TIP3   OH267659   1.981   2.568   6.182 -0.1580 -0.1648  0.0512
15415TIP3    H167660   2.019   2.606   6.261 -0.4464 -1.3597  0.7961
15415TIP3    H267661   1.930   2.493   6.214 -3.1348  1.3134 -0.8575
15416TIP3   OH267662   6.640   0.789   3.771  0.6703  0.2420  0.2608
15416TIP3    H167663   6.558   0.835   3.753  0.6555 -0.4067 -1.4690
15416TIP3    H267664   6.622   0.739   3.851 -1.6235 -2.0694 -1.5062
15417TIP3   OH267665   1.186   0.665  14.165  0.1371 -0.0249 -0.1813
15417TIP3    H167666   1.243   0.739  14.146 -1.8443  1.9272  0.9721
15417TIP3    H267667   1.172   0.622  14.080 -0.1258  2.0824 -1.2668
15418TIP3   OH267668   4.045   1.186   4.831  0.0116 -0.6948 -0.0872
15418TIP3    H167669   4.062   1.266   4.881 -0.4237 -0.3488 -0.4829
15418TIP3    H267670   4.112   1.125   4.860 -1.8752 -1.4899  2.9941
15419TIP3   OH267671   2.394   6.365   3.310  0.2605  0.1534 -0.3992
15419TIP3    H167672   2.378   6.358   3.216 -0.6646  0.5534 -0.2836
15419TIP3    H267673   2.378   6.457   3.330 -2.3710 -0.4305  0.6125
15420TIP3   OH267674   0.332   5.536   1.347  0.1312  0.1063  0.0080
15420TIP3    H167675   0.314   5.487   1.428  0.8043 -0.8580 -0.4092
15420TIP3    H267676   0.336   5.469   1.279 -0.8724  0.9514 -0.9171
15421TIP3   OH267677   1.835   2.685   0.955  0.9754  0.1516 -0.0659
15421TIP3    H167678   1.818   2.598   0.919  3.3686 -1.4635  2.2649
15421TIP3    H267679   1.756   2.708   1.003  0.4975 -1.0221 -0.2725
15422TIP3   OH267680   1.078   0.959  11.343  0.0359  0.1752 -0.7155
15422TIP3    H167681   1.004   0.998  11.296  0.5321  1.6127 -0.3700
15422TIP3    H267682   1.141   0.937  11.275  0.5160  1.7249 -0.8193
15423TIP3   OH267683   6.666   4.209  10.611  0.1497 -0.3925 -0.3502
15423TIP3    H167684   6.631   4.161  10.536  1.9649 -0.3154 -1.2871
15423TIP3    H267685   6.721   4.145  10.657  1.1267  0.2681 -0.5789
15424TIP3   OH267686   1.622   3.038  16.591 -0.0446 -0.4833 -0.0126
15424TIP3    H167687   1.583   3.037  16.679 -1.5115  0.8949 -0.5991
15424TIP3    H267688   1.689   2.970  16.594 -0.8004 -1.2161  1.8375
15425TIP3   OH267689   5.310   4.879  12.721 -0.0155 -0.6996 -0.2614
15425TIP3    H167690   5.361   4.959  12.726 -0.5520 -0.2651 -1.4501
15425TIP3    H267691   5.246   4.895  12.652 -0.7519 -1.8032  0.1279
15426TIP3   OH267692   2.665   3.507   5.954 -0.7054  0.6095 -0.4833
15426TIP3    H167693   2.757   3.506   5.980 -0.2827 -0.3052 -1.8814
15426TIP3    H267694   2.624   3.442   6.010 -0.3260  0.4064 -0.4370
15427TIP3   OH267695   4.209   2.001  12.122  0.8140  0.1927 -0.5552
15427TIP3    H167696   4.187   1.948  12.045 -0.6450 -0.3281  0.1890
15427TIP3    H267697   4.151   2.077  12.115  0.3574 -0.0708  0.2421
15428TIP3   OH267698   0.407   0.898  16.940 -0.1201 -0.1848 -0.3106
15428TIP3    H167699   0.500   0.891  16.962 -0.5734 -1.4943  1.3389
15428TIP3    H267700   0.406   0.943  16.855  2.0723 -1.3354 -1.0122
15429TIP3   OH267701   2.796   5.311  15.738  0.0603 -0.1646 -0.0061
15429TIP3    H167702   2.783   5.305  15.643  0.9943 -0.4564 -0.1202
15429TIP3    H267703   2.874   5.365  15.748  0.2780 -0.5867  0.5816
15430TIP3   OH267704   0.840   4.892   4.291 -0.0626  0.4351  0.1453
15430TIP3    H167705   0.804   4.976   4.263 -0.4983 -0.0179 -0.6909
15430TIP3    H267706   0.853   4.843   4.210  1.5559  0.2259  0.4945
15431TIP3   OH267707   4.704   1.680   5.143  0.2138  0.4026 -0.1144
15431TIP3    H167708   4.749   1.645   5.065  2.2406  1.7022  0.3886
15431TIP3    H267709   4.713   1.611   5.208 -1.6321 -0.7607 -1.0280
15432TIP3   OH267710   1.555   6.269   3.626 -0.4801  0.2740  0.2537
15432TIP3    H167711   1.546   6.197   3.688  0.0145 -1.4335 -1.5422
15432TIP3    H267712   1.649   6.274   3.608 -0.6321  0.5442 -0.5272
15433TIP3   OH267713   1.913   1.786   1.777  0.1867  0.1031 -0.8591
15433TIP3    H167714   1.985   1.804   1.717  0.2204 -0.3083 -0.9450
15433TIP3    H267715   1.882   1.699   1.752 -0.0707  0.1051 -0.5528
15434TIP3   OH267716   2.528   4.824   0.091  0.2285 -0.0091  0.2246
15434TIP3    H167717   2.492   4.770   0.020  1.1531 -0.8299  0.3714
15434TIP3    H267718   2.620   4.834   0.070  0.5540 -0.4056  1.4109
15435TIP3   OH267719   3.033   6.215  11.205  0.2535  0.0424 -0.1577
15435TIP3    H167720   3.073   6.139  11.246  0.6361 -0.1950 -0.9522
15435TIP3    H267721   2.972   6.248  11.270  2.1152  0.7359  1.3165
15436TIP3   OH267722   6.005   2.020  13.487 -0.7058  0.0843 -0.2187
15436TIP3    H167723   5.989   1.958  13.416 -0.8167 -0.3162  0.1524
15436TIP3    H267724   6.009   1.966  13.566 -2.0159  0.6671  0.2727
15437TIP3   OH267725   4.946   5.338  15.739  0.6491 -0.2796 -0.0663
15437TIP3    H167726   4.907   5.327  15.825  1.9445  0.3158  0.6327
15437TIP3    H267727   4.913   5.265  15.688  0.7240 -1.2786  1.2640
15438TIP3   OH267728   1.946   2.658   1.950 -0.3329 -0.4381 -0.3803
15438TIP3    H167729   1.963   2.741   1.994  0.1401 -0.0057 -1.3463
15438TIP3    H267730   1.898   2.682   1.871  0.8842 -0.9369 -1.3151
15439TIP3   OH267731   5.255   3.364  12.366  0.4008 -0.2057 -0.1140
15439TIP3    H167732   5.291   3.334  12.283  0.9131  0.1618 -0.0346
15439TIP3    H267733   5.220   3.451  12.347 -0.4659 -0.5658 -0.1918
15440TIP3   OH267734   2.438   3.430   4.025 -0.5101  0.1840 -0.2366
15440TIP3    H167735   2.427   3.525   4.018  2.1651  0.4649 -1.9354
15440TIP3    H267736   2.513   3.410   3.969  0.0488 -2.7382  1.3633
15441TIP3   OH267737   4.229   1.519  11.563 -0.4521 -0.1006  0.1124
15441TIP3    H167738   4.294   1.462  11.523 -1.9514 -1.3532 -0.6601
15441TIP3    H267739   4.273   1.603  11.574  1.0522 -0.7085 -1.0370
15442TIP3   OH267740   2.274   4.284  11.971 -0.2355  0.1219  0.3258
15442TIP3    H167741   2.315   4.259  11.888 -1.4328 -2.8621  0.5313
15442TIP3    H267742   2.198   4.337  11.946 -0.3593 -0.4225 -0.4664
15443TIP3   OH267743   1.022   0.254  14.532  0.0886 -0.3833 -0.1592
15443TIP3    H167744   1.062   0.274  14.617  2.7797  1.0444 -1.5971
15443TIP3    H267745   0.954   0.320  14.522  0.5667  0.2179  0.4021
15444TIP3   OH267746   6.542   2.638  14.661  0.9343  0.5084 -0.5465
15444TIP3    H167747   6.469   2.670  14.608  2.5266  3.0109 -1.3836
15444TIP3    H267748   6.536   2.687  14.743 -0.5218 -2.1371  1.0893
15445TIP3   OH267749   2.319   5.726  12.219  0.0091  0.3409 -0.4013
15445TIP3    H167750   2.234   5.697  12.187 -0.2270 -0.0044  0.5070
15445TIP3    H267751   2.318   5.704  12.312  2.1634 -2.3406 -0.8742
15446TIP3   OH267752   4.027   0.558   0.553 -0.6908  0.0637  0.4307
15446TIP3    H167753   4.065   0.634   0.511 -1.1605  0.8608  1.4076
15446TIP3    H267754   3.932   0.567   0.539 -0.6315 -1.5275 -1.3775
15447TIP3   OH267755   6.242   3.882   6.226  0.1397  0.6490 -0.6443
15447TIP3    H167756   6.270   3.969   6.252  2.2790 -0.1628 -0.0419
15447TIP3    H267757   6.151   3.877   6.256  0.2683  2.3273  0.1500
15448TIP3   OH267758   2.228   0.472   6.418  0.2062 -0.0351 -0.3994
15448TIP3    H167759   2.242   0.392   6.468 -0.4768  0.0011 -0.1331
15448TIP3    H267760   2.316   0.502   6.395  0.5586  0.0007  0.8858
15449TIP3   OH267761   6.533   2.553  12.946 -0.1723 -0.3189 -0.2350
15449TIP3    H167762   6.549   2.471  12.898 -1.3425 -0.7991  0.1522
15449TIP3    H267763   6.456   2.590  12.903  0.8643  1.0678 -0.9909
15450TIP3   OH267764   2.363   1.275  14.219  0.1199  0.0353  0.7762
15450TIP3    H167765   2.421   1.350  14.236  1.2757 -0.5306 -0.4324
15450TIP3    H267766   2.418   1.198  14.237 -0.1267 -0.5189 -0.6925
15451TIP3   OH267767   6.758   1.440   5.548 -0.0858 -1.0901  0.2702
15451TIP3    H167768   6.713   1.434   5.464 -1.7220 -0.6172  1.0894
15451TIP3    H267769   6.689   1.439   5.613  1.0995 -0.5102  1.5901
15452TIP3   OH267770   4.048   2.735  15.559  0.0217  0.1484  0.0111
15452TIP3    H167771   4.003   2.667  15.610  1.9277 -0.7865  0.5534
15452TIP3    H267772   4.073   2.691  15.478 -0.6268  0.8616 -0.5945
15453TIP3   OH267773   0.917   0.968  12.826  0.2707 -0.1369 -0.1645
15453TIP3    H167774   1.004   0.967  12.787  0.6617  2.4143  0.4487
15453TIP3    H267775   0.887   0.877  12.822  2.2771 -0.7901 -1.8511
15454TIP3   OH267776   0.800   3.257   4.520  0.0115  0.2454 -0.4260
15454TIP3    H167777   0.806   3.239   4.614  1.8066  1.1638 -0.3097
15454TIP3    H267778   0.797   3.171   4.479  2.0757 -0.2651  0.3761
15455TIP3   OH267779   3.467   1.831   4.237  0.4048 -0.0126  0.3852
15455TIP3    H167780   3.529   1.862   4.171 -0.0252  0.1372  0.0405
15455TIP3    H267781   3.520   1.784   4.301  1.2931  2.5775  1.6771
15456TIP3   OH267782   0.606   5.637   4.769  0.3539 -0.0179  0.3441
15456TIP3    H167783   0.656   5.625   4.849 -3.0972  0.8442  2.8677
15456TIP3    H267784   0.565   5.551   4.754  1.7031 -0.4522 -1.1530
15457TIP3   OH267785   4.535   0.732  12.273  0.3993  0.0932 -0.6026
15457TIP3    H167786   4.495   0.746  12.187  0.0993  0.0831 -0.4676
15457TIP3    H267787   4.623   0.769  12.265  0.4088 -0.0002 -0.9458
15458TIP3   OH267788   4.110   2.622  13.135 -0.7048 -0.0450  0.1628
15458TIP3    H167789   4.200   2.651  13.146  0.0306 -2.1794  0.3219
15458TIP3    H267790   4.066   2.646  13.217 -0.0945  0.4063  0.3604
15459TIP3   OH267791   2.051   6.728  12.826  0.0874  0.3044 -0.1705
15459TIP3    H167792   1.999   6.654  12.857  0.1645 -0.6924 -2.2630
15459TIP3    H267793   2.094   6.696  12.747 -0.4068  2.7889 -1.5591
15460TIP3   OH267794   4.453   3.700   5.634 -0.3222 -0.2554  0.2965
15460TIP3    H167795   4.538   3.742   5.623  0.0709 -0.2010  2.7778
15460TIP3    H267796   4.468   3.633   5.701 -1.8432 -1.5474 -0.5841
15461TIP3   OH267797   3.116   4.113   2.607 -0.0653 -0.0293  0.1705
15461TIP3    H167798   3.061   4.099   2.529  0.5731  0.1031 -0.3173
15461TIP3    H267799   3.191   4.056   2.593  0.2450  0.2937  0.4990
15462TIP3   OH267800   3.659   3.430   6.621 -0.8356 -0.7312 -0.3778
15462TIP3    H167801   3.644   3.338   6.643  0.3409 -0.7415  0.5122
15462TIP3    H267802   3.700   3.428   6.534 -0.0699 -1.1180 -0.0191
15463TIP3   OH267803   4.356   3.803  13.470 -0.1418 -0.3505  0.7798
15463TIP3    H167804   4.272   3.829  13.508 -0.8714  1.1793 -1.6816
15463TIP3    H267805   4.332   3.755  13.390  1.2160  1.7801 -1.0290
15464TIP3   OH267806   2.173   2.433   1.209 -0.3420  0.4891 -0.9197
15464TIP3    H167807   2.078   2.447   1.201 -0.3693  0.4103 -0.7483
15464TIP3    H267808   2.202   2.414   1.120 -0.2007  2.2295 -1.2784
15465TIP3   OH267809   0.544   4.795  12.362  0.3119  0.5475  0.2600
15465TIP3    H167810   0.552   4.743  12.441  0.2778  0.9046  0.5006
15465TIP3    H267811   0.449   4.805  12.349  0.2363 -1.1991 -0.9518
15466TIP3   OH267812   6.654   0.428   4.032  0.2104 -0.3953 -0.0247
15466TIP3    H167813   6.630   0.390   4.117  0.5274 -0.5408 -0.0008
15466TIP3    H267814   6.702   0.359   3.987  1.6870  0.2935  0.4265
15467TIP3   OH267815   0.695   1.921   1.917  0.1897  0.5917  0.3963
15467TIP3    H167816   0.674   1.916   2.010  2.3140  1.9290  1.0314
15467TIP3    H267817   0.645   1.996   1.885 -0.8018 -0.0708  0.3433
15468TIP3   OH267818   6.311   0.059   2.327 -0.1904  0.3588  0.3295
15468TIP3    H167819   6.252   0.085   2.397 -0.9477  0.9202 -0.5037
15468TIP3    H267820   6.391   0.032   2.372 -0.4315  1.3242  1.3638
15469TIP3   OH267821   0.151   4.551  16.211  1.0535  0.5183 -0.3211
15469TIP3    H167822   0.224   4.544  16.149 -0.1265  1.7028 -1.9044
15469TIP3    H267823   0.175   4.624  16.268  2.3637 -0.8726  1.0254
15470TIP3   OH267824   1.175   3.234   0.344 -0.8013 -0.0591  0.6552
15470TIP3    H167825   1.105   3.224   0.280  0.9004 -1.8662 -1.0582
15470TIP3    H267826   1.179   3.328   0.361 -4.3034  0.0208  1.7277
15471TIP3   OH267827   3.377   1.567   3.528  0.2966  0.3703  0.7586
15471TIP3    H167828   3.389   1.655   3.563  1.9958 -0.5340  2.6332
15471TIP3    H267829   3.423   1.567   3.444 -0.5320  1.4938  0.2772
15472TIP3   OH267830   5.293   1.222  14.906  0.1653 -0.0150 -0.2055
15472TIP3    H167831   5.265   1.223  14.997  0.3950  1.7668 -0.1057
15472TIP3    H267832   5.328   1.134  14.892  1.4452  0.1061  1.8454
15473TIP3   OH267833   3.817   4.130   1.243 -0.0320  0.2428 -0.2253
15473TIP3    H167834   3.872   4.205   1.264  0.2402 -0.0213  0.0265
15473TIP3    H267835   3.791   4.094   1.328 -2.0251  1.3629 -0.2948
15474TIP3   OH267836   2.159   0.680  15.263  0.1206 -0.5925 -0.1474
15474TIP3    H167837   2.068   0.656  15.282 -0.2560 -0.1257 -1.2806
15474TIP3    H267838   2.188   0.615  15.199  0.1531  0.0253 -0.7726
15475TIP3   OH267839   4.881   0.347   1.224 -0.9237  0.1003  0.4454
15475TIP3    H167840   4.963   0.301   1.206 -1.0089  0.4850 -1.0107
15475TIP3    H267841   4.908   0.429   1.265 -0.5249  0.4996 -0.5919
15476TIP3   OH267842   5.768   3.128   1.477 -0.1004  0.2977  0.2663
15476TIP3    H167843   5.811   3.141   1.393 -0.5311  1.4888  0.2089
15476TIP3    H267844   5.824   3.065   1.523  1.0894  0.9502 -0.2339
15477TIP3   OH267845   5.951   3.105   5.099 -0.2753 -0.1974 -0.1926
15477TIP3    H167846   5.894   3.114   5.175  1.2222  1.8840  0.7951
15477TIP3    H267847   6.036   3.079   5.135 -0.0986 -1.4505 -1.4250
15478TIP3   OH267848   4.603   5.457  13.574 -1.1560 -0.2535 -0.8670
15478TIP3    H167849   4.617   5.479  13.482 -0.2845  2.4240 -0.1970
15478TIP3    H267850   4.674   5.397  13.595 -0.6204  0.0846 -1.6449
15479TIP3   OH267851   1.641   6.108  11.023 -0.1397 -0.1507 -0.1104
15479TIP3    H167852   1.555   6.095  10.984  0.5269 -2.5481 -0.9691
15479TIP3    H267853   1.697   6.133  10.949  0.0321  0.9144  0.3609
15480TIP3   OH267854   6.784   6.454  12.089 -0.6241  0.0647 -0.7815
15480TIP3    H167855   6.800   6.376  12.143  0.0824  0.9392  0.3269
15480TIP3    H267856   6.689   6.453  12.073 -0.9077 -0.0567  0.7561
15481TIP3   OH267857   3.684   0.648  13.091  0.3287  0.3054 -0.1440
15481TIP3    H167858   3.680   0.736  13.053  0.0065  0.5626  0.4679
15481TIP3    H267859   3.601   0.608  13.066 -0.8130  1.1892  1.9362
15482TIP3   OH267860   6.260   4.377  11.625  0.1962 -0.7777 -0.0094
15482TIP3    H167861   6.238   4.450  11.567  2.4851 -0.0632 -0.0731
15482TIP3    H267862   6.301   4.418  11.701  0.5032 -1.9342  0.4769
15483TIP3   OH267863   6.455   2.513   4.739  0.4963  0.3327 -0.1298
15483TIP3    H167864   6.503   2.490   4.659 -0.6135  0.3668 -0.8219
15483TIP3    H267865   6.514   2.489   4.810  1.7774  0.9017 -0.9601
15484TIP3   OH267866   1.675   6.450  10.460 -0.4065 -0.1845  0.1055
15484TIP3    H167867   1.580   6.437  10.457 -0.2007 -1.6875 -0.3708
15484TIP3    H267868   1.686   6.545  10.452 -1.8583 -0.0162 -0.1097
15485TIP3   OH267869   5.708   3.325  14.977  0.3440 -0.2461  0.3800
15485TIP3    H167870   5.657   3.259  15.023 -1.7125  0.7458 -0.3835
15485TIP3    H267871   5.729   3.285  14.892 -0.3999 -0.1398  0.1429
15486TIP3   OH267872   5.402   3.164   1.008  0.6628  0.0301 -0.3614
15486TIP3    H167873   5.460   3.150   1.083 -0.8272  1.5819  1.1679
15486TIP3    H267874   5.332   3.100   1.020  1.1141 -0.6478 -1.2309
15487TIP3   OH267875   0.423   3.048   4.504 -0.5734 -0.1862 -0.6639
15487TIP3    H167876   0.517   3.042   4.524 -0.3420  1.0105 -1.3306
15487TIP3    H267877   0.407   3.141   4.490 -1.8452 -0.3912 -0.6870
15488TIP3   OH267878   4.108   2.400   0.428  0.0121  0.4139 -0.3901
15488TIP3    H167879   4.197   2.426   0.449 -0.0188 -0.6011  1.2170
15488TIP3    H267880   4.117   2.336   0.358  0.6155 -0.0814  0.1288
15489TIP3   OH267881   1.471   1.282   0.503  0.5415  0.7719  0.0264
15489TIP3    H167882   1.479   1.290   0.598  1.3857 -0.7946  0.1129
15489TIP3    H267883   1.473   1.188   0.486  0.1723  1.0140 -1.5335
15490TIP3   OH267884   2.967   6.416  14.649  0.4765  0.2058  0.0181
15490TIP3    H167885   3.061   6.417  14.669  0.4164  0.3877  0.2922
15490TIP3    H267886   2.942   6.324  14.658  0.3903  0.3220  1.0751
15491TIP3   OH267887   5.611   6.214  11.165 -0.3564  0.1756 -0.1450
15491TIP3    H167888   5.655   6.133  11.190  0.1558 -0.0599 -1.7013
15491TIP3    H267889   5.679   6.281  11.170  0.1916 -0.1381 -2.2635
15492TIP3   OH267890   2.403   1.109  16.040  0.1100  0.7294 -0.2651
15492TIP3    H167891   2.496   1.105  16.016  0.9855 -1.0415  2.9397
15492TIP3    H267892   2.368   1.024  16.014 -0.3045  0.9108 -0.3039
15493TIP3   OH267893   0.560   3.162  10.586  0.1740  0.4090  0.1820
15493TIP3    H167894   0.581   3.081  10.540 -1.6338  0.1518 -0.2649
15493TIP3    H267895   0.557   3.229  10.518 -1.0301  0.3088  0.1127
15494TIP3   OH267896   1.402   3.567   0.100 -0.5586 -0.1060  0.3380
15494TIP3    H167897   1.496   3.561   0.084 -0.8628 -0.8164 -1.5497
15494TIP3    H267898   1.390   3.650   0.146  0.6274  2.0677 -2.9176
15495TIP3   OH267899   1.522   0.053   1.540  0.2186 -0.0710 -0.0987
15495TIP3    H167900   1.508  -0.009   1.611  0.2370 -0.2965 -0.2921
15495TIP3    H267901   1.573   0.124   1.579 -1.4905  0.8038  0.6524
15496TIP3   OH267902   5.576   3.133  12.822  0.8725  0.5327  0.0177
15496TIP3    H167903   5.504   3.070  12.818  0.7783  0.6246  0.2571
15496TIP3    H267904   5.553   3.199  12.756  1.8608 -0.5999 -1.5325
15497TIP3   OH267905   1.038   5.342  12.724  0.2417  0.2350 -0.3033
15497TIP3    H167906   1.046   5.358  12.818 -1.8041  1.5204 -0.2935
15497TIP3    H267907   1.003   5.253  12.717  0.5602  0.0735  0.1269
15498TIP3   OH267908   4.157   0.838  14.257  0.2630 -0.2782  0.0790
15498TIP3    H167909   4.130   0.930  14.253 -1.4733 -0.7384  0.4856
15498TIP3    H267910   4.160   0.810  14.165  1.8959  0.4519 -0.1229
15499TIP3   OH267911   2.483   4.251  16.212  0.4278 -0.3950 -0.0606
15499TIP3    H167912   2.424   4.308  16.262  1.9526  0.6174  0.6992
15499TIP3    H267913   2.484   4.169  16.261  3.0195  1.0285  2.6768
15500TIP3   OH267914   6.685   5.674   0.675 -0.0970 -0.3310  0.4252
15500TIP3    H167915   6.767   5.717   0.651  0.4322 -0.7862  1.3636
15500TIP3    H267916   6.624   5.697   0.605  0.3666  1.3369  0.5376
15501TIP3   OH267917   6.019   2.412   1.130  0.5955  0.2627 -0.0170
15501TIP3    H167918   6.078   2.343   1.099  0.7737  1.1660 -1.8415
15501TIP3    H267919   6.076   2.489   1.138 -0.4638  1.5042 -3.1086
15502TIP3   OH267920   2.951   6.638  12.435  0.3652 -0.4265 -0.0112
15502TIP3    H167921   2.871   6.611  12.481  0.0294 -0.7164 -0.7532
15502TIP3    H267922   3.016   6.572  12.461  0.3538 -0.2136  0.5610
15503TIP3   OH267923   2.888   1.243  16.119  0.0202 -0.2500 -0.1702
15503TIP3    H167924   2.875   1.280  16.207 -0.4761  1.5884 -0.9700
15503TIP3    H267925   2.983   1.241  16.108  0.0735 -0.1003  0.2525
15504TIP3   OH267926   1.807   2.761   1.719 -0.1168  0.0959  0.4319
15504TIP3    H167927   1.728   2.808   1.745 -1.0709  0.6489 -2.9845
15504TIP3    H267928   1.775   2.691   1.662  1.7850  0.0707 -0.6823
15505TIP3   OH267929   6.341   0.745   5.182 -0.1313 -0.5353  0.4636
15505TIP3    H167930   6.311   0.835   5.191 -0.0305 -0.4301 -0.1800
15505TIP3    H267931   6.388   0.727   5.263  0.9957  0.4472  0.0579
15506TIP3   OH267932   6.115   6.735   5.578  0.4449 -0.0047 -0.7096
15506TIP3    H167933   6.033   6.730   5.529 -0.1564  0.5031  0.2204
15506TIP3    H267934   6.090   6.767   5.664  1.8528  1.9436 -0.9622
15507TIP3   OH267935   5.902   5.597  11.024 -0.4203  0.0896  0.1821
15507TIP3    H167936   5.959   5.582  10.949  0.7505 -0.3453  1.1200
15507TIP3    H267937   5.823   5.547  11.004  0.2552 -0.8058 -0.3595
15508TIP3   OH267938   5.498   2.576  14.051  0.1420  0.3766 -0.0291
15508TIP3    H167939   5.414   2.539  14.079  0.3180  0.6519  0.9167
15508TIP3    H267940   5.490   2.586  13.956 -0.8785  0.3500  0.0427
15509TIP3   OH267941   1.423   0.962  14.777  0.1105  0.2889  0.8149
15509TIP3    H167942   1.426   0.874  14.816  0.8606 -1.0061 -1.8692
15509TIP3    H267943   1.369   0.951  14.699  1.7426  1.7192 -0.6050
15510TIP3   OH267944   6.576   4.502   2.776 -0.2366 -0.4881  0.2875
15510TIP3    H167945   6.632   4.424   2.770 -0.5741 -0.7010 -0.1315
15510TIP3    H267946   6.634   4.571   2.808  0.2773 -0.6945 -0.1956
15511TIP3   OH267947   1.301   4.780  11.293 -0.8585  0.1437  0.2712
15511TIP3    H167948   1.321   4.847  11.359 -3.3270  0.8591  0.4044
15511TIP3    H267949   1.383   4.769  11.244  0.2465  1.6189  1.6739
15512TIP3   OH267950   2.494   2.267   3.404 -0.0351  0.2935  0.1157
15512TIP3    H167951   2.413   2.317   3.396  0.4290  1.2645  1.1585
15512TIP3    H267952   2.532   2.269   3.317 -0.6754  0.6437 -0.1628
15513TIP3   OH267953   4.409   0.245   3.655  0.2269 -0.3129  0.0050
15513TIP3    H167954   4.435   0.262   3.745 -0.1173  0.6319 -0.0523
15513TIP3    H267955   4.314   0.235   3.659  0.1302  0.4023 -0.3329
15514TIP3   OH267956   0.162   3.042   0.779  0.4031  0.3290  0.1489
15514TIP3    H167957   0.257   3.053   0.787  0.3793  0.3011  0.4713
15514TIP3    H267958   0.143   3.064   0.687  0.6916  0.5385  0.1384
15515TIP3   OH267959   4.729   3.705  11.454 -0.1798 -0.7533  0.6234
15515TIP3    H167960   4.718   3.800  11.445 -1.8047 -1.0821 -1.7869
15515TIP3    H267961   4.657   3.678  11.512  0.3911 -0.5376  1.4588
15516TIP3   OH267962   5.649   6.175  14.341  0.3052  0.4041 -0.5810
15516TIP3    H167963   5.720   6.155  14.280 -0.8381 -0.5360 -1.6838
15516TIP3    H267964   5.645   6.099  14.400  1.0945  1.0909  0.3792
15517TIP3   OH267965   0.764   4.053  14.526 -0.0384  0.1552 -0.1751
15517TIP3    H167966   0.751   3.993  14.453  0.2099  0.3642 -0.3934
15517TIP3    H267967   0.676   4.068  14.561  0.0018 -1.1868  0.5678
15518TIP3   OH267968   0.048   4.446   3.256  0.3135  0.1159 -0.2007
15518TIP3    H167969   0.052   4.363   3.303  0.6577  0.1323 -0.1968
15518TIP3    H267970   0.133   4.487   3.273  0.0441  0.5873  0.0176
15519TIP3   OH267971   2.397   2.243  15.600 -1.0981  0.2363  0.3277
15519TIP3    H167972   2.465   2.279  15.544  0.0472 -0.1023  1.4557
15519TIP3    H267973   2.335   2.202  15.540 -0.0574  0.1223 -0.6909
15520TIP3   OH267974   2.479   6.141   4.436 -0.8860 -0.3451  0.4108
15520TIP3    H167975   2.391   6.109   4.457 -0.6481 -1.2345  0.0913
15520TIP3    H267976   2.531   6.121   4.514 -0.0078 -3.6283 -0.8505
15521TIP3   OH267977   5.267   3.709   9.894  0.0122  0.1024 -0.1316
15521TIP3    H167978   5.358   3.706   9.922 -0.3207 -0.5264  0.9331
15521TIP3    H267979   5.248   3.802   9.883  1.1233  0.1880 -1.5962
15522TIP3   OH267980   0.014   1.742   0.675 -0.3221  0.0031  0.3725
15522TIP3    H167981   0.071   1.803   0.628  0.1547 -2.2983 -2.3081
15522TIP3    H267982   0.073   1.690   0.728 -0.6250  1.1024  1.8651
15523TIP3   OH267983   3.550   2.072  15.059 -0.5974  0.4520 -0.4229
15523TIP3    H167984   3.587   2.072  15.148 -0.9071 -0.6801 -0.2855
15523TIP3    H267985   3.457   2.055  15.072 -0.6100  0.0861 -0.9800
15524TIP3   OH267986   6.198   1.529   2.396 -0.7563 -0.1215 -0.1330
15524TIP3    H167987   6.194   1.620   2.426 -0.8135 -0.3150  0.4500
15524TIP3    H267988   6.275   1.493   2.440 -0.2636 -0.1423 -0.9791
15525TIP3   OH267989   0.486   0.955  13.775 -0.7280 -0.1294  0.2515
15525TIP3    H167990   0.413   0.893  13.774 -0.3371 -0.6007  0.4133
15525TIP3    H267991   0.466   1.014  13.848 -1.5611  0.5108 -0.4645
15526TIP3   OH267992   0.866   0.532  10.884  0.7225  0.2165 -0.0265
15526TIP3    H167993   0.867   0.535  10.789  2.4525 -0.5032 -0.0678
15526TIP3    H267994   0.782   0.491  10.906  0.9727 -1.0673 -1.3193
15527TIP3   OH267995   0.072   4.092   2.040 -0.2952  0.0018  0.9000
15527TIP3    H167996   0.051   4.174   1.995 -0.5666  0.1300  1.2576
15527TIP3    H267997  -0.007   4.038   2.031  0.5944 -1.0723 -1.1808
15528TIP3   OH267998   1.059   0.309  16.723  0.2527  0.0413  0.4822
15528TIP3    H167999   1.153   0.297  16.739  0.4936 -0.6098 -1.2390
15528TIP3    H268000   1.017   0.279  16.804  1.5336  0.7706  1.4541
15529TIP3   OH268001   0.230   6.508  16.390 -0.1324 -0.0548  0.1428
15529TIP3    H168002   0.208   6.601  16.396  1.0870  0.1913  1.3966
15529TIP3    H268003   0.265   6.486  16.477  0.5774 -1.4174 -0.4526
15530TIP3   OH268004   0.527   4.943  15.173  0.0723  0.5318 -0.4181
15530TIP3    H168005   0.442   4.985  15.178  0.3632  0.9973  1.7277
15530TIP3    H268006   0.527   4.880  15.245  1.3156  0.1416 -0.7375
15531TIP3   OH268007   1.156   1.786  15.769  0.2675 -0.2230 -0.1510
15531TIP3    H168008   1.120   1.787  15.858  1.1754 -0.2361  0.2264
15531TIP3    H268009   1.096   1.731  15.720 -1.4109  1.4032 -0.0666
15532TIP3   OH268010   6.185   5.955   0.534 -0.2027  0.5014  0.4273
15532TIP3    H168011   6.102   5.914   0.510 -0.0053  0.4584 -0.1994
15532TIP3    H268012   6.212   5.909   0.613 -0.2126 -0.2776 -0.0059
15533TIP3   OH268013   0.738   5.610   4.279 -0.6524  0.2379 -0.0200
15533TIP3    H168014   0.651   5.584   4.311 -0.9374  2.0012  0.7867
15533TIP3    H268015   0.762   5.684   4.335  2.0290 -1.0981  0.7436
15534TIP3   OH268016   2.040   0.474   3.913  0.1648 -0.6287 -0.0721
15534TIP3    H168017   2.087   0.468   3.830  0.8975  1.1196  0.1682
15534TIP3    H268018   1.951   0.447   3.893  0.4834 -0.8163 -1.2843
15535TIP3   OH268019   4.496   2.754   1.771 -0.1461  0.4776  0.5243
15535TIP3    H168020   4.436   2.754   1.697  1.1884  1.0276 -0.6139
15535TIP3    H268021   4.557   2.825   1.753  1.5306 -0.7486  1.0397
15536TIP3   OH268022   2.627   4.322   0.470  0.1893 -0.2876  0.6226
15536TIP3    H168023   2.634   4.229   0.449  0.6100 -0.3935  1.1937
15536TIP3    H268024   2.605   4.324   0.563  6.2672  0.1075  2.5060
15537TIP3   OH268025   0.530   0.786  13.137  0.6582 -0.1878 -0.6277
15537TIP3    H168026   0.514   0.699  13.174 -0.4499  0.8056  1.3888
15537TIP3    H268027   0.507   0.778  13.045  0.7258 -2.0669 -0.5082
15538TIP3   OH268028   6.641   6.633  14.603  0.4289  0.0841 -0.0854
15538TIP3    H168029   6.633   6.547  14.560 -0.8427  1.1608 -2.1690
15538TIP3    H268030   6.559   6.643  14.652  0.2502  0.4051 -0.4459
15539TIP3   OH268031   1.719   2.960  14.433  0.6133  0.3906 -0.0054
15539TIP3    H168032   1.779   2.904  14.482  0.4857  0.1165 -0.1640
15539TIP3    H268033   1.773   3.001  14.366  0.6588  0.2807 -0.0346
15540TIP3   OH268034   1.171   3.193   2.249 -0.2509 -0.3934 -0.0253
15540TIP3    H168035   1.167   3.171   2.156 -0.6267  0.3783 -0.2082
15540TIP3    H268036   1.081   3.183   2.279 -0.1436 -0.5653  0.2365
15541TIP3   OH268037   0.750   4.342   6.347  0.2675 -0.3577 -0.4345
15541TIP3    H168038   0.783   4.321   6.435 -1.8338  1.8393  1.0002
15541TIP3    H268039   0.821   4.391   6.306 -0.0249  1.8461  1.5173
15542TIP3   OH268040   6.497   5.623   3.438 -0.3761 -0.0104 -0.4411
15542TIP3    H168041   6.572   5.582   3.394  0.8308 -1.9501  2.9686
15542TIP3    H268042   6.530   5.644   3.525 -3.0413  1.8747  0.2327
15543TIP3   OH268043   4.539   6.672  14.338 -0.2034 -0.2168  0.5692
15543TIP3    H168044   4.474   6.611  14.371  0.2680 -0.2764  1.4273
15543TIP3    H268045   4.496   6.758  14.342  0.2223 -0.0448  2.5305
15544TIP3   OH268046   5.062   4.619  10.793  0.0886  0.2133  0.3091
15544TIP3    H168047   5.066   4.711  10.767  1.6069  0.1384  0.1776
15544TIP3    H268048   4.974   4.590  10.768  0.0523  1.2740 -0.8577
15545TIP3   OH268049   2.713   4.671   5.317 -0.3886 -0.0367  0.6386
15545TIP3    H168050   2.742   4.762   5.317 -0.5856  0.0425  1.8036
15545TIP3    H268051   2.742   4.636   5.233  0.2576  0.9195  0.4526
15546TIP3   OH268052   1.933   6.728   2.315  0.3026  0.0973  0.1368
15546TIP3    H168053   1.895   6.795   2.372  0.8652  1.8363 -1.4287
15546TIP3    H268054   1.860   6.702   2.258  0.6211  1.1936 -0.8309
15547TIP3   OH268055   4.570   3.289   6.034 -0.2484 -0.2137 -0.2453
15547TIP3    H168056   4.541   3.268   6.123  1.0931 -0.4090  0.1582
15547TIP3    H268057   4.647   3.343   6.046 -0.4079  0.2595 -1.3050
15548TIP3   OH268058   0.635   2.252   2.329  0.0978 -0.1494  0.0073
15548TIP3    H168059   0.597   2.340   2.321  0.8485  0.1952  0.1048
15548TIP3    H268060   0.728   2.268   2.345  0.3597 -0.9687 -0.6172
15549TIP3   OH268061   3.336   2.389  13.953 -0.0390 -0.1476 -0.6693
15549TIP3    H168062   3.370   2.300  13.962  0.8997  0.0483 -1.9035
15549TIP3    H268063   3.252   2.378  13.909  0.5223 -0.3908 -1.7178
15550TIP3   OH268064   2.928   1.142  12.511  0.1777 -0.2678  0.1896
15550TIP3    H168065   2.895   1.053  12.495 -1.1260 -0.2855  2.5218
15550TIP3    H268066   2.853   1.199  12.493  1.1495  0.4729 -1.7725
15551TIP3   OH268067   0.604   0.239  14.673 -0.0903 -0.6372  0.1085
15551TIP3    H168068   0.510   0.242  14.656  0.0285  1.6788 -0.5423
15551TIP3    H268069   0.643   0.210  14.591 -0.1773 -0.8500  0.1411
15552TIP3   OH268070   2.734   1.542   1.378 -0.0959  0.1453 -0.8952
15552TIP3    H168071   2.816   1.546   1.427 -0.5605  0.1971 -0.1203
15552TIP3    H268072   2.703   1.452   1.389 -2.0432  1.0440  1.9885
15553TIP3   OH268073   0.238   5.439   1.597  0.0508 -0.1052  0.1080
15553TIP3    H168074   0.269   5.450   1.687  1.9122  0.2279 -0.5289
15553TIP3    H268075   0.167   5.375   1.604  0.5823 -0.5680  1.7391
15554TIP3   OH268076   1.099   5.467   5.185 -0.3977 -0.0475 -0.2680
15554TIP3    H168077   1.189   5.496   5.170 -0.4237  0.2702  0.1746
15554TIP3    H268078   1.102   5.372   5.176  0.0971 -0.0891  0.3314
15555TIP3   OH268079   1.916   5.546  13.168 -0.4794 -0.0832 -0.1953
15555TIP3    H168080   1.870   5.513  13.091 -1.0018  0.2543 -0.0335
15555TIP3    H268081   1.861   5.618  13.199  1.3962  2.0369 -1.4781
15556TIP3   OH268082   5.681   3.723  16.079  0.5443  0.3427  0.3694
15556TIP3    H168083   5.673   3.738  16.173  1.7898 -1.3742  0.7984
15556TIP3    H268084   5.775   3.727  16.062  0.2426  2.2741 -1.1405
15557TIP3   OH268085   0.675   3.601  11.184  0.0216  0.8315 -0.6633
15557TIP3    H168086   0.766   3.593  11.155  0.2764  0.2644  0.2603
15557TIP3    H268087   0.681   3.618  11.277 -0.8279 -1.8527 -0.0108
15558TIP3   OH268088   3.195   0.747   2.664  0.0281 -0.1465  0.0804
15558TIP3    H168089   3.226   0.742   2.574  1.0379  0.1709  0.3913
15558TIP3    H268090   3.200   0.657   2.696 -2.2020 -0.6259 -0.7404
15559TIP3   OH268091   3.486   5.341   5.179 -0.2394 -0.1228  0.4125
15559TIP3    H168092   3.542   5.405   5.224  0.0875 -0.5588  0.6395
15559TIP3    H268093   3.409   5.333   5.235 -0.9134  1.0709 -0.3012
15560TIP3   OH268094   6.546   1.830   3.704 -0.3939  0.5980 -0.2870
15560TIP3    H168095   6.564   1.909   3.652 -1.0546 -0.3139 -1.9739
15560TIP3    H268096   6.566   1.757   3.646 -1.0422 -0.4801  0.7900
15561TIP3   OH268097   1.840   1.121   1.294  0.7743 -0.3124  0.5564
15561TIP3    H168098   1.900   1.189   1.264 -0.9002  1.2148  0.4878
15561TIP3    H268099   1.840   1.056   1.224  0.9040  0.6038 -0.3243
15562TIP3   OH268100   4.044   5.455  13.372 -0.3025 -0.3054 -0.0281
15562TIP3    H168101   4.136   5.438  13.354  0.3132 -0.0953  2.4495
15562TIP3    H268102   3.997   5.426  13.294  1.8460 -0.4296 -1.3320
15563TIP3   OH268103   5.257   0.393   3.579  0.1397 -0.1326 -0.8148
15563TIP3    H168104   5.324   0.326   3.594 -0.1577 -1.0337 -3.0765
15563TIP3    H268105   5.297   0.475   3.607  0.6800 -1.1437  1.6307
15564TIP3   OH268106   4.149   5.500   0.928 -0.1466  0.0846 -0.3657
15564TIP3    H168107   4.211   5.452   0.874 -0.4024 -1.1668  0.4007
15564TIP3    H268108   4.203   5.556   0.983  0.2980 -0.6873  0.0028
15565TIP3   OH268109   3.660   4.925  13.762  0.2979 -0.2274  0.4685
15565TIP3    H168110   3.569   4.898  13.774  0.0243  0.6014  0.3512
15565TIP3    H268111   3.685   4.890  13.676 -0.4030  0.7998 -0.1772
15566TIP3   OH268112   0.144   5.842   3.224  0.2679  0.2468 -0.2543
15566TIP3    H168113   0.111   5.799   3.303  0.6180  1.8977  0.8410
15566TIP3    H268114   0.196   5.774   3.180  3.5195  0.2750  3.0422
15567TIP3   OH268115   5.367   5.050   4.491  0.6282  0.3139  0.1737
15567TIP3    H168116   5.290   5.098   4.519 -0.2933 -0.0424 -1.6163
15567TIP3    H268117   5.406   5.105   4.423  0.9009 -0.3565 -0.2224
15568TIP3   OH268118   3.823   2.971  17.044 -0.0994  0.0248  0.2582
15568TIP3    H168119   3.880   2.932  16.978  0.2610  0.3833  0.3496
15568TIP3    H268120   3.882   3.024  17.098 -0.3854 -0.2828  0.8811
15569TIP3   OH268121   5.245   5.200   0.529 -0.0020 -0.0310 -0.2913
15569TIP3    H168122   5.258   5.106   0.544 -3.1761 -0.3521  1.4081
15569TIP3    H268123   5.223   5.235   0.615 -1.3492  1.7854 -1.3080
15570TIP3   OH268124   5.077   3.499   3.053  0.3798  0.2965  0.3422
15570TIP3    H168125   5.103   3.410   3.026 -0.4802  0.1875 -0.1729
15570TIP3    H268126   5.010   3.524   2.989  0.7961  1.4240  0.3381
15571TIP3   OH268127   1.994   2.097   3.922  0.5786 -0.2459  0.1075
15571TIP3    H168128   1.937   2.042   3.870  1.2084 -1.2541  0.4497
15571TIP3    H268129   2.072   2.109   3.868 -0.3610  2.1386 -0.8831
15572TIP3   OH268130   4.616   5.359   4.027  0.5986  0.4003 -0.2650
15572TIP3    H168131   4.531   5.318   4.012  0.0830  1.8277 -1.5355
15572TIP3    H268132   4.680   5.291   4.007 -0.2356 -0.5461  0.2362
15573TIP3   OH268133   3.591   3.070   4.254 -0.3574 -0.0104 -0.1665
15573TIP3    H168134   3.499   3.069   4.282  0.3075 -1.4820  2.2730
15573TIP3    H268135   3.641   3.066   4.335  1.9424  1.6202 -1.3807
15574TIP3   OH268136   0.463   4.356  16.858 -0.3556 -0.3656 -0.3056
15574TIP3    H168137   0.494   4.430  16.806 -1.4782  1.0503  0.9338
15574TIP3    H268138   0.486   4.379  16.948 -2.4061 -0.5937  0.3256
15575TIP3   OH268139   4.657   6.104  14.343 -0.3280  0.1505 -0.3307
15575TIP3    H168140   4.746   6.091  14.375 -0.7930 -1.1514  0.4765
15575TIP3    H268141   4.664   6.092  14.248  0.4820  0.8177 -0.3646
15576TIP3   OH268142   6.397   4.498   4.245  0.3057  0.5269 -0.3231
15576TIP3    H168143   6.381   4.583   4.286  1.8488 -0.3594  2.3612
15576TIP3    H268144   6.310   4.457   4.241 -0.1837  1.4966  0.1019
15577TIP3   OH268145   4.626   3.241  11.997  0.2064  0.3543 -0.3495
15577TIP3    H168146   4.669   3.156  11.990  1.6454  1.0109  0.0929
15577TIP3    H268147   4.697   3.302  12.019 -0.6901  1.7579 -1.1678
15578TIP3   OH268148   0.730   0.513  11.596  0.0783  0.7367 -0.2159
15578TIP3    H168149   0.792   0.581  11.622  0.3540  0.1862  0.5926
15578TIP3    H268150   0.660   0.517  11.661 -0.8624  1.4957 -1.2468
15579TIP3   OH268151   1.550   3.026  14.005 -0.1732 -0.2886 -0.2825
15579TIP3    H168152   1.559   2.988  13.917  0.1854  0.4575 -0.5766
15579TIP3    H268153   1.639   3.026  14.041 -0.1188  0.5157 -0.3986
15580TIP3   OH268154   6.506   2.147  16.077  0.4399  0.0578 -0.1787
15580TIP3    H168155   6.466   2.157  15.990 -0.5856 -1.2298  0.1202
15580TIP3    H268156   6.436   2.111  16.132  1.6062 -0.9485  0.7063
15581TIP3   OH268157   5.180   3.316  12.007  0.3838  0.0026 -0.3568
15581TIP3    H168158   5.254   3.351  11.956  0.7509  1.9854  1.4087
15581TIP3    H268159   5.220   3.257  12.071  0.4539  0.9612  0.5022
15582TIP3   OH268160   2.368   6.593   4.630  0.0370 -0.1457  0.2235
15582TIP3    H168161   2.430   6.647   4.679 -0.0314  2.0015 -1.8954
15582TIP3    H268162   2.289   6.593   4.683  0.2543  1.3112  0.5953
15583TIP3   OH268163   2.923   5.416   0.512  0.0329 -0.1507  0.1786
15583TIP3    H168164   2.849   5.455   0.560  0.2126  0.5067 -0.0695
15583TIP3    H268165   2.948   5.483   0.448  0.1814 -0.7863 -0.4338
15584TIP3   OH268166   2.722   3.112   5.542  0.3784  0.0071  0.3760
15584TIP3    H168167   2.763   3.117   5.628  1.9134 -0.3485 -0.2937
15584TIP3    H268168   2.659   3.183   5.541  0.4270  0.0863  1.7495
15585TIP3   OH268169   1.847   5.441   6.152  0.1716  0.1787 -0.4381
15585TIP3    H168170   1.905   5.393   6.211  1.3820  0.5687 -1.2806
15585TIP3    H268171   1.847   5.531   6.185 -0.9853 -0.0666  0.3049
15586TIP3   OH268172   5.752   6.777  15.903  0.1718 -0.2143 -0.2085
15586TIP3    H168173   5.737   6.841  15.973 -1.9513 -0.4856 -0.3449
15586TIP3    H268174   5.733   6.825  15.823 -0.8288 -0.8209 -0.3515
15587TIP3   OH268175   2.442   0.628  12.236 -0.2185  0.0648  0.3382
15587TIP3    H168176   2.356   0.655  12.268  0.0322  0.7017  0.4896
15587TIP3    H268177   2.502   0.696  12.266  0.4516 -0.7018  0.7788
15588TIP3   OH268178   6.628   3.625   5.560  0.2466  0.0880  1.1480
15588TIP3    H168179   6.716   3.594   5.543  0.3215  0.6637  0.4532
15588TIP3    H268180   6.605   3.587   5.645  0.2605 -1.9993  0.2764
15589TIP3   OH268181   1.387   2.451  10.993 -0.7146 -0.9969 -0.1577
15589TIP3    H168182   1.418   2.506  11.065  0.8938  3.6663 -3.8779
15589TIP3    H268183   1.296   2.479  10.979 -0.2990 -0.1069 -1.2559
15590TIP3   OH268184   1.280   3.997  14.727  0.1885 -0.2873 -0.4360
15590TIP3    H168185   1.192   4.028  14.702  0.5781  1.1464 -0.1138
15590TIP3    H268186   1.304   4.051  14.802  2.2416  0.8988 -1.8440
15591TIP3   OH268187   2.905   2.148   3.306  0.1283 -0.4365 -0.0255
15591TIP3    H168188   2.920   2.242   3.315 -2.0945  0.1105 -1.3630
15591TIP3    H268189   2.977   2.117   3.251 -0.6558  1.0732 -2.0146
15592TIP3   OH268190   3.776   6.788  11.454 -0.3991  0.0377 -0.0784
15592TIP3    H168191   3.746   6.698  11.468  2.3028 -0.8294  0.7290
15592TIP3    H268192   3.845   6.780  11.388  1.3706  1.1479  1.5351
15593TIP3   OH268193   2.233   6.773  14.380 -0.8750  0.1654 -0.1368
15593TIP3    H168194   2.326   6.788  14.362 -0.5505 -1.2109  0.2548
15593TIP3    H268195   2.187   6.815  14.308  0.1306 -0.3799 -1.1362
15594TIP3   OH268196   2.308   0.454  16.964 -0.0364  0.0358 -0.2073
15594TIP3    H168197   2.285   0.442  17.057 -1.2277  1.3722 -0.2982
15594TIP3    H268198   2.260   0.532  16.937  0.9078  0.1256 -1.7633
15595TIP3   OH268199   1.868   2.747  12.661  0.8707  0.2800 -0.3473
15595TIP3    H168200   1.843   2.817  12.721 -0.1522  0.3120 -0.7995
15595TIP3    H268201   1.961   2.763  12.643  0.9499  0.8149  0.4873
15596TIP3   OH268202   1.443   3.050  11.464 -0.2731  0.8620 -0.4521
15596TIP3    H168203   1.531   3.063  11.429  0.0269  0.8231  0.2638
15596TIP3    H268204   1.399   3.133  11.449  0.3194  1.3395  0.3853
15597TIP3   OH268205   3.328   5.612  11.817 -0.2997  0.1140 -0.4019
15597TIP3    H168206   3.235   5.592  11.807 -0.4871  0.9871 -0.4995
15597TIP3    H268207   3.346   5.676  11.748  0.8294 -1.4600 -1.6227
15598TIP3   OH268208   1.489   4.011  11.936 -0.3998  0.8082  0.8411
15598TIP3    H168209   1.563   4.047  11.986 -1.7311 -0.6927  4.2090
15598TIP3    H268210   1.521   3.926  11.904 -0.2319  0.7379  1.1844
15599TIP3   OH268211   4.113   0.384  16.611 -0.3285  0.0959 -0.3314
15599TIP3    H168212   4.071   0.302  16.637 -0.2145  0.3972  0.8452
15599TIP3    H268213   4.065   0.452  16.658  0.0005  0.6531 -0.7824
15600TIP3   OH268214   0.426   5.027  11.009  0.0257 -0.0598 -0.1919
15600TIP3    H168215   0.482   4.999  11.082  0.9577 -0.1546 -0.9109
15600TIP3    H268216   0.488   5.055  10.941 -0.8148 -0.1451 -1.0168
15601TIP3   OH268217   3.215   3.199   0.613  0.0054  0.3406 -0.4360
15601TIP3    H168218   3.228   3.166   0.703  0.6541 -0.2229 -0.7261
15601TIP3    H268219   3.232   3.123   0.558  2.2297  1.2994 -1.1759
15602TIP3   OH268220   3.692   2.109   0.497  0.1150  0.0370 -0.0001
15602TIP3    H168221   3.725   2.198   0.507  2.3166 -0.7708  0.5801
15602TIP3    H268222   3.689   2.095   0.402  0.4695  0.4935 -0.0842
15603TIP3   OH268223   0.223   2.274  15.824  0.1578 -0.5658 -0.4365
15603TIP3    H168224   0.259   2.245  15.740 -0.1321  0.1814 -0.8229
15603TIP3    H268225   0.259   2.361  15.837 -1.1395  0.0081 -0.5952
15604TIP3   OH268226   4.560   0.404  15.548 -0.0221  0.2284  0.2390
15604TIP3    H168227   4.632   0.437  15.601  1.3361  0.2877 -1.5588
15604TIP3    H268228   4.597   0.330  15.501 -0.8883  0.7079 -1.2720
15605TIP3   OH268229   0.031   2.932   4.593 -0.5687  0.2442  0.2716
15605TIP3    H168230   0.018   2.849   4.639  0.9432 -0.3768 -0.3482
15605TIP3    H268231   0.119   2.960   4.618 -0.2650  0.6163 -1.0899
15606TIP3   OH268232   3.080   4.097   1.338  0.3678  0.0486 -0.6778
15606TIP3    H168233   3.042   4.169   1.287 -2.0884 -0.9258 -0.3307
15606TIP3    H268234   3.032   4.098   1.420  0.2789 -1.9956 -0.6688
15607TIP3   OH268235   5.591   2.091   2.543  0.0130 -0.3991  0.4240
15607TIP3    H168236   5.625   2.098   2.454 -1.4992  1.4093 -0.0776
15607TIP3    H268237   5.650   2.145   2.596 -0.5789  0.6723  0.0163
15608TIP3   OH268238   2.000   1.839   5.883  0.4836  0.1569  0.4732
15608TIP3    H168239   1.916   1.881   5.862  0.8093 -0.6114 -3.0281
15608TIP3    H268240   2.061   1.912   5.895  0.1180  0.7607 -1.0814
15609TIP3   OH268241   2.378   0.829   6.179 -0.0339 -0.6233  0.2878
15609TIP3    H168242   2.342   0.915   6.160  1.0321 -0.2937 -0.3072
15609TIP3    H268243   2.353   0.775   6.105 -0.2080 -0.6826  0.3876
15610TIP3   OH268244   5.876   2.633  12.713  0.1916 -0.7894 -0.0152
15610TIP3    H168245   5.897   2.542  12.693 -0.6974 -1.1219  0.4614
15610TIP3    H268246   5.783   2.642  12.689  0.7742  0.5848 -1.9814
15611TIP3   OH268247   5.002   3.683   5.877 -0.4268  0.2194  0.2107
15611TIP3    H168248   5.020   3.679   5.971  1.5302 -3.6261 -0.1180
15611TIP3    H268249   5.078   3.728   5.841  0.1457 -0.6279  0.3156
15612TIP3   OH268250   2.849   6.763  13.165  0.2225  0.2444 -0.5362
15612TIP3    H168251   2.936   6.724  13.158  0.5741  1.0883 -0.8859
15612TIP3    H268252   2.789   6.688  13.159  0.8472 -0.1475 -2.4440
15613TIP3   OH268253   5.033   1.926   1.499 -0.5385 -0.4393 -0.1667
15613TIP3    H168254   5.048   1.835   1.522 -1.7621 -0.5432  0.3035
15613TIP3    H268255   5.026   1.971   1.583 -2.3091 -0.3439 -0.3328
15614TIP3   OH268256   6.750   5.382   0.009  0.7618  0.0780 -0.0975
15614TIP3    H168257   6.753   5.287   0.004 -2.8287 -0.4468  3.1563
15614TIP3    H268258   6.694   5.408  -0.064 -1.3511 -0.8551  1.0795
15615TIP3   OH268259   4.833   5.150  15.110 -0.2184  0.2637  0.5293
15615TIP3    H168260   4.785   5.078  15.152  0.5613  0.2138  1.3736
15615TIP3    H268261   4.908   5.164  15.167  0.8489  0.2602 -0.8268
15616TIP3   OH268262   1.662   5.546  15.631  0.5764 -0.2586  0.0690
15616TIP3    H168263   1.709   5.583  15.705 -0.9919 -1.3553  1.7022
15616TIP3    H268264   1.729   5.528  15.565  1.9134  1.4117  0.9229
15617TIP3   OH268265   0.897   0.739   0.816 -0.5788  0.1264 -0.4031
15617TIP3    H168266   0.981   0.693   0.811 -0.7510 -0.2216 -0.1029
15617TIP3    H268267   0.912   0.821   0.769  0.0548  0.2491 -0.0041
15618TIP3   OH268268   2.458   5.101  16.638  0.2168  0.7195 -0.3695
15618TIP3    H168269   2.500   5.069  16.718 -0.0956  1.2550  0.0143
15618TIP3    H268270   2.388   5.159  16.669 -1.0653 -0.4301 -0.9807
15619TIP3   OH268271   1.749   4.138  14.200 -1.0629 -0.4559  0.4691
15619TIP3    H168272   1.724   4.151  14.292 -0.5297 -3.2744  1.1006
15619TIP3    H268273   1.669   4.156  14.151 -1.8848 -0.7111  1.6717
15620TIP3   OH268274   6.689   4.637   5.853  0.0049  0.2182  0.1388
15620TIP3    H168275   6.692   4.733   5.847 -1.6715  0.2545 -0.8197
15620TIP3    H268276   6.773   4.609   5.817  0.2111  1.3199 -0.3042
15621TIP3   OH268277   1.037   1.420  13.966 -0.4107 -0.2665  0.2295
15621TIP3    H168278   0.970   1.405  14.032 -0.1654 -1.5209  0.2038
15621TIP3    H268279   0.998   1.388  13.884 -0.6367  1.0871 -0.2306
15622TIP3   OH268280   0.618   0.900   2.992 -0.4793  0.0793  0.0703
15622TIP3    H168281   0.650   0.809   2.992  0.2420  0.3125 -0.8726
15622TIP3    H268282   0.671   0.943   3.058 -2.6289 -0.7330  2.4850
15623TIP3   OH268283   0.177   5.246   3.437  0.9341 -0.7643  0.0524
15623TIP3    H168284   0.255   5.279   3.393 -0.2437  0.9150 -0.9290
15623TIP3    H268285   0.210   5.198   3.513  3.0262 -3.0256 -2.1188
15624TIP3   OH268286   4.127   3.802  13.606  0.2425  0.3649 -0.1612
15624TIP3    H168287   4.208   3.799  13.657  0.5313  1.4939 -0.5189
15624TIP3    H268288   4.057   3.794  13.672  0.5561  3.3821  0.7085
15625TIP3   OH268289   6.402   4.568   4.650  0.3205  0.3671 -0.1233
15625TIP3    H168290   6.486   4.611   4.665  0.8749 -0.2843 -1.2665
15625TIP3    H268291   6.348   4.635   4.609  0.9889  0.1692 -1.3577
15626TIP3   OH268292   2.814   4.793  15.441  0.1769 -0.2442 -0.0365
15626TIP3    H168293   2.906   4.770  15.459 -0.0148 -1.2201 -0.2793
15626TIP3    H268294   2.817   4.888  15.425  0.8554  0.1113  1.8538
15627TIP3   OH268295   6.402   2.812  12.961 -0.2297 -0.1885 -0.0783
15627TIP3    H168296   6.415   2.900  12.926  0.3943 -0.3348 -0.2234
15627TIP3    H268297   6.480   2.795  13.014 -0.5179 -0.5098  0.2504
15628TIP3   OH268298   2.480   2.218  11.733  0.0274  0.3966  0.6255
15628TIP3    H168299   2.487   2.167  11.813  1.3163  1.7813  1.4448
15628TIP3    H268300   2.418   2.287  11.753 -0.3429  0.2213  0.1172
15629TIP3   OH268301   2.037   3.162   3.247 -0.6537 -0.4893  0.7907
15629TIP3    H168302   2.039   3.116   3.163 -1.0221 -2.3374  1.7585
15629TIP3    H268303   1.944   3.173   3.267 -0.5698  0.3941  0.7492
15630TIP3   OH268304   4.596   5.665   1.280 -0.2061 -0.0435 -0.5371
15630TIP3    H168305   4.585   5.586   1.332 -2.8768 -0.6581 -1.8374
15630TIP3    H268306   4.609   5.633   1.191  1.4561  1.0097 -0.7220
15631TIP3   OH268307   6.195   2.974  11.203 -0.3236 -0.6370 -0.0477
15631TIP3    H168308   6.123   3.013  11.154  0.0709 -2.0378 -1.8833
15631TIP3    H268309   6.158   2.894  11.240 -0.5071  0.2133  1.6953
15632TIP3   OH268310   4.085   1.258   1.376  0.3518 -0.3131  0.1910
15632TIP3    H168311   4.094   1.348   1.405  2.8507 -0.2686 -0.4500
15632TIP3    H268312   4.164   1.214   1.409 -0.0697 -1.8780 -0.7619
15633TIP3   OH268313   3.235   6.194   0.938 -0.3986 -0.3479  0.0064
15633TIP3    H168314   3.156   6.212   0.886 -2.2150 -2.4222  1.7952
15633TIP3    H268315   3.279   6.123   0.891 -0.0605  0.2266 -0.5506
15634TIP3   OH268316   6.215   1.424  11.193  0.2692 -0.2277 -0.5270
15634TIP3    H168317   6.139   1.466  11.233  0.5471  0.9749 -1.2079
15634TIP3    H268318   6.261   1.495  11.148  1.0666 -1.1734 -1.2597
15635TIP3   OH268319   3.272   1.492  14.263 -1.0395  0.1254 -0.0250
15635TIP3    H168320   3.357   1.519  14.299 -1.1885 -1.2648  1.4996
15635TIP3    H268321   3.279   1.510  14.169  0.6007  0.8908  0.2136
15636TIP3   OH268322   1.950   2.812  13.160 -0.1369 -0.2940 -0.2209
15636TIP3    H168323   1.898   2.871  13.217  2.1126  1.8079 -0.1605
15636TIP3    H268324   1.970   2.737  13.216 -0.4420  0.3542  0.7946
15637TIP3   OH268325   1.780   2.523  14.401 -0.3889  0.7294 -0.3098
15637TIP3    H168326   1.700   2.568  14.428  0.5912  1.9725  0.7072
15637TIP3    H268327   1.808   2.475  14.479 -1.2395 -1.4763 -1.2854
15638TIP3   OH268328   3.594   3.543   2.132 -0.0917 -0.1438  0.4580
15638TIP3    H168329   3.550   3.628   2.143 -1.9921 -0.9947 -0.0035
15638TIP3    H268330   3.594   3.505   2.219  1.2065  0.5182  0.7567
15639TIP3   OH268331   1.685   1.639  14.924 -0.4662 -0.0916  0.0107
15639TIP3    H168332   1.597   1.641  14.961 -0.1563 -1.1897  0.8670
15639TIP3    H268333   1.672   1.651  14.830 -1.4184  0.9489  0.2656
15640TIP3   OH268334   3.727   3.098  11.441 -0.0185  0.0992  0.1925
15640TIP3    H168335   3.783   3.045  11.385 -0.5113  0.9082 -1.0947
15640TIP3    H268336   3.778   3.177  11.460  0.3883 -0.4240  1.4336
15641TIP3   OH268337   5.744   1.048   4.034  0.6521 -0.0091  0.3367
15641TIP3    H168338   5.800   1.042   3.957  0.7653  2.5516  0.1112
15641TIP3    H268339   5.786   0.992   4.099  2.5258  0.4669 -0.3942
15642TIP3   OH268340   2.942   1.145   0.746  0.5595 -0.3412  0.2514
15642TIP3    H168341   2.963   1.195   0.824  1.2208 -0.9450  0.4713
15642TIP3    H268342   2.962   1.204   0.673  0.2323  0.1129  0.5214
15643TIP3   OH268343   5.200   3.889   0.190  0.8334 -0.3736 -0.1184
15643TIP3    H168344   5.193   3.902   0.285  0.6094 -0.5351 -0.1114
15643TIP3    H268345   5.293   3.871   0.175  0.8181 -0.6407  0.1068
15644TIP3   OH268346   3.380   4.281   2.655  0.1088 -0.3078 -0.2498
15644TIP3    H168347   3.295   4.300   2.613 -0.1564  0.0833  0.4519
15644TIP3    H268348   3.419   4.367   2.669  0.7967 -0.5085 -0.9141
15645TIP3   OH268349   0.351   0.360  11.575 -0.1623 -0.3741  0.6602
15645TIP3    H168350   0.257   0.370  11.558 -0.3891  0.0999  2.0769
15645TIP3    H268351   0.377   0.285  11.522 -0.9264  0.5935 -1.1927
15646TIP3   OH268352   6.427   5.186  14.715  0.0975  0.8835 -0.0190
15646TIP3    H168353   6.491   5.133  14.668  0.9057 -0.2237  2.2300
15646TIP3    H268354   6.480   5.248  14.766 -0.6125  0.2915  1.4723
15647TIP3   OH268355   4.921   0.132   5.419 -0.2240  0.6800 -0.0612
15647TIP3    H168356   4.956   0.048   5.446  0.1577  0.6322 -0.7050
15647TIP3    H268357   4.826   0.118   5.413 -0.4409  0.9028  2.0284
15648TIP3   OH268358   0.362   6.354  12.464  0.2336  0.2416 -0.3835
15648TIP3    H168359   0.312   6.435  12.449  0.9193  0.8876  0.6971
15648TIP3    H268360   0.401   6.334  12.379 -1.3349  0.0609 -1.0984
15649TIP3   OH268361   4.836   6.637   1.923  0.0916  0.4890  0.3462
15649TIP3    H168362   4.819   6.654   2.016 -1.4012 -1.0850  0.4051
15649TIP3    H268363   4.879   6.552   1.921 -0.5251  0.1828 -0.4389
15650TIP3   OH268364   1.136   3.721   0.468 -0.0080  0.6398  0.1803
15650TIP3    H168365   1.170   3.773   0.540  3.5451 -0.9874 -0.0923
15650TIP3    H268366   1.085   3.651   0.511  0.2637  0.9003  0.9459
15651TIP3   OH268367   3.899   2.179   5.038  0.5917  0.3861 -0.4919
15651TIP3    H168368   3.844   2.101   5.049  1.9550 -0.3083  2.1149
15651TIP3    H268369   3.845   2.251   5.071  0.5574  0.0204  0.2522
15652TIP3   OH268370   3.327   5.789   0.581 -0.6122 -0.5810  0.0712
15652TIP3    H168371   3.353   5.851   0.512  1.3275  2.1779  3.0222
15652TIP3    H268372   3.377   5.710   0.561  1.7059  0.9157 -0.5261
15653TIP3   OH268373   5.412   2.406  14.665  0.0398 -0.3450 -0.4857
15653TIP3    H168374   5.432   2.441  14.578 -0.6334  2.4197  0.3779
15653TIP3    H268375   5.439   2.475  14.725 -4.6141  0.3778  1.1668
15654TIP3   OH268376   4.033   1.095  14.166  0.0230  0.9405  1.1274
15654TIP3    H168377   3.979   1.047  14.102  0.1962  0.6917  1.1671
15654TIP3    H268378   4.013   1.187  14.149  1.0542  0.9650 -0.1963
15655TIP3   OH268379   3.792   0.498  14.433 -0.2910  0.0759  0.0229
15655TIP3    H168380   3.858   0.566  14.420  0.5499 -0.4806  1.2011
15655TIP3    H268381   3.782   0.457  14.347  0.3271  0.6727 -0.3404
15656TIP3   OH268382   3.863   0.533   0.249 -0.5228 -0.3003  0.4143
15656TIP3    H168383   3.824   0.614   0.216 -0.2564 -0.5731 -0.6028
15656TIP3    H268384   3.957   0.543   0.234 -0.6641 -1.6854 -1.8491
15657TIP3   OH268385   2.269   1.577  14.964  0.1325  0.4006  0.1590
15657TIP3    H168386   2.207   1.509  14.991  1.7589 -1.5907 -0.8865
15657TIP3    H268387   2.265   1.578  14.869  0.1349  1.8293  0.1478
15658TIP3   OH268388   6.099   2.056   3.957  0.2889 -0.5971 -0.1292
15658TIP3    H168389   6.129   1.986   3.899  0.4444 -0.7880  0.1767
15658TIP3    H268390   6.076   2.011   4.039 -2.7343 -0.7419 -0.9417
15659TIP3   OH268391   5.178   2.849   5.908 -0.3133  0.0555  0.5921
15659TIP3    H168392   5.089   2.882   5.923 -0.8748 -0.7590 -0.7889
15659TIP3    H268393   5.180   2.764   5.950 -0.3951 -0.1933  0.1025
15660TIP3   OH268394   4.449   4.073   4.005 -0.8890 -0.1855  0.0045
15660TIP3    H168395   4.518   4.015   4.037  0.1631  0.5556 -0.8422
15660TIP3    H268396   4.398   4.020   3.945 -0.1399 -0.3467 -0.5035
15661TIP3   OH268397   3.778   4.587   5.122 -0.2985 -0.7727  0.1915
15661TIP3    H168398   3.760   4.680   5.138  1.6632 -0.6440  2.1868
15661TIP3    H268399   3.703   4.556   5.071 -2.5313  1.2027  2.0240
15662TIP3   OH268400   3.042   4.506  15.818  0.0899 -0.1751  0.0895
15662TIP3    H168401   3.042   4.494  15.723  0.2616 -0.3255  0.1086
15662TIP3    H268402   2.995   4.430  15.852 -0.2397  0.0360  0.1065
15663TIP3   OH268403   2.267   0.684  13.046  0.4302  0.6525  0.0585
15663TIP3    H168404   2.187   0.664  13.094  0.1820  0.5578 -0.3879
15663TIP3    H268405   2.315   0.601  13.042  0.5439  0.7044  0.3062
15664TIP3   OH268406   0.612   4.969   3.962 -0.7049 -0.3460  0.2761
15664TIP3    H168407   0.655   4.987   3.879 -1.4456 -1.2222 -0.3138
15664TIP3    H268408   0.652   5.030   4.024  1.3580 -1.0904 -0.2541
15665TIP3   OH268409   3.662   2.969  11.667 -0.6097 -0.0159 -0.2422
15665TIP3    H168410   3.629   3.046  11.713  0.2165 -0.1979  0.6833
15665TIP3    H268411   3.694   3.003  11.583  0.0992  0.7262  0.3125
15666TIP3   OH268412   2.818   0.043   5.389 -0.5684  0.2021  0.1929
15666TIP3    H168413   2.864   0.123   5.362 -0.2730 -0.2255 -0.5860
15666TIP3    H268414   2.887  -0.013   5.424 -0.7347  0.1790  0.4807
15667TIP3   OH268415   4.609   1.667  16.381  0.4028 -0.2717  0.0964
15667TIP3    H168416   4.608   1.572  16.387 -1.3527 -0.3032 -0.2846
15667TIP3    H268417   4.624   1.686  16.289 -0.5362 -0.2118 -0.0521
15668TIP3   OH268418   4.619   4.364  14.385  0.4480  0.2787  0.7079
15668TIP3    H168419   4.610   4.314  14.304  0.9007 -1.0001  1.4007
15668TIP3    H268420   4.601   4.454  14.360 -1.2135 -0.3121 -0.4578
15669TIP3   OH268421   3.592   6.748  16.945 -0.2901  0.0732 -0.1046
15669TIP3    H168422   3.603   6.682  17.013  0.8041  0.3341 -0.0093
15669TIP3    H268423   3.681   6.776  16.924 -0.5371 -0.5440 -2.1849
15670TIP3   OH268424   0.512   1.538   5.325 -0.4329 -0.0941  0.3236
15670TIP3    H168425   0.477   1.473   5.264 -4.2170  1.1186  0.9586
15670TIP3    H268426   0.504   1.497   5.411 -1.5079  0.6635  0.5952
15671TIP3   OH268427   0.152   1.424   5.183 -0.2733  0.0587 -0.7512
15671TIP3    H168428   0.188   1.437   5.270 -3.1519  3.0503  0.2195
15671TIP3    H268429   0.226   1.438   5.124  0.9805  2.0263  1.1497
15672TIP3   OH268430   6.501   0.737   1.794  0.1696 -1.2011 -0.3494
15672TIP3    H168431   6.483   0.669   1.859 -1.0247 -0.6491 -0.0778
15672TIP3    H268432   6.473   0.699   1.711  0.5331 -1.4416 -0.3658
15673TIP3   OH268433   6.758   4.759  15.674  0.4933  0.3233  0.9222
15673TIP3    H168434   6.683   4.779  15.730  1.0410 -0.5026  1.9876
15673TIP3    H268435   6.739   4.671  15.640  0.3824  0.6330  0.1517
15674TIP3   OH268436   3.087   2.232   0.245 -0.6838  0.7116  0.5610
15674TIP3    H168437   3.123   2.248   0.157 -1.2213  3.2866  0.7299
15674TIP3    H268438   3.133   2.294   0.301  0.0596 -1.2938  2.2553
15675TIP3   OH268439   2.256   5.455  17.008 -0.2025 -0.2709 -0.0868
15675TIP3    H168440   2.307   5.521  17.055  0.0735 -1.0007  0.6551
15675TIP3    H268441   2.290   5.459  16.918  1.6560 -1.1988  0.5360
15676TIP3   OH268442   4.395   2.576   5.790  0.2739 -0.1999 -0.2899
15676TIP3    H168443   4.330   2.604   5.854 -1.2190 -0.6008 -1.5813
15676TIP3    H268444   4.476   2.618   5.819  0.3390 -2.3482  3.3203
15677TIP3   OH268445   0.814   3.754   0.037  0.0087  0.2849 -0.5703
15677TIP3    H168446   0.800   3.750   0.132  0.4507 -0.2667 -0.5292
15677TIP3    H268447   0.732   3.790   0.003 -0.7141 -0.8818 -0.1233
15678TIP3   OH268448   2.555   1.784  11.477 -0.3075 -0.7909  0.3648
15678TIP3    H168449   2.463   1.776  11.501 -0.3975 -1.3441 -0.1402
15678TIP3    H268450   2.587   1.858  11.528 -0.4567 -2.0260  2.3580
15679TIP3   OH268451   3.294   1.824  14.569 -0.2507  0.1354  0.4433
15679TIP3    H168452   3.316   1.916  14.584 -1.1045  0.4973 -0.4241
15679TIP3    H268453   3.336   1.803  14.486  0.4052 -0.4333  0.9092
15680TIP3   OH268454   4.288   6.237  16.142 -0.3958  0.5601 -0.0091
15680TIP3    H168455   4.223   6.274  16.202 -1.2043  1.1107 -1.1708
15680TIP3    H268456   4.242   6.165  16.100  0.0090  0.4607 -0.2797
15681TIP3   OH268457   0.598   0.181   4.492 -0.4383  0.0943 -0.1327
15681TIP3    H168458   0.504   0.201   4.496 -0.9270 -1.3701 -2.1957
15681TIP3    H268459   0.605   0.096   4.534  0.0316  0.3752  0.3532
15682TIP3   OH268460   2.070   2.729   2.514 -0.4725  0.1089  0.0694
15682TIP3    H168461   2.043   2.644   2.481 -0.6023  0.3572 -0.4783
15682TIP3    H268462   2.157   2.715   2.551 -1.4014 -0.7577  2.0534
15683TIP3   OH268463   5.791   1.405  14.051  0.4327  0.2554  0.7025
15683TIP3    H168464   5.699   1.383  14.034  0.4176  0.4394  0.5416
15683TIP3    H268465   5.839   1.325  14.028  0.3951  0.4320 -0.0287
15684TIP3   OH268466   4.159   6.497  12.537 -0.0341  0.3328 -0.0398
15684TIP3    H168467   4.102   6.539  12.473 -2.2230 -1.4554  0.5811
15684TIP3    H268468   4.157   6.404  12.513 -0.8206 -0.3821  2.4453
15685TIP3   OH268469   2.744   1.310  13.555 -0.3524  0.3375 -0.8678
15685TIP3    H168470   2.703   1.396  13.560 -0.2115  0.4548 -1.5464
15685TIP3    H268471   2.761   1.286  13.646 -2.2922  0.0977 -0.5314
15686TIP3   OH268472   0.624   2.040   5.908 -0.9487 -0.5662  0.1234
15686TIP3    H168473   0.705   2.079   5.875 -2.5224  1.5567 -1.5208
15686TIP3    H268474   0.651   1.956   5.944  1.9594  0.0254 -0.3983
15687TIP3   OH268475   6.417   0.934  12.215 -0.1160 -0.0624 -0.7005
15687TIP3    H168476   6.435   0.981  12.134  0.6012 -3.6491 -2.8752
15687TIP3    H268477   6.394   0.846  12.187 -0.1330 -1.4546  3.0294
15688TIP3   OH268478   4.381   4.945  17.017  0.4346 -0.5745 -0.5251
15688TIP3    H168479   4.391   4.897  17.099  2.4390 -0.5977 -0.7450
15688TIP3    H268480   4.458   4.922  16.966 -1.1923 -1.3027 -2.8297
15689TIP3   OH268481   3.693   5.712   0.429 -0.1333 -0.8706 -0.1846
15689TIP3    H168482   3.758   5.762   0.480 -1.1351 -0.1211  0.4077
15689TIP3    H268483   3.659   5.647   0.491  0.2000 -1.4069 -0.5571
15690TIP3   OH268484   3.710   2.289  16.791 -0.2976 -0.4521  0.0499
15690TIP3    H168485   3.651   2.276  16.716 -0.2245 -1.4408  0.1520
15690TIP3    H268486   3.737   2.381  16.784 -0.7528 -0.3675 -0.7986
15691TIP3   OH268487   6.517   6.113   2.923 -0.8929  0.0295 -0.1626
15691TIP3    H168488   6.464   6.105   3.002  0.4190 -2.3905  0.5816
15691TIP3    H268489   6.572   6.190   2.938  0.0601 -0.9853  1.7741
15692TIP3   OH268490   4.013   6.600   3.373 -0.1317 -0.1273 -0.3915
15692TIP3    H168491   4.003   6.568   3.462 -0.6851 -2.9424 -1.3496
15692TIP3    H268492   4.106   6.617   3.364 -0.0388 -0.0321  0.6583
15693TIP3   OH268493   3.217   6.391   0.446  0.1605 -0.6699  0.0200
15693TIP3    H168494   3.167   6.428   0.519  1.4270 -1.7438  1.4827
15693TIP3    H268495   3.206   6.455   0.375 -1.2114  0.3383  1.0752
15694TIP3   OH268496   4.804   1.886   4.834  0.3169  0.0771 -0.1317
15694TIP3    H168497   4.717   1.923   4.848 -0.0528 -0.5003 -0.7890
15694TIP3    H268498   4.851   1.900   4.916 -0.1017  1.1872 -0.0740
15695TIP3   OH268499   0.143   4.746   5.798  0.1192  0.2696  0.1113
15695TIP3    H168500   0.171   4.757   5.889  0.6133  3.4196 -0.3140
15695TIP3    H268501   0.226   4.740   5.749 -0.1450 -1.1399 -0.2303
15696TIP3   OH268502   5.528   3.504  10.200  0.1674 -0.2336 -0.0811
15696TIP3    H168503   5.553   3.502  10.292  0.7390  1.4650 -0.1680
15696TIP3    H268504   5.450   3.560  10.197  1.4010  1.5206 -0.8626
15697TIP3   OH268505   2.867   3.760   2.372  0.1719  1.0570 -0.3208
15697TIP3    H168506   2.948   3.730   2.412 -1.7565 -1.0149  2.3520
15697TIP3    H268507   2.830   3.822   2.435 -1.9112 -0.6336  0.2213
15698TIP3   OH268508   4.651   3.853   5.785  0.0710 -0.4075 -0.3111
15698TIP3    H168509   4.617   3.927   5.734 -0.3445 -0.4464 -0.0955
15698TIP3    H268510   4.716   3.892   5.844  0.2767 -0.3046 -0.6012
15699TIP3   OH268511   0.327   4.197   3.087  0.5322 -0.3600  0.5540
15699TIP3    H168512   0.397   4.149   3.043 -0.2210 -0.8974 -0.0925
15699TIP3    H268513   0.259   4.131   3.102 -0.9643  0.6431 -1.3068
15700TIP3   OH268514   2.108   1.814  15.007  0.5867 -0.0190 -0.3898
15700TIP3    H168515   2.172   1.744  14.994 -1.9839 -2.0758 -3.5297
15700TIP3    H268516   2.023   1.771  14.998 -1.4117  2.6814  2.8408
15701TIP3   OH268517   5.739   6.276  11.526 -0.1594  0.2329 -0.0131
15701TIP3    H168518   5.687   6.196  11.515  1.1289 -0.5432 -0.7504
15701TIP3    H268519   5.830   6.246  11.517  0.3285  1.8676 -0.8305
15702TIP3   OH268520   3.553   2.582   4.633 -0.1305 -0.6478  0.1135
15702TIP3    H168521   3.507   2.563   4.715 -1.3507  2.5422  0.2868
15702TIP3    H268522   3.633   2.628   4.661  1.6567 -3.2040 -0.3817
15703TIP3   OH268523   2.432   0.721   1.009  0.4076 -0.0641 -0.2762
15703TIP3    H168524   2.507   0.669   0.980  0.5787  0.4845 -0.8354
15703TIP3    H268525   2.448   0.737   1.102  0.2642 -1.1496 -0.0501
15704TIP3   OH268526   3.264   4.807   5.313  0.6622 -0.5624 -0.3697
15704TIP3    H168527   3.331   4.862   5.271  1.3486 -0.9004  0.2527
15704TIP3    H268528   3.310   4.725   5.332  0.3952 -0.3818  1.1276
15705TIP3   OH268529   6.054   3.326  12.824  0.6438 -0.4030  0.4943
15705TIP3    H168530   6.081   3.307  12.735 -0.9443  0.2791 -0.1797
15705TIP3    H268531   6.078   3.248  12.874 -1.5322 -2.3453 -1.2408
15706TIP3   OH268532   0.755   5.201   4.026  0.2645 -0.5811 -0.0442
15706TIP3    H168533   0.848   5.210   4.007  0.3128 -1.6574 -0.3686
15706TIP3    H268534   0.741   5.256   4.104  1.0301  0.0889 -0.3732
15707TIP3   OH268535   3.597   1.360  12.704  0.0687 -0.0867  0.4156
15707TIP3    H168536   3.540   1.388  12.776  1.4879  1.1948  1.0899
15707TIP3    H268537   3.588   1.429  12.638 -0.8695 -1.0273 -0.4899
15708TIP3   OH268538   3.597   2.798  15.098 -0.0709 -0.2886  0.1048
15708TIP3    H168539   3.609   2.724  15.157 -2.3277 -0.8833 -0.0717
15708TIP3    H268540   3.526   2.848  15.137 -0.7756 -0.0158 -1.4369
15709TIP3   OH268541   1.557   0.308   5.255 -1.0064  0.2174 -0.4501
15709TIP3    H168542   1.499   0.361   5.199  0.9151  2.0316 -0.8516
15709TIP3    H268543   1.587   0.369   5.323  1.2108 -0.3284 -0.8551
15710TIP3   OH268544   2.168   2.633   2.250  0.6748  0.5084 -1.0190
15710TIP3    H168545   2.230   2.697   2.285 -0.1996 -0.0921  1.9933
15710TIP3    H268546   2.082   2.673   2.265 -0.0098 -1.7769  2.5091
15711TIP3   OH268547   6.739   5.858   2.734 -0.1132 -0.4671 -0.1921
15711TIP3    H168548   6.809   5.793   2.740 -1.2313 -1.6439  0.7234
15711TIP3    H268549   6.772   5.934   2.782 -0.4729 -1.9981  2.6405
15712TIP3   OH268550   2.684   6.288   6.818 -0.5003  0.3321  0.4104
15712TIP3    H168551   2.700   6.236   6.897 -0.0249 -0.0246  0.0838
15712TIP3    H268552   2.767   6.333   6.802 -0.4402  0.0390 -0.1475
15713TIP3   OH268553   4.133   1.645   5.538 -0.5904  0.2055  0.3013
15713TIP3    H168554   4.087   1.581   5.483  0.3016  0.8018 -1.1953
15713TIP3    H268555   4.225   1.638   5.511 -0.4783  2.1029  0.0798
15714TIP3   OH268556   5.196   4.024   1.624 -0.0599 -0.3322  0.2509
15714TIP3    H168557   5.175   4.107   1.667 -0.9805 -0.3325 -0.1881
15714TIP3    H268558   5.112   3.992   1.591  0.0915 -1.9698  1.3409
15715TIP3   OH268559   0.288   1.493   1.896 -0.5497  0.2982  0.2702
15715TIP3    H168560   0.316   1.510   1.986  2.3883  0.3596 -0.5581
15715TIP3    H268561   0.193   1.503   1.898 -0.4056  2.1033  2.9622
15716TIP3   OH268562   4.551   4.503   0.086 -0.7419 -0.6031  0.7642
15716TIP3    H168563   4.580   4.492  -0.004 -0.9475  1.6120  0.3935
15716TIP3    H268564   4.586   4.426   0.131 -1.8663 -2.5263 -1.4495
15717TIP3   OH268565   1.727   3.081   0.554 -0.7017 -0.4549  0.1511
15717TIP3    H168566   1.748   2.990   0.534 -1.8256 -0.4793 -1.0168
15717TIP3    H268567   1.644   3.076   0.603  1.1160 -0.2800  3.5308
15718TIP3   OH268568   3.777   1.520  13.156  0.0741 -0.3515 -0.0240
15718TIP3    H168569   3.801   1.548  13.067  0.6104 -0.7120  0.0066
15718TIP3    H268570   3.766   1.602  13.204  1.4861 -0.1674  0.0202
15719TIP3   OH268571   2.043   0.972  14.466  0.1102 -0.1180 -0.5841
15719TIP3    H168572   1.998   1.045  14.508 -0.6464 -0.4228 -0.8428
15719TIP3    H268573   2.135   0.986  14.486 -0.0743  0.6364 -0.2164
15720TIP3   OH268574   0.742   0.102   4.841 -0.4736 -0.3504  0.4177
15720TIP3    H168575   0.829   0.142   4.855 -0.7996 -0.3044  2.7976
15720TIP3    H268576   0.759   0.026   4.785  0.9930  0.0846  0.2305
15721TIP3   OH268577   2.809   3.814  10.724 -0.1985  0.5263 -0.6303
15721TIP3    H168578   2.867   3.781  10.655  0.4355 -0.5555  0.3971
15721TIP3    H268579   2.757   3.739  10.750  1.5600  0.1063  2.0498
15722TIP3   OH268580   5.966   5.980   4.609  0.2118  0.4308 -0.4480
15722TIP3    H168581   5.876   5.995   4.580  0.4150  2.7313 -0.0948
15722TIP3    H268582   6.016   5.972   4.528 -0.2278 -0.4582 -0.6456
15723TIP3   OH268583   6.740   2.455   5.612  0.0434 -0.5923 -0.2456
15723TIP3    H168584   6.743   2.550   5.603 -1.2828 -0.6423 -1.5634
15723TIP3    H268585   6.761   2.439   5.704 -1.9170  1.1326  0.5782
15724TIP3   OH268586   2.037   0.283   5.284 -0.2273  0.1567 -0.3603
15724TIP3    H168587   2.121   0.271   5.328 -0.2715 -0.1370 -0.3544
15724TIP3    H268588   2.031   0.378   5.270  0.7583  0.0710 -1.6364
15725TIP3   OH268589   6.335   3.475   1.223  0.5734 -0.1497 -0.7319
15725TIP3    H168590   6.255   3.423   1.238  0.2787  0.2884 -0.7623
15725TIP3    H268591   6.321   3.518   1.139  1.0974 -0.5242 -1.0167
15726TIP3   OH268592   0.719   6.638   3.360 -0.1863  0.2819  0.6717
15726TIP3    H168593   0.673   6.714   3.395  0.7490  0.7881  0.8412
15726TIP3    H268594   0.779   6.612   3.430  1.3997  1.0367 -0.3568
15727TIP3   OH268595   4.909   6.339  14.791 -0.1158  0.4243  0.2877
15727TIP3    H168596   4.932   6.362  14.701 -0.2148 -0.0827  0.1343
15727TIP3    H268597   4.815   6.357  14.796  0.1131  1.6062  0.6471
15728TIP3   OH268598   6.139   0.529   4.959  0.2723 -0.1236  0.5097
15728TIP3    H168599   6.095   0.448   4.934  2.2285 -0.0779 -4.0503
15728TIP3    H268600   6.106   0.594   4.898  2.7729  1.1189  0.3409
15729TIP3   OH268601   1.911   0.568   6.451  0.1272  0.4209 -0.6074
15729TIP3    H168602   1.952   0.585   6.366  1.2799  0.5699 -0.0384
15729TIP3    H268603   1.872   0.482   6.442 -0.8929  0.9660 -1.7039
15730TIP3   OH268604   1.762   5.958   2.770  0.3884  0.5289 -0.0325
15730TIP3    H168605   1.733   5.881   2.720 -1.0104  0.8627  0.2241
15730TIP3    H268606   1.825   6.002   2.712  0.0781 -0.0020 -0.7881
15731TIP3   OH268607   5.663   1.838  16.020 -0.2053  0.2384  0.2700
15731TIP3    H168608   5.580   1.867  15.982  0.3240  0.2344 -0.9517
15731TIP3    H268609   5.703   1.917  16.055 -0.9861  0.1418  1.4261
15732TIP3   OH268610   6.764   6.134  13.951 -0.8678 -0.1652  0.2158
15732TIP3    H168611   6.735   6.126  13.861 -1.7605  0.7751  0.3935
15732TIP3    H268612   6.694   6.183  13.994 -0.7393 -1.0952  1.5582
15733TIP3   OH268613   2.296   3.096   0.097  0.5713  0.4442 -0.4492
15733TIP3    H168614   2.217   3.141   0.068  1.0420  0.4824 -1.7506
15733TIP3    H268615   2.275   3.003   0.092  0.3811  0.4705 -0.1190
15734TIP3   OH268616   0.367   1.956  14.496 -0.1430 -0.2768 -0.7588
15734TIP3    H168617   0.278   1.937  14.465  0.1845 -2.1520 -0.6782
15734TIP3    H268618   0.420   1.961  14.416 -0.2426  0.4915 -0.7858
15735TIP3   OH268619   0.504   0.845  11.428 -0.0581 -0.0296 -0.4769
15735TIP3    H168620   0.567   0.802  11.371  0.0690  1.0279 -1.1600
15735TIP3    H268621   0.516   0.939  11.412 -1.3563  0.2226 -0.1510
15736TIP3   OH268622   4.092   3.178  13.288 -0.0145 -0.4550 -0.4883
15736TIP3    H168623   4.063   3.162  13.378  0.5943 -1.7984 -0.5152
15736TIP3    H268624   4.013   3.201  13.241 -0.8108 -2.5186 -0.2277
15737TIP3   OH268625   3.841   6.302   6.010 -0.3870  0.1608 -0.6340
15737TIP3    H168626   3.816   6.386   6.046 -1.1865 -0.1916 -0.3376
15737TIP3    H268627   3.760   6.250   6.011  0.3767 -1.0571  0.4257
15738TIP3   OH268628   2.032   5.851   2.874 -0.1475 -0.3613 -0.8476
15738TIP3    H168629   1.967   5.897   2.927 -0.0548 -0.2683 -0.8161
15738TIP3    H268630   2.031   5.761   2.907 -0.8404 -0.5622 -1.3734
15739TIP3   OH268631   2.285   1.199  16.606  0.3008 -0.4476  0.0479
15739TIP3    H168632   2.311   1.289  16.586  0.8279 -0.6038  0.0198
15739TIP3    H268633   2.350   1.168  16.669  0.7089 -1.1450 -0.7040
15740TIP3   OH268634   0.083   5.240   1.316 -0.5495  0.2767  0.3601
15740TIP3    H168635   0.153   5.287   1.361 -0.9028  1.7582 -0.5696
15740TIP3    H268636   0.124   5.207   1.236 -1.1772  2.4004 -0.9222
15741TIP3   OH268637   0.798   1.796  12.532  0.1138  0.8532  0.0274
15741TIP3    H168638   0.894   1.790  12.532  0.0961  0.5523  0.3644
15741TIP3    H268639   0.775   1.811  12.624 -0.1297  1.5003 -0.1346
15742TIP3   OH268640   2.478   4.523  12.248 -0.3389 -0.2329  0.0287
15742TIP3    H168641   2.517   4.610  12.246  0.8034 -0.7137  0.6662
15742TIP3    H268642   2.552   4.463  12.236 -0.7865 -1.1877  1.7695
15743TIP3   OH268643   6.007   1.120   1.387 -0.7802  0.1327 -0.0583
15743TIP3    H168644   6.046   1.047   1.339  2.1078  2.1683 -1.0768
15743TIP3    H268645   5.924   1.137   1.342 -0.8108 -1.5707 -0.6988
15744TIP3   OH268646   0.067   5.692   3.436 -0.7464 -0.1073 -0.1030
15744TIP3    H168647   0.070   5.617   3.377  0.0154 -0.2587  0.1180
15744TIP3    H268648   0.086   5.656   3.522  2.4016  0.6779 -0.3516
15745TIP3   OH268649   0.051   0.574   3.395  0.1025  0.0020 -0.1094
15745TIP3    H168650   0.041   0.667   3.419 -0.1656 -0.1379  0.3434
15745TIP3    H268651  -0.039   0.544   3.378  0.1522 -0.2583  0.0790
15746TIP3   OH268652   4.106   2.318  11.367 -0.0009 -0.0678  0.8462
15746TIP3    H168653   4.123   2.378  11.294  1.0883 -0.6647  0.5893
15746TIP3    H268654   4.012   2.302  11.362  0.0695 -0.2464 -0.5730
15747TIP3   OH268655   1.817   3.929  17.054  0.1968 -0.6382  0.6067
15747TIP3    H168656   1.886   3.864  17.043 -0.0677 -0.5634 -2.2474
15747TIP3    H268657   1.862   4.008  17.084  0.9072 -1.3650  1.5121
15748TIP3   OH268658   1.536   5.124   5.546  0.4756 -0.0973 -0.2917
15748TIP3    H168659   1.613   5.068   5.554 -0.1080 -0.7180  1.3669
15748TIP3    H268660   1.518   5.154   5.635 -0.6973  0.7376 -0.7742
15749TIP3   OH268661   3.569   4.465   4.967 -0.4676 -0.0797  0.3917
15749TIP3    H168662   3.608   4.509   4.892 -0.1380 -1.0631 -0.0246
15749TIP3    H268663   3.498   4.413   4.930 -0.7250 -0.0652  0.8504
15750TIP3   OH268664   4.875   6.386   1.064  0.0560 -0.1466  0.1864
15750TIP3    H168665   4.954   6.389   1.117  0.8830 -0.3639 -0.9934
15750TIP3    H268666   4.831   6.470   1.081  1.4545  0.7515 -0.4796
15751TIP3   OH268667   5.680   6.074  12.825  0.2721  0.2977  0.6696
15751TIP3    H168668   5.661   5.983  12.801  2.7981  0.0540 -0.7817
15751TIP3    H268669   5.609   6.125  12.786  0.9331 -0.7308 -2.1061
15752TIP3   OH268670   5.098   4.390  16.161  0.0882 -0.4086 -0.4827
15752TIP3    H168671   5.192   4.407  16.155 -0.0621  0.3877 -0.6903
15752TIP3    H268672   5.087   4.303  16.122  0.4498  0.4705 -2.7027
15753TIP3   OH268673   2.538   0.988  12.541  0.0361  0.4316 -0.6141
15753TIP3    H168674   2.524   0.969  12.448 -1.0504 -4.2974  0.2621
15753TIP3    H268675   2.625   0.953  12.559 -0.7765 -1.0941  0.5664
15754TIP3   OH268676   0.367   3.777  14.312 -0.2930  0.1121 -0.2422
15754TIP3    H168677   0.323   3.768  14.228 -0.0507  1.9730 -0.6100
15754TIP3    H268678   0.431   3.707  14.313 -1.5908 -1.1296 -0.7481
15755TIP3   OH268679   4.755   4.816  16.624 -0.6259  0.4219  0.1224
15755TIP3    H168680   4.773   4.898  16.670  0.6865  1.6298 -2.3419
15755TIP3    H268681   4.841   4.777  16.611 -1.2489 -1.5599  1.4960
15756TIP3   OH268682   2.226   6.291  12.713 -0.5554 -0.1677 -0.2458
15756TIP3    H168683   2.179   6.296  12.796 -1.3741  0.8822 -0.7431
15756TIP3    H268684   2.169   6.238  12.657  0.7969 -2.3654  0.3254
15757TIP3   OH268685   4.061   5.666   1.639 -0.1474  0.2393 -0.1031
15757TIP3    H168686   4.043   5.748   1.593 -0.3129 -0.3036 -1.0387
15757TIP3    H268687   3.992   5.660   1.705  0.8121  1.6335  1.0808
15758TIP3   OH268688   0.488   2.107   2.552  0.5349  0.0722  0.4747
15758TIP3    H168689   0.542   2.161   2.610  0.6461  0.9768 -0.4484
15758TIP3    H268690   0.530   2.113   2.467  0.0733 -0.8093  0.1698
15759TIP3   OH268691   2.167   0.159   2.717 -0.0724 -0.4201 -0.6772
15759TIP3    H168692   2.133   0.088   2.772  0.3759  0.0379  0.1946
15759TIP3    H268693   2.199   0.114   2.638  0.4186 -1.2252 -0.0355
15760TIP3   OH268694   3.166   5.864   5.566 -0.6080  0.0823 -0.6720
15760TIP3    H168695   3.258   5.863   5.539 -0.0064 -2.0843  1.1028
15760TIP3    H268696   3.121   5.814   5.497 -0.3027  0.3182 -1.0501
15761TIP3   OH268697   4.279   2.548  15.907 -0.4556 -0.1363  0.0674
15761TIP3    H168698   4.210   2.600  15.866 -0.2439 -0.4287 -0.6701
15761TIP3    H268699   4.355   2.560  15.852  0.0701  0.1053  0.8296
15762TIP3   OH268700   5.867   0.243  11.614  0.3827 -0.6305 -0.2880
15762TIP3    H168701   5.954   0.284  11.614  0.0670  0.3044 -3.2216
15762TIP3    H268702   5.880   0.160  11.567 -0.2252 -0.7281 -0.2899
15763TIP3   OH268703   1.418   5.988  13.333  0.5821  0.0996 -0.3844
15763TIP3    H168704   1.371   6.046  13.393  0.2799 -2.3725  1.9758
15763TIP3    H268705   1.350   5.940  13.287  0.8245  0.3348 -0.9964
15764TIP3   OH268706   5.927   1.531  13.866  0.3751 -0.0564  0.4253
15764TIP3    H168707   5.876   1.471  13.921 -0.2486  0.4665  0.4328
15764TIP3    H268708   5.990   1.571  13.926 -0.0666  0.2480  0.6948
15765TIP3   OH268709   3.978   4.497  15.921  0.8938  0.9303  0.1391
15765TIP3    H168710   4.023   4.514  16.003  0.8685  0.2377  0.3083
15765TIP3    H268711   4.034   4.433  15.876 -0.3915 -0.7665  0.8168
15766TIP3   OH268712   0.137   6.672   0.616  0.2493 -0.1542 -0.4390
15766TIP3    H168713   0.137   6.700   0.707  1.0800 -0.6942 -0.2600
15766TIP3    H268714   0.067   6.723   0.575  0.9095  1.2827  0.1446
15767TIP3   OH268715   3.134   6.368  13.179 -0.0960  0.4231  0.3243
15767TIP3    H168716   3.202   6.388  13.114 -0.3457 -1.0404 -0.4308
15767TIP3    H268717   3.066   6.433  13.163  0.9360  1.6882  0.8550
15768TIP3   OH268718   5.436   2.413  16.489  0.6127  0.0117 -0.1405
15768TIP3    H168719   5.503   2.470  16.527  1.0395 -0.4851 -0.1229
15768TIP3    H268720   5.469   2.324  16.506  0.5841 -0.2256 -1.2777
15769TIP3   OH268721   1.221   5.505  16.121  0.0402 -0.0927  0.2529
15769TIP3    H168722   1.185   5.424  16.156 -0.0066  0.2507  1.0096
15769TIP3    H268723   1.182   5.512  16.034 -1.5135  0.1188  0.9282
15770TIP3   OH268724   2.493   6.341  10.410  0.2994 -0.1341 -0.3989
15770TIP3    H168725   2.443   6.423  10.403 -0.4400 -0.6881 -2.1197
15770TIP3    H268726   2.562   6.361  10.473 -0.5146  1.4727  0.0620
15771TIP3   OH268727   5.646   6.782  11.661 -0.2100 -0.1993 -0.1761
15771TIP3    H168728   5.593   6.815  11.588  0.3184  0.1967 -0.3886
15771TIP3    H268729   5.636   6.847  11.730  1.8186  1.1088 -1.0305
15772TIP3   OH268730   4.765   5.252  12.880 -0.0574 -0.2658  0.5093
15772TIP3    H168731   4.821   5.272  12.806 -0.4466  0.6096  0.4364
15772TIP3    H268732   4.697   5.194  12.845 -0.6218  0.6685  0.0119
15773TIP3   OH268733   1.975   5.347   2.181  0.4410  0.3587  0.1521
15773TIP3    H168734   1.907   5.283   2.202 -0.6937  1.0813 -1.1174
15773TIP3    H268735   1.978   5.405   2.257 -0.9800  0.8005 -0.1026
15774TIP3   OH268736   4.866   5.621  16.988 -0.3079  0.0008 -0.2665
15774TIP3    H168737   4.922   5.663  17.053 -2.0892  0.3834  1.1064
15774TIP3    H268738   4.901   5.532  16.981  0.2820  0.1260  0.7950
15775TIP3   OH268739   1.311   6.505  14.853  0.4834  0.4343 -0.1617
15775TIP3    H168740   1.313   6.464  14.767 -0.7241  1.8693 -0.9272
15775TIP3    H268741   1.400   6.494  14.888  1.0057 -0.1077 -1.6253
15776TIP3   OH268742   5.332   5.806  13.177 -0.3610 -0.1418  0.2702
15776TIP3    H168743   5.273   5.730  13.174  0.0170 -0.4085 -0.8543
15776TIP3    H268744   5.416   5.770  13.205  0.1277 -0.3856 -1.3743
15777TIP3   OH268745   2.088   5.380  16.487 -0.7509  0.4770  0.0708
15777TIP3    H168746   2.122   5.305  16.437  0.2669  0.0510  1.3336
15777TIP3    H268747   2.128   5.456  16.444 -0.5228  0.1805 -0.2564
15778TIP3   OH268748   3.104   3.747   0.483 -0.5890 -0.1485  0.0506
15778TIP3    H168749   3.040   3.794   0.430 -0.4852  0.4727  0.4687
15778TIP3    H268750   3.053   3.678   0.526 -0.7648 -0.3444 -0.4638
15779TIP3   OH268751   6.154   6.106   5.245 -0.1664  0.2093  0.6620
15779TIP3    H168752   6.144   6.131   5.153  1.4816  1.6768  0.8357
15779TIP3    H268753   6.093   6.034   5.257 -1.2787  0.7663 -1.2781
15780TIP3   OH268754   3.155   2.643   0.207  0.0160  0.4813 -0.1114
15780TIP3    H168755   3.196   2.565   0.245  1.4225  0.4664 -1.5191
15780TIP3    H268756   3.100   2.610   0.136  2.9934  0.7667 -2.8177
15781TIP3   OH268757   1.604   5.464   3.227 -0.5361  0.1664  0.8463
15781TIP3    H168758   1.694   5.430   3.220 -0.3167  0.9939 -0.7929
15781TIP3    H268759   1.604   5.515   3.308  0.4253 -0.0004  0.9623
15782TIP3   OH268760   5.062   3.288   4.935 -0.7630 -0.2463  0.2359
15782TIP3    H168761   5.134   3.332   4.979 -0.1934  0.8474 -1.6897
15782TIP3    H268762   5.005   3.358   4.904 -1.6640 -1.0111  0.1019
15783TIP3   OH268763   3.071   4.255   5.255 -0.3107  0.1260  0.0597
15783TIP3    H168764   3.043   4.289   5.341  0.9388 -0.1766  0.5980
15783TIP3    H268765   3.110   4.330   5.211  0.1609 -0.0037  0.2502
15784TIP3   OH268766   1.754   4.992  11.333  0.5511  0.1143  0.0479
15784TIP3    H168767   1.732   5.035  11.416  1.2909  0.5569  0.0264
15784TIP3    H268768   1.784   4.905  11.358 -0.6791 -0.3069  0.1164
15785TIP3   OH268769   1.505   4.894   6.678  0.2200  0.4728  0.0205
15785TIP3    H168770   1.416   4.872   6.706 -0.4829  0.0573 -2.3560
15785TIP3    H268771   1.492   4.956   6.606  1.8694  0.5279 -0.2460
15786TIP3   OH268772   0.788   1.570  16.955 -0.2844  0.3031  0.2893
15786TIP3    H168773   0.769   1.664  16.951 -0.8867  0.1357 -1.3174
15786TIP3    H268774   0.883   1.565  16.959 -0.0374  0.9789 -2.5085
15787TIP3   OH268775   6.253   5.791   2.084 -0.0704  0.8801 -0.0254
15787TIP3    H168776   6.219   5.811   1.996  0.3949  0.4280 -0.3144
15787TIP3    H268777   6.273   5.697   2.080  0.2536  0.9284  0.4700
15788TIP3   OH268778   1.635   2.988   4.714  0.2845  0.7010  0.3427
15788TIP3    H168779   1.647   2.897   4.741  1.6659  0.9009  0.4969
15788TIP3    H268780   1.582   3.027   4.784 -0.4112 -0.0020  0.2203
15789TIP3   OH268781   4.220   2.680  12.674 -0.7807 -0.2315 -0.6746
15789TIP3    H168782   4.148   2.618  12.686 -2.0629  1.1833 -0.7316
15789TIP3    H268783   4.279   2.663  12.747 -2.0895 -0.2262  0.4203
15790TIP3   OH268784   4.994   4.251   6.093 -0.6145  0.0593  0.0201
15790TIP3    H168785   4.975   4.162   6.121  0.6786  0.1913  1.4356
15790TIP3    H268786   5.067   4.242   6.032 -2.1866 -0.0425 -1.9674
15791TIP3   OH268787   3.282   0.172  10.991 -0.7391  0.0761 -0.5364
15791TIP3    H168788   3.229   0.250  10.977 -2.9147 -1.2337  0.0107
15791TIP3    H268789   3.229   0.099  10.958  1.0932 -1.2380 -0.7774
15792TIP3   OH268790   3.733   6.476  11.447  0.1488  0.3361  0.3814
15792TIP3    H168791   3.662   6.540  11.448  0.1600  0.3679 -0.3117
15792TIP3    H268792   3.764   6.477  11.357  0.8852  0.1626  0.6258
15793TIP3   OH268793   0.106   6.139  13.589 -0.1099 -0.3213  0.2716
15793TIP3    H168794   0.069   6.208  13.644  0.1619 -1.5694  2.1174
15793TIP3    H268795   0.152   6.081  13.651  1.6395 -0.9093 -1.4809
15794TIP3   OH268796   1.017   5.377   1.025  0.5823 -0.2560 -0.0789
15794TIP3    H168797   1.050   5.287   1.033  0.4341 -0.5406 -2.2141
15794TIP3    H268798   0.923   5.368   1.011  0.8591  0.0203 -2.6592
15795TIP3   OH268799   0.681   1.807   6.039  0.9167  0.2472  0.4459
15795TIP3    H168800   0.722   1.728   6.075  1.2079 -0.1782 -0.7437
15795TIP3    H268801   0.614   1.831   6.103  0.4689 -1.2777  0.6004
15796TIP3   OH268802   2.163   1.639   4.926 -0.6760 -0.1821 -0.6717
15796TIP3    H168803   2.177   1.658   5.019 -0.2397 -0.3607 -0.6978
15796TIP3    H268804   2.223   1.698   4.880 -1.4625  0.4754 -0.8807
15797TIP3   OH268805   6.120   1.047   3.408  0.0536 -0.0986 -0.7141
15797TIP3    H168806   6.146   1.067   3.498  1.4529  1.7601 -1.4366
15797TIP3    H268807   6.164   0.965   3.387 -0.4295 -0.6311  0.3487
15798TIP3   OH268808   6.805   6.255   0.062  0.0773  1.1823  0.2838
15798TIP3    H168809   6.742   6.305   0.113 -0.0419  0.2846  1.0260
15798TIP3    H268810   6.782   6.274  -0.029 -0.8572  1.3694  0.5487
15799TIP3   OH268811   1.173   1.700   2.609  0.0652 -0.4459  0.6321
15799TIP3    H168812   1.238   1.629   2.614  0.1153 -0.3671  1.1683
15799TIP3    H268813   1.138   1.707   2.698  0.2926  0.4197  0.6645
15800TIP3   OH268814   2.779   3.197  15.496 -0.0560  0.3243 -0.9128
15800TIP3    H168815   2.774   3.166  15.587  1.0428 -0.0104 -0.9436
15800TIP3    H268816   2.802   3.290  15.504 -0.0092  0.3073 -0.8483
15801TIP3   OH268817   6.403   4.705  16.828  0.0936  0.4681 -0.3014
15801TIP3    H168818   6.445   4.768  16.886 -2.2924  0.3626  1.7442
15801TIP3    H268819   6.342   4.757  16.776 -0.7502  0.0934  0.2788
15802TIP3   OH268820   4.181   6.752   3.098 -0.2539  1.0908  0.1545
15802TIP3    H168821   4.113   6.689   3.120  0.8081  0.3779  1.6430
15802TIP3    H268822   4.220   6.775   3.183  0.9057  1.9820 -0.5861
15803TIP3   OH268823   6.578   3.444   4.379  0.0285  0.3595  0.1568
15803TIP3    H168824   6.562   3.532   4.344 -1.3912  0.3762  0.7658
15803TIP3    H268825   6.673   3.441   4.393  0.1276  1.7267 -0.0385
15804TIP3   OH268826   0.769   3.429  14.621 -0.0194 -0.5814  0.0887
15804TIP3    H168827   0.725   3.501  14.667 -1.0428 -1.2447  0.1829
15804TIP3    H268828   0.738   3.350  14.666  1.6413 -1.0577  0.4584
15805TIP3   OH268829   6.761   4.550  14.361 -0.3725  0.2335  0.6171
15805TIP3    H168830   6.789   4.586  14.445 -0.3653  0.3325  0.5719
15805TIP3    H268831   6.715   4.622  14.318  2.5835  1.3656 -0.9383
15806TIP3   OH268832   4.162   5.185   2.962 -0.2480 -0.4555 -0.0030
15806TIP3    H168833   4.102   5.208   3.033  0.8248  2.9332 -0.0372
15806TIP3    H268834   4.225   5.125   3.002  0.2437  1.2586  1.9085
15807TIP3   OH268835   2.408   0.148  14.849 -0.5170 -0.7042 -0.8293
15807TIP3    H168836   2.329   0.192  14.817 -0.0702  1.3606  0.6948
15807TIP3    H268837   2.480   0.198  14.811  0.0407 -1.1947 -0.4369
15808TIP3   OH268838   1.061   3.720   2.253  0.2264  0.3229 -1.2645
15808TIP3    H168839   0.996   3.735   2.321  0.5450  2.0522 -1.2988
15808TIP3    H268840   1.054   3.627   2.233 -0.3127 -0.0871  0.6704
15809TIP3   OH268841   4.374   0.038  12.401 -0.1743  0.0432 -0.2533
15809TIP3    H168842   4.284   0.040  12.434 -0.3899 -0.8795 -0.7558
15809TIP3    H268843   4.427   0.069  12.474 -0.7748 -0.6075  0.4758
15810TIP3   OH268844   2.810   6.538   4.258 -0.5624  0.3935  0.1325
15810TIP3    H168845   2.832   6.463   4.313 -2.4299 -0.0513  0.3273
15810TIP3    H268846   2.751   6.503   4.191  0.4486  1.2384 -1.2519
15811TIP3   OH268847   5.332   0.696   5.368 -0.2177 -0.0444  0.7227
15811TIP3    H168848   5.287   0.768   5.412 -1.3454 -1.4695  2.0046
15811TIP3    H268849   5.294   0.695   5.280 -0.2182  0.8822  0.6958
15812TIP3   OH268850   4.134   5.557  14.029  0.0047 -0.4902 -0.4504
15812TIP3    H168851   4.087   5.596  14.102 -0.1089 -1.1658 -0.1502
15812TIP3    H268852   4.226   5.573  14.048  0.0117 -1.1925  0.1673
15813TIP3   OH268853   5.379   4.445  11.866  0.3130 -0.0842 -0.1154
15813TIP3    H168854   5.389   4.505  11.792 -1.9285  1.7729  0.9707
15813TIP3    H268855   5.284   4.435  11.876  0.5699 -0.8651  2.0242
15814TIP3   OH268856   0.492   2.417   2.632 -0.1894 -0.3241 -0.0460
15814TIP3    H168857   0.439   2.372   2.698 -0.3237 -1.3952 -0.8502
15814TIP3    H268858   0.453   2.504   2.624  0.0412 -0.0441  1.5132
15815TIP3   OH268859   3.587   0.324   1.413 -0.5837  0.3878  0.3119
15815TIP3    H168860   3.677   0.357   1.406 -0.1058 -1.1522 -1.7711
15815TIP3    H268861   3.532   0.398   1.388  0.2827  0.5389 -1.2343
15816TIP3   OH268862   1.347   0.624  12.722  0.2955 -0.0999 -0.2941
15816TIP3    H168863   1.416   0.626  12.789  0.9426 -2.2555 -0.8133
15816TIP3    H268864   1.381   0.680  12.652  1.0500 -0.3273 -0.1229
15817TIP3   OH268865   6.119   4.180   4.877  0.2366 -0.0280  0.3922
15817TIP3    H168866   6.085   4.205   4.963  0.2388  1.3727  0.0244
15817TIP3    H268867   6.104   4.086   4.870 -0.3532 -0.0373  1.6584
15818TIP3   OH268868   3.448   2.613  16.730  0.0234  0.1990  0.2731
15818TIP3    H168869   3.381   2.677  16.706 -1.2419 -0.6784  1.3095
15818TIP3    H268870   3.447   2.549  16.659 -0.0521  0.3192  0.1660
15819TIP3   OH268871   2.575   0.463  10.824 -0.5380  0.0765  0.2514
15819TIP3    H168872   2.646   0.460  10.888 -0.1237 -0.8980 -0.2342
15819TIP3    H268873   2.587   0.547  10.779  0.8217 -0.4256 -0.3818
15820TIP3   OH268874   6.568   1.460  14.170 -0.1278  0.4037 -0.3783
15820TIP3    H168875   6.492   1.493  14.218  0.4145  0.7477  0.2688
15820TIP3    H268876   6.600   1.388  14.225  0.2120  0.4808 -0.4779
15821TIP3   OH268877   2.764   1.904   1.874 -0.1677 -0.4560  0.2715
15821TIP3    H168878   2.814   1.873   1.949  1.7901 -2.1971 -1.6088
15821TIP3    H268879   2.673   1.902   1.903  0.5803 -0.0870  2.8741
15822TIP3   OH268880   3.113   4.785   4.010 -0.0353 -0.1195  0.1437
15822TIP3    H168881   3.153   4.864   4.047 -1.1495  0.8989 -0.7134
15822TIP3    H268882   3.174   4.714   4.031  1.2131  1.0405  0.5652
15823TIP3   OH268883   3.932   3.316   5.039 -0.0253 -0.1051 -0.4205
15823TIP3    H168884   3.949   3.231   4.997  1.3613 -0.5826  0.9948
15823TIP3    H268885   3.843   3.308   5.072 -0.1421 -0.7638 -0.8644
15824TIP3   OH268886   6.677   1.635  13.411  0.3390  0.7937 -0.6050
15824TIP3    H168887   6.653   1.543  13.401  0.3635  0.6059  0.9342
15824TIP3    H268888   6.668   1.671  13.323  0.7391 -0.7729 -1.3324
15825TIP3   OH268889   1.656   5.463  14.883 -0.8060  0.2675 -0.2703
15825TIP3    H168890   1.576   5.470  14.832 -0.3405  2.0177 -0.8235
15825TIP3    H268891   1.628   5.473  14.974 -1.4750 -1.5294 -0.2500
15826TIP3   OH268892   1.087   4.056   5.142  0.0654 -0.2391  0.2605
15826TIP3    H168893   1.089   4.150   5.161  2.3281  0.0812 -1.1577
15826TIP3    H268894   1.090   4.051   5.046  1.4540 -1.7409  0.3412
15827TIP3   OH268895   1.265   5.755   1.920 -0.1290  0.2901  0.5687
15827TIP3    H168896   1.240   5.687   1.982  1.5378 -0.6613  0.2501
15827TIP3    H268897   1.323   5.813   1.970  2.2168 -1.1579 -0.3337
15828TIP3   OH268898   2.101   1.150  12.214 -0.1642 -0.8300 -0.6816
15828TIP3    H168899   2.006   1.162  12.217 -0.2382 -1.2129 -1.4618
15828TIP3    H268900   2.127   1.145  12.306 -0.1909  4.6579 -0.0251
15829TIP3   OH268901   1.640   4.460   3.144  0.2044  0.2153  0.1309
15829TIP3    H168902   1.561   4.422   3.107 -0.3925  1.7806 -0.2737
15829TIP3    H268903   1.653   4.415   3.227 -0.6252 -0.6472 -0.2056
15830TIP3   OH268904   0.819   1.184   0.236 -0.1438  0.0972 -0.0891
15830TIP3    H168905   0.791   1.216   0.150  0.4011 -1.1487 -0.7717
15830TIP3    H268906   0.890   1.122   0.216 -0.2110 -0.4463  1.2395
15831TIP3   OH268907   0.138   5.067  15.618 -0.1344 -0.2265 -0.1191
15831TIP3    H168908   0.046   5.044  15.625 -1.0021  2.9267  0.5729
15831TIP3    H268909   0.180   5.025  15.693 -1.7614  1.2244  1.6984
15832TIP3   OH268910   6.215   4.891  12.522 -0.3514 -0.0868 -0.1151
15832TIP3    H168911   6.182   4.929  12.441  0.5921  0.5346 -0.2322
15832TIP3    H268912   6.137   4.873  12.575 -1.0393 -1.3321 -1.5008
15833TIP3   OH268913   6.580   1.216   6.182 -0.2005 -0.4764 -0.2042
15833TIP3    H168914   6.500   1.239   6.230  0.9360  1.8293  0.7296
15833TIP3    H268915   6.557   1.136   6.134 -2.8313 -0.2727  0.5649
15834TIP3   OH268916   4.513   0.794  11.532 -0.0286  0.5455 -0.3672
15834TIP3    H168917   4.446   0.728  11.513  1.7043 -1.1948 -0.7541
15834TIP3    H268918   4.493   0.823  11.621 -0.0454 -1.5720  0.3788
15835TIP3   OH268919   5.735   3.193  13.526  0.3517 -0.1405 -0.0935
15835TIP3    H168920   5.721   3.285  13.549 -0.9297 -0.2353 -0.4284
15835TIP3    H268921   5.693   3.183  13.441 -0.0465 -1.1762  0.2079
15836TIP3   OH268922   0.290   3.771   3.127 -0.2230 -0.4190 -0.1337
15836TIP3    H168923   0.229   3.698   3.117 -0.2348 -0.3621 -0.4852
15836TIP3    H268924   0.234   3.848   3.137 -0.2181 -0.5485  0.9937
15837TIP3   OH268925   2.655   5.262   0.573 -0.2317  0.1088  0.5437
15837TIP3    H168926   2.560   5.263   0.585 -0.1749 -0.4050  1.1276
15837TIP3    H268927   2.688   5.319   0.642 -0.0782 -0.3134  0.8252
15838TIP3   OH268928   0.197   5.177   3.078 -0.1441  1.0864 -0.0805
15838TIP3    H168929   0.233   5.243   3.018  2.0996  0.6108  0.6279
15838TIP3    H268930   0.267   5.163   3.142 -0.4237 -2.0900 -0.2930
15839TIP3   OH268931   2.714   2.160  16.161  0.6808  0.1163 -0.0919
15839TIP3    H168932   2.643   2.197  16.107  1.8142  0.8402 -1.1300
15839TIP3    H268933   2.794   2.191  16.120  1.6331 -1.2810  0.6469
15840TIP3   OH268934   1.910   2.096   1.260  0.0279 -0.2421 -0.2847
15840TIP3    H168935   1.879   2.045   1.185  0.9299  0.1786 -0.9607
15840TIP3    H268936   2.004   2.105   1.245  0.1485  0.2046  0.6902
15841TIP3   OH268937   5.454   3.120  11.158  0.0585 -0.3229 -0.4469
15841TIP3    H168938   5.389   3.061  11.197 -0.2007 -0.3124 -0.8524
15841TIP3    H268939   5.483   3.073  11.080 -0.9949  0.5781 -1.4183
15842TIP3   OH268940   4.419   2.134  16.750  0.4004  0.3457 -0.0531
15842TIP3    H168941   4.364   2.208  16.776 -2.1930 -1.0500 -1.2096
15842TIP3    H268942   4.382   2.059  16.795  1.5122 -0.6484 -0.7152
15843TIP3   OH268943   4.836   1.736  16.976 -0.1133 -0.4446  0.2507
15843TIP3    H168944   4.795   1.707  16.895 -1.2561 -0.4727  0.8265
15843TIP3    H268945   4.919   1.688  16.980 -0.6451 -1.4248 -0.2472
15844TIP3   OH268946   6.047   5.513   1.897  0.4842  0.2072  0.5572
15844TIP3    H168947   5.965   5.465   1.901  0.2330  0.5833  0.0431
15844TIP3    H268948   6.097   5.470   1.827  0.4250  0.4395  0.3718
15845TIP3   OH268949   0.502   2.844  16.402 -0.1390  0.1762 -0.2227
15845TIP3    H168950   0.418   2.797  16.402  0.0575 -0.1917  0.2757
15845TIP3    H268951   0.523   2.854  16.495 -0.0716  1.0772 -0.3339
15846TIP3   OH268952   0.278   5.607  10.525  0.1231 -0.5692  0.0186
15846TIP3    H168953   0.267   5.636  10.616 -0.3599 -2.0673  0.4682
15846TIP3    H268954   0.195   5.629  10.482 -0.2487 -1.2736  0.3600
15847TIP3   OH268955   6.151   2.476  12.512 -0.4380 -0.5823  0.2221
15847TIP3    H168956   6.102   2.546  12.469 -0.9300 -1.7992 -1.2871
15847TIP3    H268957   6.220   2.521  12.560 -1.0563  0.9668 -0.2879
15848TIP3   OH268958   3.658   3.638   5.627  0.2032  0.2446  0.4334
15848TIP3    H168959   3.595   3.570   5.650 -1.2917  1.8524  1.4170
15848TIP3    H268960   3.744   3.597   5.638 -0.6267 -1.2999  1.5255
15849TIP3   OH268961   1.349   0.127   1.806 -0.0029 -0.4843  0.0808
15849TIP3    H168962   1.413   0.188   1.843  0.1532 -0.1909 -0.6692
15849TIP3    H268963   1.389   0.041   1.817  0.2044 -0.3671  0.2519
15850TIP3   OH268964   0.691   1.005   2.579  0.0486 -0.2553 -0.8132
15850TIP3    H168965   0.703   1.016   2.485 -1.3989 -1.5069 -1.1770
15850TIP3    H268966   0.598   1.023   2.594  0.3691  0.4752  0.4753
15851TIP3   OH268967   1.774   6.082   4.437 -0.3235 -0.1132  0.7894
15851TIP3    H168968   1.839   6.012   4.432 -0.1532  0.1063 -1.9883
15851TIP3    H268969   1.735   6.085   4.349 -1.6923  2.0120  1.3786
15852TIP3   OH268970   3.100   4.406   3.204  0.3712 -0.5323 -0.0592
15852TIP3    H168971   3.098   4.457   3.124  0.4684 -0.4810 -0.0288
15852TIP3    H268972   3.155   4.330   3.184  0.5038 -0.4524 -0.0017
15853TIP3   OH268973   5.179   6.133   5.747 -0.3529  0.4832  0.2549
15853TIP3    H168974   5.143   6.103   5.830 -0.7942 -1.4248 -0.5680
15853TIP3    H268975   5.150   6.223   5.739 -1.6330  0.2078  1.4524
15854TIP3   OH268976   0.486   4.966  11.274 -0.4268  0.1369 -0.1015
15854TIP3    H168977   0.499   5.047  11.322 -0.0717 -0.1707  0.3301
15854TIP3    H268978   0.540   4.901  11.320 -0.6681 -0.3335 -0.4642
15855TIP3   OH268979   2.515   6.378  15.544 -0.0328 -0.3380 -0.5976
15855TIP3    H168980   2.441   6.398  15.602  0.9132  1.3700  0.0658
15855TIP3    H268981   2.573   6.454  15.551  1.8166 -1.6399 -1.0880
15856TIP3   OH268982   2.341   5.703   4.937  0.1918  0.2826 -0.0169
15856TIP3    H168983   2.268   5.764   4.927  1.0114  2.1652  3.8034
15856TIP3    H268984   2.303   5.629   4.986  0.4511  0.4776  0.4842
15857TIP3   OH268985   1.645   4.224   5.494  0.4340 -0.3255 -0.5774
15857TIP3    H168986   1.568   4.218   5.552  0.2673 -1.6888 -0.8914
15857TIP3    H268987   1.682   4.136   5.496  1.7057  0.1902 -0.8385
15858TIP3   OH268988   2.044   4.123   1.631  0.3344  0.3194 -0.0306
15858TIP3    H168989   1.965   4.114   1.684 -0.1172 -0.7063 -0.8264
15858TIP3    H268990   2.037   4.209   1.590  0.8121  1.2313  1.7157
15859TIP3   OH268991   5.832   2.384   2.900 -0.2870 -0.6735 -0.1591
15859TIP3    H168992   5.879   2.353   2.823 -1.6163 -2.1296 -0.4282
15859TIP3    H268993   5.873   2.468   2.921 -0.4777  0.2286 -2.9802
15860TIP3   OH268994   1.043   4.143   2.494 -0.3370  0.1633  0.1719
15860TIP3    H168995   1.070   4.155   2.403  0.5249 -2.1602  0.0693
15860TIP3    H268996   1.062   4.228   2.536 -1.2681  1.4532 -1.8737
15861TIP3   OH268997   6.118   3.593   2.390 -0.1405 -0.0362  0.5231
15861TIP3    H168998   6.023   3.599   2.387 -0.2170 -0.6281  1.2203
15861TIP3    H268999   6.135   3.519   2.450  0.7356 -0.7252 -0.5417
15862TIP3   OH269000   2.223   1.440   2.848 -0.2567  0.1254 -0.0065
15862TIP3    H169001   2.294   1.429   2.785 -0.3108 -1.7137  0.1798
15862TIP3    H269002   2.143   1.432   2.796 -0.3045  0.0136  0.0822
15863TIP3   OH269003   4.806   3.713   0.935 -0.5136  0.2533 -0.0995
15863TIP3    H169004   4.807   3.795   0.887 -2.0531  1.2443  1.4306
15863TIP3    H269005   4.819   3.738   1.027 -0.3911 -1.2757  0.3386
15864TIP3   OH269006   5.189   0.609  12.019  0.1958 -0.5728 -0.3329
15864TIP3    H169007   5.231   0.622  11.934 -0.1903 -1.7117 -0.7224
15864TIP3    H269008   5.224   0.526  12.051  0.1910 -0.2534  0.5434
15865TIP3   OH269009   6.709   1.437  15.834 -0.1383 -0.2782  0.2769
15865TIP3    H169010   6.719   1.406  15.924 -0.8315 -0.2114  0.3837
15865TIP3    H269011   6.621   1.409  15.808 -0.0572 -0.0420 -0.2774
15866TIP3   OH269012   6.101   4.098  15.452  0.3813  0.0617  0.3857
15866TIP3    H169013   6.123   4.123  15.363 -1.7873 -0.9869 -0.5281
15866TIP3    H269014   6.111   4.178  15.503 -0.3646  1.2383 -1.2319
15867TIP3   OH269015   0.686   4.430   5.401  0.1620 -0.6874  0.2248
15867TIP3    H169016   0.624   4.359   5.383  0.8937 -1.0575 -0.9540
15867TIP3    H269017   0.689   4.479   5.319  0.7242 -0.1218  0.5828
15868TIP3   OH269018   5.248   3.849   3.300 -0.1006  0.2815 -0.0376
15868TIP3    H169019   5.178   3.900   3.259 -1.1714 -2.1453 -1.4571
15868TIP3    H269020   5.279   3.791   3.231  3.6923  1.4708  0.4226
15869TIP3   OH269021   2.688   4.387   0.192 -0.0054  0.8798 -0.0013
15869TIP3    H169022   2.737   4.317   0.149 -0.8927 -0.1081  0.5610
15869TIP3    H269023   2.705   4.374   0.286 -1.1609  0.6501  0.1881
15870TIP3   OH269024   5.014   4.397   1.909  0.5442  0.0147 -0.2722
15870TIP3    H169025   4.983   4.487   1.917  0.9804  0.5364 -3.3363
15870TIP3    H269026   4.986   4.355   1.990  0.1176  2.8164  1.1665
15871TIP3   OH269027   2.475   0.717   4.198 -0.2040 -0.1484 -0.0926
15871TIP3    H169028   2.444   0.678   4.280 -1.9673  1.1278 -0.0914
15871TIP3    H269029   2.553   0.766   4.223 -1.6046  1.5344  1.2031
15872TIP3   OH269030   3.212   5.894  13.382  0.2167 -0.1550 -0.5781
15872TIP3    H169031   3.186   5.891  13.290 -0.4065 -0.7055 -0.3968
15872TIP3    H269032   3.282   5.959  13.386  1.9769 -1.8622 -1.8449
15873TIP3   OH269033   2.654   0.951  11.900 -0.5434 -0.0665  0.0141
15873TIP3    H169034   2.693   0.881  11.952 -0.7774 -0.6350 -0.5622
15873TIP3    H269035   2.728   0.989  11.852 -0.5312 -0.4472 -0.2755
15874TIP3   OH269036   2.438   4.442   1.655 -0.1028 -0.2756 -0.2618
15874TIP3    H169037   2.441   4.535   1.675 -1.0298 -0.2880 -0.0657
15874TIP3    H269038   2.519   4.426   1.606  1.0929  0.2022  1.4753
15875TIP3   OH269039   2.025   3.738   0.220  0.0546 -0.3168 -0.1580
15875TIP3    H169040   1.971   3.673   0.264 -0.1974 -0.9509 -1.3746
15875TIP3    H269041   1.989   3.822   0.249 -1.0012 -0.7261 -0.2334
15876TIP3   OH269042   4.661   4.426  14.095  0.3502 -0.2122 -0.2018
15876TIP3    H169043   4.663   4.332  14.116 -0.1997 -0.1408  0.1921
15876TIP3    H269044   4.574   4.440  14.059 -0.1769  0.4429  1.2318
15877TIP3   OH269045   3.110   0.318  16.760 -0.6358  0.6047 -0.1946
15877TIP3    H169046   3.124   0.403  16.801 -0.5921  0.3115  0.4130
15877TIP3    H269047   3.187   0.305  16.705 -1.3913  1.6637 -1.5595
15878TIP3   OH269048   2.172   1.133   0.558  0.3165  0.4362 -0.0993
15878TIP3    H169049   2.121   1.135   0.477 -0.2338 -0.8056  0.2013
15878TIP3    H269050   2.237   1.202   0.547 -1.0035  1.6274 -0.7727
15879TIP3   OH269051   1.127   1.631   1.882 -1.1121  0.3122 -0.4627
15879TIP3    H169052   1.069   1.695   1.923 -1.5621 -0.2312 -0.2426
15879TIP3    H269053   1.215   1.666   1.896 -1.1402 -0.4358  2.0316
15880TIP3   OH269054   6.440   5.178   4.879  0.2971 -0.4683 -0.0343
15880TIP3    H169055   6.424   5.164   4.786 -2.0498  0.5787  0.1491
15880TIP3    H269056   6.441   5.091   4.918 -0.1145 -0.8365 -0.8477
15881TIP3   OH269057   1.706   3.135   3.691 -0.2698  0.5667 -0.3594
15881TIP3    H169058   1.785   3.119   3.743 -0.4102  2.4922  0.5268
15881TIP3    H269059   1.634   3.124   3.753 -0.7456 -1.0857 -1.1407
15882TIP3   OH269060   1.610   5.182  13.773  0.2083  0.2982  0.2883
15882TIP3    H169061   1.543   5.249  13.780 -1.3072 -0.9602 -1.2814
15882TIP3    H269062   1.632   5.179  13.680  0.9656 -0.7214  0.4750
15883TIP3   OH269063   5.906   4.360  13.671 -0.6617  0.0296 -0.5915
15883TIP3    H169064   5.945   4.342  13.756 -1.6736 -1.0415 -0.3318
15883TIP3    H269065   5.942   4.294  13.612  0.5970  1.2013 -1.2168
15884TIP3   OH269066   0.702   4.893   3.510 -0.5166  0.8342  0.4411
15884TIP3    H169067   0.628   4.840   3.539  0.5232 -1.4248 -0.7830
15884TIP3    H269068   0.743   4.925   3.591 -1.2976 -0.0406  1.1985
15885TIP3   OH269069   2.440   1.550   5.688  0.3319 -0.1218 -0.0072
15885TIP3    H169070   2.358   1.539   5.736 -0.2734  0.5977 -0.8325
15885TIP3    H269071   2.509   1.541   5.754 -0.3315 -2.1923  0.4674
15886TIP3   OH269072   3.399   4.039   0.980 -0.2096 -0.2456 -0.8194
15886TIP3    H169073   3.422   4.122   0.939 -0.1641  0.7795  1.1284
15886TIP3    H269074   3.480   3.988   0.978  0.5274  0.8066  0.2407
15887TIP3   OH269075   5.510   3.601  12.912  0.1986 -0.1277 -0.2001
15887TIP3    H169076   5.435   3.637  12.865 -0.2112 -1.7248 -0.8496
15887TIP3    H269077   5.586   3.637  12.868 -0.1575  1.4422  0.4086
15888TIP3   OH269078   0.225   6.504   2.809 -0.6958  0.3094 -0.3198
15888TIP3    H169079   0.155   6.542   2.757 -1.4818  0.5803  0.8918
15888TIP3    H269080   0.297   6.492   2.747 -1.9046 -0.2907 -1.6596
15889TIP3   OH269081   4.527   0.154   0.056 -0.4397  0.2999  0.7416
15889TIP3    H169082   4.461   0.084   0.050  0.4373 -0.4473 -0.9049
15889TIP3    H269083   4.526   0.195  -0.031  0.8246  0.6840  0.8864
15890TIP3   OH269084   6.007   0.214   5.701 -0.6012 -0.1350  0.6150
15890TIP3    H169085   5.949   0.175   5.636 -0.2492  2.1364 -1.2037
15890TIP3    H269086   5.994   0.308   5.691  3.1054  0.4957  0.2658
15891TIP3   OH269087   6.623   0.436   4.699  0.0083 -0.0023 -0.6653
15891TIP3    H169088   6.565   0.360   4.687  0.7572 -0.4211 -1.7183
15891TIP3    H269089   6.566   0.512   4.687 -0.2866 -0.4070 -1.9095
15892TIP3   OH269090   5.024   2.233   0.953 -0.3794  0.4575  0.0873
15892TIP3    H169091   4.935   2.267   0.940 -0.7030  0.8343  2.6640
15892TIP3    H269092   5.012   2.139   0.968 -0.3800  0.5191  0.5009
15893TIP3   OH269093   6.369   4.376  10.556  0.2004  0.1471  0.2997
15893TIP3    H169094   6.438   4.405  10.496 -0.0487 -0.5168 -0.3385
15893TIP3    H269095   6.298   4.348  10.498  0.5763 -2.0985  0.8174
15894TIP3   OH269096   5.445   1.327   5.901 -0.8266  0.2227 -0.4527
15894TIP3    H169097   5.446   1.412   5.945 -1.0170  0.2856 -0.5669
15894TIP3    H269098   5.426   1.347   5.810 -0.4609  0.0905 -0.5629
15895TIP3   OH269099   1.488   6.548  14.053  0.7788  0.2754 -0.4301
15895TIP3    H169100   1.461   6.616  13.991 -1.9387  0.0483  0.3616
15895TIP3    H269101   1.553   6.590  14.108  4.3880  0.1222 -4.0632
15896TIP3   OH269102   6.208   2.526   4.608 -0.1856 -0.0658  0.1763
15896TIP3    H169103   6.266   2.499   4.679 -1.0777 -0.5054  0.7559
15896TIP3    H269104   6.257   2.594   4.561  0.6256 -0.1433  0.8896
15897TIP3   OH269105   1.508   4.315   1.925  0.2644 -0.1835  0.1391
15897TIP3    H169106   1.465   4.371   1.989  1.5108  0.3941  0.5117
15897TIP3    H269107   1.553   4.248   1.978  0.6490 -0.1731 -0.1679
15898TIP3   OH269108   0.625   3.399  16.704  0.2532 -0.2011  0.7965
15898TIP3    H169109   0.648   3.412  16.796  1.1167 -0.0505  0.5664
15898TIP3    H269110   0.686   3.332  16.673 -0.0591 -0.2791  0.3427
15899TIP3   OH269111   3.335   3.589   3.401 -0.4178  0.1990 -0.0467
15899TIP3    H169112   3.317   3.669   3.450 -1.9668 -0.1128 -0.0392
15899TIP3    H269113   3.418   3.556   3.437  0.0406  1.5773  0.2143
15900TIP3   OH269114   2.314   5.181   5.109  0.1678 -0.4831 -0.7932
15900TIP3    H169115   2.248   5.247   5.092 -0.7134 -1.2885 -0.5974
15900TIP3    H269116   2.264   5.101   5.127  1.2019 -1.3792 -1.7215
15901TIP3   OH269117   4.190   0.944  15.901  0.5485 -0.1938  0.0893
15901TIP3    H169118   4.148   0.938  15.815 -0.0087  1.2636  0.2271
15901TIP3    H269119   4.271   0.894  15.892  0.8905  0.5911 -1.5294
15902TIP3   OH269120   1.769   0.112   2.932 -0.0741 -0.3534  0.0203
15902TIP3    H169121   1.708   0.157   2.874 -1.0998 -2.4291 -0.6462
15902TIP3    H269122   1.712   0.064   2.993  0.9508  2.2668  3.3077
15903TIP3   OH269123   6.127   6.009  15.630 -0.2858 -0.0230  0.4306
15903TIP3    H169124   6.177   6.040  15.555 -2.4741  0.9337 -0.7479
15903TIP3    H269125   6.134   6.080  15.694  0.2485 -0.1065  0.4674
15904TIP3   OH269126   3.293   5.975   4.628  0.0634 -1.0704 -0.4307
15904TIP3    H169127   3.348   5.897   4.637  0.3074 -0.8457  0.0805
15904TIP3    H269128   3.229   5.967   4.699  0.3748 -0.5809 -0.0846
15905TIP3   OH269129   1.233   4.705  14.678 -0.2805 -0.1066 -0.2246
15905TIP3    H169130   1.222   4.612  14.659 -0.4265 -0.0183 -0.5719
15905TIP3    H269131   1.157   4.747  14.637 -0.0299  0.2065 -0.3682
15906TIP3   OH269132   1.786   6.408   1.828  0.3532  0.5391 -0.0367
15906TIP3    H169133   1.716   6.379   1.887  0.8254  1.2137  0.8700
15906TIP3    H269134   1.809   6.329   1.778 -1.4005  0.4132 -0.7342
15907TIP3   OH269135   6.087   0.933   0.096 -0.8055  0.8726  0.3971
15907TIP3    H169136   5.998   0.924   0.062 -1.8391  2.2997  2.5220
15907TIP3    H269137   6.094   1.025   0.122  1.2453  0.7483  0.4713
15908TIP3   OH269138   6.458   0.133   6.378  0.3211  0.0529 -0.3774
15908TIP3    H169139   6.515   0.209   6.365  0.6168 -0.3838 -1.7469
15908TIP3    H269140   6.487   0.069   6.313  1.0776 -1.8543  1.6951
15909TIP3   OH269141   1.288   3.560  12.821 -0.0472 -0.1416 -0.1500
15909TIP3    H169142   1.289   3.511  12.738 -4.1250  0.3618 -0.6905
15909TIP3    H269143   1.258   3.497  12.886 -1.5104  0.5955 -0.0725
15910TIP3   OH269144   1.323   4.611  13.987  0.1271 -0.2852  0.4733
15910TIP3    H169145   1.247   4.669  13.988 -2.0742 -2.8252 -1.7847
15910TIP3    H269146   1.394   4.665  13.953 -1.5624  1.3030 -0.7350
15911TIP3   OH269147   6.798   4.565  13.104 -0.0128  0.6988 -0.1256
15911TIP3    H169148   6.714   4.545  13.145 -0.0543  0.1415 -0.4670
15911TIP3    H269149   6.776   4.591  13.015 -0.0029  2.8778  0.4572
15912TIP3   OH269150   2.111   0.573  13.911  0.2701  0.7354  0.4278
15912TIP3    H169151   2.064   0.622  13.979  0.8632  0.4789  1.0442
15912TIP3    H269152   2.181   0.528  13.959 -0.1031 -0.5206 -0.1523
15913TIP3   OH269153   1.814   0.751  12.604  0.3103  0.1446 -0.3413
15913TIP3    H169154   1.799   0.798  12.523 -0.8608 -0.5266 -0.5413
15913TIP3    H269155   1.813   0.818  12.672 -0.0972  0.5505 -0.7471
15914TIP3   OH269156   0.004   3.726   2.015  0.3784 -0.4267 -0.3223
15914TIP3    H169157  -0.047   3.795   1.972 -0.2691 -2.3557 -2.8597
15914TIP3    H269158  -0.055   3.689   2.080 -0.0311 -0.0495 -0.4705
15915TIP3   OH269159   2.168   0.133   4.752  0.1536  0.5404  0.1027
15915TIP3    H169160   2.149   0.198   4.684 -2.0643 -0.0882  0.0515
15915TIP3    H269161   2.083   0.095   4.774  1.3464 -2.4823  0.0278
15916TIP3   OH269162   1.212   0.254  16.208 -0.3960 -0.1759  0.2223
15916TIP3    H169163   1.277   0.192  16.240 -1.2272 -0.6645  1.0120
15916TIP3    H269164   1.252   0.293  16.130  1.1949  0.1873  1.1773
15917TIP3   OH269165   5.850   5.725  13.763 -0.4037 -0.2251  0.7392
15917TIP3    H169166   5.813   5.663  13.700 -0.8654 -0.0327  0.8139
15917TIP3    H269167   5.785   5.796  13.768  0.1576  0.3141  0.5775
15918TIP3   OH269168   3.946   5.102   3.401 -0.5640  0.1508  0.0179
15918TIP3    H169169   3.862   5.072   3.438 -0.3666  0.6991  0.9476
15918TIP3    H269170   3.996   5.131   3.477  1.1525 -1.7431 -0.2984
15919TIP3   OH269171   0.528   4.345   2.024 -0.5630  0.7886  0.0857
15919TIP3    H169172   0.432   4.345   2.023 -0.5799 -0.2289  0.5827
15919TIP3    H269173   0.552   4.259   2.059  0.5373  0.9551 -0.2153
15920TIP3   OH269174   1.917   4.133  11.835  0.1484  0.2961  0.4484
15920TIP3    H169175   1.829   4.165  11.814  0.1838  0.2122  0.1787
15920TIP3    H269176   1.945   4.187  11.909 -0.7855 -0.7572  1.6177
15921TIP3   OH269177   0.260   2.167   3.141 -0.2100  0.4651 -0.1172
15921TIP3    H169178   0.215   2.083   3.130  0.3976  0.2938 -1.5134
15921TIP3    H269179   0.202   2.218   3.198 -1.3100 -0.3764 -0.4514
15922TIP3   OH269180   5.021   6.033  16.385 -0.2390  0.2438  0.4444
15922TIP3    H169181   4.950   6.093  16.362 -0.0886 -0.0056 -0.7276
15922TIP3    H269182   5.000   5.952  16.339  0.2409 -0.1861  0.9706
15923TIP3   OH269183   5.806   1.644  16.388  0.5883  0.2362  0.0556
15923TIP3    H169184   5.813   1.739  16.389 -1.0053  0.3684  0.2316
15923TIP3    H269185   5.834   1.619  16.300  2.9853  0.6468  0.6197
15924TIP3   OH269186   1.493   3.887   1.057  0.9483  0.2799 -0.2645
15924TIP3    H169187   1.523   3.952   0.993  3.1635 -0.1681  0.2624
15924TIP3    H269188   1.573   3.849   1.092 -0.2813 -1.4089  0.8278
15925TIP3   OH269189   1.441   4.894  16.752  0.4819 -0.3904 -0.3063
15925TIP3    H169190   1.491   4.875  16.672 -0.7422  0.4110 -1.2950
15925TIP3    H269191   1.473   4.979  16.781  1.1277 -0.8121  0.2249
15926TIP3   OH269192   0.346   0.443   1.869  0.8665 -0.2524  0.0955
15926TIP3    H169193   0.363   0.351   1.886 -0.2041 -0.3368  0.7988
15926TIP3    H269194   0.405   0.465   1.796  0.8938 -1.5646 -0.3049
15927TIP3   OH269195   0.910   1.995   2.846  0.6665 -0.0335 -0.6948
15927TIP3    H169196   0.826   2.040   2.853  0.3652 -0.5729 -0.7679
15927TIP3    H269197   0.891   1.916   2.795  1.1843 -0.2420 -0.5769
15928TIP3   OH269198   1.589   5.975  15.728 -0.7310  1.0816  0.5098
15928TIP3    H169199   1.598   6.057  15.777 -0.5862  0.0607  2.2485
15928TIP3    H269200   1.513   5.990  15.672  0.9484  3.4224 -1.3803
15929TIP3   OH269201   2.358   1.800   0.277 -0.0148  1.2952 -0.3912
15929TIP3    H169202   2.281   1.779   0.330 -1.7292  0.6510 -2.9385
15929TIP3    H269203   2.432   1.763   0.325 -1.8119 -2.2009 -0.0179
15930TIP3   OH269204   0.546   6.654   3.798  0.0796  0.3651 -0.3009
15930TIP3    H169205   0.534   6.595   3.872  1.0961  0.7713  0.2064
15930TIP3    H269206   0.531   6.741   3.834 -2.7403  0.4292 -1.3250
15931TIP3   OH269207   6.077   3.011   1.029  0.1097  0.0527 -0.2728
15931TIP3    H169208   6.054   3.045   0.943  2.3467 -2.2690 -1.9659
15931TIP3    H269209   6.165   3.044   1.045 -0.2029  0.2839  1.0694
15932TIP3   OH269210   6.724   3.130   0.863 -0.7546  0.0539  0.3474
15932TIP3    H169211   6.716   3.179   0.781 -1.4082 -0.7164 -0.0623
15932TIP3    H269212   6.816   3.101   0.865  0.0363  2.3822  1.2610
15933TIP3   OH269213   1.910   0.184   0.979 -0.1806 -0.5293 -0.6626
15933TIP3    H169214   1.977   0.233   1.027  0.1437 -1.2032 -0.4303
15933TIP3    H269215   1.898   0.235   0.899 -0.1331  0.1518 -0.2448
15934TIP3   OH269216   2.350   0.803   2.586  0.9527  0.1415  0.9851
15934TIP3    H169217   2.332   0.750   2.509  1.7302 -0.1709  1.0113
15934TIP3    H269218   2.271   0.856   2.598 -0.6334 -2.2612  1.9943
15935TIP3   OH269219   6.732   1.709  10.184 -0.1291  0.4499  0.6546
15935TIP3    H169220   6.771   1.796  10.185 -0.7145  0.7648 -0.7954
15935TIP3    H269221   6.638   1.725  10.173 -0.6928 -0.3074  3.5437
15936TIP3   OH269222   2.985   4.831  11.262 -0.7179 -0.2047  0.1372
15936TIP3    H169223   2.946   4.748  11.234  0.6446 -1.3436  1.4546
15936TIP3    H269224   2.910   4.887  11.283 -1.7279 -2.1349  2.1395
15937TIP3   OH269225   5.863   6.601  14.117  0.6134 -0.1870 -0.2581
15937TIP3    H169226   5.958   6.604  14.113  0.6661 -1.9108 -0.9976
15937TIP3    H269227   5.838   6.533  14.055 -1.0869 -0.0375  0.1988
15938TIP3   OH269228   2.842   6.423  12.607  0.0836 -0.0085 -0.1809
15938TIP3    H169229   2.811   6.350  12.553  0.7178  1.6873 -3.0482
15938TIP3    H269230   2.937   6.413  12.608  0.1073  0.2310  0.2948
15939TIP3   OH269231   5.876   5.143   0.448  0.3979 -0.1305  0.4314
15939TIP3    H169232   5.926   5.219   0.419 -1.1712  0.6647 -0.3056
15939TIP3    H269233   5.842   5.105   0.367  0.0643 -0.8340  0.8968
15940TIP3   OH269234   2.394   2.272   4.081 -0.2142  0.1934  0.0271
15940TIP3    H169235   2.322   2.319   4.039 -0.8083 -1.3507 -0.7783
15940TIP3    H269236   2.369   2.268   4.174 -0.6888  0.5332 -0.0810
15941TIP3   OH269237   4.731   1.794  14.115 -0.5494  0.2356 -0.5004
15941TIP3    H169238   4.660   1.813  14.054 -1.2858  2.6869  0.9866
15941TIP3    H269239   4.808   1.835  14.076 -0.5583 -0.0429 -0.8072
15942TIP3   OH269240   1.728   3.226   5.730 -0.0529  0.2537  0.6417
15942TIP3    H169241   1.770   3.147   5.766 -1.9275 -0.5534  1.1990
15942TIP3    H269242   1.696   3.272   5.807 -0.5208  0.6417  0.2140
15943TIP3   OH269243   5.558   2.677   2.070  0.4319  0.6192 -0.6989
15943TIP3    H169244   5.578   2.641   1.984  0.6849  1.3116 -0.9412
15943TIP3    H269245   5.468   2.708   2.063  0.2844  0.2235 -0.5561
15944TIP3   OH269246   5.612   1.503   4.205  0.4384  0.3414  0.3989
15944TIP3    H169247   5.666   1.426   4.221 -1.1021 -1.0452 -0.7810
15944TIP3    H269248   5.571   1.522   4.289 -0.9500 -1.5760  0.1973
15945TIP3   OH269249   4.184   3.433   4.438  0.3732 -0.1273  0.3378
15945TIP3    H169250   4.172   3.393   4.351  2.3943 -0.3025  0.0902
15945TIP3    H269251   4.223   3.363   4.491 -0.5083  0.0944  1.3010
15946TIP3   OH269252   3.861   2.766  14.533 -1.0869 -0.0917  1.2562
15946TIP3    H169253   3.837   2.704  14.464  1.5295 -0.0091  0.1810
15946TIP3    H269254   3.921   2.717  14.589  1.3755  1.4700  0.1546
15947TIP3   OH269255   4.800   1.298  16.649  0.5478 -0.1461 -0.2759
15947TIP3    H169256   4.739   1.249  16.704  0.3321  1.5373  1.0507
15947TIP3    H269257   4.877   1.312  16.705  0.3421  1.5630 -0.3937
15948TIP3   OH269258   0.196   0.608   2.217  0.5414  0.4568  0.3305
15948TIP3    H169259   0.243   0.682   2.178  4.8999 -1.1681  1.8743
15948TIP3    H269260   0.227   0.605   2.308 -2.1896 -1.2840  1.3367
15949TIP3   OH269261   2.954   3.149   2.574  0.1398 -0.2340 -0.0586
15949TIP3    H169262   2.882   3.201   2.538 -1.6708 -2.5722 -0.0385
15949TIP3    H269263   2.946   3.161   2.669  0.2500  0.0934 -0.0893
15950TIP3   OH269264   0.766   3.276  15.484  0.2051 -0.1704  0.6124
15950TIP3    H169265   0.806   3.189  15.489 -0.2596 -0.4412 -0.2368
15950TIP3    H269266   0.840   3.337  15.486  0.7882 -0.6814 -1.8700
15951TIP3   OH269267   2.408   3.202  12.120 -0.1872 -0.7388  0.1346
15951TIP3    H169268   2.369   3.268  12.062 -1.6514 -1.0492  0.7258
15951TIP3    H269269   2.399   3.239  12.208 -0.8857 -1.6341  0.4573
15952TIP3   OH269270   3.432   1.894  15.599 -0.1674  0.5586  0.1471
15952TIP3    H169271   3.523   1.891  15.629 -1.0156 -0.9412  2.8426
15952TIP3    H269272   3.385   1.939  15.669 -1.6849  0.4284 -0.7424
15953TIP3   OH269273   5.852   3.144  12.226 -0.0238 -0.2456 -0.6681
15953TIP3    H169274   5.848   3.224  12.278 -0.6523 -1.0161  0.5228
15953TIP3    H269275   5.818   3.169  12.140  0.1471  0.8430 -0.4294
15954TIP3   OH269276   5.965   1.999   4.488  0.8266 -0.4486 -0.0157
15954TIP3    H169277   5.931   1.915   4.521  0.1864 -0.1090  0.2009
15954TIP3    H269278   6.058   1.997   4.511  0.5433 -0.5119  1.2458
15955TIP3   OH269279   4.064   4.972  12.531 -0.6133  0.8220 -0.6864
15955TIP3    H169280   4.157   4.959  12.512  0.2083  0.9269  2.7327
15955TIP3    H269281   4.059   5.061  12.565 -1.4986  0.0116  1.4347
15956TIP3   OH269282   5.036   4.443   2.385 -0.3724 -0.3770  0.2518
15956TIP3    H169283   5.092   4.432   2.462  0.9872  0.6818 -0.5321
15956TIP3    H269284   5.068   4.377   2.323  0.2639  0.4490 -0.3201
15957TIP3   OH269285   3.693   4.927   4.745  0.2484 -0.5182  0.0918
15957TIP3    H169286   3.770   4.879   4.775  0.9489  0.9358  0.7058
15957TIP3    H269287   3.664   4.879   4.667  1.5229 -1.3179  0.0735
15958TIP3   OH269288   3.055   0.134   5.622  0.2387 -0.8598 -0.6410
15958TIP3    H169289   3.138   0.180   5.613  0.4470 -1.3339 -1.1729
15958TIP3    H269290   3.013   0.176   5.697  0.2329  0.4735 -1.3768
15959TIP3   OH269291   5.845   0.663  15.497 -0.1716 -0.4793  0.6738
15959TIP3    H169292   5.888   0.733  15.546  0.6336 -1.0886  0.8606
15959TIP3    H269293   5.777   0.707  15.446 -0.8887  0.2122  2.1632
15960TIP3   OH269294   2.444   1.973  15.999 -0.0630  0.2529 -0.1132
15960TIP3    H169295   2.351   1.972  16.020  0.1881 -0.9750  1.0931
15960TIP3    H269296   2.472   2.063  16.012 -0.2312 -0.0946  3.7170
15961TIP3   OH269297   2.798   4.133  16.633 -0.2334 -0.6594  0.2011
15961TIP3    H169298   2.847   4.058  16.666  1.6567  0.6506  0.5525
15961TIP3    H269299   2.764   4.176  16.711 -1.8371 -1.4312 -0.0298
15962TIP3   OH269300   4.534   4.412  11.005 -0.2395 -0.4420  0.2942
15962TIP3    H169301   4.603   4.460  11.049 -0.7885  1.6615 -0.9905
15962TIP3    H269302   4.579   4.361  10.937  0.3022 -1.4549  1.3806
15963TIP3   OH269303   2.245   0.973  15.669  0.4051 -0.0204  0.1902
15963TIP3    H169304   2.336   0.993  15.687  0.5608  0.6373 -1.2298
15963TIP3    H269305   2.246   0.922  15.588 -0.4828 -0.0551  0.1822
15964TIP3   OH269306   4.214   3.002  14.990  0.2631  0.5049  0.0341
15964TIP3    H169307   4.221   2.989  15.085  0.8244 -0.9030 -0.1789
15964TIP3    H269308   4.270   3.077  14.972  2.2308 -0.7936  0.5019
15965TIP3   OH269309   1.259   3.810   4.574 -0.2684  0.3149 -0.4133
15965TIP3    H169310   1.178   3.846   4.537 -0.8579 -0.1398  0.4007
15965TIP3    H269311   1.231   3.768   4.655  0.6121 -0.8784 -0.7146
15966TIP3   OH269312   5.324   5.180   1.759  0.0731 -0.6533 -0.3816
15966TIP3    H169313   5.392   5.118   1.786  0.5629 -1.4083 -3.0557
15966TIP3    H269314   5.323   5.174   1.664  0.1207  3.4341 -0.8124
15967TIP3   OH269315   0.946   1.484  12.634 -0.6316  0.0870 -0.0002
15967TIP3    H169316   0.867   1.514  12.679 -0.2142  1.3956 -0.1047
15967TIP3    H269317   1.004   1.454  12.704 -0.5596  0.7162  0.2092
15968TIP3   OH269318   5.305   2.794   2.047 -1.0256 -0.0696 -0.5751
15968TIP3    H169319   5.263   2.853   1.984 -1.8508 -0.5849 -0.5205
15968TIP3    H269320   5.252   2.802   2.126  0.3012  0.9672  0.2674
15969TIP3   OH269321   0.159   2.475  12.376  0.1847  0.4338  0.2881
15969TIP3    H169322   0.110   2.546  12.335  0.2779  0.8891  0.9414
15969TIP3    H269323   0.120   2.465  12.462  0.7770  0.3235  0.5501
15970TIP3   OH269324   3.156   4.677   2.350 -0.1680 -0.1141 -0.1524
15970TIP3    H169325   3.235   4.700   2.301  1.0225  1.3641  2.2579
15970TIP3    H269326   3.145   4.583   2.336  2.8579 -0.6753  0.4589
15971TIP3   OH269327   4.934   3.103  16.580  0.2117 -0.1185  0.2698
15971TIP3    H169328   4.862   3.050  16.544 -0.1293  0.5259 -0.0023
15971TIP3    H269329   4.938   3.077  16.672  0.9459 -1.6142 -0.1412
15972TIP3   OH269330   3.650   4.063   5.053 -0.0082  0.1935  0.1845
15972TIP3    H169331   3.679   4.147   5.089 -0.1550  0.1912  0.3092
15972TIP3    H269332   3.555   4.069   5.053 -0.1895 -1.0903  2.9499
15973TIP3   OH269333   2.755   4.088   5.698  0.0715  0.3002 -0.3998
15973TIP3    H169334   2.788   4.079   5.787  0.7319  0.7736 -0.5823
15973TIP3    H269335   2.706   4.170   5.699 -0.7864 -0.2098 -0.2246
15974TIP3   OH269336   5.346   1.829   4.466  0.1086  0.2809  0.6021
15974TIP3    H169337   5.376   1.743   4.437  1.4556  0.7469  0.5321
15974TIP3    H269338   5.295   1.812   4.545  0.8231 -0.5337  0.9041
15975TIP3   OH269339   2.000   2.792   3.460 -0.4129 -0.0558 -0.1790
15975TIP3    H169340   1.950   2.855   3.512 -0.6484 -1.0825  0.8749
15975TIP3    H269341   2.082   2.838   3.441 -1.0475  1.0075 -0.4572
15976TIP3   OH269342   0.445   1.107   3.303  0.3124 -0.0741  0.4434
15976TIP3    H169343   0.502   1.144   3.235 -1.9806  0.3348 -1.3730
15976TIP3    H269344   0.492   1.030   3.335  0.7495 -1.3664 -2.9323
15977TIP3   OH269345   2.326   5.148  14.316  0.6992  0.0393 -0.1648
15977TIP3    H169346   2.373   5.101  14.385 -0.9092 -1.5999 -0.0864
15977TIP3    H269347   2.233   5.136  14.339  0.1696  0.7769 -1.7839
15978TIP3   OH269348   4.613   6.685   4.591  0.4811  0.1007 -0.0194
15978TIP3    H169349   4.609   6.593   4.566 -0.4248 -0.0841  0.7234
15978TIP3    H269350   4.676   6.687   4.663 -0.2477 -0.1234  0.6402
15979TIP3   OH269351   6.605   4.430  10.789 -0.3633 -0.2835  0.0022
15979TIP3    H169352   6.664   4.497  10.754 -0.3083  0.3112  1.1809
15979TIP3    H269353   6.615   4.356  10.729  4.0949 -1.5052  1.7837
15980TIP3   OH269354   0.632   2.328  14.329  0.3220 -0.5599 -0.3446
15980TIP3    H169355   0.603   2.313  14.419  1.3555 -1.8449 -0.1950
15980TIP3    H269356   0.620   2.422  14.316 -0.8757 -0.5298  0.7562
15981TIP3   OH269357   1.886   5.699  12.864 -0.5966 -1.0366  0.3635
15981TIP3    H169358   1.864   5.677  12.773  0.1936 -0.8567  0.1145
15981TIP3    H269359   1.883   5.794  12.867  0.5153 -0.9782  0.2004
15982TIP3   OH269360   2.862   6.554  14.913  0.5314  0.3069 -0.4057
15982TIP3    H169361   2.861   6.587  14.823 -0.9482 -0.0368 -0.5437
15982TIP3    H269362   2.930   6.487  14.914 -1.3691 -1.8092 -2.1085
15983TIP3   OH269363   4.649   1.151  16.392  0.1438  0.2177  0.8099
15983TIP3    H169364   4.738   1.171  16.365  0.4434  0.4567  1.9559
15983TIP3    H269365   4.622   1.080  16.334  0.7551  0.7395 -0.1367
15984TIP3   OH269366   3.911   6.596  16.535  0.2001  0.1203 -0.3944
15984TIP3    H169367   3.831   6.552  16.562 -0.8133  2.0686 -0.0718
15984TIP3    H269368   3.980   6.552  16.585 -0.7038 -1.1903 -0.2319
15985TIP3   OH269369   1.257   3.041  16.897  0.4052  0.1187 -0.3707
15985TIP3    H169370   1.245   2.970  16.960  1.3998 -0.3591 -0.6970
15985TIP3    H269371   1.190   3.105  16.920 -0.5778 -0.9580 -0.1268
15986TIP3   OH269372   1.933   0.102   0.571  0.3581  0.0051  0.2869
15986TIP3    H169373   1.998   0.170   0.593  0.2383  0.4771 -0.7563
15986TIP3    H269374   1.982   0.020   0.574  1.5950  0.5319 -2.5727
15987TIP3   OH269375   4.279   1.516  15.986  0.3915 -0.0263  0.0607
15987TIP3    H169376   4.299   1.573  16.061 -2.9041  1.3381  0.0781
15987TIP3    H269377   4.323   1.558  15.912 -0.8301  1.8931  0.3294
15988TIP3   OH269378   6.740   4.131   3.972 -0.2833 -0.4366  0.0076
15988TIP3    H169379   6.810   4.184   4.010  0.4715 -1.6011  0.2844
15988TIP3    H269380   6.698   4.090   4.047  0.5631 -1.9453 -0.3052
15989TIP3   OH269381   2.753   5.137   3.469  0.4830  0.4004  0.5878
15989TIP3    H169382   2.789   5.109   3.553  2.7014 -0.7170 -0.6275
15989TIP3    H269383   2.703   5.061   3.439  0.6684  0.3558  0.3900
15990TIP3   OH269384   0.981   0.441   3.414 -0.5786 -0.4052 -1.2722
15990TIP3    H169385   0.992   0.532   3.440 -0.1182 -0.6126 -0.7289
15990TIP3    H269386   0.930   0.401   3.484 -1.2244 -0.4493 -1.7590
15991TIP3   OH269387   1.132   6.226   5.559  0.7491  0.4708  0.3395
15991TIP3    H169388   1.201   6.269   5.509  0.0292 -1.0351 -2.1363
15991TIP3    H269389   1.174   6.147   5.595  0.2656 -0.7791 -1.6918
15992TIP3   OH269390   0.043   5.843  11.609 -0.3793 -1.0461 -0.1978
15992TIP3    H169391   0.085   5.913  11.658  2.3240 -1.3477 -1.8636
15992TIP3    H269392  -0.045   5.876  11.588  0.0328  0.8907  0.9268
15993TIP3   OH269393   1.031   3.054  13.978  0.0861  0.0383 -0.7519
15993TIP3    H169394   0.977   2.978  13.957 -0.2146  0.5183 -1.7781
15993TIP3    H269395   1.073   3.031  14.061 -0.9900 -0.7123 -0.3882
15994TIP3   OH269396   1.115   1.512  11.227 -0.1126 -0.2237  0.3072
15994TIP3    H169397   1.179   1.572  11.188  0.0835 -1.2295 -0.9574
15994TIP3    H269398   1.037   1.521  11.172 -0.1849 -0.8894  0.2946
15995TIP3   OH269399   3.874   3.083  10.411 -0.5251 -0.6024  0.2245
15995TIP3    H169400   3.903   3.169  10.442 -1.9061 -0.7654  2.1328
15995TIP3    H269401   3.779   3.092  10.402 -0.3214 -0.6657 -3.9264
15996TIP3   OH269402   2.342   4.286  10.325 -0.0859 -0.0568  0.0578
15996TIP3    H169403   2.393   4.330  10.393 -1.7174 -0.7293  1.8076
15996TIP3    H269404   2.366   4.194  10.333  0.0659 -0.0792 -0.6090
15997TIP3   OH269405   6.463   0.714  12.989  0.8251  0.5671 -0.1916
15997TIP3    H169406   6.376   0.674  12.991  0.2236  1.7572 -0.9747
15997TIP3    H269407   6.502   0.693  13.074  0.2770 -1.0541 -0.3206
15998TIP3   OH269408   4.967   3.097   5.098 -0.4523 -0.1606  0.3697
15998TIP3    H169409   4.995   3.168   5.040 -1.1449  0.8433  1.2332
15998TIP3    H269410   4.879   3.074   5.066  0.0393 -1.1230 -0.3390
15999TIP3   OH269411   2.169   6.590  15.342 -0.4576 -0.6246  0.1346
15999TIP3    H169412   2.131   6.519  15.395 -0.5738 -0.7156 -0.0712
15999TIP3    H269413   2.252   6.555  15.312 -0.7755 -0.8911 -0.4437
16000TIP3   OH269414   6.735   0.428   1.122  0.6302 -0.0386  0.8742
16000TIP3    H169415   6.767   0.409   1.034  0.9105 -0.8982  1.1556
16000TIP3    H269416   6.785   0.505   1.149 -0.7703  1.4051 -0.4151
16001TIP3   OH269417   1.640   0.261   2.736 -0.4262  0.1273 -0.3413
16001TIP3    H169418   1.584   0.325   2.779 -1.0881 -1.0445  0.6058
16001TIP3    H269419   1.585   0.224   2.666 -1.8599 -2.7478  2.0705
16002TIP3   OH269420   2.277   0.950  13.020 -0.3565 -0.0684  0.3675
16002TIP3    H169421   2.192   0.981  12.989 -0.4507 -0.8415 -0.1859
16002TIP3    H269422   2.261   0.861  13.051  0.6348 -1.1241 -1.8807
16003TIP3   OH269423   6.503   0.922  12.758  0.3230 -0.2657 -0.2443
16003TIP3    H169424   6.598   0.935  12.766  0.3126 -0.5951  0.5179
16003TIP3    H269425   6.482   0.857  12.826 -0.4400 -0.2274 -0.4366
16004TIP3   OH269426   5.248   6.579   2.495 -0.0307 -0.4390 -0.2612
16004TIP3    H169427   5.208   6.509   2.443  0.0957 -1.0895  0.4917
16004TIP3    H269428   5.342   6.563   2.489  0.1822  1.1915 -2.1731
16005TIP3   OH269429   5.311   5.864  10.387  0.1010 -0.1757 -0.1250
16005TIP3    H169430   5.299   5.834  10.477  1.1531  1.7663  0.7316
16005TIP3    H269431   5.223   5.888  10.357 -0.0564  0.8583  1.0639
16006TIP3   OH269432   0.276   0.127   1.117  0.2190  0.2085 -0.3434
16006TIP3    H169433   0.320   0.042   1.126 -2.8004 -1.4716 -0.2328
16006TIP3    H269434   0.313   0.179   1.189  0.3490 -1.8820  1.2281
16007TIP3   OH269435   3.113   1.198  11.488 -0.4551  0.3554 -0.6296
16007TIP3    H169436   3.116   1.181  11.582  1.2045 -0.2218 -0.7408
16007TIP3    H269437   3.090   1.290  11.480 -1.0174  0.3042  0.3237
16008TIP3   OH269438   0.414   0.169   1.923  0.4137  0.4502 -0.2189
16008TIP3    H169439   0.459   0.123   1.994 -0.5680  2.2812  1.7215
16008TIP3    H269440   0.331   0.122   1.912  1.2560 -0.8328 -1.3767
16009TIP3   OH269441   3.838   2.084   0.776 -0.1245  0.1714  0.1476
16009TIP3    H169442   3.931   2.093   0.754  0.4091 -2.4640  1.0146
16009TIP3    H269443   3.794   2.082   0.691  0.5385  1.6473 -0.2699
16010TIP3   OH269444   0.359   0.139  13.885 -0.0530 -0.1010  0.3412
16010TIP3    H169445   0.405   0.074  13.831  1.9198  0.4915  1.2113
16010TIP3    H269446   0.339   0.211  13.825 -0.2302 -0.5485 -0.1437
16011TIP3   OH269447   5.235   0.124  16.392 -0.3154 -0.0017 -0.3038
16011TIP3    H169448   5.296   0.089  16.328 -1.0567  2.2366 -2.3572
16011TIP3    H269449   5.274   0.207  16.419 -1.4054  0.4247 -0.0093
16012TIP3   OH269450   6.180   5.283   2.587 -0.3144  0.2710 -0.1595
16012TIP3    H169451   6.212   5.247   2.504 -1.3098 -1.8187  0.3094
16012TIP3    H269452   6.098   5.326   2.565 -0.2705  0.2594 -0.3469
16013TIP3   OH269453   4.144   4.558   0.069 -0.1495  0.5209  0.1447
16013TIP3    H169454   4.211   4.585   0.132 -0.4340 -0.4175  0.8766
16013TIP3    H269455   4.061   4.586   0.109 -0.1926  2.0635 -0.9559
16014TIP3   OH269456   3.569   5.892  10.577 -0.1082  0.7765  0.2710
16014TIP3    H169457   3.659   5.902  10.609  0.6221 -1.7413 -0.7247
16014TIP3    H269458   3.570   5.932  10.490  0.5058 -0.4947 -0.3377
16015TIP3   OH269459   1.801   3.489  11.470  0.5148  0.0196  0.2268
16015TIP3    H169460   1.840   3.410  11.508 -1.1136 -0.7050  0.4860
16015TIP3    H269461   1.841   3.561  11.519  1.2972 -0.6899  0.6647
16016TIP3   OH269462   1.818   4.668   1.394 -0.0226  0.0855 -0.4915
16016TIP3    H169463   1.724   4.673   1.374 -0.0860  2.3106  0.0624
16016TIP3    H269464   1.857   4.629   1.316 -1.3029  0.1468 -1.1876
16017TIP3   OH269465   0.632   6.685  16.824  0.0432 -0.9060  0.9493
16017TIP3    H169466   0.564   6.622  16.802  0.8000 -0.7430 -2.3085
16017TIP3    H269467   0.714   6.637  16.813  0.6005  0.3107 -0.7760
16018TIP3   OH269468   3.530   2.775  11.770 -0.0483  0.1610  0.1124
16018TIP3    H169469   3.435   2.780  11.757  0.1210 -0.4079 -1.6578
16018TIP3    H269470   3.565   2.849  11.721  0.4041  0.7665  1.3191
16019TIP3   OH269471   1.951   1.411   4.089  0.2699  0.4936 -0.4720
16019TIP3    H169472   1.945   1.358   4.009 -0.8859  0.9404 -0.7085
16019TIP3    H269473   2.040   1.398   4.119  0.0837 -1.5165 -0.5841
16020TIP3   OH269474   3.859   2.532  15.195 -0.0934  0.3596 -0.4233
16020TIP3    H169475   3.872   2.467  15.264 -1.0443 -0.6244 -1.1364
16020TIP3    H269476   3.938   2.585  15.196  0.4905 -0.5032  0.5054
16021TIP3   OH269477   0.266   6.682  13.980  0.1303  0.1180 -0.0057
16021TIP3    H169478   0.210   6.737  13.925 -0.7521 -1.0924 -0.3497
16021TIP3    H269479   0.266   6.596  13.936  0.4380 -0.5195  1.2085
16022TIP3   OH269480   3.416   4.906  15.317 -0.0621 -0.1460 -0.2499
16022TIP3    H169481   3.356   4.935  15.248 -0.5514 -1.2844 -0.3220
16022TIP3    H269482   3.428   4.984  15.372  0.7984  0.9618 -1.9241
16023TIP3   OH269483   1.423   1.080  12.316 -0.0770 -0.1883  0.2147
16023TIP3    H169484   1.472   1.101  12.396  0.7507  2.1246 -0.8220
16023TIP3    H269485   1.371   1.158  12.299  1.7677  0.5046 -2.9262
16024TIP3   OH269486   2.183   2.913  13.259 -0.4379 -0.0911 -0.1793
16024TIP3    H169487   2.205   3.006  13.255  1.7566 -0.4635  1.4350
16024TIP3    H269488   2.095   2.907  13.221 -0.4269  2.5463 -0.7764
16025TIP3   OH269489   2.608   3.452   1.009  0.0994 -0.0263 -0.1649
16025TIP3    H169490   2.520   3.418   1.030 -0.0242  0.6960  0.5056
16025TIP3    H269491   2.653   3.377   0.971 -0.2140 -0.9413  1.1796
16026TIP3   OH269492   1.222   5.047   4.680 -0.4734  0.8965  0.1991
16026TIP3    H169493   1.213   4.966   4.732  0.9755  0.1005 -0.7204
16026TIP3    H269494   1.285   5.099   4.730  1.4812 -0.1750 -1.0224
16027TIP3   OH269495   4.456   5.920   2.635 -0.0381  0.0484  0.0564
16027TIP3    H169496   4.512   5.928   2.558  0.5901  0.1315  0.5078
16027TIP3    H269497   4.383   5.866   2.607  1.0226 -1.3126 -0.1501
16028TIP3   OH269498   0.713   0.938  10.778 -0.1271  0.4963  0.5593
16028TIP3    H169499   0.723   1.025  10.739  0.0755  0.7818  1.2171
16028TIP3    H269500   0.779   0.937  10.848  1.8677 -1.2281 -1.2068
16029TIP3   OH269501   6.419   0.018   6.641 -0.1457  0.0217  0.4561
16029TIP3    H169502   6.444   0.059   6.559 -3.6854 -1.3043 -1.5192
16029TIP3    H269503   6.478  -0.056   6.651  0.8968  0.7166 -0.3918
16030TIP3   OH269504   5.532   3.441  11.887  0.3546 -0.0268  0.6575
16030TIP3    H169505   5.602   3.375  11.885  0.2441 -0.1829  1.5737
16030TIP3    H269506   5.468   3.410  11.822  0.7625 -0.2927  0.3727
16031TIP3   OH269507   6.185   0.302   2.436  0.2110 -0.3429 -0.2523
16031TIP3    H169508   6.100   0.267   2.461 -0.1714  0.6935 -0.0228
16031TIP3    H269509   6.239   0.293   2.514  1.3704 -3.9134 -1.2721
16032TIP3   OH269510   1.047   1.581  11.888 -0.5193  0.0180  0.1867
16032TIP3    H169511   1.110   1.625  11.831  0.1376  0.7115  1.4108
16032TIP3    H269512   1.017   1.506  11.837 -0.0535  0.6943 -1.1131
16033TIP3   OH269513   0.952   0.239  15.683 -0.0347 -0.1556  0.1432
16033TIP3    H169514   0.977   0.318  15.732  2.6580 -0.5900 -0.3710
16033TIP3    H269515   0.959   0.266  15.591  1.1463 -1.0335 -0.0386
16034TIP3   OH269516   2.282   4.010  15.453  0.0999 -0.4114 -0.0728
16034TIP3    H169517   2.294   4.099  15.418  1.5175 -0.0810  1.1134
16034TIP3    H269518   2.371   3.976  15.462 -0.3514 -1.4442  0.7294
16035TIP3   OH269519   0.811   5.495   1.546 -0.2026 -0.1997 -0.9116
16035TIP3    H169520   0.732   5.478   1.597 -0.1642  1.1888 -0.3488
16035TIP3    H269521   0.787   5.468   1.457 -1.0323 -0.5412 -0.6011
16036TIP3   OH269522   5.059   0.766   5.734 -0.1427 -0.3044 -0.1029
16036TIP3    H169523   5.006   0.687   5.741 -1.0782  0.2623 -0.6654
16036TIP3    H269524   5.126   0.757   5.802 -0.2578 -1.5566 -0.1429
16037TIP3   OH269525   4.963   5.744  14.679  0.0642  0.5315 -0.0595
16037TIP3    H169526   5.046   5.791  14.686 -0.1167  0.7164  0.9143
16037TIP3    H269527   4.963   5.683  14.753  0.2654 -0.9811 -1.2348
16038TIP3   OH269528   4.147   4.114   2.665 -0.1534  0.4249 -0.5059
16038TIP3    H169529   4.158   4.020   2.655  2.2028  0.4529  1.0693
16038TIP3    H269530   4.082   4.124   2.735 -0.4024 -0.0312 -0.6729
16039TIP3   OH269531   3.476   4.604   4.236 -0.5430 -0.6639 -0.5279
16039TIP3    H169532   3.455   4.678   4.179 -0.8061 -1.0268 -0.9090
16039TIP3    H269533   3.571   4.594   4.228 -0.2269  0.7470  0.9099
16040TIP3   OH269534   3.855   1.191  11.913  0.1877  0.8386 -0.1405
16040TIP3    H169535   3.942   1.223  11.887  0.1909  0.3608 -0.7467
16040TIP3    H269536   3.843   1.110  11.863  0.2370 -0.2045  1.5006
16041TIP3   OH269537   6.307   2.651   2.840 -0.0463 -0.0175  0.5947
16041TIP3    H169538   6.351   2.722   2.887  1.5885  0.4722 -1.5685
16041TIP3    H269539   6.320   2.671   2.748 -0.9185 -2.3268 -0.0960
16042TIP3   OH269540   5.037   4.113  13.663 -0.7179 -0.4275 -0.6163
16042TIP3    H169541   5.044   4.180  13.595 -2.5846  0.8157  0.3289
16042TIP3    H269542   5.000   4.037  13.618 -0.2267 -0.2381 -1.3537
16043TIP3   OH269543   3.354   0.783   0.013 -0.0649  0.1456  0.0872
16043TIP3    H169544   3.335   0.696   0.048  0.2332 -0.5090 -1.2786
16043TIP3    H269545   3.415   0.766  -0.060 -0.7322  1.3957 -0.8025
16044TIP3   OH269546   2.280   4.121  17.075  0.0939 -0.2113  0.4340
16044TIP3    H169547   2.203   4.067  17.056  1.1602 -2.0927  1.1787
16044TIP3    H269548   2.269   4.198  17.020 -2.3369 -0.3885  0.5511
16045TIP3   OH269549   6.774   5.715  14.520 -0.1707 -0.6668  0.0521
16045TIP3    H169550   6.782   5.758  14.605  0.2905 -0.3264 -0.1570
16045TIP3    H269551   6.694   5.751  14.482 -0.9140 -1.5449  0.7394
16046TIP3   OH269552   3.805   4.258  11.650  0.7304  0.3475  0.0823
16046TIP3    H169553   3.812   4.353  11.643  1.4145  0.2218 -1.3489
16046TIP3    H269554   3.748   4.233  11.577 -1.1972 -0.1725  1.7131
16047TIP3   OH269555   2.696   2.374  15.001 -0.2995 -0.3000 -0.3771
16047TIP3    H169556   2.684   2.375  14.906  1.4180 -2.3709 -0.6814
16047TIP3    H269557   2.757   2.446  15.018 -1.1679  0.5444 -0.7017
16048TIP3   OH269558   2.042   4.112   6.846  0.0933  0.6431 -0.4291
16048TIP3    H169559   2.004   4.047   6.907 -1.0410 -0.7153 -2.4565
16048TIP3    H269560   2.136   4.104   6.859  0.0175 -1.6291 -0.7111
16049TIP3   OH269561   1.447   4.553  12.116  0.1777  0.1087 -0.4477
16049TIP3    H169562   1.413   4.613  12.050 -0.8942  0.6471  0.5499
16049TIP3    H269563   1.410   4.468  12.093 -0.2423  0.3074 -0.5031
16050TIP3   OH269564   6.228   2.939  16.797 -0.1566 -0.2316 -0.0586
16050TIP3    H169565   6.233   3.022  16.845 -1.1457 -0.1144 -0.1421
16050TIP3    H269566   6.319   2.915  16.781  0.1961 -0.2208  1.7688
16051TIP3   OH269567   0.656   1.647   2.221 -0.8707 -0.1741 -0.3024
16051TIP3    H169568   0.689   1.591   2.150 -2.2364  0.0955 -1.1884
16051TIP3    H269569   0.563   1.658   2.201 -1.2084  0.2190  1.3449
16052TIP3   OH269570   3.358   1.135   4.327  0.7663 -0.3329 -0.6537
16052TIP3    H169571   3.362   1.070   4.397  1.6549 -0.1436 -0.5218
16052TIP3    H269572   3.266   1.163   4.326  0.5647 -0.9640 -0.1417
16053TIP3   OH269573   5.213   5.086   4.137  0.2547  0.4489 -0.4921
16053TIP3    H169574   5.167   5.044   4.064 -1.1290  2.1374 -0.6634
16053TIP3    H269575   5.302   5.100   4.105 -0.4937  1.7186 -2.1318
16054TIP3   OH269576   6.437   3.636  12.150  0.3192 -0.0924  0.1271
16054TIP3    H169577   6.444   3.629  12.054 -0.9722 -1.4423  0.1032
16054TIP3    H269578   6.414   3.728  12.165 -2.3866 -0.4723 -1.1162
16055TIP3   OH269579   3.417   3.735   5.804 -0.2047 -0.4202 -0.3272
16055TIP3    H169580   3.382   3.689   5.880 -0.0522  0.8772  0.5368
16055TIP3    H269581   3.487   3.790   5.838  0.5763 -0.5869 -1.5699
16056TIP3   OH269582   2.297   1.412   0.884 -0.0652 -0.3714 -0.0498
16056TIP3    H169583   2.253   1.334   0.851 -0.3163 -0.1892 -0.1471
16056TIP3    H269584   2.329   1.387   0.971 -1.4699 -0.1240  0.5702
16057TIP3   OH269585   5.142   3.084  11.231 -0.3282  0.2137  0.6160
16057TIP3    H169586   5.075   3.106  11.166 -1.0574  3.0012  2.1218
16057TIP3    H269587   5.119   2.997  11.261 -1.4582 -0.1063 -1.0356
16058TIP3   OH269588   2.516   4.627   3.157 -0.3141 -0.1036  0.2812
16058TIP3    H169589   2.537   4.720   3.147 -1.3533  0.1983  0.7952
16058TIP3    H269590   2.421   4.624   3.162 -0.2607 -1.1232  0.9881
16059TIP3   OH269591   1.828   0.234  16.696  0.0674  0.0808 -0.2195
16059TIP3    H169592   1.798   0.298  16.631 -1.4781  0.2969  0.6515
16059TIP3    H269593   1.765   0.243  16.768  1.6627 -0.2300  1.2579
16060TIP3   OH269594   2.570   3.235  13.692  0.2120  1.0935 -0.0662
16060TIP3    H169595   2.481   3.213  13.666  0.5621 -0.6571  0.1263
16060TIP3    H269596   2.624   3.216  13.615  0.8898 -1.5686  0.9695
16061TIP3   OH269597   4.664   1.360  13.790  0.1073 -0.1492 -0.2388
16061TIP3    H169598   4.694   1.448  13.813  2.1873 -0.2206 -2.3107
16061TIP3    H269599   4.569   1.367  13.789  0.1831  1.7287  0.8467
16062TIP3   OH269600   1.650   0.693   6.516  0.2591 -0.0997 -0.0008
16062TIP3    H169601   1.654   0.675   6.609  1.7826 -1.8053 -0.3484
16062TIP3    H269602   1.740   0.684   6.485 -0.3383 -0.5274 -1.7827
16063TIP3   OH269603   4.731   0.970   4.466  0.0428 -0.0450  0.0052
16063TIP3    H169604   4.791   1.038   4.494  1.1215 -0.5727 -0.9472
16063TIP3    H269605   4.739   0.968   4.371  0.8652 -2.2021  0.0681
16064TIP3   OH269606   5.109   2.585  13.758 -0.1779 -0.3625 -0.1109
16064TIP3    H169607   5.130   2.661  13.703  1.1568  1.8583  3.1384
16064TIP3    H269608   5.191   2.534  13.760 -0.3806 -0.7132 -0.5193
16065TIP3   OH269609   5.711   4.043  15.235 -0.5317 -0.2185  0.6977
16065TIP3    H169610   5.693   4.137  15.237 -0.8073 -0.2791  1.8318
16065TIP3    H269611   5.752   4.025  15.319  1.8023 -0.7016 -0.4555
16066TIP3   OH269612   0.236   6.320   4.152  0.0135 -0.7753  0.3309
16066TIP3    H169613   0.203   6.250   4.209  0.0112 -0.1750  1.0752
16066TIP3    H269614   0.190   6.307   4.069  0.6076 -2.1608  0.1789
16067TIP3   OH269615   5.970   0.852   0.379 -0.7740 -0.7813 -0.0458
16067TIP3    H169616   6.017   0.846   0.296 -0.0889 -0.1447  0.2829
16067TIP3    H269617   6.036   0.832   0.446 -1.1472 -0.6233  0.3748
16068TIP3   OH269618   0.408   2.061   4.217  0.1839  0.1007  0.2594
16068TIP3    H169619   0.390   1.971   4.191 -0.9154  0.0569  1.0855
16068TIP3    H269620   0.322   2.096   4.241  0.6783  1.1980  0.4630
16069TIP3   OH269621   1.345   4.284  12.112 -0.7104  0.5320 -1.0977
16069TIP3    H169622   1.335   4.234  12.031 -0.5578 -0.0650 -0.7593
16069TIP3    H269623   1.337   4.218  12.181  2.4734  0.4581 -0.6874
16070TIP3   OH269624   3.091   2.551  12.171  0.4917 -0.7644 -0.2894
16070TIP3    H169625   3.046   2.635  12.177 -0.3342 -1.3008  2.0272
16070TIP3    H269626   3.055   2.510  12.092 -1.2748 -0.1477  0.1610
16071TIP3   OH269627   5.413   0.398  14.646 -0.3298 -0.3745  0.2854
16071TIP3    H169628   5.344   0.462  14.629 -0.0190 -0.0975  0.0480
16071TIP3    H269629   5.401   0.331  14.579  0.0911  0.0556 -0.2333
16072TIP3   OH269630   1.650   5.943   4.158  0.2927 -0.1904  0.1040
16072TIP3    H169631   1.579   5.922   4.097  0.0952  0.0937  0.2339
16072TIP3    H269632   1.676   6.033   4.135  0.9659 -0.4732 -0.2878
16073TIP3   OH269633   6.376   1.974   2.290  0.1582 -0.1035 -0.4831
16073TIP3    H169634   6.385   2.051   2.345 -0.4644 -0.3376 -0.0428
16073TIP3    H269635   6.384   2.007   2.201 -2.8695  0.9236 -0.4651
16074TIP3   OH269636   6.077   1.841  16.045  0.1353 -0.3918 -0.3539
16074TIP3    H169637   6.090   1.883  15.960  1.5582 -0.5311 -0.2404
16074TIP3    H269638   6.135   1.889  16.105 -0.9657 -0.1966  0.5808
16075TIP3   OH269639   2.038   0.499  16.577  0.1344 -0.2679  0.0842
16075TIP3    H169640   1.993   0.494  16.493 -0.2455 -3.7760  0.3591
16075TIP3    H269641   1.972   0.474  16.642  0.3240  2.6828  1.5829
16076TIP3   OH269642   0.943   5.040  12.886 -0.0693 -0.5268 -0.4837
16076TIP3    H169643   1.001   4.992  12.827  0.6662 -1.6064  1.0747
16076TIP3    H269644   0.855   5.022  12.852  0.2392 -2.4369 -0.3483
16077TIP3   OH269645   0.430   0.168  13.100 -0.5121  0.0877  0.3599
16077TIP3    H169646   0.369   0.189  13.170 -1.5371  0.5680 -0.6532
16077TIP3    H269647   0.399   0.218  13.024  0.6306 -0.3252 -0.4167
16078TIP3   OH269648   2.409   5.723  13.361  0.0097  0.1654  0.4844
16078TIP3    H169649   2.370   5.754  13.279 -0.4347 -2.0275 -0.2152
16078TIP3    H269650   2.431   5.802  13.409  1.4455  1.5884 -2.2736
16079TIP3   OH269651   0.808   0.712   0.088 -0.0200 -0.5301  0.3772
16079TIP3    H169652   0.869   0.644   0.061 -1.7038 -1.1700 -2.2286
16079TIP3    H269653   0.733   0.665   0.124 -0.9521 -0.1127 -0.9090
16080TIP3   OH269654   6.670   0.844  11.065 -0.4837  0.1494  0.6967
16080TIP3    H169655   6.651   0.795  11.145 -2.0059 -0.1140  0.2075
16080TIP3    H269656   6.598   0.906  11.057 -1.6196 -1.3188 -1.6035
16081TIP3   OH269657   2.295   6.489  12.499  0.6901 -0.8199  0.2351
16081TIP3    H169658   2.277   6.575  12.539  1.2755 -0.1794 -0.8283
16081TIP3    H269659   2.269   6.426  12.566 -3.6591 -0.0072 -0.4313
16082TIP3   OH269660   0.653   1.833   2.657  0.5682 -0.4650  0.3587
16082TIP3    H169661   0.711   1.898   2.617 -0.8373  1.3325  1.0892
16082TIP3    H269662   0.586   1.817   2.591 -2.9056  3.9996  2.2790
16083TIP3   OH269663   5.238   3.390   4.682  0.7944 -0.3385 -1.0651
16083TIP3    H169664   5.198   3.333   4.617  0.9455 -2.9792  0.9991
16083TIP3    H269665   5.164   3.428   4.730  0.7057 -0.1033 -1.3895
16084TIP3   OH269666   6.142   2.726  11.334  0.1675  0.1158 -0.0125
16084TIP3    H169667   6.187   2.680  11.405 -1.1475 -1.0581  0.1140
16084TIP3    H269668   6.123   2.658  11.270 -1.6210  0.4936  0.0714
16085TIP3   OH269669   2.194   2.867  12.426  0.3559 -0.5922 -0.2724
16085TIP3    H169670   2.132   2.900  12.362  0.1940  1.0604  0.6611
16085TIP3    H269671   2.275   2.915  12.407  0.3673 -0.2514  0.5785
16086TIP3   OH269672   3.624   0.347  12.770 -0.4545  0.4132  0.0988
16086TIP3    H169673   3.615   0.274  12.709 -2.0066  1.0118 -0.4567
16086TIP3    H269674   3.673   0.414  12.722 -2.7086  1.3636 -1.0527
16087TIP3   OH269675   2.324   4.103  12.851  0.1849  0.4769  0.6079
16087TIP3    H169676   2.263   4.098  12.778  0.1028 -0.4797  0.7292
16087TIP3    H269677   2.268   4.113  12.928  0.2734  1.5477  0.5540
16088TIP3   OH269678   4.560   6.099  13.214  0.5339 -0.0336  0.0705
16088TIP3    H169679   4.547   6.005  13.231  2.4968 -0.4547 -0.5412
16088TIP3    H269680   4.610   6.130  13.290 -1.0746  0.8173  0.8292
16089TIP3   OH269681   1.847   5.807   1.686 -0.0858 -0.4310 -0.3826
16089TIP3    H169682   1.910   5.749   1.642  0.4507 -0.9414  0.9852
16089TIP3    H269683   1.867   5.796   1.779 -0.6230  1.2471 -0.0468
16090TIP3   OH269684   2.253   3.047  16.377 -0.1249 -0.3506  0.0162
16090TIP3    H169685   2.313   3.059  16.451 -1.2116  0.6416  0.7680
16090TIP3    H269686   2.166   3.056  16.415 -0.7158  2.0136 -1.6528
16091TIP3   OH269687   4.566   3.179  16.200  0.6575  0.0954 -0.2646
16091TIP3    H169688   4.657   3.182  16.230  0.6956 -2.1990 -0.0090
16091TIP3    H269689   4.570   3.133  16.116 -0.1516  1.0755 -0.8629
16092TIP3   OH269690   1.405   3.544   5.031 -0.4569 -0.0470  0.5336
16092TIP3    H169691   1.355   3.505   5.103  1.2965 -0.5387  1.5290
16092TIP3    H269692   1.401   3.638   5.047 -1.6700 -0.0183  0.1640
16093TIP3   OH269693   5.586   4.267  13.062 -0.5238  0.2440  0.5079
16093TIP3    H169694   5.604   4.193  13.004  0.2370 -0.2746  1.3720
16093TIP3    H269695   5.637   4.248  13.141 -0.1460  1.7953  0.6740
16094TIP3   OH269696   2.237   4.915  11.146  0.1249 -0.0130  0.1967
16094TIP3    H169697   2.294   4.939  11.073 -0.4417 -0.7127 -0.4928
16094TIP3    H269698   2.297   4.902  11.220  0.5639  2.2242  0.2983
16095TIP3   OH269699   0.266   6.144  12.024  0.0679  0.0141 -0.8013
16095TIP3    H169700   0.330   6.160  11.956  1.1571 -0.6558  0.0334
16095TIP3    H269701   0.310   6.169  12.105  0.4743 -3.2810  0.1432
16096TIP3   OH269702   1.133   5.340  13.873 -0.7642  0.2364 -0.0773
16096TIP3    H169703   1.043   5.347  13.842 -0.2837  1.8663 -1.3167
16096TIP3    H269704   1.152   5.246  13.873 -1.8604 -0.0217 -1.6909
16097TIP3   OH269705   4.793   0.600  13.389 -0.0555 -0.6085 -0.4604
16097TIP3    H169706   4.858   0.539  13.424 -0.9197  0.0334  2.4553
16097TIP3    H269707   4.818   0.685  13.422 -1.2455 -0.0264 -0.9900
16098TIP3   OH269708   0.809   4.200  16.281  0.5542  0.2731  0.3715
16098TIP3    H169709   0.844   4.163  16.200  0.3231 -0.3286  0.5414
16098TIP3    H269710   0.886   4.235  16.326  0.6449  0.9064 -0.2502
16099TIP3   OH269711   3.195   1.488  12.435  0.4062 -0.1131  0.0785
16099TIP3    H169712   3.206   1.455  12.525  2.3548  2.7405  1.0284
16099TIP3    H269713   3.240   1.424  12.380  1.6603 -0.5093  1.4986
16100TIP3   OH269714   4.147   2.841  13.750  0.0564  0.1640 -0.7594
16100TIP3    H169715   4.119   2.869  13.837 -2.0479 -1.7235 -0.7185
16100TIP3    H269716   4.225   2.787  13.766 -1.0481 -1.2392  0.1808
16101TIP3   OH269717   6.537   2.299   6.220  0.2441 -0.3104 -0.2096
16101TIP3    H169718   6.507   2.335   6.304 -0.3056  0.3415 -0.6733
16101TIP3    H269719   6.464   2.246   6.189  0.6699 -1.0200 -0.0044
16102TIP3   OH269720   0.975   2.381   6.567  0.0522 -0.2054  0.1609
16102TIP3    H169721   0.900   2.323   6.561  0.6462 -0.9038 -1.0687
16102TIP3    H269722   1.050   2.326   6.545  0.6849  0.9138 -0.6585
16103TIP3   OH269723   4.085   0.185  14.273  0.0157  0.3925  0.7161
16103TIP3    H169724   4.117   0.193  14.183 -2.0939  0.2244 -0.1076
16103TIP3    H269725   4.146   0.124  14.315 -0.8826 -2.3429 -1.6385
16104TIP3   OH269726   5.300   2.043   4.670  0.7169  0.5265  0.4610
16104TIP3    H169727   5.386   2.022   4.633  0.5010 -2.9250  1.5244
16104TIP3    H269728   5.247   1.965   4.654 -0.8205  0.7060  3.7925
16105TIP3   OH269729   5.857   5.721  12.413  0.3389 -0.0820  0.4050
16105TIP3    H169730   5.839   5.627  12.402 -1.6407  0.3763 -0.6654
16105TIP3    H269731   5.886   5.750  12.327  0.8042  0.3385  0.6952
16106TIP3   OH269732   4.905   4.215   2.129  0.0287 -0.1886  0.3515
16106TIP3    H169733   4.868   4.129   2.111 -2.0457  0.7633 -0.2381
16106TIP3    H269734   4.995   4.197   2.157  0.4297 -2.3660 -1.9954
16107TIP3   OH269735   2.653   6.217  12.999  0.0271 -0.1361 -0.6464
16107TIP3    H169736   2.689   6.292  12.953 -3.1388 -0.0717 -3.4099
16107TIP3    H269737   2.632   6.155  12.929  0.0027 -2.4740  1.3136
16108TIP3   OH269738   1.009   4.469   3.244 -0.2225 -0.1333  0.2803
16108TIP3    H169739   1.007   4.444   3.151 -0.2074  0.9995 -0.0381
16108TIP3    H269740   0.917   4.474   3.270 -0.3186  1.5147 -0.2476
16109TIP3   OH269741   4.105   4.831   2.910  0.1988  0.0702  0.1227
16109TIP3    H169742   4.057   4.777   2.848  1.5596 -1.0194 -0.0285
16109TIP3    H269743   4.183   4.860   2.863  2.3029 -2.4163  1.7888
16110TIP3   OH269744   5.379   0.733  14.242 -0.4314  0.0879  0.3281
16110TIP3    H169745   5.347   0.821  14.227  0.2893  0.0991 -1.3579
16110TIP3    H269746   5.462   0.746  14.289 -0.5084  0.2878  0.4099
16111TIP3   OH269747   3.828   1.886   1.646  0.1170 -0.4394  0.0323
16111TIP3    H169748   3.752   1.944   1.651  0.8274  0.5799 -0.7646
16111TIP3    H269749   3.833   1.847   1.734  0.0633  1.2680  0.8271
16112TIP3   OH269750   4.675   6.384   3.850 -0.3753  0.1115 -0.1869
16112TIP3    H169751   4.758   6.381   3.897 -0.7710 -2.2421  0.4946
16112TIP3    H269752   4.700   6.389   3.757  0.6650 -2.7391 -0.1548
16113TIP3   OH269753   3.398   1.349   3.700  0.3963 -0.0653  0.4416
16113TIP3    H169754   3.396   1.428   3.645  0.4550  0.4436  1.1525
16113TIP3    H269755   3.439   1.283   3.645 -0.2956  0.2001 -0.4250
16114TIP3   OH269756   4.768   2.443   0.932 -0.0364  0.3254  0.2747
16114TIP3    H169757   4.720   2.361   0.914  0.5528  0.2075 -0.8457
16114TIP3    H269758   4.700   2.504   0.961 -0.9840  0.2901 -1.6816
16115TIP3   OH269759   3.327   1.914   1.198 -0.1282  0.2498  0.0710
16115TIP3    H169760   3.286   1.947   1.118 -0.0584  1.7650  0.6224
16115TIP3    H269761   3.403   1.971   1.211 -0.0695 -0.0535  1.1557
16116TIP3   OH269762   5.595   6.665  13.931 -0.0939  0.1164 -0.4646
16116TIP3    H169763   5.637   6.685  14.015  0.1705 -0.7624 -0.3825
16116TIP3    H269764   5.663   6.680  13.865 -0.0551  0.0063 -0.4499
16117TIP3   OH269765   3.967   4.895   4.839 -0.3265 -0.3091 -0.2738
16117TIP3    H169766   4.001   4.975   4.799  1.0468 -0.4660  0.4819
16117TIP3    H269767   4.039   4.864   4.895 -1.7302 -0.7040  1.4138
16118TIP3   OH269768   1.467   5.593  15.938  0.0334  0.1738  0.3514
16118TIP3    H169769   1.394   5.655  15.934 -0.7902 -0.8334 -1.2646
16118TIP3    H269770   1.540   5.639  15.896 -0.6149  0.0307 -0.9735
16119TIP3   OH269771   2.647   0.192   1.764 -0.2714  0.1378  0.5286
16119TIP3    H169772   2.558   0.167   1.789  0.3205 -1.2588  1.3783
16119TIP3    H269773   2.682   0.115   1.719  0.0844  1.1544 -0.9911
16120TIP3   OH269774   5.938   5.978   3.079 -0.0916  0.1710 -0.1375
16120TIP3    H169775   5.855   6.004   3.038  0.5469  2.0906 -0.3109
16120TIP3    H269776   5.940   6.026   3.162  0.4716 -0.5275  0.2686
16121TIP3   OH269777   3.887   3.988  13.561  0.6736 -0.6254 -0.0534
16121TIP3    H169778   3.949   3.926  13.523  0.7088  1.4664 -3.8641
16121TIP3    H269779   3.808   3.935  13.578  1.5309 -2.1915 -0.7484
16122TIP3   OH269780   4.118   3.616   3.741  0.4591 -0.3252 -0.2045
16122TIP3    H169781   4.158   3.529   3.747 -2.5516 -1.8069  0.4426
16122TIP3    H269782   4.123   3.651   3.830  4.0750  1.4976 -0.9501
16123TIP3   OH269783   1.571   4.725   6.229  0.1759 -0.0645  0.1850
16123TIP3    H169784   1.589   4.681   6.312  0.6781 -0.7091 -0.2570
16123TIP3    H269785   1.559   4.655   6.166 -0.2105  0.4212 -0.2957
16124TIP3   OH269786   0.394   2.894   5.854  0.0563 -0.5391 -0.1185
16124TIP3    H169787   0.299   2.905   5.852  0.1132  0.0504  0.1663
16124TIP3    H269788   0.425   2.967   5.907  0.8244  0.4529 -1.8288
16125TIP3   OH269789   3.484   3.253  16.756  0.3957 -0.7017  0.2743
16125TIP3    H169790   3.558   3.196  16.778  0.5064 -0.2605  1.0595
16125TIP3    H269791   3.496   3.331  16.811 -0.3035 -0.3510 -0.0586
16126TIP3   OH269792   2.862   5.487  16.016 -0.5505  0.3595 -0.5358
16126TIP3    H169793   2.852   5.472  16.110  1.6649 -1.2183 -0.4736
16126TIP3    H269794   2.809   5.420  15.974  0.5079 -0.6316 -0.3436
16127TIP3   OH269795   5.405   0.157  15.228  0.3208 -0.3827  0.2293
16127TIP3    H169796   5.444   0.177  15.143  1.0813  0.7196  0.8090
16127TIP3    H269797   5.412   0.061  15.236  0.3246 -0.4815 -0.9035
16128TIP3   OH269798   5.269   3.916   4.345  0.1677  0.7191 -0.4766
16128TIP3    H169799   5.205   3.863   4.393 -0.0790  0.5899 -0.9466
16128TIP3    H269800   5.347   3.914   4.400 -0.3818  1.3036  0.3597
16129TIP3   OH269801   5.870   0.900  10.827 -0.0717  0.0098 -0.8179
16129TIP3    H169802   5.788   0.921  10.784  0.3882  1.7147 -0.9358
16129TIP3    H269803   5.882   0.806  10.812 -0.7553  0.2151 -2.9385
16130TIP3   OH269804   2.319   0.221  13.232  0.0142 -0.3581  0.1369
16130TIP3    H169805   2.345   0.133  13.203 -0.4046 -0.2064 -0.7501
16130TIP3    H269806   2.229   0.211  13.262 -0.2208 -0.1310 -0.4795
16131TIP3   OH269807   3.848   2.762   3.117  0.1470 -0.0970  0.2084
16131TIP3    H169808   3.842   2.714   3.034 -1.0089 -0.0507  0.2429
16131TIP3    H269809   3.792   2.713   3.177  0.1793  0.4348  0.6809
16132TIP3   OH269810   2.860   4.745   0.475 -0.0865 -0.4068 -0.3958
16132TIP3    H169811   2.845   4.792   0.393  0.7499 -1.7886 -1.3711
16132TIP3    H269812   2.774   4.713   0.500 -0.4482  0.5363 -0.3970
16133TIP3   OH269813   1.027   4.825  15.007  0.1745  0.0820  0.5590
16133TIP3    H169814   0.969   4.850  14.935 -1.1800 -0.7132  1.3167
16133TIP3    H269815   1.010   4.891  15.075  0.1828 -0.1339  0.7711
16134TIP3   OH269816   2.564   4.316   4.282  0.1433 -0.0495 -0.2857
16134TIP3    H169817   2.586   4.367   4.360  2.1390 -0.4059 -0.5449
16134TIP3    H269818   2.535   4.232   4.316  2.5316 -0.7856  0.1488
16135TIP3   OH269819   4.816   1.518   1.332 -0.1592  0.2481  0.6210
16135TIP3    H169820   4.905   1.484   1.325 -0.0947  0.2121  1.5207
16135TIP3    H269821   4.806   1.576   1.256  0.9993  1.0723  1.0744
16136TIP3   OH269822   0.605   4.553  15.773  0.3636 -0.3502 -0.0290
16136TIP3    H169823   0.580   4.464  15.794  1.4306 -1.1969 -2.0248
16136TIP3    H269824   0.700   4.548  15.756  0.2343  0.8893 -1.3188
16137TIP3   OH269825   1.795   6.773  11.696 -0.0096 -0.2129 -0.4783
16137TIP3    H169826   1.881   6.737  11.714  1.2634  2.4356 -0.7852
16137TIP3    H269827   1.773   6.824  11.774  0.0855  1.5357 -1.5423
16138TIP3   OH269828   2.287   2.201  11.983  0.1309 -0.4213 -0.0339
16138TIP3    H169829   2.222   2.249  11.933  0.2273 -0.8123 -0.5508
16138TIP3    H269830   2.256   2.204  12.074 -0.7417 -0.8229 -0.3119
16139TIP3   OH269831   5.509   0.906  12.931  0.3193 -0.4562 -0.3160
16139TIP3    H169832   5.416   0.909  12.910 -0.5834 -1.8698  2.9248
16139TIP3    H269833   5.540   0.823  12.896 -0.0183 -0.6536 -0.1491
16140TIP3   OH269834   4.030   3.173  14.247 -0.0484 -0.1009 -0.3401
16140TIP3    H169835   3.990   3.229  14.313 -2.9031 -1.4193 -0.7833
16140TIP3    H269836   4.033   3.086  14.288 -0.1233 -0.5620 -1.2757
16141TIP3   OH269837   2.122   4.338  15.045 -0.3705 -0.4134  0.0033
16141TIP3    H169838   2.127   4.416  14.990  1.8216 -0.1183  0.5459
16141TIP3    H269839   2.080   4.369  15.126  0.2872  0.1580  0.1316
16142TIP3   OH269840   1.375   5.058  12.607 -0.3478 -0.0840  0.3179
16142TIP3    H169841   1.332   5.056  12.692 -0.0756 -1.2219  0.4468
16142TIP3    H269842   1.386   4.966  12.583  0.2638  0.2072 -0.6029
16143TIP3   OH269843   0.542   3.443   3.009  0.0483 -0.3126  0.0423
16143TIP3    H169844   0.619   3.416   3.059 -0.3872 -0.0231  0.8803
16143TIP3    H269845   0.469   3.395   3.048 -0.4974  0.8742  0.5252
16144TIP3   OH269846   1.207   2.198  14.766 -0.5744 -0.1075  0.4758
16144TIP3    H169847   1.156   2.276  14.744 -2.0401 -1.3997 -0.9630
16144TIP3    H269848   1.215   2.201  14.862 -1.1324  1.4628  0.4940
16145TIP3   OH269849   4.919   0.856   0.327  0.2915 -0.3291 -0.1480
16145TIP3    H169850   4.830   0.877   0.299  1.0321  0.8957 -1.7693
16145TIP3    H269851   4.960   0.817   0.250  1.2022 -0.7667  0.5331
16146TIP3   OH269852   1.425   0.509  14.661  0.2642 -0.0992  0.4976
16146TIP3    H169853   1.490   0.449  14.626  1.5224  2.5009 -2.1373
16146TIP3    H269854   1.368   0.528  14.586 -2.5716 -0.9687  2.2919
16147TIP3   OH269855   4.362   2.710  15.370  0.3458 -0.0458  0.2411
16147TIP3    H169856   4.332   2.798  15.346  0.9378 -0.1775 -1.0876
16147TIP3    H269857   4.451   2.723  15.402  0.7834 -0.2492 -0.8528
16148TIP3   OH269858   6.397   1.181   2.721 -0.1741 -0.2904  0.6194
16148TIP3    H169859   6.428   1.209   2.807 -2.1969  1.1785  0.9547
16148TIP3    H269860   6.384   1.263   2.672 -0.9356 -0.9725 -0.3763
16149TIP3   OH269861   0.433   2.271  14.142 -0.0941  0.5867 -0.0599
16149TIP3    H169862   0.519   2.271  14.186 -0.0461  1.1101 -0.1515
16149TIP3    H269863   0.443   2.332  14.069 -0.1751 -0.2789 -0.8184
16150TIP3   OH269864   5.495   3.207  15.636 -0.2847  0.4115  0.4025
16150TIP3    H169865   5.482   3.296  15.667  0.2462  0.9814 -0.9317
16150TIP3    H269866   5.434   3.154  15.687 -1.0540  1.6291  0.7777
16151TIP3   OH269867   5.813   3.119  11.903  0.3720  0.0259  0.4732
16151TIP3    H169868   5.799   3.213  11.898  1.8418  0.3064  1.3408
16151TIP3    H269869   5.793   3.087  11.814  1.1095  1.3224 -0.1770
16152TIP3   OH269870   4.190   4.504  14.313  0.3019  0.0661 -0.0053
16152TIP3    H169871   4.123   4.492  14.380  0.0316 -0.5283 -0.3807
16152TIP3    H269872   4.225   4.592  14.330 -0.4148  0.2924  0.3257
16153TIP3   OH269873   6.232   4.597  12.554 -0.1663  0.0110  0.0990
16153TIP3    H169874   6.169   4.554  12.497 -0.6534 -1.4173  1.6182
16153TIP3    H269875   6.193   4.591  12.641 -0.2750  3.6705  0.4326
16154TIP3   OH269876   0.928   2.640  12.635  0.8437  0.4054  0.5780
16154TIP3    H169877   1.018   2.671  12.625  0.7593  0.6746  0.6637
16154TIP3    H269878   0.887   2.703  12.693  0.5221  0.4275  0.3289
16155TIP3   OH269879   6.063   2.865  14.618  0.1115 -0.3054  0.3969
16155TIP3    H169880   6.075   2.776  14.587 -2.1590 -1.1974  1.8221
16155TIP3    H269881   6.078   2.920  14.542 -0.0586 -2.0179 -0.9216
16156TIP3   OH269882   0.715   0.370  16.454 -0.3119 -0.3960 -0.1133
16156TIP3    H169883   0.757   0.285  16.437  0.5166  0.0467 -0.3260
16156TIP3    H269884   0.786   0.426  16.487 -0.9477  0.0837  0.4811
16157TIP3   OH269885   6.183   1.370   1.275  0.5000  0.4314  0.3536
16157TIP3    H169886   6.142   1.445   1.318  1.0910  1.1254 -0.2684
16157TIP3    H269887   6.135   1.295   1.308 -0.1777  1.0900  0.9121
16158TIP3   OH269888   3.022   5.165   2.300 -0.6469 -0.3148  0.3592
16158TIP3    H169889   2.982   5.078   2.298 -0.9832 -0.1515 -0.0658
16158TIP3    H269890   2.952   5.222   2.333 -0.1348 -0.3524  1.5740
16159TIP3   OH269891   2.467   0.394  15.364 -0.2042  0.1640 -0.2311
16159TIP3    H169892   2.494   0.354  15.281  0.6078 -0.2337  0.2158
16159TIP3    H269893   2.372   0.398  15.358 -0.1375  0.4899 -1.3433
16160TIP3   OH269894   1.647   0.997  13.727  0.9723  0.0681  0.2240
16160TIP3    H169895   1.676   1.023  13.815  1.8993  1.1636 -0.3815
16160TIP3    H269896   1.555   0.975  13.738  0.7942  1.2175  1.2786
16161TIP3   OH269897   3.362   3.688   2.371  0.1519 -0.3801  0.4533
16161TIP3    H169898   3.398   3.600   2.368  0.2313 -0.3662  0.8587
16161TIP3    H269899   3.411   3.737   2.305  0.8247 -0.3802  0.9425
16162TIP3   OH269900   3.792   1.824  13.265  0.1774  0.1715  0.7018
16162TIP3    H169901   3.856   1.815  13.194 -0.1148  1.0466  0.3100
16162TIP3    H269902   3.738   1.898  13.239 -0.2174  0.2272  1.6351
16163TIP3   OH269903   1.432   5.860  15.228  0.1064  0.2788 -0.0825
16163TIP3    H169904   1.384   5.780  15.206 -0.7375  0.9421 -0.7548
16163TIP3    H269905   1.518   5.830  15.256  0.4742 -0.7697 -2.1866
16164TIP3   OH269906   6.199   5.086  12.761  1.3191  0.5246 -0.2963
16164TIP3    H169907   6.252   5.039  12.696  0.7644  1.4343 -1.4444
16164TIP3    H269908   6.229   5.176  12.755 -0.5994  1.1493 -1.2775
16165TIP3   OH269909   5.238   4.420   4.883 -0.0592 -0.0977  0.4025
16165TIP3    H169910   5.281   4.365   4.948  0.2934 -0.3784 -0.0639
16165TIP3    H269911   5.274   4.507   4.898 -0.0409 -0.1461  0.6370
16166TIP3   OH269912   5.668   3.376   5.249 -0.0318 -0.1256  0.0311
16166TIP3    H169913   5.719   3.438   5.301 -2.7864  1.5480  0.9332
16166TIP3    H269914   5.707   3.290   5.269  1.8337  0.9416  1.2958
16167TIP3   OH269915   5.072   0.744  16.141  0.2733 -0.2261 -0.3255
16167TIP3    H169916   5.116   0.684  16.201 -1.0187 -0.9178 -0.0403
16167TIP3    H269917   4.979   0.740  16.166  0.0608  1.4467 -0.6826
16168TIP3   OH269918   2.766   4.622   3.502  0.8116 -0.2122 -0.0548
16168TIP3    H169919   2.845   4.600   3.551  0.4422  1.0200  1.1488
16168TIP3    H269920   2.777   4.578   3.417  1.6004 -2.1450  1.0019
16169TIP3   OH269921   2.487   6.267   1.556  0.1487  0.0198 -0.1234
16169TIP3    H169922   2.432   6.308   1.489  0.1131  0.2156  0.0254
16169TIP3    H269923   2.426   6.214   1.608  0.4637 -1.8035 -1.4909
16170TIP3   OH269924   5.449   5.114   3.973  0.3059  0.0419  0.0824
16170TIP3    H169925   5.473   5.205   3.991  1.6744 -0.2914  0.0167
16170TIP3    H269926   5.396   5.118   3.894 -0.2518  0.8432  0.4775
16171TIP3   OH269927   1.470   5.375   3.691  0.5458  0.0078 -0.0049
16171TIP3    H169928   1.416   5.434   3.745 -0.4114 -0.5512 -0.3266
16171TIP3    H269929   1.477   5.420   3.607 -0.2868 -0.3698 -0.2900
16172TIP3   OH269930   5.114   0.249  13.735 -0.4415 -0.5477 -0.3393
16172TIP3    H169931   5.168   0.307  13.680  0.1345 -1.4445 -0.7609
16172TIP3    H269932   5.027   0.287  13.732 -0.4396 -0.5836 -1.9381
16173TIP3   OH269933   6.361   3.870   1.621 -0.3874  0.3644  0.1369
16173TIP3    H169934   6.360   3.820   1.539 -3.8879 -0.4209  0.4984
16173TIP3    H269935   6.427   3.825   1.675 -1.1975 -1.9959 -0.6897
16174TIP3   OH269936   3.169   2.314  16.682  0.0570  0.3377 -0.4308
16174TIP3    H169937   3.116   2.315  16.762  1.1258  0.6515  0.2896
16174TIP3    H269938   3.123   2.373  16.622 -0.0921  1.0738  0.3933
16175TIP3   OH269939   5.942   0.362  16.499 -0.3303 -0.5206  0.1705
16175TIP3    H169940   5.883   0.417  16.448 -1.1115 -0.8771  0.6826
16175TIP3    H269941   5.891   0.333  16.574  0.0516 -1.9368 -0.0707
16176TIP3   OH269942   5.564   2.625   4.727 -0.1003  0.0763  0.3063
16176TIP3    H169943   5.624   2.685   4.771  0.6282  1.0070 -1.8093
16176TIP3    H269944   5.610   2.601   4.646 -0.3964 -3.3540  1.0476
16177TIP3   OH269945   3.230   0.162  11.472 -0.4084  0.0826  0.5040
16177TIP3    H169946   3.256   0.127  11.386 -1.5590 -2.7353  1.1835
16177TIP3    H269947   3.297   0.131  11.532 -0.1185  1.2485  0.8156
16178TIP3   OH269948   2.361   2.970  12.936 -0.0583  0.0866 -0.6885
16178TIP3    H169949   2.366   2.944  12.844 -1.2014 -1.5778 -0.3207
16178TIP3    H269950   2.297   2.910  12.974  2.7134 -1.4805  1.9292
16179TIP3   OH269951   6.216   0.401   5.196  0.1386  0.2206  0.3826
16179TIP3    H169952   6.292   0.458   5.207 -0.2153  0.5299  1.3920
16179TIP3    H269953   6.168   0.439   5.123  1.1695 -0.2424 -0.5653
16180TIP3   OH269954   4.994   4.661   2.944 -0.2166  0.0942 -0.1803
16180TIP3    H169955   5.034   4.747   2.957  0.3101 -0.3086  1.0241
16180TIP3    H269956   4.907   4.680   2.911 -0.1285  1.1030  0.1340
16181TIP3   OH269957   0.636   4.003   3.730  0.1560 -0.0675  0.2908
16181TIP3    H169958   0.697   4.035   3.664 -1.4737  0.1265 -1.2122
16181TIP3    H269959   0.605   4.082   3.774 -0.4823  0.0400 -0.3276
16182TIP3   OH269960   0.237   6.022  13.379 -0.1179  0.0006  0.0494
16182TIP3    H169961   0.206   6.073  13.453  1.1205 -0.4947  0.9338
16182TIP3    H269962   0.158   6.004  13.327 -1.3366 -1.2161  2.1936
16183TIP3   OH269963   0.139   0.204  11.396 -0.3913 -0.2388  0.0636
16183TIP3    H169964   0.078   0.238  11.331 -0.1114  1.2070  0.5209
16183TIP3    H269965   0.083   0.170  11.466 -0.6840 -1.3090 -0.6701
16184TIP3   OH269966   1.285   3.964  15.632  0.5756  0.2385 -0.3956
16184TIP3    H169967   1.306   3.910  15.556 -1.3036 -2.8947  1.0831
16184TIP3    H269968   1.192   3.986  15.621 -0.3531 -2.0705  1.8217
16185TIP3   OH269969   5.755   5.055  15.687  0.6406  0.6804 -0.6332
16185TIP3    H169970   5.694   5.030  15.756  1.0519  0.8660 -0.1935
16185TIP3    H269971   5.766   4.976  15.634  3.1321 -0.6694  1.6256
16186TIP3   OH269972   3.609   0.253  15.341 -0.4834 -0.3496 -0.2826
16186TIP3    H169973   3.545   0.302  15.290 -0.2629 -1.2251 -1.4479
16186TIP3    H269974   3.693   0.293  15.319 -0.1516 -1.9453 -2.2067
16187TIP3   OH269975   1.426   4.731  15.394  0.4621  0.2954 -0.3276
16187TIP3    H169976   1.433   4.802  15.330  1.0102 -0.0506 -0.6605
16187TIP3    H269977   1.332   4.721  15.408  0.3833  1.1002 -0.2583
16188TIP3   OH269978   0.578   4.715  15.033  0.4494  0.0993  0.6649
16188TIP3    H169979   0.517   4.748  14.966  0.6711 -0.8160 -0.0036
16188TIP3    H269980   0.594   4.791  15.089 -0.1409  0.7566 -0.0191
16189TIP3   OH269981   2.105   3.514  13.933  0.0015 -0.6949  0.3190
16189TIP3    H169982   2.080   3.453  13.864 -1.2387 -0.5424  0.6020
16189TIP3    H269983   2.039   3.583  13.928  1.2723  0.5310  0.1328
16190TIP3   OH269984   5.399   2.359   5.844  0.3004 -0.0322  0.2429
16190TIP3    H169985   5.427   2.450   5.837 -0.0723  0.0136 -0.7373
16190TIP3    H269986   5.382   2.347   5.938  1.0250  0.6937  0.4842
16191TIP3   OH269987   6.766   5.588   2.129  0.2766  0.4270  0.5102
16191TIP3    H169988   6.733   5.577   2.040 -0.7873 -1.3755  1.0646
16191TIP3    H269989   6.849   5.634   2.119  0.1021  0.4127 -1.3825
16192TIP3   OH269990   5.251   1.468   5.662  0.0496 -0.0472 -0.0235
16192TIP3    H169991   5.272   1.550   5.617 -0.6319 -0.2728 -0.7624
16192TIP3    H269992   5.229   1.495   5.751 -1.4651  0.7292 -0.6089
16193TIP3   OH269993   3.272   5.650   2.418 -1.0492 -0.0203 -0.0246
16193TIP3    H169994   3.305   5.608   2.497 -0.5533  2.3474  1.1028
16193TIP3    H269995   3.192   5.602   2.397 -0.7187 -1.2538  1.3879
16194TIP3   OH269996   3.995   0.150   0.048 -0.0692 -0.5111 -0.6422
16194TIP3    H169997   3.954   0.064   0.057  0.0750 -0.3468  3.5033
16194TIP3    H269998   3.922   0.212   0.055  0.1764 -0.3039  0.2436
16195TIP3   OH269999   1.022   0.427  16.331 -0.0883  0.0663 -0.0606
16195TIP3    H170000   1.095   0.367  16.311  1.5512  2.3873 -1.5909
16195TIP3    H270001   0.990   0.454  16.245 -2.6936 -0.7035  0.5909
16196TIP3   OH270002   0.978   2.665   3.163  0.3026  0.2301  0.3356
16196TIP3    H170003   1.025   2.590   3.126  0.0882  0.1751  0.1666
16196TIP3    H270004   1.046   2.729   3.183  0.5018 -0.0671  0.6149
16197TIP3   OH270005   2.493   5.022  14.515  0.0502  0.0456  0.1972
16197TIP3    H170006   2.553   4.956  14.548 -0.4647 -1.6516 -2.0782
16197TIP3    H270007   2.414   5.011  14.568  0.4468 -0.1726  0.7558
16198TIP3   OH270008   1.720   0.018   0.893  0.3196 -0.2012  0.0741
16198TIP3    H170009   1.787   0.083   0.915 -1.1679  1.4613 -0.0803
16198TIP3    H270010   1.769  -0.054   0.852  1.8593  1.7556 -1.7690
16199TIP3   OH270011   1.070   0.068   3.080 -0.2804  0.3625  0.1533
16199TIP3    H170012   1.045   0.117   3.159 -1.3251  0.8756 -0.4722
16199TIP3    H270013   1.034  -0.020   3.094 -0.0164  0.3029  0.4697
16200TIP3   OH270014   4.920   5.664  10.886  0.4361  0.1352 -0.4919
16200TIP3    H170015   4.990   5.729  10.898 -0.5509  1.5778 -2.1342
16200TIP3    H270016   4.930   5.634  10.796 -1.8459  1.3907 -1.2196
16201TIP3   OH270017   0.275   4.341  12.841 -0.0788  0.0051  0.4820
16201TIP3    H170018   0.344   4.397  12.876  0.2052  0.1515 -0.2902
16201TIP3    H270019   0.255   4.378  12.755 -1.1884  0.0170  0.7275
16202TIP3   OH270020   1.359   3.254  15.149 -0.1821 -0.2363  0.1341
16202TIP3    H170021   1.361   3.347  15.123 -0.1070  0.7154  3.1683
16202TIP3    H270022   1.414   3.210  15.085  0.9776  2.0695 -0.5805
16203TIP3   OH270023   4.461   1.391   2.432 -0.4781 -0.0644 -0.9842
16203TIP3    H170024   4.387   1.366   2.487 -2.8488  0.8082 -3.4943
16203TIP3    H270025   4.506   1.459   2.482  0.3285 -2.4286  1.7477
16204TIP3   OH270026   1.935   5.820   2.241 -0.2026  0.2286  0.4959
16204TIP3    H170027   1.865   5.885   2.236 -0.2368  0.0883 -2.0865
16204TIP3    H270028   1.889   5.735   2.239 -0.0249  0.1420 -0.4463
16205TIP3   OH270029   2.941   5.850  16.151 -1.2142  0.1370  0.4289
16205TIP3    H170030   2.988   5.887  16.076 -1.0691 -0.4739  0.2163
16205TIP3    H270031   2.849   5.870  16.134 -1.3160 -1.0395 -0.5253
16206TIP3   OH270032   5.718   1.556   4.904 -0.3690 -0.4131 -0.2260
16206TIP3    H170033   5.739   1.494   4.833  3.3756 -0.3759  0.6338
16206TIP3    H270034   5.660   1.620   4.863  0.5149 -1.1679 -2.8881
16207TIP3   OH270035   0.069   3.523  11.135  0.6413  0.3020 -0.5051
16207TIP3    H170036   0.142   3.506  11.076 -0.4221  1.6515 -2.3160
16207TIP3    H270037   0.105   3.577  11.204  1.1631  2.0329 -2.0467
16208TIP3   OH270038   1.613   2.970  13.473 -0.5797  0.2094  0.0156
16208TIP3    H170039   1.610   3.027  13.550  1.2142  0.7732 -0.3013
16208TIP3    H270040   1.675   2.901  13.497 -0.7308 -0.1462 -0.5842
16209TIP3   OH270041   5.866   2.757  14.025  0.3403  0.2658  0.6576
16209TIP3    H170042   5.911   2.811  13.960 -1.4734  0.8989 -0.1366
16209TIP3    H270043   5.866   2.669  13.988 -0.0999  0.4976  0.0843
16210TIP3   OH270044   3.896   1.399  12.891 -0.9812  0.0903  0.0924
16210TIP3    H170045   3.818   1.371  12.843 -1.6956  1.9881  0.0488
16210TIP3    H270046   3.903   1.493  12.872  1.0386  0.0731  0.5036
16211TIP3   OH270047   5.955   2.978  10.760 -0.2445  0.2010  0.1225
16211TIP3    H170048   5.919   2.889  10.759 -0.1150  0.1297 -1.7441
16211TIP3    H270049   5.980   2.993  10.851  1.6714 -2.4553  0.1524
16212TIP3   OH270050   0.799   3.248   4.237 -0.3021  0.1798  0.2428
16212TIP3    H170051   0.820   3.285   4.151  0.7608  0.2683  0.5303
16212TIP3    H270052   0.873   3.272   4.293 -1.1661  0.4833  1.3041
16213TIP3   OH270053   1.326   1.921   3.110 -0.0255 -0.0355 -0.0685
16213TIP3    H170054   1.415   1.935   3.143  0.2340 -0.0241 -0.7702
16213TIP3    H270055   1.299   1.837   3.148 -0.4811  0.8852  1.7601
16214TIP3   OH270056   5.649   2.897  15.953 -0.5584  0.3592 -0.0383
16214TIP3    H170057   5.574   2.869  15.900  0.1603 -0.5384 -0.6068
16214TIP3    H270058   5.685   2.816  15.990  0.4236  0.7165 -0.1730
16215TIP3   OH270059   2.272   4.701   0.180  0.5253  0.0449  0.1816
16215TIP3    H170060   2.295   4.626   0.235  0.0243 -1.1597 -1.1985
16215TIP3    H270061   2.337   4.699   0.109 -0.2279  0.1860 -0.5226
16216TIP3   OH270062   6.093   2.495  13.386 -0.1075  0.2299  0.7569
16216TIP3    H170063   6.087   2.400  13.391 -0.0215  0.1959  0.2027
16216TIP3    H270064   6.008   2.522  13.350 -0.2852  0.3973  1.2833
16217TIP3   OH270065   3.308   5.273  13.292  0.2656 -0.0189  0.1045
16217TIP3    H170066   3.283   5.202  13.233 -0.0305 -0.2929  0.5490
16217TIP3    H270067   3.400   5.256  13.312  0.6767  0.6918 -1.1206
16218TIP3   OH270068   4.726   6.388   3.575  0.4899 -0.4008  0.4080
16218TIP3    H170069   4.768   6.309   3.540 -0.1047 -0.4485 -0.2156
16218TIP3    H270070   4.744   6.456   3.510  0.6638 -0.1158  0.7519
16219TIP3   OH270071   3.178   5.102   4.632 -0.4953  0.0116 -0.1525
16219TIP3    H170072   3.243   5.134   4.694 -1.6559  0.0650  1.0888
16219TIP3    H270073   3.222   5.031   4.585  0.1481 -0.6250  1.3514
16220TIP3   OH270074   6.534   0.574   5.960 -0.0555  0.1264  0.0644
16220TIP3    H170075   6.529   0.601   6.051 -1.8372 -0.6790  0.2548
16220TIP3    H270076   6.545   0.479   5.963  1.0006  0.2061 -0.5854
16221TIP3   OH270077   3.359   6.228   5.071  0.7249 -0.6114  0.0234
16221TIP3    H170078   3.293   6.194   5.132  1.0218 -3.3138 -1.0368
16221TIP3    H270079   3.327   6.315   5.047 -1.8204 -1.3395  0.4878
16222TIP3   OH270080   6.510   4.574   0.585  0.4172  0.0532  0.2864
16222TIP3    H170081   6.437   4.608   0.635 -0.0262 -0.1612 -0.2030
16222TIP3    H270082   6.587   4.618   0.621 -0.0457  0.9246  0.2304
16223TIP3   OH270083   0.950   3.513   4.523 -0.2501 -0.3413  0.0190
16223TIP3    H170084   0.887   3.441   4.514 -0.5285 -0.0369 -0.5387
16223TIP3    H270085   1.036   3.471   4.514 -0.4054 -0.6372 -0.0901
16224TIP3   OH270086   0.594   0.909  11.685 -0.1155  0.4627  0.4588
16224TIP3    H170087   0.542   0.869  11.615 -0.3997  1.7561 -0.0818
16224TIP3    H270088   0.546   0.988  11.709 -0.3669 -0.2801  2.5936
16225TIP3   OH270089   4.248   5.503   5.150  0.8762 -1.0200  0.6000
16225TIP3    H170090   4.290   5.418   5.161  1.3731 -1.1562 -1.7090
16225TIP3    H270091   4.160   5.492   5.186  0.8992 -2.5440  0.2435
16226TIP3   OH270092   1.136   1.089   5.773 -0.0831  0.0523  0.0528
16226TIP3    H170093   1.137   1.155   5.704 -1.8540 -1.1011 -1.1772
16226TIP3    H270094   1.136   1.139   5.854  0.5851  1.4870 -0.7954
16227TIP3   OH270095   3.495   3.364   0.198  0.3512 -0.2976  0.5474
16227TIP3    H170096   3.494   3.423   0.273  1.2435  0.1788  0.2027
16227TIP3    H270097   3.565   3.301   0.217 -0.4953 -1.1730  0.8444
16228TIP3   OH270098   2.700   5.818   1.287  0.0323  0.4786 -0.0150
16228TIP3    H170099   2.620   5.775   1.317 -0.6243  0.9962 -0.9616
16228TIP3    H270100   2.709   5.789   1.196  0.0341  1.6593 -0.4065
16229TIP3   OH270101   3.348   1.644   2.236  0.6865 -0.6991  0.2849
16229TIP3    H170102   3.255   1.638   2.257  0.7675 -0.1253  0.8237
16229TIP3    H270103   3.360   1.583   2.163  0.2672 -2.1894  1.4307
16230TIP3   OH270104   5.148   0.195   6.457  0.4918  0.5238 -0.1422
16230TIP3    H170105   5.117   0.256   6.524 -1.0849 -1.9959  1.5783
16230TIP3    H270106   5.181   0.120   6.507 -2.0084 -2.0504 -2.1115
16231TIP3   OH270107   0.630   3.198  11.872 -0.8966 -0.1105 -1.0971
16231TIP3    H170108   0.708   3.234  11.915 -1.1088  0.4154 -1.1521
16231TIP3    H270109   0.557   3.247  11.909 -1.3858 -1.7120  0.1790
16232TIP3   OH270110   4.985   3.773   5.556 -0.3884  0.0582 -0.3129
16232TIP3    H170111   4.904   3.775   5.504 -1.4636 -0.7309  1.2590
16232TIP3    H270112   4.988   3.858   5.599 -0.1115  0.2803 -0.7725
16233TIP3   OH270113   2.270   0.913  15.154  0.9505 -0.1092  0.4720
16233TIP3    H170114   2.226   0.833  15.184  2.1174 -0.1981  2.0188
16233TIP3    H270115   2.227   0.933  15.071  0.2261 -2.0140  0.3276
16234TIP3   OH270116   6.662   0.528  11.312  0.3364  0.2499 -0.1352
16234TIP3    H170117   6.630   0.610  11.350  1.1880  0.0035  1.2068
16234TIP3    H270118   6.756   0.542  11.300  0.1448  0.1861 -1.8929
16235TIP3   OH270119   3.565   2.560  15.239 -0.1774 -0.0015  0.1312
16235TIP3    H170120   3.523   2.477  15.215  0.5836  0.0060 -1.3768
16235TIP3    H270121   3.655   2.551  15.208 -0.7481  2.3700 -2.6421
16236TIP3   OH270122   5.236   2.448  14.115 -0.3578  0.5628 -0.0372
16236TIP3    H170123   5.204   2.371  14.068  1.5377 -0.1250 -0.3021
16236TIP3    H270124   5.285   2.412  14.189 -0.0824  1.5402  0.2643
16237TIP3   OH270125   1.719   5.593   3.764 -0.0910 -0.5243 -0.1982
16237TIP3    H170126   1.751   5.510   3.728 -0.1413 -0.3523 -0.6478
16237TIP3    H270127   1.784   5.657   3.737 -0.6993 -0.2045 -0.9374
16238TIP3   OH270128   3.794   6.606   6.469 -0.4066 -0.2115  0.1051
16238TIP3    H170129   3.825   6.520   6.442 -0.4372 -0.5033  0.9679
16238TIP3    H270130   3.749   6.641   6.392  0.3029 -0.6280 -0.5026
16239TIP3   OH270131   2.564   1.557   4.406 -0.3708  0.2068 -0.3231
16239TIP3    H170132   2.568   1.544   4.312  0.3342  0.6056 -0.3606
16239TIP3    H270133   2.650   1.529   4.437 -0.4188  0.5602  0.1348
16240TIP3   OH270134   2.126   4.361   5.038 -0.3529 -0.1026 -0.1084
16240TIP3    H170135   2.037   4.376   5.070 -0.0925 -0.6175  0.8988
16240TIP3    H270136   2.119   4.367   4.942 -1.3792  0.3085 -0.0155
16241TIP3   OH270137   3.352   3.773   3.150 -0.2717 -0.2952  0.1762
16241TIP3    H170138   3.378   3.710   3.218  0.5477  0.4289  0.5500
16241TIP3    H270139   3.427   3.775   3.090 -0.4792  0.0043 -0.0712
16242TIP3   OH270140   4.555   0.692  14.335 -0.2957 -0.0758 -0.1420
16242TIP3    H170141   4.465   0.685  14.367 -0.1819  0.9379  0.4530
16242TIP3    H270142   4.589   0.772  14.376  0.1633  0.7930 -2.0598
16243TIP3   OH270143   6.238   4.465   3.131 -0.0471  0.0077  0.1934
16243TIP3    H170144   6.147   4.445   3.151 -0.4676  1.2039 -0.4255
16243TIP3    H270145   6.241   4.560   3.121  1.5540  0.1413  1.5285
16244TIP3   OH270146   0.665   1.167  14.688 -0.4460  0.1457 -0.0493
16244TIP3    H170147   0.735   1.172  14.623 -1.3721  1.1718 -1.0204
16244TIP3    H270148   0.586   1.195  14.640 -1.1956  0.7221  1.4505
16245TIP3   OH270149   2.220   5.624   4.561 -0.0313  0.3260 -0.1331
16245TIP3    H170150   2.202   5.716   4.578 -0.9763  0.0749  0.3268
16245TIP3    H270151   2.238   5.619   4.467  0.4190  1.0290 -0.0866
16246TIP3   OH270152   0.953   4.003   0.514 -0.6756  0.2747  0.5229
16246TIP3    H170153   0.901   4.083   0.505 -1.2337  0.0183  1.3310
16246TIP3    H270154   1.032   4.020   0.462 -1.3876  0.8197 -0.4299
16247TIP3   OH270155   2.183   0.070  11.461 -0.0516  0.5036  0.6832
16247TIP3    H170156   2.115   0.118  11.413  0.8101  0.9050 -0.1660
16247TIP3    H270157   2.218   0.007  11.398  0.8079  0.7485  0.9033
16248TIP3   OH270158   0.484   0.555  11.728  0.7090 -0.4857  0.4842
16248TIP3    H170159   0.434   0.539  11.808 -1.1094  1.7586 -0.0809
16248TIP3    H270160   0.445   0.494  11.664  1.2042 -1.2912  0.9372
16249TIP3   OH270161   6.705   6.530   2.560 -0.0168 -0.5801 -0.6683
16249TIP3    H170162   6.672   6.507   2.647  2.8994 -1.7087  0.2545
16249TIP3    H270163   6.742   6.618   2.571  0.5175 -0.7965 -0.6920
16250TIP3   OH270164   5.989   5.886   5.283  0.0075  0.8218 -0.4209
16250TIP3    H170165   5.994   5.836   5.202 -0.6429  1.2129 -0.7150
16250TIP3    H270166   5.931   5.835   5.339 -0.4665  1.1194 -0.6337
16251TIP3   OH270167   6.458   4.275  12.650 -0.4541 -0.3679 -0.5084
16251TIP3    H170168   6.518   4.274  12.725 -0.5129 -0.6158 -0.4634
16251TIP3    H270169   6.498   4.338  12.589 -0.7749  0.3654  0.0200
16252TIP3   OH270170   1.432   2.817   6.092  0.0147 -0.1493  0.0723
16252TIP3    H170171   1.374   2.891   6.074  0.6592  0.4342  0.3297
16252TIP3    H270172   1.520   2.852   6.078  0.2733 -1.4470 -1.8484
16253TIP3   OH270173   4.465   6.568   2.698  0.5143 -0.2194 -1.1314
16253TIP3    H170174   4.455   6.663   2.709  0.6769 -0.2478 -0.7205
16253TIP3    H270175   4.508   6.539   2.778 -3.3920 -1.2805  0.8726
16254TIP3   OH270176   0.428   3.494   1.672  0.4467 -0.1671  0.5730
16254TIP3    H170177   0.361   3.557   1.699  1.0083  0.5688  0.2813
16254TIP3    H270178   0.419   3.422   1.734 -1.6304 -0.7985 -0.3601
16255TIP3   OH270179   6.554   6.780  12.316  0.1652  0.4133 -0.2416
16255TIP3    H170180   6.611   6.834  12.261  1.4470  0.5947  1.2052
16255TIP3    H270181   6.489   6.744  12.255  1.6818  0.3892 -1.9196
16256TIP3   OH270182   0.269   0.829   0.564 -1.0146  0.1979 -0.3576
16256TIP3    H170183   0.292   0.816   0.656  0.8133 -0.2909 -0.8436
16256TIP3    H270184   0.219   0.910   0.564  0.1557  0.9819  0.9175
16257TIP3   OH270185   5.281   3.829  14.267  0.8097 -0.0321  0.4562
16257TIP3    H170186   5.237   3.835  14.182 -0.9363 -0.3242  1.3081
16257TIP3    H270187   5.361   3.779  14.249  0.6443  0.2095 -1.0728
16258TIP3   OH270188   1.208   5.016   4.187  0.4460  0.3541 -0.2554
16258TIP3    H170189   1.218   5.053   4.274  0.8668 -2.0987  0.8185
16258TIP3    H270190   1.273   5.061   4.134  4.1123 -1.7482  2.0229
16259TIP3   OH270191   4.142   2.587  16.243 -0.3113  0.0212 -0.0301
16259TIP3    H170192   4.148   2.643  16.320 -0.5923  1.1089 -0.7635
16259TIP3    H270193   4.231   2.555  16.229 -0.3753 -0.6747  1.0809
16260TIP3   OH270194   2.627   4.168  15.138  0.6162 -0.3872 -0.0253
16260TIP3    H170195   2.668   4.082  15.142  3.9313  0.8606 -2.6628
16260TIP3    H270196   2.563   4.161  15.067  1.2653 -0.5551 -0.6016
16261TIP3   OH270197   4.938   6.791   0.725 -0.6115 -0.0582  0.0824
16261TIP3    H170198   4.883   6.714   0.722  0.1243 -0.6652  1.6140
16261TIP3    H270199   4.938   6.823   0.634 -1.1697 -1.6574 -0.5186
16262TIP3   OH270200   4.218   0.785  14.713  0.3455  0.2766 -0.5372
16262TIP3    H170201   4.168   0.703  14.714  1.2824 -0.3563 -1.7705
16262TIP3    H270202   4.305   0.760  14.744  0.6637  0.7761 -1.0227
16263TIP3   OH270203   0.653   4.103   2.078  0.2263 -0.2147  0.0507
16263TIP3    H170204   0.608   4.079   1.997  0.1062  0.9120 -0.2341
16263TIP3    H270205   0.739   4.063   2.070  1.0520  1.7161 -1.7045
16264TIP3   OH270206   5.223   2.251   1.993  0.2753 -0.0165 -0.2410
16264TIP3    H170207   5.313   2.217   1.986  1.1611  2.2453 -0.8908
16264TIP3    H270208   5.168   2.179   1.963  1.9139 -1.2825 -0.3651
16265TIP3   OH270209   4.404   6.470  13.824  0.3745 -0.8887 -0.3504
16265TIP3    H170210   4.350   6.487  13.901 -0.4979 -0.0492 -1.1226
16265TIP3    H270211   4.361   6.398  13.779 -0.3953  0.0655 -1.1976
16266TIP3   OH270212   2.251   0.653   4.016  0.6876  0.5386  0.0532
16266TIP3    H170213   2.308   0.657   4.093  1.4964 -0.8613 -0.4389
16266TIP3    H270214   2.191   0.580   4.034 -0.2396  1.2827  0.0720
16267TIP3   OH270215   6.597   6.434  13.447 -0.1668  0.4327  0.4044
16267TIP3    H170216   6.529   6.433  13.380 -1.0102 -0.1756  1.2401
16267TIP3    H270217   6.641   6.350  13.439 -0.3107  0.3322  0.6438
16268TIP3   OH270218   2.004   4.116   4.125 -0.0057  0.6831 -0.2275
16268TIP3    H170219   1.953   4.197   4.133 -1.9023 -0.3539 -1.1064
16268TIP3    H270220   1.978   4.080   4.040  0.4607 -1.0546  0.3343
16269TIP3   OH270221   0.436   0.405   5.453 -0.4040  0.7947  0.0028
16269TIP3    H170222   0.426   0.442   5.541 -0.9218  0.1444  0.2245
16269TIP3    H270223   0.346   0.395   5.421 -0.3189 -0.7425  0.1574
16270TIP3   OH270224   5.952   4.134   2.245 -0.0699 -0.2940  0.1574
16270TIP3    H170225   5.894   4.153   2.318  0.5548  0.1237  0.5525
16270TIP3    H270226   5.921   4.049   2.212 -0.7368 -0.2001  0.5149
16271TIP3   OH270227   6.299   4.343  14.084 -0.2032  0.0540  0.1595
16271TIP3    H170228   6.355   4.350  14.007  0.3295 -1.8061  0.3230
16271TIP3    H270229   6.319   4.256  14.120 -2.9787 -0.6044  0.3706
16272TIP3   OH270230   3.729   6.626   0.636  0.0308 -0.3082 -0.7281
16272TIP3    H170231   3.712   6.538   0.602 -0.1521  0.1431 -1.8430
16272TIP3    H270232   3.815   6.648   0.601 -0.1080  0.1240 -0.7913
16273TIP3   OH270233   5.533   0.101  12.474 -0.3922 -0.0634 -0.1826
16273TIP3    H170234   5.620   0.112  12.511  0.7814 -0.3699 -2.6732
16273TIP3    H270235   5.510   0.187  12.439 -0.5506 -0.2802 -0.6233
16274TIP3   OH270236   4.382   2.444   3.856 -0.1631  0.5026 -0.0824
16274TIP3    H170237   4.369   2.523   3.909  2.0139  0.8222  0.0591
16274TIP3    H270238   4.421   2.381   3.917 -2.2514 -0.9000 -0.0803
16275TIP3   OH270239   1.726   5.334  11.222 -0.0605  0.1253  0.4663
16275TIP3    H170240   1.801   5.295  11.267  0.3377 -0.5565 -0.7469
16275TIP3    H270241   1.743   5.319  11.129 -1.2297  0.8334  0.1149
16276TIP3   OH270242   0.882   4.233  11.622  0.2594 -0.0695 -0.1571
16276TIP3    H170243   0.931   4.277  11.552 -1.0605 -0.1327 -1.1617
16276TIP3    H270244   0.910   4.142  11.616  0.4514 -0.0014 -0.3413
16277TIP3   OH270245   0.277   0.786  13.822  0.2768  0.2380 -0.7075
16277TIP3    H170246   0.201   0.832  13.788 -0.5976 -0.8764 -0.3297
16277TIP3    H270247   0.252   0.694  13.820  1.5653 -0.1397 -0.4370
16278TIP3   OH270248   5.990   0.005  12.732 -0.2534  0.5881  0.6798
16278TIP3    H170249   5.966  -0.079  12.771  0.9281 -0.7154 -1.2366
16278TIP3    H270250   5.908   0.038  12.694 -0.4199 -0.5209  0.0330
16279TIP3   OH270251   0.979   3.161   0.170  0.2018  0.3699 -0.2797
16279TIP3    H170252   0.999   3.114   0.089  0.6107  0.3487 -0.1674
16279TIP3    H270253   0.901   3.116   0.205 -0.4502  0.8730 -1.0507
16280TIP3   OH270254   1.671   1.522  12.243 -0.4205 -0.2991  0.0758
16280TIP3    H170255   1.629   1.493  12.324  0.0583 -1.2975 -0.0163
16280TIP3    H270256   1.692   1.614  12.258  0.7348 -0.7751  1.5617
16281TIP3   OH270257   1.944   3.076   1.334  0.4428 -0.4161  0.5627
16281TIP3    H170258   2.028   3.080   1.379  0.9036  0.9638 -0.3810
16281TIP3    H270259   1.960   3.021   1.258  0.1108 -1.2983  1.1110
16282TIP3   OH270260   3.179   5.990  13.893 -0.3639  0.5425 -0.3957
16282TIP3    H170261   3.252   5.940  13.929 -2.3256 -1.2888  1.2896
16282TIP3    H270262   3.193   5.987  13.798  0.6122 -1.6110 -0.2419
16283TIP3   OH270263   6.787   3.317   1.845  0.0119  0.3618  0.3927
16283TIP3    H170264   6.850   3.246   1.859 -1.3321 -0.3596  3.6464
16283TIP3    H270265   6.822   3.391   1.895 -1.1774  0.2413  1.4594
16284TIP3   OH270266   4.768   1.055   2.938  0.4748 -0.0244  0.2618
16284TIP3    H170267   4.849   1.009   2.916  0.8863  0.7872  0.0392
16284TIP3    H270268   4.719   1.058   2.856  1.1737  1.3457 -0.1314
16285TIP3   OH270269   0.804   1.804  11.206  0.1744  0.0123 -0.4206
16285TIP3    H170270   0.820   1.754  11.126  0.6615 -0.0352 -0.2953
16285TIP3    H270271   0.717   1.843  11.193  0.7085  0.9012 -1.4324
16286TIP3   OH270272   6.665   4.651  12.867  0.0948  0.1318  0.0309
16286TIP3    H170273   6.660   4.746  12.883  0.7266  0.2686 -0.5395
16286TIP3    H270274   6.578   4.618  12.890 -0.2154  0.8920 -0.0210
16287TIP3   OH270275   2.290   0.559   4.899  0.1581 -0.0842 -0.4723
16287TIP3    H170276   2.206   0.522   4.926  0.3465  0.1612  0.5093
16287TIP3    H270277   2.325   0.599   4.979  2.2853 -2.1902 -0.2553
16288TIP3   OH270278   3.853   3.995   3.832 -0.0751 -0.2959 -0.6301
16288TIP3    H170279   3.805   3.952   3.903  1.1852  0.0505  0.4751
16288TIP3    H270280   3.924   3.934   3.812 -0.5740 -0.5156 -1.8208
16289TIP3   OH270281   5.140   0.105   2.972  0.5982  0.2340 -0.1502
16289TIP3    H170282   5.231   0.083   2.951  1.1049  2.0489  0.0355
16289TIP3    H270283   5.093   0.092   2.890  0.5200 -2.8679  0.2422
16290TIP3   OH270284   6.370   0.416  13.361  0.1531  0.6914 -0.2984
16290TIP3    H170285   6.292   0.470  13.376 -1.2817 -1.7410  1.7335
16290TIP3    H270286   6.342   0.353  13.294  1.2557  1.3592 -1.4183
16291TIP3   OH270287   6.210   4.684  14.247 -0.6965 -0.0746  0.0392
16291TIP3    H170288   6.267   4.728  14.184  0.0297  0.1322  0.8308
16291TIP3    H270289   6.122   4.693  14.210 -0.0627 -2.4453 -2.4468
16292TIP3   OH270290   6.632   5.558  11.434 -0.3459 -0.7552  0.1453
16292TIP3    H170291   6.597   5.476  11.401  1.9229 -1.0706 -1.7646
16292TIP3    H270292   6.710   5.533  11.483 -0.4065  0.1912  0.7580
16293TIP3   OH270293   3.722   6.266  14.461 -0.4051 -0.1946  0.4479
16293TIP3    H170294   3.682   6.210  14.395  0.8778  0.9734 -1.4107
16293TIP3    H270295   3.679   6.350  14.451  2.8796  1.4074 -2.2935
16294TIP3   OH270296   0.813   4.002   3.284 -0.3747 -0.4907 -0.1428
16294TIP3    H170297   0.759   3.939   3.235  0.2170 -1.8470  0.8675
16294TIP3    H270298   0.752   4.043   3.346 -0.5376 -0.9868  0.0305
16295TIP3   OH270299   5.885   5.279   1.237  0.3078 -0.1244  0.0022
16295TIP3    H170300   5.905   5.222   1.311  1.1729 -1.8159 -1.4691
16295TIP3    H270301   5.840   5.223   1.175 -1.8056  1.6466 -0.1711
16296TIP3   OH270302   2.993   4.035  15.724 -0.4570 -0.2590 -0.2090
16296TIP3    H170303   3.068   3.978  15.746 -0.0481  0.2749 -0.2031
16296TIP3    H270304   2.967   4.007  15.636  0.5359  0.3607 -0.7235
16297TIP3   OH270305   6.457   3.237   5.473  0.0199 -0.0945  0.2107
16297TIP3    H170306   6.524   3.184   5.515 -1.1196 -2.2387 -0.5505
16297TIP3    H270307   6.503   3.285   5.404  1.0899  0.0495  1.0106
16298TIP3   OH270308   0.449   3.537   0.119  0.7455  0.1673  0.0092
16298TIP3    H170309   0.395   3.466   0.153  0.8923  0.0379 -0.0247
16298TIP3    H270310   0.402   3.616   0.143 -0.5159  0.0162 -1.7882
16299TIP3   OH270311   2.869   1.346  16.355 -0.1085 -0.2096 -0.0583
16299TIP3    H170312   2.795   1.349  16.415  0.3796 -2.4948  0.7479
16299TIP3    H270313   2.944   1.372  16.408 -0.0331  0.2543 -0.3808
16300TIP3   OH270314   0.495   5.242  16.234  0.5963  0.5358  0.2561
16300TIP3    H170315   0.428   5.301  16.200 -0.2039  0.2156  1.2171
16300TIP3    H270316   0.547   5.297  16.294  1.2153  0.7824 -0.4840
16301TIP3   OH270317   6.074   4.974   5.347 -0.4043 -0.0337  0.1341
16301TIP3    H170318   6.057   5.050   5.291 -0.4601 -1.0087 -1.2300
16301TIP3    H270319   5.990   4.927   5.350 -0.5013  0.1771  1.3503
16302TIP3   OH270320   6.746   1.625  13.790  0.2623 -0.1094  0.3368
16302TIP3    H170321   6.729   1.538  13.826  2.4292 -0.3018  1.0468
16302TIP3    H270322   6.826   1.614  13.738 -2.6659  0.0938 -4.9064
16303TIP3   OH270323   3.336   1.784   1.450 -0.4691 -0.1584  0.3106
16303TIP3    H170324   3.329   1.839   1.372  0.1638 -0.1322  0.2695
16303TIP3    H270325   3.279   1.709   1.431  1.2536 -1.2025 -1.0905
16304TIP3   OH270326   6.678   1.793  16.482  0.2104  0.2266  0.2979
16304TIP3    H170327   6.641   1.774  16.568 -3.6564 -0.0576 -1.2141
16304TIP3    H270328   6.650   1.720  16.427 -1.7271  2.6467 -2.2309
16305TIP3   OH270329   4.722   2.538   5.730 -0.1112  0.0778  0.5575
16305TIP3    H170330   4.808   2.577   5.713 -0.6966  0.6505 -1.3197
16305TIP3    H270331   4.674   2.606   5.778  0.9927 -0.8987  3.2174
16306TIP3   OH270332   5.745   4.338   0.760  0.1577 -0.1071 -0.0921
16306TIP3    H170333   5.742   4.358   0.854 -0.2237  0.7019 -0.2616
16306TIP3    H270334   5.664   4.377   0.726 -0.0230 -0.9587 -0.6558
16307TIP3   OH270335   3.432   3.022   5.239  0.1014 -0.1444 -0.6441
16307TIP3    H170336   3.392   2.974   5.311 -0.0375  0.1068 -0.5534
16307TIP3    H270337   3.456   3.106   5.278  3.2722 -1.2308  0.1136
16308TIP3   OH270338   2.867   0.676  14.299 -0.2062 -0.5928  0.2801
16308TIP3    H170339   2.952   0.720  14.300 -0.3539 -0.2593 -0.6236
16308TIP3    H270340   2.879   0.600  14.243 -0.4282 -0.6987  0.3737
16309TIP3   OH270341   4.502   0.086  16.625  0.6507  0.3888 -0.1797
16309TIP3    H170342   4.561   0.020  16.588 -1.7466 -0.3701 -2.9969
16309TIP3    H270343   4.535   0.169  16.590  0.4728  0.0554 -1.1579
16310TIP3   OH270344   0.203   3.454  14.889 -0.2285  0.2351  0.0621
16310TIP3    H170345   0.115   3.421  14.872 -0.2026 -0.2904  0.8945
16310TIP3    H270346   0.192   3.518  14.959 -0.2263  1.7704 -1.3088
16311TIP3   OH270347   2.506   3.130   2.552 -0.0521 -0.0564 -0.4980
16311TIP3    H170348   2.582   3.176   2.516 -0.0604  0.3669  0.0258
16311TIP3    H270349   2.455   3.198   2.596 -1.1784 -0.1709 -1.5625
16312TIP3   OH270350   3.717   4.840  10.507  0.0083 -0.0698 -0.0266
16312TIP3    H170351   3.657   4.914  10.501 -0.7538 -0.7199 -0.5861
16312TIP3    H270352   3.804   4.880  10.512 -0.4778  0.8995  1.2776
16313TIP3   OH270353   6.673   2.090   4.747  0.2684  0.1822  0.0334
16313TIP3    H170354   6.606   2.123   4.687 -0.2181  1.1095  1.0574
16313TIP3    H270355   6.704   2.009   4.706 -0.6349  0.3612 -1.0481
16314TIP3   OH270356   1.070   6.678   2.103  0.1227  0.4822 -0.3280
16314TIP3    H170357   0.986   6.637   2.126  0.1303  0.2689 -0.6819
16314TIP3    H270358   1.047   6.747   2.041  0.3112 -0.2458 -1.2276
16315TIP3   OH270359   6.726   5.210  15.710  0.1838  0.0330 -0.5531
16315TIP3    H170360   6.706   5.146  15.642 -0.9107 -0.8355  0.5596
16315TIP3    H270361   6.726   5.160  15.791  0.1164  1.2948  0.2496
16316TIP3   OH270362   1.479   5.314  15.938 -0.1302 -0.0539  0.5337
16316TIP3    H170363   1.509   5.404  15.928  0.6405 -0.5052 -1.7152
16316TIP3    H270364   1.396   5.311  15.891  1.3728 -1.1772 -2.3047
16317TIP3   OH270365   2.240   4.429  12.381 -0.4377 -0.1768  0.0628
16317TIP3    H170366   2.213   4.520  12.367  1.5279  0.6002  0.9902
16317TIP3    H270367   2.310   4.414  12.318  1.5220  0.0752  2.0761
16318TIP3   OH270368   5.787   0.593  15.131  0.3817  0.3023 -0.4151
16318TIP3    H170369   5.696   0.605  15.104 -0.6805 -1.7459  1.8998
16318TIP3    H270370   5.803   0.499  15.120  0.2977 -0.4956  4.1220
16319TIP3   OH270371   3.982   1.196   0.380  0.5934 -0.1050  0.0660
16319TIP3    H170372   4.043   1.125   0.360 -0.3400 -0.9392  0.1439
16319TIP3    H270373   3.970   1.191   0.475  1.1460  0.6836  0.1888
16320TIP3   OH270374   5.780   4.046   5.916  0.1962 -0.2394  0.8134
16320TIP3    H170375   5.705   4.016   5.967 -2.1002  1.4434 -1.3239
16320TIP3    H270376   5.802   4.131   5.954 -0.5500  0.3322  0.0103
16321TIP3   OH270377   5.734   6.009  11.317  0.1580 -0.4487  0.4321
16321TIP3    H170378   5.677   5.997  11.392 -1.6333 -2.1420 -1.1115
16321TIP3    H270379   5.819   5.975  11.345  0.4729  1.9031  2.6901
16322TIP3   OH270380   0.253   5.075   2.068  0.0360 -0.6170 -0.0009
16322TIP3    H170381   0.280   5.165   2.088  1.0688 -0.9024 -0.0478
16322TIP3    H270382   0.225   5.078   1.976 -0.3359 -0.2658  0.1195
16323TIP3   OH270383   2.313   1.569  13.140 -0.7188 -0.0435  0.3903
16323TIP3    H170384   2.249   1.566  13.212 -0.8877 -0.5141  0.2202
16323TIP3    H270385   2.260   1.587  13.062 -0.2806  3.4372  0.7179
16324TIP3   OH270386   1.559   2.054  15.236 -0.6586  0.3722  0.1231
16324TIP3    H170387   1.561   2.076  15.143  0.8663 -1.2260 -0.2843
16324TIP3    H270388   1.508   2.124  15.277 -0.7031  1.5220 -1.7973
16325TIP3   OH270389   5.504   4.826   1.233 -0.9734 -0.0323 -0.4011
16325TIP3    H170390   5.584   4.821   1.179 -1.2584 -0.9028 -0.7570
16325TIP3    H270391   5.536   4.846   1.321 -0.5322  1.9518 -0.9635
16326TIP3   OH270392   1.983   5.680   3.105 -0.6214 -0.4313  0.1179
16326TIP3    H170393   1.945   5.640   3.184  1.1179 -2.2081  0.1107
16326TIP3    H270394   2.077   5.683   3.122 -0.4674  1.7750 -0.7864
16327TIP3   OH270395   3.078   4.210   1.902 -0.5757  0.2859 -0.3491
16327TIP3    H170396   3.091   4.223   1.808 -0.5928 -0.5975 -0.4885
16327TIP3    H270397   3.041   4.122   1.909  2.5489 -1.1124  0.6866
16328TIP3   OH270398   0.726   5.223   2.243  0.2168 -0.1445  0.2493
16328TIP3    H170399   0.808   5.266   2.269 -1.0053  1.3576  1.9232
16328TIP3    H270400   0.678   5.291   2.196  0.3556 -1.3769 -1.8000
16329TIP3   OH270401   6.296   2.290  14.354 -0.1849  0.3751  0.1113
16329TIP3    H170402   6.267   2.200  14.369  0.2670  0.3194  0.7054
16329TIP3    H270403   6.365   2.283  14.288  0.4411  0.1765  0.7692
16330TIP3   OH270404   5.135   6.325  12.364  0.0916 -0.2619  0.0507
16330TIP3    H170405   5.171   6.237  12.372  0.8255  0.0849  0.7723
16330TIP3    H270406   5.175   6.360  12.285 -1.7384 -1.2457 -1.3802
16331TIP3   OH270407   5.338   5.235  16.199  0.4720 -0.8717 -0.1168
16331TIP3    H170408   5.426   5.213  16.169 -0.0238  1.3686 -3.8013
16331TIP3    H270409   5.341   5.329  16.218 -0.7985 -1.0524  1.1849
16332TIP3   OH270410   0.739   1.164  12.538 -0.5540  0.1207  0.1858
16332TIP3    H170411   0.835   1.154  12.540 -0.4230  0.5492 -1.7671
16332TIP3    H270412   0.725   1.244  12.488 -1.8967  2.1214  3.4642
16333TIP3   OH270413   6.092   6.320   4.606  0.2306 -0.5080 -0.0233
16333TIP3    H170414   5.998   6.303   4.617  0.1252  0.6127  1.0201
16333TIP3    H270415   6.096   6.386   4.537  0.3131 -1.0668 -0.5635
16334TIP3   OH270416   4.888   0.146  16.724  0.6820  0.3721 -0.0009
16334TIP3    H170417   4.971   0.172  16.763  0.4315  1.0223  0.1243
16334TIP3    H270418   4.901   0.155  16.629  1.2853 -1.1934 -0.0784
16335TIP3   OH270419   5.483   4.629   4.303 -0.2360  0.2779  0.6195
16335TIP3    H170420   5.502   4.635   4.209  2.0551 -0.3311  0.9658
16335TIP3    H270421   5.425   4.554   4.311  2.3534 -1.9428 -0.0673
16336TIP3   OH270422   6.521   1.692  11.613 -0.8894  0.2532 -0.4032
16336TIP3    H170423   6.460   1.646  11.670  1.5308 -1.8009  0.6746
16336TIP3    H270424   6.567   1.623  11.565  1.3353  1.6320 -0.3749
16337TIP3   OH270425   5.773   5.764  15.027  0.5539 -0.0241 -0.2340
16337TIP3    H170426   5.849   5.818  15.005  1.1714 -0.9683 -0.4691
16337TIP3    H270427   5.784   5.744  15.120 -0.8751  2.0905  0.4887
16338TIP3   OH270428   6.155   3.584   4.556  0.4588 -0.3518 -0.5540
16338TIP3    H170429   6.205   3.562   4.478  1.3524 -0.2973 -0.0148
16338TIP3    H270430   6.087   3.517   4.561  1.2334 -1.1652 -0.6316
16339TIP3   OH270431   3.880   4.930  15.137  0.2698 -0.1278 -0.1689
16339TIP3    H170432   3.828   4.853  15.160 -0.4279  0.5503  0.5998
16339TIP3    H270433   3.958   4.924  15.193 -0.9571  0.9937  1.7753
16340TIP3   OH270434   5.482   1.385  12.354 -0.2103  0.0897 -0.4413
16340TIP3    H170435   5.437   1.395  12.270 -2.1518 -0.9535  0.4125
16340TIP3    H270436   5.494   1.475  12.386 -1.6842  0.4137 -0.7294
16341TIP3   OH270437   5.177   2.685   0.608 -0.3314  0.4769 -0.1950
16341TIP3    H170438   5.224   2.657   0.530 -1.0855 -0.1443 -0.4359
16341TIP3    H270439   5.107   2.741   0.575 -1.7085 -1.1390 -0.1564
16342TIP3   OH270440   5.819   0.157  12.596 -0.1860 -0.1692  0.0521
16342TIP3    H170441   5.848   0.150  12.505  2.5531  1.4229  0.6670
16342TIP3    H270442   5.769   0.238  12.599 -0.1109 -0.1210 -0.0007
16343TIP3   OH270443   6.275   1.054   0.265  0.0262 -0.6346  0.5466
16343TIP3    H170444   6.285   0.959   0.276 -0.4953 -1.0786 -2.0109
16343TIP3    H270445   6.348   1.079   0.208  0.0341  0.4853  1.0233
16344TIP3   OH270446   6.102   4.392  12.231 -0.2256  0.3069  0.1214
16344TIP3    H170447   6.105   4.298  12.248  2.7253  0.3182  0.2364
16344TIP3    H270448   6.077   4.431  12.315 -0.1660 -0.3025  0.4298
16345TIP3   OH270449   5.828   2.535   3.749  0.0362  0.0289 -0.1899
16345TIP3    H170450   5.881   2.479   3.806 -2.2189 -0.2368  1.8309
16345TIP3    H270451   5.741   2.496   3.753 -0.9768  2.0804 -1.0243
16346TIP3   OH270452   6.305   3.579  15.332  0.1879 -0.3566 -0.0833
16346TIP3    H170453   6.223   3.582  15.381 -0.2643  1.3248 -0.8724
16346TIP3    H270454   6.370   3.552  15.397 -0.9274 -1.5318  0.6028
16347TIP3   OH270455   0.760   4.219   0.513 -0.5721 -0.4922 -0.2076
16347TIP3    H170456   0.796   4.269   0.440  0.2830  1.0813  1.2217
16347TIP3    H270457   0.665   4.225   0.501 -0.4567  0.3122 -0.8365
16348TIP3   OH270458   1.305   4.758  14.304 -0.1079 -1.0629  0.8769
16348TIP3    H170459   1.357   4.792  14.377  0.2656 -1.3390  0.7424
16348TIP3    H270460   1.354   4.682  14.273 -0.2529 -0.9366  0.3257
16349TIP3   OH270461   0.358   3.763  11.660 -0.2077  0.0782 -0.2734
16349TIP3    H170462   0.361   3.717  11.744  1.9152 -0.8222 -0.7851
16349TIP3    H270463   0.380   3.853  11.681 -1.5902  0.2894  0.3659
16350TIP3   OH270464   0.518   3.258   1.482  0.6063  0.1197 -0.3419
16350TIP3    H170465   0.522   3.177   1.432  0.7626 -0.0527 -0.0546
16350TIP3    H270466   0.434   3.255   1.527  0.4707  0.2696 -0.5816
16351TIP3   OH270467   3.452   2.619   5.624  0.2030 -0.0581  0.1908
16351TIP3    H170468   3.451   2.533   5.583  1.0758 -0.8869  1.7812
16351TIP3    H270469   3.543   2.648   5.617  0.0309  0.4771  0.1558
16352TIP3   OH270470   4.659   5.818  17.003  0.1135 -0.1675  0.2345
16352TIP3    H170471   4.740   5.770  16.988  0.3771  0.2855  0.1874
16352TIP3    H270472   4.614   5.815  16.918 -0.2292 -0.9778  0.4364
16353TIP3   OH270473   3.063   6.391  14.354  0.1958 -0.6052 -0.4189
16353TIP3    H170474   2.978   6.391  14.398 -0.2356  1.2726 -1.1174
16353TIP3    H270475   3.119   6.335  14.407 -1.5791 -2.2760 -0.1860
16354TIP3   OH270476   4.269   1.983   4.625 -0.3608  0.3073 -0.4881
16354TIP3    H170477   4.361   1.982   4.651 -0.2370 -1.4299 -0.9383
16354TIP3    H270478   4.258   2.068   4.581  1.5632 -0.3183 -2.3042
16355TIP3   OH270479   4.966   3.437   5.289  0.1847 -0.2035  0.6146
16355TIP3    H170480   4.981   3.343   5.303 -0.6905 -0.5732 -0.7338
16355TIP3    H270481   4.871   3.446   5.289  0.2621  0.6403  0.4237
16356TIP3   OH270482   2.560   3.792  13.804 -0.1563  0.1212 -0.1523
16356TIP3    H170483   2.629   3.855  13.826 -1.0466  0.8306  0.6954
16356TIP3    H270484   2.607   3.713  13.778  1.0037 -0.1885  2.6150
16357TIP3   OH270485   3.834   1.027  13.998  1.1009  1.1530 -0.2039
16357TIP3    H170486   3.833   1.041  13.903  1.0604  0.6394 -0.2841
16357TIP3    H270487   3.779   1.097  14.033 -2.0525 -0.7780 -0.8648
16358TIP3   OH270488   0.094   5.329  14.048  0.3022  0.5236 -0.0940
16358TIP3    H170489   0.011   5.352  14.090 -0.5198  0.1753 -1.4796
16358TIP3    H270490   0.160   5.377  14.098 -0.5890 -0.1108  1.7837
16359TIP3   OH270491   1.836   5.023  12.589 -0.1804 -0.3337 -0.6320
16359TIP3    H170492   1.842   5.004  12.683  0.0895 -2.4170 -1.0264
16359TIP3    H270493   1.758   5.078  12.581 -1.7687 -2.2310  0.5883
16360TIP3   OH270494   3.670   4.940  11.719  0.1141  0.0366  0.3750
16360TIP3    H170495   3.659   4.895  11.635 -0.6418  0.1571  0.4027
16360TIP3    H270496   3.635   4.878  11.783  0.8065 -0.1074  0.6172
16361TIP3   OH270497   1.697   0.612  14.448 -0.5966 -0.2376  0.3154
16361TIP3    H170498   1.754   0.545  14.409  0.6049  1.2814 -0.6862
16361TIP3    H270499   1.648   0.648  14.374 -2.4996 -1.1162  1.0871
16362TIP3   OH270500   2.637   5.463   1.230  0.3364  0.1090 -0.3070
16362TIP3    H170501   2.697   5.534   1.253 -0.9832  0.8332  1.1173
16362TIP3    H270502   2.690   5.383   1.235  1.1666  0.7106  0.9856
16363TIP3   OH270503   4.340   2.203  10.501 -0.8077 -0.1255 -0.1528
16363TIP3    H170504   4.245   2.190  10.497 -0.8360  0.3062 -3.0892
16363TIP3    H270505   4.376   2.139  10.440  0.7239  0.2598  0.3047
16364TIP3   OH270506   5.568   4.362  15.841 -0.2195 -0.0117 -0.4620
16364TIP3    H170507   5.639   4.360  15.904 -0.9773  0.9046  0.4516
16364TIP3    H270508   5.601   4.313  15.766  0.7399 -1.0350  0.5927
16365TIP3   OH270509   3.697   6.276  15.624  0.0479  0.0910  0.0311
16365TIP3    H170510   3.696   6.329  15.704  1.2664 -0.9535  0.7640
16365TIP3    H270511   3.732   6.334  15.557 -1.3324  1.0967  0.1433
16366TIP3   OH270512   0.994   4.234   4.592  0.8014  0.4127  0.2976
16366TIP3    H170513   0.998   4.321   4.552 -0.1535  1.0192  1.4702
16366TIP3    H270514   1.032   4.246   4.679  0.2313 -0.2241  0.6449
16367TIP3   OH270515   2.860   4.983   1.351  0.0510 -0.0080  0.4320
16367TIP3    H170516   2.954   4.968   1.340 -0.0280 -0.5094  0.4077
16367TIP3    H270517   2.820   4.898   1.331 -0.2785 -0.3430  2.3634
16368TIP3   OH270518   5.384   1.554  11.079 -0.6125 -0.2103  0.0746
16368TIP3    H170519   5.311   1.564  11.018 -1.3434  2.2347  1.2178
16368TIP3    H270520   5.462   1.556  11.024 -1.3282 -1.6454 -1.0575
16369TIP3   OH270521   0.226   2.625  14.608  0.2544  0.5671 -0.0132
16369TIP3    H170522   0.133   2.643  14.594  0.4018  1.6851  0.3160
16369TIP3    H270523   0.228   2.555  14.673 -0.3626  1.3344  0.8518
16370TIP3   OH270524   3.691   3.235   5.143 -0.5694 -0.9585  0.6336
16370TIP3    H170525   3.624   3.219   5.076  0.7821 -1.8612 -0.5491
16370TIP3    H270526   3.710   3.149   5.179 -1.5235 -0.4520  2.4989
16371TIP3   OH270527   2.630   0.997  15.066 -0.6390  0.1057  0.1861
16371TIP3    H170528   2.706   1.009  15.010 -0.6405 -2.3691 -0.4222
16371TIP3    H270529   2.622   1.081  15.112  0.7110  1.4266 -1.8072
16372TIP3   OH270530   2.954   3.340  12.157 -0.5833  0.3901  0.5207
16372TIP3    H170531   2.987   3.393  12.085  0.9808 -0.4874  0.5385
16372TIP3    H270532   2.926   3.403  12.223  0.2057  1.2073  0.0941
16373TIP3   OH270533   5.887   5.119  13.576  0.8443 -0.1502 -0.2474
16373TIP3    H170534   5.876   5.125  13.671  1.3767 -2.7480  0.0723
16373TIP3    H270535   5.982   5.125  13.562  0.9213 -1.3605 -0.3953
16374TIP3   OH270536   3.744   3.291   1.326  0.3510  0.4472 -0.4326
16374TIP3    H170537   3.747   3.338   1.243  0.0418  0.1962 -0.5883
16374TIP3    H270538   3.688   3.215   1.308  0.1975  0.4494  0.0341
16375TIP3   OH270539   2.618   6.398   2.942  0.0922 -0.4483 -0.3061
16375TIP3    H170540   2.534   6.393   2.988  0.0307  1.1758 -0.1693
16375TIP3    H270541   2.594   6.409   2.850  0.1963 -2.1098 -0.5462
16376TIP3   OH270542   0.860   6.250   2.826  0.1754 -0.1091 -0.5684
16376TIP3    H170543   0.862   6.340   2.858  2.0600 -0.1872 -0.3324
16376TIP3    H270544   0.770   6.222   2.839 -0.3047  1.5341 -0.0697
16377TIP3   OH270545   1.985   6.181  16.580  0.3599 -0.5993 -0.5196
16377TIP3    H170546   2.061   6.144  16.535  0.0121 -1.5902 -0.3182
16377TIP3    H270547   1.922   6.201  16.510  0.2086 -1.2138 -0.5627
16378TIP3   OH270548   3.502   2.385  12.518 -0.0739  0.8466 -0.1209
16378TIP3    H170549   3.547   2.469  12.527 -1.0885  1.1710  4.1132
16378TIP3    H270550   3.409   2.407  12.526 -0.3068 -0.6309  2.3045
16379TIP3   OH270551   6.221   1.222  14.783  0.0348 -0.2293 -0.4879
16379TIP3    H170552   6.283   1.162  14.742  0.2953 -1.2485  1.2908
16379TIP3    H270553   6.244   1.220  14.876 -2.5923 -0.5921  0.2281
16380TIP3   OH270554   0.850   6.468  13.927  0.5593 -0.2117  0.1869
16380TIP3    H170555   0.822   6.557  13.906  0.8317 -0.0181  0.6126
16380TIP3    H270556   0.927   6.453  13.871 -1.1700 -1.2766 -2.0446
16381TIP3   OH270557   2.231   3.275  15.895 -0.1031 -0.6468  0.5641
16381TIP3    H170558   2.271   3.234  15.819  0.4503 -0.4787  0.7598
16381TIP3    H270559   2.243   3.212  15.966  0.7660 -0.1478  0.8712
16382TIP3   OH270560   4.515   5.780  14.609 -0.3666  0.0073  0.4887
16382TIP3    H170561   4.565   5.760  14.529  0.9495 -1.2315  1.5516
16382TIP3    H270562   4.577   5.827  14.664 -0.3559 -1.4722  1.8045
16383TIP3   OH270563   6.784   0.405  15.359 -0.0299 -0.0168 -0.1206
16383TIP3    H170564   6.779   0.339  15.428  0.0953  1.0912  0.9858
16383TIP3    H270565   6.696   0.408  15.321  0.0331 -0.9855 -0.3701
16384TIP3   OH270566   1.130   0.429  13.311  0.0945  0.3203 -0.5997
16384TIP3    H170567   1.114   0.479  13.391 -0.6677 -0.0104 -0.5339
16384TIP3    H270568   1.225   0.420  13.307  0.1284  0.0216  0.4748
16385TIP3   OH270569   1.624   5.060   1.062 -0.1755 -0.1963 -0.0212
16385TIP3    H170570   1.617   4.967   1.084 -0.4698  0.1397  1.3789
16385TIP3    H270571   1.675   5.062   0.981 -0.8448 -1.6242 -0.5129
16386TIP3   OH270572   0.742   1.834  16.937  0.2129 -0.1176  0.2574
16386TIP3    H170573   0.809   1.891  16.900  1.1755 -1.3949 -0.0278
16386TIP3    H270574   0.661   1.861  16.893  0.7030  0.7854 -0.1172
16387TIP3   OH270575   6.341   0.143  12.154  0.2394 -0.4836 -0.2896
16387TIP3    H170576   6.363   0.052  12.136  0.5237 -0.3926 -0.4158
16387TIP3    H270577   6.386   0.193  12.085 -0.2983 -0.2826 -0.5030
16388TIP3   OH270578   2.548   5.897  11.442  0.3260 -0.0829 -0.5798
16388TIP3    H170579   2.603   5.904  11.365  1.0052  2.6722  0.0645
16388TIP3    H270580   2.591   5.829  11.495  0.8850 -0.6987 -1.7705
16389TIP3   OH270581   6.668   1.498  11.961 -0.2004  0.6955 -0.3974
16389TIP3    H170582   6.755   1.461  11.955 -0.8810 -1.4850  1.6383
16389TIP3    H270583   6.637   1.503  11.871  1.3282 -0.2376 -0.9999
16390TIP3   OH270584   5.958   5.868   1.781 -0.0019 -0.0799  0.1919
16390TIP3    H170585   5.921   5.816   1.710  0.1105  0.2559 -0.1120
16390TIP3    H270586   5.919   5.955   1.770  0.4723  0.1323  0.1906
16391TIP3   OH270587   3.450   4.280  16.645 -0.0466  0.1083 -0.5250
16391TIP3    H170588   3.487   4.323  16.567  1.1618 -1.0055 -0.6035
16391TIP3    H270589   3.438   4.189  16.618  0.8073 -0.3906  0.7002
16392TIP3   OH270590   2.170   5.263   4.276  0.0737 -0.2602  0.1670
16392TIP3    H170591   2.193   5.171   4.292  2.5285  0.3955  0.9407
16392TIP3    H270592   2.110   5.285   4.347 -0.1036 -1.1193  0.2954
16393TIP3   OH270593   1.828   6.120  13.273  0.5337 -0.1729  0.5136
16393TIP3    H170594   1.875   6.085  13.349  0.3470 -0.8555  0.3203
16393TIP3    H270595   1.824   6.214  13.289  1.0400 -0.2350  1.0477
16394TIP3   OH270596   2.938   3.116  17.028 -0.5364  0.6118  0.5703
16394TIP3    H170597   2.992   3.193  17.044  0.5921 -0.4148  2.1802
16394TIP3    H270598   2.853   3.138  17.065 -0.4659  1.3646  0.2980
16395TIP3   OH270599   6.017   4.461  14.146  0.6817 -0.3102 -0.1449
16395TIP3    H170600   6.102   4.459  14.191  1.4060  1.8674 -1.2564
16395TIP3    H270601   5.959   4.509  14.205 -0.1285 -2.5967  1.0359
16396TIP3   OH270602   4.071   6.306   2.637 -0.9457  0.1073  0.1940
16396TIP3    H170603   4.057   6.343   2.550 -1.4403  2.3434  1.1541
16396TIP3    H270604   4.130   6.231   2.622  0.8860  1.8180 -1.8049
16397TIP3   OH270605   2.961   3.325   0.543  0.0867  0.2892 -0.3147
16397TIP3    H170606   2.919   3.272   0.475 -1.8864 -0.2219  1.2050
16397TIP3    H270607   3.034   3.271   0.572  0.0684 -0.1396 -1.0130
16398TIP3   OH270608   0.882   2.098   0.746 -0.6087 -0.2470  0.4153
16398TIP3    H170609   0.937   2.020   0.746  0.1597  0.2719 -0.4471
16398TIP3    H270610   0.881   2.127   0.837  1.0859  0.0899  0.3517
16399TIP3   OH270611   0.925   2.804  11.107 -0.1453 -0.5199  0.4295
16399TIP3    H170612   0.914   2.733  11.043 -1.0076  0.8210 -0.9717
16399TIP3    H270613   0.978   2.765  11.177 -1.6227 -2.9120  0.3309
16400TIP3   OH270614   1.343   4.453   0.436 -0.3263  0.0386 -0.7068
16400TIP3    H170615   1.273   4.424   0.378 -0.0840 -0.4140 -0.7763
16400TIP3    H270616   1.337   4.549   0.435 -1.1646 -0.0069 -0.4335
16401TIP3   OH270617   5.629   0.412   4.256  0.7356 -0.2286  0.1934
16401TIP3    H170618   5.670   0.470   4.320 -0.1154  1.1169 -0.4272
16401TIP3    H270619   5.620   0.466   4.177 -0.0005 -1.2347 -0.4355
16402TIP3   OH270620   3.407   5.004  14.998 -0.2695  0.5147  0.1300
16402TIP3    H170621   3.482   5.019  15.055  0.1769  2.0020 -0.7906
16402TIP3    H270622   3.439   5.024  14.910 -1.0490 -1.3146 -0.6147
16403TIP3   OH270623   0.496   4.218   5.427  0.1234 -0.8263 -0.4368
16403TIP3    H170624   0.417   4.185   5.383 -1.7727  0.9766  1.4325
16403TIP3    H270625   0.523   4.146   5.484 -2.6658 -0.1834  1.9470
16404TIP3   OH270626   0.590   0.148   3.681  0.3139  0.4374  0.2688
16404TIP3    H170627   0.655   0.110   3.740 -0.2863 -1.3073 -0.1196
16404TIP3    H270628   0.523   0.183   3.739 -0.0978 -0.9398  0.6717
16405TIP3   OH270629   3.972   3.674  12.849 -0.0781  0.1428 -0.2254
16405TIP3    H170630   3.973   3.748  12.787 -0.0171 -0.0476 -0.4526
16405TIP3    H270631   3.968   3.715  12.935  0.7822  0.4360 -0.3122
16406TIP3   OH270632   2.141   0.295   0.598  0.8990  0.3488  0.5049
16406TIP3    H170633   2.185   0.303   0.682  1.6254  0.8529  0.0925
16406TIP3    H270634   2.213   0.294   0.534  0.4112 -1.0815 -0.0418
16407TIP3   OH270635   0.512   5.985  14.933  0.1736  0.0352  0.1989
16407TIP3    H170636   0.478   5.900  14.961 -2.8247  1.2435  0.5560
16407TIP3    H270637   0.575   6.009  15.002 -1.0083 -0.7032  1.5902
16408TIP3   OH270638   3.875   1.094   5.351 -0.2561  0.4025 -0.0339
16408TIP3    H170639   3.805   1.076   5.414  0.6436 -1.1826  0.5735
16408TIP3    H270640   3.941   1.140   5.403 -0.3025  0.7711 -0.2987
16409TIP3   OH270641   2.372   3.233   4.734 -0.7226  0.1438  0.0051
16409TIP3    H170642   2.385   3.327   4.737 -2.1765  0.3462  1.9573
16409TIP3    H270643   2.418   3.200   4.811 -1.0462 -0.6126 -0.1148
16410TIP3   OH270644   5.777   5.574   3.889 -0.4701  0.0176  0.5719
16410TIP3    H170645   5.870   5.580   3.912 -0.5381  3.7911  0.5502
16410TIP3    H270646   5.731   5.595   3.971 -1.1774  0.4213  0.0832
16411TIP3   OH270647   2.111   1.739   3.912  0.5813  0.5159 -0.1729
16411TIP3    H170648   2.185   1.789   3.878  0.6641 -0.7414 -2.0231
16411TIP3    H270649   2.151   1.671   3.966  0.7790  0.0894 -0.8388
16412TIP3   OH270650   5.005   5.675  12.930 -0.4058 -0.0856 -0.0413
16412TIP3    H170651   5.079   5.735  12.930 -1.4012  1.1975  0.7978
16412TIP3    H270652   4.929   5.730  12.948 -1.6143 -1.3223 -1.0687
16413TIP3   OH270653   0.318   5.574  13.110  0.2350 -0.2402  0.0794
16413TIP3    H170654   0.235   5.527  13.108 -0.0229  0.2257 -0.5749
16413TIP3    H270655   0.303   5.647  13.170  0.3465 -0.4640  0.3822
16414TIP3   OH270656   6.701   4.638  16.349  0.7182  0.0533 -0.9261
16414TIP3    H170657   6.655   4.635  16.433 -2.2383  0.7508 -2.3465
16414TIP3    H270658   6.745   4.554  16.343  2.4816  0.6368  1.9800
16415TIP3   OH270659   3.916   3.195   2.258 -1.2657 -0.4755 -0.7244
16415TIP3    H170660   3.855   3.219   2.189  0.3599 -1.7456 -2.7078
16415TIP3    H270661   3.928   3.101   2.248  0.1737 -0.4359  0.3169
16416TIP3   OH270662   3.858   1.407   4.632  0.0925  0.0577  0.0737
16416TIP3    H170663   3.803   1.391   4.709  1.9195 -0.2766  1.3987
16416TIP3    H270664   3.817   1.357   4.562 -1.5085  0.1883  0.8751
16417TIP3   OH270665   2.766   4.244  11.505  0.1819  0.1436  0.1775
16417TIP3    H170666   2.771   4.149  11.502  0.3985  0.1272  1.0214
16417TIP3    H270667   2.772   4.271  11.413 -1.1966 -0.7085 -0.1864
16418TIP3   OH270668   5.917   2.214  10.609 -0.1483  0.3618 -0.5990
16418TIP3    H170669   5.848   2.148  10.613 -0.5889  0.8365 -0.2208
16418TIP3    H270670   5.936   2.224  10.516 -1.4188  1.0634 -0.8108
16419TIP3   OH270671   5.821   2.812  12.025  0.0851 -0.5834  0.0988
16419TIP3    H170672   5.912   2.843  12.025 -0.2524  0.6609 -2.4534
16419TIP3    H270673   5.816   2.754  11.949 -1.5162  0.2689 -0.4860
16420TIP3   OH270674   4.307   4.386  14.098  0.3900  0.1249  0.1626
16420TIP3    H170675   4.276   4.297  14.081  1.4234 -0.4334  1.0406
16420TIP3    H270676   4.257   4.414  14.175  0.4164  0.1213  0.1807
16421TIP3   OH270677   1.119   0.954  15.538  0.0658 -0.2709 -0.1538
16421TIP3    H170678   1.107   1.035  15.588 -0.7771 -0.8292  0.5697
16421TIP3    H270679   1.209   0.928  15.558 -0.0801 -0.1914  0.6467
16422TIP3   OH270680   3.405   1.061  11.564  0.0129  0.4752 -0.2603
16422TIP3    H170681   3.324   1.111  11.550 -1.3723 -1.6918 -0.3809
16422TIP3    H270682   3.458   1.080  11.486 -1.9729 -0.9174 -2.0894
16423TIP3   OH270683   1.148   3.844   2.959 -0.1239  0.2092  0.2880
16423TIP3    H170684   1.111   3.849   3.047  1.0134 -0.4829  0.8297
16423TIP3    H270685   1.076   3.814   2.904 -0.2104 -1.7798  1.4223
16424TIP3   OH270686   5.916   0.240   2.520 -0.3255 -0.0374 -0.0045
16424TIP3    H170687   5.822   0.257   2.531 -0.5810 -1.4717  0.2537
16424TIP3    H270688   5.923   0.145   2.522  1.1077  0.0415 -0.3726
16425TIP3   OH270689   2.594   6.692   5.399  0.1093 -0.1079  0.1685
16425TIP3    H170690   2.566   6.675   5.309  1.4461 -0.6338 -0.1632
16425TIP3    H270691   2.671   6.748   5.391  0.1976 -0.0912  0.9881
16426TIP3   OH270692   5.976   4.962   0.849  0.2808  0.4579 -0.1157
16426TIP3    H170693   5.973   4.922   0.762  2.2384  1.1156 -0.5362
16426TIP3    H270694   5.969   5.056   0.832 -1.9476  0.4863  0.6863
16427TIP3   OH270695   4.962   1.238   1.921  0.2840 -0.2217  0.3529
16427TIP3    H170696   4.963   1.203   2.010  1.3269 -0.5728  0.2163
16427TIP3    H270697   4.869   1.242   1.897 -0.0214  0.1466  1.5553
16428TIP3   OH270698   0.701   1.954   4.740 -0.1253  0.6275  0.6236
16428TIP3    H170699   0.661   2.006   4.670  2.1945 -0.6228 -1.8528
16428TIP3    H270700   0.721   2.018   4.809 -1.2103  2.1939 -0.4306
16429TIP3   OH270701   6.749   5.131   4.055 -0.7267 -0.4244 -0.4333
16429TIP3    H170702   6.692   5.076   4.110  1.3653 -1.4521  0.8120
16429TIP3    H270703   6.793   5.070   3.997  1.9410 -0.2655  1.2398
16430TIP3   OH270704   0.012   0.013   6.670  0.4356 -0.1299  0.2077
16430TIP3    H170705   0.007   0.010   6.766  1.3298 -1.1405  0.2453
16430TIP3    H270706   0.007  -0.079   6.643  1.6448  0.0288 -0.6169
16431TIP3   OH270707   0.265   0.747   5.917 -0.0894 -0.3687  0.4419
16431TIP3    H170708   0.341   0.804   5.902  0.3790 -1.3743 -1.2295
16431TIP3    H270709   0.278   0.712   6.005  0.8018  0.3322  0.6003
16432TIP3   OH270710   3.698   3.015  16.589  0.3448  0.7390  0.1813
16432TIP3    H170711   3.706   2.935  16.641  2.9328  0.4099 -0.5967
16432TIP3    H270712   3.737   3.083  16.644 -2.0827  1.6186  0.9543
16433TIP3   OH270713   5.050   2.132   5.096 -0.2430 -0.7748  0.2934
16433TIP3    H170714   4.988   2.185   5.047  0.1755 -0.0417  0.5542
16433TIP3    H270715   5.000   2.054   5.122 -0.1906 -1.7982 -2.3124
16434TIP3   OH270716   2.147   2.271  12.207  0.0951 -0.7552 -0.3418
16434TIP3    H170717   2.167   2.347  12.262  0.5119  0.1961 -1.7728
16434TIP3    H270718   2.054   2.254  12.223  0.1379 -0.3244  0.4200
16435TIP3   OH270719   1.176   0.038  15.842 -0.1060 -0.3792 -0.6067
16435TIP3    H170720   1.177  -0.027  15.912  2.2816  0.0456 -0.1532
16435TIP3    H270721   1.267   0.043  15.813 -0.6108  1.2092 -2.0989
16436TIP3   OH270722   2.994   1.845   0.115  0.2747 -0.0883 -0.4181
16436TIP3    H170723   2.934   1.920   0.110 -1.1924 -1.1671  0.1418
16436TIP3    H270724   2.972   1.792   0.038 -0.7083 -1.3158  0.6505
16437TIP3   OH270725   6.756   4.394  15.970  0.1928 -0.1847 -0.0346
16437TIP3    H170726   6.785   4.361  15.886  0.8914 -1.0984  0.5510
16437TIP3    H270727   6.836   4.412  16.019 -0.1955 -0.5924  0.7839
16438TIP3   OH270728   4.357   1.206  15.303 -0.4192 -0.1890  0.1546
16438TIP3    H170729   4.292   1.276  15.314 -2.4264 -2.2386  2.5848
16438TIP3    H270730   4.305   1.127  15.290  1.7768 -1.3580 -2.4395
16439TIP3   OH270731   0.432   0.204  16.653  0.0341 -0.1981  0.1298
16439TIP3    H170732   0.484   0.269  16.699 -0.3955  0.6126 -0.4968
16439TIP3    H270733   0.429   0.236  16.562 -1.5236 -0.2156  0.1419
16440TIP3   OH270734   1.060   6.468  13.739 -0.4909  0.1429 -0.7815
16440TIP3    H170735   1.120   6.402  13.775 -1.5402  0.2612  1.3122
16440TIP3    H270736   1.115   6.545  13.726  0.2392 -0.3883 -0.9222
16441TIP3   OH270737   0.230   5.947   0.670 -0.0824 -0.6526 -0.0775
16441TIP3    H170738   0.183   5.865   0.660 -1.2500 -0.0528  0.2995
16441TIP3    H270739   0.165   6.015   0.650  0.5942  0.2051  0.5514
16442TIP3   OH270740   5.210   5.123   3.460 -0.5772 -0.5100 -0.0130
16442TIP3    H170741   5.115   5.120   3.456 -0.7294  2.0662  0.4163
16442TIP3    H270742   5.236   5.174   3.383  0.4171 -0.7188  0.1655
16443TIP3   OH270743   0.296   0.759   3.742 -0.0130 -0.2507 -0.5336
16443TIP3    H170744   0.304   0.699   3.668 -0.5414  1.1093 -1.7471
16443TIP3    H270745   0.370   0.737   3.798 -1.1961 -3.2804  0.0593
16444TIP3   OH270746   4.965   2.847  13.478  0.0363 -0.2329 -0.5549
16444TIP3    H170747   5.052   2.855  13.515 -0.0135 -0.8752 -0.3002
16444TIP3    H270748   4.952   2.929  13.430 -0.1761  0.9327  1.3873
16445TIP3   OH270749   0.582   1.366  10.891 -0.6126 -0.2312  0.2583
16445TIP3    H170750   0.508   1.383  10.832 -1.2849 -1.4203  0.7198
16445TIP3    H270751   0.647   1.432  10.868 -1.7100  0.6690 -0.3492
16446TIP3   OH270752   0.314   1.801   4.109 -0.1480  0.0297 -0.0013
16446TIP3    H170753   0.224   1.800   4.141 -0.0047  0.3669  0.4267
16446TIP3    H270754   0.306   1.801   4.014 -0.5940 -0.2286  0.0366
16447TIP3   OH270755   2.680   4.244  16.902 -0.3018  0.0059  0.2083
16447TIP3    H170756   2.620   4.177  16.871  0.3917 -1.0300  1.0217
16447TIP3    H270757   2.624   4.313  16.937 -1.0167 -0.8021  0.6789
16448TIP3   OH270758   5.687   2.889  14.420  0.2154 -0.2903 -0.2346
16448TIP3    H170759   5.607   2.913  14.466  0.9488  0.6055  0.6207
16448TIP3    H270760   5.659   2.870  14.331 -0.5936  2.9210 -0.8029
16449TIP3   OH270761   1.254   4.702   0.966 -0.3431 -0.0506 -0.4721
16449TIP3    H170762   1.350   4.701   0.971 -0.2828 -0.4552 -1.5244
16449TIP3    H270763   1.225   4.684   1.056  0.5628  0.2866 -0.1062
16450TIP3   OH270764   4.448   1.906  13.020 -0.4039 -0.5580 -0.3336
16450TIP3    H170765   4.398   1.881  13.098  0.4500 -1.4407 -0.0402
16450TIP3    H270766   4.536   1.872  13.036 -0.1240 -0.4607 -1.5394
16451TIP3   OH270767   5.300   2.233  17.033 -0.1406 -0.5462  0.2020
16451TIP3    H170768   5.300   2.139  17.051 -0.7610 -0.8397 -1.2271
16451TIP3    H270769   5.281   2.240  16.940 -0.0394  1.0013  0.2740
16452TIP3   OH270770   1.139   3.505  14.611  0.1211 -0.1451 -0.2255
16452TIP3    H170771   1.149   3.571  14.679 -0.0663 -0.3124 -0.0341
16452TIP3    H270772   1.227   3.495  14.573  1.1035 -2.5841  2.3278
16453TIP3   OH270773   0.792   5.134  14.472  0.4182  0.4349 -0.5195
16453TIP3    H170774   0.704   5.126  14.435  0.5456 -0.5377 -0.6344
16453TIP3    H270775   0.838   5.192  14.411 -0.0144  0.6046 -0.6912
16454TIP3   OH270776   3.678   2.484   3.224 -0.2255 -0.1017  0.0276
16454TIP3    H170777   3.604   2.514   3.171 -1.9718  0.6995  2.7432
16454TIP3    H270778   3.639   2.422   3.286  1.0752  1.3354  2.4156
16455TIP3   OH270779   2.586   2.048   0.638 -0.0262  0.0195  0.5180
16455TIP3    H170780   2.630   2.041   0.553 -2.1537 -0.6901 -0.5860
16455TIP3    H270781   2.534   1.969   0.646 -1.1729  0.8374  1.7174
16456TIP3   OH270782   0.928   6.741   1.453 -0.0785  0.0586  0.0332
16456TIP3    H170783   0.948   6.767   1.363 -4.1763 -0.3689 -1.2031
16456TIP3    H270784   0.931   6.823   1.503 -0.4121  0.7669 -1.0796
16457TIP3   OH270785   1.968   0.880   5.108  0.2447 -0.5335  0.6353
16457TIP3    H170786   2.032   0.931   5.058  0.1959 -2.0479 -1.0856
16457TIP3    H270787   1.895   0.868   5.047 -1.0900 -0.0486  2.0831
16458TIP3   OH270788   4.858   0.135   1.518 -0.2386 -0.2289 -0.1967
16458TIP3    H170789   4.829   0.203   1.457  0.2635 -1.7136 -2.2196
16458TIP3    H270790   4.952   0.129   1.503 -0.1450 -0.7676  0.5877
16459TIP3   OH270791   0.219   1.844   5.588  0.6731  0.1407  0.2896
16459TIP3    H170792   0.172   1.787   5.648 -0.2378 -0.3701 -0.8704
16459TIP3    H270793   0.151   1.886   5.535  1.4742 -0.2331 -1.0907
16460TIP3   OH270794   6.196   3.774  14.371  0.1455  0.0833 -0.0703
16460TIP3    H170795   6.180   3.842  14.305 -1.6880  0.1511  0.3873
16460TIP3    H270796   6.247   3.819  14.438  1.1860  0.2822 -0.9759
16461TIP3   OH270797   1.537   6.312  13.380 -0.6126  0.2173  0.3109
16461TIP3    H170798   1.449   6.340  13.405 -0.1518  2.2025 -0.1219
16461TIP3    H270799   1.537   6.315  13.284 -0.7231 -1.9890  0.1998
16462TIP3   OH270800   4.050   4.133   0.042 -0.3013 -0.1731  0.5538
16462TIP3    H170801   4.123   4.193   0.027 -1.0735  1.3692  2.4138
16462TIP3    H270802   4.088   4.062   0.094 -0.0990  0.6671  1.5920
16463TIP3   OH270803   1.908   1.865   3.354  0.0651  0.3022  0.8499
16463TIP3    H170804   1.833   1.887   3.409 -0.3218 -2.5076  1.5885
16463TIP3    H270805   1.889   1.907   3.270 -2.5251 -0.5668  0.9148
16464TIP3   OH270806   1.056   4.856  12.725 -0.2493 -0.3456 -0.3821
16464TIP3    H170807   1.088   4.767  12.708  0.1636 -0.0158 -1.4055
16464TIP3    H270808   1.035   4.891  12.638 -2.2890 -0.1273  0.1422
16465TIP3   OH270809   2.984   4.393   2.662 -0.1565 -0.6700 -0.0180
16465TIP3    H170810   2.942   4.325   2.715 -3.1969  0.2708 -1.0192
16465TIP3    H270811   2.981   4.472   2.716 -0.9324 -0.2978 -0.5856
16466TIP3   OH270812   5.741   0.219  16.998 -0.0660  0.7785  0.7329
16466TIP3    H170813   5.739   0.261  17.084 -0.6686  0.9411  0.6416
16466TIP3    H270814   5.712   0.129  17.014 -1.1823  1.0904  0.5506
16467TIP3   OH270815   3.342   3.907   5.473 -0.1724  1.1136 -0.1850
16467TIP3    H170816   3.411   3.945   5.419  1.3545 -2.6666 -1.2380
16467TIP3    H270817   3.379   3.904   5.561  0.2691  0.8418 -0.3757
16468TIP3   OH270818   3.750   1.276  11.618 -0.0503  0.4584 -0.2374
16468TIP3    H170819   3.686   1.346  11.610 -1.3846 -0.7900 -1.2002
16468TIP3    H270820   3.834   1.320  11.630 -0.7021  2.2412 -1.8162
16469TIP3   OH270821   5.723   3.390  12.636  0.0538  0.4393 -0.2558
16469TIP3    H170822   5.639   3.401  12.592 -0.2701 -1.9122 -0.3165
16469TIP3    H270823   5.715   3.445  12.715 -1.9584 -0.5165  0.2751
16470TIP3   OH270824   0.646   4.811  11.441  0.3570 -0.4000  0.1425
16470TIP3    H170825   0.711   4.741  11.445  2.0097  1.0852  0.6777
16470TIP3    H270826   0.647   4.850  11.528  0.6887  1.2994 -0.5724
16471TIP3   OH270827   4.207   0.536  16.413 -0.4415 -0.1546 -0.5863
16471TIP3    H170828   4.196   0.473  16.484  0.0436 -0.0188 -0.3842
16471TIP3    H270829   4.124   0.584  16.410 -0.8592 -0.8831 -0.8261
16472TIP3   OH270830   1.421   3.007   1.398 -0.4619 -0.3450 -0.1630
16472TIP3    H170831   1.378   2.944   1.456  0.2923 -1.0723 -0.3739
16472TIP3    H270832   1.495   3.040   1.449 -0.0883 -0.6155 -0.5213
16473TIP3   OH270833   3.625   5.250   6.142  0.1504 -0.2746 -0.2017
16473TIP3    H170834   3.687   5.319   6.119 -0.2022  0.3429  0.6149
16473TIP3    H270835   3.646   5.228   6.233  0.7831 -1.8295 -0.6994
16474TIP3   OH270836   0.562   0.938  14.453 -0.4166  0.6420  0.2518
16474TIP3    H170837   0.479   0.904  14.422  0.0113 -0.7924  0.6279
16474TIP3    H270838   0.547   1.032  14.463 -1.7891  0.4977 -0.2755
16475TIP3   OH270839   5.728   1.168  15.209 -0.6439 -0.0820 -0.1307
16475TIP3    H170840   5.744   1.240  15.148  0.3939  0.3173  0.5905
16475TIP3    H270841   5.635   1.176  15.231 -0.2102  2.1499  1.2654
16476TIP3   OH270842   0.551   2.688  10.874  0.3069 -0.0778 -0.4364
16476TIP3    H170843   0.484   2.726  10.817 -0.6721 -2.1681 -0.7673
16476TIP3    H270844   0.509   2.611  10.912  0.4879  1.6931  4.0160
16477TIP3   OH270845   4.832   6.215  16.299  0.2199 -0.2161  0.5744
16477TIP3    H170846   4.741   6.220  16.269  0.9596  0.1106 -1.8408
16477TIP3    H270847   4.855   6.306  16.318  1.0806  0.3065 -2.4633
16478TIP3   OH270848   4.536   4.570   6.297 -0.3263 -0.1508  0.3162
16478TIP3    H170849   4.511   4.492   6.248 -0.0987  0.2261 -0.4226
16478TIP3    H270850   4.452   4.609   6.323 -0.4472 -0.4086  0.3195
16479TIP3   OH270851   5.864   5.484  16.247  0.1392 -0.3685 -0.5819
16479TIP3    H170852   5.823   5.451  16.167  3.0427  0.4092 -2.5279
16479TIP3    H270853   5.815   5.564  16.267 -0.8792 -0.7748 -1.3627
16480TIP3   OH270854   0.312   3.937  16.991  0.2049  0.4023  0.6716
16480TIP3    H170855   0.269   4.015  16.956 -0.8065 -0.0481  0.8787
16480TIP3    H270856   0.394   3.969  17.029 -0.0433  1.3083  0.4512
16481TIP3   OH270857   0.625   1.529  14.975 -0.3013  0.0078 -0.3616
16481TIP3    H170858   0.720   1.524  14.978 -0.3056  0.5536  1.2680
16481TIP3    H270859   0.595   1.449  15.019 -0.6581 -1.0209 -2.3339
16482TIP3   OH270860   3.934   5.452   2.914  0.0135 -0.1583  0.1657
16482TIP3    H170861   3.909   5.377   2.968 -3.0249 -0.8525 -1.9260
16482TIP3    H270862   3.971   5.412   2.835  1.0300  0.6872  0.2010
16483TIP3   OH270863   5.431   3.699   0.783  0.3854 -0.0636 -0.4382
16483TIP3    H170864   5.439   3.794   0.778 -0.5319  0.1146  0.9065
16483TIP3    H270865   5.343   3.680   0.752 -1.2742  0.0706  3.5666
16484TIP3   OH270866   2.017   1.132  16.865  0.1507  0.2379 -0.4539
16484TIP3    H170867   1.978   1.112  16.950  0.6863 -3.3577 -0.9038
16484TIP3    H270868   2.111   1.138  16.883  0.1506  0.8659 -0.6236
16485TIP3   OH270869   4.167   1.351  16.851 -0.1044 -0.5516  0.3133
16485TIP3    H170870   4.253   1.329  16.888  0.6162  0.9671 -0.3610
16485TIP3    H270871   4.158   1.445  16.867 -0.8728 -0.3561 -1.1336
16486TIP3   OH270872   0.747   4.555  14.197  0.5786  0.2704 -0.0607
16486TIP3    H170873   0.829   4.514  14.167  0.4233  0.4849 -0.7962
16486TIP3    H270874   0.722   4.613  14.125 -0.2404  0.1794  0.1477
16487TIP3   OH270875   2.693   5.953  11.898 -0.0028 -0.1576  0.0903
16487TIP3    H170876   2.605   5.939  11.932 -0.4162 -2.5276 -1.7531
16487TIP3    H270877   2.748   5.892  11.948 -0.1742 -1.7458 -1.5887
16488TIP3   OH270878   6.173   3.587   5.068  0.4867  0.3605  0.4762
16488TIP3    H170879   6.188   3.626   4.982 -0.0237  0.1374  0.2761
16488TIP3    H270880   6.148   3.496   5.049  1.9848 -0.1837  0.9502
16489TIP3   OH270881   5.705   3.528   3.238  0.2826 -0.2785  0.3467
16489TIP3    H170882   5.619   3.487   3.248  0.2782 -0.2870  0.2761
16489TIP3    H270883   5.710   3.551   3.145 -0.3042  1.1766  0.6524
16490TIP3   OH270884   2.970   1.191  13.450 -0.1823 -0.1448  0.1740
16490TIP3    H170885   3.046   1.249  13.447 -1.5237  1.6268 -1.3234
16490TIP3    H270886   2.906   1.238  13.502 -0.8130 -0.9084  0.1002
16491TIP3   OH270887   6.751   5.074  12.071 -0.4075  0.5540  0.2010
16491TIP3    H170888   6.725   5.160  12.040 -0.1100  0.9553  1.0390
16491TIP3    H270889   6.704   5.062  12.154 -0.6064 -0.1751 -0.0088
16492TIP3   OH270890   6.467   3.175  15.902 -0.0297 -0.2640  0.0722
16492TIP3    H170891   6.471   3.230  15.825  2.1783 -2.3286 -1.4266
16492TIP3    H270892   6.386   3.125  15.892 -0.0772 -0.0602 -0.5531
16493TIP3   OH270893   2.958   6.698  10.665 -0.1286 -0.1367 -0.2581
16493TIP3    H170894   2.893   6.714  10.596 -0.2440 -1.2911 -0.4219
16493TIP3    H270895   3.008   6.623  10.635 -0.9883 -1.4537  1.4589
16494TIP3   OH270896   3.564   1.499   5.394  1.1527  0.7413  0.6011
16494TIP3    H170897   3.494   1.507   5.459  1.0622  0.0431  0.5914
16494TIP3    H270898   3.549   1.573   5.334  0.2082  0.3904  0.3900
16495TIP3   OH270899   6.437   4.428  10.287  0.1175 -0.0087 -0.1158
16495TIP3    H170900   6.359   4.373  10.281 -0.6743  1.0977 -0.1011
16495TIP3    H270901   6.428   4.490  10.214  0.9975  0.1120 -0.1307
16496TIP3   OH270902   3.143   3.395  12.597  0.1931 -0.4908  0.3810
16496TIP3    H170903   3.157   3.479  12.556  2.8890 -1.7700 -1.5681
16496TIP3    H270904   3.083   3.413  12.670  0.6371  3.0252  0.0032
16497TIP3   OH270905   3.592   1.396  13.501 -0.2947  0.5702  1.0435
16497TIP3    H170906   3.679   1.387  13.461  1.0586  0.5985  3.7425
16497TIP3    H270907   3.549   1.312  13.482  1.1469 -0.3020  1.4251
16498TIP3   OH270908   0.151   2.584  13.217  0.0969 -0.6119  0.1923
16498TIP3    H170909   0.240   2.617  13.204  0.3021 -1.0738  0.3981
16498TIP3    H270910   0.162   2.489  13.226 -0.2492 -0.5298  1.7409
16499TIP3   OH270911   5.022   5.397   3.445  0.1834 -0.3886  0.3218
16499TIP3    H170912   5.047   5.485   3.472 -1.8905  0.4350 -0.2883
16499TIP3    H270913   5.028   5.398   3.349  1.3145 -1.3275  0.3490
16500TIP3   OH270914   2.545   5.645   0.442  0.2464 -0.3538  0.2205
16500TIP3    H170915   2.462   5.598   0.433  0.2242 -0.3979  0.6651
16500TIP3    H270916   2.523   5.735   0.417  0.0416 -0.3432  0.4384
16501TIP3   OH270917   3.399   0.351  12.147 -0.2031  0.7172  0.6168
16501TIP3    H170918   3.412   0.379  12.056 -0.3192  0.1665  0.4265
16501TIP3    H270919   3.318   0.300  12.145 -0.6674  1.4037  1.1899
16502TIP3   OH270920   4.753   6.326   2.321  0.2991  0.3143  0.0406
16502TIP3    H170921   4.661   6.325   2.295 -0.2059  1.9663  1.5614
16502TIP3    H270922   4.796   6.379   2.254 -0.1269  0.7434  0.1000
16503TIP3   OH270923   6.406   2.900  13.980 -0.1297 -0.6535 -0.5156
16503TIP3    H170924   6.445   2.866  13.900  1.0699  0.7720 -0.5825
16503TIP3    H270925   6.366   2.983  13.954 -1.5889 -1.1727 -0.0458
16504TIP3   OH270926   1.488   3.395   1.002 -0.1176 -0.1202  0.2073
16504TIP3    H170927   1.448   3.343   1.071 -0.3523 -0.1138  0.0777
16504TIP3    H270928   1.504   3.333   0.931 -3.4511  0.5032 -1.2946
16505TIP3   OH270929   2.201   4.146  14.036 -0.1161  0.1264  0.2891
16505TIP3    H170930   2.211   4.179  13.947 -1.0207  0.6958  0.3900
16505TIP3    H270931   2.250   4.207  14.091  0.4308 -0.2175  0.1972
16506TIP3   OH270932   5.650   0.339  15.394  0.8898 -0.2388 -0.1761
16506TIP3    H170933   5.583   0.278  15.363  2.5452 -2.1740 -0.1086
16506TIP3    H270934   5.704   0.357  15.317  3.3261 -2.8395  0.7381
16507TIP3   OH270935   3.861   0.660  11.032  0.0917  0.7312  0.2428
16507TIP3    H170936   3.815   0.578  11.018 -1.6379  1.5610  0.7758
16507TIP3    H270937   3.803   0.727  10.995  1.3292  1.7472  0.0622
16508TIP3   OH270938   5.534   5.399  14.572 -0.0815  0.1775 -0.1408
16508TIP3    H170939   5.481   5.377  14.648 -0.8492  0.5199 -0.5573
16508TIP3    H270940   5.470   5.425  14.505  0.5742 -0.0667 -0.8840
16509TIP3   OH270941   3.470   0.627   1.632  0.2510  0.1444  0.0495
16509TIP3    H170942   3.516   0.657   1.553 -0.3292 -0.4471 -0.5295
16509TIP3    H270943   3.380   0.613   1.603  0.5843 -2.6440  0.1273
16510TIP3   OH270944   2.895   6.480   5.422 -0.7627 -0.0499  0.6914
16510TIP3    H170945   2.855   6.415   5.480 -1.2646  1.3131  1.9584
16510TIP3    H270946   2.896   6.560   5.475 -2.8825  1.7523 -1.7347
16511TIP3   OH270947   2.308   5.772  16.160  0.7069  0.3727 -0.1112
16511TIP3    H170948   2.353   5.829  16.223 -0.3024 -0.4902  1.4426
16511TIP3    H270949   2.215   5.794  16.170  0.5046  0.0116 -1.1117
16512TIP3   OH270950   5.027   3.554   1.062 -0.4893  0.0106 -0.4000
16512TIP3    H170951   5.011   3.587   0.974  0.4000 -1.1936 -1.0458
16512TIP3    H270952   5.040   3.460   1.050 -1.0881 -0.2937  1.1187
16513TIP3   OH270953   6.681   3.505   1.032 -0.0782 -0.5190  0.3818
16513TIP3    H170954   6.776   3.516   1.030 -0.3690  3.1324 -0.6383
16513TIP3    H270955   6.652   3.535   0.946 -2.2201 -0.5633  1.0288
16514TIP3   OH270956   5.596   0.976  16.075 -0.3727  0.1876  0.4185
16514TIP3    H170957   5.639   0.907  16.124  0.1574  0.9531  1.0686
16514TIP3    H270958   5.610   1.055  16.127 -0.5854  0.8656 -0.5101
16515TIP3   OH270959   6.461   5.193   0.977  0.6986  0.5080 -0.0230
16515TIP3    H170960   6.466   5.167   0.885  1.4116 -2.7052  0.7897
16515TIP3    H270961   6.375   5.233   0.987 -1.1568 -2.7411 -1.3672
16516TIP3   OH270962   3.414   0.799  13.418  0.4312 -0.3483 -0.4459
16516TIP3    H170963   3.357   0.848  13.358  0.4815 -0.9533 -1.0008
16516TIP3    H270964   3.444   0.724  13.366  2.3844  0.3777 -0.4325
16517TIP3   OH270965   4.104   2.151   0.659 -0.0040  0.2834  0.7693
16517TIP3    H170966   4.191   2.125   0.629 -1.0360 -1.4384 -1.0490
16517TIP3    H270967   4.085   2.231   0.611 -0.0257 -0.2260 -0.0971
16518TIP3   OH270968   0.360   5.348  15.041 -0.0602  0.3167 -0.0392
16518TIP3    H170969   0.308   5.429  15.045  1.2600  1.2035 -0.1954
16518TIP3    H270970   0.364   5.327  14.947  1.8687  1.6384 -0.3041
16519TIP3   OH270971   6.641   1.653  15.056 -0.4564  0.1220 -0.4555
16519TIP3    H170972   6.728   1.691  15.039 -0.5148  0.2650 -0.4377
16519TIP3    H270973   6.580   1.715  15.018 -0.5938  0.5089  0.3811
16520TIP3   OH270974   3.727   2.695  12.959  0.2429  0.6191  0.6582
16520TIP3    H170975   3.666   2.752  12.912  1.2216  1.0579 -0.1160
16520TIP3    H270976   3.782   2.754  13.010 -0.4395  0.1805  1.9556
16521TIP3   OH270977   5.598   3.089  16.142  0.8067  0.7148  0.5722
16521TIP3    H170978   5.644   3.053  16.218  1.6475 -1.2149 -0.7866
16521TIP3    H270979   5.622   3.032  16.070 -2.8871  0.2196 -0.4540
16522TIP3   OH270980   6.396   3.675   6.171  0.0047  0.9504  0.3361
16522TIP3    H170981   6.483   3.707   6.194  0.8269  0.4320 -1.7855
16522TIP3    H270982   6.336   3.736   6.213  1.3377  0.8390  2.5549
16523TIP3   OH270983   4.068   4.396   4.270 -0.2888  0.4638  0.1633
16523TIP3    H170984   4.138   4.354   4.221 -0.0382  1.5060 -0.3992
16523TIP3    H270985   4.089   4.379   4.362  0.4990  0.4522 -0.0135
16524TIP3   OH270986   0.796   3.124   0.618  0.6680  0.0963 -0.2579
16524TIP3    H170987   0.774   3.111   0.711 -0.2820  0.0720 -0.4831
16524TIP3    H270988   0.771   3.041   0.576 -0.6660  0.7788 -0.8495
16525TIP3   OH270989   5.143   3.866   2.221 -0.0563  0.0088 -0.4689
16525TIP3    H170990   5.182   3.906   2.299 -2.5430  1.5003  0.1068
16525TIP3    H270991   5.177   3.918   2.148  0.3877  0.1621 -0.1598
16526TIP3   OH270992   1.801   6.448   0.143 -0.9996 -0.1403  0.5393
16526TIP3    H170993   1.863   6.374   0.138 -0.3517  0.4191  0.0654
16526TIP3    H270994   1.715   6.408   0.130 -0.7654 -0.9554  1.3290
16527TIP3   OH270995   1.041   2.679  11.945 -0.0089 -0.1426  0.2643
16527TIP3    H170996   1.059   2.674  11.851  0.6569 -2.2891  0.4438
16527TIP3    H270997   0.954   2.718  11.951  1.3232  3.4608 -1.0117
16528TIP3   OH270998   5.506   2.630   4.314  0.1249 -0.0741  0.2620
16528TIP3    H170999   5.431   2.595   4.361 -0.7068  1.2097 -0.0573
16528TIP3    H271000   5.566   2.661   4.383 -1.3409  2.3375  0.5642
16529TIP3   OH271001   4.614   4.036   3.555 -0.0801 -0.5073 -0.4648
16529TIP3    H171002   4.682   4.101   3.570 -0.8830  0.2691 -0.1000
16529TIP3    H271003   4.619   4.017   3.461  1.1147 -1.0164 -0.3117
16530TIP3   OH271004   4.844   4.029   1.149  0.3796  0.4757 -0.3518
16530TIP3    H171005   4.845   3.935   1.166  1.1011  0.4619 -0.4278
16530TIP3    H271006   4.928   4.047   1.107 -0.3165  0.9235 -1.6075
16531TIP3   OH271007   0.841   5.107   5.058 -0.6658  0.1977  0.0745
16531TIP3    H171008   0.843   5.196   5.093 -1.7281  0.5421 -0.6831
16531TIP3    H271009   0.828   5.051   5.135  1.2878  0.5524  0.7224
16532TIP3   OH271010   0.568   5.437   1.651 -0.4855 -0.1242  0.3610
16532TIP3    H171011   0.474   5.446   1.631 -0.7003  0.3021  1.4856
16532TIP3    H271012   0.573   5.447   1.746  0.9286  1.9554  0.1367
16533TIP3   OH271013   2.673   2.579   1.570 -0.0614  0.0528  0.4958
16533TIP3    H171014   2.600   2.593   1.511  0.2399  0.1730  0.1489
16533TIP3    H271015   2.750   2.573   1.513  0.3565  1.0830  0.9291
16534TIP3   OH271016   6.004   0.762   4.441  0.0660  0.0581  0.7435
16534TIP3    H171017   6.095   0.788   4.432  0.1118 -0.6614 -1.7763
16534TIP3    H271018   5.974   0.804   4.521  2.3624  0.9743  1.1940
16535TIP3   OH271019   2.947   5.421  14.386  0.2677  0.1483 -0.6313
16535TIP3    H171020   3.020   5.401  14.445  0.0046 -0.2004 -0.4224
16535TIP3    H271021   2.944   5.347  14.325  1.6132  1.2896 -2.1694
16536TIP3   OH271022   1.282   6.446   2.987  0.1887  0.2698 -0.8479
16536TIP3    H171023   1.267   6.352   2.977  1.4179  0.0764 -1.0471
16536TIP3    H271024   1.311   6.457   3.077  2.1708  0.1194 -1.4174
16537TIP3   OH271025   5.369   5.644   5.818 -0.0562 -0.4064 -0.1208
16537TIP3    H171026   5.350   5.555   5.787  3.2463 -1.3572  0.1405
16537TIP3    H271027   5.406   5.631   5.906  0.9187  1.1686 -0.2664
16538TIP3   OH271028   2.292   5.799  16.474  0.3680  0.1872 -0.1056
16538TIP3    H171029   2.381   5.811  16.509  1.2652 -0.6442 -1.9829
16538TIP3    H271030   2.250   5.885  16.485  1.0527  0.3496  1.6443
16539TIP3   OH271031   2.007   4.623  12.147  0.4939 -0.3080 -0.6344
16539TIP3    H171032   1.925   4.592  12.184  1.7044 -0.4017  2.2068
16539TIP3    H271033   1.991   4.626  12.052 -2.9781  0.3916 -0.1611
16540TIP3   OH271034   3.004   4.489  15.548 -0.1748  0.4163  0.1289
16540TIP3    H171035   3.017   4.416  15.487  1.0133  0.1931  0.6307
16540TIP3    H271036   3.073   4.552  15.526  1.3590 -0.3907  2.2743
16541TIP3   OH271037   4.917   1.674   0.809 -0.2351  0.2934 -0.2868
16541TIP3    H171038   4.828   1.697   0.835  0.4169 -0.1565  2.7154
16541TIP3    H271039   4.933   1.725   0.729 -3.1507  0.3189 -0.9574
16542TIP3   OH271040   3.479   2.799   5.035  0.0612  0.0550  0.0199
16542TIP3    H171041   3.459   2.888   5.062 -0.5890 -0.3080  0.7645
16542TIP3    H271042   3.393   2.760   5.015  0.0550 -1.2021  2.2355
16543TIP3   OH271043   2.334   1.612   1.115 -0.3619  0.9529 -0.1656
16543TIP3    H171044   2.344   1.540   1.177 -0.7693  1.9799  1.1407
16543TIP3    H271045   2.310   1.569   1.032 -0.3722 -0.4088  0.5138
16544TIP3   OH271046   2.896   1.727  12.847  0.3451 -0.1924  0.2696
16544TIP3    H171047   2.986   1.697  12.860  0.8479  0.4914 -1.4530
16544TIP3    H271048   2.852   1.706  12.930  1.6016 -2.2355  0.4953
16545TIP3   OH271049   5.602   2.327   0.819 -0.1723  0.0214  0.1858
16545TIP3    H171050   5.631   2.331   0.728 -2.2492 -1.0605 -0.6023
16545TIP3    H271051   5.672   2.369   0.868  0.2318  2.2701 -2.0932
16546TIP3   OH271052   1.655   4.319   1.582  0.3703  0.3929  0.2179
16546TIP3    H171053   1.596   4.249   1.613 -0.3630  0.5385 -0.8022
16546TIP3    H271054   1.605   4.399   1.597  0.4280  0.5399 -0.3686
16547TIP3   OH271055   2.167   3.266  11.860  0.2848 -0.2362 -0.2000
16547TIP3    H171056   2.253   3.307  11.873 -0.3432  0.6717  1.2424
16547TIP3    H271057   2.170   3.235  11.769  1.9481  0.2089 -0.3446
16548TIP3   OH271058   2.567   3.294  11.657 -0.0214  0.0847 -0.3917
16548TIP3    H171059   2.482   3.252  11.667 -0.5546  1.3595  0.6026
16548TIP3    H271060   2.562   3.338  11.572  0.4036 -1.4474 -1.2640
16549TIP3   OH271061   4.093   1.733  12.747  0.3111  0.1566 -0.3328
16549TIP3    H171062   4.172   1.679  12.750 -0.5163 -1.0783  0.4135
16549TIP3    H271063   4.120   1.817  12.784  1.5254  0.1190 -1.0825
16550TIP3   OH271064   6.373   6.172   4.667 -0.0042 -0.6133  0.0698
16550TIP3    H171065   6.333   6.090   4.639 -0.0701 -0.1875 -1.1715
16550TIP3    H271066   6.302   6.236   4.667  0.4632 -0.0562 -1.2578
16551TIP3   OH271067   6.282   4.512  13.671  0.3941 -0.0336  0.4751
16551TIP3    H171068   6.221   4.446  13.703 -1.4663  1.0905 -0.5934
16551TIP3    H271069   6.342   4.464  13.614 -0.6279 -0.9003  0.0963
16552TIP3   OH271070   2.428   3.425  13.038  0.1617 -0.4663  0.1301
16552TIP3    H171071   2.522   3.435  13.024  0.2138 -1.6753 -0.6400
16552TIP3    H271072   2.391   3.511  13.019  1.0829 -0.0709  0.0869
16553TIP3   OH271073   2.554   1.890  13.258  0.5681 -0.3691 -0.5681
16553TIP3    H171074   2.520   1.909  13.171 -1.9707 -3.3606 -0.4094
16553TIP3    H271075   2.476   1.879  13.312  2.0247 -0.7634  1.5772
16554TIP3   OH271076   2.488   3.348   1.393  0.2463 -0.1473 -0.4416
16554TIP3    H171077   2.501   3.442   1.375  1.2374 -0.5070 -1.7255
16554TIP3    H271078   2.529   3.304   1.320  0.1593 -1.6230  0.3701
16555TIP3   OH271079   6.602   6.053  16.022  0.2637  0.6609 -0.7639
16555TIP3    H171080   6.508   6.038  16.021  0.3809 -0.4721 -3.1107
16555TIP3    H271081   6.612   6.146  16.039 -1.3147  0.9005 -1.0371
16556TIP3   OH271082   4.880   1.668   2.785  0.4114  0.3003  0.6219
16556TIP3    H171083   4.849   1.718   2.710 -1.3443 -0.1776  0.9845
16556TIP3    H271084   4.864   1.724   2.860 -2.0217 -0.9081  1.0839
16557TIP3   OH271085   6.624   0.672  13.192 -0.0568 -0.0388 -0.4467
16557TIP3    H171086   6.697   0.732  13.175 -1.0400  0.9523 -1.3897
16557TIP3    H271087   6.645   0.632  13.276  3.3474 -2.4783 -2.2148
16558TIP3   OH271088   2.251   4.942  14.625  0.1993 -0.2968 -0.0056
16558TIP3    H171089   2.295   4.870  14.671  0.2152 -0.3563 -0.1139
16558TIP3    H271090   2.208   4.900  14.551  2.7817  0.2073 -1.9186
16559TIP3   OH271091   2.826   1.129   3.225  0.0610 -0.3382  0.2072
16559TIP3    H171092   2.753   1.164   3.175  0.6151  0.2864 -0.1898
16559TIP3    H271093   2.786   1.088   3.302 -0.6117  1.5394  0.9075
16560TIP3   OH271094   5.256   3.643  11.777 -0.3749  0.1369 -0.3041
16560TIP3    H171095   5.247   3.667  11.685 -1.7583  1.2445  0.0819
16560TIP3    H271096   5.343   3.675  11.802 -1.0270  2.2727 -0.5746
16561TIP3   OH271097   5.160   5.794   5.398  0.1922 -0.6698 -0.1905
16561TIP3    H171098   5.246   5.815   5.435 -1.5182  3.4749  2.0591
16561TIP3    H271099   5.118   5.742   5.467 -0.3671  0.5638  0.4200
16562TIP3   OH271100   0.416   2.379  13.172 -0.4833 -0.1715 -0.3301
16562TIP3    H171101   0.413   2.403  13.079  0.6638  2.0182  0.1171
16562TIP3    H271102   0.465   2.296  13.174  1.9479  1.1174 -1.5482
16563TIP3   OH271103   3.189   6.102   6.690 -0.0649  0.4692  0.5380
16563TIP3    H171104   3.284   6.112   6.683  0.0291  0.8586  2.0980
16563TIP3    H271105   3.172   6.014   6.655  0.5344  1.2699 -2.0355
16564TIP3   OH271106   1.378   5.699  10.879 -0.4536 -0.1908  0.4385
16564TIP3    H171107   1.302   5.754  10.858  0.1613  0.1761 -0.9228
16564TIP3    H271108   1.452   5.742  10.835 -0.1245 -2.6767 -1.6768
16565TIP3   OH271109   2.788   4.257  15.373 -0.0051 -0.5670  0.1951
16565TIP3    H171110   2.882   4.267  15.383  0.0067  1.5524 -1.3165
16565TIP3    H271111   2.777   4.175  15.325  1.0479 -0.8864  0.4814
16566TIP3   OH271112   6.265   4.251   2.939 -0.6425  0.8292 -0.0897
16566TIP3    H171113   6.358   4.229   2.948 -0.7962  0.8935  2.1117
16566TIP3    H271114   6.258   4.341   2.972 -1.4034  1.0816 -0.8793
16567TIP3   OH271115   1.206   6.043   0.553 -0.4329 -0.1978 -0.0531
16567TIP3    H171116   1.248   5.964   0.517 -1.6293  0.0605 -2.1460
16567TIP3    H271117   1.273   6.082   0.609  0.9000 -1.6031 -0.5946
16568TIP3   OH271118   3.562   1.284   5.200 -0.6760 -0.0299  0.0243
16568TIP3    H171119   3.577   1.345   5.273  0.3029 -0.0046 -0.1777
16568TIP3    H271120   3.495   1.224   5.232 -0.5021  0.1915  0.8226
16569TIP3   OH271121   4.572   4.369  11.876 -0.2832  0.3959  0.0996
16569TIP3    H171122   4.487   4.337  11.909 -0.2441 -1.3355 -1.3422
16569TIP3    H271123   4.557   4.384  11.783  1.1309 -0.4806 -0.2910
16570TIP3   OH271124   4.723   3.528   5.371  0.2325 -0.9375  0.2784
16570TIP3    H171125   4.698   3.510   5.462  0.1089  0.2792  0.5107
16570TIP3    H271126   4.674   3.607   5.348  0.9542 -0.7117 -0.5452
16571TIP3   OH271127   0.146   0.296  12.565 -0.4219 -0.2180  0.2139
16571TIP3    H171128   0.208   0.319  12.634  0.1983 -0.3421 -0.2984
16571TIP3    H271129   0.098   0.221  12.600  1.4383 -1.7425 -0.3710
16572TIP3   OH271130   2.887   0.909   5.281  0.6999 -0.3769 -0.5455
16572TIP3    H171131   2.851   0.826   5.248  1.7717 -1.0833  0.0320
16572TIP3    H271132   2.811   0.966   5.289 -0.1433 -1.4990 -0.3617
16573TIP3   OH271133   5.162   6.457  13.293  0.5529 -0.1572  0.3252
16573TIP3    H171134   5.101   6.437  13.363 -0.2414  0.1024 -0.2837
16573TIP3    H271135   5.182   6.372  13.254 -0.5857 -0.0980 -0.4221
16574TIP3   OH271136   6.289   3.029  15.423  0.1975 -0.4220 -0.3575
16574TIP3    H171137   6.210   3.056  15.470  2.0806  1.8194  1.7776
16574TIP3    H271138   6.320   2.952  15.470 -0.3941 -0.9698 -0.8529
16575TIP3   OH271139   2.306   1.064   5.169 -0.0841 -0.7300 -0.2229
16575TIP3    H171140   2.231   1.083   5.112 -1.1427 -0.2524  1.2567
16575TIP3    H271141   2.373   1.127   5.141 -1.2901  0.8729  0.3345
16576TIP3   OH271142   0.066   2.245  14.990 -0.1711 -0.3806 -0.1057
16576TIP3    H171143   0.148   2.290  14.974 -1.2595  1.1714 -1.6781
16576TIP3    H271144   0.005   2.281  14.925 -2.7335  0.2622  2.4271
16577TIP3   OH271145   0.005   4.439  11.541 -0.2305 -0.4475 -0.2240
16577TIP3    H171146   0.056   4.504  11.493  0.0670  0.4092  1.1934
16577TIP3    H271147  -0.008   4.368  11.479  0.6042  0.3754 -1.3822
16578TIP3   OH271148   2.913   0.714   0.537  0.0758  0.5281  0.0480
16578TIP3    H171149   2.868   0.631   0.523 -0.1114  0.5491  0.5097
16578TIP3    H271150   2.879   0.746   0.620  0.5800  0.7839  0.1622
16579TIP3   OH271151   2.411   1.597   3.833 -0.1359 -0.2170  0.7008
16579TIP3    H171152   2.386   1.690   3.832 -0.8498 -0.3696  1.9221
16579TIP3    H271153   2.437   1.578   3.743  0.2299  1.2234  0.4745
16580TIP3   OH271154   2.910   2.807  11.316 -0.3214 -0.5758  0.0024
16580TIP3    H171155   3.002   2.791  11.295  0.8189  3.1067  1.4004
16580TIP3    H271156   2.862   2.768  11.243  2.4539 -0.9317 -1.8028
16581TIP3   OH271157   5.174   5.307   0.769 -0.2993 -0.0769  0.1556
16581TIP3    H171158   5.216   5.375   0.822  0.0476 -0.5323  0.4694
16581TIP3    H271159   5.105   5.354   0.721  2.0227  1.1922 -2.2226
16582TIP3   OH271160   0.432   2.303  14.541 -0.2300  0.3018 -0.3569
16582TIP3    H171161   0.347   2.271  14.512 -0.5192  0.9637 -0.2434
16582TIP3    H271162   0.412   2.367  14.609  0.3836 -0.0483  0.1675
16583TIP3   OH271163   0.791   4.509  15.128 -0.4565  0.1156  0.1406
16583TIP3    H171164   0.744   4.444  15.181  1.4151 -1.8830 -0.4791
16583TIP3    H271165   0.722   4.558  15.083 -1.9714 -0.8466  1.3114
16584TIP3   OH271166   0.025   5.645   6.667 -0.2995 -0.8741  0.3905
16584TIP3    H171167   0.095   5.584   6.691  0.3071  0.2956  1.7177
16584TIP3    H271168  -0.052   5.614   6.716 -0.2601 -1.1660  0.2673
16585TIP3   OH271169   6.423   3.997   2.178  0.4590 -0.5130  0.3417
16585TIP3    H171170   6.364   4.028   2.246  1.2275  0.1378  0.7255
16585TIP3    H271171   6.377   4.015   2.096 -0.1808 -0.6846  0.6576
16586TIP3   OH271172   3.861   0.956   3.536  0.6018 -0.1347  0.1797
16586TIP3    H171173   3.881   0.932   3.626  0.4360  0.7308  0.4556
16586TIP3    H271174   3.817   0.880   3.500 -2.2310  0.5848  1.7989
16587TIP3   OH271175   4.384   3.428  11.129  0.2855 -0.0325  0.3663
16587TIP3    H171176   4.447   3.437  11.201  0.3996 -1.4785  0.4717
16587TIP3    H271177   4.434   3.389  11.058 -0.0214  0.6756 -0.2548
16588TIP3   OH271178   0.430   3.025   3.254 -0.5833 -0.0021  0.4784
16588TIP3    H171179   0.477   3.108   3.247  0.7533 -0.7041  0.7713
16588TIP3    H271180   0.406   3.018   3.347 -0.1190 -0.2290  0.5864
16589TIP3   OH271181   2.103   2.516  15.530  0.4440  0.4137 -0.1765
16589TIP3    H171182   2.153   2.516  15.448  0.9124 -0.4782  0.0894
16589TIP3    H271183   2.152   2.574  15.588  0.7623  0.1287 -0.1581
16590TIP3   OH271184   2.087   3.270  10.677  0.2667 -0.1767 -0.4526
16590TIP3    H171185   2.145   3.218  10.734 -1.6844 -1.8173  0.1442
16590TIP3    H271186   2.094   3.228  10.591  0.2258 -0.1479 -0.4703
16591TIP3   OH271187   0.418   1.981  16.938 -0.0573 -0.3550  0.2798
16591TIP3    H171188   0.394   1.913  16.875 -0.0552  0.3898 -0.5449
16591TIP3    H271189   0.340   1.992  16.993 -0.0248 -1.0760  0.4755
16592TIP3   OH271190   1.561   0.251  14.812 -0.0652 -0.1763  0.7292
16592TIP3    H171191   1.655   0.251  14.829 -0.1181  0.4746  1.0808
16592TIP3    H271192   1.550   0.196  14.734  0.5022 -0.9809  1.2026
16593TIP3   OH271193   5.723   2.679   4.500  0.1735 -0.4024  0.5965
16593TIP3    H171194   5.752   2.768   4.520 -0.0082  0.0093 -0.8382
16593TIP3    H271195   5.803   2.626   4.503  0.6448  0.2117 -0.5919
16594TIP3   OH271196   1.348   4.421  13.739 -0.7708  0.4920  0.1533
16594TIP3    H171197   1.376   4.339  13.778  1.3196 -0.1995 -2.5052
16594TIP3    H271198   1.363   4.487  13.807  1.5583 -0.7585  0.9547
16595TIP3   OH271199   4.862   2.847   2.441 -0.1176 -0.7320  0.0853
16595TIP3    H171200   4.922   2.821   2.511  0.5058 -0.3057 -0.2742
16595TIP3    H271201   4.910   2.826   2.361 -1.1883 -2.0893 -0.2390
16596TIP3   OH271202   3.958   1.329   5.184  0.4977  0.6833 -0.2775
16596TIP3    H171203   3.952   1.240   5.220 -1.7764  0.8379 -0.1619
16596TIP3    H271204   3.900   1.328   5.109  0.8152  1.9582 -0.5505
16597TIP3   OH271205   2.780   0.444   1.104  0.2791 -0.6611  0.1057
16597TIP3    H171206   2.714   0.389   1.146  1.0559 -0.2213  1.9735
16597TIP3    H271207   2.833   0.383   1.053  0.5019 -1.5309  1.3305
16598TIP3   OH271208   4.945   3.507   4.864 -0.8635  0.1440 -0.3063
16598TIP3    H171209   4.944   3.539   4.774  0.2815  3.5496  0.7484
16598TIP3    H271210   4.863   3.540   4.902 -0.1960  0.9242  0.5075
16599TIP3   OH271211   5.642   1.968  12.335  0.3420 -0.3279 -0.6699
16599TIP3    H171212   5.572   1.904  12.323 -0.7878  0.7923 -0.3163
16599TIP3    H271213   5.721   1.916  12.349 -0.9015 -1.6983  1.8833
16600TIP3   OH271214   2.479   0.102   1.236  0.5704  0.0779 -0.0745
16600TIP3    H171215   2.523   0.138   1.313 -1.7759 -1.1163  2.0019
16600TIP3    H271216   2.428   0.028   1.271 -1.0589 -0.1458 -2.6860
16601TIP3   OH271217   6.223   2.753  13.344  0.4130  0.6552 -0.5685
16601TIP3    H171218   6.217   2.789  13.255 -2.8823  0.8514 -0.3853
16601TIP3    H271219   6.182   2.667  13.338  0.8046  0.3619  0.6535
16602TIP3   OH271220   3.179   0.941  16.915 -0.4541 -0.8957 -0.2432
16602TIP3    H171221   3.249   0.888  16.954 -2.1119 -1.6600  1.8710
16602TIP3    H271222   3.102   0.884  16.918 -1.6713  0.6856 -0.4851
16603TIP3   OH271223   4.869   2.073   2.044  0.0029 -0.0271  0.4000
16603TIP3    H171224   4.961   2.056   2.064 -0.6273 -3.1087  1.1075
16603TIP3    H271225   4.839   2.130   2.116  1.3930  1.3561 -0.0657
16604TIP3   OH271226   6.673   4.942   5.235 -0.1489  0.1640  0.2181
16604TIP3    H171227   6.712   4.868   5.188 -0.2592  0.5221 -0.4384
16604TIP3    H271228   6.688   4.921   5.327 -1.5666 -1.4713  0.1363
16605TIP3   OH271229   1.545   3.771   4.809 -0.5840 -0.1454 -1.0333
16605TIP3    H171230   1.479   3.825   4.852  1.1876  1.7618 -0.5087
16605TIP3    H271231   1.497   3.696   4.775 -3.0413  1.2673 -0.9076
16606TIP3   OH271232   2.221   5.541   2.875 -0.0226 -0.3314 -0.4407
16606TIP3    H171233   2.308   5.579   2.888 -1.1740  1.9703  1.0933
16606TIP3    H271234   2.193   5.514   2.962 -0.5814 -1.7646 -1.0367
16607TIP3   OH271235   0.073   5.406  15.700  0.0350  0.1257  0.1218
16607TIP3    H171236   0.006   5.339  15.711 -0.8693  1.1924  1.4449
16607TIP3    H271237   0.050   5.450  15.618 -0.1788 -0.2679 -0.0322
16608TIP3   OH271238   4.574   2.670   3.594 -0.1582 -0.4881 -0.1880
16608TIP3    H171239   4.608   2.735   3.533  0.2429 -0.6769 -0.1689
16608TIP3    H271240   4.616   2.691   3.677 -0.3726 -0.4953 -0.0763
16609TIP3   OH271241   1.143   1.986   4.043  0.1511 -0.3503 -0.5245
16609TIP3    H171242   1.175   1.918   4.103  0.9862  0.5842  0.1099
16609TIP3    H271243   1.209   1.990   3.974  0.1843 -0.0723 -0.4760
16610TIP3   OH271244   3.551   5.494  14.603 -0.1048 -0.1263  0.5244
16610TIP3    H171245   3.553   5.535  14.517 -1.5971  2.0503  1.4473
16610TIP3    H271246   3.643   5.492  14.631  0.1550  1.3926 -0.1317
16611TIP3   OH271247   3.165   1.683  16.566  0.2230 -0.4195  0.0009
16611TIP3    H171248   3.114   1.719  16.493  0.1498  0.6990  0.5836
16611TIP3    H271249   3.250   1.662  16.528 -0.2007 -0.9981 -0.6691
16612TIP3   OH271250   3.775   3.646   4.508  0.0238  0.0112 -0.1965
16612TIP3    H171251   3.804   3.726   4.463 -1.1887  0.8506  0.4483
16612TIP3    H271252   3.856   3.603   4.535  0.7414  0.1882 -1.9506
16613TIP3   OH271253   5.378   5.497   0.521 -0.3528  0.1048 -0.4900
16613TIP3    H171254   5.344   5.407   0.523 -0.4691  0.0918 -1.8291
16613TIP3    H271255   5.358   5.527   0.433 -0.1678  1.4003 -0.1029
16614TIP3   OH271256   1.555   6.344   4.914  0.1453  0.6278  0.2681
16614TIP3    H171257   1.640   6.304   4.893 -0.8574 -0.9787 -0.9233
16614TIP3    H271258   1.529   6.304   4.997 -1.6842 -2.8284 -1.7600
16615TIP3   OH271259   5.253   2.209  12.852 -0.7226 -0.3299 -0.2406
16615TIP3    H171260   5.310   2.285  12.863  1.4319 -1.7165 -1.2647
16615TIP3    H271261   5.165   2.246  12.841  0.3792  2.0590 -1.7120
16616TIP3   OH271262   0.991   4.553   3.855  0.2708  0.2902 -0.7403
16616TIP3    H171263   1.065   4.608   3.834  1.3450 -0.6542  0.3723
16616TIP3    H271264   0.983   4.559   3.951 -0.8700  0.1183 -0.8101
16617TIP3   OH271265   1.093   1.385  15.914 -0.2524 -0.3575 -0.2113
16617TIP3    H171266   1.013   1.429  15.886 -2.1710 -2.6355  1.1930
16617TIP3    H271267   1.153   1.456  15.937 -1.5535  1.4488 -2.0305
16618TIP3   OH271268   6.688   0.328  16.462 -0.0173  0.2622 -0.4490
16618TIP3    H171269   6.783   0.340  16.463 -0.0962  1.0642  1.3102
16618TIP3    H271270   6.653   0.416  16.479 -1.1147  0.1239 -1.8299
16619TIP3   OH271271   0.638   2.884  12.568 -0.1923 -0.4839 -0.3915
16619TIP3    H171272   0.684   2.809  12.530  1.0860  1.0683 -2.1278
16619TIP3    H271273   0.563   2.898  12.510  1.1605  1.2401 -1.8299
16620TIP3   OH271274   3.089   0.848  14.307  0.1924 -0.0086  0.0356
16620TIP3    H171275   3.119   0.936  14.283  0.8246 -0.7577 -2.1411
16620TIP3    H271276   3.169   0.796  14.313 -0.3163 -1.0676 -1.6433
16621TIP3   OH271277   1.293   3.097  15.594  0.1814  0.1087 -0.5732
16621TIP3    H171278   1.278   3.078  15.501  1.1726 -3.3039 -0.2070
16621TIP3    H271279   1.388   3.109  15.601  0.6715 -3.2138  0.3230
16622TIP3   OH271280   2.474   4.612  14.368 -0.2907  0.6347  0.2631
16622TIP3    H171281   2.390   4.629  14.411  1.0712  1.3165  2.8358
16622TIP3    H271282   2.538   4.614  14.438  2.0930  1.4451 -1.7742
16623TIP3   OH271283   1.830   6.332  14.991  0.2155  0.1557 -0.3518
16623TIP3    H171284   1.768   6.263  15.016  1.3569 -1.0351 -0.6795
16623TIP3    H271285   1.905   6.318  15.048  1.4414 -0.4283 -2.0233
16624TIP3   OH271286   6.562   5.295  13.438  0.3353 -0.2605  0.0539
16624TIP3    H171287   6.526   5.208  13.420 -0.6277  0.3874 -1.3356
16624TIP3    H271288   6.507   5.329  13.509  0.7592 -0.7916  0.6502
16625TIP3   OH271289   1.337   0.190   1.325  0.7489 -0.1284  0.1082
16625TIP3    H171290   1.393   0.115   1.344  1.2933  0.3545  0.4119
16625TIP3    H271291   1.331   0.192   1.229  0.2425 -0.9091  0.1140
16626TIP3   OH271292   2.321   5.108   0.063  0.5750 -0.5448  0.3168
16626TIP3    H171293   2.349   5.197   0.045  1.1542 -0.5308  1.2546
16626TIP3    H271294   2.402   5.059   0.079  0.2110 -1.0067  0.8129
16627TIP3   OH271295   0.381   3.138  16.644  0.2165  0.1556  0.1737
16627TIP3    H171296   0.307   3.137  16.583 -0.3353  1.1801  0.7970
16627TIP3    H271297   0.441   3.204  16.609 -0.3527  1.1383  0.9983
16628TIP3   OH271298   4.627   3.573   0.778 -0.4133 -0.8633  0.4441
16628TIP3    H171299   4.695   3.618   0.828  0.1166 -0.3341 -0.7027
16628TIP3    H271300   4.549   3.627   0.788 -0.2353 -0.6139  0.4796
16629TIP3   OH271301   4.481   0.980  13.443 -0.0289 -0.2568 -0.1809
16629TIP3    H171302   4.559   1.032  13.462 -0.1241 -0.5795  1.2050
16629TIP3    H271303   4.423   0.997  13.518 -1.3942  0.1558 -1.2813
16630TIP3   OH271304   5.453   5.445  14.169 -0.4582 -0.4672 -0.2676
16630TIP3    H171305   5.412   5.444  14.083  0.0222  0.5581 -0.5237
16630TIP3    H271306   5.380   5.454  14.230 -0.7405 -0.3650 -0.6175
16631TIP3   OH271307   0.320   2.326   2.885 -0.6818  0.4979  0.7058
16631TIP3    H171308   0.294   2.414   2.911  1.1997  0.9465  1.2535
16631TIP3    H271309   0.302   2.271   2.962 -0.0663  0.7985  1.0739
16632TIP3   OH271310   1.459   2.891  10.961 -0.0532 -0.6926  0.5664
16632TIP3    H171311   1.503   2.809  10.985 -1.4893 -1.6675 -0.0128
16632TIP3    H271312   1.501   2.916  10.878 -0.2247 -1.3534  0.2658
16633TIP3   OH271313   5.587   0.867  14.367  0.9507  0.2122 -0.5306
16633TIP3    H171314   5.675   0.831  14.361  0.6218 -0.6836 -0.0894
16633TIP3    H271315   5.553   0.835  14.450 -0.5358 -1.1345 -1.5957
16634TIP3   OH271316   2.036   6.232   6.644 -0.1514  0.4750  0.4368
16634TIP3    H171317   2.090   6.153   6.648  0.2793  0.7508  0.1142
16634TIP3    H271318   2.098   6.304   6.644 -0.5628  0.8396  1.2819
16635TIP3   OH271319   0.236   2.336   4.084 -0.0090 -0.0076  0.3912
16635TIP3    H171320   0.199   2.306   4.167 -0.4975  1.2782  0.6546
16635TIP3    H271321   0.206   2.427   4.075  0.6878  0.1275 -0.8098
16636TIP3   OH271322   4.398   2.937   5.078  0.4540  0.1196 -0.3550
16636TIP3    H171323   4.320   2.894   5.115 -0.8121  0.9518 -1.9260
16636TIP3    H271324   4.472   2.894   5.121 -0.8190 -1.8902 -0.0407
16637TIP3   OH271325   3.981   3.065   4.330  0.1687 -0.0598  0.7264
16637TIP3    H171326   3.995   3.133   4.396  0.2040  0.6708 -0.0211
16637TIP3    H271327   4.069   3.044   4.298  0.0724  0.2378  0.2688
16638TIP3   OH271328   4.581   1.283   0.595  0.2887  0.2769  0.3811
16638TIP3    H171329   4.555   1.255   0.507  1.0304  1.9932 -0.4277
16638TIP3    H271330   4.499   1.288   0.644 -0.1384 -0.6111 -0.2169
16639TIP3   OH271331   1.664   2.163   5.023  0.0077 -0.0906 -0.0698
16639TIP3    H171332   1.640   2.217   5.099  3.5548  1.8159 -0.0971
16639TIP3    H271333   1.738   2.209   4.983  0.3787 -2.7347 -2.8088
16640TIP3   OH271334   4.713   2.966   5.035  0.1654  0.0628 -0.5085
16640TIP3    H171335   4.636   2.964   4.979 -0.1012 -0.5835 -0.1272
16640TIP3    H271336   4.708   2.885   5.087  2.1217 -1.0145 -1.8521
16641TIP3   OH271337   0.074   5.524   4.591 -0.8077  0.2814  0.0633
16641TIP3    H171338   0.026   5.581   4.652 -2.8393  1.0611 -2.1287
16641TIP3    H271339   0.028   5.440   4.596 -0.3043  0.0155  0.3456
16642TIP3   OH271340   0.035   2.564  16.070 -0.0328 -0.1294  0.2962
16642TIP3    H171341   0.047   2.647  16.024 -0.0671 -0.9953 -1.3602
16642TIP3    H271342   0.095   2.568  16.145  0.3486  1.1660 -0.0620
16643TIP3   OH271343   6.715   2.265   5.424  0.3047  0.6152 -0.5048
16643TIP3    H171344   6.681   2.290   5.339 -0.9292  0.9280  0.0477
16643TIP3    H271345   6.721   2.347   5.473  0.5749  0.3885 -0.1516
16644TIP3   OH271346   0.103   2.286  14.255 -0.0289 -0.2510 -0.3259
16644TIP3    H171347   0.163   2.360  14.247  0.6115 -0.6056  1.0386
16644TIP3    H271348   0.087   2.278  14.349 -1.8269 -0.4871 -0.6029
16645TIP3   OH271349   6.240   3.341  12.398 -0.2596 -0.2293 -0.1395
16645TIP3    H171350   6.230   3.329  12.303  1.3141  2.4403 -0.7406
16645TIP3    H271351   6.328   3.377  12.409 -0.9142  0.8721  2.1786
16646TIP3   OH271352   3.696   1.632   2.732 -0.0836 -0.0417  0.3004
16646TIP3    H171353   3.672   1.595   2.817  1.4601 -0.3655  0.6230
16646TIP3    H271354   3.782   1.594   2.712  1.1972  2.6345  0.2221
16647TIP3   OH271355   2.183   1.116  12.475  0.3419  0.0506 -0.4613
16647TIP3    H171356   2.188   1.034  12.523  0.4188  0.4454  0.2306
16647TIP3    H271357   2.231   1.178  12.530 -0.2194  0.6883 -0.6721
16648TIP3   OH271358   0.210   5.001   1.505 -0.5460  0.1009  0.2748
16648TIP3    H171359   0.277   5.049   1.554  1.9446 -1.6956 -1.1328
16648TIP3    H271360   0.192   4.924   1.559  0.1549 -0.4988 -0.3365
16649TIP3   OH271361   3.236   0.269  17.024  0.0137  0.2364  0.0073
16649TIP3    H171362   3.213   0.247  16.934  0.3934  0.6827 -0.2038
16649TIP3    H271363   3.286   0.194  17.055  1.5888  0.9023 -0.8147
16650TIP3   OH271364   5.639   4.506   3.166  0.8369  0.2149  0.2942
16650TIP3    H171365   5.678   4.592   3.182  0.1841  0.7862 -0.9904
16650TIP3    H271366   5.705   4.459   3.115  0.2376  0.8835 -1.1624
16651TIP3   OH271367   0.736   1.017  16.679  0.2994 -0.1294  0.5087
16651TIP3    H171368   0.738   0.983  16.769 -2.7656  2.1579  1.6133
16651TIP3    H271369   0.692   0.948  16.629 -1.1842 -0.0122  1.5808
16652TIP3   OH271370   0.226   5.910  14.192  0.2775 -0.2645  0.2078
16652TIP3    H171371   0.195   5.862  14.269  0.8823 -1.2484 -0.1518
16652TIP3    H271372   0.267   5.844  14.137  2.1835  0.8447  0.2258
16653TIP3   OH271373   4.942   5.052   6.400 -0.4123 -0.1466 -0.0965
16653TIP3    H171374   5.025   5.088   6.369  0.0249 -1.1475 -0.1414
16653TIP3    H271375   4.963   5.014   6.486 -1.1749  0.9063  0.5785
16654TIP3   OH271376   1.536   4.513   3.589 -0.5712 -0.8050 -0.4340
16654TIP3    H171377   1.523   4.567   3.510  0.6535 -0.8619 -0.6853
16654TIP3    H271378   1.491   4.431   3.569 -1.0007 -0.5073 -0.7265
16655TIP3   OH271379   5.776   4.061  12.450 -0.2180 -0.0784 -0.2349
16655TIP3    H171380   5.844   4.111  12.495 -2.0791  0.9247  1.6889
16655TIP3    H271381   5.695   4.087  12.494 -1.8205 -1.4513 -2.1943
16656TIP3   OH271382   3.081   0.683  12.621  0.6906  0.0839 -0.1762
16656TIP3    H171383   3.030   0.631  12.559  0.9151  1.1108 -1.2681
16656TIP3    H271384   3.117   0.755  12.568  2.8485 -0.3004  0.6478
16657TIP3   OH271385   1.825   6.673   4.646  0.3582 -0.0726  0.4811
16657TIP3    H171386   1.849   6.759   4.680  0.0271  0.4063 -0.4801
16657TIP3    H271387   1.900   6.617   4.667  0.3329  0.2865  1.6371
16658TIP3   OH271388   1.381   4.362   3.056  0.4533 -0.5934  0.2245
16658TIP3    H171389   1.307   4.375   2.997  1.6031 -1.1227 -1.4030
16658TIP3    H271390   1.347   4.304   3.124 -0.2481 -2.1926 -1.3822
16659TIP3   OH271391   4.829   0.877   5.600 -0.1998 -0.0905  0.0318
16659TIP3    H171392   4.843   0.964   5.564 -0.7675  0.5347  1.2687
16659TIP3    H271393   4.910   0.856   5.647  0.0458 -0.3615 -0.5029
16660TIP3   OH271394   5.494   4.440   1.763  0.0671  0.6434  0.2230
16660TIP3    H171395   5.434   4.391   1.820  1.0293 -0.2166  0.5257
16660TIP3    H271396   5.546   4.372   1.720  2.0576  1.3859  1.3258
16661TIP3   OH271397   4.453   4.445   5.015 -0.0927  0.2867  0.1477
16661TIP3    H171398   4.434   4.493   4.934  0.9497 -2.2791 -1.7821
16661TIP3    H271399   4.377   4.387   5.027  0.7600 -0.9994 -0.3987
16662TIP3   OH271400   3.357   5.020   2.149  0.5577 -0.6090 -0.1354
16662TIP3    H171401   3.378   4.944   2.203  2.7687  0.9304  1.3441
16662TIP3    H271402   3.379   4.993   2.060  0.1909 -2.0623  0.1892
16663TIP3   OH271403   5.204   1.892  16.442  0.1148  0.6767 -0.3082
16663TIP3    H171404   5.174   1.837  16.514  3.5584 -1.9983 -0.6746
16663TIP3    H271405   5.196   1.836  16.365  1.1820  1.6870 -1.1808
16664TIP3   OH271406   4.747   3.643   2.635  0.1256  0.6015  0.2226
16664TIP3    H171407   4.694   3.584   2.689 -0.3998  1.0070  0.1555
16664TIP3    H271408   4.741   3.607   2.547  1.9476 -0.7492  0.5936
16665TIP3   OH271409   6.276   2.595   3.388  0.5656  0.1754  0.0662
16665TIP3    H171410   6.331   2.530   3.345  1.0567  1.3950 -1.2061
16665TIP3    H271411   6.271   2.565   3.479  1.7783 -0.9762 -0.2110
16666TIP3   OH271412   4.194   5.050   5.391 -0.0244 -0.0611  0.6082
16666TIP3    H171413   4.260   4.984   5.414  2.1897  2.2066  1.2840
16666TIP3    H271414   4.148   5.067   5.473 -0.5084 -0.6429  0.4629
16667TIP3   OH271415   4.554   3.678  14.378  0.0552 -0.0678  0.3242
16667TIP3    H171416   4.589   3.598  14.416 -0.9550 -0.5687  0.2221
16667TIP3    H271417   4.588   3.679  14.288 -0.6926 -0.8794  0.0180
16668TIP3   OH271418   2.770   1.751  13.092  0.0530  0.0840  0.0122
16668TIP3    H171419   2.701   1.693  13.057  0.4769 -0.4322  0.0224
16668TIP3    H271420   2.735   1.780  13.177 -0.5706  0.5966 -0.4072
16669TIP3   OH271421   1.581   3.798   5.223 -0.2918 -0.3330 -0.8175
16669TIP3    H171422   1.506   3.738   5.227 -1.5866  1.2232  2.7661
16669TIP3    H271423   1.633   3.776   5.300 -0.4999  2.6377  0.2922
16670TIP3   OH271424   2.636   2.750   2.830  0.6821  0.6417  0.5280
16670TIP3    H171425   2.612   2.823   2.774  0.4907  1.0177  1.0916
16670TIP3    H271426   2.674   2.685   2.770  0.7558  1.1523  0.0113
16671TIP3   OH271427   0.560   4.925   0.526  0.8307  0.2473 -0.5792
16671TIP3    H171428   0.652   4.928   0.553  0.8146  1.7977 -0.6211
16671TIP3    H271429   0.555   4.984   0.451 -0.3353  0.7521 -0.1293
16672TIP3   OH271430   1.287   0.111  14.577 -0.0843 -0.3053  0.2454
16672TIP3    H171431   1.212   0.059  14.550 -0.8460  0.9205 -0.0543
16672TIP3    H271432   1.251   0.196  14.602  1.2402  0.5059 -0.4336
16673TIP3   OH271433   0.151   0.517  12.129 -0.0642 -1.0595 -0.3160
16673TIP3    H171434   0.091   0.458  12.174  0.4363 -1.2601  0.1069
16673TIP3    H271435   0.147   0.599  12.180 -0.0836 -1.0279 -0.3687
16674TIP3   OH271436   0.806   6.415   3.212  0.1169  0.1342 -0.2225
16674TIP3    H171437   0.881   6.442   3.264 -0.0553 -2.0082  1.2576
16674TIP3    H271438   0.740   6.483   3.230  0.9425  0.8375  0.2518
16675TIP3   OH271439   3.839   4.745  15.835  0.1925  0.2514  0.0300
16675TIP3    H171440   3.757   4.695  15.837  0.9840 -1.1072  0.1550
16675TIP3    H271441   3.906   4.681  15.860  1.6079  0.7110 -2.3105
16676TIP3   OH271442   2.901   0.780   2.361 -0.6819  0.2604 -0.2447
16676TIP3    H171443   2.812   0.811   2.347 -1.7989 -1.2479  2.6049
16676TIP3    H271444   2.901   0.690   2.328 -0.6761 -0.1881  0.9048
16677TIP3   OH271445   2.592   0.199   1.472 -0.0728 -0.2339 -0.4137
16677TIP3    H171446   2.666   0.150   1.508  0.2262  0.9711  0.6816
16677TIP3    H271447   2.536   0.217   1.547  0.5106  2.2402 -0.4864
16678TIP3   OH271448   4.468   3.004   1.080  0.0594 -0.0511 -0.6088
16678TIP3    H171449   4.405   3.071   1.055 -0.2939 -0.4402 -0.7874
16678TIP3    H271450   4.523   2.993   1.002  0.4573  0.4067 -0.3955
16679TIP3   OH271451   3.797   0.983   1.081  0.3491 -0.3959 -0.2784
16679TIP3    H171452   3.874   1.019   1.125 -0.9412  0.2977  1.5021
16679TIP3    H271453   3.737   0.960   1.152 -0.2991 -2.8516 -1.5156
16680TIP3   OH271454   0.714   1.101   6.141  0.4717 -0.3782 -0.2693
16680TIP3    H171455   0.733   1.155   6.064  0.4026 -2.0273 -1.5197
16680TIP3    H271456   0.620   1.105   6.152  0.5073  0.0474 -0.1376
16681TIP3   OH271457   1.633   0.592  16.713  0.4592 -0.0370  0.0900
16681TIP3    H171458   1.725   0.613  16.726  0.5735 -1.1483  1.2551
16681TIP3    H271459   1.624   0.502  16.744 -1.2044  0.3526  0.8543
16682TIP3   OH271460   5.065   6.376   3.680  0.1531  0.0364 -0.4375
16682TIP3    H171461   5.052   6.392   3.587  1.7650  0.4992 -0.6200
16682TIP3    H271462   5.149   6.418   3.700  0.1288 -0.5755  1.0842
16683TIP3   OH271463   1.638   3.304  11.787 -0.1885 -0.6546 -0.1702
16683TIP3    H171464   1.553   3.278  11.752  0.5291 -0.8759 -1.8438
16683TIP3    H271465   1.691   3.225  11.784  0.9579  0.0973 -2.0274
16684TIP3   OH271466   4.889   0.579  11.076 -0.3368 -0.1215  0.0783
16684TIP3    H171467   4.837   0.653  11.110 -0.2959 -1.1956  2.6482
16684TIP3    H271468   4.967   0.577  11.131  0.0206 -1.6423 -0.4532
16685TIP3   OH271469   5.272   2.048  12.082 -0.0135 -0.3826 -0.2571
16685TIP3    H171470   5.186   2.088  12.088 -0.0423 -0.6521  1.7316
16685TIP3    H271471   5.259   1.959  12.116  0.9244 -0.6393 -0.5462
16686TIP3   OH271472   3.990   6.786   5.483 -0.6129  0.2557 -0.3400
16686TIP3    H171473   4.049   6.779   5.558 -2.8055 -2.4752  1.3142
16686TIP3    H271474   3.925   6.851   5.510 -1.8946 -1.3402  0.6287
16687TIP3   OH271475   1.486   2.128  14.539 -0.2226  0.0771 -0.2707
16687TIP3    H171476   1.560   2.086  14.494 -0.2844  0.6994 -0.9704
16687TIP3    H271477   1.423   2.058  14.553  0.9540 -0.7113  1.3467
16688TIP3   OH271478   5.932   1.423   4.184 -0.2049 -0.2622 -0.1581
16688TIP3    H171479   5.879   1.410   4.263 -1.9861 -1.8488 -1.5240
16688TIP3    H271480   5.959   1.335   4.158 -1.3654 -0.0249 -2.4159
16689TIP3   OH271481   2.622   5.571  11.824  0.2166  0.3093 -0.2881
16689TIP3    H171482   2.601   5.569  11.918 -1.1643  0.9249 -0.5563
16689TIP3    H271483   2.661   5.486  11.806 -1.1005 -0.4937  0.5053
16690TIP3   OH271484   6.123   5.149  11.125  0.2407  0.2240  0.3937
16690TIP3    H171485   6.033   5.183  11.121 -0.2783 -1.0666  0.7859
16690TIP3    H271486   6.138   5.108  11.040  1.4286  2.6743 -0.6875
16691TIP3   OH271487   4.798   3.790   3.854 -0.1393 -0.1946 -0.3060
16691TIP3    H171488   4.872   3.736   3.825  0.4931  0.5212 -0.0650
16691TIP3    H271489   4.738   3.790   3.780  0.7582  0.3569 -1.0650
16692TIP3   OH271490   5.135   2.667   4.003 -0.1031 -0.0232  0.2992
16692TIP3    H171491   5.129   2.714   3.920  2.1273  1.7230  1.0204
16692TIP3    H271492   5.195   2.595   3.986  2.1388  1.6257  0.8349
16693TIP3   OH271493   0.230   4.148   3.641  0.0173  0.5446 -0.1029
16693TIP3    H171494   0.227   4.070   3.586  0.2571  1.1272 -0.9532
16693TIP3    H271495   0.226   4.114   3.731 -0.2959 -0.4152 -0.4709
16694TIP3   OH271496   2.232   3.567  17.076  0.4860 -0.4872  0.4046
16694TIP3    H171497   2.237   3.478  17.040 -0.5447 -0.2477 -0.3784
16694TIP3    H271498   2.321   3.586  17.105  0.8165 -1.6068  0.1622
16695TIP3   OH271499   5.690   5.150   1.726  0.1143  0.4839 -0.4773
16695TIP3    H171500   5.775   5.109   1.715  1.2328  2.1163  1.2912
16695TIP3    H271501   5.634   5.082   1.765  0.9253 -0.2932 -0.6580
16696TIP3   OH271502   2.848   3.670   5.307 -0.1351  0.0067  0.2116
16696TIP3    H171503   2.870   3.710   5.222 -2.0235  1.2257  0.2355
16696TIP3    H271504   2.810   3.586   5.284 -0.7776  0.3936 -0.1873
16697TIP3   OH271505   2.994   1.204   4.782 -0.4545  0.4264  0.0114
16697TIP3    H171506   3.072   1.256   4.799 -0.5850  0.0543  1.9769
16697TIP3    H271507   2.921   1.267   4.785 -0.3742  0.5388 -0.3406
16698TIP3   OH271508   6.358   4.107  14.942  0.1746 -0.1656 -0.4539
16698TIP3    H171509   6.293   4.176  14.931  0.7619  0.4310 -0.2616
16698TIP3    H271510   6.308   4.026  14.936 -0.6026  0.2800 -0.2031
16699TIP3   OH271511   0.362   4.122  14.029  0.4391 -0.4506 -0.2145
16699TIP3    H171512   0.383   4.152  14.117  2.4563 -0.2284 -0.7160
16699TIP3    H271513   0.281   4.071  14.039  0.4291 -0.1193  1.6781
16700TIP3   OH271514   2.289   6.095  16.251  0.3944 -0.3538 -0.6577
16700TIP3    H171515   2.339   6.167  16.212 -0.5306  0.6173 -0.1040
16700TIP3    H271516   2.198   6.113  16.225  0.2021 -1.5585 -0.8505
16701TIP3   OH271517   5.202   3.903   3.927 -0.4269  0.2785 -0.1644
16701TIP3    H171518   5.169   3.985   3.891 -0.3115  0.2019 -0.4470
16701TIP3    H271519   5.129   3.867   3.977 -1.4360 -0.8268 -2.3281
16702TIP3   OH271520   1.837   0.104   2.487 -0.0838 -0.0618 -0.3767
16702TIP3    H171521   1.785   0.074   2.561  0.0073 -0.8453 -0.6157
16702TIP3    H271522   1.875   0.187   2.516  1.8727 -1.4552  1.3919
16703TIP3   OH271523   4.523   2.630   1.316 -0.1862 -0.0171 -0.6713
16703TIP3    H171524   4.541   2.545   1.354 -0.3865 -0.0312 -0.6106
16703TIP3    H271525   4.546   2.620   1.223  0.6828  0.1312 -0.4871
16704TIP3   OH271526   4.191   1.978  11.828 -0.3788  0.2244  0.2571
16704TIP3    H171527   4.217   2.061  11.870  1.0653  0.4057 -0.8913
16704TIP3    H271528   4.217   1.988  11.737 -2.1837 -0.6908 -0.4087
16705TIP3   OH271529   0.060   3.013   2.583  0.0578 -0.8725 -0.5584
16705TIP3    H171530  -0.018   3.012   2.638  0.0381  0.1313 -0.5578
16705TIP3    H271531   0.129   2.976   2.638 -0.6163 -2.7843 -0.9083
16706TIP3   OH271532   6.077   6.584   2.294  0.4198  0.1883 -0.3197
16706TIP3    H171533   6.107   6.511   2.240 -1.3831 -0.2683 -0.7859
16706TIP3    H271534   6.095   6.557   2.384 -2.6255 -2.1623 -0.2389
16707TIP3   OH271535   3.273   2.703  11.675  0.0659  0.1084 -0.3546
16707TIP3    H171536   3.229   2.664  11.750 -0.0993  1.5265  0.3173
16707TIP3    H271537   3.304   2.628  11.623 -0.9443 -0.8860  0.4486
16708TIP3   OH271538   5.639   4.210   1.713  0.7055 -0.0947 -0.1988
16708TIP3    H171539   5.714   4.185   1.659  0.5775 -0.8723 -0.0217
16708TIP3    H271540   5.642   4.152   1.788 -0.5611 -0.7342 -0.6098
16709TIP3   OH271541   1.280   3.643   3.817  0.2125 -0.6613 -0.3305
16709TIP3    H171542   1.238   3.693   3.888  1.9396  0.0657  0.2398
16709TIP3    H271543   1.346   3.702   3.782  1.3444 -2.0485 -0.6198
16710TIP3   OH271544   6.378   6.230   5.983  0.1834  0.4963  0.3064
16710TIP3    H171545   6.367   6.251   5.890 -0.5777  0.8318  0.4655
16710TIP3    H271546   6.423   6.306   6.019  0.0546  0.5699  0.3100
16711TIP3   OH271547   0.517   4.536  11.664  0.5964  0.0064  0.5002
16711TIP3    H171548   0.531   4.535  11.569  0.4074  1.4942  0.4319
16711TIP3    H271549   0.423   4.545  11.675  0.5468 -0.8442  0.8547
16712TIP3   OH271550   4.469   5.482  13.118 -0.1925 -0.4598 -0.1280
16712TIP3    H171551   4.424   5.475  13.033 -2.3723 -0.5759  0.9705
16712TIP3    H271552   4.557   5.450  13.100 -1.1975 -2.5844 -1.9002
16713TIP3   OH271553   5.574   1.200   4.919 -0.3613  0.1260  0.0102
16713TIP3    H171554   5.579   1.282   4.968 -0.6076  0.3596 -0.3430
16713TIP3    H271555   5.499   1.212   4.861  0.0803 -0.0417 -0.6036
16714TIP3   OH271556   4.164   3.824   1.460 -0.4622  0.4117 -0.0436
16714TIP3    H171557   4.238   3.771   1.430  0.2925 -0.1704  2.6490
16714TIP3    H271558   4.087   3.774   1.432 -0.0886  1.7042 -4.1519
16715TIP3   OH271559   6.090   5.497   5.030 -0.0622  0.1430  0.3538
16715TIP3    H171560   6.052   5.490   5.118 -1.3557 -0.5518 -0.2377
16715TIP3    H271561   6.032   5.445   4.975 -0.2314  1.9023 -1.2205
16716TIP3   OH271562   1.656   5.164  15.091  0.0214  0.6288 -0.2386
16716TIP3    H171563   1.645   5.203  15.177  1.0598  2.6176 -0.9370
16716TIP3    H271564   1.567   5.156  15.056 -0.3472  0.5085  0.7112
16717TIP3   OH271565   2.548   5.758  16.559 -0.5285 -0.0172 -0.0229
16717TIP3    H171566   2.583   5.744  16.471 -0.4663  1.5794 -0.2970
16717TIP3    H271567   2.613   5.720  16.617 -1.6225 -3.1215 -0.6580
16718TIP3   OH271568   5.469   2.940   0.305  0.1904  0.1719  0.0047
16718TIP3    H171569   5.538   3.007   0.308 -1.4707  2.1316 -2.2789
16718TIP3    H271570   5.404   2.969   0.369 -0.4824  0.7151 -0.9092
16719TIP3   OH271571   2.989   2.178  12.976  0.0614  0.1111  0.2193
16719TIP3    H171572   3.040   2.201  12.898  1.0784 -2.9331 -0.1579
16719TIP3    H271573   2.898   2.189  12.950  0.3250  4.2509  0.4312
16720TIP3   OH271574   6.649   4.280  12.844  0.4718  0.1551  0.1650
16720TIP3    H171575   6.740   4.277  12.872  0.8812 -0.1788 -1.1324
16720TIP3    H271576   6.600   4.302  12.923  1.3890 -2.2450  1.4950
16721TIP3   OH271577   2.618   5.914   4.194 -0.0960 -0.5156 -0.5884
16721TIP3    H171578   2.609   6.010   4.191  1.9608 -0.2981 -1.6990
16721TIP3    H271579   2.529   5.882   4.189 -0.8060  1.3534 -0.9696
16722TIP3   OH271580   0.107   2.298   1.683 -0.2437  0.4409 -1.0252
16722TIP3    H171581   0.109   2.228   1.748 -0.6382 -0.0121 -1.4877
16722TIP3    H271582   0.028   2.348   1.704 -0.4032  0.2589 -1.1948
16723TIP3   OH271583   2.553   1.016   3.255 -0.2160 -0.6639  0.3800
16723TIP3    H171584   2.586   0.937   3.298  0.8145 -0.5171 -0.1041
16723TIP3    H271585   2.476   1.041   3.305  1.5560  0.1732  2.8798
16724TIP3   OH271586   6.310   1.366  11.735 -0.5503  0.0475 -0.1626
16724TIP3    H171587   6.382   1.390  11.676  0.0456 -0.1370  0.4830
16724TIP3    H271588   6.313   1.271  11.739  0.6083  0.1269  1.6214
16725TIP3   OH271589   4.520   4.836  15.418  0.0317  0.5769 -0.0038
16725TIP3    H171590   4.586   4.774  15.450  0.9477 -0.1718 -3.0112
16725TIP3    H271591   4.440   4.784  15.409  0.1114  0.4812 -0.1496
16726TIP3   OH271592   6.774   6.695  11.289 -0.0283  0.8170  0.0157
16726TIP3    H171593   6.767   6.779  11.244  0.3482  0.2571 -1.1360
16726TIP3    H271594   6.838   6.710  11.359  0.7191  1.2703 -0.7458
16727TIP3   OH271595   1.061   0.995   6.701  0.7280  0.1603 -0.1943
16727TIP3    H171596   0.973   1.033   6.700 -0.2436 -1.9479 -0.0643
16727TIP3    H271597   1.049   0.906   6.667  3.0955  0.3439 -1.7036
16728TIP3   OH271598   4.670   0.365   3.219  0.5701  0.3873 -0.2637
16728TIP3    H171599   4.724   0.341   3.143  0.4383 -0.7903 -0.0139
16728TIP3    H271600   4.667   0.460   3.217  0.8023  0.3947 -1.5812
16729TIP3   OH271601   5.119   4.272   5.380 -0.1048 -0.5440 -0.0822
16729TIP3    H171602   5.156   4.358   5.402  2.9110 -1.4862 -0.9287
16729TIP3    H271603   5.141   4.260   5.287 -0.5449 -2.1743 -0.0048
16730TIP3   OH271604   4.740   0.552   4.598 -0.2863  0.0115 -0.1017
16730TIP3    H171605   4.657   0.558   4.551 -0.1056  1.8827 -0.2630
16730TIP3    H271606   4.753   0.459   4.613 -1.5926 -0.4317 -1.5377
16731TIP3   OH271607   5.791   5.224   4.380 -0.2417  0.1952 -0.2357
16731TIP3    H171608   5.781   5.319   4.374 -1.2091  0.1168 -0.0534
16731TIP3    H271609   5.737   5.200   4.455  0.0181 -0.4970 -0.2717
16732TIP3   OH271610   4.278   6.759   3.366  0.1602  0.0087 -0.4247
16732TIP3    H171611   4.327   6.677   3.375 -0.4088 -0.2167  0.8379
16732TIP3    H271612   4.345   6.825   3.344  1.3777  0.0445  2.8594
16733TIP3   OH271613   3.207   1.055   1.314  0.1981  0.0721 -0.6989
16733TIP3    H171614   3.153   0.977   1.324  0.0980  0.2437  0.1211
16733TIP3    H271615   3.287   1.024   1.270  0.2179 -0.5114 -0.2513
16734TIP3   OH271616   1.191   3.549   5.736 -0.1501  0.1566  0.0293
16734TIP3    H171617   1.129   3.615   5.705 -1.4356 -0.5603  0.9909
16734TIP3    H271618   1.137   3.484   5.780  1.2058 -0.9713  0.0999
16735TIP3   OH271619   5.759   0.196   3.337  0.2424 -0.0574 -0.0361
16735TIP3    H171620   5.734   0.276   3.292 -2.1272 -0.9231 -0.4002
16735TIP3    H271621   5.751   0.127   3.271  0.0898 -0.8987  0.8252
16736TIP3   OH271622   1.546   3.601   3.686  0.2572 -0.3957  0.2879
16736TIP3    H171623   1.491   3.605   3.607 -0.3999  1.3628  0.7998
16736TIP3    H271624   1.529   3.514   3.722 -0.9789 -0.4763 -0.4361
16737TIP3   OH271625   4.321   6.169  14.327 -0.1998 -0.7849 -0.6000
16737TIP3    H171626   4.413   6.148  14.343 -0.3949 -1.4315 -0.2914
16737TIP3    H271627   4.285   6.091  14.286 -0.0507  0.3372 -3.0225
16738TIP3   OH271628   1.365   0.830  15.647 -0.4944 -0.1729 -0.3342
16738TIP3    H171629   1.388   0.755  15.593  0.8286 -0.3305  0.4201
16738TIP3    H271630   1.442   0.887  15.644 -0.5610  0.0165  1.0122
16739TIP3   OH271631   1.706   4.707   5.847  0.5017  0.0123  0.3725
16739TIP3    H171632   1.785   4.761   5.840  1.0976 -0.7038  1.2068
16739TIP3    H271633   1.737   4.626   5.888 -1.0184  0.5375  2.8053
16740TIP3   OH271634   2.283   5.553   3.560  0.4616  0.1859 -0.1134
16740TIP3    H171635   2.269   5.488   3.629  0.3475  0.0211 -0.2902
16740TIP3    H271636   2.373   5.539   3.531  0.5418  0.3197  0.0682
16741TIP3   OH271637   1.331   2.827   5.546  0.1396  0.1727 -0.1725
16741TIP3    H171638   1.332   2.734   5.522 -1.0441  0.3305 -0.9299
16741TIP3    H271639   1.248   2.860   5.511  0.1665  1.3367  0.7893
16742TIP3   OH271640   5.881   3.761  13.871 -0.0978  0.3826  0.3055
16742TIP3    H171641   5.938   3.834  13.845 -0.3011  0.4056 -0.0676
16742TIP3    H271642   5.799   3.777  13.825 -0.4737  0.4470  0.9844
16743TIP3   OH271643   5.935   2.940   2.172 -0.3445  0.9209  0.0107
16743TIP3    H171644   5.881   2.931   2.094  0.2507  0.0086 -0.3171
16743TIP3    H271645   6.010   2.993   2.143  0.7050 -0.7693 -0.5154
16744TIP3   OH271646   6.563   0.176  16.857 -0.7428  0.6118  0.3851
16744TIP3    H171647   6.599   0.265  16.854  1.8906 -0.3980 -0.3966
16744TIP3    H271648   6.548   0.154  16.765  0.5127 -0.4247  0.4033
16745TIP3   OH271649   4.554   0.401  14.002 -0.6904 -0.6738 -0.0699
16745TIP3    H171650   4.643   0.437  14.003 -1.0074  0.2049 -1.3700
16745TIP3    H271651   4.500   0.468  14.044 -0.9728 -0.5155 -0.6789
16746TIP3   OH271652   0.095   3.338   2.151 -0.1815  0.0555  0.0031
16746TIP3    H171653   0.089   3.346   2.246 -2.9121 -0.1586 -0.0614
16746TIP3    H271654   0.158   3.267   2.137  1.4783  1.1504  1.5422
16747TIP3   OH271655   1.224   1.567  13.833  0.4390 -0.0661 -0.2184
16747TIP3    H171656   1.182   1.539  13.914  1.3011  0.2330  0.3434
16747TIP3    H271657   1.155   1.560  13.767 -0.4281  0.2193  0.6338
16748TIP3   OH271658   4.140   0.866  16.158 -0.5656  0.1944  0.3813
16748TIP3    H171659   4.132   0.878  16.064  0.1028  1.3098  0.4479
16748TIP3    H271660   4.052   0.878  16.192 -0.7445  0.1365 -0.0573
16749TIP3   OH271661   5.806   6.684  12.908 -0.1204  0.1566 -0.6045
16749TIP3    H171662   5.864   6.661  12.980 -0.6793  2.0516  0.5337
16749TIP3    H271663   5.743   6.612  12.904  0.4547 -0.4129  0.2215
16750TIP3   OH271664   6.037   5.913   5.903 -1.0908  0.1772  0.1027
16750TIP3    H171665   6.036   5.826   5.941  0.1824 -0.7288 -1.7384
16750TIP3    H271666   5.960   5.916   5.846 -0.7574 -0.0248 -0.3662
16751TIP3   OH271667   4.025   2.204   2.143  0.0883 -0.3918 -0.2038
16751TIP3    H171668   4.115   2.222   2.171  0.7935  0.5832 -2.7667
16751TIP3    H271669   3.979   2.287   2.156 -0.5339 -0.9228  1.2197
16752TIP3   OH271670   1.491   4.104   0.294  0.1824 -0.0746 -0.0903
16752TIP3    H171671   1.558   4.158   0.336 -0.6252 -0.0189  1.1852
16752TIP3    H271672   1.498   4.125   0.201 -0.5383  2.7911  0.3921
16753TIP3   OH271673   4.824   1.661   1.744 -0.2355 -0.4985  0.5560
16753TIP3    H171674   4.743   1.631   1.785 -0.7876 -0.8451 -0.7369
16753TIP3    H271675   4.807   1.654   1.650 -0.2946  3.5875  0.1132
16754TIP3   OH271676   5.073   0.570   4.302  0.5046 -0.4905 -0.1238
16754TIP3    H171677   5.154   0.519   4.293  2.4942  2.1645  1.2024
16754TIP3    H271678   5.014   0.511   4.350  2.4759 -1.7853  0.8976
16755TIP3   OH271679   5.082   4.987  13.624  0.2792  0.6338  0.2494
16755TIP3    H171680   5.145   4.920  13.649 -0.5698  0.4759  2.1332
16755TIP3    H271681   5.077   4.980  13.528  1.4155 -0.8769  0.2547
16756TIP3   OH271682   0.668   6.566  14.283 -0.1637 -0.3513 -0.4771
16756TIP3    H171683   0.577   6.589  14.299 -0.9262 -1.3581 -2.9483
16756TIP3    H271684   0.672   6.471  14.298  0.5434 -0.2881 -0.2081
16757TIP3   OH271685   0.770   5.722   2.627 -0.0828  0.1138 -0.0299
16757TIP3    H171686   0.773   5.701   2.720  1.0725  0.1798 -0.0427
16757TIP3    H271687   0.739   5.813   2.624  0.0845  0.1827  0.3041
16758TIP3   OH271688   1.965   1.198   5.806  0.1510 -0.1035 -0.2032
16758TIP3    H171689   1.870   1.194   5.798  0.2240  0.2286 -1.4086
16758TIP3    H271690   1.990   1.110   5.834 -0.5907  0.1304  1.3136
16759TIP3   OH271691   5.740   5.795   3.683  0.4108  0.1504  0.7916
16759TIP3    H171692   5.671   5.762   3.625 -2.2499  2.6834  2.2522
16759TIP3    H271693   5.748   5.728   3.750  0.7842 -1.0514 -0.4071
16760TIP3   OH271694   2.851   2.276   3.001 -0.1209  0.5245  0.1312
16760TIP3    H171695   2.942   2.249   3.013  0.2018  2.0992  1.6380
16760TIP3    H271696   2.855   2.370   2.984 -1.3267  0.1214 -2.8831
16761TIP3   OH271697   4.168   0.972  15.610  0.0355 -0.2202  0.1820
16761TIP3    H171698   4.146   0.910  15.540  0.7456 -2.3975  1.7666
16761TIP3    H271699   4.085   0.991  15.653 -0.1500 -0.2913 -0.1414
16762TIP3   OH271700   5.447   1.564  16.038 -0.2327  0.1210 -0.3711
16762TIP3    H171701   5.525   1.516  16.008  1.1183  1.4873  0.7894
16762TIP3    H271702   5.448   1.645  15.987  0.4981  1.1986  1.2560
16763TIP3   OH271703   0.350   0.547   5.158  0.0845  0.8343 -0.2223
16763TIP3    H171704   0.307   0.462   5.151  0.6679  0.3833  1.1909
16763TIP3    H271705   0.411   0.537   5.232  0.7718  2.2212 -0.5579
16764TIP3   OH271706   5.314   2.703  11.404 -0.1450 -0.4568  0.2208
16764TIP3    H171707   5.349   2.677  11.489  2.4018  0.4043 -0.4416
16764TIP3    H271708   5.244   2.765  11.424  1.3288  0.8285  1.7500
16765TIP3   OH271709   4.585   5.724   0.177  0.0673  0.1219  0.3659
16765TIP3    H171710   4.625   5.752   0.095  0.1191  1.3225  0.7886
16765TIP3    H271711   4.492   5.741   0.165 -0.0056 -0.3002  0.3223
16766TIP3   OH271712   6.469   5.255   4.612 -0.5463 -0.0858 -0.6739
16766TIP3    H171713   6.503   5.327   4.665 -0.9513 -0.3433 -0.0570
16766TIP3    H271714   6.387   5.289   4.577 -1.9042 -0.9989  1.4424
16767TIP3   OH271715   2.249   0.303  14.331 -0.2074  0.0567  0.0481
16767TIP3    H171716   2.178   0.276  14.273 -0.1561  0.9884 -0.4697
16767TIP3    H271717   2.296   0.222  14.351 -0.5565 -0.3586 -0.7617
16768TIP3   OH271718   6.770   3.367  14.776  0.4470 -0.0340 -0.6306
16768TIP3    H171719   6.701   3.306  14.748 -3.0343  1.6582  3.1377
16768TIP3    H271720   6.765   3.439  14.713 -1.2057 -0.0198 -0.5216
16769TIP3   OH271721   4.801   1.987   5.604  0.1697 -0.2800 -0.2087
16769TIP3    H171722   4.809   2.079   5.628 -1.3553 -0.3957  0.8985
16769TIP3    H271723   4.874   1.971   5.544  1.5545  1.1635  1.0055
16770TIP3   OH271724   0.061   0.939   3.736 -0.2109  0.4418  0.0006
16770TIP3    H171725  -0.015   0.882   3.748 -0.1936  0.4218  0.0150
16770TIP3    H271726   0.136   0.886   3.765 -0.2900  0.7757  0.8222
16771TIP3   OH271727   4.310   0.929   3.610  0.2508  0.0225  0.1462
16771TIP3    H171728   4.373   0.998   3.586  0.0752  0.2069  0.2107
16771TIP3    H271729   4.233   0.977   3.642  0.5291 -0.2200  1.2188
16772TIP3   OH271730   6.652   5.414  10.492  0.0524 -0.2768  0.2807
16772TIP3    H171731   6.718   5.437  10.558  0.5285  0.3245 -0.3840
16772TIP3    H271732   6.680   5.461  10.414 -1.6956  0.7754  0.2330
16773TIP3   OH271733   2.813   1.280   2.720 -0.8052 -0.5662 -0.1666
16773TIP3    H171734   2.841   1.336   2.792  1.8868 -2.1120  0.1162
16773TIP3    H271735   2.788   1.197   2.762 -0.7728 -0.9549 -0.8830
16774TIP3   OH271736   0.301   5.558  12.751  0.2673  0.1223  0.0307
16774TIP3    H171737   0.301   5.599  12.665  1.5801 -1.3688 -0.7421
16774TIP3    H271738   0.259   5.622  12.809 -1.3829  0.8338 -1.8401
16775TIP3   OH271739   4.073   4.528  11.720 -0.8111 -0.3457 -0.2314
16775TIP3    H171740   4.081   4.614  11.763  1.8265 -0.7175  0.1571
16775TIP3    H271741   4.065   4.466  11.793  2.0318 -0.8190 -0.2281
16776TIP3   OH271742   2.679   3.368  14.611  0.4291  0.1218  0.0436
16776TIP3    H171743   2.674   3.314  14.533 -0.6930  1.0165 -0.5271
16776TIP3    H271744   2.620   3.442  14.594  2.9657  2.3232  0.1760
16777TIP3   OH271745   3.528   1.531   2.420  0.3914 -0.6040  0.1236
16777TIP3    H171746   3.468   1.592   2.377 -0.4224 -0.5605  1.2664
16777TIP3    H271747   3.566   1.481   2.348 -0.6852 -0.3301 -0.6766
16778TIP3   OH271748   4.022   1.390   3.788 -0.2429 -0.1250  0.3435
16778TIP3    H171749   4.004   1.327   3.859  2.6035 -1.0559  0.3901
16778TIP3    H271750   3.969   1.359   3.715 -2.2569  0.0885  1.6133
16779TIP3   OH271751   6.370   5.934   3.535 -0.3098  0.4923  0.4996
16779TIP3    H171752   6.332   5.945   3.448  0.7018  1.5231  0.1663
16779TIP3    H271753   6.332   5.852   3.568  0.5575 -0.8066 -1.5595
16780TIP3   OH271754   4.241   5.181  14.164 -0.2398  0.1545 -0.0204
16780TIP3    H171755   4.284   5.190  14.079  0.1125  1.0607  0.2455
16780TIP3    H271756   4.313   5.171  14.227 -0.5042 -0.9232  0.1438
16781TIP3   OH271757   1.517   6.460  14.496 -0.4252  0.2088  0.3922
16781TIP3    H171758   1.427   6.492  14.503 -0.5623 -0.4008  1.8105
16781TIP3    H271759   1.564   6.530  14.452 -1.5403  0.6352 -0.1595
16782TIP3   OH271760   2.909   1.924  10.702  0.4086 -0.3103 -0.3646
16782TIP3    H171761   2.814   1.911  10.703  0.3662 -0.2148 -1.5659
16782TIP3    H271762   2.928   1.958  10.614  1.4835  0.2341  0.0599
16783TIP3   OH271763   5.823   4.261  14.565 -0.2382 -0.0415 -0.0522
16783TIP3    H171764   5.780   4.186  14.524  1.8911 -0.3442 -1.8788
16783TIP3    H271765   5.789   4.261  14.655 -1.1569 -2.4906 -0.3229
16784TIP3   OH271766   0.993   0.552  13.903 -0.0395  0.1073 -0.5429
16784TIP3    H171767   0.950   0.630  13.939  0.0433 -0.3023  0.4676
16784TIP3    H271768   1.057   0.587  13.840 -1.7973  0.7327 -2.0753
16785TIP3   OH271769   2.848   6.055  12.112  0.5709  0.4069 -0.1853
16785TIP3    H171770   2.869   6.103  12.031  2.6271 -0.4246 -0.1965
16785TIP3    H271771   2.869   5.964  12.091  0.9279  0.1514  1.2232
16786TIP3   OH271772   6.381   4.883   0.418  0.2659 -0.6773  0.1584
16786TIP3    H171773   6.471   4.911   0.434 -0.2461  2.0995 -1.2983
16786TIP3    H271774   6.327   4.944   0.468 -0.8633  0.1787 -1.9712
16787TIP3   OH271775   2.314   4.989  13.161 -0.1753 -0.5053  0.3520
16787TIP3    H171776   2.323   5.045  13.238  1.4917 -0.4493  0.1523
16787TIP3    H271777   2.340   4.902  13.190  0.2527 -0.5299 -0.0854
16788TIP3   OH271778   3.664   2.473   5.013  0.0819  0.6987  0.0937
16788TIP3    H171779   3.707   2.545   5.059 -0.7278  1.5037 -0.3522
16788TIP3    H271780   3.693   2.394   5.058  0.6996  1.3348  0.8363
16789TIP3   OH271781   1.023   0.667  14.372 -0.1339  0.1653  0.7421
16789TIP3    H171782   1.066   0.660  14.287 -1.0997 -0.1629  0.2567
16789TIP3    H271783   1.093   0.687  14.434  0.8376 -1.2293  0.1337
16790TIP3   OH271784   6.669   1.523  11.455  0.1105 -0.4649 -0.1117
16790TIP3    H171785   6.632   1.538  11.368 -0.4815  2.2093  0.5222
16790TIP3    H271786   6.732   1.452  11.442  0.7632  0.4909 -2.9627
16791TIP3   OH271787   6.788   3.999   0.930 -0.1009 -0.7926 -0.1427
16791TIP3    H171788   6.730   4.069   0.961  0.6326 -0.1090 -0.2853
16791TIP3    H271789   6.746   3.968   0.850  0.1294  0.2500 -0.6878
16792TIP3   OH271790   4.293   6.191  12.052 -0.5190  0.1915 -0.2828
16792TIP3    H171791   4.261   6.250  11.984 -1.0501 -0.4213 -0.5717
16792TIP3    H271792   4.282   6.103  12.015  0.5897 -0.0857 -0.0012
16793TIP3   OH271793   4.375   2.401  14.063  0.1991  0.2207 -0.4672
16793TIP3    H171794   4.466   2.386  14.089  0.4121  0.9010 -0.8209
16793TIP3    H271795   4.380   2.461  13.989 -0.5943  1.0306  0.1247
16794TIP3   OH271796   1.684   5.164   3.779  0.0264  0.6336 -0.3505
16794TIP3    H171797   1.617   5.200   3.721  0.0260 -0.2876 -0.9365
16794TIP3    H271798   1.727   5.241   3.817 -1.9189  1.2678  0.7199
16795TIP3   OH271799   6.326   0.083   1.670 -0.4099 -0.0216 -0.1146
16795TIP3    H171800   6.303   0.028   1.596 -1.4574  0.6031 -0.2805
16795TIP3    H271801   6.405   0.043   1.707 -0.4848 -0.9421 -0.9202
16796TIP3   OH271802   3.048   5.990  16.473 -0.4179 -0.2418 -0.1016
16796TIP3    H171803   3.025   6.042  16.549  1.1951  1.2029 -0.5481
16796TIP3    H271804   2.963   5.962  16.437 -1.2175 -0.7173  1.9907
16797TIP3   OH271805   1.706   2.228   4.689 -0.3674 -0.7656 -0.3320
16797TIP3    H171806   1.749   2.226   4.775 -0.0908  0.7588 -0.3984
16797TIP3    H271807   1.629   2.173   4.699 -0.7935  0.0376  1.1712
16798TIP3   OH271808   1.859   2.814  11.198 -0.3064  0.3638  0.0730
16798TIP3    H171809   1.850   2.854  11.111  0.5015  0.5967  0.0912
16798TIP3    H271810   1.951   2.827  11.221 -0.7467  1.2838  1.4289
16799TIP3   OH271811   4.300   2.167  14.312  0.4145  0.4370  0.5432
16799TIP3    H171812   4.373   2.221  14.342  0.3391  1.5890 -1.1872
16799TIP3    H271813   4.301   2.177  14.217 -1.2701 -0.4716  0.4003
16800TIP3   OH271814   3.194   1.185  12.418 -0.3539  0.8186  0.1390
16800TIP3    H171815   3.124   1.223  12.471 -1.7810 -2.3829  0.7649
16800TIP3    H271816   3.152   1.161  12.336  0.7141  1.2924 -0.5799
16801TIP3   OH271817   6.774   1.955   2.233  0.1736  0.5445  0.4184
16801TIP3    H171818   6.721   2.033   2.217  0.6516  0.8883  0.4899
16801TIP3    H271819   6.793   1.958   2.326  3.6418  2.6342 -0.1618
16802TIP3   OH271820   5.585   0.844   5.189 -0.3823  0.3888  0.3880
16802TIP3    H171821   5.677   0.829   5.212 -0.4080  0.4776  0.5501
16802TIP3    H271822   5.546   0.757   5.190 -0.5411  0.4617  1.3679
16803TIP3   OH271823   2.942   3.557   4.664  0.2840  0.4251 -0.3126
16803TIP3    H171824   3.036   3.540   4.664  0.0538 -1.3204  1.9958
16803TIP3    H271825   2.906   3.487   4.609  0.1925 -0.2086  0.5356
16804TIP3   OH271826   5.267   3.180   1.377 -0.2938 -0.3328  0.3508
16804TIP3    H171827   5.330   3.144   1.440  0.4650  0.3287 -0.0113
16804TIP3    H271828   5.316   3.248   1.331 -1.0847 -0.2589 -0.3991
16805TIP3   OH271829   6.776   0.693   4.647  0.4969 -0.0339 -0.0655
16805TIP3    H171830   6.711   0.641   4.599  0.7564 -0.0664 -0.3817
16805TIP3    H271831   6.831   0.629   4.691  2.1095 -0.1571 -2.0900
16806TIP3   OH271832   3.668   1.328   1.951  0.5538  0.2705 -0.0807
16806TIP3    H171833   3.643   1.420   1.954 -0.2397  0.0628 -0.1199
16806TIP3    H271834   3.585   1.280   1.946  0.9791 -0.4241 -0.6830
16807TIP3   OH271835   0.530   2.705  15.266 -0.8809  0.0294 -0.5174
16807TIP3    H171836   0.469   2.723  15.337 -0.6114  0.2821 -0.3451
16807TIP3    H271837   0.551   2.792  15.230 -0.3914 -0.0269 -0.3777
16808TIP3   OH271838   6.054   5.622  16.561 -0.4198  0.2439 -0.0776
16808TIP3    H171839   6.080   5.559  16.494  1.3793 -0.2096  0.9855
16808TIP3    H271840   5.965   5.647  16.537  0.0141 -0.1979 -2.3907
16809TIP3   OH271841   3.754   2.095   0.207 -0.5094 -0.1925 -0.3455
16809TIP3    H171842   3.820   2.112   0.141  0.1803 -0.5128  0.2494
16809TIP3    H271843   3.688   2.163   0.193 -1.5620 -1.6019 -2.8325
16810TIP3   OH271844   0.929   6.737  17.010  0.2160 -0.4161 -0.5210
16810TIP3    H171845   0.882   6.723  17.092 -2.1074 -0.2673 -1.7378
16810TIP3    H271846   0.902   6.664  16.954 -0.3749  0.8948 -2.0208
16811TIP3   OH271847   5.063   5.913  11.970  0.0297  0.4324 -0.0196
16811TIP3    H171848   5.121   5.839  11.952 -0.9189 -0.0224 -1.3995
16811TIP3    H271849   4.993   5.876  12.024  0.7635  0.8867  1.2885
16812TIP3   OH271850   2.661   1.084  16.549 -0.3039  0.1942  0.2753
16812TIP3    H171851   2.590   1.110  16.608 -0.9730  1.6481 -1.0803
16812TIP3    H271852   2.618   1.074  16.464  0.7606 -1.1088 -0.1374
16813TIP3   OH271853   4.096   5.366   5.562 -0.0563 -0.1947 -0.0701
16813TIP3    H171854   4.096   5.442   5.621 -2.4838  0.0959 -0.3257
16813TIP3    H271855   4.068   5.293   5.618 -1.4105 -0.1086 -0.5930
16814TIP3   OH271856   5.228   6.739   1.877  0.1129 -0.3170  0.0843
16814TIP3    H171857   5.221   6.649   1.845  0.4716 -0.0359 -0.8207
16814TIP3    H271858   5.233   6.792   1.797 -2.1861  0.7027  0.5186
16815TIP3   OH271859   5.059   1.375  14.550  0.0351  0.3147 -0.2875
16815TIP3    H171860   5.071   1.281  14.542 -0.4418  0.1956  0.2818
16815TIP3    H271861   4.965   1.388  14.540  0.0057  0.6448  0.3443
16816TIP3   OH271862   4.281   0.988   3.127  0.4270  0.7821 -0.1256
16816TIP3    H171863   4.359   1.027   3.165 -0.2649  0.2066  1.9850
16816TIP3    H271864   4.220   0.978   3.200 -1.3100  0.4114 -1.5436
16817TIP3   OH271865   2.467   4.959  13.430  0.0098  0.0695 -0.6344
16817TIP3    H171866   2.552   4.923  13.404 -0.3561 -0.6059 -0.9169
16817TIP3    H271867   2.467   5.048  13.396 -0.3496 -0.6975 -2.7657
16818TIP3   OH271868   4.028   2.829  10.416 -0.4974 -0.1298 -0.2526
16818TIP3    H171869   3.942   2.795  10.442  0.1995 -1.8403 -0.1175
16818TIP3    H271870   4.007   2.905  10.362 -2.1051 -0.6014 -0.3628
16819TIP3   OH271871   6.412   5.938  16.432 -0.6502 -0.2482  0.3875
16819TIP3    H171872   6.450   5.854  16.459  0.2538  0.4731  1.4630
16819TIP3    H271873   6.318   5.927  16.445 -0.5993 -1.2828 -0.0455
16820TIP3   OH271874   0.419   4.379   5.639 -0.0303  0.3584  0.1506
16820TIP3    H171875   0.461   4.340   5.562  0.1195 -0.6618  0.7164
16820TIP3    H271876   0.410   4.305   5.700  1.0774  1.3850  1.6328
16821TIP3   OH271877   4.911   6.179  14.465  0.1648 -0.5936  0.0248
16821TIP3    H171878   4.992   6.174  14.516 -0.7127  1.8143  1.8331
16821TIP3    H271879   4.884   6.270  14.471 -2.5501 -1.2447 -0.7873
16822TIP3   OH271880   4.518   4.632   1.058  0.1080  0.4319 -0.5444
16822TIP3    H171881   4.563   4.637   1.142  0.6551 -1.0245 -0.7229
16822TIP3    H271882   4.515   4.539   1.038 -0.9704  0.6728 -1.6383
16823TIP3   OH271883   2.898   6.494   1.606  0.1096 -0.3942  0.8431
16823TIP3    H171884   2.900   6.454   1.519  0.1705 -0.6634  0.9658
16823TIP3    H271885   2.806   6.495   1.630 -0.0091  0.5157  0.3994
16824TIP3   OH271886   4.462   4.598  14.621  0.1015 -0.0340  0.3670
16824TIP3    H171887   4.445   4.516  14.668  1.7960 -0.2590  0.6662
16824TIP3    H271888   4.496   4.570  14.537 -1.6599  0.3855 -0.5351
16825TIP3   OH271889   2.330   2.972  13.628  0.4315  0.6296  0.1617
16825TIP3    H171890   2.273   3.005  13.698 -0.0279  0.5777 -0.1794
16825TIP3    H271891   2.324   2.877  13.635 -1.2849  0.5714 -1.2291
16826TIP3   OH271892   0.174   3.327  15.574  0.0716 -0.2736 -0.2637
16826TIP3    H171893   0.191   3.333  15.480 -0.1192  0.9614 -0.2272
16826TIP3    H271894   0.081   3.306  15.580 -0.5067  2.0391 -0.3450
16827TIP3   OH271895   6.179   2.959   2.806 -0.1657 -0.1080 -0.4855
16827TIP3    H171896   6.242   3.029   2.791  0.2490 -0.8665 -2.5003
16827TIP3    H271897   6.231   2.884   2.834 -0.4357 -0.0722  0.1245
16828TIP3   OH271898   5.452   3.304  12.626 -0.9483 -0.3439  0.6630
16828TIP3    H171899   5.379   3.250  12.596  0.8945 -1.6170 -1.9268
16828TIP3    H271900   5.484   3.348  12.547  0.5534  0.8667  1.8655
16829TIP3   OH271901   0.249   3.210   5.530 -0.5841  0.5438 -0.3763
16829TIP3    H171902   0.304   3.258   5.468  0.2762  0.5569  0.3646
16829TIP3    H271903   0.310   3.152   5.575 -1.2989  0.0932  0.0269
16830TIP3   OH271904   0.950   6.369  14.176 -0.2811  0.4217 -0.1473
16830TIP3    H171905   0.858   6.343  14.165  0.0757 -0.4317 -1.3852
16830TIP3    H271906   0.979   6.390  14.087  0.7325  0.6787  0.2330
16831TIP3   OH271907   5.560   6.788   0.665  0.0368  0.4174  0.0552
16831TIP3    H171908   5.586   6.763   0.576 -0.2241  0.9428 -0.1703
16831TIP3    H271909   5.487   6.848   0.653 -0.9976 -0.6571  0.6716
16832TIP3   OH271910   2.633   6.520  12.742  0.6781  0.0683  0.1971
16832TIP3    H171911   2.697   6.501  12.811  0.5799 -2.3463 -0.2676
16832TIP3    H271912   2.671   6.481  12.663 -1.2227 -1.2998 -0.1143
16833TIP3   OH271913   6.464   5.689  11.823 -0.0496 -0.4400 -0.4061
16833TIP3    H171914   6.437   5.768  11.776  2.2591  1.2890  0.9661
16833TIP3    H271915   6.521   5.643  11.761 -1.4691 -1.1225 -1.2427
16834TIP3   OH271916   1.447   5.251   2.408 -0.4043 -0.2412  0.6915
16834TIP3    H171917   1.482   5.336   2.436  0.2282  0.7374 -2.6077
16834TIP3    H271918   1.355   5.268   2.388 -0.3820 -0.4244  0.4296
16835TIP3   OH271919   1.046   6.379  14.815  0.4735  0.2446 -0.2647
16835TIP3    H171920   1.093   6.460  14.831 -0.1821  0.7369 -0.7725
16835TIP3    H271921   1.106   6.327  14.761  0.2291  1.1055 -1.4077
16836TIP3   OH271922   6.635   5.864   1.277  0.1532  0.2709 -0.0933
16836TIP3    H171923   6.666   5.937   1.330 -0.8556 -0.2069  1.2159
16836TIP3    H271924   6.540   5.878   1.270  0.2625  0.3432 -1.8315
16837TIP3   OH271925   1.739   1.934  14.064 -0.3277 -0.4719  0.7101
16837TIP3    H171926   1.694   1.941  13.980 -1.4982 -2.4198  1.1203
16837TIP3    H271927   1.795   1.857  14.056  0.3326 -0.0733  1.3697
16838TIP3   OH271928   5.840   1.024   3.349  0.1419 -0.2661  0.0698
16838TIP3    H171929   5.796   1.049   3.267  0.3468 -2.2452 -0.7033
16838TIP3    H271930   5.920   1.076   3.350 -1.4071  2.2802  0.7426
16839TIP3   OH271931   4.153   0.679  13.424 -0.7498 -0.2844 -0.0925
16839TIP3    H171932   4.243   0.712  13.425 -0.9551  0.4138 -1.7746
16839TIP3    H271933   4.098   0.757  13.434 -1.1840 -0.6579  0.5309
16840TIP3   OH271934   3.404   0.205  10.609 -0.4523  0.6699  0.2828
16840TIP3    H171935   3.338   0.186  10.542 -1.0520  3.0774  0.1068
16840TIP3    H271936   3.439   0.290  10.584  0.9022  0.6026  1.8249
16841TIP3   OH271937   5.450   1.474  15.005  0.1348  0.1836  0.2425
16841TIP3    H171938   5.447   1.538  14.934 -2.0820  0.1381  0.2520
16841TIP3    H271939   5.439   1.389  14.961 -0.2407  0.0732  0.5540
16842TIP3   OH271940   1.967   4.927  16.088  0.1532 -0.5041 -0.0968
16842TIP3    H171941   2.017   5.009  16.092 -0.9564  0.2679 -1.1881
16842TIP3    H271942   2.032   4.860  16.068  0.7779  0.4704 -1.4579
16843TIP3   OH271943   0.251   2.526  16.601  0.2977  0.7155  0.4165
16843TIP3    H171944   0.293   2.604  16.638  1.6448  0.6430 -0.8610
16843TIP3    H271945   0.324   2.473  16.570 -0.6010 -0.9819  1.0586
16844TIP3   OH271946   5.301   4.243   0.668 -0.1741 -0.3067 -0.2282
16844TIP3    H171947   5.302   4.153   0.700  0.8757 -0.6337 -1.0961
16844TIP3    H271948   5.225   4.248   0.611 -0.0610 -0.7494 -0.4211
16845TIP3   OH271949   6.774   1.979   4.987 -0.2153 -0.2190  0.2351
16845TIP3    H171950   6.757   2.002   4.896  0.2744 -0.9869 -0.0575
16845TIP3    H271951   6.697   1.928   5.013  0.1644 -0.9806 -0.1096
16846TIP3   OH271952   3.291   3.586  13.164 -0.2198 -0.2450 -0.4638
16846TIP3    H171953   3.285   3.611  13.256  0.6354 -0.6918 -0.2736
16846TIP3    H271954   3.358   3.518  13.163  0.6202  0.5870 -1.5881
16847TIP3   OH271955   6.056   4.970   3.442  0.2717  0.2641  0.3768
16847TIP3    H171956   6.085   4.997   3.355  0.5859  0.0181  0.4027
16847TIP3    H271957   5.975   4.921   3.426  0.6504 -0.3112  0.1554
16848TIP3   OH271958   0.556   4.023  15.516 -0.2012 -0.7998  0.4924
16848TIP3    H171959   0.490   4.002  15.582 -0.7322  1.0376  0.6106
16848TIP3    H271960   0.612   4.089  15.559  0.9730 -1.4141 -0.0438
16849TIP3   OH271961   1.994   0.979  16.619 -0.1365 -0.1464  0.1101
16849TIP3    H171962   2.009   1.045  16.687  0.8638 -2.4254  2.2642
16849TIP3    H271963   1.986   1.029  16.538  1.9919  2.5313  1.3893
16850TIP3   OH271964   5.048   3.900  10.827  0.1553  0.0975 -0.5441
16850TIP3    H171965   5.032   3.987  10.790 -0.7221  0.0921 -0.1942
16850TIP3    H271966   4.967   3.878  10.873  0.9542 -0.2088  0.7681
16851TIP3   OH271967   6.036   4.600   0.993  0.0447  0.1645  0.8652
16851TIP3    H171968   6.051   4.518   1.040  0.4570  0.5338  1.3880
16851TIP3    H271969   5.945   4.623   1.014  0.9751  1.6783  3.6883
16852TIP3   OH271970   3.092   2.348  15.846  0.3322  0.1987 -0.7696
16852TIP3    H171971   3.176   2.338  15.801  0.3158 -1.1671 -0.5411
16852TIP3    H271972   3.027   2.322  15.780  0.1365  0.5793 -0.7281
16853TIP3   OH271973   6.781   5.632  16.814 -0.8653  0.5513  0.0658
16853TIP3    H171974   6.766   5.581  16.735 -1.1223 -0.3468  0.6724
16853TIP3    H271975   6.718   5.597  16.877  2.2862 -2.0121  2.1284
16854TIP3   OH271976   3.830   0.325   1.901 -0.2745  0.4996  0.3046
16854TIP3    H171977   3.864   0.364   1.981  0.4982 -0.0932  0.2675
16854TIP3    H271978   3.907   0.294   1.854 -0.7375  0.6320 -0.5661
16855TIP3   OH271979   4.598   0.592  16.224 -0.3087 -0.1315  0.0714
16855TIP3    H171980   4.543   0.661  16.262 -1.6147 -0.7010 -0.7154
16855TIP3    H271981   4.542   0.551  16.158  0.9129 -1.0662 -0.4106
16856TIP3   OH271982   0.352   5.630   6.066  0.0315  0.2830  0.1637
16856TIP3    H171983   0.416   5.681   6.116 -0.1233 -0.6458  1.3287
16856TIP3    H271984   0.340   5.549   6.116 -0.8680 -0.2473 -0.8648
16857TIP3   OH271985   4.098   3.772  14.261 -0.0181  0.1562 -0.0022
16857TIP3    H171986   4.157   3.704  14.231  0.2597  0.4506 -0.1229
16857TIP3    H271987   4.038   3.727  14.321  1.5356  0.2024  1.6816
16858TIP3   OH271988   1.364   1.808   0.393  0.4477  0.0779  0.3459
16858TIP3    H171989   1.458   1.793   0.396  0.4302 -0.3953 -0.8595
16858TIP3    H271990   1.325   1.722   0.409  0.2430  0.0609 -0.2187
16859TIP3   OH271991   2.620   4.730  11.987  0.1660 -0.0463 -0.1421
16859TIP3    H171992   2.611   4.754  12.079 -0.8085 -1.7609  0.2549
16859TIP3    H271993   2.674   4.799  11.949  0.7707  0.5701  1.7512
16860TIP3   OH271994   4.101   3.163  16.298  0.2470 -0.5653 -0.8422
16860TIP3    H171995   4.077   3.094  16.236 -2.9152  0.5912 -1.0955
16860TIP3    H271996   4.064   3.134  16.382  0.6528 -0.1262 -0.5087
16861TIP3   OH271997   4.190   5.060   1.835  0.1324  0.2882  0.4174
16861TIP3    H171998   4.198   5.061   1.740 -2.8376  0.7554  0.0718
16861TIP3    H271999   4.152   5.146   1.857  0.0307 -0.1067  1.9298
16862TIP3   OH272000   4.467   6.806   1.250  0.3613 -0.1320  0.2402
16862TIP3    H172001   4.523   6.867   1.202 -1.3977  1.5109  0.1656
16862TIP3    H272002   4.379   6.822   1.216 -0.3932 -1.5662  1.4033
16863TIP3   OH272003   3.551   6.419  11.152 -0.3339  0.2021  0.1261
16863TIP3    H172004   3.459   6.398  11.166 -0.3508  0.2227  0.0468
16863TIP3    H272005   3.578   6.363  11.079 -0.3320  0.3272  0.0297
16864TIP3   OH272006   3.318   5.578  14.304 -0.0116  0.2252  0.2528
16864TIP3    H172007   3.236   5.581  14.256 -1.2616 -0.4913  2.2305
16864TIP3    H272008   3.368   5.652  14.271 -0.1001 -1.0861 -3.2150
16865TIP3   OH272009   2.780   6.228  13.650 -0.3411 -0.0223 -0.3813
16865TIP3    H172010   2.820   6.252  13.567 -0.4602 -1.2389 -0.8014
16865TIP3    H272011   2.824   6.283  13.715 -2.0093  2.8598 -1.4906
16866TIP3   OH272012   5.958   4.419  13.232  0.3985 -0.3024 -0.1622
16866TIP3    H172013   5.873   4.374  13.237  0.5216 -0.5135  0.0686
16866TIP3    H272014   5.937   4.508  13.204  0.2323 -0.7864 -1.6753
16867TIP3   OH272015   2.790   2.007   2.974  0.3078 -0.2797 -0.6560
16867TIP3    H172016   2.809   2.097   3.000  0.7715 -0.2627 -1.0403
16867TIP3    H272017   2.716   1.982   3.029  2.1996 -0.7867  1.8217
16868TIP3   OH272018   2.819   1.712  16.661 -0.5982 -0.0510  0.0149
16868TIP3    H172019   2.773   1.794  16.643 -0.6513 -0.3637 -1.4226
16868TIP3    H272020   2.890   1.711  16.597 -0.5161 -1.0654  0.1131
16869TIP3   OH272021   1.705   2.470   0.841  0.1396  0.2063 -0.3673
16869TIP3    H172022   1.754   2.394   0.873 -2.3714 -1.4029 -0.0032
16869TIP3    H272023   1.684   2.449   0.750 -1.5322 -0.1376  0.0610
16870TIP3   OH272024   2.883   0.622  11.633  0.0118  0.0267  0.1073
16870TIP3    H172025   2.856   0.704  11.592 -1.3092 -0.1344  0.6183
16870TIP3    H272026   2.966   0.601  11.591 -0.6878  0.4977 -1.6135
16871TIP3   OH272027   0.267   6.160   3.058 -0.2567  0.2943  0.4101
16871TIP3    H172028   0.305   6.079   3.090 -0.2238 -1.2754 -3.1033
16871TIP3    H272029   0.340   6.221   3.054  0.5463 -0.6849 -0.2808
16872TIP3   OH272030   6.356   5.040   5.970  0.2787 -0.0979  0.0459
16872TIP3    H172031   6.292   5.000   6.029  0.2540 -1.7427 -1.0221
16872TIP3    H272032   6.403   4.966   5.932  1.8584  1.0187 -0.2733
16873TIP3   OH272033   1.789   5.216  12.842  0.5542  0.0409  0.2224
16873TIP3    H172034   1.777   5.133  12.887 -1.1002  0.1657  0.0556
16873TIP3    H272035   1.720   5.219  12.776  1.7451  0.7235 -1.0510
16874TIP3   OH272036   0.960   2.678  16.106 -0.3273 -0.0338  0.2306
16874TIP3    H172037   1.008   2.693  16.025 -2.2669  1.1844 -0.7684
16874TIP3    H272038   1.018   2.624  16.159  2.1928  1.4844 -0.8245
16875TIP3   OH272039   1.596   0.757  11.722 -0.5288 -0.1156  0.0366
16875TIP3    H172040   1.656   0.784  11.791 -1.8628  0.0706  1.1572
16875TIP3    H272041   1.572   0.839  11.678  0.0599 -0.1959 -0.4453
16876TIP3   OH272042   4.206   5.517   4.876  0.3512  0.5696 -0.1108
16876TIP3    H172043   4.293   5.540   4.844 -0.1921  1.9753 -0.6525
16876TIP3    H272044   4.205   5.546   4.967  0.7534 -0.3180  0.1860
16877TIP3   OH272045   6.132   0.705  10.705  0.3312  0.0610  0.3170
16877TIP3    H172046   6.076   0.722  10.629  1.0505 -0.2328 -0.2871
16877TIP3    H272047   6.158   0.614  10.696  0.8893  0.1879  0.6041
16878TIP3   OH272048   2.905   0.832  16.940  0.6203 -0.1472 -0.1058
16878TIP3    H172049   2.836   0.868  16.996 -0.9608 -1.6405 -1.0055
16878TIP3    H272050   2.884   0.864  16.852 -0.5968 -2.7415 -0.8546
16879TIP3   OH272051   4.905   2.629   0.277 -0.2354  0.1853 -0.5720
16879TIP3    H172052   4.821   2.584   0.290 -0.6315  0.5128 -1.8364
16879TIP3    H272053   4.909   2.692   0.349 -0.7984 -0.2294 -0.1666
16880TIP3   OH272054   6.086   3.943  12.079 -0.0468  0.4782  0.2143
16880TIP3    H172055   6.142   4.020  12.075  1.2991 -0.5074 -1.6681
16880TIP3    H272056   6.017   3.960  12.015 -0.5269  0.6699  0.7757
16881TIP3   OH272057   3.847   2.850  13.144 -0.1685  0.5992 -0.4507
16881TIP3    H172058   3.923   2.903  13.121  0.3061 -0.5326 -1.6583
16881TIP3    H272059   3.772   2.909  13.131  0.3271  0.9544 -1.9593
16882TIP3   OH272060   2.141   3.816  11.625 -0.2324  0.1651  0.1515
16882TIP3    H172061   2.075   3.824  11.694 -1.5204  1.3125 -1.1688
16882TIP3    H272062   2.119   3.735  11.579 -0.4454  0.3122 -0.0060
16883TIP3   OH272063   1.325   4.873  12.117 -0.1506  0.2057  0.5147
16883TIP3    H172064   1.256   4.843  12.176 -0.7709 -1.7434 -1.0877
16883TIP3    H272065   1.286   4.946  12.068 -0.2443  0.6319  1.2117
16884TIP3   OH272066   6.461   6.238  17.073 -0.2789 -0.6832  0.2175
16884TIP3    H172067   6.472   6.330  17.052 -0.8197 -0.7904 -0.5815
16884TIP3    H272068   6.495   6.191  16.998 -0.8083 -1.1110  0.2322
16885TIP3   OH272069   1.522   5.014   2.556 -0.4294 -0.5329  0.5205
16885TIP3    H172070   1.431   5.036   2.536 -0.5671 -1.6257 -0.1630
16885TIP3    H272071   1.573   5.080   2.509 -0.8595  0.6311  1.6347
16886TIP3   OH272072   0.980   4.681   3.585  1.0421  0.1370  0.0492
16886TIP3    H172073   0.964   4.622   3.659  1.2564  2.1792  1.8261
16886TIP3    H272074   0.953   4.631   3.508 -0.2527 -1.6987  1.5978
16887TIP3   OH272075   2.990   4.189   2.341  0.8567 -0.4004 -0.2632
16887TIP3    H172076   2.954   4.150   2.261  2.0783 -0.7815 -0.6366
16887TIP3    H272077   2.931   4.263   2.358  2.0445  1.3817 -3.0603
16888TIP3   OH272078   0.729   4.717  14.439 -0.0211  0.1328 -0.1149
16888TIP3    H172079   0.748   4.668  14.359  0.1127  0.9235 -0.5889
16888TIP3    H272080   0.686   4.797  14.408  1.6503  1.3116  0.4323
16889TIP3   OH272081   6.461   6.108   4.119 -0.0079  0.4252  0.2221
16889TIP3    H172082   6.391   6.099   4.184  1.9850 -0.0070  2.4128
16889TIP3    H272083   6.531   6.153   4.166  2.0308 -1.0995 -1.2113
16890TIP3   OH272084   1.467   5.373   6.135  0.0077 -0.2713 -0.0870
16890TIP3    H172085   1.451   5.447   6.194 -0.2570 -0.3421 -0.0678
16890TIP3    H272086   1.532   5.405   6.073  0.0997 -0.1124  0.0913
16891TIP3   OH272087   1.225   2.847   0.055 -0.4750 -0.4252  0.2754
16891TIP3    H172088   1.179   2.867   0.137  0.7253  0.3681  0.7817
16891TIP3    H272089   1.209   2.753   0.041  0.1119 -0.8030  1.9545
16892TIP3   OH272090   6.616   3.300   5.258  0.0236 -0.7362 -0.4977
16892TIP3    H172091   6.692   3.244   5.246  0.4385 -0.3012  0.0332
16892TIP3    H272092   6.644   3.386   5.226 -0.0831 -0.4682  0.1049
16893TIP3   OH272093   1.121   5.739  13.731  0.1451 -0.4321  0.0744
16893TIP3    H172094   1.122   5.740  13.635 -1.9721  2.9132 -0.0953
16893TIP3    H272095   1.038   5.697  13.753  0.4768 -0.8995  0.4369
16894TIP3   OH272096   1.213   4.621  16.871 -0.1707  0.3229  0.1328
16894TIP3    H172097   1.275   4.548  16.864 -1.0675 -0.5025  0.5322
16894TIP3    H272098   1.254   4.681  16.933  1.4343  1.0764 -1.5734
16895TIP3   OH272099   1.859   3.749  14.931 -0.6143 -0.2440  0.2486
16895TIP3    H172100   1.838   3.719  14.843  1.5608 -0.9681 -0.0832
16895TIP3    H272101   1.872   3.843  14.922  1.1418 -0.5265 -0.5911
16896TIP3   OH272102   1.978   4.651   0.190  0.3242  0.2580  0.6059
16896TIP3    H172103   1.923   4.728   0.182 -0.2618 -0.0867  1.1928
16896TIP3    H272104   2.064   4.679   0.157 -0.2675  0.7047 -0.6248
16897TIP3   OH272105   1.397   3.448  15.935  0.5617 -0.2688  0.1829
16897TIP3    H172106   1.330   3.516  15.946  1.7284  0.8081  0.9816
16897TIP3    H272107   1.478   3.497  15.920  1.6332 -1.4292  1.8334
16898TIP3   OH272108   4.177   5.197  15.795  0.4537  0.6857  0.2007
16898TIP3    H172109   4.094   5.197  15.841  0.5729  0.0375  0.4337
16898TIP3    H272110   4.234   5.255  15.845  1.1785 -1.4413  2.0263
16899TIP3   OH272111   3.692   1.879  15.704 -0.8968 -0.1688 -0.1842
16899TIP3    H172112   3.677   1.854  15.795 -0.8320 -1.6464 -0.5483
16899TIP3    H272113   3.753   1.953  15.709  0.3219 -1.1824  0.9406
16900TIP3   OH272114   2.879   0.015  10.901 -0.4800 -0.3781  0.2306
16900TIP3    H172115   2.946  -0.009  10.965  1.3653 -0.4316 -1.6091
16900TIP3    H272116   2.914  -0.015  10.817 -1.8649  1.4067 -1.0823
16901TIP3   OH272117   3.529   2.312   3.364  0.3949 -0.2756 -0.3888
16901TIP3    H172118   3.455   2.306   3.303  1.4386  3.0915 -2.1804
16901TIP3    H272119   3.495   2.360   3.439 -0.4057 -2.9198  1.0840
16902TIP3   OH272120   4.089   4.623   2.021  0.3296 -0.0760  0.3213
16902TIP3    H172121   4.030   4.642   2.093 -0.7512  2.4654 -1.0893
16902TIP3    H272122   4.064   4.535   1.991 -1.1637  0.0349  1.1925
16903TIP3   OH272123   1.198   1.942   5.070 -0.2736  0.0522 -0.2241
16903TIP3    H172124   1.113   1.931   5.027 -1.2645  1.0542  1.3341
16903TIP3    H272125   1.242   2.010   5.019 -1.1585  0.7699 -0.0705
16904TIP3   OH272126   5.350   0.743  15.431 -0.0321 -0.4667  0.3808
16904TIP3    H172127   5.354   0.733  15.526 -0.5056  0.1028  0.4655
16904TIP3    H272128   5.257   0.750  15.411  0.0261  4.3936  0.4569
16905TIP3   OH272129   4.452   2.006  12.032 -0.1968 -0.1240  0.2340
16905TIP3    H172130   4.364   1.984  12.065  0.2499 -0.9262  0.9219
16905TIP3    H272131   4.494   2.051  12.104  0.2159 -0.3981  0.1636
16906TIP3   OH272132   4.988   0.932   2.841  0.6869  0.5030  0.0304
16906TIP3    H172133   5.053   1.000   2.824  0.4463  0.9563  0.8368
16906TIP3    H272134   4.968   0.895   2.755  2.2924  0.0795 -0.1912
16907TIP3   OH272135   4.448   3.447  14.764 -0.5807  0.0062 -0.0776
16907TIP3    H172136   4.500   3.494  14.830 -0.0598 -0.7252  0.0489
16907TIP3    H272137   4.448   3.506  14.688 -2.5828  1.6222  1.0663
16908TIP3   OH272138   2.231   6.149   2.131  0.4532 -0.5282  0.6750
16908TIP3    H172139   2.184   6.227   2.162 -2.4556 -1.1246 -1.6952
16908TIP3    H272140   2.208   6.080   2.193  0.6178 -0.1487  1.1587
16909TIP3   OH272141   2.584   2.749  14.669  0.3563  0.0659  0.4431
16909TIP3    H172142   2.565   2.738  14.576  2.7613 -0.6117 -0.0299
16909TIP3    H272143   2.670   2.708  14.682  0.4362  0.7991  2.8143
16910TIP3   OH272144   5.805   5.234   2.112  0.8996 -0.3863  0.4440
16910TIP3    H172145   5.835   5.307   2.059 -2.0671  0.4448 -0.3000
16910TIP3    H272146   5.775   5.168   2.049 -0.4171 -0.4041  1.0431
16911TIP3   OH272147   0.080   6.194   4.475 -0.0261 -0.5618  0.0104
16911TIP3    H172148   0.021   6.119   4.479 -0.1632 -0.4642 -0.1411
16911TIP3    H272149   0.166   6.158   4.495  0.6297 -1.5254 -3.6986
16912TIP3   OH272150   1.533   4.456  16.577  0.0260 -0.0901 -0.6890
16912TIP3    H172151   1.488   4.485  16.498 -1.8572 -0.3308  0.2221
16912TIP3    H272152   1.601   4.521  16.592 -1.7186  1.8334 -0.7131
16913TIP3   OH272153   3.799   5.446  16.213  0.0473 -0.1997  0.4856
16913TIP3    H172154   3.787   5.453  16.118 -0.8821 -1.3994  0.4899
16913TIP3    H272155   3.713   5.465  16.250  0.6144  1.2024  1.1780
16914TIP3   OH272156   3.792   3.564   0.289 -0.0581  0.3234  0.5451
16914TIP3    H172157   3.768   3.539   0.200 -1.2820  1.1697  0.6104
16914TIP3    H272158   3.708   3.567   0.336  0.5773 -0.2492  1.7678
16915TIP3   OH272159   4.806   3.908  13.609 -0.0291 -0.3032  0.3451
16915TIP3    H172160   4.780   3.926  13.699 -0.5334  3.5379 -0.3952
16915TIP3    H272161   4.729   3.931  13.556 -0.0955 -3.3761 -1.1443
16916TIP3   OH272162   2.774   2.793   6.312 -0.0647  0.3171  0.7171
16916TIP3    H172163   2.834   2.842   6.368  1.0608  0.2519 -0.3903
16916TIP3    H272164   2.817   2.709   6.298  0.1149  0.6420 -0.9230
16917TIP3   OH272165   2.753   1.047   3.469  0.6185  0.7293  0.0747
16917TIP3    H172166   2.782   0.957   3.479  1.4363  1.1684  2.0381
16917TIP3    H272167   2.815   1.099   3.521 -0.2939  2.3345 -0.3574
16918TIP3   OH272168   2.521   2.648   4.262 -0.5998 -0.0149  0.5571
16918TIP3    H172169   2.478   2.674   4.181 -0.6033 -1.0669  0.2165
16918TIP3    H272170   2.455   2.665   4.330 -0.8485  0.2026  0.2664
16919TIP3   OH272171   0.735   5.491   3.418  0.3334 -0.6854 -0.0649
16919TIP3    H172172   0.703   5.429   3.485  0.0677  0.8716  1.3099
16919TIP3    H272173   0.744   5.574   3.465  2.1044 -0.0113 -1.5077
16920TIP3   OH272174   1.504   2.481  10.740  0.4647 -0.3032 -0.1191
16920TIP3    H172175   1.471   2.475  10.830 -0.7807  1.4442 -0.4093
16920TIP3    H272176   1.561   2.405  10.731 -0.6786 -1.4582  1.6174
16921TIP3   OH272177   1.210   2.877   6.429 -0.0071 -0.2312  0.3354
16921TIP3    H172178   1.206   2.787   6.461  0.0283 -0.3152  0.1057
16921TIP3    H272179   1.122   2.911   6.445  0.2300 -0.0235  1.2292
16922TIP3   OH272180   1.433   3.775  16.983  0.4169 -0.4141 -0.4485
16922TIP3    H172181   1.471   3.695  16.948  0.9931  0.2723 -1.4375
16922TIP3    H272182   1.430   3.835  16.909 -0.1435  0.4365  0.2393
16923TIP3   OH272183   4.943   4.123   2.916  0.3723 -0.1511 -0.4378
16923TIP3    H172184   4.848   4.122   2.929  0.2943 -0.6005 -1.0173
16923TIP3    H272185   4.968   4.215   2.926  0.0250 -0.1604  0.7315
16924TIP3   OH272186   3.927   2.568  11.088 -0.1363 -0.0654 -0.2785
16924TIP3    H172187   3.951   2.618  11.011  0.9198  0.7499  0.5449
16924TIP3    H272188   3.963   2.480  11.072 -1.4167 -0.4067 -1.4290
16925TIP3   OH272189   0.735   6.379   5.771  0.1405  0.5401 -0.1555
16925TIP3    H172190   0.733   6.472   5.749  2.2126  0.4901 -0.7439
16925TIP3    H272191   0.749   6.377   5.866 -0.1404  0.8247 -0.1087
16926TIP3   OH272192   3.489   4.620  14.892  0.3941 -0.6359 -0.1950
16926TIP3    H172193   3.517   4.586  14.977 -1.6952 -0.9742  0.4185
16926TIP3    H272194   3.519   4.711  14.891  0.2279 -0.5494  1.0458
16927TIP3   OH272195   3.461   6.303  16.300  0.6805  0.0354  0.0661
16927TIP3    H172196   3.445   6.354  16.380 -0.6170  0.4313 -0.4255
16927TIP3    H272197   3.421   6.218  16.318 -0.0060  0.2704 -0.3107
16928TIP3   OH272198   2.462   1.346   1.141  0.3383  0.7041 -0.0343
16928TIP3    H172199   2.528   1.329   1.208  0.7074 -1.2299 -0.8182
16928TIP3    H272200   2.393   1.283   1.160 -0.6384  1.7192 -0.1116
16929TIP3   OH272201   6.453   2.693  13.486 -0.3591 -0.1302 -0.1546
16929TIP3    H172202   6.518   2.695  13.415 -0.5010  0.1480 -0.2770
16929TIP3    H272203   6.369   2.704  13.442 -0.4797 -0.3455  0.0195
16930TIP3   OH272204   4.016   0.280   4.463  0.3342 -0.0678  0.3865
16930TIP3    H172205   3.947   0.230   4.506 -1.3069  1.9351  0.2383
16930TIP3    H272206   3.997   0.272   4.369 -0.5843  1.5838  0.3905
16931TIP3   OH272207   5.594   1.015  12.390  0.3610 -0.0429  0.2508
16931TIP3    H172208   5.635   0.993  12.473 -0.2294  1.6766  1.0570
16931TIP3    H272209   5.530   0.945  12.376 -0.1059  0.0630  1.6766
16932TIP3   OH272210   2.859   0.708  15.708  0.1575  0.3321 -0.1073
16932TIP3    H172211   2.928   0.756  15.753 -0.2807 -0.7516  1.8802
16932TIP3    H272212   2.903   0.662  15.637  1.6020 -0.6628  1.3588
16933TIP3   OH272213   5.944   4.259   3.823 -0.0671  0.3080  0.1788
16933TIP3    H172214   5.961   4.305   3.740  0.9676  1.8763  1.2061
16933TIP3    H272215   5.985   4.173   3.811 -1.9202 -0.3878 -1.7446
16934TIP3   OH272216   5.025   5.789   0.039 -0.3593 -0.2837 -0.1127
16934TIP3    H172217   5.059   5.758   0.124 -0.6818 -1.4697 -0.3990
16934TIP3    H272218   5.065   5.876   0.028 -0.0259 -0.2616  1.0814
16935TIP3   OH272219   5.760   2.350   1.956 -0.0075  0.3201  0.6014
16935TIP3    H172220   5.822   2.290   1.914 -0.5655 -1.5640  2.2890
16935TIP3    H272221   5.815   2.403   2.015  0.1143 -1.0694  1.7948
16936TIP3   OH272222   5.244   2.522  12.632  0.7382 -0.2593 -0.4701
16936TIP3    H172223   5.290   2.456  12.685 -0.3853 -1.1774 -0.5883
16936TIP3    H272224   5.254   2.491  12.542  1.0861  0.3039 -0.6262
16937TIP3   OH272225   2.147   0.651  11.960  0.2222 -0.1631  0.6099
16937TIP3    H172226   2.133   0.557  11.951 -0.8693  0.0152  0.2955
16937TIP3    H272227   2.234   0.667  11.922  0.1169 -0.9432  0.0366
16938TIP3   OH272228   1.114   0.075   2.811 -0.3019 -0.5245 -0.4519
16938TIP3    H172229   1.111   0.170   2.824 -1.4121 -0.6076 -0.0356
16938TIP3    H272230   1.109   0.038   2.899  1.5017 -0.9755 -0.4965
16939TIP3   OH272231   0.260   5.305  11.491  0.4863 -0.0640  0.3980
16939TIP3    H172232   0.275   5.316  11.397  1.2909 -0.4602  0.4709
16939TIP3    H272233   0.178   5.351  11.507 -0.1628 -0.7794 -0.6763
16940TIP3   OH272234   5.246   4.968   5.606 -0.2667  0.2029 -0.5896
16940TIP3    H172235   5.210   4.940   5.690  0.1632 -0.0237 -0.4752
16940TIP3    H272236   5.178   4.947   5.542 -0.2769 -0.3552 -0.3995
16941TIP3   OH272237   6.572   4.266   5.506 -0.0389 -0.8421 -0.0792
16941TIP3    H172238   6.517   4.207   5.456 -0.3105  1.5290 -2.8658
16941TIP3    H272239   6.516   4.341   5.526  1.2503  0.2128 -0.1896
16942TIP3   OH272240   4.856   4.295  13.845 -0.2580 -0.7076 -0.2241
16942TIP3    H172241   4.861   4.342  13.761  0.2178  1.0106  0.7091
16942TIP3    H272242   4.938   4.317  13.890  0.9969 -4.2150 -0.5390
16943TIP3   OH272243   5.814   4.843  15.913 -0.0598 -0.0283 -0.0007
16943TIP3    H172244   5.846   4.753  15.909 -1.2960 -0.4651 -1.1173
16943TIP3    H272245   5.795   4.859  16.005  0.7915 -0.6809  0.2875
16944TIP3   OH272246   4.054   5.433   5.884 -0.8552  0.6956 -0.0280
16944TIP3    H172247   4.077   5.400   5.970 -1.1298  0.2459 -0.1207
16944TIP3    H272248   3.976   5.383   5.860  0.1286 -0.3563 -1.2162
16945TIP3   OH272249   4.735   4.286  15.154 -0.1463 -0.7303  0.6649
16945TIP3    H172250   4.775   4.295  15.240  1.0042 -0.1242  0.0908
16945TIP3    H272251   4.655   4.337  15.158  1.2033  1.5166  0.6012
16946TIP3   OH272252   5.734   4.369   1.044  0.3531 -0.1512 -0.5236
16946TIP3    H172253   5.712   4.314   1.119 -0.4697  0.3370 -0.3962
16946TIP3    H272254   5.824   4.397   1.060 -0.6473  2.1956  1.7304
16947TIP3   OH272255   2.304   6.091  14.461 -0.0613  0.1171 -0.6347
16947TIP3    H172256   2.231   6.041  14.496 -0.7750  0.7697 -1.1556
16947TIP3    H272257   2.360   6.027  14.419 -1.4351 -0.1571 -2.1265
16948TIP3   OH272258   4.086   6.426   5.377  0.1096 -0.0192 -0.0556
16948TIP3    H172259   4.129   6.458   5.456 -0.0167  0.2441 -0.0918
16948TIP3    H272260   4.151   6.438   5.308 -0.7832  2.5654 -0.5594
16949TIP3   OH272261   4.562   4.676  12.867 -0.6825 -0.4709  0.1972
16949TIP3    H172262   4.640   4.645  12.821 -0.6410 -1.1989  0.7348
16949TIP3    H272263   4.593   4.746  12.924 -0.5458 -0.2779 -0.1193
16950TIP3   OH272264   6.217   0.179   2.916  0.0979 -0.2381 -0.3679
16950TIP3    H172265   6.187   0.094   2.885 -1.5669  0.5392 -0.9744
16950TIP3    H272266   6.285   0.205   2.855  0.5096 -1.0523 -0.2663
16951TIP3   OH272267   6.576   1.314  16.044 -0.1047  0.0343  0.6101
16951TIP3    H172268   6.542   1.288  16.129 -0.4707 -0.1718  0.4026
16951TIP3    H272269   6.506   1.369  16.006 -0.0092  0.0015  0.3828
16952TIP3   OH272270   3.524   5.396   4.729  0.6645 -0.0742  0.6152
16952TIP3    H172271   3.593   5.438   4.676  1.9926 -1.3581  1.2455
16952TIP3    H272272   3.555   5.306   4.741 -2.7988 -1.8528 -2.0126
16953TIP3   OH272273   5.219   5.962  13.526 -0.4079 -0.9117  0.4464
16953TIP3    H172274   5.154   5.985  13.593 -0.4531 -0.1014  0.1367
16953TIP3    H272275   5.219   6.036  13.466  0.5666 -1.0471  0.2545
16954TIP3   OH272276   2.244   0.518   5.624 -0.0741  0.3988  0.5084
16954TIP3    H172277   2.186   0.496   5.697 -0.4759  0.3793  0.1911
16954TIP3    H272278   2.269   0.433   5.587 -0.8790  0.4242 -0.1414
16955TIP3   OH272279   1.252   0.470   4.571 -0.3105 -0.2345  0.4939
16955TIP3    H172280   1.161   0.469   4.539 -0.7571 -1.3744  1.6820
16955TIP3    H272281   1.244   0.454   4.666  1.1468 -0.8507  0.5401
16956TIP3   OH272282   5.771   3.777   4.888 -0.3305  0.1859  0.4005
16956TIP3    H172283   5.793   3.778   4.795  0.8615 -2.4396  0.5560
16956TIP3    H272284   5.843   3.825   4.929  0.9096 -1.4185  0.1936
16957TIP3   OH272285   4.598   3.740  14.688  0.1339 -0.4590 -0.2671
16957TIP3    H172286   4.667   3.706  14.631  1.3729 -1.2635  1.6318
16957TIP3    H272287   4.629   3.826  14.715 -0.0875 -0.4020 -0.1919
16958TIP3   OH272288   1.192   5.092  16.720 -0.1050 -0.6757  0.0915
16958TIP3    H172289   1.165   5.165  16.776  1.3458 -2.2791  3.1784
16958TIP3    H272290   1.284   5.109  16.700 -0.2059 -0.8747 -0.5715
16959TIP3   OH272291   4.048   0.763   4.969 -0.3479 -0.6038  0.0293
16959TIP3    H172292   3.978   0.723   5.021 -0.3830 -1.6531 -0.7960
16959TIP3    H272293   4.102   0.689   4.940 -0.4825 -0.0879 -1.6284
16960TIP3   OH272294   0.685   6.804  16.234  0.5726 -0.3670 -0.0607
16960TIP3    H172295   0.634   6.884  16.227  0.2617 -0.5206  0.4110
16960TIP3    H272296   0.774   6.829  16.209  0.3976  0.0370 -0.2797
16961TIP3   OH272297   3.455   1.335   4.181  0.2114 -0.6788 -0.3684
16961TIP3    H172298   3.540   1.343   4.224  0.8935 -2.3267 -1.3222
16961TIP3    H272299   3.417   1.255   4.219 -0.2043 -0.8291 -1.0938
16962TIP3   OH272300   4.901   1.127  15.896  0.0035  0.1314  0.1486
16962TIP3    H172301   4.829   1.066  15.887  0.8945 -0.6991 -1.9161
16962TIP3    H272302   4.951   1.094  15.971  0.5276 -1.7925 -0.9795
16963TIP3   OH272303   4.484   2.626   2.352 -0.2227  0.9699 -0.9206
16963TIP3    H172304   4.452   2.716   2.362  0.1106  1.1000 -1.0129
16963TIP3    H272305   4.553   2.632   2.286 -0.0479  0.6804 -0.7665
16964TIP3   OH272306   0.141   2.560   6.818 -0.3163  0.3097 -0.5183
16964TIP3    H172307   0.066   2.616   6.840 -0.3049 -0.2232  0.9835
16964TIP3    H272308   0.130   2.540   6.725 -0.6798  2.2416 -0.9327
16965TIP3   OH272309   5.530   4.404   0.581  0.3643 -0.0488  0.4655
16965TIP3    H172310   5.473   4.331   0.604 -0.8095  0.9503  0.8527
16965TIP3    H272311   5.497   4.435   0.497  0.9093 -0.0201  0.2597
16966TIP3   OH272312   2.089   6.684  17.026 -0.0134 -0.0601 -0.1417
16966TIP3    H172313   2.066   6.650  17.112 -1.0187 -0.2585 -0.4773
16966TIP3    H272314   2.005   6.705  16.985  0.4940  1.1218 -0.6361
16967TIP3   OH272315   6.554   3.974   4.211 -0.0347  0.2912  0.2240
16967TIP3    H172316   6.545   4.057   4.257  0.0687  1.9874 -2.5676
16967TIP3    H272317   6.648   3.961   4.201 -0.0611  0.3441 -0.1312
16968TIP3   OH272318   4.077   3.838   2.751 -0.3397 -0.9962  0.2404
16968TIP3    H172319   4.101   3.756   2.707  1.0807 -1.0479  1.0406
16968TIP3    H272320   4.039   3.809   2.834  0.6504 -0.8473  0.7531
16969TIP3   OH272321   2.811   2.868   3.886  0.0767 -0.0953 -0.0655
16969TIP3    H172322   2.813   2.921   3.806  0.9988 -0.4039 -0.2543
16969TIP3    H272323   2.892   2.818   3.884 -0.7567 -1.5240  0.1129
16970TIP3   OH272324   0.859   1.975   4.042 -0.2003  0.2159  0.2154
16970TIP3    H172325   0.846   2.000   3.951  0.4786  0.6829  0.2364
16970TIP3    H272326   0.953   1.985   4.056  0.1179 -2.1829  0.2816
16971TIP3   OH272327   2.220   6.702  16.177 -0.7055 -0.1203 -0.6205
16971TIP3    H172328   2.251   6.630  16.231 -1.8759 -0.5857 -0.5280
16971TIP3    H272329   2.134   6.724  16.213 -1.5310 -0.4376 -2.2580
16972TIP3   OH272330   3.134   2.937  14.074  0.1235 -0.6223 -0.3581
16972TIP3    H172331   3.102   3.000  14.139  1.4276  0.0806 -0.3742
16972TIP3    H272332   3.178   2.870  14.126 -0.0389 -0.7908 -0.4357
16973TIP3   OH272333   0.692   6.279  13.793  0.0572 -0.1816 -0.2719
16973TIP3    H172334   0.641   6.340  13.740 -2.3970 -1.9996 -0.1492
16973TIP3    H272335   0.724   6.332  13.867  0.6861  1.6019 -1.7463
16974TIP3   OH272336   4.170   0.289   0.255 -0.5628 -0.0761 -0.1165
16974TIP3    H172337   4.126   0.370   0.282  0.9130  1.1356 -1.1593
16974TIP3    H272338   4.110   0.249   0.192 -1.0513  0.5484 -0.0578
16975TIP3   OH272339   1.275   4.924   5.613 -0.0629 -1.0770 -0.4948
16975TIP3    H172340   1.234   4.883   5.689  0.4464 -0.2447  0.2490
16975TIP3    H272341   1.355   4.874   5.599 -0.0613 -1.1137 -0.3565
16976TIP3   OH272342   6.700   2.802  12.698 -0.1736 -0.4324  0.5334
16976TIP3    H172343   6.791   2.785  12.722  0.3896 -0.7855 -1.5911
16976TIP3    H272344   6.655   2.720  12.716  0.3849 -0.9275 -0.2279
16977TIP3   OH272345   5.190   0.105  11.090 -0.1948  0.1702 -0.2052
16977TIP3    H172346   5.105   0.145  11.073  0.2257  0.4667 -1.8589
16977TIP3    H272347   5.204   0.045  11.016 -0.0693 -1.8313  1.3627
16978TIP3   OH272348   6.433   6.236   1.728  0.4854 -0.3744 -0.0696
16978TIP3    H172349   6.399   6.325   1.738 -0.1617 -0.4471 -1.5141
16978TIP3    H272350   6.363   6.187   1.687  0.9642 -1.4933  0.3933
16979TIP3   OH272351   1.854   5.029  13.127  0.5870 -0.3186 -0.5467
16979TIP3    H172352   1.911   5.027  13.051  1.5702 -1.7220  0.1781
16979TIP3    H272353   1.901   4.979  13.194 -1.4423 -1.5172  0.1006
16980TIP3   OH272354   0.569   5.206   1.239  0.2673 -0.2929 -0.3254
16980TIP3    H172355   0.580   5.212   1.334  0.9654 -2.3608 -0.2306
16980TIP3    H272356   0.537   5.117   1.224 -0.4952  0.2350 -1.9932
16981TIP3   OH272357   5.952   4.707  16.722 -0.0178 -0.2056 -0.4867
16981TIP3    H172358   5.889   4.724  16.792 -0.5680 -1.3609 -0.6818
16981TIP3    H272359   5.928   4.621  16.688  2.3153 -1.1850  0.1391
16982TIP3   OH272360   2.870   6.408   1.326 -0.8986  0.2627  0.0911
16982TIP3    H172361   2.951   6.375   1.289 -0.1133  2.7287 -0.5626
16982TIP3    H272362   2.835   6.468   1.260 -1.5368  1.7097  1.6372
16983TIP3   OH272363   3.675   0.832   2.391 -0.0832  0.0448  0.2505
16983TIP3    H172364   3.580   0.842   2.382  0.3512  3.3517 -3.5854
16983TIP3    H272365   3.703   0.911   2.437  0.9632  0.0172 -0.3113
16984TIP3   OH272366   5.582   0.668  12.045 -0.0856  0.2013 -0.0434
16984TIP3    H172367   5.549   0.631  11.964 -2.1646  0.0330  0.8112
16984TIP3    H272368   5.663   0.621  12.063  0.0050 -0.2776 -1.6027
16985TIP3   OH272369   4.091   4.291   1.791  0.1411  0.1788  0.1051
16985TIP3    H172370   4.114   4.381   1.767  1.8411 -0.4270 -0.7109
16985TIP3    H272371   4.161   4.238   1.752 -1.7475 -1.6676 -0.9678
16986TIP3   OH272372   6.231   3.541  13.849  0.2430 -0.1832  0.8132
16986TIP3    H172373   6.155   3.494  13.814  0.2945  0.5744 -0.3678
16986TIP3    H272374   6.303   3.519  13.789  0.6211  0.2137  1.1134
16987TIP3   OH272375   2.002   0.753  14.290 -0.0648 -0.0813 -0.0277
16987TIP3    H172376   2.054   0.705  14.355 -2.0833 -1.2356  0.8594
16987TIP3    H272377   2.003   0.844  14.320 -2.0595 -0.7902  2.5376
16988TIP3   OH272378   1.864   4.496   2.195 -0.7056 -0.2277 -0.3676
16988TIP3    H172379   1.873   4.590   2.212 -0.1771 -0.4604  0.7477
16988TIP3    H272380   1.897   4.484   2.106 -0.1190  0.5567 -0.2635
16989TIP3   OH272381   3.169   2.721  11.298  0.0062  0.0713 -0.4749
16989TIP3    H172382   3.178   2.770  11.216 -1.3002 -0.0486 -0.7141
16989TIP3    H272383   3.200   2.781  11.366  1.4317  0.0481 -1.0782
16990TIP3   OH272384   0.606   4.617   4.362  0.2199 -0.0523  0.5575
16990TIP3    H172385   0.550   4.658   4.296  0.0594 -0.9009  0.1491
16990TIP3    H272386   0.632   4.689   4.419  0.8443  0.8283 -0.7642
16991TIP3   OH272387   5.420   6.232   1.899 -0.4463 -0.0406 -0.4889
16991TIP3    H172388   5.346   6.245   1.957  1.1660  0.2171  1.6111
16991TIP3    H272389   5.489   6.195   1.954  1.2149  0.3221 -2.1895
16992TIP3   OH272390   3.113   0.045   6.043  0.2228  0.2162 -0.0927
16992TIP3    H172391   3.102   0.086   6.129 -0.4405  0.7705 -0.4316
16992TIP3    H272392   3.045  -0.022   6.039  0.6123 -0.1892  0.0327
16993TIP3   OH272393   0.327   0.853  14.361 -0.4444 -0.2434  1.0249
16993TIP3    H172394   0.255   0.881  14.418  1.8095  4.4577  2.0528
16993TIP3    H272395   0.296   0.874  14.272 -0.9640  0.0708  1.2745
16994TIP3   OH272396   3.467   0.072  11.971 -0.4768  0.0799 -0.0718
16994TIP3    H172397   3.409   0.148  11.966 -0.9328 -0.2081  0.7083
16994TIP3    H272398   3.413   0.003  12.009 -0.6297 -1.1922 -2.4006
16995TIP3   OH272399   4.955   1.943  15.686 -0.0044  0.2120  0.2174
16995TIP3    H172400   4.948   1.852  15.656  1.4409 -0.5173  1.8882
16995TIP3    H272401   4.872   1.959  15.730  0.1110 -0.6749  0.7938
16996TIP3   OH272402   5.108   1.190  11.904  0.0167  0.0053  0.7370
16996TIP3    H172403   5.172   1.236  11.849 -0.3769  0.6775  0.8316
16996TIP3    H272404   5.056   1.140  11.842  0.8228 -0.7948  0.6859
16997TIP3   OH272405   0.811   2.381   0.318  0.1845 -0.1191 -0.4965
16997TIP3    H172406   0.810   2.357   0.410 -1.2517  0.5817 -0.3094
16997TIP3    H272407   0.837   2.300   0.273  1.0235 -0.4301  0.5152
16998TIP3   OH272408   0.128   4.761  15.988  0.0422 -0.2005 -0.1268
16998TIP3    H172409   0.052   4.714  16.021  1.0775 -0.1958  2.5997
16998TIP3    H272410   0.198   4.739  16.050  2.2602 -0.1273 -2.4313
16999TIP3   OH272411   6.694   1.725  14.083  0.1981  0.2269 -0.1345
16999TIP3    H172412   6.653   1.648  14.124  0.5189  1.5127  2.8196
16999TIP3    H272413   6.744   1.688  14.010 -0.4472 -2.2602  0.5557
17000TIP3   OH272414   4.580   3.704  12.879  0.0381  0.8410 -0.2684
17000TIP3    H172415   4.572   3.789  12.921 -1.2574  0.5842  0.0600
17000TIP3    H272416   4.565   3.641  12.950  0.9599  0.3246 -0.5110
17001TIP3   OH272417   4.282   5.751  11.755 -0.4518 -0.3249 -0.0502
17001TIP3    H172418   4.273   5.812  11.829  2.5752 -0.5657  0.6169
17001TIP3    H272419   4.225   5.678  11.779  0.9803 -0.7384  2.5130
17002TIP3   OH272420   3.358   3.237   1.690  0.0470 -0.1749  0.0697
17002TIP3    H172421   3.394   3.151   1.669  1.0507  0.0910  0.6247
17002TIP3    H272422   3.344   3.234   1.785 -1.8951 -0.4370 -0.1830
17003TIP3   OH272423   6.725   5.929   3.111 -0.0818  0.0512 -0.0477
17003TIP3    H172424   6.814   5.910   3.142 -0.5502 -0.2958  1.1435
17003TIP3    H272425   6.735   6.007   3.056  1.1609 -0.7682 -1.0692
17004TIP3   OH272426   5.451   1.658   3.048 -0.0835  0.1234  0.2980
17004TIP3    H172427   5.427   1.600   3.120 -0.9071  0.8322  0.6182
17004TIP3    H272428   5.475   1.741   3.091  0.4037  0.2371 -0.1845
17005TIP3   OH272429   5.398   5.975  14.355 -0.6327  0.2407  0.2590
17005TIP3    H172430   5.309   5.953  14.383 -0.6611 -0.0062 -0.0267
17005TIP3    H272431   5.411   6.065  14.384 -0.4531 -0.1955  1.6191
17006TIP3   OH272432   1.657   1.458   3.567  0.3667  0.0217 -0.2409
17006TIP3    H172433   1.706   1.410   3.501 -0.8815  0.7642 -1.7528
17006TIP3    H272434   1.720   1.522   3.602  1.0818 -0.4828 -0.5838
17007TIP3   OH272435   6.240   4.423   5.036 -0.0870  0.7051  0.6613
17007TIP3    H172436   6.314   4.483   5.035  0.7437 -0.2499 -1.2912
17007TIP3    H272437   6.179   4.460   5.101  0.5335  3.4203 -0.1802
17008TIP3   OH272438   2.986   4.466   3.661 -0.0213 -0.1505 -0.1266
17008TIP3    H172439   3.080   4.484   3.668 -0.0080 -0.6310  1.4520
17008TIP3    H272440   2.975   4.428   3.574  1.0863  0.7986 -0.7047
17009TIP3   OH272441   6.424   3.114   3.746  0.2807 -0.5997 -0.3828
17009TIP3    H172442   6.399   3.092   3.836 -0.6786  1.6398 -0.0312
17009TIP3    H272443   6.349   3.163   3.712  1.9509  1.4789 -1.2527
17010TIP3   OH272444   4.545   4.071  16.574 -0.0032 -0.1063  0.2733
17010TIP3    H172445   4.504   4.078  16.660 -1.0533  2.2208 -0.3421
17010TIP3    H272446   4.585   3.984  16.574  0.3340 -0.0597  3.2074
17011TIP3   OH272447   0.184   4.319  11.802 -0.2843  0.1819  0.1071
17011TIP3    H172448   0.230   4.322  11.886 -0.8623 -3.0213  0.6690
17011TIP3    H272449   0.101   4.364  11.819 -0.0761  0.2461  1.0358
17012TIP3   OH272450   0.621   5.192   1.525 -0.2362 -0.4491  0.9454
17012TIP3    H172451   0.619   5.279   1.564 -0.4249  1.6835 -3.2651
17012TIP3    H272452   0.714   5.170   1.520 -0.0054  0.6368 -0.0303
17013TIP3   OH272453   6.454   1.036  11.274  0.1169 -0.4555  0.5813
17013TIP3    H172454   6.363   1.007  11.270 -0.1605  0.3563  0.9253
17013TIP3    H272455   6.477   1.057  11.184 -0.1995 -0.1807  0.5635
17014TIP3   OH272456   5.829   2.812   3.743 -0.0895  0.2350  0.2843
17014TIP3    H172457   5.773   2.817   3.665  2.9141 -0.8955 -2.1376
17014TIP3    H272458   5.835   2.718   3.762  2.1294  0.1440 -0.5460
17015TIP3   OH272459   3.645   0.034  14.632  0.6824  0.5676 -0.3808
17015TIP3    H172460   3.704  -0.005  14.568 -1.5501  0.8574 -2.8067
17015TIP3    H272461   3.648   0.128  14.613 -0.7364  0.5574 -0.8038
17016TIP3   OH272462   0.966   3.124  12.698 -0.0549  0.2414  0.1078
17016TIP3    H172463   1.041   3.121  12.758  0.9926  2.6338 -0.9649
17016TIP3    H272464   0.917   3.201  12.727 -0.4080  0.4786 -1.0913
17017TIP3   OH272465   2.402   1.479   2.633  0.0561 -0.2267 -0.6727
17017TIP3    H172466   2.374   1.497   2.543 -0.0091 -0.1901 -0.6450
17017TIP3    H272467   2.494   1.505   2.635  0.1675 -0.5970 -0.8383
17018TIP3   OH272468   4.411   6.454   6.036 -0.1948 -0.3201  0.1115
17018TIP3    H172469   4.426   6.414   6.122 -0.6663  0.0594  0.3796
17018TIP3    H272470   4.468   6.405   5.976  0.5185 -0.2652  0.7232
17019TIP3   OH272471   3.663   2.529   6.104  0.6258  0.4686 -0.1236
17019TIP3    H172472   3.582   2.542   6.152  0.9620  1.1631  0.2753
17019TIP3    H272473   3.723   2.490   6.168  1.2221  1.8341  0.1976
17020TIP3   OH272474   4.765   2.071  12.628 -0.1392 -0.1303 -0.5517
17020TIP3    H172475   4.686   2.064  12.574 -0.1275 -0.1670 -0.5635
17020TIP3    H272476   4.794   2.162  12.615  0.7700 -0.5828 -1.8773
17021TIP3   OH272477   1.503   6.390   1.846  0.3145  0.0586  0.2488
17021TIP3    H172478   1.476   6.303   1.873  1.8226 -0.0465  1.5487
17021TIP3    H272479   1.474   6.448   1.917 -0.1164  0.5285 -0.2980
17022TIP3   OH272480   0.484   5.149  11.510  0.3430  0.2500  0.0592
17022TIP3    H172481   0.403   5.200  11.514 -0.5153 -1.0968  0.3947
17022TIP3    H272482   0.469   5.075  11.568  1.4605 -0.5362 -0.6144
17023TIP3   OH272483   4.939   5.555  11.853  0.3875  0.7805  0.0229
17023TIP3    H172484   5.007   5.489  11.838  0.1352  0.6831 -0.7455
17023TIP3    H272485   4.857   5.509  11.836  0.1957  1.2358 -0.3011
17024TIP3   OH272486   6.778   1.773  12.795  0.3455 -0.6049 -0.6046
17024TIP3    H172487   6.851   1.833  12.812  1.4793 -1.6505 -1.6242
17024TIP3    H272488   6.785   1.753  12.702 -2.2051  0.4657 -1.0973
17025TIP3   OH272489   1.750   1.150  12.089  0.7707 -0.2347  1.1027
17025TIP3    H172490   1.780   1.108  12.008  0.2060  1.3995 -0.0073
17025TIP3    H272491   1.654   1.150  12.082  0.7528  0.7899  1.3074
17026TIP3   OH272492   4.984   1.350   5.155 -0.5665  0.0664  0.4430
17026TIP3    H172493   5.054   1.407   5.184 -0.2413  0.6977 -1.4708
17026TIP3    H272494   5.015   1.262   5.175 -0.2368  0.4360  1.6569
17027TIP3   OH272495   2.030   5.150   1.426  0.0959  0.5674  0.2927
17027TIP3    H172496   2.117   5.124   1.455  0.7066  0.0126 -1.8261
17027TIP3    H272497   1.977   5.071   1.431  0.3077  0.3721 -0.3993
17028TIP3   OH272498   1.178   2.996  14.753 -0.1662 -0.4830  0.5208
17028TIP3    H172499   1.146   3.086  14.755  1.5225  0.1936 -0.3601
17028TIP3    H272500   1.169   2.965  14.843 -2.1760  0.0259  0.5257
17029TIP3   OH272501   3.526   0.966  13.880  0.0511 -0.1362 -0.4091
17029TIP3    H172502   3.548   1.037  13.941 -0.2099 -0.9738  0.6909
17029TIP3    H272503   3.569   0.889  13.916 -0.3200 -0.7092 -1.1596
17030TIP3   OH272504   6.204   5.570   2.417 -0.1410  0.0536 -0.3109
17030TIP3    H172505   6.158   5.487   2.433 -1.2655  0.2956 -2.0071
17030TIP3    H272506   6.254   5.554   2.337  1.3021  0.3927  0.4927
17031TIP3   OH272507   3.614   0.679  16.233 -0.2076 -0.5771  0.3831
17031TIP3    H172508   3.582   0.608  16.177  0.0041 -1.2574  1.0960
17031TIP3    H272509   3.536   0.729  16.255 -0.2042  0.0676 -1.0070
17032TIP3   OH272510   1.871   0.944  11.903  0.1893 -0.8557 -0.1762
17032TIP3    H172511   1.922   0.912  11.977  0.2256 -0.5784 -0.0829
17032TIP3    H272512   1.925   0.923  11.826 -0.2601 -1.9904 -0.2089
17033TIP3   OH272513   5.380   5.668  16.805 -0.5979  0.4685  0.0084
17033TIP3    H172514   5.380   5.574  16.789 -0.9607  0.7784 -2.1850
17033TIP3    H272515   5.372   5.707  16.717  0.2062  2.5478  0.7912
17034TIP3   OH272516   6.138   1.909   3.033 -0.4627  0.0284  0.3717
17034TIP3    H172517   6.071   1.893   3.100 -0.9880  1.3615  0.1898
17034TIP3    H272518   6.211   1.946   3.082 -0.2589 -0.4184  0.4127
17035TIP3   OH272519   4.501   0.143   3.283 -0.6162 -0.5601 -0.1709
17035TIP3    H172520   4.550   0.224   3.265  0.0573 -0.6640  1.0462
17035TIP3    H272521   4.534   0.115   3.368 -0.9452 -2.0582 -0.5228
17036TIP3   OH272522   1.432   0.232   4.044 -0.0276 -0.1675 -0.1887
17036TIP3    H172523   1.407   0.245   4.136  1.0344 -0.7657  0.2018
17036TIP3    H272524   1.464   0.317   4.016 -0.2247 -0.0165  0.0327
17037TIP3   OH272525   2.718   4.353  16.465  0.0711 -0.0836  0.3358
17037TIP3    H172526   2.750   4.277  16.513 -0.2246  0.1977  0.9841
17037TIP3    H272527   2.794   4.385  16.417  0.4853 -0.1035  0.9721
17038TIP3   OH272528   4.760   2.123   5.020 -0.1310  0.2300 -0.5399
17038TIP3    H172529   4.789   2.057   5.083  0.5601  1.0488  0.0155
17038TIP3    H272530   4.665   2.130   5.034 -0.1395 -0.3176 -0.3057
17039TIP3   OH272531   3.916   4.831  13.895 -0.0945  0.7907  0.2854
17039TIP3    H172532   3.943   4.751  13.850 -0.7400 -0.2635  1.6858
17039TIP3    H272533   3.840   4.861  13.846  0.6028  1.0019 -0.7079
17040TIP3   OH272534   0.194   1.981   0.066  0.0879  0.2988  0.9789
17040TIP3    H172535   0.152   2.067   0.068 -1.5165 -0.3877 -0.3171
17040TIP3    H272536   0.124   1.921   0.038  1.2820 -1.3514  1.3772
17041TIP3   OH272537   5.058   0.335   3.348  0.5713  0.4380 -0.0735
17041TIP3    H172538   4.987   0.388   3.386  1.2978  2.1077 -0.9785
17041TIP3    H272539   5.132   0.349   3.407  0.8518  0.6738 -0.4806
17042TIP3   OH272540   0.826   1.283  14.489  0.6082  0.2626  0.0646
17042TIP3    H172541   0.770   1.298  14.413  1.5403  1.8513 -0.3529
17042TIP3    H272542   0.903   1.238  14.453  1.2887  1.4873 -0.0511
17043TIP3   OH272543   0.750   5.709  11.875 -0.2098 -0.0889  0.0897
17043TIP3    H172544   0.673   5.733  11.822  0.5129 -0.6847 -1.2934
17043TIP3    H272545   0.808   5.785  11.867  0.2387 -0.4993 -0.6674
17044TIP3   OH272546   1.998   5.844   0.946 -0.2933 -0.4458  0.3691
17044TIP3    H172547   1.969   5.764   0.902  0.4419  0.3111 -1.6254
17044TIP3    H272548   1.955   5.842   1.031 -1.1222 -2.4329 -0.0507
17045TIP3   OH272549   6.077   2.776   6.337  0.3353  0.2296 -0.2717
17045TIP3    H172550   6.059   2.698   6.285  0.0117  0.3408 -0.3332
17045TIP3    H272551   6.071   2.746   6.428  1.8158 -0.1660 -0.2876
17046TIP3   OH272552   2.443   5.970  13.490  0.3865 -0.0368  0.4064
17046TIP3    H172553   2.508   6.030  13.528  0.4648  1.6535 -2.2062
17046TIP3    H272554   2.366   5.980  13.546  1.3138  0.3015  1.6819
17047TIP3   OH272555   4.163   4.509  10.802  0.3553 -0.4546 -0.7096
17047TIP3    H172556   4.178   4.415  10.802 -1.6253 -0.8225 -1.1904
17047TIP3    H272557   4.208   4.541  10.880  0.4464 -1.9223 -0.1393
17048TIP3   OH272558   4.158   2.861  17.041  0.3977  0.0149 -0.5174
17048TIP3    H172559   4.244   2.892  17.070 -0.5260  0.9404  1.4155
17048TIP3    H272560   4.155   2.769  17.068  0.5662  0.1316 -0.0999
17049TIP3   OH272561   2.125   1.242   2.065  0.7810 -0.1224  0.6458
17049TIP3    H172562   2.220   1.256   2.055  0.6555  0.3879  0.0835
17049TIP3    H272563   2.087   1.328   2.050  0.1656 -0.5086 -0.0546
17050TIP3   OH272564   5.904   6.730   1.612 -0.5730  0.1126  0.1547
17050TIP3    H172565   5.952   6.667   1.665  1.7617  0.5171 -1.3496
17050TIP3    H272566   5.939   6.815   1.638  1.2719  0.2889 -2.4476
17051TIP3   OH272567   0.864   0.635   4.629 -0.1004  0.2676  0.0673
17051TIP3    H172568   0.776   0.608   4.602 -0.5799  1.9415 -0.1724
17051TIP3    H272569   0.887   0.575   4.700 -0.1842 -2.1167 -1.8001
17052TIP3   OH272570   1.548   0.222  13.111  0.1740 -0.4128 -0.1222
17052TIP3    H172571   1.636   0.197  13.083 -0.5062 -2.0410 -0.9832
17052TIP3    H272572   1.542   0.192  13.201  0.1786 -1.2716 -0.3918
17053TIP3   OH272573   3.753   1.000  11.717 -0.0411 -0.3918  0.4889
17053TIP3    H172574   3.723   1.089  11.695  0.4834  0.0008  1.3054
17053TIP3    H272575   3.694   0.942  11.669 -0.3367  0.3969 -0.1321
17054TIP3   OH272576   5.625   3.820   2.434  0.0951  0.0317  0.2462
17054TIP3    H172577   5.567   3.745   2.426 -0.5028  0.5396 -0.3262
17054TIP3    H272578   5.641   3.848   2.344  0.1791  0.6847  0.4550
17055TIP3   OH272579   2.830   6.425  12.926  0.1044 -0.1674 -0.4273
17055TIP3    H172580   2.866   6.342  12.898 -0.6682 -0.3471 -0.9164
17055TIP3    H272581   2.906   6.477  12.952  0.8496 -0.0679 -2.6164
17056TIP3   OH272582   4.566   1.131   6.332 -0.0892  0.1955 -0.2697
17056TIP3    H172583   4.630   1.071   6.369 -0.4455  0.0773  0.1658
17056TIP3    H272584   4.481   1.094   6.356 -0.3236  1.5006  1.0519
17057TIP3   OH272585   0.295   1.563  16.819  0.1481 -0.4476  0.1538
17057TIP3    H172586   0.232   1.517  16.763 -0.7053  0.2004  0.5503
17057TIP3    H272587   0.344   1.493  16.863 -1.0691 -1.0052  0.6866
17058TIP3   OH272588   4.789   4.515  15.705 -0.1471 -0.3809 -0.4339
17058TIP3    H172589   4.814   4.423  15.698 -0.2296 -0.5322  0.9238
17058TIP3    H272590   4.835   4.547  15.782 -2.6617 -0.1995  1.1106
17059TIP3   OH272591   1.887   4.636  12.776 -0.2105  0.0141 -0.4519
17059TIP3    H172592   1.941   4.565  12.741 -0.7082 -0.0421 -1.1296
17059TIP3    H272593   1.884   4.701  12.706 -1.6460 -0.3252 -0.7397
17060TIP3   OH272594   2.210   3.609   3.242  0.0075 -0.5621 -0.5475
17060TIP3    H172595   2.125   3.652   3.238 -0.1387 -0.6932  0.6936
17060TIP3    H272596   2.193   3.519   3.217 -0.4640 -0.8802  0.8187
17061TIP3   OH272597   1.155   4.806   2.134 -0.2853  0.4275  0.6285
17061TIP3    H172598   1.080   4.863   2.151 -1.1597 -0.6562  0.4579
17061TIP3    H272599   1.188   4.783   2.221 -0.6676  0.2415  0.7277
17062TIP3   OH272600   0.329   1.167  12.418  0.5892 -0.2156  0.5713
17062TIP3    H172601   0.404   1.108  12.429  1.0570  0.1768 -0.4003
17062TIP3    H272602   0.365   1.245  12.377 -0.2010  0.3551  0.9378
17063TIP3   OH272603   3.691   5.165  10.884  0.1308 -0.2083  0.4492
17063TIP3    H172604   3.599   5.150  10.862 -0.0485  3.1032 -1.6470
17063TIP3    H272605   3.738   5.097  10.835 -1.0482 -0.6451 -0.1322
17064TIP3   OH272606   5.112   6.079   5.274  0.4254  0.2439  0.4662
17064TIP3    H172607   5.068   6.021   5.336  0.0260 -0.1644 -0.1936
17064TIP3    H272608   5.182   6.119   5.325  0.4128 -0.4584  1.0499
17065TIP3   OH272609   6.154   2.485   1.841  0.1401  0.2585  0.2825
17065TIP3    H172610   6.066   2.467   1.808 -0.0282 -0.4576  1.1044
17065TIP3    H272611   6.209   2.486   1.763 -0.1486 -1.9756  0.0063
17066TIP3   OH272612   5.399   6.066  13.211 -0.2269  0.0480  0.0745
17066TIP3    H172613   5.452   6.097  13.138  1.1175 -0.5247  0.7758
17066TIP3    H272614   5.372   5.978  13.184 -1.1304  0.4631 -0.4229
17067TIP3   OH272615   6.550   1.136   2.053  0.9618 -0.8868 -0.2178
17067TIP3    H172616   6.512   1.057   2.015  1.4672 -0.7632 -0.9933
17067TIP3    H272617   6.519   1.207   1.998 -0.4362 -0.3684  1.1428
17068TIP3   OH272618   4.060   2.202  13.889 -0.2965  0.0722 -0.5268
17068TIP3    H172619   4.142   2.250  13.896  0.7038 -1.6024 -0.4144
17068TIP3    H272620   4.076   2.120  13.934 -2.1203 -0.2071 -0.3135
17069TIP3   OH272621   1.469   5.871  12.949  0.0584 -0.3115  0.4857
17069TIP3    H172622   1.390   5.924  12.950 -0.2080 -0.6461 -0.8707
17069TIP3    H272623   1.467   5.823  13.031 -1.0433 -0.1700  0.5534
17070TIP3   OH272624   1.541   0.557   5.942 -0.5504  0.4327 -0.2775
17070TIP3    H172625   1.526   0.487   5.879  2.3405 -1.0012  0.4477
17070TIP3    H272626   1.457   0.567   5.987 -2.1234  0.1554 -2.9230
17071TIP3   OH272627   4.841   4.270   3.658 -0.0215  0.4446  0.8507
17071TIP3    H172628   4.842   4.261   3.753 -2.6291 -1.7335  0.7870
17071TIP3    H272629   4.786   4.347   3.642  0.4431  0.8310  1.0727
17072TIP3   OH272630   2.857   2.533   1.091  0.3618 -0.0032 -0.0223
17072TIP3    H172631   2.935   2.492   1.052  1.3962  0.6281  1.2861
17072TIP3    H272632   2.818   2.463   1.144  1.4164  0.2988  1.2101
17073TIP3   OH272633   5.544   5.881  14.652  0.8064  0.5401 -0.1731
17073TIP3    H172634   5.579   5.893  14.564  1.5561  0.6346  0.1363
17073TIP3    H272635   5.563   5.964  14.697  1.0533  0.2328  0.2886
17074TIP3   OH272636   1.465   1.226   2.412  0.3992 -0.3244 -0.3081
17074TIP3    H172637   1.451   1.210   2.318 -0.1943  0.6544 -0.3946
17074TIP3    H272638   1.424   1.151   2.455  0.4831 -0.6709 -0.8236
17075TIP3   OH272639   0.639   1.275  11.150  0.6498 -0.3345 -0.4053
17075TIP3    H172640   0.625   1.350  11.207 -1.2088 -2.1256  1.7203
17075TIP3    H272641   0.617   1.307  11.063 -1.0640  1.3894  0.5687
17076TIP3   OH272642   3.599   6.306   3.415 -0.0232  0.3196 -0.1799
17076TIP3    H172643   3.555   6.383   3.379 -0.7894 -0.0424 -0.0456
17076TIP3    H272644   3.685   6.305   3.373 -0.0873  1.1222 -0.3461
17077TIP3   OH272645   2.228   1.526  16.354 -0.1550 -0.4326  0.3816
17077TIP3    H172646   2.223   1.441  16.312  0.6330 -0.1192 -0.3624
17077TIP3    H272647   2.242   1.506  16.447  0.8223 -1.1101  0.0972
17078TIP3   OH272648   1.901   2.638  14.180 -0.2736 -0.0224 -0.1924
17078TIP3    H172649   1.873   2.615  14.269 -1.7893  3.4705  0.3852
17078TIP3    H272650   1.832   2.696  14.148  2.7481  3.0889 -1.6035
17079TIP3   OH272651   4.311   5.592   3.944  0.2297 -0.3106 -0.0693
17079TIP3    H172652   4.289   5.683   3.923 -0.9558 -0.5816 -0.0617
17079TIP3    H272653   4.269   5.541   3.875  0.6812 -0.8816  0.0665
17080TIP3   OH272654   3.513   0.638  12.388  0.2248 -0.1439 -0.2066
17080TIP3    H172655   3.429   0.593  12.376  0.0691  0.7444 -3.1166
17080TIP3    H272656   3.578   0.568  12.395 -0.3012 -0.8750 -2.1413
17081TIP3   OH272657   4.093   0.393  13.699 -0.2040  0.0221  0.1427
17081TIP3    H172658   4.065   0.385  13.608 -0.9465 -2.0153  0.4928
17081TIP3    H272659   4.149   0.317  13.714 -0.8082 -0.1716  1.6086
17082TIP3   OH272660   1.595   3.473  12.764  0.5630 -0.1244 -0.0291
17082TIP3    H172661   1.597   3.377  12.769 -0.0505 -0.1825 -0.6869
17082TIP3    H272662   1.504   3.493  12.740  0.9726  0.5477 -1.0678
17083TIP3   OH272663   4.681   5.094  16.466  0.5604  0.4799 -0.2839
17083TIP3    H172664   4.777   5.090  16.459  0.4659 -1.4648 -1.1529
17083TIP3    H272665   4.652   5.005  16.446 -1.3343  0.5115  1.8870
17084TIP3   OH272666   2.746   6.544   1.115  0.0562 -0.6196  0.3430
17084TIP3    H172667   2.701   6.624   1.088  0.0816 -0.0383  1.9574
17084TIP3    H272668   2.810   6.528   1.044  0.0470  0.7751 -0.0082
17085TIP3   OH272669   0.412   2.391   0.367 -0.3809  0.3260  0.0544
17085TIP3    H172670   0.333   2.436   0.338 -0.9916 -0.5162  0.3903
17085TIP3    H272671   0.463   2.458   0.412 -0.6912  0.9811 -0.5585
17086TIP3   OH272672   6.604   1.977  11.744  0.2989  0.0089  0.3127
17086TIP3    H172673   6.636   1.960  11.655  3.2074  0.9098  1.0543
17086TIP3    H272674   6.604   1.891  11.786  1.2171 -0.1256  0.0709
17087TIP3   OH272675   4.576   5.062  12.760  0.1045  0.3486 -0.3659
17087TIP3    H172676   4.494   5.024  12.792  1.1792 -2.0534 -0.2520
17087TIP3    H272677   4.567   5.059  12.664  0.6135 -1.3906 -0.4000
17088TIP3   OH272678   6.367   1.794   3.382  0.3815 -0.2017 -0.4033
17088TIP3    H172679   6.400   1.771   3.470  1.1901  1.4523 -0.2336
17088TIP3    H272680   6.341   1.710   3.344 -0.5827 -0.9126  1.6356
17089TIP3   OH272681   3.704   3.328  14.750  0.3983 -0.8443 -0.0300
17089TIP3    H172682   3.778   3.278  14.715  0.7518 -0.6314  0.4104
17089TIP3    H272683   3.675   3.383  14.677  3.2417  2.1067  0.8134
17090TIP3   OH272684   1.137   4.380  12.295  0.3144  0.4285  0.5186
17090TIP3    H172685   1.211   4.337  12.338  2.2739  1.8123 -1.2483
17090TIP3    H272686   1.152   4.366  12.202 -0.0144  3.1600 -0.0460
17091TIP3   OH272687   2.407   0.531   4.414 -0.1398 -0.6108 -0.0771
17091TIP3    H172688   2.388   0.460   4.475 -2.5308 -1.9972 -2.2179
17091TIP3    H272689   2.347   0.601   4.439 -0.0266 -0.5729  0.0899
17092TIP3   OH272690   0.226   1.887   4.638  0.3536  0.1328 -0.5112
17092TIP3    H172691   0.245   1.838   4.559  0.5714  0.5678 -0.7316
17092TIP3    H272692   0.249   1.977   4.617 -2.1698  0.7613 -0.8852
17093TIP3   OH272693   0.141   6.503   5.104  0.6537 -0.3979 -1.1087
17093TIP3    H172694   0.211   6.543   5.155 -0.1585  2.5209 -2.0314
17093TIP3    H272695   0.064   6.509   5.161  0.6049 -1.1706 -1.0814
17094TIP3   OH272696   1.453   0.061  14.988 -0.1490  0.4049  0.2644
17094TIP3    H172697   1.452   0.154  14.966 -1.2233  0.6977  1.4287
17094TIP3    H272698   1.515   0.022  14.926  0.8712  2.0043  0.2159
17095TIP3   OH272699   6.442   3.831  13.536 -0.1295  0.0441 -0.5118
17095TIP3    H172700   6.491   3.856  13.615 -2.1295  0.1428  0.7713
17095TIP3    H272701   6.445   3.909  13.480  0.2977  0.4031  0.0041
17096TIP3   OH272702   2.161   3.252   0.476 -0.1824 -0.3211  0.5479
17096TIP3    H172703   2.158   3.173   0.423  0.8204  0.4006 -0.6403
17096TIP3    H272704   2.078   3.252   0.523 -0.9823 -1.1747 -0.7793
17097TIP3   OH272705   3.319   1.290   0.748 -0.3302  0.1671  0.3993
17097TIP3    H172706   3.242   1.235   0.733 -1.2169  1.3228  0.5784
17097TIP3    H272707   3.336   1.332   0.664 -0.1833  0.2941  0.4914
17098TIP3   OH272708   4.561   0.606   1.498 -0.4011 -0.0371 -0.3243
17098TIP3    H172709   4.491   0.583   1.559  0.0581 -0.5473  0.0181
17098TIP3    H272710   4.610   0.525   1.485 -0.8557 -0.0940 -1.8777
17099TIP3   OH272711   1.888   0.136  13.195 -0.7317  0.4251  0.3042
17099TIP3    H172712   1.953   0.067  13.207 -1.0811 -0.2991 -1.4739
17099TIP3    H272713   1.924   0.191  13.125 -0.7438  1.7148  1.2802
17100TIP3   OH272714   4.474   0.665   2.173 -0.1056 -0.0194 -0.0107
17100TIP3    H172715   4.401   0.627   2.220  0.5396 -0.7004  0.4569
17100TIP3    H272716   4.492   0.604   2.102  0.0553  0.1057 -0.0796
17101TIP3   OH272717   3.575   5.394  13.604  0.1463 -0.1922  0.1833
17101TIP3    H172718   3.554   5.351  13.521  0.3886 -0.8091  0.4375
17101TIP3    H272719   3.545   5.333  13.671  0.1828  0.1925  0.5497
17102TIP3   OH272720   3.026   5.654   4.537 -0.5674  0.1238  0.3187
17102TIP3    H172721   3.104   5.613   4.573 -1.4736  0.7271  3.2801
17102TIP3    H272722   3.046   5.666   4.444  1.8384 -1.9488  0.4420
17103TIP3   OH272723   6.144   1.801  11.884  0.7223 -0.4066  0.6822
17103TIP3    H172724   6.098   1.885  11.880 -0.2535 -0.9875 -0.5580
17103TIP3    H272725   6.229   1.823  11.924 -0.0120  0.9296  1.6048
17104TIP3   OH272726   4.442   1.050   4.451  0.2446 -0.4529  0.0631
17104TIP3    H172727   4.450   1.063   4.357  0.2390  0.3096  0.1652
17104TIP3    H272728   4.520   1.000   4.475  0.8910  0.4509 -0.1421
17105TIP3   OH272729   1.936   5.137   1.143 -0.1093  0.2155  0.6087
17105TIP3    H172730   1.878   5.198   1.097 -1.3960 -1.4115 -0.0032
17105TIP3    H272731   1.976   5.190   1.212 -0.5992  1.9312 -0.3503
17106TIP3   OH272732   5.975   4.349   3.153  0.0027 -0.2178  0.1937
17106TIP3    H172733   5.960   4.285   3.223 -2.5375 -0.2667 -0.2886
17106TIP3    H272734   5.942   4.306   3.074  3.0324 -0.2586 -1.1712
17107TIP3   OH272735   4.346   5.182  11.791 -0.2332  0.5921  0.7398
17107TIP3    H172736   4.255   5.199  11.817 -1.5569 -3.2727 -0.7431
17107TIP3    H272737   4.341   5.159  11.699  2.5124  1.5507  0.2653
17108TIP3   OH272738   2.771   3.726  14.261  0.2827 -0.2645 -0.1175
17108TIP3    H172739   2.718   3.664  14.311 -0.1835  0.9089  0.8916
17108TIP3    H272740   2.707   3.775  14.209  0.6294 -0.4837 -0.7636
17109TIP3   OH272741   6.184   5.109   1.235  0.1096  0.6248  0.4370
17109TIP3    H172742   6.170   5.015   1.224  1.5488  0.3622  0.6663
17109TIP3    H272743   6.143   5.149   1.158 -1.3840 -0.0897  0.8353
17110TIP3   OH272744   1.751   0.810   4.937 -0.5172  0.5115 -0.3891
17110TIP3    H172745   1.669   0.791   4.983 -0.1262 -0.3841 -0.0420
17110TIP3    H272746   1.738   0.898   4.901 -2.1343 -0.1394 -1.4787
17111TIP3   OH272747   5.687   1.055  13.097 -0.2791  0.4694  0.3217
17111TIP3    H172748   5.662   1.146  13.117  0.8704  0.4512  2.1152
17111TIP3    H272749   5.614   1.021  13.047 -1.8474  1.6976  1.6387
17112TIP3   OH272750   3.255   6.770   0.519  0.1333 -0.3116  1.0290
17112TIP3    H172751   3.226   6.693   0.567 -0.2040 -0.3567  0.7559
17112TIP3    H272752   3.261   6.741   0.428 -0.4044  0.0927  0.8588
17113TIP3   OH272753   5.435   5.629   1.018  0.3303 -0.0613  0.5176
17113TIP3    H172754   5.430   5.626   0.922 -0.7436  0.9335  0.5153
17113TIP3    H272755   5.441   5.537   1.045  1.2856 -0.3289 -0.5172
17114TIP3   OH272756   2.131   1.025   6.302 -0.3890 -0.9388  0.0745
17114TIP3    H172757   2.158   0.937   6.328 -1.7393 -1.6212 -0.6884
17114TIP3    H272758   2.048   1.039   6.347 -0.9158 -0.6563 -0.9438
17115TIP3   OH272759   6.202   3.424  15.050  0.1538 -0.1789  0.0113
17115TIP3    H172760   6.124   3.480  15.047  0.5593  0.3518 -0.9169
17115TIP3    H272761   6.268   3.472  15.001  1.2183 -0.4197  1.1702
17116TIP3   OH272762   5.923   6.643  10.246  0.1332 -0.5850  0.4728
17116TIP3    H172763   5.848   6.670  10.194  0.8879 -1.8400 -1.3877
17116TIP3    H272764   5.891   6.570  10.300  0.0251 -1.1914 -0.4004
17117TIP3   OH272765   0.803   2.893   1.254 -0.7262  0.0879  0.0395
17117TIP3    H172766   0.770   2.904   1.165  1.1322 -1.9269 -0.9754
17117TIP3    H272767   0.890   2.854   1.244 -1.2774 -2.2253  2.7340
17118TIP3   OH272768   6.780   6.118  12.946  0.6439  0.1201  0.0509
17118TIP3    H172769   6.728   6.183  12.899 -0.1786 -0.4908  0.0915
17118TIP3    H272770   6.780   6.042  12.889 -0.4873 -0.6820  1.0764
17119TIP3   OH272771   0.450   5.046  15.469 -0.0851  0.7776  0.8073
17119TIP3    H172772   0.470   4.982  15.537  0.1480  2.0785  2.0169
17119TIP3    H272773   0.532   5.055  15.420 -0.4800 -0.7523 -0.2001
17120TIP3   OH272774   5.211   0.606   2.978  0.6764  0.4719 -0.1153
17120TIP3    H172775   5.178   0.644   2.897  0.4646  0.6732  0.0626
17120TIP3    H272776   5.222   0.680   3.037 -2.0311  0.0772  1.0552
17121TIP3   OH272777   5.214   1.025   2.317 -0.0950 -0.0603 -1.6332
17121TIP3    H172778   5.190   0.949   2.264  0.2922 -0.3461 -1.3953
17121TIP3    H272779   5.272   0.991   2.385 -0.0297  0.4227 -1.4419
17122TIP3   OH272780   3.707   6.011   5.861  0.0473  0.0328 -0.2397
17122TIP3    H172781   3.703   5.933   5.917 -3.9568 -0.9323 -1.5571
17122TIP3    H272782   3.658   6.077   5.909 -0.6304  0.2257 -1.1933
17123TIP3   OH272783   5.234   3.938  15.653  0.1884 -0.3230 -0.4423
17123TIP3    H172784   5.290   3.920  15.578 -0.1353  1.1972 -1.0758
17123TIP3    H272785   5.295   3.959  15.724  0.4779 -1.2895 -0.3872
17124TIP3   OH272786   5.535   5.196  15.176 -0.6175 -0.4812  0.0195
17124TIP3    H172787   5.593   5.152  15.113 -1.1470  0.9726 -1.5680
17124TIP3    H272788   5.531   5.286  15.145 -1.5890  0.0863  1.6885
17125TIP3   OH272789   4.401   6.256   1.213  0.5611  0.4165 -0.2323
17125TIP3    H172790   4.488   6.216   1.213  1.4705  2.2442  1.0455
17125TIP3    H272791   4.369   6.244   1.303  0.2813  1.3006 -0.2001
17126TIP3   OH272792   2.608   2.466   4.058 -0.1059  0.0994 -0.1327
17126TIP3    H172793   2.535   2.405   4.067 -0.1951  0.2689  0.3352
17126TIP3    H272794   2.605   2.519   4.138  2.5810 -2.0980  1.5788
17127TIP3   OH272795   1.514   2.615   0.370  0.0809  0.1210 -0.3670
17127TIP3    H172796   1.562   2.569   0.439 -0.4414 -0.7817 -0.5868
17127TIP3    H272797   1.566   2.694   0.353  2.9308 -1.9239 -2.2922
17128TIP3   OH272798   1.935   6.481  12.573 -0.1267 -0.0780 -0.3564
17128TIP3    H172799   1.935   6.440  12.487  1.3612 -0.1133 -0.3621
17128TIP3    H272800   1.918   6.409  12.634 -1.1522 -0.0561 -0.5940
17129TIP3   OH272801   3.091   4.293  15.351  0.1579 -0.3981  0.1367
17129TIP3    H172802   3.172   4.250  15.375  1.2989  1.7958  0.4414
17129TIP3    H272803   3.114   4.349  15.277 -1.0236  0.4541  0.3772
17130TIP3   OH272804   5.369   5.415  16.735  0.2249 -0.5240 -0.4673
17130TIP3    H172805   5.298   5.355  16.714  0.2257 -0.7539  0.1898
17130TIP3    H272806   5.419   5.422  16.653 -1.7085  1.2618 -1.6190
17131TIP3   OH272807   6.358   1.502  13.825 -0.7016  0.3860  0.3646
17131TIP3    H172808   6.374   1.560  13.750  0.3732  0.0427  0.3154
17131TIP3    H272809   6.401   1.420  13.801 -0.7336  0.1315  1.1725
17132TIP3   OH272810   2.036   2.943  13.677  0.3046 -0.6692  0.1054
17132TIP3    H172811   1.980   3.018  13.697  0.7926 -0.3218  0.1779
17132TIP3    H272812   2.087   2.929  13.757 -1.1295 -2.2904  0.8018
17133TIP3   OH272813   6.390   4.913  13.013 -0.4535 -0.1897  0.0982
17133TIP3    H172814   6.484   4.896  13.006 -0.6961 -1.0922 -1.2691
17133TIP3    H272815   6.377   4.937  13.105  0.4391 -4.5435  1.6249
17134TIP3   OH272816   0.479   2.168   0.699  0.1462  0.4139 -0.7188
17134TIP3    H172817   0.523   2.084   0.704 -0.9924 -0.2202 -1.0176
17134TIP3    H272818   0.432   2.176   0.783  0.7730  1.0613 -0.4182
17135TIP3   OH272819   5.672   5.200  16.421 -0.1744 -0.2801  0.0248
17135TIP3    H172820   5.634   5.148  16.492  0.2520  1.2839  1.4845
17135TIP3    H272821   5.648   5.290  16.443 -0.9469  0.1712 -2.4485
17136TIP3   OH272822   6.758   3.151  17.022  0.2224 -0.0567  0.0500
17136TIP3    H172823   6.701   3.074  17.017 -0.6864  0.6739 -1.7916
17136TIP3    H272824   6.705   3.216  17.069  0.0127  0.2333 -0.5854
17137TIP3   OH272825   5.588   6.157   2.481 -0.0440  0.4127 -0.4391
17137TIP3    H172826   5.674   6.183   2.450 -0.2705  0.9030 -0.6621
17137TIP3    H272827   5.601   6.137   2.574 -0.1457  2.8120  0.1422
17138TIP3   OH272828   1.490   3.887   0.522 -0.0758  0.5300  0.0877
17138TIP3    H172829   1.503   3.884   0.427 -0.8775  0.0675 -0.0176
17138TIP3    H272830   1.406   3.844   0.536 -0.4691  1.5329  0.9170
17139TIP3   OH272831   3.112   1.789  15.896 -0.4550  0.0882  0.2113
17139TIP3    H172832   3.117   1.865  15.838 -2.1921 -0.1743 -0.3201
17139TIP3    H272833   3.185   1.734  15.868  0.5771  1.3444  0.3227
17140TIP3   OH272834   3.399   6.271   0.614  0.0515  0.0160 -0.4209
17140TIP3    H172835   3.379   6.178   0.615  1.3893 -0.3290 -2.1013
17140TIP3    H272836   3.354   6.305   0.536  0.2936  0.5952 -0.3176
17141TIP3   OH272837   6.402   1.765  15.243  0.3317 -0.3754 -0.2836
17141TIP3    H172838   6.468   1.710  15.284  1.0695  0.4842 -0.2816
17141TIP3    H272839   6.320   1.718  15.256  0.8569 -1.1722  0.2448
17142TIP3   OH272840   1.522   4.626  16.002  0.1403 -0.0477  0.0875
17142TIP3    H172841   1.469   4.553  16.036 -0.5339  0.2870 -0.2103
17142TIP3    H272842   1.611   4.606  16.029 -0.1806 -0.4881  0.8521
17143TIP3   OH272843   4.300   6.141   3.576 -0.3721 -0.4869 -0.7373
17143TIP3    H172844   4.381   6.109   3.536  0.6495 -0.3680  1.1284
17143TIP3    H272845   4.312   6.236   3.580 -0.9612 -0.3918 -1.1782
17144TIP3   OH272846   4.903   2.531  15.267 -0.3065 -0.1371  0.7116
17144TIP3    H172847   4.984   2.480  15.269  0.8639  1.6516  0.3207
17144TIP3    H272848   4.881   2.544  15.359 -0.8096 -1.5700  0.8257
17145TIP3   OH272849   4.050   2.294   2.689  0.0887  0.3051  0.2368
17145TIP3    H172850   4.087   2.218   2.734  1.6239  0.7599 -0.1884
17145TIP3    H272851   4.015   2.349   2.759 -1.7648 -1.1179  0.4940
17146TIP3   OH272852   1.091   0.603  12.770  0.4543  0.0007  0.9142
17146TIP3    H172853   1.076   0.624  12.862 -0.5870 -1.4332  1.1142
17146TIP3    H272854   1.186   0.599  12.761  0.6505  2.2540  1.3848
17147TIP3   OH272855   4.357   2.353   4.171  0.2921  0.2763  0.6756
17147TIP3    H172856   4.263   2.354   4.154  0.4916  2.3476 -0.6895
17147TIP3    H272857   4.381   2.445   4.182  2.5939  0.1210 -1.8884
17148TIP3   OH272858   4.649   4.907  10.992  0.2591 -0.6075 -0.0882
17148TIP3    H172859   4.561   4.931  10.965 -0.2115 -2.1585 -0.0278
17148TIP3    H272860   4.681   4.852  10.920 -0.7097 -4.1514  1.9617
17149TIP3   OH272861   1.317   0.901   3.173  0.4747  0.0654  0.2495
17149TIP3    H172862   1.226   0.874   3.184  0.6469 -0.2761  0.8947
17149TIP3    H272863   1.313   0.996   3.166  0.0064  0.0011 -0.4394
17150TIP3   OH272864   1.545   1.758  13.650  0.5917 -0.0890 -0.3775
17150TIP3    H172865   1.541   1.694  13.578 -1.1179 -0.6014  0.1179
17150TIP3    H272866   1.500   1.835  13.615 -2.8645 -1.3141  0.9810
17151TIP3   OH272867   5.466   3.635  11.566  0.6882  0.3609 -0.5415
17151TIP3    H172868   5.520   3.556  11.566 -2.4909 -2.0365 -0.7638
17151TIP3    H272869   5.431   3.641  11.477  0.8465  2.0517 -0.5200
17152TIP3   OH272870   1.402   6.053  10.891  0.1172 -0.4946 -0.3325
17152TIP3    H172871   1.375   6.131  10.842 -2.5755 -0.5257  0.8933
17152TIP3    H272872   1.322   6.001  10.898  1.4021 -2.4771  0.5387
17153TIP3   OH272873   0.180   4.002  13.449 -0.2860  0.3043 -0.3805
17153TIP3    H172874   0.200   4.047  13.367 -1.2202 -0.3395 -0.9857
17153TIP3    H272875   0.198   3.910  13.431  3.0618  0.5029  1.3087
17154TIP3   OH272876   2.654   4.600   0.557 -0.7571  0.0329  0.1897
17154TIP3    H172877   2.675   4.582   0.648  0.2783 -1.7674 -0.3517
17154TIP3    H272878   2.662   4.515   0.513 -0.1911  1.0242 -1.7699
17155TIP3   OH272879   2.210   6.697  14.916 -0.8616  0.0504 -0.1793
17155TIP3    H172880   2.243   6.750  14.843 -0.0066  1.6712  1.3224
17155TIP3    H272881   2.286   6.681  14.971 -1.3106 -1.9321 -0.0561
17156TIP3   OH272882   6.774   0.970   1.985  0.0031 -0.0935 -0.0046
17156TIP3    H172883   6.713   1.025   2.033 -0.2684 -0.7662  0.4476
17156TIP3    H272884   6.861   0.995   2.017 -0.2153 -1.0401  1.4207
17157TIP3   OH272885   2.665   3.950   3.684  0.3790  0.2305 -0.0524
17157TIP3    H172886   2.717   3.870   3.690  0.3101  0.2615  0.9934
17157TIP3    H272887   2.680   3.981   3.594  2.3870  0.3815  0.2823
17158TIP3   OH272888   0.439   6.478   6.604  0.8330  0.1405 -0.1082
17158TIP3    H172889   0.377   6.421   6.649  1.2241 -1.4818 -1.5316
17158TIP3    H272890   0.383   6.540   6.557  0.3891  0.5586  0.9196
17159TIP3   OH272891   3.496   0.290   2.734  0.3269  0.4827  0.1125
17159TIP3    H172892   3.452   0.373   2.716  1.5343  0.5976 -2.8603
17159TIP3    H272893   3.424   0.228   2.748 -0.6180  2.1614  3.9417
17160TIP3   OH272894   1.396   0.948  11.937 -0.1869 -0.4490 -0.2025
17160TIP3    H172895   1.337   1.006  11.889  0.3415  0.7725  0.5836
17160TIP3    H272896   1.476   0.945  11.885 -1.1299 -2.7528 -1.6969
17161TIP3   OH272897   1.590   0.654   0.679 -0.8057  0.6080 -0.0528
17161TIP3    H172898   1.624   0.564   0.682 -0.4604  0.7340 -0.1903
17161TIP3    H272899   1.667   0.708   0.660 -1.3294  0.7569 -1.9361
17162TIP3   OH272900   5.721   0.917   1.753  0.0362 -0.5733 -0.3805
17162TIP3    H172901   5.672   0.848   1.797 -1.1663  0.3686 -0.1963
17162TIP3    H272902   5.806   0.917   1.797 -0.2842 -1.2989  0.2601
17163TIP3   OH272903   1.683   0.693   1.536 -0.3153  0.6655 -0.3568
17163TIP3    H172904   1.663   0.607   1.574  0.4134 -0.7996 -2.9700
17163TIP3    H272905   1.602   0.718   1.492  0.0711  0.2551 -1.3424
17164TIP3   OH272906   1.523   4.383  14.792  0.4994  0.4368  0.0894
17164TIP3    H172907   1.433   4.393  14.823  0.8502 -0.0619  1.3374
17164TIP3    H272908   1.569   4.344  14.866  0.9419 -2.8229 -1.7028
17165TIP3   OH272909   0.750   1.892  13.147  0.7313  0.5731 -0.0853
17165TIP3    H172910   0.784   1.981  13.155  0.0675  0.8498 -0.2869
17165TIP3    H272911   0.741   1.861  13.237 -0.7299  1.3671  0.0597
17166TIP3   OH272912   1.936   0.258  11.782  0.1854 -0.2177  0.2916
17166TIP3    H172913   1.919   0.325  11.716 -2.7820 -1.2276 -0.1162
17166TIP3    H272914   1.969   0.184  11.733 -2.5481 -1.1654 -0.2965
17167TIP3   OH272915   6.290   2.238   0.133 -0.0630  0.1822 -0.4889
17167TIP3    H172916   6.360   2.258   0.195  0.6536  0.2826 -1.3050
17167TIP3    H272917   6.333   2.243   0.047 -1.0178 -0.0062 -0.9842
17168TIP3   OH272918   3.902   2.471  10.712 -0.0284 -0.0573  0.1194
17168TIP3    H172919   3.952   2.401  10.671 -0.2607 -1.1073  1.5445
17168TIP3    H272920   3.812   2.457  10.682  0.3026  1.2445 -1.6622
17169TIP3   OH272921   4.944   4.099  16.776  0.3562  0.7517  0.6580
17169TIP3    H172922   4.909   4.069  16.860  0.7720  0.2621  0.6606
17169TIP3    H272923   5.019   4.042  16.759 -1.9102 -1.8218 -1.8850
17170TIP3   OH272924   0.537   1.102   0.487  0.2262  0.3609  0.0494
17170TIP3    H172925   0.619   1.052   0.485 -1.0119 -1.7419 -1.4967
17170TIP3    H272926   0.474   1.044   0.528 -1.6408 -0.1061 -3.1626
17171TIP3   OH272927   0.489   6.344  12.211  0.3009  0.3364  0.2050
17171TIP3    H172928   0.470   6.429  12.171  0.5991  0.7780  0.9801
17171TIP3    H272929   0.581   6.327  12.189  0.3623  0.4125  0.4011
17172TIP3   OH272930   0.140   3.970  15.402 -0.7934 -0.2360 -0.3368
17172TIP3    H172931   0.152   4.046  15.459 -1.8886  0.4033 -0.9432
17172TIP3    H272932   0.201   3.985  15.329  1.1066 -1.3775  0.9029
17173TIP3   OH272933   1.342   6.166  15.925 -0.0548 -0.2588  0.5667
17173TIP3    H172934   1.256   6.138  15.893 -1.3245  3.9596 -0.4392
17173TIP3    H272935   1.372   6.095  15.982 -3.3003 -2.7464 -0.5329
17174TIP3   OH272936   6.254   4.476   2.236  0.3620  0.6908 -0.6560
17174TIP3    H172937   6.344   4.493   2.263  0.7246  0.7146 -1.7971
17174TIP3    H272938   6.262   4.411   2.165 -0.7292 -1.5320  1.1204
17175TIP3   OH272939   0.053   0.736  11.245 -0.1998 -0.6842 -0.3686
17175TIP3    H172940   0.130   0.793  11.255  0.9532 -2.1440 -0.4917
17175TIP3    H272941  -0.002   0.782  11.182  0.6374  0.3325 -0.4032
17176TIP3   OH272942   3.941   6.296  11.851 -0.4109  0.2690 -0.3088
17176TIP3    H172943   3.996   6.364  11.811  0.3767 -0.6897 -0.9041
17176TIP3    H272944   3.858   6.301  11.803 -1.1127  2.0921  0.9591
17177TIP3   OH272945   6.565   6.358   3.144 -0.4680 -0.1511 -0.0067
17177TIP3    H172946   6.508   6.417   3.193 -0.5065 -0.2197  0.0306
17177TIP3    H272947   6.643   6.348   3.198 -0.1423  0.4547 -0.3511
17178TIP3   OH272948   4.353   6.577  16.878 -0.3979  0.3029 -0.3132
17178TIP3    H172949   4.267   6.607  16.908 -0.0059  0.1619  0.9932
17178TIP3    H272950   4.410   6.587  16.954  0.5669 -0.3461 -0.9317
17179TIP3   OH272951   1.419   3.431   5.586 -0.6222 -0.2017 -0.2426
17179TIP3    H172952   1.348   3.435   5.650  0.1895 -0.5134  0.6908
17179TIP3    H272953   1.376   3.448   5.502 -1.8107 -0.4438  0.2980
17180TIP3   OH272954   1.881   3.418  15.896  0.6604  0.0135 -0.4519
17180TIP3    H172955   1.812   3.470  15.855  1.5526  0.1057 -1.9232
17180TIP3    H272956   1.863   3.328  15.869 -0.7620 -0.4859  1.9231
17181TIP3   OH272957   5.274   6.321  11.715  0.3292 -0.4127 -0.0100
17181TIP3    H172958   5.288   6.227  11.723 -0.9198 -0.8422 -2.0923
17181TIP3    H272959   5.313   6.344  11.630 -2.3262  0.2441 -1.1484
17182TIP3   OH272960   5.198   2.758  15.856 -0.2674  0.1749  0.6824
17182TIP3    H172961   5.163   2.760  15.767  1.0432  1.1215  0.1677
17182TIP3    H272962   5.128   2.717  15.907 -1.3957  0.3841 -0.6155
17183TIP3   OH272963   4.498   3.624   2.147 -0.4020 -0.6293  0.1052
17183TIP3    H172964   4.508   3.718   2.134 -0.7081 -0.3340  1.7871
17183TIP3    H272965   4.406   3.612   2.169 -0.2002 -1.2065  0.6761
17184TIP3   OH272966   2.964   2.670  12.510 -0.5082  0.0210 -0.3753
17184TIP3    H172967   2.977   2.734  12.440 -1.1049 -0.2001 -0.6977
17184TIP3    H272968   2.902   2.608  12.474  0.0111 -0.7097 -0.0386
17185TIP3   OH272969   4.134   5.537  11.793  0.0528 -0.0693 -0.1276
17185TIP3    H172970   4.050   5.490  11.790  0.0744 -0.2133  0.9974
17185TIP3    H272971   4.177   5.503  11.872 -0.8429  3.3739  2.0317
17186TIP3   OH272972   2.206   5.071  13.770  0.0154  0.9364  0.2390
17186TIP3    H172973   2.148   5.051  13.697  1.6588  0.2889 -0.9501
17186TIP3    H272974   2.152   5.056  13.848 -1.2675 -0.1175 -0.8036
17187TIP3   OH272975   0.713   4.663  15.498  0.2498  0.3008  0.0163
17187TIP3    H172976   0.779   4.690  15.433  0.8978  1.3028  1.0394
17187TIP3    H272977   0.686   4.576  15.470  2.2032 -0.2615 -0.3198
17188TIP3   OH272978   3.671   2.464   3.606  0.4938 -0.3115  0.3947
17188TIP3    H172979   3.701   2.516   3.681  0.5074  1.4606 -0.7766
17188TIP3    H272980   3.578   2.448   3.623  1.0553 -2.3194  2.0626
17189TIP3   OH272981   1.598   6.226  15.849 -0.0422  0.7420  0.6816
17189TIP3    H172982   1.619   6.320  15.845  0.3158  0.6267 -1.0972
17189TIP3    H272983   1.517   6.222  15.899 -0.8900  2.1900 -0.4817
17190TIP3   OH272984   4.685   3.839   0.510 -0.3292  0.0084 -0.0695
17190TIP3    H172985   4.743   3.815   0.438 -0.7190 -0.1283 -0.3361
17190TIP3    H272986   4.636   3.760   0.529 -0.6868  0.2256 -0.0853
17191TIP3   OH272987   1.573   3.298   3.036  0.7003 -0.0312  0.3649
17191TIP3    H172988   1.522   3.349   3.099 -1.1094 -1.1993 -0.0616
17191TIP3    H272989   1.639   3.254   3.089  1.7805  2.0463  0.8404
17192TIP3   OH272990   5.527   6.217   6.186  0.1653 -0.2924  0.5459
17192TIP3    H172991   5.589   6.289   6.198 -1.5500  1.1925  1.0042
17192TIP3    H272992   5.496   6.197   6.275  1.0831 -2.0624  0.4962
17193TIP3   OH272993   3.704   1.658   3.418  0.0111  0.3638 -0.5673
17193TIP3    H172994   3.753   1.616   3.488 -0.1860  0.2231 -0.5142
17193TIP3    H272995   3.659   1.586   3.374  1.9038  0.1255 -2.2684
17194TIP3   OH272996   4.512   3.198  15.142 -0.8964  0.0476  0.4904
17194TIP3    H172997   4.480   3.157  15.062 -0.9856 -1.5629  1.3226
17194TIP3    H272998   4.517   3.127  15.206  3.7558  0.1657  0.6407
17195TIP3   OH272999   3.520   0.092   1.285  0.6049  0.0017  0.0823
17195TIP3    H173000   3.466   0.117   1.211 -2.2021 -2.5988  1.0621
17195TIP3    H273001   3.525   0.171   1.339  0.8780  1.3080 -1.7521
17196TIP3   OH273002   5.827   0.592  12.136 -0.2406  0.2653  0.5487
17196TIP3    H173003   5.827   0.676  12.090  0.6492 -0.0073  0.0116
17196TIP3    H273004   5.877   0.608  12.215  0.0132  0.2190  0.3979
17197TIP3   OH273005   1.509   4.370   4.964 -0.3346 -0.2011 -0.1012
17197TIP3    H173006   1.577   4.355   4.898  0.5861 -2.2198  1.1884
17197TIP3    H273007   1.538   4.318   5.040 -3.2010 -0.9726  0.5761
17198TIP3   OH273008   3.862   0.615   6.100 -0.2905 -0.2812 -0.2329
17198TIP3    H173009   3.923   0.559   6.053 -0.1566  1.0610 -1.7343
17198TIP3    H273010   3.883   0.704   6.070 -0.8992  0.5282  1.5957
17199TIP3   OH273011   1.269   0.696   5.219  0.6727  0.1105  0.5510
17199TIP3    H173012   1.177   0.687   5.241  0.7562  1.2000  1.4428
17199TIP3    H273013   1.314   0.700   5.303  1.3734  0.9622  0.1572
17200TIP3   OH273014   6.677   2.667   2.137 -0.5020  0.1717 -0.0625
17200TIP3    H173015   6.759   2.622   2.157 -1.2078 -1.0710  0.1740
17200TIP3    H273016   6.682   2.686   2.044 -0.3739 -0.8256 -0.2656
17201TIP3   OH273017   1.559   6.583  12.145  0.1961  0.2501  0.1799
17201TIP3    H173018   1.504   6.662  12.150 -0.3586 -0.0053 -1.2733
17201TIP3    H273019   1.588   6.580  12.054  0.7774 -0.8589  0.3834
17202TIP3   OH273020   3.605   4.073  12.126  0.2557 -0.4027 -0.7182
17202TIP3    H173021   3.554   3.996  12.150  0.4333 -0.4503 -0.4953
17202TIP3    H273022   3.685   4.038  12.086 -0.0686 -0.3261 -1.4557
17203TIP3   OH273023   2.214   4.011   2.669  0.3202 -0.2033  0.2820
17203TIP3    H173024   2.158   3.934   2.664  0.4347 -0.2469 -0.5449
17203TIP3    H273025   2.217   4.034   2.762 -1.7485  0.3025  0.2584
17204TIP3   OH273026   0.538   1.749  15.971  0.0956  0.6098  0.0443
17204TIP3    H173027   0.608   1.815  15.964  0.3521  0.4910  1.2253
17204TIP3    H273028   0.526   1.737  16.065 -1.4269  0.5189 -0.1340
17205TIP3   OH273029   3.496   3.480  16.939 -0.5972  0.3824  0.9705
17205TIP3    H173030   3.583   3.472  16.900 -1.5842  0.1527 -1.3293
17205TIP3    H273031   3.510   3.465  17.032  1.9629  1.3394  0.8181
17206TIP3   OH273032   2.619   4.781  12.247 -0.1216  0.6094  0.2966
17206TIP3    H173033   2.628   4.873  12.271  1.9932 -0.1324  2.9073
17206TIP3    H273034   2.707   4.745  12.260 -0.5311 -1.5139 -2.1077
17207TIP3   OH273035   2.935   0.332   2.309 -0.0337  0.2688  0.5696
17207TIP3    H173036   3.028   0.355   2.314 -0.0235  0.6906 -0.9026
17207TIP3    H273037   2.932   0.251   2.259 -0.5113  1.1033 -0.8450
17208TIP3   OH273038   1.660   1.556  15.882  0.4918  0.6701  0.3892
17208TIP3    H173039   1.684   1.648  15.877 -0.0468  0.8506  1.1582
17208TIP3    H273040   1.735   1.510  15.842 -0.1203  1.5358 -1.8957
17209TIP3   OH273041   2.667   2.288   6.326  0.4810  0.1787 -0.6222
17209TIP3    H173042   2.727   2.271   6.398  0.1787  0.9229 -0.1929
17209TIP3    H273043   2.674   2.210   6.271 -0.2342 -0.9837  0.8593
17210TIP3   OH273044   6.587   6.310   0.321 -0.7653  0.3686  0.1659
17210TIP3    H173045   6.680   6.327   0.306 -0.3797 -1.5467  0.1568
17210TIP3    H273046   6.578   6.306   0.417 -0.1733 -2.3845  0.1991
17211TIP3   OH273047   0.522   6.412  15.360 -0.1633 -0.3105  0.0393
17211TIP3    H173048   0.527   6.486  15.419 -1.6750  1.0361 -1.4167
17211TIP3    H273049   0.429   6.389  15.357  0.2300 -2.1035  0.2387
17212TIP3   OH273050   1.536   6.562   4.091  1.0045 -0.2640  0.5210
17212TIP3    H173051   1.469   6.529   4.031 -0.3863  1.3091  1.1421
17212TIP3    H273052   1.532   6.502   4.166 -0.8690  0.7073  1.2493
17213TIP3   OH273053   6.369   1.413   1.505 -0.7335  0.0550  0.1051
17213TIP3    H173054   6.345   1.362   1.428 -0.4395 -2.2522  1.4511
17213TIP3    H273055   6.287   1.430   1.550 -0.6795 -0.8610  0.5789
17214TIP3   OH273056   6.168   2.010   5.585  0.1792  0.5831 -0.1283
17214TIP3    H173057   6.117   2.091   5.587 -0.6875  0.0354  0.8652
17214TIP3    H273058   6.128   1.955   5.652  1.1887 -0.4135 -0.3184
17215TIP3   OH273059   1.128   3.098   4.049  0.0316  0.0502 -0.0246
17215TIP3    H173060   1.182   3.168   4.087 -1.6603  1.0055  0.7024
17215TIP3    H273061   1.066   3.144   3.993 -1.7455 -0.7482  1.2183
17216TIP3   OH273062   2.104   4.032   4.452  0.3948  0.1858  0.2550
17216TIP3    H173063   2.183   4.086   4.451  0.1375  0.6022  1.0862
17216TIP3    H273064   2.032   4.095   4.456 -0.0708 -0.1439 -1.8274
17217TIP3   OH273065   4.247   0.178  16.436  0.2927 -0.3998  0.1363
17217TIP3    H173066   4.236   0.156  16.529 -0.1827  1.9333  0.6911
17217TIP3    H273067   4.160   0.165  16.398  0.3355 -0.7423  0.1538
17218TIP3   OH273068   5.374   2.301   1.696 -0.2019  0.1657  0.0971
17218TIP3    H173069   5.384   2.222   1.749 -0.3235  1.6869  2.5381
17218TIP3    H273070   5.285   2.298   1.662 -0.4918 -0.3201  0.9010
17219TIP3   OH273071   4.685   1.707  11.480 -0.2869  0.7082 -0.2222
17219TIP3    H173072   4.739   1.783  11.456 -0.8099  2.0132  2.3033
17219TIP3    H273073   4.748   1.644  11.515  0.1493 -0.0750 -2.3073
17220TIP3   OH273074   1.700   2.537   1.613  0.1040 -0.0368  0.3189
17220TIP3    H173075   1.610   2.523   1.585  0.2045 -0.2738  0.1118
17220TIP3    H273076   1.747   2.558   1.532  0.1775  0.3856  0.4662
17221TIP3   OH273077   4.182   5.952   1.744 -0.2464  0.3693 -0.8259
17221TIP3    H173078   4.101   5.987   1.706  0.2388  2.6592  0.0567
17221TIP3    H273079   4.249   6.015   1.718  1.0383 -0.8209 -0.4901
17222TIP3   OH273080   6.007   4.459  12.487 -0.3575  0.3359 -0.0197
17222TIP3    H173081   5.998   4.373  12.529  0.8311  0.0837 -0.2335
17222TIP3    H273082   5.919   4.496  12.489 -0.6689 -0.3972  1.1286
17223TIP3   OH273083   1.049   6.587  12.379 -0.0860  0.1709 -0.3263
17223TIP3    H173084   1.076   6.496  12.391  2.1208  0.6892 -0.9754
17223TIP3    H273085   1.118   6.626  12.326 -0.8775  2.2839  0.1021
17224TIP3   OH273086   0.854   3.198   5.771  0.5823  0.0690 -0.1336
17224TIP3    H173087   0.824   3.107   5.772  1.7128 -0.3700  2.9010
17224TIP3    H273088   0.778   3.248   5.804  0.3694  0.0709 -0.6237
17225TIP3   OH273089   6.206   3.466   6.203  0.3533 -0.0003 -0.6150
17225TIP3    H173090   6.265   3.540   6.183  1.1211 -0.0140  1.3406
17225TIP3    H273091   6.132   3.507   6.247  0.4819 -0.3115 -0.1005
17226TIP3   OH273092   1.501   0.753   6.204 -0.2133 -0.2459 -1.1325
17226TIP3    H173093   1.562   0.823   6.179 -0.4498  0.3270 -0.1455
17226TIP3    H273094   1.426   0.765   6.145 -0.2960  0.3990 -0.9028
17227TIP3   OH273095   2.944   0.286   5.365 -0.4433 -0.3921 -0.0011
17227TIP3    H173096   3.009   0.303   5.433 -0.3845  0.8050 -0.3188
17227TIP3    H273097   2.936   0.370   5.319 -1.9731 -0.6120 -0.1808
17228TIP3   OH273098   5.324   3.457   1.552 -0.3433  0.7290 -0.1941
17228TIP3    H173099   5.280   3.501   1.624 -0.7612  1.7694 -1.0597
17228TIP3    H273100   5.323   3.364   1.576 -0.0858  1.0998  1.3174
17229TIP3   OH273101   6.246   0.975   2.577  0.2099  0.9471  0.0252
17229TIP3    H173102   6.289   1.036   2.638 -1.2924  0.7387  1.3594
17229TIP3    H273103   6.216   0.903   2.632  0.3478 -0.1302 -1.2608
17230TIP3   OH273104   3.291   6.208   3.207 -0.2714  0.2104  0.0580
17230TIP3    H173105   3.273   6.157   3.287 -1.9453 -1.0053 -1.0314
17230TIP3    H273106   3.215   6.193   3.152  0.2956  2.0290 -1.3005
17231TIP3   OH273107   5.491   1.580  12.769 -0.1398 -0.4082 -0.0887
17231TIP3    H173108   5.462   1.589  12.859  1.7418 -0.2505  0.5483
17231TIP3    H273109   5.587   1.584  12.774  0.0099 -0.4121 -2.0869
17232TIP3   OH273110   4.508   1.708  15.169 -0.6972  1.0040  0.1047
17232TIP3    H173111   4.587   1.751  15.138 -0.0628  1.0621  1.7279
17232TIP3    H273112   4.451   1.779  15.198 -0.5269  0.8676  0.7844
17233TIP3   OH273113   2.748   1.147  15.633  0.8701  0.0874  0.0838
17233TIP3    H173114   2.705   1.230  15.615  0.6774 -0.0253  0.0255
17233TIP3    H273115   2.811   1.167  15.702  2.1965  0.7071 -1.2482
17234TIP3   OH273116   6.434   5.958  14.231  0.5032  0.6243 -0.0330
17234TIP3    H173117   6.483   6.040  14.220  0.3373  0.5681 -1.4081
17234TIP3    H273118   6.462   5.904  14.157 -0.1831 -0.1544  0.2650
17235TIP3   OH273119   1.272   1.029  13.042 -0.2860  0.1545 -0.5515
17235TIP3    H173120   1.191   1.081  13.043 -0.9722 -0.8938 -0.4770
17235TIP3    H273121   1.242   0.938  13.047  0.8406 -0.3252 -1.9764
17236TIP3   OH273122   2.581   3.617  14.061 -0.5356  0.3697 -0.1829
17236TIP3    H173123   2.581   3.713  14.057 -0.0526  0.3789 -0.0323
17236TIP3    H273124   2.490   3.594  14.080 -0.4425  0.8475  0.9031
17237TIP3   OH273125   4.872   3.281  14.438  0.2974  0.5850  0.1626
17237TIP3    H173126   4.958   3.300  14.400  0.5073 -2.0734 -0.8777
17237TIP3    H273127   4.891   3.232  14.517 -0.1440 -2.5613 -1.5214
17238TIP3   OH273128   3.673   3.504   6.225 -0.4414  0.3987  0.4794
17238TIP3    H173129   3.700   3.417   6.254 -2.1031 -0.4881 -0.4817
17238TIP3    H273130   3.577   3.502   6.227 -0.5543  1.6290 -1.1652
17239TIP3   OH273131   3.326   6.779   3.838  0.2448  0.2432  0.2788
17239TIP3    H173132   3.291   6.709   3.893 -0.0943  0.1740 -0.0188
17239TIP3    H273133   3.266   6.783   3.763 -1.5526  2.8151  1.6650
17240TIP3   OH273134   1.032   1.143  16.628  0.5647  0.1447 -0.0143
17240TIP3    H173135   0.942   1.122  16.654  0.2977  0.8499 -0.3400
17240TIP3    H273136   1.037   1.117  16.536 -0.1421  2.4722 -0.7920
17241TIP3   OH273137   6.109   0.596  11.792  0.0275 -0.1037 -0.1599
17241TIP3    H173138   6.113   0.518  11.846  0.7670  0.2192  0.2631
17241TIP3    H273139   6.141   0.568  11.706  1.6587  0.0305  0.3610
17242TIP3   OH273140   4.082   4.082  14.878 -0.5894  0.2100  0.2786
17242TIP3    H173141   4.130   4.000  14.864 -0.8583 -0.0578  0.9213
17242TIP3    H273142   4.051   4.105  14.790 -0.9724 -0.6624  0.1677
17243TIP3   OH273143   2.985   0.967   5.014 -0.0712  0.3109 -0.4455
17243TIP3    H173144   2.905   1.002   4.975 -0.4960  1.3111  1.2124
17243TIP3    H273145   2.965   0.958   5.107  1.9406  1.2599  0.1429
17244TIP3   OH273146   0.628   0.292   1.477  0.2659 -0.4107 -0.3157
17244TIP3    H173147   0.692   0.308   1.547  0.4366 -0.8071 -0.3836
17244TIP3    H273148   0.680   0.289   1.397  0.0617  0.1217 -0.4785
17245TIP3   OH273149   3.948   4.939   1.827  0.0035 -0.1327  0.8888
17245TIP3    H173150   3.929   4.846   1.815 -1.2674  0.2580 -0.4882
17245TIP3    H273151   4.043   4.946   1.821  0.1059 -1.3361  0.9835
17246TIP3   OH273152   2.565   3.886   3.184 -0.0607 -0.4675 -0.1324
17246TIP3    H173153   2.529   3.875   3.272  0.9688  1.2534  0.5636
17246TIP3    H273154   2.518   3.823   3.131 -0.4437 -1.8310  1.7189
17247TIP3   OH273155   2.616   5.823   4.881  0.1909  0.3671 -0.6813
17247TIP3    H173156   2.556   5.859   4.947  1.3117  0.0550  0.5605
17247TIP3    H273157   2.560   5.766   4.827 -0.9100  1.2440 -0.5101
17248TIP3   OH273158   2.743   1.213   5.079 -0.1768  0.7117  0.3404
17248TIP3    H173159   2.722   1.306   5.085 -2.4596  0.3436 -0.6172
17248TIP3    H273160   2.679   1.170   5.136  0.9204 -0.2651  0.8617
17249TIP3   OH273161   5.875   0.186   2.111 -0.2176  0.4718  0.3944
17249TIP3    H173162   5.865   0.263   2.167 -1.1068 -0.1483  1.1168
17249TIP3    H273163   5.801   0.191   2.051  0.3043  0.7227 -0.2354
17250TIP3   OH273164   3.479   5.268   0.781 -0.1665  0.1997 -0.4698
17250TIP3    H173165   3.545   5.317   0.830 -1.9046  1.4263  0.7570
17250TIP3    H273166   3.529   5.221   0.714  1.7220  2.8323 -1.0681
17251TIP3   OH273167   5.848   5.553   2.124  0.4403 -0.2274  0.5908
17251TIP3    H173168   5.768   5.509   2.153  0.4393  0.2459  1.3359
17251TIP3    H273169   5.816   5.622   2.065  0.3558 -0.4709  0.3484
17252TIP3   OH273170   1.074   1.428   1.657  0.8172  0.1657 -0.1957
17252TIP3    H173171   1.153   1.434   1.603  1.9634 -0.4604  1.3380
17252TIP3    H273172   1.089   1.489   1.728  0.1062 -0.2864  0.3508
17253TIP3   OH273173   0.429   4.506   3.702 -0.2733 -0.2756  0.2455
17253TIP3    H173174   0.391   4.531   3.617 -0.7746 -1.5957  0.0497
17253TIP3    H273175   0.466   4.587   3.736 -0.0121  0.2823 -1.2643
17254TIP3   OH273176   2.148   2.182   0.328 -0.2129 -0.5950 -0.3301
17254TIP3    H173177   2.218   2.208   0.269  0.0557 -0.7042 -0.0587
17254TIP3    H273178   2.086   2.255   0.327  0.0189 -0.4012 -0.3873
17255TIP3   OH273179   2.002   4.796   2.146  0.0833 -0.1545  0.0333
17255TIP3    H173180   2.057   4.874   2.151  0.1002  0.0526 -2.2851
17255TIP3    H273181   1.947   4.811   2.069 -0.2968 -2.1748 -0.1365
17256TIP3   OH273182   0.680   6.567   5.428 -0.1228  0.5024  0.4036
17256TIP3    H173183   0.609   6.503   5.434 -1.1486  1.5608  0.0292
17256TIP3    H273184   0.731   6.539   5.352 -0.8094  0.3538 -0.0147
17257TIP3   OH273185   4.375   5.011   0.508  0.2288  0.1577 -0.1780
17257TIP3    H173186   4.444   4.955   0.471  0.8508  1.1845 -0.6141
17257TIP3    H273187   4.297   4.990   0.457 -0.0929 -1.8166  1.0322
17258TIP3   OH273188   5.451   1.689   0.309  0.6053  0.1889 -0.2448
17258TIP3    H173189   5.539   1.719   0.331  0.9353 -0.7492 -0.2195
17258TIP3    H273190   5.405   1.684   0.392  0.6479  0.3207 -0.2135
17259TIP3   OH273191   4.442   0.278   1.769  0.5098 -0.2900 -0.2987
17259TIP3    H173192   4.384   0.206   1.743  0.9146 -0.4591 -0.7453
17259TIP3    H273193   4.503   0.238   1.830 -0.4655  0.1163  0.9810
17260TIP3   OH273194   4.387   5.447  13.748  0.6198 -0.3442  0.3356
17260TIP3    H173195   4.462   5.455  13.689 -0.0144  2.4151 -0.2348
17260TIP3    H273196   4.311   5.450  13.691  0.0241  0.8645  1.1523
17261TIP3   OH273197   2.482   3.044   3.189  0.4613  0.5590 -0.0539
17261TIP3    H173198   2.511   3.105   3.256 -2.0318  0.4085  1.2666
17261TIP3    H273199   2.560   2.992   3.168  1.1013 -0.1818  3.5794
17262TIP3   OH273200   4.296   3.534  15.589 -0.1823 -0.4373 -0.1439
17262TIP3    H173201   4.271   3.510  15.678  1.2924  0.0020  0.4140
17262TIP3    H273202   4.213   3.533  15.540 -1.2542  0.7002  1.5337
17263TIP3   OH273203   1.899   3.217   0.962 -0.6869 -0.4010 -0.4000
17263TIP3    H173204   1.822   3.173   0.996 -0.0823 -0.1200  1.4456
17263TIP3    H273205   1.880   3.311   0.971  0.0953 -0.3316  0.6656
17264TIP3   OH273206   1.695   3.105  16.014 -0.5088 -0.2085 -0.0222
17264TIP3    H173207   1.617   3.158  16.028 -0.7706 -1.0160  2.0810
17264TIP3    H273208   1.671   3.043  15.945 -2.0591 -0.9538  1.1265
17265TIP3   OH273209   3.643   2.178  12.321  0.0463  0.2456  0.5706
17265TIP3    H173210   3.722   2.232  12.327 -0.5480  1.6989 -2.6092
17265TIP3    H273211   3.571   2.240  12.321 -0.6962 -0.4444 -2.3077
17266TIP3   OH273212   5.608   5.879  10.363 -0.2603  0.0144 -0.0174
17266TIP3    H173213   5.519   5.859  10.334 -0.2708 -0.1519  0.1266
17266TIP3    H273214   5.623   5.819  10.437  0.1480 -0.3130 -0.3567
17267TIP3   OH273215   2.668   1.893   5.301 -0.1468 -0.1694 -0.5759
17267TIP3    H173216   2.702   1.964   5.247 -0.7478  0.2499 -0.4105
17267TIP3    H273217   2.616   1.937   5.369  0.3704 -0.7057  0.1742
17268TIP3   OH273218   2.178   4.149  13.093 -0.4354 -0.2704 -0.3563
17268TIP3    H173219   2.198   4.242  13.103  1.8340 -0.7060 -0.3544
17268TIP3    H273220   2.082   4.145  13.096 -0.5789  1.9934  0.1372
17269TIP3   OH273221   5.419   0.494   2.622  0.0367  0.5002 -0.2959
17269TIP3    H173222   5.381   0.439   2.690 -1.0242  0.1006 -1.1741
17269TIP3    H273223   5.366   0.574   2.625  0.5830  0.8535 -0.0432
17270TIP3   OH273224   6.307   5.373  16.960  0.0366  0.1791 -0.0080
17270TIP3    H173225   6.250   5.430  16.909  0.4385  0.4995 -0.1081
17270TIP3    H273226   6.267   5.287  16.954 -0.0613  0.2622 -0.6563
17271TIP3   OH273227   2.695   1.932   0.879  1.2121 -0.3538 -0.2145
17271TIP3    H173228   2.628   1.967   0.819 -1.0160 -0.1496  2.2113
17271TIP3    H273229   2.748   2.008   0.902 -1.9150  1.1854  2.8789
17272TIP3   OH273230   2.379   5.267   0.810 -0.4616  0.0204 -0.0234
17272TIP3    H173231   2.309   5.286   0.872 -1.2724 -0.1221 -0.8776
17272TIP3    H273232   2.400   5.175   0.823 -0.5734  0.0112  0.0859
17273TIP3   OH273233   6.272   6.486   1.127  0.0104  0.7906 -0.2326
17273TIP3    H173234   6.222   6.417   1.085  0.3608  1.1865 -1.3337
17273TIP3    H273235   6.289   6.453   1.215  1.3592 -1.1476 -1.1470
17274TIP3   OH273236   3.140   0.758   0.364  0.4946 -0.1761 -0.2542
17274TIP3    H173237   3.055   0.726   0.395  1.2116 -1.6212  0.3370
17274TIP3    H273238   3.131   0.761   0.269  0.0192 -1.0752 -0.2450
17275TIP3   OH273239   5.340   3.024   2.531 -0.1554 -0.6920 -0.4826
17275TIP3    H173240   5.302   2.998   2.615  0.5257 -2.8357 -0.7665
17275TIP3    H273241   5.287   2.978   2.465  2.1430 -2.9670 -0.9253
17276TIP3   OH273242   5.703   2.014   5.121 -0.0244  0.7310 -0.3977
17276TIP3    H173243   5.769   2.022   5.053  0.7593  1.4406  0.4144
17276TIP3    H273244   5.678   1.921   5.120  3.4392 -0.4416  1.4407
17277TIP3   OH273245   5.371   4.370  10.995 -0.2509  0.3071 -0.3162
17277TIP3    H173246   5.343   4.445  11.048 -1.3548  0.1103 -0.5922
17277TIP3    H273247   5.392   4.408  10.909 -0.3160  0.3684 -0.3052
17278TIP3   OH273248   0.234   4.556   1.561  0.3707  0.5874  0.1116
17278TIP3    H173249   0.189   4.608   1.628 -0.6359  0.3365 -0.3479
17278TIP3    H273250   0.169   4.545   1.491  1.3513  0.7140 -0.8412
17279TIP3   OH273251   6.688   3.910   1.704  0.2229 -0.0003 -0.3378
17279TIP3    H173252   6.661   3.824   1.673  0.7203 -0.8928  1.5506
17279TIP3    H273253   6.708   3.959   1.625 -2.9629 -0.5792 -1.6653
17280TIP3   OH273254   4.306   5.054  12.863 -0.0495 -0.5918 -0.2560
17280TIP3    H173255   4.300   5.081  12.771  0.1686  1.0601  0.1757
17280TIP3    H273256   4.231   5.096  12.906 -0.0118 -1.1445  0.3749
17281TIP3   OH273257   1.031   5.487   2.784  0.0218  0.0348  0.2695
17281TIP3    H173258   1.050   5.426   2.855 -1.8106  1.2133  1.8572
17281TIP3    H273259   0.960   5.446   2.735  0.5307 -0.2672 -0.2224
17282TIP3   OH273260   2.482   4.227   3.838 -0.1052  0.3202 -0.2754
17282TIP3    H173261   2.459   4.190   3.753  1.0230  0.9194 -0.8663
17282TIP3    H273262   2.407   4.208   3.894 -0.5226 -0.7933 -1.1846
17283TIP3   OH273263   4.486   5.834  14.912 -0.7047 -0.6237 -0.4194
17283TIP3    H173264   4.415   5.898  14.903 -0.5262 -0.6958 -3.0957
17283TIP3    H273265   4.566   5.884  14.891 -0.2135 -1.0659  0.3519
17284TIP3   OH273266   5.670   1.427   0.018  0.2356  0.4322  0.6477
17284TIP3    H173267   5.715   1.479  -0.049  1.6089 -0.3563  0.9225
17284TIP3    H273268   5.580   1.421  -0.013  0.2654  2.1543  0.1276
17285TIP3   OH273269   5.789   1.448   5.880 -0.1122 -0.3779 -0.3806
17285TIP3    H173270   5.732   1.523   5.861 -0.0495 -0.8384 -2.7425
17285TIP3    H273271   5.877   1.484   5.873 -0.0948 -0.4599 -0.6123
17286TIP3   OH273272   0.581   6.419   4.526 -0.1897  0.2020  0.5862
17286TIP3    H173273   0.665   6.424   4.573  0.1872 -0.4174 -0.0126
17286TIP3    H273274   0.595   6.472   4.447 -0.3590  0.0744  0.4729
17287TIP3   OH273275   6.633   1.125  14.566  0.0420  0.4508 -0.5671
17287TIP3    H173276   6.542   1.104  14.586 -0.5213  3.7567  1.0932
17287TIP3    H273277   6.683   1.088  14.639 -0.5126  1.8681  0.5820
17288TIP3   OH273278   1.866   6.599   3.885  0.2108  0.1493  0.3509
17288TIP3    H173279   1.935   6.546   3.844 -0.0636 -0.6693  0.9173
17288TIP3    H273280   1.787   6.580   3.834  0.0788 -0.1149  0.6479
17289TIP3   OH273281   0.301   4.604   3.470  0.2417  0.8033  0.0760
17289TIP3    H173282   0.307   4.522   3.421 -1.5674 -0.4415  1.7849
17289TIP3    H273283   0.334   4.671   3.410 -1.9100 -0.5807 -2.8708
17290TIP3   OH273284   6.403   5.100  12.532  0.4098  0.7672  0.2860
17290TIP3    H173285   6.415   5.083  12.626  0.0368 -1.2598  0.0131
17290TIP3    H273286   6.353   5.024  12.501  1.6098  0.7708 -1.7934
17291TIP3   OH273287   6.274   0.864  14.851  0.0690  0.4715  0.0364
17291TIP3    H173288   6.196   0.865  14.796 -0.3648  2.1274  0.6162
17291TIP3    H273289   6.250   0.813  14.928  0.5144 -1.4211 -1.0106
17292TIP3   OH273290   4.630   4.737  15.965  0.2368 -0.3875  0.0637
17292TIP3    H173291   4.638   4.641  15.973  0.2396 -0.4263 -0.3859
17292TIP3    H273292   4.586   4.750  15.881 -0.0623 -0.0021  0.2780
17293TIP3   OH273293   2.402   3.032  11.723  0.7902 -0.2654 -0.8354
17293TIP3    H173294   2.401   3.015  11.817  1.7228  0.4366 -0.6862
17293TIP3    H273295   2.450   2.959  11.686  0.2355 -0.6553 -0.7981
17294TIP3   OH273296   2.459   4.714   5.153 -0.1127 -0.1971 -0.6020
17294TIP3    H173297   2.459   4.618   5.147 -1.9171 -0.3663  0.9397
17294TIP3    H273298   2.522   4.742   5.087  0.1447 -2.4248 -1.4117
17295TIP3   OH273299   3.264   6.499   3.834 -0.6599 -0.3901 -0.0747
17295TIP3    H173300   3.182   6.452   3.816 -1.1780  0.9770 -1.6544
17295TIP3    H273301   3.292   6.531   3.748  1.4041 -0.5835  0.4855
17296TIP3   OH273302   2.608   5.051   4.572 -0.5259  0.5966 -0.0104
17296TIP3    H173303   2.551   5.030   4.646 -0.4251  0.6196  0.0742
17296TIP3    H273304   2.696   5.038   4.605 -0.4968 -1.8535 -0.8210
17297TIP3   OH273305   3.269   5.851   3.832 -0.0549 -0.1703  0.5279
17297TIP3    H173306   3.323   5.773   3.820 -1.3235 -0.6839 -3.2542
17297TIP3    H273307   3.331   5.923   3.831  0.8669 -0.9292 -0.5949
17298TIP3   OH273308   5.917   6.333  15.594  0.2914 -0.2836 -0.4421
17298TIP3    H173309   6.006   6.366  15.589  0.8788 -1.7717 -0.3407
17298TIP3    H273310   5.903   6.289  15.510  0.1164 -1.1513  0.0285
17299TIP3   OH273311   4.510   2.855  15.036  0.7919 -0.6322  0.5102
17299TIP3    H173312   4.487   2.767  15.064  0.9164 -0.8430 -0.0325
17299TIP3    H273313   4.578   2.842  14.969 -0.4560 -0.2292 -0.8773
17300TIP3   OH273314   2.752   2.915  12.876  0.2022  0.1048 -0.2824
17300TIP3    H173315   2.771   2.833  12.831 -1.7739 -1.0131  0.7894
17300TIP3    H273316   2.703   2.967  12.812  0.8075  0.1687 -0.7062
17301TIP3   OH273317   2.244   3.966   1.902  0.5738  0.1802  0.2703
17301TIP3    H173318   2.170   3.905   1.903  1.3267 -0.7688  1.4297
17301TIP3    H273319   2.253   3.992   1.810  0.0251 -1.2316 -0.2065
17302TIP3   OH273320   1.028   3.154   6.149  0.5430 -0.0545  0.0429
17302TIP3    H173321   0.989   3.068   6.166 -0.5711  0.0044 -1.9163
17302TIP3    H273322   0.954   3.214   6.154  0.7779  0.3843 -1.4112
17303TIP3   OH273323   0.712   2.996  15.332 -0.7212  0.2947  0.2261
17303TIP3    H173324   0.703   3.086  15.301  1.8034  0.5242  0.0047
17303TIP3    H273325   0.777   2.956  15.274 -1.3663 -1.5230  0.6766
17304TIP3   OH273326   1.173   6.779   5.984 -0.5799  0.1312  0.2410
17304TIP3    H173327   1.144   6.815   6.067  0.6303  1.3134  0.1846
17304TIP3    H273328   1.253   6.731   6.005 -1.0876 -0.8609 -0.0177
17305TIP3   OH273329   3.169   0.199   4.205 -0.1819 -0.1461 -0.2866
17305TIP3    H173330   3.190   0.113   4.242 -0.6676 -0.5896 -1.0043
17305TIP3    H273331   3.148   0.180   4.113  1.6210  0.9908 -0.9827
17306TIP3   OH273332   6.140   2.977  14.390 -0.2177 -0.0605 -0.2857
17306TIP3    H173333   6.120   3.070  14.380  0.2121  0.1227  0.4540
17306TIP3    H273334   6.061   2.933  14.358 -0.6710  0.5747 -0.0870
17307TIP3   OH273335   5.274   3.556   4.360  0.2711  0.1798 -0.4142
17307TIP3    H173336   5.327   3.548   4.440  1.4045 -0.2853 -1.1860
17307TIP3    H273337   5.329   3.520   4.291 -0.8726  0.1466 -1.3450
17308TIP3   OH273338   6.399   6.685  12.083 -0.0755 -0.0662  0.3732
17308TIP3    H173339   6.313   6.653  12.058 -0.6241  0.4913  1.4495
17308TIP3    H273340   6.458   6.612  12.068 -0.2644  0.3269 -2.7854
17309TIP3   OH273341   4.383   1.651  15.756 -0.3584 -0.4576  0.6867
17309TIP3    H173342   4.424   1.570  15.725  0.9938 -0.5538  2.5325
17309TIP3    H273343   4.299   1.653  15.712  1.0734 -0.8941 -2.3467
17310TIP3   OH273344   3.484   4.008  16.514  0.3667  0.4265 -0.3595
17310TIP3    H173345   3.507   4.026  16.423 -0.7885 -1.4688 -1.0689
17310TIP3    H273346   3.537   3.933  16.539 -0.9185 -0.4564 -0.2047
17311TIP3   OH273347   2.695   5.996  15.631  0.4364 -0.1309  0.0769
17311TIP3    H173348   2.727   5.959  15.549 -1.9455 -0.3318 -0.8438
17311TIP3    H273349   2.675   5.920  15.686  0.7808 -0.0391  0.3300
17312TIP3   OH273350   0.943   0.949  14.865  0.1831 -1.0083 -0.0774
17312TIP3    H173351   0.886   1.017  14.900 -0.5574 -1.4703 -0.3529
17312TIP3    H273352   0.979   0.986  14.784 -0.5260 -1.0845 -0.4331
17313TIP3   OH273353   4.976   1.324  15.566 -0.1915 -0.6061 -0.1711
17313TIP3    H173354   4.901   1.267  15.550  0.2404 -1.0373 -0.7103
17313TIP3    H273355   5.010   1.345  15.479  1.6808 -2.2770  0.0839
17314TIP3   OH273356   0.428   3.036   3.560 -0.4565  0.3434  0.2920
17314TIP3    H173357   0.496   3.086   3.605  0.2528 -0.7178  0.4417
17314TIP3    H273358   0.414   2.959   3.616 -1.1875  0.1347 -0.1638
17315TIP3   OH273359   3.997   0.950  16.924 -0.6874 -0.1868  0.7188
17315TIP3    H173360   3.986   1.018  16.858 -0.1108 -0.7368  0.0513
17315TIP3    H273361   4.043   0.993  16.996  0.3353 -0.0500 -0.0040
17316TIP3   OH273362   3.571   1.121   3.528  0.0232  0.1631 -0.3563
17316TIP3    H173363   3.544   1.109   3.437 -3.9375 -0.6669  0.7360
17316TIP3    H273364   3.615   1.039   3.550 -0.3002 -0.2387 -1.1446
17317TIP3   OH273365   0.081   1.852  15.296  0.1286  0.4114  0.5106
17317TIP3    H173366   0.162   1.887  15.332 -0.0970  2.4018 -0.7796
17317TIP3    H273367   0.012   1.907  15.334 -0.4762 -0.1890  0.3017
17318TIP3   OH273368   2.538   0.279  15.088 -0.3915  0.0279 -0.0359
17318TIP3    H173369   2.476   0.344  15.056  0.0903  0.6155  0.2065
17318TIP3    H273370   2.565   0.231  15.010  0.5851  1.2835 -0.5162
17319TIP3   OH273371   5.650   2.245  14.785 -0.4504 -0.0907  0.1508
17319TIP3    H173372   5.559   2.261  14.762 -0.3742  0.1175  0.0023
17319TIP3    H273373   5.688   2.206  14.707 -0.5153 -0.5651  0.3498
17320TIP3   OH273374   3.141   4.699   3.680 -0.1686  0.5089 -0.1273
17320TIP3    H173375   3.056   4.717   3.718 -0.3443  0.3795 -0.4518
17320TIP3    H273376   3.204   4.724   3.747 -0.5026 -3.1239  1.7978
17321TIP3   OH273377   1.599   1.900   0.909 -0.2630  0.2130 -0.1085
17321TIP3    H173378   1.606   1.808   0.934 -0.3119 -0.0846 -1.1619
17321TIP3    H273379   1.512   1.927   0.940 -0.5603 -0.3065 -0.4874
17322TIP3   OH273380   5.216   4.662  11.789 -0.0716 -0.0458  0.0552
17322TIP3    H173381   5.152   4.610  11.740  0.5023 -1.4731  0.7636
17322TIP3    H273382   5.184   4.661  11.879  1.7840 -2.2815  0.7760
17323TIP3   OH273383   3.631   5.525   2.545  0.1441 -0.3088 -0.3829
17323TIP3    H173384   3.607   5.478   2.465 -0.8802  2.3957 -1.8007
17323TIP3    H273385   3.697   5.470   2.587 -0.2695 -2.4731 -2.3660
17324TIP3   OH273386   1.911   3.087  13.071  0.0469  0.0140 -0.1622
17324TIP3    H173387   1.842   3.139  13.029 -0.3134 -0.1114  0.2648
17324TIP3    H273388   1.882   3.078  13.162  0.3101 -0.5924 -0.1350
17325TIP3   OH273389   4.061   0.498   3.479 -1.3830 -0.0760 -0.1808
17325TIP3    H173390   4.028   0.408   3.490 -1.2794  0.0454  1.3212
17325TIP3    H273391   4.140   0.501   3.532 -0.9354  0.6770 -0.8835
17326TIP3   OH273392   4.394   3.927   0.662  0.1577 -0.3326 -0.3124
17326TIP3    H173393   4.415   3.860   0.728  0.4590  0.7609  0.7226
17326TIP3    H273394   4.469   3.986   0.663 -0.9791  1.1622  0.2609
17327TIP3   OH273395   0.313   0.653   3.497  0.6998  0.1783 -0.3077
17327TIP3    H173396   0.382   0.597   3.462  1.2613  0.6340  0.0573
17327TIP3    H273397   0.252   0.665   3.423  1.5963  0.6982 -0.9936
17328TIP3   OH273398   2.452   2.452   3.809  0.2260  0.2188 -0.6643
17328TIP3    H173399   2.442   2.537   3.764 -0.8519  0.1518 -0.5766
17328TIP3    H273400   2.486   2.475   3.895 -0.6903  0.6268 -0.4050
17329TIP3   OH273401   0.576   1.594   3.971  0.6577  0.5374  0.3305
17329TIP3    H173402   0.554   1.546   4.051 -1.3573  0.3025 -0.3251
17329TIP3    H273403   0.548   1.536   3.900  2.1438  0.8685 -0.5737
17330TIP3   OH273404   3.066   6.163  14.207  0.5225 -0.1949  0.7786
17330TIP3    H173405   3.054   6.257  14.224  0.2730 -0.2669  1.0066
17330TIP3    H273406   3.083   6.126  14.293  0.0869 -0.4408  0.7580
17331TIP3   OH273407   4.045   3.690   0.354 -0.0692  0.2199  0.6492
17331TIP3    H173408   3.969   3.634   0.341  0.1867 -0.0436  0.2726
17331TIP3    H273409   4.120   3.633   0.337  0.1836  0.8492 -0.4515
17332TIP3   OH273410   2.039   5.273   0.841 -0.2117 -0.6578  0.3596
17332TIP3    H173411   2.059   5.271   0.747 -1.5713  0.3884  0.0258
17332TIP3    H273412   2.093   5.344   0.875  0.4940 -1.2175  0.4520
17333TIP3   OH273413   4.467   5.238  16.359  0.1935 -0.5680  0.3311
17333TIP3    H173414   4.538   5.178  16.383  0.5076 -1.0475 -1.6773
17333TIP3    H273415   4.391   5.205  16.406  0.8381 -1.2626  0.9167
17334TIP3   OH273416   5.506   5.601  12.099 -0.3256 -0.0296 -0.2366
17334TIP3    H173417   5.447   5.607  12.174  1.4001  0.3947  1.1715
17334TIP3    H273418   5.537   5.690  12.085  0.6846 -0.3801 -0.3308
17335TIP3   OH273419   5.018   4.811  12.018  0.0831  0.4199  0.3334
17335TIP3    H173420   5.097   4.764  12.041 -0.0251  1.3089  2.7797
17335TIP3    H273421   5.047   4.902  12.005  0.0084  0.1234 -2.5564
17336TIP3   OH273422   1.759   5.863  15.523  0.0040 -0.1322 -0.1622
17336TIP3    H173423   1.768   5.935  15.460 -0.0827 -0.1436 -0.1871
17336TIP3    H273424   1.713   5.902  15.597  1.8867  0.4285  0.7759
17337TIP3   OH273425   2.303   2.807  16.268  0.1312 -0.2342 -0.0768
17337TIP3    H173426   2.306   2.893  16.311  1.6334  0.5872 -1.6488
17337TIP3    H273427   2.395   2.781  16.262 -0.2354 -1.4807 -0.5304
17338TIP3   OH273428   5.567   5.031   0.694 -0.0837  0.8052  0.4594
17338TIP3    H173429   5.535   5.073   0.614  1.1309  0.6147 -0.1481
17338TIP3    H273430   5.600   4.946   0.665 -0.9361  0.1261  1.4088
17339TIP3   OH273431   1.016   6.234   5.253  0.5958  0.2950  0.0542
17339TIP3    H173432   1.058   6.275   5.329 -0.5523  0.7295  0.4660
17339TIP3    H273433   1.061   6.272   5.178  3.3852 -1.8362  0.4564
17340TIP3   OH273434   3.871   0.315  16.244  0.1568  0.6753 -0.2113
17340TIP3    H173435   3.958   0.340  16.212 -0.2493 -1.2145 -3.2468
17340TIP3    H273436   3.811   0.367  16.190 -0.6038 -0.0357 -0.0641
17341TIP3   OH273437   2.955   4.134   4.540 -0.0143 -0.6159 -0.7879
17341TIP3    H173438   2.882   4.183   4.576  0.9755 -0.0839  0.5759
17341TIP3    H273439   2.924   4.105   4.454 -1.8651 -0.5560 -0.1908
17342TIP3   OH273440   0.750   1.712   2.994 -0.2089 -0.1409  0.4866
17342TIP3    H173441   0.701   1.794   2.998 -0.3444 -0.1466 -0.6220
17342TIP3    H273442   0.819   1.729   2.929 -0.9248 -1.2315 -0.6028
17343TIP3   OH273443   4.883   3.342  12.055  0.6036 -0.4312 -0.3016
17343TIP3    H173444   4.963   3.390  12.034  1.0158 -1.1661 -0.4356
17343TIP3    H273445   4.913   3.259  12.092 -0.0957 -0.6889 -0.2837
17344TIP3   OH273446   4.135   0.134   5.691 -0.2475  0.0777 -0.2068
17344TIP3    H173447   4.102   0.079   5.762 -0.2150 -0.1976 -0.4035
17344TIP3    H273448   4.078   0.212   5.692  1.5708  1.5104  2.0603
17345TIP3   OH273449   2.585   6.000  13.252 -0.3883 -0.3927 -0.0950
17345TIP3    H173450   2.525   6.009  13.326  0.5556  0.8714  0.5568
17345TIP3    H273451   2.528   5.987  13.176 -1.4522  0.2524  0.5718
17346TIP3   OH273452   1.141   3.619   1.894  0.5932 -0.0184  0.6076
17346TIP3    H173453   1.070   3.683   1.890  1.1148  0.6512  1.5047
17346TIP3    H273454   1.177   3.618   1.805  0.4086  0.7609  0.5108
17347TIP3   OH273455   5.540   4.187   6.353 -0.2550  0.1780  0.1210
17347TIP3    H173456   5.490   4.245   6.296  3.3024  1.4427 -1.9882
17347TIP3    H273457   5.583   4.126   6.294  2.1819  0.3824  1.5638
17348TIP3   OH273458   1.345   0.477  13.518 -0.4832 -0.4400  0.6490
17348TIP3    H173459   1.319   0.393  13.556  1.3802 -0.6089  1.6500
17348TIP3    H273460   1.344   0.538  13.591 -1.2737  0.3099  0.0370
17349TIP3   OH273461   0.513   5.006   1.944 -0.1800  0.2834  0.2205
17349TIP3    H173462   0.504   4.961   2.028  0.4005 -0.2917 -0.0190
17349TIP3    H273463   0.471   5.091   1.958  0.9259  0.6534  1.4436
17350TIP3   OH273464   3.634   3.693  14.117  0.0946 -0.0758  0.1161
17350TIP3    H173465   3.593   3.634  14.180  2.9359 -0.1927  2.0096
17350TIP3    H273466   3.569   3.701  14.047 -2.3655 -1.5814  2.0443
17351TIP3   OH273467   0.429   0.143  15.250  0.0205 -0.1623  0.5201
17351TIP3    H173468   0.448   0.174  15.162 -0.9142  0.9697  0.6887
17351TIP3    H273469   0.442   0.048  15.246 -0.7667 -0.2224 -1.0433
17352TIP3   OH273470   4.779   2.619  14.066  0.1420 -0.6479  0.4909
17352TIP3    H173471   4.754   2.595  13.977 -0.1725 -0.3220  0.4883
17352TIP3    H273472   4.869   2.650  14.058 -0.5590  1.4034 -0.0897
17353TIP3   OH273473   5.559   5.658   3.524 -0.1071  0.2127 -0.5821
17353TIP3    H173474   5.472   5.635   3.555  0.9280  1.1107  3.6092
17353TIP3    H273475   5.603   5.574   3.510 -1.1008 -0.2435 -1.0392
17354TIP3   OH273476   5.182   5.165  15.600 -0.1657  0.0780 -0.1626
17354TIP3    H173477   5.186   5.219  15.679  0.6339 -0.0554 -0.1034
17354TIP3    H273478   5.114   5.100  15.619 -0.3805  0.4000  0.1898
17355TIP3   OH273479   5.324   4.613   3.584  0.3295  0.3512  0.2015
17355TIP3    H173480   5.378   4.674   3.635 -0.3671  0.8229  0.3860
17355TIP3    H273481   5.386   4.569   3.526  0.9942  0.4991  0.7829
17356TIP3   OH273482   0.451   5.483  16.782 -0.2550  0.4308 -0.2045
17356TIP3    H173483   0.492   5.552  16.835  0.2083  1.1515 -1.4595
17356TIP3    H273484   0.359   5.486  16.807  0.2063 -0.3696  1.7425
17357TIP3   OH273485   0.141   0.659   5.338 -0.1932  0.4039 -0.4991
17357TIP3    H173486   0.218   0.716   5.348  0.3282 -0.5069  0.9804
17357TIP3    H273487   0.074   0.700   5.393 -0.2429  0.3124 -0.4915
17358TIP3   OH273488   4.024   0.387   2.106 -0.1908 -0.8591 -0.4061
17358TIP3    H173489   4.102   0.334   2.122  0.5674 -0.5721 -2.7139
17358TIP3    H273490   3.979   0.391   2.190  2.0112 -1.4672  0.8578
17359TIP3   OH273491   2.703   4.870  10.876  0.1467  0.3114  0.2123
17359TIP3    H173492   2.797   4.891  10.878  0.0233  0.8309  0.8513
17359TIP3    H273493   2.699   4.777  10.898  0.6471 -0.2309 -1.8159
17360TIP3   OH273494   4.124   0.179  14.750 -0.2286 -0.2986 -0.5691
17360TIP3    H173495   4.170   0.231  14.816 -3.6708  0.5552  1.3793
17360TIP3    H273496   4.169   0.199  14.668  2.1683  1.1897  0.9878
17361TIP3   OH273497   4.686   5.008  11.786 -0.2209 -0.0417  0.2707
17361TIP3    H173498   4.624   5.023  11.858  0.6391 -0.5730  1.1340
17361TIP3    H273499   4.770   5.039  11.820 -0.1844  1.8034 -1.3215
17362TIP3   OH273500   1.686   6.800  11.467 -0.2653  0.1545  0.2090
17362TIP3    H173501   1.666   6.893  11.483  1.2492  0.8759 -1.7159
17362TIP3    H273502   1.746   6.776  11.538  0.3160  1.0362  0.0339
17363TIP3   OH273503   0.808   6.385   1.842  0.1036 -0.6307  0.3003
17363TIP3    H173504   0.828   6.292   1.827 -0.5376 -0.3041 -3.9631
17363TIP3    H273505   0.884   6.431   1.807 -1.2178  0.4000 -1.3940
17364TIP3   OH273506   5.747   6.328  16.897  0.1028 -0.1081  0.8634
17364TIP3    H173507   5.717   6.376  16.975 -0.7695  1.5023 -0.3866
17364TIP3    H273508   5.837   6.360  16.883  0.1947 -0.2604  1.0919
17365TIP3   OH273509   3.810   6.387  12.300  0.0460  0.3851 -0.5218
17365TIP3    H173510   3.890   6.352  12.263 -1.1621 -2.8262 -0.4093
17365TIP3    H273511   3.743   6.371  12.233 -1.5725 -2.7210  1.5689
17366TIP3   OH273512   0.455   4.208  13.371 -0.5224  0.8015 -0.2761
17366TIP3    H173513   0.509   4.245  13.441 -0.7323  0.8796 -0.1535
17366TIP3    H273514   0.501   4.128  13.345 -0.1159  1.0905 -0.4761
17367TIP3   OH273515   1.129   1.204  13.782  0.0084  0.0590  0.0803
17367TIP3    H173516   1.166   1.273  13.837 -0.2027 -0.5144  0.9455
17367TIP3    H273517   1.197   1.137  13.778 -0.5427 -0.5665  0.8817
17368TIP3   OH273518   0.518   1.450  13.018  0.0340  0.2237  0.1412
17368TIP3    H173519   0.581   1.521  13.024 -0.3808  0.5620  0.5084
17368TIP3    H273520   0.566   1.373  13.047  0.6960  0.2106 -0.9120
17369TIP3   OH273521   2.265   1.631   1.761  0.1806  0.7642 -0.3684
17369TIP3    H173522   2.358   1.628   1.784  0.5346  3.2390 -1.1922
17369TIP3    H273523   2.261   1.604   1.670 -0.0535 -0.1777 -0.0927
17370TIP3   OH273524   5.081   6.336  15.403  0.0423 -0.5065 -0.2706
17370TIP3    H173525   5.014   6.391  15.443  0.4152 -0.6675  0.5846
17370TIP3    H273526   5.134   6.396  15.352 -1.4852 -0.5387 -2.0127
17371TIP3   OH273527   3.149   3.538   3.937 -0.0151 -0.0277  0.3913
17371TIP3    H173528   3.131   3.623   3.977  0.0734  0.5704 -0.8140
17371TIP3    H273529   3.241   3.521   3.957  0.3146  0.7463 -0.4010
17372TIP3   OH273530   1.465   6.030   6.182 -0.2715 -0.5905  0.3521
17372TIP3    H173531   1.382   5.987   6.205 -1.2019  0.4260 -0.9505
17372TIP3    H273532   1.506   6.050   6.266 -1.9247 -0.0359  1.0622
17373TIP3   OH273533   1.875   0.722  16.638 -0.4956  0.4620  0.2407
17373TIP3    H173534   1.932   0.661  16.685 -1.1702 -1.8610 -1.7741
17373TIP3    H273535   1.920   0.807  16.646  1.2462 -0.5326  1.8994
17374TIP3   OH273536   3.125   2.664   1.937 -0.5517 -0.1361 -0.1702
17374TIP3    H173537   3.208   2.697   1.970  0.0500  1.1096 -2.6563
17374TIP3    H273538   3.071   2.652   2.015  0.6795  2.6672  1.2669
17375TIP3   OH273539   3.719   1.820   2.129 -0.3955 -0.1532 -0.0416
17375TIP3    H173540   3.743   1.889   2.190 -1.5300 -1.0275  1.4725
17375TIP3    H273541   3.793   1.758   2.132 -0.4670 -0.2166  0.5022
17376TIP3   OH273542   1.058   5.101  10.789  0.4675  0.3011  0.0931
17376TIP3    H173543   1.099   5.147  10.716 -0.7463  0.6658 -0.3797
17376TIP3    H273544   1.101   5.136  10.867  0.5664  1.1823 -0.3497
17377TIP3   OH273545   0.854   3.603  13.062  0.1478 -0.2603  0.2224
17377TIP3    H173546   0.916   3.531  13.061 -0.0008 -0.3879 -0.4779
17377TIP3    H273547   0.769   3.562  13.047 -0.1332 -0.1033  1.3038
17378TIP3   OH273548   2.400   4.287  13.861  0.3814 -0.1307  0.0543
17378TIP3    H173549   2.438   4.266  13.776 -2.8813  0.4656 -1.7133
17378TIP3    H273550   2.355   4.371  13.848  1.3084  0.9503  2.9362
17379TIP3   OH273551   0.821   1.933  12.859 -0.0280 -0.1979 -0.0694
17379TIP3    H173552   0.844   1.915  12.950 -0.1823  0.1585  0.0395
17379TIP3    H273553   0.896   1.981  12.824 -0.0660 -0.1354 -0.0659
17380TIP3   OH273554   1.346   6.373   0.258  0.4787 -0.4336  0.1502
17380TIP3    H173555   1.291   6.296   0.249  0.9968 -0.6451 -1.6309
17380TIP3    H273556   1.423   6.354   0.204  1.2922  0.7410  0.8422
17381TIP3   OH273557   2.940   4.744  11.741  0.2383  0.5960 -0.0522
17381TIP3    H173558   2.907   4.822  11.786 -0.3962  0.1830  0.2057
17381TIP3    H273559   2.981   4.777  11.661 -0.8052  1.1111 -0.3763
17382TIP3   OH273560   4.737   3.296   3.645  0.2028  0.0341 -0.4722
17382TIP3    H173561   4.732   3.306   3.549 -0.4984 -0.5084 -0.5049
17382TIP3    H273562   4.820   3.337   3.669  0.3998  0.1616 -1.3190
17383TIP3   OH273563   0.240   4.218  13.605  0.4859  0.3862  0.4441
17383TIP3    H173564   0.334   4.202  13.605  0.7956  1.2496 -3.3933
17383TIP3    H273565   0.203   4.143  13.558 -0.5938  0.6563  0.8359
17384TIP3   OH273566   1.057   3.044  12.036  0.0470 -0.2170 -0.3209
17384TIP3    H173567   1.013   3.024  11.954 -0.9265 -2.5160  0.6733
17384TIP3    H273568   1.061   2.961  12.082 -1.6159  1.3464  3.0042
17385TIP3   OH273569   0.413   2.755  14.824  0.1982  0.2959  0.0073
17385TIP3    H173570   0.373   2.838  14.796 -1.7473 -0.3906  0.5753
17385TIP3    H273571   0.351   2.688  14.795  1.6448 -0.9755 -0.2796
17386TIP3   OH273572   4.297   2.171   2.197 -0.1595 -0.3627  0.4910
17386TIP3    H173573   4.326   2.233   2.130 -1.0582  1.2073  1.4894
17386TIP3    H273574   4.333   2.087   2.169  0.1223  0.3739 -1.5376
17387TIP3   OH273575   6.393   0.835  10.491  0.4487  0.5642  0.6751
17387TIP3    H173576   6.474   0.792  10.465 -0.6548 -1.0276 -0.3179
17387TIP3    H273577   6.335   0.763  10.517 -1.4420  1.3883 -0.9691
17388TIP3   OH273578   0.702   1.506   3.182  0.1410 -0.3880  0.2461
17388TIP3    H173579   0.729   1.583   3.131 -0.3568  0.0003  0.5514
17388TIP3    H273580   0.694   1.436   3.118  0.3171 -0.1090 -0.0848
17389TIP3   OH273581   4.275   3.631   1.838 -0.3039 -0.5378  0.0411
17389TIP3    H173582   4.335   3.704   1.821 -0.2128 -0.7128 -0.3962
17389TIP3    H273583   4.325   3.553   1.814 -0.8688 -0.6587 -0.7871
17390TIP3   OH273584   0.202   5.073  16.049 -0.0067 -0.6543  0.2061
17390TIP3    H173585   0.171   5.163  16.039  1.6945  0.0528  0.9755
17390TIP3    H273586   0.200   5.037  15.960 -0.6472  0.1440 -0.1188
17391TIP3   OH273587   4.614   1.457  11.934 -0.3936  0.2812  0.1411
17391TIP3    H173588   4.631   1.518  12.006 -0.2532  0.6276 -0.1811
17391TIP3    H273589   4.671   1.488  11.863 -1.5663  0.8114 -0.6042
17392TIP3   OH273590   2.957   3.150   0.879  0.0026 -0.5044  0.1750
17392TIP3    H173591   2.925   3.074   0.928 -0.2290 -0.8087 -0.4347
17392TIP3    H273592   3.050   3.133   0.866  0.0717 -0.4085  0.5282
17393TIP3   OH273593   6.166   2.712  13.045 -0.6616 -0.7222  0.2361
17393TIP3    H173594   6.109   2.743  12.974 -0.7015  0.0377  0.5859
17393TIP3    H273595   6.246   2.763  13.035 -1.5433  1.2146  2.1621
17394TIP3   OH273596   5.320   2.050   5.364 -0.0078 -0.0581  0.1190
17394TIP3    H173597   5.400   1.999   5.367  1.0810  1.4046 -1.9402
17394TIP3    H273598   5.261   1.999   5.308 -0.0677 -0.5134  0.5871
17395TIP3   OH273599   4.178   6.069  16.903 -0.3535 -0.3916  0.0645
17395TIP3    H173600   4.136   6.082  16.817  0.5623 -0.9737 -0.4838
17395TIP3    H273601   4.247   6.005  16.886  1.2791  1.0980  0.7765
17396TIP3   OH273602   1.956   4.783   4.244 -0.6344  0.1759 -0.3005
17396TIP3    H173603   1.912   4.760   4.326  1.7980 -1.7591  0.6000
17396TIP3    H273604   2.036   4.826   4.272 -0.2072  0.3310 -1.7197
17397TIP3   OH273605   0.009   0.034  12.216  0.5303  0.2581  0.2941
17397TIP3    H173606   0.045  -0.024  12.149 -0.3532  0.1186 -0.0687
17397TIP3    H273607   0.030  -0.009  12.298  0.1361 -0.4417  0.0381
17398TIP3   OH273608   3.593   3.134  12.895 -0.2253  0.6509  0.0772
17398TIP3    H173609   3.546   3.218  12.895  0.0691  0.8212  0.4513
17398TIP3    H273610   3.686   3.158  12.897 -0.1224  0.3685  2.4054
17399TIP3   OH273611   2.814   5.406  16.261 -0.2153  0.3157  0.0260
17399TIP3    H173612   2.743   5.352  16.297 -0.0196  1.0184  1.5312
17399TIP3    H273613   2.892   5.378  16.309  0.3692  0.2082 -0.9559
17400TIP3   OH273614   2.582   5.229   5.610  0.3564  0.1504 -0.6267
17400TIP3    H173615   2.556   5.215   5.519  0.3759  0.5671 -0.6979
17400TIP3    H273616   2.568   5.322   5.625  3.2688  0.7977 -1.1697
17401TIP3   OH273617   0.721   5.547  16.758  0.5053 -0.1831 -0.1389
17401TIP3    H173618   0.730   5.616  16.693  1.3536 -0.1062  0.0469
17401TIP3    H273619   0.643   5.498  16.731 -0.0311  0.7629 -0.3367
17402TIP3   OH273620   0.739   4.795   2.132 -0.3956 -0.4679  0.2945
17402TIP3    H173621   0.671   4.860   2.150 -0.8931 -0.5930 -1.0349
17402TIP3    H273622   0.821   4.841   2.148 -0.7638 -0.2553  1.7279
17403TIP3   OH273623   1.322   5.525   3.159 -0.1907  0.2065  0.4784
17403TIP3    H173624   1.412   5.501   3.134 -0.7156 -2.3627  0.7906
17403TIP3    H273625   1.330   5.555   3.250  0.2002 -1.2553  0.9474
17404TIP3   OH273626   2.257   6.631   4.159  0.0045 -0.4311  0.1450
17404TIP3    H173627   2.190   6.653   4.224  1.1149  1.7772  0.6404
17404TIP3    H273628   2.218   6.655   4.075 -1.0984 -2.4661  0.0144
17405TIP3   OH273629   4.108   2.073  11.514  0.0724  0.4974 -0.1103
17405TIP3    H173630   4.194   2.035  11.533 -0.0750  0.2416  0.0507
17405TIP3    H273631   4.127   2.148  11.458  0.3229 -0.2306 -1.0408
17406TIP3   OH273632   0.894   2.504  10.547 -0.2738 -0.0524  0.3375
17406TIP3    H173633   0.932   2.569  10.607  2.8856 -0.9046 -0.5581
17406TIP3    H273634   0.947   2.426  10.560 -0.4066 -0.7180 -2.4981
17407TIP3   OH273635   3.939   2.528   3.476  0.1321  0.8569  0.1164
17407TIP3    H173636   4.003   2.459   3.455 -0.8289  0.9053 -3.5712
17407TIP3    H273637   3.874   2.483   3.531  0.9732 -0.3843  0.1574
17408TIP3   OH273638   1.325   4.534  15.806 -0.0939  0.3114 -0.2274
17408TIP3    H173639   1.406   4.566  15.847  1.2674  0.9451 -3.2012
17408TIP3    H273640   1.332   4.438  15.813  0.2230  0.3911  0.7461
17409TIP3   OH273641   2.024   1.157  14.229 -0.5453  0.3575 -0.1792
17409TIP3    H173642   2.095   1.120  14.177 -0.4648  1.2292 -0.7103
17409TIP3    H273643   2.058   1.159  14.318 -0.1097  0.2557 -0.3429
17410TIP3   OH273644   4.347   1.376  14.341  0.4152  0.4943 -0.1854
17410TIP3    H173645   4.261   1.410  14.315  0.9589  2.2415  0.1921
17410TIP3    H273646   4.409   1.443  14.312  1.6499 -0.6664 -0.3082
17411TIP3   OH273647   0.236   0.890  14.087 -0.5261 -0.3134  0.0119
17411TIP3    H173648   0.258   0.844  14.006 -0.3098  0.1691 -0.2079
17411TIP3    H273649   0.143   0.872  14.100 -0.8134  0.4645 -0.9080
17412TIP3   OH273650   1.708   5.943   2.162 -0.1145 -0.0925 -0.0538
17412TIP3    H173651   1.681   5.900   2.081  1.7622  2.6509 -2.3438
17412TIP3    H273652   1.635   5.999   2.185 -0.0883  0.2276 -0.7289
17413TIP3   OH273653   4.624   1.484   1.852 -0.1159  0.0147  0.3106
17413TIP3    H173654   4.545   1.447   1.891 -1.0751  1.0804 -0.5858
17413TIP3    H273655   4.635   1.436   1.770 -0.4783  0.6406 -0.1058
17414TIP3   OH273656   5.935   2.488  11.295  0.4471 -0.2214  0.1738
17414TIP3    H173657   5.891   2.456  11.374 -0.0042 -4.1740 -1.4401
17414TIP3    H273658   5.888   2.446  11.223  3.0281  0.3675 -1.9967
17415TIP3   OH273659   5.151   1.365   0.952 -0.6313  0.8884 -0.2328
17415TIP3    H173660   5.176   1.456   0.969 -1.0751  0.7368  1.4349
17415TIP3    H273661   5.119   1.333   1.037  0.3857 -1.1139 -0.5416
17416TIP3   OH273662   1.093   1.097   5.466  0.0482 -0.7457 -0.4092
17416TIP3    H173663   1.025   1.031   5.453 -1.4031  0.2885  1.5363
17416TIP3    H273664   1.058   1.176   5.426  0.4151 -0.3795 -0.0146
17417TIP3   OH273665   4.049   3.102   4.768 -0.1163  0.1046 -0.0170
17417TIP3    H173666   3.990   3.043   4.816  2.1682 -1.4369  1.1206
17417TIP3    H273667   4.117   3.124   4.832  0.0941  2.5495 -0.9977
17418TIP3   OH273668   4.385   1.487   1.594 -0.7282 -0.2822 -0.3720
17418TIP3    H173669   4.462   1.431   1.604 -0.8805 -0.9023 -2.2806
17418TIP3    H273670   4.332   1.443   1.528 -1.3620  1.5845 -1.1670
17419TIP3   OH273671   2.301   1.878  13.322  0.2495  0.3176 -0.1147
17419TIP3    H173672   2.260   1.804  13.366  0.0894  1.5069  1.8855
17419TIP3    H273673   2.244   1.896  13.248  0.0937 -1.2994 -0.4188
17420TIP3   OH273674   5.132   5.983  14.378  0.1324 -0.1560 -0.0365
17420TIP3    H173675   5.107   6.069  14.344  0.9598  0.6497  1.2704
17420TIP3    H273676   5.070   5.922  14.339 -2.0143  1.3361  0.8212
17421TIP3   OH273677   6.531   1.828   1.532  0.1760  0.0316  0.0518
17421TIP3    H173678   6.476   1.821   1.454  0.1557  1.6254 -0.1097
17421TIP3    H273679   6.560   1.738   1.549 -1.3811 -0.6484 -0.6464
17422TIP3   OH273680   6.595   4.173  16.060 -0.0099 -0.0282  0.1606
17422TIP3    H173681   6.647   4.241  16.018  1.1867 -1.2485 -0.3932
17422TIP3    H273682   6.527   4.152  15.996  0.6343 -0.5088 -0.3807
17423TIP3   OH273683   5.289   0.554  12.485 -0.7263 -0.0459 -0.5160
17423TIP3    H173684   5.194   0.553  12.493 -0.6503 -0.5057  0.5449
17423TIP3    H273685   5.320   0.588  12.569  0.0858 -1.4531 -0.2129
17424TIP3   OH273686   1.052   2.714   1.051 -0.8118  0.2298 -0.0795
17424TIP3    H173687   0.999   2.681   0.979 -0.4797  0.5082 -0.4534
17424TIP3    H273688   1.068   2.638   1.107  0.8559 -0.5276 -1.4832
17425TIP3   OH273689   1.090   1.411  12.136 -0.0005  0.3502 -0.2557
17425TIP3    H173690   1.175   1.413  12.181  0.5494  0.0618 -1.2533
17425TIP3    H273691   1.108   1.447  12.049 -1.0979  1.1122 -0.1840
17426TIP3   OH273692   3.930   0.310   5.759  0.2051 -0.2876  0.4818
17426TIP3    H173693   3.955   0.396   5.792 -1.0852  0.1276  0.4362
17426TIP3    H273694   3.879   0.271   5.831 -0.9067 -0.1914 -0.2352
17427TIP3   OH273695   4.491   0.344   5.519 -0.2805 -0.1896  0.0066
17427TIP3    H173696   4.454   0.348   5.430  2.4140 -3.5972 -1.5406
17427TIP3    H273697   4.574   0.391   5.513  0.8142 -2.0076  0.0613
17428TIP3   OH273698   5.964   0.582   2.399 -0.0180 -0.0534 -0.0016
17428TIP3    H173699   6.039   0.529   2.369 -1.0411 -1.1815 -0.6573
17428TIP3    H273700   5.984   0.600   2.491  0.5875 -1.2119  0.1228
17429TIP3   OH273701   3.817   0.209   6.023  0.2410  0.2323  0.1636
17429TIP3    H173702   3.738   0.160   5.997 -0.2610  2.1551 -2.3958
17429TIP3    H273703   3.791   0.257   6.101 -0.4475 -0.7006  0.5274
17430TIP3   OH273704   0.277   2.764  16.772 -0.5908  0.1044  0.4915
17430TIP3    H173705   0.357   2.817  16.775 -0.7014  0.2389  2.3283
17430TIP3    H273706   0.238   2.774  16.859 -1.0405 -2.3527  0.6478
17431TIP3   OH273707   3.649   5.728   5.813 -0.8518  0.2294  0.1183
17431TIP3    H173708   3.658   5.678   5.895 -0.4579  1.6685  0.9938
17431TIP3    H273709   3.645   5.661   5.745  1.1333 -0.9986  1.0834
17432TIP3   OH273710   4.991   4.626   0.945 -0.3285  0.3587 -1.3397
17432TIP3    H173711   5.005   4.719   0.931  0.5356  0.3447 -0.6222
17432TIP3    H273712   5.066   4.584   0.903  0.6605  0.1510  0.5213
17433TIP3   OH273713   3.434   1.018   6.334 -0.6150 -0.1419 -0.0671
17433TIP3    H173714   3.388   0.980   6.408 -0.8663 -0.1215 -0.2107
17433TIP3    H273715   3.515   1.052   6.371 -1.2450  0.9039  0.4215
17434TIP3   OH273716   6.452   1.245  13.738  0.3180 -0.5164  0.5592
17434TIP3    H173717   6.403   1.286  13.666  0.6564 -0.4520  0.3636
17434TIP3    H273718   6.437   1.151  13.726  1.4430 -0.6040 -0.3972
17435TIP3   OH273719   2.508   5.919  13.000 -0.0896 -0.3021  0.2758
17435TIP3    H173720   2.445   5.854  12.972  2.2063 -2.0281 -1.2263
17435TIP3    H273721   2.528   5.970  12.921  3.2426 -2.4193 -0.4558
17436TIP3   OH273722   6.394   0.008   4.562 -0.4877 -0.3303 -0.4312
17436TIP3    H173723   6.338  -0.064   4.591 -1.6344  1.2917  1.6599
17436TIP3    H273724   6.484  -0.024   4.576 -0.9591 -1.4480  0.1367
17437TIP3   OH273725   0.103   5.712  12.931 -0.0820  0.2833  0.4123
17437TIP3    H173726   0.011   5.734  12.920 -0.1471  0.1603  0.7013
17437TIP3    H273727   0.116   5.710  13.025 -0.1650 -1.2500  0.4128
17438TIP3   OH273728   4.684   0.347   6.503 -0.4344 -0.0506  1.3262
17438TIP3    H173729   4.768   0.328   6.462  0.2360  2.1513  1.5025
17438TIP3    H273730   4.663   0.269   6.553  2.1038 -0.2800  2.1914
17439TIP3   OH273731   1.408   3.631   2.000  0.1366  0.3398  0.0793
17439TIP3    H173732   1.422   3.712   2.049 -0.8802  0.3967  0.2890
17439TIP3    H273733   1.319   3.639   1.965  0.3081 -0.3502 -0.5468
17440TIP3   OH273734   6.277   6.356   3.501 -0.9449  0.0627  0.1479
17440TIP3    H173735   6.190   6.350   3.461 -0.6577  1.2274 -0.6890
17440TIP3    H273736   6.287   6.448   3.526  1.7094  1.1582 -3.8491
17441TIP3   OH273737   5.201   0.070   2.312  0.2502 -0.6081  0.2000
17441TIP3    H173738   5.259   0.051   2.386  0.1244 -2.5297 -0.1624
17441TIP3    H273739   5.113   0.060   2.348  0.0189  2.3221  0.7544
17442TIP3   OH273740   5.937   3.287   0.940  0.1038  0.7696  0.2673
17442TIP3    H173741   5.879   3.356   0.973 -0.5492  1.1550 -1.5547
17442TIP3    H273742   5.880   3.210   0.932  0.3079  0.6202  0.2621
17443TIP3   OH273743   0.012   5.616   1.492 -0.4086 -0.0429 -0.6819
17443TIP3    H173744   0.031   5.707   1.514 -0.7917 -0.1914  0.3477
17443TIP3    H273745   0.096   5.571   1.502 -0.1785  0.2189 -1.3747
17444TIP3   OH273746   1.689   1.048  13.093  0.2154  0.4347 -0.1225
17444TIP3    H173747   1.610   1.038  13.145  0.8954  0.0491  0.8719
17444TIP3    H273748   1.754   0.993  13.137 -0.0621 -2.9005 -3.3572
17445TIP3   OH273749   0.978   4.254   0.804  0.2521 -0.2457  0.1790
17445TIP3    H173750   0.990   4.347   0.783  0.1187 -0.0796  0.8140
17445TIP3    H273751   0.884   4.244   0.819  0.4311 -0.1583  1.5380
17446TIP3   OH273752   4.798   1.453  12.348 -0.0271 -0.0009  0.5610
17446TIP3    H173753   4.798   1.408  12.264  1.5168  0.1239  0.4690
17446TIP3    H273754   4.749   1.395  12.406 -0.2562 -0.5625 -0.1774
17447TIP3   OH273755   2.893   6.138  14.664 -0.1141 -0.1849  0.4212
17447TIP3    H173756   2.933   6.070  14.611 -0.5585  0.2726 -0.5240
17447TIP3    H273757   2.844   6.091  14.731 -0.4109 -0.8020 -0.2202
17448TIP3   OH273758   1.684   5.280  15.332  0.1124 -0.0309 -0.3712
17448TIP3    H173759   1.705   5.338  15.406 -0.3784  0.3078 -0.4903
17448TIP3    H273760   1.753   5.214  15.333  1.7060  1.5217 -1.2679
17449TIP3   OH273761   5.716   4.228  14.829 -0.0636  0.9274 -0.1012
17449TIP3    H173762   5.663   4.165  14.878  0.7269  1.0404  0.9310
17449TIP3    H273763   5.786   4.253  14.889  0.9059  1.1370 -1.2719
17450TIP3   OH273764   4.365   4.848   5.422 -0.3387 -0.4763 -0.2055
17450TIP3    H173765   4.366   4.784   5.352  0.4778 -0.8061  0.0899
17450TIP3    H273766   4.335   4.800   5.499  1.2159 -0.7873  0.2453
17451TIP3   OH273767   4.000   3.731  11.471 -0.0884 -0.4229 -0.1756
17451TIP3    H173768   4.088   3.743  11.435 -0.4537 -0.4943 -1.1323
17451TIP3    H273769   3.958   3.816  11.460 -0.3971 -0.6107 -0.4636
17452TIP3   OH273770   0.216   3.881   5.373  0.1859  0.2758 -0.5898
17452TIP3    H173771   0.134   3.838   5.347 -0.5581  1.4228 -0.2312
17452TIP3    H273772   0.277   3.809   5.388 -0.4768 -0.5691 -1.7702
17453TIP3   OH273773   2.206   5.959  14.039 -0.3234 -0.1136  0.0619
17453TIP3    H173774   2.204   5.960  13.943 -1.1581  0.5922  0.0749
17453TIP3    H273775   2.281   6.014  14.061  0.5462 -1.1568 -0.1776
17454TIP3   OH273776   2.163   5.069   5.917 -0.7002  0.4122 -0.0509
17454TIP3    H173777   2.144   5.159   5.946  0.9265  0.7560  0.0020
17454TIP3    H273778   2.245   5.076   5.869 -1.2311 -0.8483 -1.2179
17455TIP3   OH273779   6.196   2.458   0.887 -0.0759 -0.0564  0.0162
17455TIP3    H173780   6.221   2.379   0.840  0.1756 -0.5506  0.9576
17455TIP3    H273781   6.274   2.480   0.939 -0.4704  0.2598  0.4816
17456TIP3   OH273782   2.566   2.993  13.425  0.4087  0.3984 -0.1514
17456TIP3    H173783   2.492   3.024  13.476  0.3726 -1.0154  0.7064
17456TIP3    H273784   2.539   2.907  13.393  1.1476  0.4664 -1.0099
17457TIP3   OH273785   5.526   1.821   2.204 -0.3082 -0.5093  0.0620
17457TIP3    H173786   5.479   1.905   2.208 -0.5569 -0.6646  0.5492
17457TIP3    H273787   5.618   1.845   2.202 -0.3112 -0.2281  1.5743
17458TIP3   OH273788   2.467   4.462  16.054  0.2474 -0.5950 -0.9574
17458TIP3    H173789   2.491   4.376  16.089 -0.2309  0.4803  2.4532
17458TIP3    H273790   2.478   4.522  16.129 -1.1020  2.0210 -2.6831
17459TIP3   OH273791   0.894   1.441  16.622 -0.3058  0.0496  0.2195
17459TIP3    H173792   0.836   1.389  16.566  1.8190  0.0618 -2.1926
17459TIP3    H273793   0.930   1.379  16.684 -1.5880 -0.2796  0.6738
17460TIP3   OH273794   3.224   4.732   0.234  0.2417 -0.4415  0.5998
17460TIP3    H173795   3.223   4.821   0.198  1.6441 -0.2528  0.9552
17460TIP3    H273796   3.301   4.691   0.194 -1.2306 -2.0299 -0.7395
17461TIP3   OH273797   3.474   1.857   6.116  0.5636  0.0334 -0.1848
17461TIP3    H173798   3.506   1.940   6.152 -0.9922  0.2918  0.6992
17461TIP3    H273799   3.523   1.790   6.165 -0.4908  0.4123  1.4779
17462TIP3   OH273800   1.943   4.313  12.495 -0.1540 -0.0450 -0.1514
17462TIP3    H173801   1.876   4.291  12.560 -0.7991 -0.2625 -0.8703
17462TIP3    H273802   1.997   4.235  12.489 -0.7463 -0.4295 -0.6502
17463TIP3   OH273803   2.383   4.439  11.439 -0.3570  0.0927  0.1316
17463TIP3    H173804   2.306   4.441  11.383  0.2052 -0.5260 -0.6963
17463TIP3    H273805   2.449   4.392  11.388  0.7496  1.0828  0.5939
17464TIP3   OH273806   5.796   2.388  12.308  0.6961  0.0958  0.3315
17464TIP3    H173807   5.801   2.313  12.367  0.2313  0.2933  0.6210
17464TIP3    H273808   5.885   2.397  12.274  0.7909 -0.4984  0.4006
17465TIP3   OH273809   0.746   2.543  15.328  0.0944  0.2682  0.4138
17465TIP3    H173810   0.688   2.616  15.305 -1.9554 -0.7821  1.9503
17465TIP3    H273811   0.718   2.471  15.272  2.7273  0.7502 -1.7869
17466TIP3   OH273812   3.174   6.479   5.483 -0.1690 -0.1398  0.6438
17466TIP3    H173813   3.201   6.556   5.433 -0.2195  0.3518  1.3589
17466TIP3    H273814   3.078   6.483   5.483 -0.1552  0.8381  2.2363
17467TIP3   OH273815   3.294   0.243   3.881 -0.4000  0.2252 -0.4429
17467TIP3    H173816   3.202   0.244   3.854 -0.6048 -0.9370  0.1037
17467TIP3    H273817   3.328   0.161   3.845 -0.0067 -0.1111  0.6391
17468TIP3   OH273818   5.824   5.654  13.233 -0.6674  0.3501  0.1592
17468TIP3    H173819   5.842   5.586  13.168 -4.2861 -1.4428  0.7369
17468TIP3    H273820   5.754   5.706  13.194  0.3588  2.2811  0.7657
17469TIP3   OH273821   3.074   6.798   1.424  0.7876  0.0267  0.3629
17469TIP3    H173822   3.107   6.875   1.377  0.2661 -0.1729 -0.3618
17469TIP3    H273823   3.121   6.724   1.385 -0.1493 -0.2117 -0.3687
17470TIP3   OH273824   6.546   3.035  16.563  0.3494 -0.1920 -0.4215
17470TIP3    H173825   6.621   3.084  16.530  0.0707  0.4196 -0.1494
17470TIP3    H273826   6.517   3.084  16.640  0.7328 -1.3562  0.5049
17471TIP3   OH273827   6.567   2.594   3.604 -0.2946  0.2492  0.3994
17471TIP3    H173828   6.589   2.660   3.539 -1.2854 -1.8520 -2.3001
17471TIP3    H273829   6.645   2.540   3.611 -0.9342 -0.9524 -1.0355
17472TIP3   OH273830   4.354   0.576  11.569 -0.7813 -0.5422  0.2912
17472TIP3    H173831   4.331   0.505  11.509 -0.5189  0.3070 -0.8464
17472TIP3    H273832   4.274   0.628  11.577 -0.6647 -0.3590  0.2658
17473TIP3   OH273833   1.623   1.979  11.467 -0.0997 -0.6942  0.1436
17473TIP3    H173834   1.599   1.973  11.375 -1.3540 -0.4611  0.4434
17473TIP3    H273835   1.540   1.983  11.514  0.5179 -1.0253  1.3087
17474TIP3   OH273836   5.800   0.552   1.786  0.8119 -0.2985  0.0740
17474TIP3    H173837   5.768   0.491   1.720  0.0408 -0.9486  1.0139
17474TIP3    H273838   5.721   0.587   1.826  1.2426 -0.7666  1.3972
17475TIP3   OH273839   5.133   3.518  11.462 -0.0155 -0.8278  0.6567
17475TIP3    H173840   5.053   3.467  11.470  0.2877 -1.2637  0.9387
17475TIP3    H273841   5.191   3.464  11.408 -0.4577  0.1550 -0.8609
17476TIP3   OH273842   5.076   4.889   0.234 -0.4434 -0.0530 -0.2059
17476TIP3    H173843   5.066   4.969   0.182  1.0726 -0.8837 -1.8774
17476TIP3    H273844   5.045   4.913   0.321 -0.8453  2.0907 -0.8833
17477TIP3   OH273845   5.124   4.694   5.028 -0.0824 -0.4456  0.1732
17477TIP3    H173846   5.082   4.731   5.106  0.2526 -2.3168  1.3116
17477TIP3    H273847   5.217   4.702   5.045  0.0240  0.5602 -0.7851
17478TIP3   OH273848   5.398   4.861   3.712 -0.2728  0.0669 -0.1241
17478TIP3    H173849   5.448   4.905   3.643 -0.3212 -0.5268 -0.5402
17478TIP3    H273850   5.335   4.928   3.742 -1.3218 -0.1462 -1.7481
17479TIP3   OH273851   1.613   6.002  11.941 -0.4179  0.1598  0.3205
17479TIP3    H173852   1.551   6.016  11.870  0.6512 -0.2445 -0.7323
17479TIP3    H273853   1.570   5.939  11.999 -0.1682 -1.8334 -1.5214
17480TIP3   OH273854   6.347   3.700   1.925  0.4547 -0.3339 -0.0711
17480TIP3    H173855   6.293   3.685   1.848 -0.1709 -0.6126  0.4046
17480TIP3    H273856   6.283   3.706   1.997  1.0096  0.1084  0.3919
17481TIP3   OH273857   6.474   6.177   1.182 -0.5293  0.1172 -0.0191
17481TIP3    H173858   6.430   6.093   1.197 -1.7977  0.7515 -0.0881
17481TIP3    H273859   6.548   6.155   1.125 -0.2048 -1.1104  0.8328
17482TIP3   OH273860   0.897   2.834   0.589  0.3021  0.0371 -0.4133
17482TIP3    H173861   0.913   2.782   0.511  0.1576 -0.8925  0.1668
17482TIP3    H273862   0.967   2.810   0.649  0.4826  0.8355 -0.2867
17483TIP3   OH273863   1.609   0.871  10.804  0.0192  0.2435 -0.7358
17483TIP3    H173864   1.577   0.943  10.859  1.0779 -0.2329  0.5505
17483TIP3    H273865   1.687   0.905  10.761  0.6693 -0.1898  0.0717
17484TIP3   OH273866   3.458   1.032   1.202  0.0148 -0.5166  0.1150
17484TIP3    H173867   3.491   1.064   1.118 -1.1732 -2.7906 -1.3100
17484TIP3    H273868   3.530   0.981   1.238  0.8281  1.1547  0.9324
17485TIP3   OH273869   0.898   1.804   6.376  0.0946 -0.1958 -0.1271
17485TIP3    H173870   0.881   1.740   6.445 -0.2889  0.6606  0.5996
17485TIP3    H273871   0.884   1.756   6.295 -4.0008 -0.1751  0.3410
17486TIP3   OH273872   2.190   0.619  14.495 -0.4799 -0.0787 -0.0547
17486TIP3    H173873   2.102   0.582  14.497 -0.1386 -0.8970  0.0819
17486TIP3    H273874   2.192   0.680  14.569 -0.7192 -0.5571  0.3503
17487TIP3   OH273875   1.409   1.152   6.285  0.0905  0.1913  1.0119
17487TIP3    H173876   1.367   1.175   6.368 -3.5830  0.3049 -0.6556
17487TIP3    H273877   1.387   1.224   6.226  1.2341 -0.6212 -0.4818
17488TIP3   OH273878   5.117   3.496   3.475  0.2575 -0.3584  0.2579
17488TIP3    H173879   5.174   3.570   3.497  0.8134 -0.9495  0.8675
17488TIP3    H273880   5.054   3.532   3.413  0.3141  0.7059  0.7930
17489TIP3   OH273881   4.365   5.864   4.012  0.2866 -0.3920  0.3514
17489TIP3    H173882   4.277   5.869   3.976  0.1990 -1.1923  0.4426
17489TIP3    H273883   4.354   5.882   4.105  0.1527 -0.9041  0.4399
17490TIP3   OH273884   3.784   4.788  16.796 -0.1033 -0.2359  0.2877
17490TIP3    H173885   3.805   4.698  16.819 -1.7090 -1.1658 -1.5606
17490TIP3    H273886   3.700   4.804  16.840  0.3220  0.4724  0.8490
17491TIP3   OH273887   1.791   2.819  16.613 -0.2563 -0.5745  0.0962
17491TIP3    H173888   1.807   2.725  16.624  1.0543 -0.4238 -0.4044
17491TIP3    H273889   1.816   2.837  16.523 -1.8571  0.0084 -0.2694
17492TIP3   OH273890   3.623   1.507   2.972  0.3509  0.6090 -0.0235
17492TIP3    H173891   3.707   1.519   3.016  1.6895 -1.4408 -1.8450
17492TIP3    H273892   3.613   1.412   2.965 -1.8254  0.8289 -0.4569
17493TIP3   OH273893   2.526   3.740   4.243  0.0512  0.1279  0.1604
17493TIP3    H173894   2.516   3.701   4.329  0.0334 -1.2441 -0.4353
17493TIP3    H273895   2.493   3.673   4.182  0.9711  0.6585 -0.9740
17494TIP3   OH273896   4.736   6.772   5.089 -0.2778 -0.2236  0.3934
17494TIP3    H173897   4.795   6.719   5.143  0.0626 -1.7681 -1.3582
17494TIP3    H273898   4.762   6.862   5.107  5.3566 -0.6961 -2.8425
17495TIP3   OH273899   4.179   4.366  13.103 -0.6693  0.3161  0.4142
17495TIP3    H173900   4.102   4.346  13.050  0.1436  0.3718 -0.8173
17495TIP3    H273901   4.164   4.456  13.133 -0.2214  1.0505 -1.4303
17496TIP3   OH273902   3.714   4.491  16.022  0.4606 -0.5388  0.1698
17496TIP3    H173903   3.735   4.498  16.115 -0.5081  0.9376  0.3098
17496TIP3    H273904   3.792   4.452  15.983  2.0292  1.3851  1.1776
17497TIP3   OH273905   2.678   2.416  14.737 -0.3097  0.2044 -0.2426
17497TIP3    H173906   2.698   2.493  14.683 -0.4764  0.4401  0.0324
17497TIP3    H273907   2.614   2.367  14.685  2.2709 -1.5411 -2.0216
17498TIP3   OH273908   2.440   1.330   3.425  0.2479 -0.3808 -0.3686
17498TIP3    H173909   2.459   1.247   3.469  0.1475 -0.3483 -0.2631
17498TIP3    H273910   2.385   1.305   3.350  0.0192 -0.3852 -0.2024
17499TIP3   OH273911   0.972   5.022   5.749 -0.1842  0.4822 -0.3064
17499TIP3    H173912   0.991   4.936   5.785 -1.4539 -0.0341 -0.8067
17499TIP3    H273913   1.052   5.073   5.765 -0.4317  0.1188  2.5963
17500TIP3   OH273914   5.432   5.320   2.171  0.5528 -0.3364  0.1491
17500TIP3    H173915   5.420   5.337   2.265 -0.2290  4.2313 -0.5285
17500TIP3    H273916   5.523   5.342   2.154  0.5488 -0.5935 -0.2095
17501TIP3   OH273917   6.424   0.637   4.655  0.2281 -0.1520  0.2434
17501TIP3    H173918   6.385   0.710   4.607  0.4706 -0.0448  0.2025
17501TIP3    H273919   6.430   0.667   4.745 -1.3298 -0.8076  0.5848
17502TIP3   OH273920   1.006   0.188   4.746  0.4597 -0.1142 -0.9270
17502TIP3    H173921   0.997   0.189   4.651 -0.2130 -0.4268 -0.8666
17502TIP3    H273922   0.976   0.274   4.774  1.7177  0.4057 -1.0774
17503TIP3   OH273923   6.638   4.970   3.170  0.3642 -0.7316 -0.2230
17503TIP3    H173924   6.653   4.971   3.264 -0.2266 -0.0066 -0.1277
17503TIP3    H273925   6.586   4.891   3.155  2.8640 -2.4667 -0.3640
17504TIP3   OH273926   5.376   2.914  12.165 -0.3496  0.2684 -0.1622
17504TIP3    H173927   5.444   2.977  12.186  0.8200 -1.2249  0.7288
17504TIP3    H273928   5.413   2.829  12.190 -1.5096 -0.8960 -2.1366
17505TIP3   OH273929   4.140   0.436  10.931  0.1908  0.3146 -0.1328
17505TIP3    H173930   4.060   0.398  10.968  1.3381 -0.7656  1.3785
17505TIP3    H273931   4.123   0.441  10.837 -1.5482 -0.1316  0.1265
17506TIP3   OH273932   1.047   2.428   5.339  0.2765 -0.2391 -0.0938
17506TIP3    H173933   1.112   2.435   5.408 -1.1789  2.6367  1.1622
17506TIP3    H273934   1.044   2.515   5.300 -2.5104 -0.3403 -0.3377
17507TIP3   OH273935   5.129   3.945  12.765 -0.3486 -0.0461  0.1193
17507TIP3    H173936   5.156   3.870  12.818 -0.5872  0.0445  0.3762
17507TIP3    H273937   5.044   3.970  12.802  0.1286  0.9078  0.6230
17508TIP3   OH273938   3.042   0.124   0.744  0.1342  0.0892  0.0430
17508TIP3    H173939   3.130   0.091   0.760 -0.0926 -1.2651 -1.2375
17508TIP3    H273940   2.985   0.066   0.795 -0.1030  0.1337 -0.1691
17509TIP3   OH273941   1.913   5.845  13.294 -0.0746  0.3208 -0.0756
17509TIP3    H173942   1.894   5.904  13.220  0.3930  3.9298  2.4284
17509TIP3    H273943   1.829   5.835  13.338 -0.4104 -2.0531 -1.1210
17510TIP3   OH273944   2.689   2.318   5.037  0.0416 -0.1359  0.6511
17510TIP3    H173945   2.654   2.371   5.108  2.5982  1.0266  1.1637
17510TIP3    H273946   2.645   2.352   4.959 -2.1985 -0.8820  1.5193
17511TIP3   OH273947   5.853   2.626  15.491 -0.1396 -0.1174  0.5151
17511TIP3    H173948   5.829   2.678  15.415 -0.0063 -1.1596 -0.2587
17511TIP3    H273949   5.788   2.648  15.557 -1.5170 -0.7265 -0.5876
17512TIP3   OH273950   0.726   4.814  13.321 -0.2475 -0.3462 -0.2167
17512TIP3    H173951   0.663   4.793  13.390 -0.1003 -0.8847 -0.2413
17512TIP3    H273952   0.725   4.737  13.263 -1.0790  0.4938 -1.3497
17513TIP3   OH273953   4.905   2.774   0.020  0.2302 -0.1770  1.0081
17513TIP3    H173954   4.835   2.724  -0.021  2.1751 -0.2919 -2.5394
17513TIP3    H273955   4.929   2.723   0.097 -1.5158 -1.6904  0.6152
17514TIP3   OH273956   5.344   0.755  11.143 -0.5376 -0.5296 -0.0524
17514TIP3    H173957   5.439   0.749  11.127 -0.7600  1.0460 -2.3553
17514TIP3    H273958   5.329   0.695  11.216  2.4918  0.4463  1.5712
17515TIP3   OH273959   5.378   4.106   2.412 -0.2771 -0.2077  0.0691
17515TIP3    H173960   5.358   4.034   2.471 -0.5946 -0.1334  0.0518
17515TIP3    H273961   5.431   4.166   2.465 -2.3831  0.9380  0.9839
17516TIP3   OH273962   5.970   2.452   5.383  0.2980  0.3034 -0.3329
17516TIP3    H173963   6.065   2.446   5.394 -0.0001 -3.9100  1.9898
17516TIP3    H273964   5.936   2.469   5.471 -1.1767  1.1008 -1.0078
17517TIP3   OH273965   5.622   4.171  10.576 -0.0142  0.2883 -0.3092
17517TIP3    H173966   5.536   4.170  10.534  0.1276  1.2565 -0.6350
17517TIP3    H273967   5.674   4.233  10.526  0.6029  0.4002  0.4383
17518TIP3   OH273968   4.008   3.559  15.533  0.4423 -0.1260  0.4844
17518TIP3    H173969   4.015   3.482  15.590  0.4876 -0.1657  0.4250
17518TIP3    H273970   3.947   3.533  15.465  1.6913 -0.6835 -0.4633
17519TIP3   OH273971   3.693   6.531   0.900 -0.1294  0.3371 -0.0276
17519TIP3    H173972   3.710   6.596   0.832 -0.2757  0.9320  0.4911
17519TIP3    H273973   3.732   6.569   0.979 -0.4651 -0.0799  0.3447
17520TIP3   OH273974   5.586   5.210   0.430  0.0863  0.3127  0.2422
17520TIP3    H173975   5.678   5.199   0.405 -0.2639  0.3194 -1.1256
17520TIP3    H273976   5.536   5.180   0.354 -1.1124 -1.5479  1.6502
17521TIP3   OH273977   4.774   4.586  16.340 -0.2380  0.1201 -0.5229
17521TIP3    H173978   4.855   4.635  16.328 -0.4006  0.0822 -1.9925
17521TIP3    H273979   4.706   4.653  16.347 -0.3180  0.1403 -1.3752
17522TIP3   OH273980   4.965   0.476   1.593  1.0607 -0.1651  0.0832
17522TIP3    H173981   5.041   0.436   1.635  1.0709 -0.3562 -0.1142
17522TIP3    H273982   4.891   0.450   1.647  1.1271 -0.0412  0.2333
17523TIP3   OH273983   5.797   0.453  14.866  0.0858  0.1968  0.1603
17523TIP3    H173984   5.714   0.501  14.876  0.0897  0.2106  0.1236
17523TIP3    H273985   5.770   0.364  14.842  0.0584  0.0543  0.6905
17524TIP3   OH273986   2.205   4.756  13.902  0.5482 -0.1987 -0.0983
17524TIP3    H173987   2.273   4.823  13.912  0.3639 -0.0942  0.4956
17524TIP3    H273988   2.156   4.784  13.825  2.4799 -1.4453 -1.9074
17525TIP3   OH273989   4.562   5.197  14.640  0.0433  0.4525 -0.1189
17525TIP3    H173990   4.623   5.262  14.607  0.7090 -0.6732 -1.2190
17525TIP3    H273991   4.596   5.173  14.727  0.4889  0.6805 -0.2311
17526TIP3   OH273992   6.290   4.846   1.291  0.2575 -0.3232 -0.3585
17526TIP3    H173993   6.361   4.784   1.308 -0.1014 -0.5676  0.2720
17526TIP3    H273994   6.215   4.811   1.340  0.0266  0.5782 -0.0599
17527TIP3   OH273995   2.616   1.111   1.585  0.0573  0.0443  0.0555
17527TIP3    H173996   2.574   1.190   1.622  1.4308 -0.5561  3.2869
17527TIP3    H273997   2.707   1.117   1.614 -0.0190 -3.2097  1.4065
17528TIP3   OH273998   5.619   4.619  10.727 -0.2448  0.4748 -0.1067
17528TIP3    H173999   5.614   4.702  10.775 -0.4050  0.5274 -0.2153
17528TIP3    H274000   5.670   4.640  10.649  2.0210 -0.1154  1.1151
17529TIP3   OH274001   0.010   0.103   2.993  0.5558  0.2571 -0.0034
17529TIP3    H174002  -0.012   0.156   3.070  2.0758 -0.9121  1.2995
17529TIP3    H274003  -0.005   0.013   3.022 -3.0391 -0.1701 -2.5036
17530TIP3   OH274004   2.695   0.545   0.522  0.1258 -0.1277  0.0772
17530TIP3    H174005   2.612   0.546   0.474  1.1822 -0.6063 -1.8717
17530TIP3    H274006   2.684   0.476   0.587 -0.2538 -1.7994 -1.6636
17531TIP3   OH274007   6.308   2.328  12.219 -0.3004 -0.2762 -0.4064
17531TIP3    H174008   6.232   2.381  12.195  0.0199 -0.0716 -0.9993
17531TIP3    H274009   6.371   2.389  12.255 -0.1550 -0.3366 -0.5539
17532TIP3   OH274010   5.219   1.178   1.480  0.0325 -0.7407 -0.3839
17532TIP3    H174011   5.311   1.201   1.465  0.0581 -0.2529  0.4821
17532TIP3    H274012   5.170   1.235   1.420  0.2504 -0.3484 -0.1952
17533TIP3   OH274013   5.492   3.437  14.658  0.0496  0.8600  0.0548
17533TIP3    H174014   5.468   3.352  14.621  3.0890 -0.0391 -0.1621
17533TIP3    H274015   5.434   3.448  14.733 -0.8853 -1.0729 -0.3236
17534TIP3   OH274016   5.264   3.868  16.298 -0.4824 -0.9503 -0.1792
17534TIP3    H174017   5.304   3.822  16.224  0.3305  0.5060 -0.6892
17534TIP3    H274018   5.335   3.877  16.361 -0.9467 -1.4135  0.4188
17535TIP3   OH274019   0.605   5.520   3.932  0.6502 -0.2126 -0.1133
17535TIP3    H174020   0.545   5.579   3.886  2.3538 -0.6142 -3.0854
17535TIP3    H274021   0.547   5.461   3.981 -1.2552  1.0398 -0.7505
17536TIP3   OH274022   0.336   6.241   0.583 -0.2986  0.6176  0.0187
17536TIP3    H174023   0.314   6.280   0.498 -0.2169 -1.1030 -0.8581
17536TIP3    H274024   0.253   6.201   0.612  0.4860 -2.2656 -1.2711
17537TIP3   OH274025   5.926   3.803  14.141  0.1208  0.3066 -0.8560
17537TIP3    H174026   5.934   3.769  14.052  1.1829 -0.4099 -0.5016
17537TIP3    H274027   5.989   3.874  14.145  0.6528 -0.1864 -0.4354
17538TIP3   OH274028   0.359   3.804  16.554 -0.0438  0.0719 -0.0043
17538TIP3    H174029   0.415   3.759  16.490  1.3185  1.1288  0.4005
17538TIP3    H274030   0.353   3.743  16.628 -0.0470 -0.3472 -0.3422
17539TIP3   OH274031   2.161   6.728   3.928  0.2187 -0.0974 -0.2282
17539TIP3    H174032   2.110   6.795   3.972 -0.3241 -0.4347 -0.3349
17539TIP3    H274033   2.179   6.764   3.841  0.4483  0.1581 -0.0765
17540TIP3   OH274034   4.405   4.166   3.295  0.4385 -0.0891  0.5073
17540TIP3    H174035   4.483   4.114   3.275 -0.9211 -1.7609 -0.7987
17540TIP3    H274036   4.368   4.124   3.372 -0.7177 -1.2239 -0.6093
17541TIP3   OH274037   4.539   6.797  13.059  0.3394 -0.1010  0.0721
17541TIP3    H174038   4.591   6.811  12.980 -0.2663  0.6241 -0.2077
17541TIP3    H274039   4.449   6.819  13.033  0.3659  1.8666  1.3807
17542TIP3   OH274040   1.296   0.878  12.194 -0.1213 -0.0195  0.1061
17542TIP3    H174041   1.349   0.932  12.252  1.7949 -0.6795 -0.9514
17542TIP3    H274042   1.327   0.899  12.106 -2.7789  0.7656 -0.7503
17543TIP3   OH274043   6.802   3.181  14.312  0.2360 -0.1806 -0.2821
17543TIP3    H174044   6.738   3.246  14.343  0.9931  0.9779 -1.0492
17543TIP3    H274045   6.756   3.133  14.244 -0.0201  0.2397 -0.4126
17544TIP3   OH274046   1.470   4.786   4.547 -0.1571 -0.0630 -0.1426
17544TIP3    H174047   1.476   4.813   4.639 -0.2714  1.0054 -0.4338
17544TIP3    H274048   1.377   4.768   4.534 -0.0075 -1.1683  0.1923
17545TIP3   OH274049   6.459   1.190  11.533  0.2837  0.1193 -0.0331
17545TIP3    H174050   6.449   1.277  11.496 -2.3643 -0.2153 -0.2975
17545TIP3    H274051   6.455   1.131  11.458  1.0121 -0.2817  0.2382
17546TIP3   OH274052   5.906   5.244   4.827  0.5326 -0.2109 -0.3784
17546TIP3    H174053   5.871   5.300   4.896  0.8862 -0.2238 -0.1815
17546TIP3    H274054   5.990   5.212   4.863  0.1503 -1.1832 -0.3128
17547TIP3   OH274055   2.144   1.118   3.987  0.0304  0.2552  0.7905
17547TIP3    H174056   2.173   1.183   3.924 -1.3522  0.2437  0.1030
17547TIP3    H274057   2.132   1.038   3.936 -1.6598  0.3933  0.8987
17548TIP3   OH274058   5.784   4.425   5.876  0.1476  0.2816  0.2383
17548TIP3    H174059   5.699   4.381   5.887  1.5510 -2.8025 -0.0447
17548TIP3    H274060   5.812   4.399   5.788  2.0070 -0.0289  0.8819
17549TIP3   OH274061   6.420   3.910  16.271  0.0265  0.2740 -0.3536
17549TIP3    H174062   6.434   3.821  16.240  1.1817  0.4447 -0.3422
17549TIP3    H274063   6.383   3.900  16.359 -0.4159 -0.1902 -0.5939
17550TIP3   OH274064   3.087   1.669   4.711  0.4882  0.1267  0.0522
17550TIP3    H174065   3.179   1.675   4.735 -0.1266 -0.6615  2.9826
17550TIP3    H274066   3.077   1.579   4.678  0.6146 -0.1093  0.6344
17551TIP3   OH274067   3.394   0.050  17.076 -0.0204  0.2790 -0.1825
17551TIP3    H174068   3.464   0.021  17.018  0.3272 -1.3567  1.0014
17551TIP3    H274069   3.357  -0.030  17.113 -2.6284  1.0703 -0.8411
17552TIP3   OH274070   3.033   6.572  12.988 -0.4418  0.1426 -0.0021
17552TIP3    H174071   3.007   6.629  12.916 -1.1127  1.8803  1.5280
17552TIP3    H274072   3.113   6.611  13.023 -0.7882  0.0336  0.9454
17553TIP3   OH274073   0.712   4.717  11.720 -0.1859 -0.9393 -0.1461
17553TIP3    H174074   0.645   4.652  11.702  0.1836 -0.9832 -1.4850
17553TIP3    H274075   0.741   4.699  11.810 -1.7889 -1.0527  0.3723
17554TIP3   OH274076   0.264   4.726   2.548  0.5804  0.1506  0.1890
17554TIP3    H174077   0.335   4.662   2.547  2.1394  1.8040  0.0427
17554TIP3    H274078   0.258   4.754   2.639  0.7691  0.6972  0.0371
17555TIP3   OH274079   5.058   3.240   4.503 -0.8295  0.0804  0.3796
17555TIP3    H174080   5.046   3.179   4.576 -1.0556  0.8750  1.0264
17555TIP3    H274081   5.101   3.188   4.435 -2.7309 -1.3274  0.1629
17556TIP3   OH274082   0.791   0.234  12.398 -0.0407 -0.1803  0.7300
17556TIP3    H174083   0.716   0.207  12.450  1.5302  2.6825  4.9810
17556TIP3    H274084   0.754   0.283  12.325 -2.3258  0.6193  2.3337
17557TIP3   OH274085   0.403   6.745  16.156  0.5441 -0.2779  0.4077
17557TIP3    H174086   0.434   6.835  16.145 -0.8789  0.0703 -1.1789
17557TIP3    H274087   0.326   6.753  16.212 -0.4145 -0.2922 -0.8662
17558TIP3   OH274088   3.324   1.168   5.389  0.4436  0.6276 -0.2967
17558TIP3    H174089   3.313   1.212   5.304 -0.3802  0.8344 -0.0875
17558TIP3    H274090   3.256   1.101   5.391 -0.7589  1.8197  0.9483
17559TIP3   OH274091   3.541   0.317   2.250 -0.1307  0.2258  0.1022
17559TIP3    H174092   3.590   0.311   2.332 -1.8984 -1.8653  1.0914
17559TIP3    H274093   3.471   0.380   2.269 -0.4616 -0.1593  0.1752
17560TIP3   OH274094   0.684   1.214   5.237 -0.0802  0.1024  0.4321
17560TIP3    H174095   0.708   1.240   5.148  0.3352  1.3249  0.8815
17560TIP3    H274096   0.660   1.121   5.229  2.4007 -0.5460 -0.4976
17561TIP3   OH274097   6.287   3.290   4.688 -0.3652  0.2076  0.3795
17561TIP3    H174098   6.374   3.295   4.649  0.1580  1.3786  1.6400
17561TIP3    H274099   6.228   3.277   4.613  0.8419 -0.2128 -0.5209
17562TIP3   OH274100   1.550   4.874   3.067  0.3411 -0.8667  0.8734
17562TIP3    H174101   1.560   4.966   3.043  1.6787 -1.7605 -2.5655
17562TIP3    H274102   1.632   4.852   3.110  0.8300 -0.9032 -0.0633
17563TIP3   OH274103   5.635   5.908  15.855  0.8501 -0.1363 -0.3014
17563TIP3    H174104   5.710   5.934  15.800  1.8357  0.0423  1.0857
17563TIP3    H274105   5.591   5.840  15.804  2.9283 -1.4580 -0.4580
17564TIP3   OH274106   4.778   0.791  11.541 -0.2232  0.2173  0.1543
17564TIP3    H174107   4.785   0.847  11.464 -0.7899  2.7253  1.8290
17564TIP3    H274108   4.685   0.769  11.547  0.0812 -1.5206 -0.8442
17565TIP3   OH274109   2.319   4.147  15.187  0.2530  0.5202 -0.4386
17565TIP3    H174110   2.290   4.228  15.145  1.1267  0.5752 -0.9622
17565TIP3    H274111   2.415   4.152  15.186  0.3304 -0.6150 -0.6974
17566TIP3   OH274112   6.400   3.047   0.591  0.6602 -0.7066 -0.3600
17566TIP3    H174113   6.313   3.027   0.555  0.2583  1.6969 -0.9148
17566TIP3    H274114   6.439   3.107   0.527  2.5500 -1.3539  0.1289
17567TIP3   OH274115   2.147   4.725   2.354 -0.0026  0.0838  0.0092
17567TIP3    H174116   2.076   4.760   2.300  0.1431  1.9646  0.9616
17567TIP3    H274117   2.191   4.802   2.390  2.3630 -1.0238 -0.3053
17568TIP3   OH274118   2.284   3.328   4.320 -0.5267  0.0820 -0.1348
17568TIP3    H174119   2.323   3.260   4.374  0.6999  0.3654 -0.6102
17568TIP3    H274120   2.308   3.410   4.364  0.3460  0.3060 -0.9980
17569TIP3   OH274121   1.949   5.636   1.496  0.1426  0.0672 -0.0544
17569TIP3    H174122   1.870   5.583   1.481  0.2411 -0.3322  0.8212
17569TIP3    H274123   2.012   5.576   1.535  1.4565 -0.0311 -2.1350
17570TIP3   OH274124   3.521   1.476  11.588  0.1748 -0.3850 -0.5781
17570TIP3    H174125   3.582   1.546  11.612 -1.3537  1.0056 -0.5299
17570TIP3    H274126   3.504   1.430  11.670  0.2636 -0.0522 -0.3710
17571TIP3   OH274127   4.866   5.359   1.172  0.0566  0.6672 -0.3516
17571TIP3    H174128   4.882   5.363   1.078  2.0184 -2.6782 -0.3454
17571TIP3    H274129   4.774   5.334   1.180  0.0638  0.2356 -1.4413
17572TIP3   OH274130   2.519   3.906  15.709 -0.0977 -0.2835 -0.0970
17572TIP3    H174131   2.540   3.943  15.624  0.5991 -0.4050  0.0160
17572TIP3    H274132   2.558   3.818  15.707 -1.5965 -0.9669 -0.3071
17573TIP3   OH274133   1.336   3.281  13.756  0.4570 -0.4688 -0.3481
17573TIP3    H174134   1.241   3.280  13.744  0.3089  0.8119  0.5003
17573TIP3    H274135   1.372   3.289  13.667 -0.2652 -0.0226 -0.6027
17574TIP3   OH274136   2.913   2.869  14.947  0.3673  0.5680  0.4239
17574TIP3    H174137   2.918   2.945  15.005  2.8629  0.3694  0.5938
17574TIP3    H274138   2.893   2.906  14.861  2.2123  1.5540  0.3740
17575TIP3   OH274139   0.315   3.887  14.569  0.5774 -0.1330 -0.0777
17575TIP3    H174140   0.334   3.981  14.565  1.0289 -0.2024  0.2907
17575TIP3    H274141   0.345   3.852  14.486  0.0159  0.1128 -0.3920
17576TIP3   OH274142   3.868   0.918   3.230  0.2072  0.0145  0.7863
17576TIP3    H174143   3.849   0.966   3.310  0.6846  0.9981  0.3283
17576TIP3    H274144   3.949   0.871   3.249 -0.2983 -0.6865  1.2598
17577TIP3   OH274145   3.877   0.245   4.224 -0.0451 -0.6536 -0.9424
17577TIP3    H174146   3.869   0.210   4.136 -0.5492 -0.3490 -1.0171
17577TIP3    H274147   3.795   0.223   4.267 -0.0373 -0.2894 -0.7331
17578TIP3   OH274148   3.350   3.774  11.987 -0.1006  0.7984  0.6146
17578TIP3    H174149   3.373   3.684  12.011 -0.3574  0.2837 -0.9552
17578TIP3    H274150   3.394   3.828  12.053 -2.6645 -0.5267  3.6635
17579TIP3   OH274151   1.788   3.428   5.242  0.0359  0.1130  0.0628
17579TIP3    H174152   1.763   3.491   5.175  1.3805  0.1949 -0.4007
17579TIP3    H274153   1.733   3.351   5.225 -0.5659  0.6195 -0.2966
17580TIP3   OH274154   3.019   3.031  10.887  0.1121  0.2658  0.1601
17580TIP3    H174155   3.012   3.122  10.855 -1.8134 -0.1567 -0.7736
17580TIP3    H274156   3.072   2.987  10.821 -0.5215  0.3143 -0.4015
17581TIP3   OH274157   0.597   3.281   0.462  0.2941 -0.0403 -0.1403
17581TIP3    H174158   0.528   3.215   0.465 -0.4763  0.6327  4.6212
17581TIP3    H274159   0.678   3.233   0.479  0.0963 -0.1052  0.6442
17582TIP3   OH274160   4.420   5.887  11.540 -0.0470 -0.3481  0.0684
17582TIP3    H174161   4.361   5.863  11.611  1.4558  0.3418  1.6176
17582TIP3    H274162   4.414   5.982  11.534  1.4443 -0.1771  0.7981
17583TIP3   OH274163   1.108   3.696   4.046  0.1420  0.1423  0.6366
17583TIP3    H174164   1.070   3.765   4.101  1.6839  3.2277 -1.8442
17583TIP3    H274165   1.032   3.649   4.012 -1.1034  1.7043  1.0917
17584TIP3   OH274166   1.097   2.110  11.673 -0.0704 -0.3233 -0.4095
17584TIP3    H174167   1.094   2.015  11.663 -2.8098 -0.1923 -1.7899
17584TIP3    H274168   1.088   2.144  11.583 -0.3772  1.2189  0.1641
17585TIP3   OH274169   0.361   5.544   4.241 -0.2829 -0.0599 -0.6601
17585TIP3    H174170   0.393   5.477   4.181  0.5097 -0.7077  0.4346
17585TIP3    H274171   0.330   5.495   4.318  0.6913  0.8135  0.3368
17586TIP3   OH274172   5.506   1.195  11.503 -0.2718  0.2369  0.6329
17586TIP3    H174173   5.496   1.288  11.485 -0.4777  0.1740  0.4091
17586TIP3    H274174   5.435   1.174  11.563 -1.0168 -0.0385 -0.3174
17587TIP3   OH274175   3.998   1.647  16.612  0.1053 -0.2950 -0.7335
17587TIP3    H174176   3.970   1.563  16.576 -2.8157  0.3401 -0.2549
17587TIP3    H274177   3.918   1.700  16.613  1.6650  2.2213 -0.2375
17588TIP3   OH274178   1.708   1.815  16.716 -0.1212 -0.5026 -0.4703
17588TIP3    H174179   1.736   1.731  16.679 -0.6182 -0.4690 -0.9306
17588TIP3    H274180   1.781   1.842  16.772  0.6693 -0.5266 -1.4686
17589TIP3   OH274181   1.315   1.782  13.956 -0.4517  0.2499  0.4657
17589TIP3    H174182   1.225   1.814  13.966 -0.0626  1.4916  0.2337
17589TIP3    H274183   1.308   1.704  13.902 -1.4321  0.0642  0.8411
17590TIP3   OH274184   1.998   5.809   1.276  0.4542 -0.7971  0.1580
17590TIP3    H174185   1.963   5.769   1.356 -0.5868  0.0849  0.1600
17590TIP3    H274186   2.026   5.735   1.223 -0.8675 -1.5126  0.4159
17591TIP3   OH274187   5.957   1.638  11.048 -0.3604  0.3312  0.7278
17591TIP3    H174188   5.978   1.625  11.140  1.0769  0.7316  0.4818
17591TIP3    H274189   6.030   1.598  11.001 -0.8506  0.5364 -0.2298
17592TIP3   OH274190   4.306   0.931   1.310  0.4246 -0.4372  0.2886
17592TIP3    H174191   4.298   0.845   1.351  0.6059 -0.8376 -0.4898
17592TIP3    H274192   4.316   0.991   1.383 -0.2831 -1.0019  0.8748
17593TIP3   OH274193   0.937   5.644   5.741  0.9636  0.2895 -0.1422
17593TIP3    H174194   0.912   5.672   5.829  0.6003  0.3795 -0.2758
17593TIP3    H274195   0.961   5.551   5.752  0.4673  0.1743 -0.0374
17594TIP3   OH274196   2.212   5.059  15.153  0.6755  0.4030 -0.1956
17594TIP3    H174197   2.175   5.146  15.167 -1.0212 -0.2809 -0.1695
17594TIP3    H274198   2.148   5.014  15.097  0.8593 -1.2302  0.8352
17595TIP3   OH274199   3.412   3.675  13.916  0.7674 -0.0707 -0.2261
17595TIP3    H174200   3.436   3.594  13.871 -0.8854  0.0723 -1.4625
17595TIP3    H274201   3.402   3.739  13.846 -1.1568  0.3346  0.3549
17596TIP3   OH274202   6.446   5.422  13.659  0.0632  0.2866  0.1302
17596TIP3    H174203   6.383   5.379  13.715 -0.6424  0.3115 -0.6257
17596TIP3    H274204   6.400   5.498  13.624  0.0734 -0.3645 -1.3857
17597TIP3   OH274205   0.566   1.675  12.123 -0.0310  0.1719 -0.5501
17597TIP3    H174206   0.600   1.684  12.212  0.3896  0.8010 -0.7642
17597TIP3    H274207   0.627   1.616  12.079 -0.3632 -0.3150 -0.3608
17598TIP3   OH274208   1.512   5.989   3.724 -0.3593  0.1932  0.1335
17598TIP3    H174209   1.520   5.997   3.629 -0.9676  1.1663  0.1535
17598TIP3    H274210   1.527   5.896   3.741  0.6077  0.1563 -0.8175
17599TIP3   OH274211   5.415   2.228   3.294  0.3945 -0.4134 -0.2777
17599TIP3    H174212   5.420   2.145   3.341  0.9325 -0.2203  0.0098
17599TIP3    H274213   5.411   2.202   3.202  1.5311 -0.7441 -0.2491
17600TIP3   OH274214   1.070   5.474   0.764  0.1852  0.2182 -0.0789
17600TIP3    H174215   1.064   5.569   0.771 -1.3007  0.2809 -1.4644
17600TIP3    H274216   1.052   5.443   0.853 -1.7090  1.2194 -0.0381
17601TIP3   OH274217   3.614   6.077   4.103 -0.0439 -0.4615 -0.1176
17601TIP3    H174218   3.673   6.026   4.047 -1.3751  0.2222 -2.2734
17601TIP3    H274219   3.537   6.093   4.049 -1.3235  0.5104  1.8571
17602TIP3   OH274220   5.774   5.134  11.327  0.1133 -0.4965  0.2769
17602TIP3    H174221   5.679   5.144  11.326  0.0967 -0.2776  1.7199
17602TIP3    H274222   5.792   5.066  11.263 -0.8938  0.3571 -0.9628
17603TIP3   OH274223   0.182   2.953  12.560 -0.8414  0.3096 -0.0056
17603TIP3    H174224   0.131   3.015  12.612 -0.2341  1.1568 -0.4139
17603TIP3    H274225   0.140   2.953  12.474 -0.5816  0.4722 -0.1324
17604TIP3   OH274226   2.841   4.751   2.577  0.3520  0.2000  0.1408
17604TIP3    H174227   2.913   4.704   2.619 -0.3744 -0.2595  0.9040
17604TIP3    H274228   2.836   4.834   2.625  1.0589  0.6938 -0.6213
17605TIP3   OH274229   1.968   5.876  11.944  0.4589  0.0197 -0.3710
17605TIP3    H174230   1.883   5.916  11.924 -0.9871 -1.9226  1.5483
17605TIP3    H274231   2.007   5.861  11.858 -1.1440  0.9074 -1.3102
17606TIP3   OH274232   2.982   5.285  14.734  0.1681 -1.1079  0.0987
17606TIP3    H174233   3.057   5.250  14.781  0.6929 -0.0094  0.1036
17606TIP3    H274234   2.954   5.214  14.677  1.0743 -1.5994  0.2504
17607TIP3   OH274235   2.515   3.903  17.061 -0.0057  1.0153  0.2746
17607TIP3    H174236   2.532   3.924  16.969 -0.0875 -0.4968 -0.1255
17607TIP3    H274237   2.434   3.948  17.082 -0.2813  0.9310 -0.5776
17608TIP3   OH274238   2.627   5.818  15.008 -0.1676 -0.0124  0.5667
17608TIP3    H174239   2.549   5.764  14.998 -0.9980  0.7549  2.3101
17608TIP3    H274240   2.625   5.845  15.100  1.8710  0.4750  0.5097
17609TIP3   OH274241   4.947   5.646  14.425 -0.0678 -0.1952 -0.2037
17609TIP3    H174242   4.925   5.575  14.485  1.7361  0.4215  1.2632
17609TIP3    H274243   4.964   5.721  14.481  2.5928  0.1751 -1.3758
17610TIP3   OH274244   0.189   3.659  15.993  0.1264  0.1679  0.3118
17610TIP3    H174245   0.252   3.648  15.922 -1.5611 -1.0138 -1.0763
17610TIP3    H274246   0.115   3.704  15.952  0.4329  2.5795  2.1753
17611TIP3   OH274247   2.853   4.948  16.575 -0.5655  0.1855 -0.7683
17611TIP3    H174248   2.908   5.026  16.574  0.2112 -0.3082  0.3901
17611TIP3    H274249   2.822   4.943  16.665 -2.6664  0.5351 -1.4344
17612TIP3   OH274250   1.816   5.760  12.576 -0.3407 -0.3644  0.1493
17612TIP3    H174251   1.794   5.691  12.514 -2.1041  2.3353 -2.5741
17612TIP3    H274252   1.734   5.778  12.623 -1.5083  2.8748 -2.6764
17613TIP3   OH274253   5.915   1.059  12.431 -0.5836 -0.4766 -0.4184
17613TIP3    H174254   5.883   0.989  12.374  0.0714 -1.5271  0.4658
17613TIP3    H274255   5.985   1.019  12.482 -1.3598  0.3168  1.3789
17614TIP3   OH274256   3.519   6.602   4.222  0.4796  0.0998  0.5033
17614TIP3    H174257   3.519   6.546   4.299 -0.0526 -1.2357 -0.4250
17614TIP3    H274258   3.506   6.542   4.148  1.8940  1.2243 -0.7212
17615TIP3   OH274259   0.078   2.068  15.893  0.0334  0.1691 -0.3553
17615TIP3    H174260   0.133   2.143  15.869 -0.7677  0.5315 -1.1242
17615TIP3    H274261   0.094   2.004  15.823  0.4438 -0.2455  0.1099
17616TIP3   OH274262   0.245   0.839  16.169  0.4757  0.3660 -0.2489
17616TIP3    H174263   0.157   0.834  16.206  1.0460 -0.5065  1.0449
17616TIP3    H274264   0.236   0.897  16.093 -1.3843 -0.4121 -0.6695
17617TIP3   OH274265   6.089   2.171   4.950  0.0770  0.0295 -0.0812
17617TIP3    H174266   6.074   2.261   4.921  0.2400 -0.6858 -2.6516
17617TIP3    H274267   6.001   2.137   4.967  0.0619  0.8872  1.8422
17618TIP3   OH274268   5.387   0.243   4.823  0.5715  0.5856  0.0932
17618TIP3    H174269   5.340   0.161   4.838 -0.8093  0.9061 -2.0965
17618TIP3    H274270   5.466   0.217   4.776  1.2511  0.3337  1.3274
17619TIP3   OH274271   4.680   3.198   3.062  0.7343  0.1106 -0.5865
17619TIP3    H174272   4.767   3.169   3.035  1.0476 -0.4015  0.8899
17619TIP3    H274273   4.640   3.121   3.102  0.3183  0.8328  0.4274
17620TIP3   OH274274   1.258   0.980   1.955 -0.5760  0.1294 -0.3757
17620TIP3    H174275   1.196   0.915   1.924 -0.2305  0.6431 -2.2443
17620TIP3    H274276   1.229   1.062   1.915 -0.6406  1.0380  1.4418
17621TIP3   OH274277   4.038   6.040   3.258  0.1277 -0.0155  0.0631
17621TIP3    H174278   4.087   6.101   3.203 -1.4066  1.4348  0.2091
17621TIP3    H274279   4.026   6.087   3.341 -2.2564  0.1268 -0.2803
17622TIP3   OH274280   2.560   5.427   2.264  0.8604  0.2598  0.3314
17622TIP3    H174281   2.532   5.506   2.311  1.5944 -0.0471  1.3323
17622TIP3    H274282   2.573   5.456   2.174 -0.0802  0.9913  0.4177
17623TIP3   OH274283   6.139   0.138   0.538 -0.5063 -0.4573 -0.7342
17623TIP3    H174284   6.113   0.091   0.617  3.3326 -0.8558  0.5052
17623TIP3    H274285   6.104   0.226   0.549  1.1475 -0.0616  2.2469
17624TIP3   OH274286   5.247   3.901   1.161 -0.3281  0.0530  0.2574
17624TIP3    H174287   5.196   3.974   1.196 -1.4453 -0.6842  0.2500
17624TIP3    H274288   5.267   3.847   1.237 -1.3458 -0.7020  0.0236
17625TIP3   OH274289   5.127   0.175  12.574 -0.3345 -0.4202  0.0484
17625TIP3    H174290   5.077   0.255  12.592 -1.9940 -1.7282  1.6033
17625TIP3    H274291   5.126   0.167  12.479  0.8909  1.9795 -0.2574
17626TIP3   OH274292   1.533   3.160   5.535  0.3780  0.0643 -0.2684
17626TIP3    H174293   1.455   3.212   5.558  0.7911  0.6826 -0.2294
17626TIP3    H274294   1.603   3.199   5.588  0.9678  0.3372 -1.2369
17627TIP3   OH274295   0.600   6.792   1.488 -0.4892 -0.5416 -0.1668
17627TIP3    H174296   0.645   6.759   1.410 -0.5583  1.9350 -1.3473
17627TIP3    H274297   0.583   6.884   1.469  0.8355  0.6131  3.3599
17628TIP3   OH274298   3.450   1.322  15.641 -0.4593 -0.4879 -0.2707
17628TIP3    H174299   3.385   1.302  15.709  0.1224 -1.1539  0.0940
17628TIP3    H274300   3.522   1.263  15.658  0.7373  0.9856  0.0090
17629TIP3   OH274301   3.342   0.014  16.360  0.2042 -0.2206  0.0087
17629TIP3    H174302   3.265  -0.025  16.400 -0.4360 -0.3205 -1.2675
17629TIP3    H274303   3.416  -0.036  16.397 -0.3771 -0.4910  0.8180
17630TIP3   OH274304   2.621   5.792   3.128 -0.3176  0.6782  0.1694
17630TIP3    H174305   2.623   5.872   3.180  0.6266  0.7241  0.0737
17630TIP3    H274306   2.706   5.751   3.143 -1.0951 -0.7555  0.8992
17631TIP3   OH274307   5.753   4.939   3.501  0.0396 -0.0135 -0.2165
17631TIP3    H174308   5.689   4.939   3.573 -1.1113 -1.4622 -1.1820
17631TIP3    H274309   5.786   5.029   3.499 -0.4638  0.2647  1.6022
17632TIP3   OH274310   5.572   2.703  13.810  0.4730  0.2271 -0.2014
17632TIP3    H174311   5.626   2.766  13.857  0.5143 -0.0224  0.0921
17632TIP3    H274312   5.576   2.731  13.719 -0.0114  0.9977  0.0124
17633TIP3   OH274313   5.475   1.228  15.337  0.1008 -0.0884  0.1513
17633TIP3    H174314   5.477   1.246  15.431 -0.2033  1.1073 -0.0626
17633TIP3    H274315   5.401   1.168  15.325 -1.1046  1.2939  0.4383
17634TIP3   OH274316   6.558   1.158   1.524 -0.0263 -0.1793 -0.0675
17634TIP3    H174317   6.476   1.207   1.527 -0.4890 -0.9461  2.5153
17634TIP3    H274318   6.583   1.147   1.616  2.9561 -0.0419 -0.7557
17635TIP3   OH274319   4.124   2.814   2.432  0.3643  0.0150  0.0326
17635TIP3    H174320   4.058   2.777   2.491  0.0636 -2.0728 -1.4926
17635TIP3    H274321   4.075   2.874   2.376  0.5129  1.3993  1.3144
17636TIP3   OH274322   2.320   3.158   4.053 -0.0851 -0.1547  0.5857
17636TIP3    H174323   2.277   3.100   3.991  0.7969  0.1362 -0.3322
17636TIP3    H274324   2.403   3.182   4.011 -0.6942  2.3150  0.6129
17637TIP3   OH274325   1.091   6.598   3.970  0.2072 -0.0370 -0.0913
17637TIP3    H174326   1.032   6.673   3.961  0.5368  0.3554  0.8269
17637TIP3    H274327   1.143   6.597   3.890  1.5623  1.9408  0.6834
17638TIP3   OH274328   4.966   3.069   3.030  0.0431  0.6620 -0.2527
17638TIP3    H174329   4.983   3.064   3.124  1.3268  0.6356 -0.4565
17638TIP3    H274330   4.984   2.981   2.997 -1.5355  0.3649 -0.3761
17639TIP3   OH274331   5.771   1.904   0.742  0.2442 -0.2272  0.1506
17639TIP3    H174332   5.716   1.961   0.796  0.5735 -1.1717  1.5220
17639TIP3    H274333   5.795   1.958   0.667 -1.7856  0.5127 -0.0285
17640TIP3   OH274334   4.166   6.343   4.673 -0.7900 -0.1644  0.6880
17640TIP3    H174335   4.194   6.262   4.715 -0.4223 -0.4845 -0.1442
17640TIP3    H274336   4.075   6.326   4.647 -0.4116 -0.6884 -0.3560
17641TIP3   OH274337   6.544   6.279  15.147  0.1003  0.4624 -0.1706
17641TIP3    H174338   6.616   6.224  15.177 -0.9245 -1.3327 -0.8849
17641TIP3    H274339   6.566   6.301  15.057  0.2473  0.8273 -0.0517
17642TIP3   OH274340   3.668   2.051  13.128 -0.1086  0.1649 -0.2150
17642TIP3    H174341   3.613   2.087  13.059  0.5984  1.2521 -0.2264
17642TIP3    H274342   3.757   2.075  13.103  0.3455 -1.1666  0.0494
17643TIP3   OH274343   6.244   3.868   2.608  0.6895  0.1188 -0.0886
17643TIP3    H174344   6.287   3.950   2.633  0.8724 -0.0220  0.0595
17643TIP3    H274345   6.164   3.895   2.563  1.3968  0.4013 -1.2141
17644TIP3   OH274346   4.922   6.614  16.919  0.0390 -0.2784 -0.1295
17644TIP3    H174347   4.885   6.526  16.913  1.1055 -0.8771  1.3950
17644TIP3    H274348   4.848   6.669  16.946 -0.2588 -1.0313  0.6361
17645TIP3   OH274349   5.277   1.252   3.570 -0.0287 -0.0562 -0.0758
17645TIP3    H174350   5.186   1.240   3.599 -0.7212  1.4411 -1.4615
17645TIP3    H274351   5.271   1.318   3.502  2.3005  1.2062  0.8492
17646TIP3   OH274352   3.319   4.482   4.503 -0.5984 -0.0424 -0.4146
17646TIP3    H174353   3.378   4.548   4.466 -1.4239  0.3705 -1.0505
17646TIP3    H274354   3.352   4.466   4.591 -0.4348  1.3180 -0.2046
17647TIP3   OH274355   4.322   2.971   4.309  0.3591  0.1299  0.1192
17647TIP3    H174356   4.301   3.044   4.250 -0.0210  0.1224  0.2441
17647TIP3    H274357   4.392   3.005   4.365  1.0058  0.0017 -0.6007
17648TIP3   OH274358   6.055   2.375  11.763  0.6007  0.2314 -0.7745
17648TIP3    H174359   5.992   2.394  11.832  1.5504  1.9987 -0.3286
17648TIP3    H274360   6.093   2.460  11.741 -0.6178  0.0119 -4.4502
17649TIP3   OH274361   1.805   3.867  10.898 -0.3013  0.9915  0.1164
17649TIP3    H174362   1.773   3.917  10.823 -1.0859 -0.6798 -0.7376
17649TIP3    H274363   1.728   3.818  10.928  0.1998  1.0086  1.5117
17650TIP3   OH274364   3.792   2.497  13.584 -0.5674  0.2014 -0.2127
17650TIP3    H174365   3.866   2.451  13.624  0.1849  1.8055  0.3413
17650TIP3    H274366   3.757   2.435  13.520 -0.3401 -1.5530  1.2701
17651TIP3   OH274367   6.427   3.442   4.900 -0.3252  0.0118  0.2950
17651TIP3    H174368   6.436   3.533   4.872  1.6465  0.2856  1.6358
17651TIP3    H274369   6.394   3.397   4.823 -1.3652  1.8463 -0.3998
17652TIP3   OH274370   2.090   3.551  10.822 -0.2156  0.1020 -0.0661
17652TIP3    H174371   2.179   3.581  10.802 -0.1976  0.2582  0.2446
17652TIP3    H274372   2.084   3.464  10.780 -0.4304  0.7243 -1.3837
17653TIP3   OH274373   1.184   3.188   4.935 -0.1845  0.0359  0.0380
17653TIP3    H174374   1.095   3.185   4.899 -0.6731 -0.9862  1.2444
17653TIP3    H274375   1.173   3.166   5.028  1.3398 -0.1892  0.1891
17654TIP3   OH274376   1.217   6.014   2.702 -0.3764 -0.2688  0.0600
17654TIP3    H174377   1.157   5.940   2.710 -0.9196  0.1291 -0.1835
17654TIP3    H274378   1.265   5.997   2.621 -0.2306 -0.5438  0.2051
17655TIP3   OH274379   4.706   4.888  16.182  0.0997  0.0829  0.2467
17655TIP3    H174380   4.669   4.974  16.158 -1.4681 -1.0778 -1.8205
17655TIP3    H274381   4.659   4.826  16.127  3.3379 -1.8271 -0.6216
17656TIP3   OH274382   2.748   4.925   5.452  0.0493  0.5898  0.2365
17656TIP3    H174383   2.655   4.915   5.471  0.4932 -0.6615  2.0163
17656TIP3    H274384   2.760   5.019   5.439 -1.3499  0.8394  0.5924
17657TIP3   OH274385   3.780   4.299   5.128  0.1498 -0.3434 -0.1521
17657TIP3    H174386   3.862   4.323   5.085  0.5215  2.0457  1.6514
17657TIP3    H274387   3.716   4.362   5.095  0.4691  1.6200  2.6341
17658TIP3   OH274388   1.315   0.424   6.413  0.1985 -0.4697  0.0954
17658TIP3    H174389   1.240   0.382   6.370 -1.2951  1.2354  0.8854
17658TIP3    H274390   1.292   0.424   6.506  1.6269 -0.7134  0.4733
17659TIP3   OH274391   5.953   2.308  14.478  0.0745  0.6348 -0.3926
17659TIP3    H174392   5.869   2.340  14.510  0.2284 -1.0924  1.9555
17659TIP3    H274393   5.936   2.217  14.453  1.0964  0.4596 -0.5006
17660TIP3   OH274394   4.693   6.132   2.104  0.1521 -0.0502 -0.1174
17660TIP3    H174395   4.773   6.160   2.150  0.4621 -1.5003  0.2806
17660TIP3    H274396   4.713   6.144   2.012  0.6590  0.0357 -0.0001
17661TIP3   OH274397   4.648   4.502   5.336  0.0477 -0.1119 -0.2007
17661TIP3    H174398   4.557   4.481   5.313  0.1838  1.5430 -2.6379
17661TIP3    H274399   4.641   4.553   5.417 -1.2796  0.4189 -0.6193
17662TIP3   OH274400   0.575   1.542   1.651  0.1824  0.4989  0.0398
17662TIP3    H174401   0.481   1.548   1.637  0.1653  2.1064  0.6361
17662TIP3    H274402   0.596   1.449   1.638 -1.2658  0.3330 -1.3257
17663TIP3   OH274403   0.359   0.766  14.994 -0.8105 -0.6754 -0.0570
17663TIP3    H174404   0.311   0.717  14.926  0.0979  1.8148 -2.6995
17663TIP3    H274405   0.328   0.856  14.985  1.1613  0.1916  1.1759
17664TIP3   OH274406   1.392   0.017  12.115  0.0419 -0.3732 -0.2701
17664TIP3    H174407   1.336  -0.054  12.143 -0.7652 -0.4234 -1.8821
17664TIP3    H274408   1.337   0.070  12.057  0.6493  1.5204  0.7730
17665TIP3   OH274409   1.487   4.543   1.566 -0.2259  0.1857 -0.3962
17665TIP3    H174410   1.457   4.624   1.524 -0.0506 -0.0645 -1.0262
17665TIP3    H274411   1.421   4.524   1.633 -0.9934  0.1301 -1.1486
17666TIP3   OH274412   5.291   6.488   3.798 -0.1091  0.0870  0.0283
17666TIP3    H174413   5.267   6.452   3.883  1.3692 -1.1751 -0.0505
17666TIP3    H274414   5.371   6.441   3.773 -1.3954 -0.8210 -2.8362
17667TIP3   OH274415   1.383   0.993   2.229  0.3185 -0.0564  0.4073
17667TIP3    H174416   1.359   1.018   2.139  0.8033  0.9164  0.5396
17667TIP3    H274417   1.314   0.931   2.255 -0.8032  0.9678 -0.0271
17668TIP3   OH274418   5.998   1.035   0.722  0.6418 -0.2370  0.0243
17668TIP3    H174419   6.019   0.955   0.675  1.3352 -0.5735  0.8707
17668TIP3    H274420   5.999   1.009   0.814 -0.1325  0.5234  0.2630
17669TIP3   OH274421   2.660   0.085  14.045 -0.0571  0.1780 -0.2614
17669TIP3    H174422   2.683   0.091  13.952 -1.6776  0.7078 -0.6668
17669TIP3    H274423   2.717   0.147  14.089  2.5629 -1.9046 -0.4741
17670TIP3   OH274424   5.006   4.200  12.214 -0.7642  0.3609 -0.7326
17670TIP3    H174425   4.962   4.116  12.228 -1.6660  0.9252 -0.0053
17670TIP3    H274426   4.964   4.236  12.136 -1.0923  0.5739 -0.4621
17671TIP3   OH274427   4.731   3.985  11.826 -0.2271 -0.4333 -0.8631
17671TIP3    H174428   4.818   3.961  11.793  1.1261  3.6676 -0.7245
17671TIP3    H274429   4.747   4.031  11.908 -2.4711  0.9544 -1.1122
17672TIP3   OH274430   4.494   2.148  13.749 -0.2472 -0.0303 -0.2923
17672TIP3    H174431   4.461   2.238  13.748 -0.3313 -0.0610 -1.3667
17672TIP3    H274432   4.589   2.158  13.761 -0.2490  0.2125 -0.4618
17673TIP3   OH274433   1.747   5.061   5.730 -0.0107  0.2909  1.3698
17673TIP3    H174434   1.795   4.984   5.760  0.5205  0.0780  0.0348
17673TIP3    H274435   1.687   5.080   5.802  0.3085 -0.9583  2.0139
17674TIP3   OH274436   3.362   5.037   5.901 -0.1524 -0.1223 -0.0748
17674TIP3    H174437   3.311   4.958   5.883 -1.5710  0.2942  1.7915
17674TIP3    H274438   3.357   5.088   5.820  0.2989 -1.6263 -1.1099
17675TIP3   OH274439   3.145   6.640   4.092 -0.5858  0.1777 -0.2413
17675TIP3    H174440   3.086   6.675   4.025 -1.0526  1.3952  0.7649
17675TIP3    H274441   3.191   6.569   4.048 -1.6672  0.2229 -1.5243
17676TIP3   OH274442   4.819   1.762  12.574  0.7171 -0.1670 -0.1303
17676TIP3    H174443   4.802   1.836  12.517 -0.2626 -0.6795 -0.5223
17676TIP3    H274444   4.914   1.749  12.569  0.6640 -0.1074 -1.5228
17677TIP3   OH274445   2.765   4.596  10.859 -0.5508 -0.4152  0.1838
17677TIP3    H174446   2.698   4.608  10.792 -0.6855  1.0288  0.5460
17677TIP3    H274447   2.847   4.592  10.810 -0.6329  0.8145 -0.0866
17678TIP3   OH274448   5.510   6.320   3.734  0.2379 -0.4313 -0.1849
17678TIP3    H174449   5.538   6.266   3.809  0.5696  0.4845  0.3748
17678TIP3    H274450   5.560   6.286   3.660  0.5686 -0.7863  0.1955
17679TIP3   OH274451   6.136   4.270   2.064 -0.4214  0.5540 -0.0287
17679TIP3    H174452   6.088   4.228   2.136 -1.3735  0.0045 -0.9461
17679TIP3    H274453   6.157   4.198   2.005  0.2185  1.0187 -0.3760
17680TIP3   OH274454   1.493   1.217   0.085 -0.9124 -1.0802 -0.2922
17680TIP3    H174455   1.546   1.171   0.020 -1.2707 -2.6563  0.4670
17680TIP3    H274456   1.554   1.240   0.154 -0.8464 -1.0016 -0.3764
17681TIP3   OH274457   1.130   6.526  12.718 -0.7079 -0.2613 -0.3389
17681TIP3    H174458   1.219   6.529  12.752 -1.4060  0.2422  1.5474
17681TIP3    H274459   1.137   6.473  12.639  0.9289 -2.0593  0.9105
17682TIP3   OH274460   1.442   3.097   4.886  0.7202 -0.1029  0.3231
17682TIP3    H174461   1.441   3.035   4.959 -2.0183 -0.2640  0.2624
17682TIP3    H274462   1.352   3.131   4.882  1.5253  2.1186 -1.1424
17683TIP3   OH274463   4.917   3.280   1.060  0.6012  0.5300 -0.1211
17683TIP3    H174464   4.956   3.212   1.114  0.1714  1.5145  1.5245
17683TIP3    H274465   4.841   3.309   1.110 -0.3042  0.9488 -1.6669
17684TIP3   OH274466   5.393   2.052  16.591 -0.3982  0.7727 -0.6887
17684TIP3    H174467   5.322   2.004  16.549 -1.2986 -0.1056  1.7116
17684TIP3    H274468   5.432   1.990  16.652  0.4590  2.1487  0.2225
17685TIP3   OH274469   1.865   5.660   0.808 -0.2716  0.3019  0.0223
17685TIP3    H174470   1.782   5.675   0.854 -0.3464  2.6789 -0.7535
17685TIP3    H274471   1.849   5.580   0.757 -1.4734 -0.2426  1.1543
17686TIP3   OH274472   4.067   5.680  13.790 -0.3613  0.1710 -0.2867
17686TIP3    H174473   4.076   5.638  13.876  0.4459  2.0395  0.5882
17686TIP3    H274474   4.086   5.610  13.727  2.1911 -0.5288  1.1358
17687TIP3   OH274475   2.767   5.615  14.346 -0.7450 -0.2026  0.2475
17687TIP3    H174476   2.839   5.554  14.365 -1.5487 -1.1702  0.2790
17687TIP3    H274477   2.721   5.574  14.272  0.4583  1.8815 -1.7851
17688TIP3   OH274478   1.978   3.781  13.961 -0.0353  0.2947 -0.1410
17688TIP3    H174479   1.975   3.876  13.964  1.1838  0.3413  0.2397
17688TIP3    H274480   2.032   3.756  14.036  1.1981 -0.5840 -1.2726
17689TIP3   OH274481   0.634   4.374  12.683  0.8707 -0.3142  0.4215
17689TIP3    H174482   0.609   4.323  12.605  1.3015  0.3789 -0.1799
17689TIP3    H274483   0.685   4.312  12.736 -0.4110 -1.1448  0.7282
17690TIP3   OH274484   3.503   1.959   2.486 -0.2325 -0.1197  0.4067
17690TIP3    H174485   3.595   1.938   2.501 -0.0480 -0.1568 -0.7104
17690TIP3    H274486   3.500   2.054   2.483 -0.1119 -0.1318 -0.2205
17691TIP3   OH274487   6.078   1.272   1.900  0.1703  0.2359  0.1716
17691TIP3    H174488   6.003   1.325   1.871 -0.4332  0.2087  1.6092
17691TIP3    H274489   6.153   1.332   1.896 -0.5801  1.3992  2.2362
17692TIP3   OH274490   1.756   2.813  10.767 -0.0197 -0.1360 -0.2369
17692TIP3    H174491   1.691   2.858  10.713 -1.4914 -1.8390  0.0435
17692TIP3    H274492   1.795   2.748  10.709 -0.7798 -1.1918  0.4178
17693TIP3   OH274493   5.737   4.102  13.858  0.4022 -0.4919  0.2164
17693TIP3    H174494   5.709   4.104  13.767  2.4427 -1.9883 -0.5256
17693TIP3    H274495   5.723   4.191  13.890 -2.1493 -0.4114 -0.9477
17694TIP3   OH274496   1.468   2.083   4.679 -0.2290  0.0450  0.0286
17694TIP3    H174497   1.425   1.997   4.677 -0.8513  0.2708 -3.2579
17694TIP3    H274498   1.497   2.096   4.589 -0.0762  3.2390  0.4446
17695TIP3   OH274499   3.646   4.566  15.720 -0.5658 -0.5973 -0.1310
17695TIP3    H174500   3.580   4.567  15.650 -0.2987 -1.2695 -0.3958
17695TIP3    H274501   3.597   4.544  15.799 -0.8827  0.2428 -0.0805
17696TIP3   OH274502   3.255   2.868   1.027  0.1553  0.2852 -0.5353
17696TIP3    H174503   3.208   2.861   1.110 -0.7314  0.0870 -1.0422
17696TIP3    H274504   3.206   2.812   0.967  1.8417 -1.0837 -0.7467
17697TIP3   OH274505   3.829   5.597   4.079  0.2108 -0.1496  0.0180
17697TIP3    H174506   3.880   5.540   4.021 -1.9064 -0.9523 -1.1415
17697TIP3    H274507   3.843   5.685   4.044  0.4240 -0.4165 -0.5812
17698TIP3   OH274508   4.562   5.787   4.861 -1.1095 -0.0809 -0.2767
17698TIP3    H174509   4.511   5.867   4.874 -0.5235  0.2353  0.1214
17698TIP3    H274510   4.543   5.734   4.939 -0.1952  0.3977  0.2976
17699TIP3   OH274511   5.260   3.425  16.091 -0.3015  0.2489  0.3788
17699TIP3    H174512   5.225   3.442  16.004 -0.0180  0.9590  0.3916
17699TIP3    H274513   5.342   3.378  16.076 -0.6570 -0.3428  0.2965
17700TIP3   OH274514   1.291   5.360  12.609 -0.2250  0.6373  0.3851
17700TIP3    H174515   1.226   5.348  12.678  0.2235  0.7911  0.8437
17700TIP3    H274516   1.242   5.350  12.528 -0.9850  1.6085  0.7097
17701TIP3   OH274517   4.493   0.813  16.361 -0.4728  0.1661  0.1378
17701TIP3    H174518   4.497   0.889  16.303  0.4303 -1.1847 -1.6542
17701TIP3    H274519   4.528   0.845  16.445  0.9215  1.4577 -0.8817
17702TIP3   OH274520   5.051   5.353  14.865  0.4809  0.2503  0.0435
17702TIP3    H174521   5.009   5.267  14.874 -0.8925  0.9048  0.1343
17702TIP3    H274522   5.140   5.340  14.898 -0.3675 -0.6231  2.1449
17703TIP3   OH274523   4.479   0.403   1.062  0.0558 -0.1450  0.4688
17703TIP3    H174524   4.524   0.349   1.127  0.0126  0.4368  0.9848
17703TIP3    H274525   4.526   0.485   1.061  0.5587 -0.4235 -0.8430
17704TIP3   OH274526   3.496   3.156   2.147  0.4764 -0.2928 -0.6192
17704TIP3    H174527   3.579   3.189   2.112  1.2785 -1.7818 -0.1963
17704TIP3    H274528   3.455   3.112   2.073  0.5226 -0.4122 -0.5729
17705TIP3   OH274529   2.528   2.028  12.462  0.1641  0.2358 -0.6258
17705TIP3    H174530   2.571   1.942  12.454 -0.7693 -0.3358  0.2384
17705TIP3    H274531   2.451   2.011  12.515 -0.8540  1.3561 -1.6917
17706TIP3   OH274532   4.284   5.216   1.504 -0.2764 -0.1545 -0.3694
17706TIP3    H174533   4.306   5.280   1.437  0.0097 -1.5413 -1.6452
17706TIP3    H274534   4.308   5.259   1.587  1.7955  0.6177 -1.3039
17707TIP3   OH274535   2.700   5.200  14.897  0.3139  0.1006 -0.1802
17707TIP3    H174536   2.796   5.193  14.892  0.4071  1.5634 -1.0405
17707TIP3    H274537   2.669   5.154  14.819  0.2102 -1.4808  0.7469
17708TIP3   OH274538   6.351   3.885  12.252  0.3911 -0.1272  0.2801
17708TIP3    H174539   6.376   3.960  12.305 -0.4753  0.7532 -0.5366
17708TIP3    H274540   6.280   3.843  12.301  0.7175 -0.2882  0.6202
17709TIP3   OH274541   3.550   0.706   1.873  0.4295 -0.5859 -0.1670
17709TIP3    H174542   3.542   0.679   1.781  0.2654 -2.4472  0.3530
17709TIP3    H274543   3.581   0.627   1.918  1.7248  0.6383  1.1970
17710TIP3   OH274544   0.208   5.690  16.583  0.7574  0.1622  0.3585
17710TIP3    H174545   0.263   5.706  16.506  2.1087 -0.5673  1.1334
17710TIP3    H274546   0.260   5.722  16.656 -0.1051 -0.0218  1.0642
17711TIP3   OH274547   3.949   2.488   3.159 -0.2362  0.1598  0.3797
17711TIP3    H174548   3.863   2.506   3.196 -0.1647  0.6046  0.3307
17711TIP3    H274549   4.009   2.544   3.207 -0.3201  1.7524 -1.2598
17712TIP3   OH274550   5.796   4.303   2.026 -0.5192 -0.0714 -0.3662
17712TIP3    H174551   5.840   4.235   2.077  0.3310 -0.3663 -1.4582
17712TIP3    H274552   5.726   4.258   1.980 -0.2227 -0.1278 -0.7631
17713TIP3   OH274553   4.249   3.552   0.168 -0.1014  1.3318  0.0167
17713TIP3    H174554   4.289   3.634   0.139  0.3362  1.1028 -0.0198
17713TIP3    H274555   4.322   3.493   0.185 -0.4043  1.0406  0.3316
17714TIP3   OH274556   3.735   3.164  13.480 -0.1028  0.6664 -0.2377
17714TIP3    H174557   3.784   3.104  13.536  0.2883  1.2232  0.0381
17714TIP3    H274558   3.644   3.138  13.490  0.1457 -0.5460 -0.9513
17715TIP3   OH274559   3.974   5.342   4.497 -0.8446 -0.5646 -0.0765
17715TIP3    H174560   3.936   5.334   4.410  0.2442  0.5959 -0.6911
17715TIP3    H274561   3.931   5.419   4.535 -0.5467 -0.4260 -0.0126
17716TIP3   OH274562   6.545   3.642   1.230  0.1188 -0.6311  0.4424
17716TIP3    H174563   6.489   3.567   1.247 -0.8038 -0.4605 -1.5883
17716TIP3    H274564   6.609   3.611   1.166  0.9889 -0.2060  1.0781
17717TIP3   OH274565   4.615   2.505  16.790 -0.0655  0.4664 -0.5576
17717TIP3    H174566   4.684   2.568  16.769  1.3873 -1.0293 -0.4829
17717TIP3    H274567   4.641   2.467  16.874 -0.8499 -0.3051 -0.6450
17718TIP3   OH274568   5.832   1.174   4.819 -0.1245  0.4309  0.0674
17718TIP3    H174569   5.847   1.260   4.780  0.6063  0.4551  0.3778
17718TIP3    H274570   5.745   1.179   4.857 -0.1658  0.9630 -0.0967
17719TIP3   OH274571   6.149   5.001  11.383 -0.6408 -0.6429  0.0087
17719TIP3    H174572   6.156   5.058  11.306 -1.7916 -1.2082 -0.5436
17719TIP3    H274573   6.057   5.009  11.411 -0.1364 -0.0831  1.6281
17720TIP3   OH274574   0.589   6.612   4.321  0.4759 -0.3163 -0.0360
17720TIP3    H174575   0.575   6.687   4.379  0.6833 -0.2647 -0.0506
17720TIP3    H274576   0.501   6.582   4.298  0.3897 -0.4718  0.4829
17721TIP3   OH274577   1.490   5.830  11.125 -0.0752 -0.1404  0.2924
17721TIP3    H174578   1.397   5.853  11.131 -0.3653 -1.1517 -0.2182
17721TIP3    H274579   1.536   5.911  11.148 -1.0735  0.1035  1.5421
17722TIP3   OH274580   2.545   5.239  13.359 -0.2216 -0.3960 -0.2032
17722TIP3    H174581   2.572   5.293  13.284 -0.9372  1.0466  0.5487
17722TIP3    H274582   2.450   5.242  13.358 -0.2396  0.0666  1.0537
17723TIP3   OH274583   3.875   5.076  13.376 -0.4862  0.1854 -0.0125
17723TIP3    H174584   3.849   5.009  13.439  1.5286 -0.0544  0.6616
17723TIP3    H274585   3.870   5.032  13.291  0.1497 -0.6227  0.3554
17724TIP3   OH274586   4.486   4.185  10.455  0.3541  0.5624 -0.4206
17724TIP3    H174587   4.548   4.255  10.476 -1.3547  1.8624  0.5599
17724TIP3    H274588   4.447   4.162  10.539 -1.5294  0.8388 -1.1823
17725TIP3   OH274589   5.667   4.868  11.887 -0.0109 -0.2362 -0.7615
17725TIP3    H174590   5.653   4.875  11.981 -1.1464  1.9730 -1.0316
17725TIP3    H274591   5.724   4.792  11.877 -2.4170 -2.5352  1.4229
17726TIP3   OH274592   5.507   0.160  13.987 -0.0475 -0.2887  0.1124
17726TIP3    H174593   5.599   0.147  14.011 -0.0418 -1.7624 -0.6429
17726TIP3    H274594   5.492   0.100  13.914 -0.9578  1.6972 -1.4400
17727TIP3   OH274595   3.044   5.806   3.677 -0.2863  0.2197  0.4394
17727TIP3    H174596   3.057   5.873   3.610 -0.1784 -0.0516  0.1846
17727TIP3    H274597   3.122   5.811   3.732  0.9787 -1.4116 -1.0932
17728TIP3   OH274598   6.307   5.404  14.197 -0.0744 -0.1753 -0.6356
17728TIP3    H174599   6.322   5.407  14.291 -2.7174  1.5894 -0.1614
17728TIP3    H274600   6.302   5.496  14.171 -0.1405 -0.6412 -2.3877
17729TIP3   OH274601   1.917   5.337   4.122 -0.3368 -0.3549  0.7650
17729TIP3    H174602   1.974   5.387   4.180  0.4603 -1.8661  1.3222
17729TIP3    H274603   1.896   5.398   4.051  2.3140  0.1264  0.3049
17730TIP3   OH274604   3.332   1.060   4.587 -0.6217  0.3403  0.4716
17730TIP3    H174605   3.391   0.990   4.616  0.7199  0.7055 -1.1989
17730TIP3    H274606   3.384   1.140   4.594 -1.4987  0.9150  0.5634
17731TIP3   OH274607   2.475   2.443  11.380  0.8172 -0.0863  0.4037
17731TIP3    H174608   2.453   2.362  11.332  0.9163 -1.0525  1.9236
17731TIP3    H274609   2.556   2.473  11.339  0.3412 -0.2659 -0.7361
17732TIP3   OH274610   0.249   4.528  16.725 -0.2170  0.5133 -0.3317
17732TIP3    H174611   0.198   4.451  16.752 -1.0668  0.3078 -2.3571
17732TIP3    H274612   0.340   4.499  16.731 -0.4712 -0.1979  0.2520
17733TIP3   OH274613   3.381   2.710  12.499 -0.8970  0.4574  0.1513
17733TIP3    H174614   3.329   2.790  12.490  1.5461  2.1349 -0.1314
17733TIP3    H274615   3.471   2.741  12.507  0.0480 -2.2517  1.2431
17734TIP3   OH274616   5.153   2.625   3.731  0.3591 -0.1538 -0.2052
17734TIP3    H174617   5.141   2.540   3.774 -2.9896 -0.8503 -2.1668
17734TIP3    H274618   5.200   2.604   3.650 -1.4172 -0.4236 -1.2226
17735TIP3   OH274619   1.581   0.108   5.555 -0.0158  0.2881 -0.3943
17735TIP3    H174620   1.621   0.147   5.477  2.4262  1.2127  1.2456
17735TIP3    H274621   1.598   0.014   5.546 -1.0761  0.1700 -1.6336
17736TIP3   OH274622   1.559   3.282  13.255 -0.3661  0.2401  0.3041
17736TIP3    H174623   1.573   3.349  13.322 -0.1801 -0.2128  0.7204
17736TIP3    H274624   1.489   3.227  13.291  0.2375 -0.4343  0.4585
17737TIP3   OH274625   0.692   1.363   2.340  0.4735  0.1316 -0.7943
17737TIP3    H174626   0.778   1.322   2.332 -0.0618 -0.9714 -1.0012
17737TIP3    H274627   0.696   1.438   2.280  2.5584  2.3684  1.8756
17738TIP3   OH274628   4.512   6.445  13.385 -0.1318  0.3212 -0.2745
17738TIP3    H174629   4.446   6.392  13.429  0.7144 -1.0751 -0.6319
17738TIP3    H274630   4.583   6.452  13.449 -0.0109  0.5824 -0.4355
17739TIP3   OH274631   3.120   2.436   5.406 -0.0764 -0.2202  0.0792
17739TIP3    H174632   3.103   2.376   5.334 -0.7572 -0.6454  0.5793
17739TIP3    H274633   3.095   2.522   5.373 -1.4385 -0.5659  0.1558
17740TIP3   OH274634   4.890   1.993  11.553 -0.2202  0.3092  0.3299
17740TIP3    H174635   4.822   1.974  11.618  1.5072 -0.1289  2.1147
17740TIP3    H274636   4.846   2.047  11.487 -2.0421  0.9210  1.9441
17741TIP3   OH274637   4.926   0.061   4.307 -0.0922 -0.2372 -0.1016
17741TIP3    H174638   5.000   0.002   4.293 -0.1913 -0.2338 -0.6549
17741TIP3    H274639   4.848   0.006   4.296 -0.1799 -0.3693  1.0425
17742TIP3   OH274640   4.456   5.139  13.316 -0.3283  0.2864  0.6283
17742TIP3    H174641   4.510   5.158  13.393  0.8674  0.5099 -0.2442
17742TIP3    H274642   4.398   5.214  13.308  0.6192  1.0076  0.4042
17743TIP3   OH274643   2.560   5.569   5.881 -0.1759 -0.0258  0.6204
17743TIP3    H174644   2.600   5.536   5.961 -0.3414 -0.7466  0.4142
17743TIP3    H274645   2.467   5.548   5.891 -0.0099 -1.3116 -0.3231
17744TIP3   OH274646   2.469   1.564  12.125 -0.1122  0.4604 -0.0689
17744TIP3    H174647   2.440   1.655  12.126  0.1755  0.5483  0.9519
17744TIP3    H274648   2.443   1.532  12.038 -0.4040  1.4457 -0.3606
17745TIP3   OH274649   1.336   2.021   4.387  0.1853  0.0008 -0.2684
17745TIP3    H174650   1.303   1.947   4.337 -1.1548  0.5459 -0.2368
17745TIP3    H274651   1.319   2.097   4.332 -0.6124  0.5300  0.6761
17746TIP3   OH274652   5.793   0.365  10.686 -0.2174 -0.2216  0.1286
17746TIP3    H174653   5.764   0.351  10.596 -2.0635 -1.2767  0.8193
17746TIP3    H274654   5.885   0.338  10.686 -0.1257 -0.0254 -1.4671
17747TIP3   OH274655   3.504   5.853  12.241 -0.1527  0.3236 -0.1082
17747TIP3    H174656   3.424   5.906  12.237 -0.9000 -0.5717  1.7039
17747TIP3    H274657   3.487   5.780  12.180 -2.6717 -2.1871  3.1802
17748TIP3   OH274658   2.923   5.036   3.154  0.0780  0.4829  0.0274
17748TIP3    H174659   2.977   5.022   3.232 -1.5130  0.8294  1.2292
17748TIP3    H274660   2.941   5.127   3.130 -1.8796  1.5097  2.0435
17749TIP3   OH274661   5.707   2.661   6.288 -0.2177  0.4089 -0.3064
17749TIP3    H174662   5.778   2.597   6.297 -0.9986 -0.4435  0.0148
17749TIP3    H274663   5.740   2.739   6.332  0.8185  0.2926 -0.8354
17750TIP3   OH274664   1.933   2.498   2.447 -0.4869 -0.0282 -0.3103
17750TIP3    H174665   1.919   2.492   2.353 -1.9451 -1.0591 -0.0711
17750TIP3    H274666   1.844   2.495   2.484  0.0940 -0.3164  1.1141
17751TIP3   OH274667   6.683   5.332   4.976  0.2085 -0.3313 -0.6250
17751TIP3    H174668   6.665   5.426   4.970 -0.5762 -0.2217  2.0494
17751TIP3    H274669   6.602   5.290   4.948 -0.3038 -0.1062  0.4559
17752TIP3   OH274670   2.099   5.751   3.567 -0.1982  0.0137 -0.0182
17752TIP3    H174671   2.121   5.827   3.513 -0.8838 -0.0194 -0.3535
17752TIP3    H274672   2.173   5.691   3.554  0.2636  0.5521  0.1181
17753TIP3   OH274673   6.018   4.770  11.130  0.8542  0.1514 -0.5667
17753TIP3    H174674   5.959   4.828  11.179  1.6767  2.0225 -1.6554
17753TIP3    H274675   5.988   4.682  11.151 -1.5819  0.9867 -0.1602
17754TIP3   OH274676   0.491   3.977  10.633  0.0555  0.1550 -0.3300
17754TIP3    H174677   0.438   3.997  10.555 -0.1604 -0.1587 -0.2682
17754TIP3    H274678   0.517   4.062  10.667 -1.1149  0.3528  0.1185
17755TIP3   OH274679   0.894   4.470  14.609  0.4046  0.2657  0.5523
17755TIP3    H174680   0.830   4.442  14.544  0.5569 -1.2612  1.0350
17755TIP3    H274681   0.842   4.485  14.688  0.6451 -1.3838  1.0647
17756TIP3   OH274682   6.365   6.372   2.808 -0.0580  0.0162  0.1008
17756TIP3    H174683   6.337   6.311   2.740  0.0512 -0.6556  0.6335
17756TIP3    H274684   6.438   6.326   2.851 -1.2460 -0.3736  1.7961
17757TIP3   OH274685   0.933   3.798   3.753  0.0790  0.6093 -0.3003
17757TIP3    H174686   0.989   3.771   3.680  0.5759  0.4268  0.1377
17757TIP3    H274687   0.920   3.892   3.739 -0.4177  0.4457 -1.0065
17758TIP3   OH274688   3.053   0.233   3.720  0.2272  0.3098  0.0550
17758TIP3    H174689   3.018   0.305   3.667  0.7521  1.8432  1.6762
17758TIP3    H274690   3.104   0.180   3.659 -1.0240  0.7237 -1.3917
17759TIP3   OH274691   6.338   4.341  15.374 -0.4444 -0.0109 -0.0594
17759TIP3    H174692   6.384   4.310  15.452  1.9082  2.2775 -0.3876
17759TIP3    H274693   6.387   4.303  15.301 -0.6542  0.4116 -0.4215
17760TIP3   OH274694   2.594   6.660   4.475  0.3569  0.2298  0.8086
17760TIP3    H174695   2.672   6.610   4.498  0.5712  0.3484  0.3511
17760TIP3    H274696   2.522   6.614   4.518  0.6328 -0.0996  0.9189
17761TIP3   OH274697   1.367   1.483   4.323 -0.1676  0.3935  0.0647
17761TIP3    H174698   1.279   1.458   4.350 -0.3706  0.3451 -0.6366
17761TIP3    H274699   1.417   1.485   4.405 -0.6512 -0.2521  0.3865
17762TIP3   OH274700   3.634   1.818  13.563  0.1661 -0.5515  0.5292
17762TIP3    H174701   3.548   1.795  13.527  0.0899  0.3251  0.1343
17762TIP3    H274702   3.693   1.816  13.488  0.2425  0.0878  0.5661
17763TIP3   OH274703   6.202   2.966  15.132  0.0910  0.6454 -0.8954
17763TIP3    H174704   6.169   2.909  15.201 -0.3403  1.2647 -0.5831
17763TIP3    H274705   6.226   2.907  15.061  0.8665 -0.0387 -0.0954
17764TIP3   OH274706   1.755   0.157   3.413  0.0532 -0.5243  0.3179
17764TIP3    H174707   1.813   0.147   3.337 -0.5115  0.9803 -0.3529
17764TIP3    H274708   1.728   0.249   3.411 -2.4022 -1.1629  0.5610
17765TIP3   OH274709   5.332   5.693   4.545  0.3218 -0.8201 -0.1515
17765TIP3    H174710   5.391   5.723   4.614  0.8687 -1.4779 -0.3216
17765TIP3    H274711   5.256   5.657   4.592 -0.7296  1.4655  0.0603
17766TIP3   OH274712   4.904   2.328   1.765  0.5358  0.2583  0.1004
17766TIP3    H174713   4.839   2.345   1.833  0.7914 -1.1100  0.7303
17766TIP3    H274714   4.918   2.413   1.722 -2.2469  0.4493 -0.6100
17767TIP3   OH274715   0.756   3.318  12.792  0.0162 -0.0854  0.3695
17767TIP3    H174716   0.738   3.339  12.700  1.7840  1.3015  0.2887
17767TIP3    H274717   0.745   3.402  12.838  0.7751 -0.3973  1.1466
17768TIP3   OH274718   2.042   1.345   1.552 -0.0538  0.3954 -0.3159
17768TIP3    H174719   1.950   1.331   1.577 -0.1270 -0.1368 -0.8677
17768TIP3    H274720   2.087   1.265   1.580  0.3978  0.9556  0.6316
17769TIP3   OH274721   5.366   1.885  13.676  0.4022  0.1253  0.0940
17769TIP3    H174722   5.303   1.838  13.729  2.1861  0.1186  2.3587
17769TIP3    H274723   5.420   1.933  13.739  0.3334  3.1808 -1.9160
17770TIP3   OH274724   4.562   4.923   2.230  0.5288 -0.6927 -0.0938
17770TIP3    H174725   4.645   4.900   2.269  1.5454 -0.2989 -1.9091
17770TIP3    H274726   4.563   4.882   2.144 -1.0865 -0.5395 -0.2225
17771TIP3   OH274727   1.739   0.698   5.230 -0.1842  0.1055 -0.0854
17771TIP3    H174728   1.774   0.765   5.290  0.0795 -0.3360  0.2631
17771TIP3    H274729   1.817   0.662   5.187 -0.3076 -0.1047 -0.1333
17772TIP3   OH274730   5.995   5.926   2.166  0.1695 -0.1438 -0.2315
17772TIP3    H174731   6.089   5.917   2.155  0.1293  0.7006 -1.4925
17772TIP3    H274732   5.979   5.902   2.257  1.6747  0.2636  0.1685
17773TIP3   OH274733   2.549   3.592   0.331  0.0609  0.4015  0.3279
17773TIP3    H174734   2.456   3.608   0.318 -0.0204  1.3654  1.8504
17773TIP3    H274735   2.554   3.548   0.416  1.0323  0.8601  0.5201
17774TIP3   OH274736   4.387   0.068  14.141 -0.0083 -0.7938  0.3919
17774TIP3    H174737   4.324   0.128  14.101  0.8354 -0.9743 -1.3038
17774TIP3    H274738   4.339  -0.014  14.151 -0.8786 -0.1359  1.8233
17775TIP3   OH274739   2.276   6.612  13.866 -0.4592 -0.2767 -0.0639
17775TIP3    H174740   2.243   6.582  13.951 -1.5440  1.5897  0.2296
17775TIP3    H274741   2.369   6.593  13.869 -0.7712 -1.8717  0.8040
17776TIP3   OH274742   0.500   4.498  12.981  0.5538 -0.1169  0.0896
17776TIP3    H174743   0.485   4.585  12.943  0.9109 -1.0236 -2.3488
17776TIP3    H274744   0.594   4.484  12.971  0.4529 -0.8883  0.1531
17777TIP3   OH274745   5.642   3.746   1.721  0.1016  0.2062  0.2330
17777TIP3    H174746   5.622   3.673   1.662  1.3147  0.0299  0.0136
17777TIP3    H274747   5.687   3.809   1.665 -1.4973  1.4257  0.2684
17778TIP3   OH274748   2.057   0.874   2.878 -0.2331 -0.0087 -0.0671
17778TIP3    H174749   2.036   0.841   2.790 -1.0695  0.8557 -0.2078
17778TIP3    H274750   2.039   0.801   2.937  1.1236 -0.8785 -0.6712
17779TIP3   OH274751   0.512   1.752  13.274  0.0631  0.3683  0.2982
17779TIP3    H174752   0.605   1.729  13.278  0.4336  1.8167  0.7721
17779TIP3    H274753   0.502   1.821  13.339 -0.8650  1.8004 -1.2807
17780TIP3   OH274754   3.056   0.402  11.790 -0.4252 -0.0748  0.8868
17780TIP3    H174755   2.988   0.422  11.854  0.4142 -0.7801  2.0389
17780TIP3    H274756   3.050   0.308  11.777 -1.4301  0.2068 -1.1099
17781TIP3   OH274757   4.319   6.486   0.235  0.0356  0.5759 -0.0103
17781TIP3    H174758   4.229   6.514   0.255  0.9054  2.1768  2.0136
17781TIP3    H274759   4.318   6.391   0.250 -1.2585  0.5954  0.1846
17782TIP3   OH274760   3.978   0.412  14.699  0.0025  0.0332  0.4880
17782TIP3    H174761   4.019   0.448  14.621 -0.8115 -0.4779 -0.1919
17782TIP3    H274762   4.033   0.337  14.724 -0.7007 -0.8821 -0.6374
17783TIP3   OH274763   4.367   3.043  13.621 -0.7125  0.0285 -0.3377
17783TIP3    H174764   4.438   3.093  13.582  0.5486 -1.1167  0.4106
17783TIP3    H274765   4.368   2.959  13.575 -0.7392 -0.4619  0.5325
17784TIP3   OH274766   4.226   2.291  15.985  0.5628 -0.1200 -0.5594
17784TIP3    H174767   4.235   2.369  15.929  0.4086 -0.3937 -0.9656
17784TIP3    H274768   4.309   2.245  15.976  0.7213  0.0826 -0.1799
17785TIP3   OH274769   4.583   5.858   1.909 -0.0351 -0.1235  0.1045
17785TIP3    H174770   4.515   5.921   1.935  0.3846 -0.3322  1.8117
17785TIP3    H274771   4.645   5.910   1.859 -0.5684  0.4482  0.0225
17786TIP3   OH274772   1.571   6.280   2.574 -0.0918  0.1423 -0.7713
17786TIP3    H174773   1.652   6.331   2.576 -0.8840  1.4219  0.2555
17786TIP3    H274774   1.510   6.334   2.523 -0.9617  0.2967  0.3895
17787TIP3   OH274775   3.176   3.914   0.906  0.2645  0.5857 -0.2825
17787TIP3    H174776   3.131   3.897   0.988  0.4780  0.9871 -0.0808
17787TIP3    H274777   3.262   3.946   0.932  0.3977  0.5428 -0.6643
17788TIP3   OH274778   3.467   2.356   0.561 -0.0748 -0.4626 -0.4641
17788TIP3    H174779   3.504   2.385   0.478  0.1281  1.4547  0.2267
17788TIP3    H274780   3.499   2.421   0.625 -3.0929  0.2417  0.4875
17789TIP3   OH274781   5.924   4.010   2.564  0.1070 -0.2972  0.2959
17789TIP3    H174782   5.862   4.020   2.636  1.7394 -0.0260  1.7246
17789TIP3    H274783   5.984   4.084   2.572  1.9288 -1.6910  0.3395
17790TIP3   OH274784   1.073   5.600  14.233  0.0384 -0.0046 -0.3966
17790TIP3    H174785   1.124   5.553  14.167 -1.0996 -0.1228 -1.2224
17790TIP3    H274786   1.116   5.686  14.241  0.3484 -0.0956 -1.0718
17791TIP3   OH274787   2.145   4.339   0.880 -0.0504 -0.9471  0.2505
17791TIP3    H174788   2.154   4.248   0.852  1.3393 -1.3916  2.0059
17791TIP3    H274789   2.136   4.335   0.975 -0.8055  0.7271  0.2981
17792TIP3   OH274790   3.680   4.401  14.973 -0.3393 -0.4168  0.3682
17792TIP3    H174791   3.722   4.432  15.053  0.9149 -2.8191  0.7155
17792TIP3    H274792   3.586   4.401  14.994 -0.2686  1.4803  0.8614
17793TIP3   OH274793   4.614   1.390   6.369  0.2784  0.1573 -0.0602
17793TIP3    H174794   4.536   1.429   6.328  0.3506  1.6074  1.1170
17793TIP3    H274795   4.593   1.297   6.376 -1.0993  0.4306 -0.3122
17794TIP3   OH274796   5.753   1.539  11.795  0.0075 -0.6468 -0.4388
17794TIP3    H174797   5.763   1.634  11.795 -0.5427 -0.5809  0.1311
17794TIP3    H274798   5.706   1.520  11.877  1.0118 -1.5026 -0.0465
17795TIP3   OH274799   5.119   6.004   0.520  0.7177 -0.4281  0.4983
17795TIP3    H174800   5.031   5.981   0.492  1.0454 -2.5414  1.0363
17795TIP3    H274801   5.148   5.930   0.574  2.3064  0.8296  1.4987
17796TIP3   OH274802   2.978   3.426  12.817 -0.1937 -0.1661  0.4402
17796TIP3    H174803   3.049   3.416  12.880  0.1086 -2.1150 -0.1430
17796TIP3    H274804   2.930   3.504  12.847  1.3521  0.3670  1.6415
17797TIP3   OH274805   3.617   3.488  16.491 -0.2773 -0.0642 -0.2669
17797TIP3    H174806   3.623   3.426  16.418 -0.5884 -0.3127 -0.0830
17797TIP3    H274807   3.584   3.568  16.451 -1.9119 -0.6447 -0.1588
17798TIP3   OH274808   6.286   4.996  13.716  0.3420 -0.2243  0.4334
17798TIP3    H174809   6.372   4.960  13.694  0.5200  0.8541 -0.7721
17798TIP3    H274810   6.266   5.055  13.643 -0.4433  1.2180  1.7688
17799TIP3   OH274811   5.145   0.824  13.969 -0.0455  0.1387 -0.2766
17799TIP3    H174812   5.058   0.799  13.939  0.0656 -2.0393  0.9999
17799TIP3    H274813   5.131   0.903  14.022 -1.1559  0.0876 -0.4731
17800TIP3   OH274814   1.098   2.879  13.270 -0.0501  0.3042  0.1031
17800TIP3    H174815   1.182   2.845  13.240 -0.5346 -1.8680  1.0034
17800TIP3    H274816   1.118   2.964  13.309  1.2942  1.0031 -1.9699
17801TIP3   OH274817   4.812   5.947   2.450 -0.2008  0.0466 -0.3423
17801TIP3    H174818   4.888   6.005   2.436  0.8624 -0.6720  1.9608
17801TIP3    H274819   4.762   5.990   2.520  0.4980 -1.6103  1.2571
17802TIP3   OH274820   5.580   1.796  12.081 -0.9792  0.0766 -0.3750
17802TIP3    H174821   5.527   1.810  12.160 -0.0757 -1.5721  0.5964
17802TIP3    H274822   5.642   1.869  12.080 -1.1139  0.2075  0.3547
17803TIP3   OH274823   2.629   2.066  11.020  0.0141 -0.3905 -0.1317
17803TIP3    H174824   2.592   2.088  10.934 -1.9920 -0.2162  0.7059
17803TIP3    H274825   2.721   2.047  11.003 -0.3783 -0.5842 -2.3537
17804TIP3   OH274826   0.033   4.328   5.979 -0.0901 -0.1284  0.5706
17804TIP3    H174827   0.020   4.267   6.052  0.6662 -1.2536 -0.1924
17804TIP3    H274828   0.127   4.328   5.964 -0.2159  0.1959 -0.3075
17805TIP3   OH274829   2.151   3.664  16.303  0.0490  0.7209  0.0687
17805TIP3    H174830   2.149   3.679  16.208  1.3869  1.3520  0.1092
17805TIP3    H274831   2.193   3.579  16.313  1.0365  1.1905  0.1035
17806TIP3   OH274832   2.447   4.012  11.282 -0.8148  0.3662  0.4812
17806TIP3    H174833   2.411   3.957  11.212  0.0516  0.9268 -0.4253
17806TIP3    H274834   2.467   3.951  11.353 -0.0550 -0.4648 -0.4317
17807TIP3   OH274835   6.477   4.318   3.571 -0.1337 -0.5426 -0.9861
17807TIP3    H174836   6.484   4.413   3.587 -2.8836 -0.3138 -0.6591
17807TIP3    H274837   6.469   4.311   3.475  1.5931 -0.6146 -1.1482
17808TIP3   OH274838   4.306   3.794  10.791 -0.6144  0.0434 -0.1184
17808TIP3    H174839   4.259   3.711  10.795 -2.3461  1.0236  1.1779
17808TIP3    H274840   4.238   3.860  10.779  0.3278  1.5655  2.1211
17809TIP3   OH274841   1.298   2.973   0.474 -0.4225  0.1588 -0.5093
17809TIP3    H174842   1.273   2.881   0.466 -0.3534 -0.0147  1.0007
17809TIP3    H274843   1.220   3.021   0.448 -0.7173 -0.3412 -0.5632
17810TIP3   OH274844   6.230   0.848   3.195  1.0207  0.6821  0.4601
17810TIP3    H174845   6.307   0.871   3.143  1.0867  1.4491  0.8948
17810TIP3    H274846   6.158   0.898   3.154  0.7108 -0.1494 -0.0431
17811TIP3   OH274847   4.646   1.514  15.319  0.2049 -0.1203 -0.1257
17811TIP3    H174848   4.589   1.552  15.386  1.6539  1.3151  0.3786
17811TIP3    H274849   4.602   1.533  15.237  0.0813  1.2874  0.2285
17812TIP3   OH274850   4.646   5.526   2.543 -0.1614  0.0492 -0.7403
17812TIP3    H174851   4.606   5.524   2.456  0.6351 -2.2283 -1.1350
17812TIP3    H274852   4.726   5.578   2.531 -0.2484  0.0637 -1.2911
17813TIP3   OH274853   1.478   0.677  12.950 -0.2554  0.1437 -0.2251
17813TIP3    H174854   1.504   0.630  13.030 -0.6018  1.4798  0.7121
17813TIP3    H274855   1.550   0.738  12.934 -1.8789  2.6814  1.4171
17814TIP3   OH274856   5.428   0.794   0.514 -0.1992 -0.0501 -0.6229
17814TIP3    H174857   5.413   0.754   0.600  2.4117  0.3839  0.1542
17814TIP3    H274858   5.394   0.882   0.523  0.5287  0.1703  0.2051
17815TIP3   OH274859   1.395   5.270  14.814  0.4206  0.8127  0.0458
17815TIP3    H174860   1.490   5.256  14.808  0.2207 -0.0705 -3.8084
17815TIP3    H274861   1.374   5.327  14.740 -2.2280 -0.4022 -0.2629
17816TIP3   OH274862   0.037   3.909   3.406 -0.4486 -0.1257  0.2808
17816TIP3    H174863   0.035   3.814   3.403  0.5609 -0.1389 -0.9099
17816TIP3    H274864   0.104   3.930   3.471  1.2149 -0.2991 -1.2956
17817TIP3   OH274865   2.897   0.415  16.352  0.1832 -0.3305  0.2329
17817TIP3    H174866   2.913   0.476  16.280  1.3744  0.2499  0.9594
17817TIP3    H274867   2.809   0.438  16.384 -0.3908 -0.6458 -1.0504
17818TIP3   OH274868   3.838   2.038  14.215  0.1502  0.2963  0.2188
17818TIP3    H174869   3.928   2.006  14.204  0.1574  0.2765  0.3360
17818TIP3    H274870   3.847   2.134  14.218  0.3756  0.2491  2.0427
17819TIP3   OH274871   1.621   5.470  13.873  0.3467 -0.2352  0.2522
17819TIP3    H174872   1.670   5.471  13.955 -1.0587 -0.0408  1.1183
17819TIP3    H274873   1.682   5.507  13.808  2.2809 -2.4655  0.6796
17820TIP3   OH274874   5.971   6.172  12.235  0.4646  0.3954  0.4535
17820TIP3    H174875   5.956   6.262  12.206 -0.8935  0.2075  0.5330
17820TIP3    H274876   6.048   6.144  12.185 -0.2569  0.9631 -1.0458
17821TIP3   OH274877   4.469   1.509   0.341  0.1310 -0.1213 -0.1526
17821TIP3    H174878   4.411   1.530   0.268 -0.8805  0.5352  0.8143
17821TIP3    H274879   4.525   1.439   0.307 -1.0990 -0.6568 -1.1817
17822TIP3   OH274880   2.112   6.483   0.915 -0.2225 -0.0964 -0.5563
17822TIP3    H174881   2.024   6.520   0.922  0.4167  1.1752  2.7620
17822TIP3    H274882   2.109   6.405   0.970  0.8315  0.3222  0.1392
17823TIP3   OH274883   3.138   2.007   3.315  0.2327 -0.1348 -0.4515
17823TIP3    H174884   3.076   1.956   3.263 -0.3628 -1.0223  1.0588
17823TIP3    H274885   3.097   2.012   3.402  0.8726  1.8625 -0.2225
17824TIP3   OH274886   2.540   5.470  16.332  0.2585 -0.3722 -0.1643
17824TIP3    H174887   2.577   5.557  16.344  1.2238 -0.6559 -0.9773
17824TIP3    H274888   2.447   5.480  16.355  1.1329 -0.1701  4.3228
17825TIP3   OH274889   5.372   3.081   4.612  0.2604 -0.3265  0.3030
17825TIP3    H174890   5.279   3.062   4.623 -0.3739  2.2069 -0.1788
17825TIP3    H274891   5.375   3.151   4.547  2.4685  0.1791  0.8683
17826TIP3   OH274892   5.589   6.429   1.282  0.2110  0.1239 -0.0629
17826TIP3    H174893   5.650   6.440   1.354  0.4762 -0.3604 -0.2063
17826TIP3    H274894   5.552   6.342   1.295  1.0100 -0.3953 -1.0566
17827TIP3   OH274895   2.871   5.555  10.144 -0.4048 -0.2112 -0.2221
17827TIP3    H174896   2.861   5.534  10.237  0.0423 -0.7169 -0.2852
17827TIP3    H274897   2.908   5.476  10.105  1.5394  0.7441 -0.4163
17828TIP3   OH274898   1.170   1.553   2.315  0.3046  0.1273 -0.0366
17828TIP3    H174899   1.111   1.554   2.390 -1.0440  0.6953 -1.0590
17828TIP3    H274900   1.156   1.637   2.273  2.2439  0.4749 -0.0402
17829TIP3   OH274901   4.770   3.873  14.939  0.8960 -0.1577  0.4963
17829TIP3    H174902   4.820   3.799  14.906 -0.4658 -0.7139 -0.3759
17829TIP3    H274903   4.716   3.902  14.865  1.2807  1.6211  0.8564
17830TIP3   OH274904   6.227   2.236  11.577  0.1573  0.5252 -0.5220
17830TIP3    H174905   6.220   2.268  11.487  0.9037  1.0100 -0.4194
17830TIP3    H274906   6.194   2.308  11.631  2.6099  1.5498 -0.2379
17831TIP3   OH274907   4.872   1.042  14.604 -0.6637  0.0502  0.2784
17831TIP3    H174908   4.846   1.126  14.567 -0.4876  0.3397  0.7914
17831TIP3    H274909   4.968   1.041  14.594 -0.4168  0.8550  2.1472
17832TIP3   OH274910   0.566   1.420   4.906 -0.3061  0.3721  0.1495
17832TIP3    H174911   0.640   1.479   4.893 -1.9858  1.9492 -4.0227
17832TIP3    H274912   0.600   1.333   4.883  0.5769  0.8499 -0.4081
17833TIP3   OH274913   3.509   6.246   3.688 -0.6757 -0.0426  0.3861
17833TIP3    H174914   3.559   6.272   3.611 -0.3059 -2.2890 -0.1851
17833TIP3    H274915   3.571   6.199   3.743 -1.3929 -0.1059  1.1673
17834TIP3   OH274916   6.677   2.895  12.119  0.3267 -0.2191  0.1548
17834TIP3    H174917   6.602   2.837  12.127 -0.9059  1.3076  0.0517
17834TIP3    H274918   6.680   2.920  12.027 -0.3414  1.3455  0.5179
17835TIP3   OH274919   4.713   3.983   5.245 -0.0278 -0.1516 -0.0804
17835TIP3    H174920   4.738   4.062   5.198 -1.4361  0.8727  0.8281
17835TIP3    H274921   4.622   3.969   5.220 -0.2816 -0.5510  1.0469
17836TIP3   OH274922   4.807   0.511   4.010 -0.3186  0.2369 -0.4709
17836TIP3    H174923   4.858   0.577   4.057  0.8412 -0.4757 -0.6768
17836TIP3    H274924   4.873   0.453   3.971 -1.2834 -0.3057 -1.3565
17837TIP3   OH274925   0.498   4.575   2.934  0.1542  0.4360 -0.2361
17837TIP3    H174926   0.464   4.664   2.939 -0.4834  0.1309  1.2923
17837TIP3    H274927   0.562   4.578   2.862  1.2523  2.4923  0.7353
17838TIP3   OH274928   5.648   2.979  11.656  0.2076 -0.2720 -0.6351
17838TIP3    H174929   5.601   2.916  11.712 -0.4675  0.2073 -0.6532
17838TIP3    H274930   5.685   2.925  11.586 -0.3363 -0.6596 -0.6343
17839TIP3   OH274931   0.863   6.751   4.323 -0.0141  0.2359  0.0627
17839TIP3    H174932   0.914   6.673   4.300  0.2750  0.3527  0.2878
17839TIP3    H274933   0.774   6.731   4.295  0.0495 -0.1924  0.1549
17840TIP3   OH274934   6.296   1.399   3.608  0.3901 -0.1078 -0.2594
17840TIP3    H174935   6.284   1.311   3.645 -0.0359  0.1945  0.3315
17840TIP3    H274936   6.299   1.457   3.684  1.5565  0.2993 -0.5954
17841TIP3   OH274937   0.985   4.805  14.576 -0.0815  0.6566 -0.2264
17841TIP3    H174938   0.907   4.759  14.609 -0.2467  1.1459  0.0783
17841TIP3    H274939   0.979   4.893  14.615  1.5513  0.1664  1.2523
17842TIP3   OH274940   0.405   4.492  14.914  0.2091 -0.1691 -0.3009
17842TIP3    H174941   0.356   4.413  14.888 -0.4699  0.2916 -0.4518
17842TIP3    H274942   0.370   4.561  14.857  1.9209 -0.0693 -1.2953
17843TIP3   OH274943   3.835   0.344   1.027 -0.1408  0.1691  0.0243
17843TIP3    H174944   3.925   0.333   1.058 -0.6700 -0.1969  1.5510
17843TIP3    H274945   3.841   0.338   0.932  1.3871 -0.3205  0.1248
17844TIP3   OH274946   1.166   3.050   4.539 -0.0326  0.0476  0.1377
17844TIP3    H174947   1.220   2.988   4.489  0.7595  2.1872 -1.8585
17844TIP3    H274948   1.076   3.023   4.520  0.2414 -1.8644  1.2413
17845TIP3   OH274949   1.533   5.172   0.358  0.1995 -0.1461 -0.2908
17845TIP3    H174950   1.584   5.178   0.277  0.3767 -1.1525 -0.2627
17845TIP3    H274951   1.453   5.220   0.340  0.2939 -0.2527 -1.0196
17846TIP3   OH274952   0.530   2.480  11.491 -0.0656  0.2923 -0.4930
17846TIP3    H174953   0.563   2.392  11.509  1.4366  0.7361 -0.9157
17846TIP3    H274954   0.435   2.472  11.501  0.1426 -1.0239  0.9117
17847TIP3   OH274955   2.760   3.675  16.683 -0.6719 -0.0372 -0.1627
17847TIP3    H174956   2.731   3.746  16.626 -1.9301 -0.2268  0.2085
17847TIP3    H274957   2.783   3.720  16.765 -1.6884 -0.0430  0.1519
17848TIP3   OH274958   2.076   5.569   5.688 -0.1786  0.1207 -0.1348
17848TIP3    H174959   2.135   5.566   5.763  0.2095  0.7145 -0.4026
17848TIP3    H274960   2.059   5.477   5.667  1.2890 -0.1038 -0.5201
17849TIP3   OH274961   0.866   3.530   4.888  0.2755 -0.1013  0.0568
17849TIP3    H174962   0.792   3.536   4.828  0.3839 -2.1604 -0.3495
17849TIP3    H274963   0.843   3.460   4.949  0.9805  0.6781  1.2721
17850TIP3   OH274964   4.539   4.436  15.825  0.3277 -0.1715  0.0861
17850TIP3    H174965   4.574   4.430  15.736 -0.2895 -0.4689 -0.1455
17850TIP3    H274966   4.563   4.354  15.866  1.0020  0.1490  0.3482
17851TIP3   OH274967   1.575   3.228   3.909 -0.0511 -0.3988 -0.0934
17851TIP3    H174968   1.531   3.312   3.905 -1.7479 -1.3007 -2.6703
17851TIP3    H274969   1.667   3.250   3.923  0.2121  2.2445 -4.1553
17852TIP3   OH274970   2.136   1.830  14.674 -0.1634  0.5456  0.0555
17852TIP3    H174971   2.180   1.898  14.726  1.2276  0.3295 -0.8059
17852TIP3    H274972   2.179   1.833  14.589 -2.5690  1.0606 -1.2212
17853TIP3   OH274973   2.056   4.256  12.834 -0.6798 -0.0107 -0.2558
17853TIP3    H174974   1.963   4.270  12.853 -0.7357 -0.8375  0.1089
17853TIP3    H274975   2.078   4.324  12.770 -1.7754 -0.3930 -1.0802
17854TIP3   OH274976   4.764   1.453   5.307 -0.1741  0.1869 -0.0443
17854TIP3    H174977   4.775   1.381   5.370  0.0917  0.0056 -0.2931
17854TIP3    H274978   4.793   1.416   5.223  1.0030  0.9017  0.0231
17855TIP3   OH274979   2.968   4.324   5.528  0.2854 -0.1923  0.0321
17855TIP3    H174980   2.946   4.346   5.619 -0.1174 -0.3176 -0.0319
17855TIP3    H274981   2.889   4.281   5.494  0.8408 -1.2172 -0.0140
17856TIP3   OH274982   4.796   2.347  12.049  0.0972  0.1482 -0.2051
17856TIP3    H174983   4.768   2.438  12.036 -0.5788  0.0334  0.3711
17856TIP3    H274984   4.723   2.295  12.017  0.6173 -0.2080 -0.8364
17857TIP3   OH274985   2.294   4.929  14.138  0.0885  0.3300  0.0795
17857TIP3    H174986   2.336   5.000  14.187  1.2501 -0.3698  0.1593
17857TIP3    H274987   2.218   4.969  14.096  0.2906  1.4344  0.7294
17858TIP3   OH274988   1.647   5.207  15.666  0.0635 -0.0257 -0.1109
17858TIP3    H174989   1.672   5.297  15.688 -0.5913 -0.1180  1.1219
17858TIP3    H274990   1.584   5.183  15.735 -1.1043 -0.8135 -1.4070
17859TIP3   OH274991   1.360   1.009   2.806 -0.4052  0.4811 -0.2388
17859TIP3    H174992   1.336   0.923   2.772  0.3909 -0.0186  0.4274
17859TIP3    H274993   1.454   1.003   2.822 -0.6347  0.8600  1.4957
17860TIP3   OH274994   6.645   1.784   5.415 -0.4965 -0.3740 -0.1874
17860TIP3    H174995   6.650   1.880   5.421  1.5888 -0.4274 -0.2634
17860TIP3    H274996   6.727   1.759   5.372 -0.6743 -2.2569  0.4935
17861TIP3   OH274997   0.063   1.670  11.811  0.6529 -0.0239  0.0724
17861TIP3    H174998  -0.018   1.719  11.820 -0.3794 -1.7261  0.6593
17861TIP3    H274999   0.106   1.678  11.896 -0.7890 -2.1794  1.0811
17862TIP3   OH275000   4.557   2.529  13.866  0.0952 -0.1235 -0.1744
17862TIP3    H175001   4.521   2.607  13.824  0.8469 -0.7135 -1.9673
17862TIP3    H275002   4.640   2.513  13.822  0.6691 -1.0911  1.1849
17863TIP3   OH275003   0.327   0.023   4.989  0.4798  0.3814 -0.4412
17863TIP3    H175004   0.384   0.066   5.053 -1.7498  2.2508  0.4300
17863TIP3    H275005   0.339  -0.070   5.005  0.9225  0.7857  1.8674
17864TIP3   OH275006   4.235   2.140  13.593 -0.2282  0.0804  0.4232
17864TIP3    H175007   4.219   2.217  13.647  0.9183  0.1271  0.7200
17864TIP3    H275008   4.276   2.174  13.514  0.6890 -0.2396  0.7388
17865TIP3   OH275009   0.224   2.015   4.936  0.2394  0.6805  0.3569
17865TIP3    H175010   0.254   2.101   4.907  0.6773  0.9880  1.6453
17865TIP3    H275011   0.136   2.032   4.972  0.7171  0.7955  1.5130
17866TIP3   OH275012   0.980   1.131  13.027  0.4309 -0.2915  0.1336
17866TIP3    H175013   0.909   1.116  13.089 -1.5291  1.0021 -1.6737
17866TIP3    H275014   0.958   1.076  12.952  2.2855 -1.1633  0.1657
17867TIP3   OH275015   6.709   5.836   3.618  0.0731  0.2090  0.2750
17867TIP3    H175016   6.795   5.823   3.577 -0.7080 -0.7448 -1.1249
17867TIP3    H275017   6.683   5.749   3.646 -1.6693 -0.0716 -1.9263
17868TIP3   OH275018   6.457   6.670  14.367 -0.0773  0.6981  0.5826
17868TIP3    H175019   6.526   6.646  14.306 -0.0179  1.1664  0.4668
17868TIP3    H275020   6.397   6.595  14.365 -0.0031  0.6517  0.0591
17869TIP3   OH275021   2.430   1.826   0.653  0.2703 -0.1500 -0.0849
17869TIP3    H175022   2.412   1.738   0.621 -3.3874  0.7119 -0.9182
17869TIP3    H275023   2.407   1.823   0.746 -2.3316  0.3391 -0.6134
17870TIP3   OH275024   6.676   3.632   0.217  0.1532 -0.4286 -0.5582
17870TIP3    H175025   6.624   3.572   0.270 -1.2833  1.6690  0.5661
17870TIP3    H275026   6.621   3.652   0.141  0.9717 -1.1308 -1.3639
17871TIP3   OH275027   6.015   5.890  14.956 -0.0678 -0.9124  0.4230
17871TIP3    H175028   6.062   5.971  14.937  1.1608 -1.9686 -1.2851
17871TIP3    H275029   6.075   5.839  15.010 -0.4958 -1.0451  0.7829
17872TIP3   OH275030   4.507   1.004  10.538  0.0187 -0.1408  0.5849
17872TIP3    H175031   4.447   0.942  10.497 -0.0153  0.7576 -0.7901
17872TIP3    H275032   4.589   0.955  10.546  0.6601  0.1876 -2.5095
17873TIP3   OH275033   6.274   4.715  15.632 -0.0549 -0.5323  0.3296
17873TIP3    H175034   6.218   4.700  15.708 -1.3242 -3.8334 -1.0464
17873TIP3    H275035   6.267   4.633  15.582  1.4024  1.1640 -2.8971
17874TIP3   OH275036   0.996   0.655  16.783  0.1278 -0.5663 -0.5844
17874TIP3    H175037   0.964   0.733  16.736 -1.0318 -0.3900  0.4349
17874TIP3    H275038   0.995   0.586  16.717 -2.3066 -0.5385 -0.6820
17875TIP3   OH275039   1.900   0.495  16.820 -0.2758  0.0204  0.2874
17875TIP3    H175040   1.840   0.446  16.876  0.2161 -0.0429  0.7602
17875TIP3    H275041   1.967   0.529  16.879  0.8480 -0.9301 -0.3751
17876TIP3   OH275042   1.780   5.778  14.204 -0.2495 -0.0029  0.4840
17876TIP3    H175043   1.740   5.821  14.128  0.1455  0.9419  0.7948
17876TIP3    H275044   1.866   5.818  14.212 -0.8675  1.0721  2.3571
17877TIP3   OH275045   0.271   2.522  14.855 -0.4699 -0.0789  0.0839
17877TIP3    H175046   0.201   2.547  14.915 -0.9165  0.2683 -0.5728
17877TIP3    H275047   0.318   2.452  14.901 -0.7110  0.2778  0.8963
17878TIP3   OH275048   5.723   2.349  15.714  0.0830 -0.6988 -0.0370
17878TIP3    H175049   5.697   2.291  15.642  1.2492  2.6530 -3.5223
17878TIP3    H275050   5.818   2.340  15.719  0.1086 -0.2137  0.4628
17879TIP3   OH275051   1.348   4.866   1.834  0.4963 -0.0794 -0.1168
17879TIP3    H175052   1.288   4.799   1.866  1.2316 -0.2730  0.9249
17879TIP3    H275053   1.432   4.821   1.826  1.2617  0.9157  1.6229
17880TIP3   OH275054   3.965   6.713  15.179 -0.3582 -0.6281  0.3853
17880TIP3    H175055   3.876   6.723  15.144 -0.0413 -0.0534 -0.2674
17880TIP3    H275056   3.999   6.636  15.133 -0.0404 -0.0372 -0.3927
17881TIP3   OH275057   1.657   4.033  15.689  0.5587 -0.1421 -0.3113
17881TIP3    H175058   1.583   4.022  15.629  0.4339 -0.9608 -0.0231
17881TIP3    H275059   1.683   4.125  15.680 -0.3155  0.0770 -0.6191
17882TIP3   OH275060   3.976   3.420  14.908 -0.6939 -0.3674 -0.2009
17882TIP3    H175061   4.013   3.357  14.971 -2.7196 -1.3761  0.0480
17882TIP3    H275062   3.941   3.366  14.838 -0.9052  0.6099 -0.8668
17883TIP3   OH275063   4.291   6.326  11.757  0.1049  0.0876  0.4627
17883TIP3    H175064   4.215   6.355  11.807 -0.6927 -0.2077 -0.5574
17883TIP3    H275065   4.339   6.407  11.737 -1.2115  0.5743 -0.9156
17884TIP3   OH275066   0.525   0.194   5.326 -0.3997  0.4809 -0.0271
17884TIP3    H175067   0.521   0.269   5.385 -1.4143  0.2707  0.1877
17884TIP3    H275068   0.436   0.160   5.325 -0.2498  0.0876 -1.1691
17885TIP3   OH275069   2.176   2.780  12.976 -0.6840  0.0703 -0.0430
17885TIP3    H175070   2.131   2.731  12.908 -0.3973 -0.2256 -0.0225
17885TIP3    H275071   2.107   2.807  13.037 -0.7923 -0.6459  0.1523
17886TIP3   OH275072   3.384   2.834  16.200 -0.2524  0.3707  0.3675
17886TIP3    H175073   3.353   2.914  16.158  1.5106  1.9801  1.9595
17886TIP3    H275074   3.310   2.805  16.253 -1.4841 -0.0494 -1.5138
17887TIP3   OH275075   3.822   0.737   4.043  0.4136  0.3252  0.0936
17887TIP3    H175076   3.781   0.652   4.029  2.0122 -0.7059  1.2963
17887TIP3    H275077   3.831   0.745   4.138 -0.7987  2.4126  0.1021
17888TIP3   OH275078   3.804   1.249  15.495  0.5543 -0.6850 -0.2085
17888TIP3    H175079   3.763   1.335  15.492 -0.4550 -1.0103  2.1140
17888TIP3    H275080   3.758   1.203  15.564  1.1360 -3.1011 -1.3328
17889TIP3   OH275081   0.550   1.000  10.561 -0.1481 -0.8917  0.3510
17889TIP3    H175082   0.561   0.996  10.656 -3.4987 -1.0973  0.8405
17889TIP3    H275083   0.460   1.032  10.548  0.2058 -0.8208 -2.7620
17890TIP3   OH275084   1.216   4.266  14.396 -0.5964  0.5604 -0.4800
17890TIP3    H175085   1.183   4.269  14.307  1.1513 -0.4912 -1.2276
17890TIP3    H275086   1.283   4.334  14.400  2.1183 -1.8182 -1.3026
17891TIP3   OH275087   2.540   6.639   1.838 -0.3626  0.4646 -0.5513
17891TIP3    H175088   2.611   6.649   1.903 -1.4769 -0.4909  0.8873
17891TIP3    H275089   2.584   6.609   1.759  0.6792 -2.4049  0.9667
17892TIP3   OH275090   5.251   6.427   0.308  0.0142  0.4582 -0.5327
17892TIP3    H175091   5.304   6.411   0.386  1.2744  1.9189 -1.0415
17892TIP3    H275092   5.161   6.430   0.340  0.4799  0.6839  0.8115
17893TIP3   OH275093   3.021   1.269  14.451 -0.2324  0.3035 -0.5344
17893TIP3    H175094   3.032   1.177  14.477  1.3377  0.2763 -1.1677
17893TIP3    H275095   3.109   1.306  14.459 -0.8768  1.7883 -0.1887
17894TIP3   OH275096   2.761   1.660   0.805  0.0255 -0.4505  0.5039
17894TIP3    H175097   2.735   1.752   0.807 -1.7907 -0.6744 -3.4448
17894TIP3    H275098   2.716   1.621   0.880 -2.0419  1.3058  0.2760
17895TIP3   OH275099   5.100   5.171  15.323 -0.3333 -0.2978 -0.3433
17895TIP3    H175100   5.133   5.187  15.411  0.4553  0.4379 -0.7629
17895TIP3    H275101   5.134   5.084  15.300  0.9420  0.2489 -0.5903
17896TIP3   OH275102   5.152   4.919   0.533  0.2985 -0.1692 -0.7930
17896TIP3    H175103   5.190   4.831   0.532  0.2161 -0.2020 -1.0098
17896TIP3    H275104   5.133   4.935   0.626 -2.3358 -1.5460 -0.9785
17897TIP3   OH275105   5.176   6.693   0.489  0.5479 -0.6120 -0.3733
17897TIP3    H175106   5.143   6.623   0.433  0.4206 -1.1558  0.3741
17897TIP3    H275107   5.231   6.649   0.554  0.1631 -0.0683  0.3374
17898TIP3   OH275108   4.205   3.276  11.586 -0.0693  0.4283 -0.1466
17898TIP3    H175109   4.145   3.350  11.576  1.1908  1.6313  0.7565
17898TIP3    H275110   4.241   3.262  11.499  0.6159  1.7285 -0.0877
17899TIP3   OH275111   0.085   4.744   2.330 -0.3959 -0.6055  0.3109
17899TIP3    H175112   0.123   4.724   2.415 -0.6851  1.2604  0.9289
17899TIP3    H275113   0.159   4.771   2.276 -0.4413  0.0167  0.5555
17900TIP3   OH275114   4.550   0.072   6.595  0.4378 -0.4829  0.9469
17900TIP3    H175115   4.508   0.030   6.670  1.0087 -2.0171  0.4462
17900TIP3    H275116   4.575  -0.001   6.538  0.3050  0.6354 -0.5864
17901TIP3   OH275117   1.744   3.209  14.717  0.3642 -0.5775  0.0199
17901TIP3    H175118   1.651   3.187  14.719  0.4522 -1.2031 -1.5459
17901TIP3    H275119   1.753   3.282  14.778 -1.1060 -0.6700  0.3724
17902TIP3   OH275120   2.459   3.686  11.211  0.8157  0.3000  0.4905
17902TIP3    H175121   2.408   3.606  11.196  0.5097  0.0415  2.6291
17902TIP3    H275122   2.399   3.757  11.189  0.0620 -0.0287  1.4429
17903TIP3   OH275123   3.721   5.204  11.776  0.1328  0.0662  0.4504
17903TIP3    H175124   3.693   5.113  11.784  1.2653 -0.2027  1.5999
17903TIP3    H275125   3.772   5.206  11.695 -0.2375 -0.2138  0.2058
17904TIP3   OH275126   5.310   1.708   4.146 -0.2421  0.0314  0.2621
17904TIP3    H175127   5.246   1.777   4.130  0.0238  0.1284 -0.4008
17904TIP3    H275128   5.395   1.750   4.131  0.0113  0.0163  1.5238
17905TIP3   OH275129   5.858   5.635  16.855 -0.1328 -0.5243  0.1098
17905TIP3    H175130   5.819   5.629  16.943  0.8974  2.9138  0.9367
17905TIP3    H275131   5.783   5.651  16.797 -0.7121 -1.8800  0.4295
17906TIP3   OH275132   1.243   0.156   0.099  0.2383  0.1307  0.0315
17906TIP3    H175133   1.242   0.180   0.191  0.0971  1.8491 -0.3746
17906TIP3    H275134   1.248   0.240   0.052  1.4320 -0.7398 -1.5040
17907TIP3   OH275135   6.397   1.801  12.053 -0.1566  0.0244 -0.1794
17907TIP3    H175136   6.403   1.716  12.097 -0.9916  0.0434 -0.0253
17907TIP3    H275137   6.424   1.865  12.119 -0.4081 -0.0408 -0.0125
17908TIP3   OH275138   0.823   2.905  11.407  0.3468 -0.3329 -0.0693
17908TIP3    H175139   0.913   2.910  11.376  0.5474 -2.2963  0.0753
17908TIP3    H275140   0.810   2.813  11.428 -1.5446  0.0004  0.4012
17909TIP3   OH275141   2.986   1.048  16.763  0.3402  0.6037 -0.4897
17909TIP3    H175142   3.058   1.011  16.814  0.7241  1.5976 -0.2773
17909TIP3    H275143   2.926   1.084  16.829 -0.3485 -0.1781 -0.6656
17910TIP3   OH275144   4.845   5.547   4.604 -0.2320 -0.3360 -0.1232
17910TIP3    H175145   4.788   5.485   4.648 -1.3971  1.9700  1.8773
17910TIP3    H275146   4.925   5.548   4.656  0.4465 -1.2914 -1.1070
17911TIP3   OH275147   0.525   3.509  12.129 -0.1645  0.5833 -0.1537
17911TIP3    H175148   0.486   3.490  12.214  0.5312  1.2189  0.3145
17911TIP3    H275149   0.480   3.450  12.068 -1.4746  0.9266  0.4484
17912TIP3   OH275150   2.592   6.454  13.993 -0.4363  0.3775 -0.7778
17912TIP3    H175151   2.649   6.520  13.952  0.9422 -1.8296 -2.6611
17912TIP3    H275152   2.538   6.421  13.921 -0.7265 -0.9065  0.0008
17913TIP3   OH275153   5.657   3.941  10.718  0.0099  0.1145 -0.0085
17913TIP3    H175154   5.678   3.882  10.645 -0.0691 -0.6033  0.5308
17913TIP3    H275155   5.626   4.021  10.676  2.4082  0.7108 -0.8394
17914TIP3   OH275156   5.795   0.366   0.183  0.3581  0.0357 -1.0133
17914TIP3    H175157   5.888   0.352   0.199  0.8937 -0.4838 -3.9970
17914TIP3    H275158   5.763   0.411   0.261  2.6245 -1.6232  0.9981
17915TIP3   OH275159   5.889   5.731  14.205  0.1287 -0.5007 -0.5737
17915TIP3    H175160   5.925   5.717  14.292  0.4295  0.1503 -0.5865
17915TIP3    H275161   5.814   5.672  14.200  0.8596 -1.4745 -0.3429
17916TIP3   OH275162   0.470   0.442   4.244 -0.3931  0.1657  0.4279
17916TIP3    H175163   0.530   0.435   4.170  0.3795 -0.6294  1.1032
17916TIP3    H275164   0.471   0.535   4.267  1.1136  0.0698  0.8406
17917TIP3   OH275165   6.585   0.621   0.278 -0.4875  0.5643 -0.0567
17917TIP3    H175166   6.592   0.593   0.187 -0.5021 -0.0330  0.1243
17917TIP3    H275167   6.515   0.567   0.315  1.3537 -1.2287  1.0544
17918TIP3   OH275168   1.362   0.339   3.516 -0.0200 -0.0544  0.0197
17918TIP3    H175169   1.307   0.280   3.566  0.1173  0.2890  0.5864
17918TIP3    H275170   1.323   0.426   3.529  0.6851  0.2015  0.4791
17919TIP3   OH275171   6.516   5.646   0.054  0.2030  0.2250  0.2804
17919TIP3    H175172   6.464   5.582   0.103  0.3190  0.2143  0.3888
17919TIP3    H275173   6.535   5.602  -0.029  0.2741  0.1234  0.3510
17920TIP3   OH275174   6.009   6.581   1.907  0.1158  0.1731  0.7338
17920TIP3    H175175   6.088   6.634   1.895  0.1366 -0.0078  0.0809
17920TIP3    H275176   6.038   6.509   1.964  0.6892 -0.4619 -0.3208
17921TIP3   OH275177   3.278   2.831   4.618  0.2087  0.0534  0.0786
17921TIP3    H175178   3.226   2.907   4.645 -0.0860  0.1838 -0.8109
17921TIP3    H275179   3.264   2.766   4.687 -1.2789  0.0315 -0.2157
17922TIP3   OH275180   0.297   6.281   3.741  0.0670 -0.5484 -0.3833
17922TIP3    H175181   0.237   6.228   3.688 -0.4087 -1.2998  0.8370
17922TIP3    H275182   0.272   6.371   3.724 -1.7121 -0.8569  0.3781
17923TIP3   OH275183   4.374   3.825  12.687 -0.0224  0.2595  0.2825
17923TIP3    H175184   4.375   3.773  12.768 -0.0236  0.6553  0.5360
17923TIP3    H275185   4.462   3.813  12.650 -0.0032  0.1250  0.3709
17924TIP3   OH275186   2.119   4.812  11.775 -0.1721  0.3412 -0.0509
17924TIP3    H175187   2.090   4.893  11.734 -0.5655 -0.5746 -1.7086
17924TIP3    H275188   2.212   4.826  11.793 -0.2874  1.2232 -0.1264
17925TIP3   OH275189   1.111   0.893   0.658 -0.0617 -0.4866 -0.4115
17925TIP3    H175190   1.205   0.878   0.666  0.2547  1.5420  0.5029
17925TIP3    H275191   1.096   0.899   0.564  0.4102 -2.3937 -0.6380
17926TIP3   OH275192   2.111   3.967   5.659 -0.0861 -0.2484 -0.2831
17926TIP3    H175193   2.155   4.052   5.664 -1.3032  0.5041 -1.7528
17926TIP3    H275194   2.075   3.954   5.747  1.7026 -0.1859  0.5239
17927TIP3   OH275195   1.091   2.523  16.272 -0.4185  0.0058 -0.2821
17927TIP3    H175196   1.183   2.508  16.296 -0.6382 -0.2534  0.4563
17927TIP3    H275197   1.050   2.437  16.282 -1.2773  0.5844  1.9895
17928TIP3   OH275198   0.045   4.964   2.985 -0.0540 -0.2965 -0.0996
17928TIP3    H175199  -0.029   4.979   3.043 -0.2256  1.2181 -0.6748
17928TIP3    H275200   0.111   5.027   3.013  0.8295 -1.2593  0.0487
17929TIP3   OH275201   1.564   3.888   6.442 -0.3232 -0.2204 -0.0756
17929TIP3    H175202   1.632   3.953   6.458  0.5666 -1.2066  0.2647
17929TIP3    H275203   1.512   3.925   6.371 -0.1640  1.0964  0.4673
17930TIP3   OH275204   4.571   5.493  15.487  0.3129 -0.0904  0.1064
17930TIP3    H175205   4.627   5.534  15.552  0.2339 -0.2264  0.2600
17930TIP3    H275206   4.508   5.441  15.538 -0.1103  0.2590 -0.0521
17931TIP3   OH275207   1.756   6.622   2.692 -0.4987  0.4221  0.4852
17931TIP3    H175208   1.685   6.652   2.749  0.6789 -0.7910  2.6996
17931TIP3    H275209   1.836   6.656   2.732  0.3811 -0.3979 -0.5000
17932TIP3   OH275210   4.347   5.422  14.353 -0.2671 -0.4280  0.4410
17932TIP3    H175211   4.274   5.482  14.373 -1.2775 -1.7724  0.9459
17932TIP3    H275212   4.321   5.379  14.272  0.7180  0.1838 -0.2190
17933TIP3   OH275213   2.658   0.148  16.894 -0.3481  0.3067  0.2825
17933TIP3    H175214   2.586   0.176  16.951  1.2118  0.2455  2.4289
17933TIP3    H275215   2.699   0.230  16.865 -0.7614  0.3307 -0.2381
17934TIP3   OH275216   5.259   0.732   2.588 -0.1080 -0.5179  0.1074
17934TIP3    H175217   5.249   0.737   2.493 -0.0375 -2.6939 -0.0454
17934TIP3    H275218   5.170   0.722   2.622 -0.0668 -0.5004  0.2220
17935TIP3   OH275219   6.077   6.156  13.442  0.1149 -0.1296 -0.7274
17935TIP3    H175220   6.139   6.182  13.510 -0.2126  0.1879 -0.5520
17935TIP3    H275221   6.034   6.078  13.477 -0.5544  0.4392 -0.2698
17936TIP3   OH275222   4.160   6.083   0.914 -0.1298  0.1568  0.1059
17936TIP3    H175223   4.155   6.071   1.008  2.2385  2.6971  0.6735
17936TIP3    H275224   4.071   6.106   0.887 -0.6670  0.1940  1.8281
17937TIP3   OH275225   3.242   6.052  15.731 -0.3741  0.2878 -0.1987
17937TIP3    H175226   3.216   6.103  15.655  1.6416  1.3014 -0.2757
17937TIP3    H275227   3.256   6.117  15.800  1.9701 -0.1031 -0.2232
17938TIP3   OH275228   5.110   3.740   4.492  0.4221 -0.2716 -0.1213
17938TIP3    H175229   5.136   3.714   4.580 -0.9149 -1.4124 -0.0350
17938TIP3    H275230   5.142   3.671   4.435 -0.2552 -0.4387 -0.3069
17939TIP3   OH275231   2.198   4.887  10.788  0.2669 -0.3513  0.1502
17939TIP3    H175232   2.130   4.826  10.817 -0.5115  0.2641 -0.3563
17939TIP3    H275233   2.270   4.873  10.849 -0.5036 -0.6532  1.0084
17940TIP3   OH275234   2.543   4.298  11.248  0.5987 -0.2309  0.1838
17940TIP3    H175235   2.513   4.207  11.252  0.5378 -0.1764  1.0274
17940TIP3    H275236   2.576   4.308  11.158 -1.8722 -0.3006 -0.8143
17941TIP3   OH275237   6.102   0.210  13.887 -0.4455 -0.3523 -0.4151
17941TIP3    H175238   6.055   0.186  13.808 -0.2486 -1.1449 -0.2978
17941TIP3    H275239   6.072   0.299  13.907 -1.4314 -0.6193 -0.6714
17942TIP3   OH275240   2.229   0.404  11.777  0.2896  0.2364  0.2861
17942TIP3    H175241   2.288   0.391  11.703 -0.8065 -1.2358 -0.3802
17942TIP3    H275242   2.142   0.412  11.738  0.0287  2.8704  1.2133
17943TIP3   OH275243   0.590   0.622   2.294  0.5764 -0.5014  0.1430
17943TIP3    H175244   0.602   0.557   2.224  0.6074 -0.4377  0.0893
17943TIP3    H275245   0.499   0.609   2.323  0.0414  0.5175 -0.9748
17944TIP3   OH275246   6.521   3.135   0.246  0.8701  0.1296 -0.6030
17944TIP3    H175247   6.571   3.175   0.317  2.4365 -0.1566 -1.4997
17944TIP3    H275248   6.535   3.041   0.257 -0.8314 -0.0865  0.0743
17945TIP3   OH275249   0.598   1.953  14.957 -0.4814 -0.0157  0.0611
17945TIP3    H175250   0.594   2.042  14.991 -1.4553  0.1548 -0.4686
17945TIP3    H275251   0.595   1.963  14.861  0.5876 -0.5610 -0.0439
17946TIP3   OH275252   0.941   6.316  16.599  0.0278  0.1437  0.3391
17946TIP3    H175253   0.942   6.250  16.530 -0.2768 -0.8924  1.3029
17946TIP3    H275254   1.014   6.374  16.578  0.9437 -1.0940  0.0288
17947TIP3   OH275255   1.299   4.981   4.956 -0.4323  0.8740  0.6656
17947TIP3    H175256   1.374   5.034   4.928 -0.2032 -0.1764 -0.8954
17947TIP3    H275257   1.338   4.904   4.998 -0.5995  0.2682 -0.2547
17948TIP3   OH275258   4.296   3.368   3.753  0.5078 -0.3787 -0.0353
17948TIP3    H175259   4.361   3.340   3.818  1.3693 -0.0467 -0.7207
17948TIP3    H275260   4.347   3.377   3.672 -0.7125 -1.7044 -0.9875
17949TIP3   OH275261   6.563   3.354   4.631  0.5750 -0.0420  0.1662
17949TIP3    H175262   6.651   3.318   4.638  1.4485  2.0822  0.8330
17949TIP3    H275263   6.555   3.382   4.540  1.1704  1.1312  0.4673
17950TIP3   OH275264   4.168   4.024  16.392  0.0167  0.1797  0.3603
17950TIP3    H175265   4.114   4.071  16.329  0.8705 -0.1245 -0.6307
17950TIP3    H275266   4.254   4.066  16.385  0.1018  0.1891  1.3845
17951TIP3   OH275267   0.872   1.445   0.613  0.0917  0.4226  0.1582
17951TIP3    H175268   0.860   1.535   0.643 -0.3490  0.1980  0.6692
17951TIP3    H275269   0.967   1.437   0.599  0.0914  1.0730 -0.2593
17952TIP3   OH275270   5.586   2.891   2.522 -0.0242  0.1215 -0.2832
17952TIP3    H175271   5.550   2.806   2.497 -0.7479  0.5784 -0.8265
17952TIP3    H275272   5.509   2.944   2.542  0.3202  1.1499 -1.5707
17953TIP3   OH275273   4.867   1.182   4.914 -0.1983 -0.1788 -0.0734
17953TIP3    H175274   4.797   1.180   4.848 -0.1178  0.4930 -0.1876
17953TIP3    H275275   4.821   1.185   4.998 -0.3077 -2.1786 -0.0324
17954TIP3   OH275276   5.949   0.902  11.372 -0.1368 -0.2610 -0.3103
17954TIP3    H175277   5.907   0.905  11.286 -1.4025 -1.4267  0.2205
17954TIP3    H275278   5.909   0.974  11.421  0.6440  0.4543 -0.7027
17955TIP3   OH275279   0.864   6.505  11.905  0.0655  0.1717 -0.1717
17955TIP3    H175280   0.861   6.563  11.829  0.4970  1.8571  1.0587
17955TIP3    H275281   0.913   6.554  11.971  0.8629 -1.7823  0.7728
17956TIP3   OH275282   6.675   6.001  13.478  0.5033 -0.2308 -0.0158
17956TIP3    H175283   6.755   6.052  13.466 -1.0554  2.3068 -0.4317
17956TIP3    H275284   6.688   5.954  13.561  2.2631  0.3856  0.0965
17957TIP3   OH275285   2.908   1.308  15.004 -0.0886  0.2245 -0.4982
17957TIP3    H175286   2.951   1.372  14.947 -0.7273  1.3828  0.2720
17957TIP3    H275287   2.968   1.297  15.078 -0.5492  0.9593  0.0072
17958TIP3   OH275288   4.896   2.490  14.929  0.0226 -0.0093 -0.6532
17958TIP3    H175289   4.918   2.582  14.939  2.4920 -0.4635 -1.4349
17958TIP3    H275290   4.915   2.451  15.015  0.5242 -0.0670 -0.7881
17959TIP3   OH275291   6.808   1.141   5.489  0.3942 -0.6710 -0.0905
17959TIP3    H175292   6.791   1.104   5.575  1.9335 -0.3307  0.3941
17959TIP3    H275293   6.761   1.224   5.488  2.0693  0.3567  1.2818
17960TIP3   OH275294   5.282   4.803  12.361  0.2682  0.6273  0.2720
17960TIP3    H175295   5.305   4.831  12.272  1.4610  0.4481  0.5006
17960TIP3    H275296   5.277   4.884  12.411  0.6336  0.6574  0.2625
17961TIP3   OH275297   4.695   0.968   4.807 -0.7257  0.2235 -0.0050
17961TIP3    H175298   4.633   1.035   4.778 -0.7746  0.4565  0.6188
17961TIP3    H275299   4.665   0.945   4.895 -1.4141 -1.4682 -0.6481
17962TIP3   OH275300   6.265   6.180   1.475 -0.5028 -0.3283  0.2484
17962TIP3    H175301   6.321   6.252   1.443 -0.1851 -1.0217 -0.8097
17962TIP3    H275302   6.324   6.105   1.482 -1.0861 -0.7980  0.1725
17963TIP3   OH275303   6.699   6.233  15.647  0.4286  0.2786  0.2049
17963TIP3    H175304   6.682   6.260  15.737 -2.0515 -1.1661  0.2438
17963TIP3    H275305   6.687   6.312  15.595  0.1457  0.7508  0.9803
17964TIP3   OH275306   3.990   2.156  13.362 -0.4141 -0.0831  0.6341
17964TIP3    H175307   4.065   2.185  13.309 -0.3701 -0.4304  0.5069
17964TIP3    H275308   3.923   2.222  13.346  0.5131  1.3718  2.2918
17965TIP3   OH275309   6.377   3.061   4.012 -0.0777  0.1884 -0.0245
17965TIP3    H175310   6.448   3.055   4.076 -1.1356  0.7667  1.2594
17965TIP3    H275311   6.350   3.153   4.015 -2.1818 -0.4056  1.0301
17966TIP3   OH275312   2.096   2.803  11.318 -0.6992 -0.0194 -0.0227
17966TIP3    H175313   2.098   2.796  11.414  1.2370 -1.6708 -0.1074
17966TIP3    H275314   2.159   2.736  11.288 -1.9154 -0.1620 -2.4866
17967TIP3   OH275315   2.799   0.770   4.804 -0.3934  0.6103 -0.0911
17967TIP3    H175316   2.735   0.726   4.749 -1.4729  1.3970  0.5012
17967TIP3    H275317   2.756   0.851   4.832  0.0397  0.1714  2.0314
17968TIP3   OH275318   3.153   2.447  15.220 -0.4668  0.2755  0.0580
17968TIP3    H175319   3.079   2.400  15.258  0.2679 -0.9913 -0.0250
17968TIP3    H275320   3.128   2.540  15.225 -2.3528 -0.1559 -0.6041
17969TIP3   OH275321   2.106   3.068  12.657  1.1716  0.0524  0.1166
17969TIP3    H175322   2.139   3.017  12.582  1.8877  1.8422 -0.8376
17969TIP3    H275323   2.180   3.121  12.684  0.1326  1.4339  0.3302
17970TIP3   OH275324   6.791   6.515  16.322  0.3259  0.3181 -0.1129
17970TIP3    H175325   6.760   6.462  16.396  0.8315  1.5599  1.0463
17970TIP3    H275326   6.886   6.512  16.329  0.3630  1.8428  0.3535
17971TIP3   OH275327   4.695   5.667   3.492 -0.6221  0.4386  0.5141
17971TIP3    H175328   4.668   5.576   3.481 -1.4584  0.7212  0.1491
17971TIP3    H275329   4.739   5.689   3.409 -0.8565  0.5142  0.4094
17972TIP3   OH275330   6.147   3.522   1.804  0.5997  0.1515 -0.3365
17972TIP3    H175331   6.061   3.563   1.810 -0.3517 -1.6878 -0.5986
17972TIP3    H275332   6.184   3.554   1.722  1.9200  3.9956  1.5202
17973TIP3   OH275333   3.416   2.705   0.431  0.3021  0.2525  0.2723
17973TIP3    H175334   3.405   2.761   0.354 -1.0827 -1.1481 -0.6048
17973TIP3    H275335   3.440   2.620   0.395  1.5292  0.0457  1.5253
17974TIP3   OH275336   0.708   6.424   0.023 -0.2713 -0.1084 -0.1517
17974TIP3    H175337   0.616   6.433   0.048 -0.1717  2.2457 -0.4558
17974TIP3    H275338   0.705   6.386  -0.065 -1.0689  1.7800 -0.9739
17975TIP3   OH275339   0.358   1.510  11.297 -0.0058  0.3133 -0.7274
17975TIP3    H175340   0.284   1.558  11.334 -0.1408 -0.5878  0.2064
17975TIP3    H275341   0.334   1.495  11.206 -1.0617 -0.1156 -0.3991
17976TIP3   OH275342   0.412   4.887   0.159  0.4622  0.5318 -0.1884
17976TIP3    H175343   0.403   4.793   0.143  0.9725  0.4626 -0.0731
17976TIP3    H275344   0.446   4.922   0.077 -2.1007  1.0212 -1.1538
17977TIP3   OH275345   4.127   0.865   5.498 -0.5260  0.6277  0.1350
17977TIP3    H175346   4.050   0.917   5.519 -0.6870  0.4137  0.0831
17977TIP3    H275347   4.199   0.911   5.540 -0.8377  0.2014  1.1659
17978TIP3   OH275348   1.186   1.788  12.763  0.3728 -0.1599  0.3423
17978TIP3    H175349   1.233   1.734  12.827  0.8647  0.5204  0.5744
17978TIP3    H275350   1.193   1.877  12.798  0.1231  0.1403 -0.3542
17979TIP3   OH275351   1.254   1.187   0.187 -0.2448  0.5587  0.7963
17979TIP3    H175352   1.240   1.116   0.124 -0.8858 -0.2654  1.8299
17979TIP3    H275353   1.345   1.214   0.174 -0.2366  0.0985 -0.1684
17980TIP3   OH275354   1.168   2.683  15.926 -0.0206  0.5557 -0.9548
17980TIP3    H175355   1.219   2.733  15.990 -0.1765  1.2028 -1.3227
17980TIP3    H275356   1.186   2.726  15.842 -1.4203  1.0002 -1.0471
17981TIP3   OH275357   4.554   0.885   0.469 -0.4492 -0.4950 -0.3440
17981TIP3    H175358   4.626   0.831   0.501  0.7610  0.1113 -1.9071
17981TIP3    H275359   4.505   0.909   0.547 -0.3693 -2.8869  0.5185
17982TIP3   OH275360   6.220   0.691  12.533  0.2231  0.1662  0.0796
17982TIP3    H175361   6.142   0.645  12.565 -0.1733  0.3776 -0.5592
17982TIP3    H275362   6.288   0.669  12.596 -0.0001 -1.1562 -0.1262
17983TIP3   OH275363   1.167   5.922   4.424 -0.4159  0.5894  0.0841
17983TIP3    H175364   1.254   5.883   4.411 -0.4850 -0.1777  1.7051
17983TIP3    H275365   1.110   5.848   4.442 -1.7263  0.9504 -2.1510
17984TIP3   OH275366   2.893   1.210  11.945  0.9033 -0.2401  0.3803
17984TIP3    H175367   2.867   1.156  12.020  1.6461 -0.5154  0.4427
17984TIP3    H275368   2.851   1.295  11.961 -0.6921 -0.9248  0.0355
17985TIP3   OH275369   1.719   5.504  12.101  0.5062  0.6635 -0.6110
17985TIP3    H175370   1.739   5.427  12.154 -1.9666  0.5625  0.2871
17985TIP3    H275371   1.701   5.470  12.014 -1.6743  0.0102  0.0365
17986TIP3   OH275372   2.198   4.588   0.463 -0.0689  0.6588 -0.5074
17986TIP3    H175373   2.178   4.510   0.411  3.9342 -0.8642 -0.1528
17986TIP3    H275374   2.161   4.661   0.413 -1.8361 -1.2496 -2.1411
17987TIP3   OH275375   4.991   3.911  11.701  0.3489 -0.0098 -0.2756
17987TIP3    H175376   5.047   3.958  11.763 -0.6328  0.0357  0.5936
17987TIP3    H275377   5.053   3.862  11.646  1.2756  0.6056  0.1871
17988TIP3   OH275378   6.216   0.732   5.478  0.0749  0.0940  0.4740
17988TIP3    H175379   6.301   0.773   5.463  0.0291  0.3244  0.8249
17988TIP3    H275380   6.217   0.709   5.571 -0.7941  1.3802  0.8152
17989TIP3   OH275381   0.826   4.856  16.262 -0.0231  0.9204  0.4774
17989TIP3    H175382   0.762   4.888  16.326  0.8370 -1.0833  2.4936
17989TIP3    H275383   0.775   4.803  16.201 -0.4434 -0.2887  1.8019
17990TIP3   OH275384   4.756   0.951   2.266 -0.3114  0.1640 -0.3961
17990TIP3    H175385   4.787   1.039   2.244  0.8324 -0.0837  0.1493
17990TIP3    H275386   4.660   0.959   2.268 -0.3879  0.7789 -2.9139
17991TIP3   OH275387   1.800   2.402   5.521  0.5100  0.2695 -0.5073
17991TIP3    H175388   1.862   2.430   5.453  1.7288 -1.1024  0.0006
17991TIP3    H275389   1.854   2.379   5.596 -0.6691 -0.3195  0.1959
17992TIP3   OH275390   1.298   2.534   5.221  0.3471 -0.0691  0.5732
17992TIP3    H175391   1.383   2.578   5.212 -0.4838  1.2255 -1.8415
17992TIP3    H275392   1.252   2.583   5.289  0.8733  0.3561  0.6234
17993TIP3   OH275393   2.051   4.103  13.496  0.1217  0.1021  0.6223
17993TIP3    H175394   2.077   4.181  13.449 -0.2222 -1.0914 -1.6967
17993TIP3    H275395   1.995   4.135  13.567 -0.5984  1.9102 -0.6967
17994TIP3   OH275396   0.533   4.418   0.044 -0.6352 -0.7367  0.1026
17994TIP3    H175397   0.475   4.440   0.117  0.7720 -2.0481  1.7042
17994TIP3    H275398   0.570   4.333   0.067 -0.4976 -1.4580 -2.4149
17995TIP3   OH275399   3.967   1.705   1.839  0.0475 -0.5149 -0.1800
17995TIP3    H175400   4.023   1.729   1.913 -1.2725 -0.5461  0.8740
17995TIP3    H275401   4.012   1.631   1.797  2.4264  1.4793 -1.3990
17996TIP3   OH275402   6.773   2.722  16.575 -0.6189  0.1211  0.9444
17996TIP3    H175403   6.858   2.755  16.545 -0.1233 -1.7708  0.0662
17996TIP3    H275404   6.714   2.740  16.502 -0.2676 -1.1500  0.3149
17997TIP3   OH275405   0.896   3.070  11.787  0.1045  0.7125 -0.2446
17997TIP3    H175406   0.842   3.136  11.743 -1.1050 -1.3340 -2.0201
17997TIP3    H275407   0.937   3.021  11.716  1.4143 -0.1024  1.0244
17998TIP3   OH275408   0.443   5.986  15.922  0.1951  0.6360  0.2977
17998TIP3    H175409   0.532   5.978  15.889  0.6491  1.5570  1.2497
17998TIP3    H275410   0.440   6.072  15.964 -1.2722  0.8148 -0.0952
17999TIP3   OH275411   5.301   0.936   0.945 -0.0718 -0.6884 -0.5798
17999TIP3    H175412   5.256   0.890   0.874 -0.1120 -0.8632 -0.4433
17999TIP3    H275413   5.246   0.920   1.022 -0.4918  0.2135 -0.6778
18000TIP3   OH275414   2.184   5.148  15.501  0.0691  0.3483  0.0306
18000TIP3    H175415   2.154   5.204  15.573  0.3878  1.6105 -0.7997
18000TIP3    H275416   2.237   5.205  15.446 -1.4942 -0.1553 -2.1038
18001TIP3   OH275417   1.828   3.165   2.579 -0.3867 -0.2698 -0.0379
18001TIP3    H175418   1.748   3.218   2.577 -0.5378 -0.4682  0.5636
18001TIP3    H275419   1.805   3.086   2.529 -0.8717 -0.7353  0.8969
18002TIP3   OH275420   3.567   2.868  15.554  0.3510  0.0006  0.6626
18002TIP3    H175421   3.500   2.830  15.498 -0.5223 -1.5954  2.6451
18002TIP3    H275422   3.575   2.806  15.627  2.3947  1.2752  1.6146
18003TIP3   OH275423   1.736   3.784   2.713  0.0033  0.1986  0.2961
18003TIP3    H175424   1.652   3.793   2.759  0.2056 -1.0749  0.9491
18003TIP3    H275425   1.714   3.735   2.633  0.0914  0.0130  0.3851
18004TIP3   OH275426   0.369   1.956   5.388  0.1640  0.7906  0.2648
18004TIP3    H175427   0.325   1.913   5.461 -1.2629  0.0493 -0.9602
18004TIP3    H275428   0.359   2.050   5.404  0.4750  0.6413  1.3528
18005TIP3   OH275429   4.437   3.936   5.205 -0.0718  0.6901 -0.0374
18005TIP3    H175430   4.453   3.842   5.213  0.5417  0.7460 -0.5453
18005TIP3    H275431   4.370   3.955   5.271 -0.4872 -0.1746 -0.1928
18006TIP3   OH275432   4.048   2.572  13.872  0.5297  0.0558 -0.1423
18006TIP3    H175433   3.969   2.534  13.835  0.7308 -0.7656  0.2290
18006TIP3    H275434   4.043   2.551  13.966  0.2291  1.7308  0.2492
18007TIP3   OH275435   2.702   4.560  15.376  0.0619  0.1650  0.2532
18007TIP3    H175436   2.764   4.633  15.378  0.4269 -0.1327  0.0965
18007TIP3    H275437   2.755   4.484  15.402 -0.1721 -0.1400 -0.1466
18008TIP3   OH275438   2.890   2.414   2.302  0.6222 -0.0846 -0.3591
18008TIP3    H175439   2.984   2.394   2.310  0.1219 -2.4916  0.2215
18008TIP3    H275440   2.859   2.353   2.235 -0.6300  0.3609 -0.2032
18009TIP3   OH275441   3.077   0.603   1.837 -0.0918  0.0530  0.2876
18009TIP3    H175442   3.065   0.641   1.750 -0.8603 -0.0344  0.3563
18009TIP3    H275443   2.991   0.571   1.863 -0.3901  1.9900  1.9789
18010TIP3   OH275444   3.648   5.298  12.984  0.5894 -0.1260 -0.2114
18010TIP3    H175445   3.642   5.207  13.014  1.2350 -0.1987 -0.2795
18010TIP3    H275446   3.560   5.333  12.996 -0.0067 -1.1265 -1.3825
18011TIP3   OH275447   6.728   1.304  12.881  0.5007  0.4787  0.5304
18011TIP3    H175448   6.654   1.283  12.939  1.0835 -0.8934  0.8105
18011TIP3    H275449   6.791   1.348  12.938  0.3898  0.6214  0.5463
18012TIP3   OH275450   3.748   6.077  13.180  0.1277 -0.0239  0.3895
18012TIP3    H175451   3.706   6.157  13.213 -1.0243 -1.0387  1.4852
18012TIP3    H275452   3.719   6.071  13.089  1.0282  1.3007 -0.0151
18013TIP3   OH275453   5.244   3.593   2.488 -0.8040  0.2364 -0.6382
18013TIP3    H175454   5.174   3.597   2.422 -0.6208  1.3785 -0.7821
18013TIP3    H275455   5.228   3.511   2.534 -2.6596  0.7900 -0.2177
18014TIP3   OH275456   6.144   5.950   2.424  0.6422 -0.4681  0.6984
18014TIP3    H175457   6.195   5.909   2.494  1.0679  0.1158  0.7425
18014TIP3    H275458   6.055   5.920   2.439  0.7861 -0.6196  1.2950
18015TIP3   OH275459   2.520   0.802   2.808  0.1033  0.1103  0.0711
18015TIP3    H175460   2.464   0.816   2.732 -1.0727  0.8398  1.0380
18015TIP3    H275461   2.609   0.809   2.773 -0.4060  0.5111 -1.2141
18016TIP3   OH275462   4.121   0.743  12.120  0.3127 -0.5263 -0.0197
18016TIP3    H175463   4.143   0.833  12.096  0.3706 -0.5777 -0.1560
18016TIP3    H275464   4.077   0.707  12.044 -1.6850  0.0663  0.7785
18017TIP3   OH275465   0.636   2.077   5.580  0.1113  0.0508 -0.0500
18017TIP3    H175466   0.573   2.149   5.586 -1.3643 -1.3028  1.5803
18017TIP3    H275467   0.719   2.117   5.608 -0.7478  1.0570  1.1970
18018TIP3   OH275468   5.889   1.332   1.622 -0.4534  0.3883  0.4379
18018TIP3    H175469   5.932   1.252   1.593 -2.1984  0.0046 -1.2484
18018TIP3    H275470   5.797   1.309   1.632 -1.4946  2.6258 -2.3923
18019TIP3   OH275471   1.247   1.229   1.354 -0.0511  0.2930  0.3957
18019TIP3    H175472   1.285   1.301   1.405 -1.1399  0.8805  0.4072
18019TIP3    H275473   1.252   1.260   1.263  0.2674 -0.0009  0.3082
18020TIP3   OH275474   2.029   4.182  16.779 -0.4278  0.3666  0.6216
18020TIP3    H175475   2.018   4.165  16.872  1.2318  1.0551  0.9732
18020TIP3    H275476   2.004   4.274  16.768  1.1200  0.8380  0.7616
18021TIP3   OH275477   6.528   2.123   5.115 -0.4220  0.0958 -0.1198
18021TIP3    H175478   6.611   2.167   5.099 -1.6623  2.5023 -0.3246
18021TIP3    H275479   6.488   2.116   5.028 -0.5661 -0.8426  0.0114
18022TIP3   OH275480   4.507   0.291  10.435  0.2993  0.1048  0.5984
18022TIP3    H175481   4.453   0.369  10.427 -0.5661 -0.6932 -3.0454
18022TIP3    H275482   4.595   0.325  10.454  0.0199  2.0781 -1.1973
18023TIP3   OH275483   6.567   6.533   1.750  0.0981 -1.2648 -0.5809
18023TIP3    H175484   6.609   6.459   1.795  0.2974 -0.1100  1.2020
18023TIP3    H275485   6.481   6.541   1.791 -0.0505 -0.6973 -0.9872
18024TIP3   OH275486   5.455   0.053  14.749  0.2782 -0.3606 -0.2123
18024TIP3    H175487   5.398   0.057  14.672  0.9482 -0.3128 -0.7177
18024TIP3    H275488   5.473  -0.040  14.761 -1.2245 -0.5354  0.9576
18025TIP3   OH275489   1.005   4.536  12.471 -0.4346  0.3830 -0.0840
18025TIP3    H175490   1.033   4.492  12.551 -0.8891 -0.8160 -0.5667
18025TIP3    H275491   1.057   4.495  12.401  1.5007  2.8277 -0.2326
18026TIP3   OH275492   3.356   3.250   4.353 -0.4306 -0.7188  0.5639
18026TIP3    H175493   3.361   3.240   4.258 -0.7535 -1.2951  0.6084
18026TIP3    H275494   3.267   3.281   4.369  0.3469  1.7739  0.4815
18027TIP3   OH275495   1.525   6.710   1.802 -0.2290 -0.4849  0.6364
18027TIP3    H175496   1.547   6.704   1.895  1.0454  0.7712  0.4487
18027TIP3    H275497   1.607   6.689   1.757 -0.5693 -0.0907 -0.1839
18028TIP3   OH275498   3.521   6.024   0.132 -1.0187 -0.2803  0.4887
18028TIP3    H175499   3.533   6.108   0.178  3.2728 -0.6042  0.3780
18028TIP3    H275500   3.553   6.041   0.043  0.6918 -2.1247  0.6764
18029TIP3   OH275501   1.734   4.789  13.053  0.3228  0.0339  0.0007
18029TIP3    H175502   1.767   4.878  13.048  0.1467  0.0175 -1.9905
18029TIP3    H275503   1.642   4.799  13.079  1.2092  0.1697  3.5841
18030TIP3   OH275504   1.065   6.435   4.593  0.4087 -0.7055 -0.1087
18030TIP3    H175505   0.992   6.380   4.618 -0.5796  1.0299  0.9825
18030TIP3    H275506   1.081   6.491   4.668  1.7013  0.1764 -0.9856
18031TIP3   OH275507   1.440   4.192   5.678  0.7968  0.0774 -0.9245
18031TIP3    H175508   1.432   4.104   5.716  1.4943  0.5744  0.4606
18031TIP3    H275509   1.359   4.205   5.630 -0.6240 -0.2433  1.2347
18032TIP3   OH275510   5.436   0.245  16.872 -0.1803 -0.0464 -0.1306
18032TIP3    H175511   5.424   0.209  16.785  1.2818  1.2326 -0.9161
18032TIP3    H275512   5.513   0.301  16.864 -0.3136  0.4951  1.8651
18033TIP3   OH275513   5.135   5.389  12.962  0.0954  0.7704  0.7884
18033TIP3    H175514   5.206   5.435  12.917 -0.3547  1.4982  0.8037
18033TIP3    H275515   5.056   5.414  12.914  0.0294 -1.5240 -0.4038
18034TIP3   OH275516   2.804   4.116   2.778  0.5773 -0.1438 -0.1173
18034TIP3    H175517   2.715   4.153   2.770  0.0172 -0.8856  2.1862
18034TIP3    H275518   2.850   4.177   2.835  1.2370 -0.3410 -0.4322
18035TIP3   OH275519   5.272   0.278   5.145  0.0423 -0.2313  0.4516
18035TIP3    H175520   5.285   0.292   5.051  1.2374  0.9491  0.7679
18035TIP3    H275521   5.192   0.327   5.165  1.6131  2.5079  0.6251
18036TIP3   OH275522   2.214   0.110  12.960 -0.1962 -0.1116  0.2611
18036TIP3    H175523   2.179   0.033  12.915  1.7135 -1.7805  1.4513
18036TIP3    H275524   2.138   0.167  12.973 -1.0960 -0.0510 -3.8364
18037TIP3   OH275525   2.376   3.433  14.930 -0.4785 -0.7792 -0.0184
18037TIP3    H175526   2.324   3.435  14.850  1.1900 -1.5365 -1.1804
18037TIP3    H275527   2.415   3.520  14.934 -3.1643  0.4809  1.8799
18038TIP3   OH275528   5.563   6.503  12.949  0.1791  0.8500  0.0004
18038TIP3    H175529   5.484   6.519  12.898 -0.0754  0.0564  0.1228
18038TIP3    H275530   5.612   6.439  12.897  1.4122  2.3421 -0.7403
18039TIP3   OH275531   1.008   0.472   4.449  0.0974  0.4319 -0.0484
18039TIP3    H175532   0.949   0.401   4.424 -0.0838  1.0644 -1.5455
18039TIP3    H275533   0.954   0.551   4.447  0.9651  1.0438 -1.5736
18040TIP3   OH275534   5.273   5.814   0.685 -0.0395  0.4838 -0.2189
18040TIP3    H175535   5.334   5.741   0.697 -1.0313 -0.0775  1.8019
18040TIP3    H275536   5.318   5.889   0.725 -0.0086  0.4304 -0.1520
18041TIP3   OH275537   0.260   4.918  13.626 -0.8174  0.3024 -0.7790
18041TIP3    H175538   0.264   4.856  13.554 -1.0337 -1.3792  0.5760
18041TIP3    H275539   0.212   4.871  13.695 -0.1343  1.6209  0.6557
18042TIP3   OH275540   5.451   3.658   5.241 -0.0506 -0.4580  0.0184
18042TIP3    H175541   5.533   3.675   5.288 -0.4027 -1.3882  1.0117
18042TIP3    H275542   5.384   3.700   5.295 -0.2111  0.6711 -1.0142
18043TIP3   OH275543   6.052   1.468  16.785 -0.3227 -0.1992 -0.1734
18043TIP3    H175544   6.032   1.548  16.736 -1.6557 -0.4752 -0.1067
18043TIP3    H275545   6.111   1.497  16.855 -2.4593  1.1708  1.1819
18044TIP3   OH275546   0.314   3.416  13.984  0.4549 -0.0105  0.0691
18044TIP3    H175547   0.398   3.382  14.015  0.4098  0.3563  0.6106
18044TIP3    H275548   0.248   3.367  14.033  0.3779  0.4408  0.4179
18045TIP3   OH275549   6.754   4.830   0.449 -0.2296  0.1901  0.1771
18045TIP3    H175550   6.780   4.882   0.373 -0.9579  0.1591 -0.1043
18045TIP3    H275551   6.760   4.739   0.419 -0.9221  0.1916  0.0118
18046TIP3   OH275552   0.941   0.911  10.205  0.3796  0.3225 -0.3277
18046TIP3    H175553   1.027   0.871  10.191 -0.4316 -1.7963  0.3530
18046TIP3    H275554   0.958   1.005  10.202  2.8678 -0.0109  0.5714
18047TIP3   OH275555   4.644   1.511  14.953  0.0294  0.1264  0.2443
18047TIP3    H175556   4.587   1.587  14.942  1.3308  1.4430  1.9921
18047TIP3    H275557   4.592   1.450  15.006 -0.5287  0.3862  0.0049
18048TIP3   OH275558   5.796   3.992  16.764 -0.3779  0.3785 -0.2864
18048TIP3    H175559   5.810   4.030  16.851  0.5291 -1.5423  0.4619
18048TIP3    H275560   5.701   3.979  16.758 -0.3878 -0.0771  0.7128
18049TIP3   OH275561   6.125   6.335  13.251 -0.2105 -0.1886 -0.2326
18049TIP3    H175562   6.159   6.402  13.310 -1.5422 -0.2305  0.6136
18049TIP3    H275563   6.098   6.264  13.309  0.8538 -1.3321 -1.0888
18050TIP3   OH275564   3.044   1.492   1.745  0.0755 -0.7385  0.1771
18050TIP3    H175565   3.098   1.569   1.728 -2.3482  1.2416  0.9028
18050TIP3    H275566   2.982   1.490   1.673 -0.7986 -1.1403  0.9233
18051TIP3   OH275567   5.348   4.108   0.323 -0.0612 -0.1077 -0.2287
18051TIP3    H175568   5.276   4.069   0.372  0.5471 -0.6287  0.2543
18051TIP3    H275569   5.385   4.036   0.272 -0.5873  0.3923 -1.3591
18052TIP3   OH275570   2.984   2.701  13.608 -0.1530  0.3684 -0.1661
18052TIP3    H175571   3.063   2.751  13.629 -0.3448  0.1084  1.2492
18052TIP3    H275572   2.915   2.768  13.600  0.1807  0.5939 -1.3917
18053TIP3   OH275573   3.379   6.539  11.755  0.5122 -0.1187 -0.2327
18053TIP3    H175574   3.292   6.504  11.736 -0.0425  0.9234  0.3161
18053TIP3    H275575   3.431   6.462  11.780 -0.2923 -0.7250 -0.3886
18054TIP3   OH275576   2.394   1.402  11.698  0.2587 -1.2269 -0.4374
18054TIP3    H175577   2.299   1.408  11.688 -0.2225 -0.6940  3.0589
18054TIP3    H275578   2.429   1.457  11.629 -1.9901 -1.0035 -1.4877
18055TIP3   OH275579   4.024   5.767   1.158 -0.3219 -0.0648  0.4267
18055TIP3    H175580   4.095   5.736   1.214  0.2442  0.1443 -0.1595
18055TIP3    H275581   4.061   5.842   1.111 -0.7025 -0.3733 -0.3912
18056TIP3   OH275582   5.182   3.348  13.426 -0.0415  0.0412 -0.5892
18056TIP3    H175583   5.275   3.338  13.446  0.0816  1.8980  0.0228
18056TIP3    H275584   5.174   3.325  13.334  0.7191 -1.6582 -0.2661
18057TIP3   OH275585   3.049   1.796   0.759 -0.2943 -0.9585 -0.1339
18057TIP3    H175586   3.013   1.751   0.836  0.7463 -2.4322 -0.4654
18057TIP3    H275587   2.975   1.804   0.699 -0.3614 -3.0200 -0.3934
18058TIP3   OH275588   4.206   2.373  15.492 -0.0913  0.4143 -0.6795
18058TIP3    H175589   4.197   2.348  15.400  0.1238 -0.0791 -0.5713
18058TIP3    H275590   4.240   2.294  15.535  2.5936  1.4720 -0.6785
18059TIP3   OH275591   1.401   1.123   4.385 -0.3786  0.5762 -0.0011
18059TIP3    H175592   1.311   1.111   4.416 -0.6258  1.2669 -0.4113
18059TIP3    H275593   1.399   1.095   4.294  0.4719 -1.9710  0.6748
18060TIP3   OH275594   0.120   5.242  14.786 -0.2944  0.3015  0.2424
18060TIP3    H175595   0.213   5.229  14.764 -0.6558 -0.7158 -0.8121
18060TIP3    H275596   0.087   5.298  14.715 -0.9356 -1.0557 -0.5795
18061TIP3   OH275597   3.968   0.927  12.689  0.1154 -0.1078 -0.1380
18061TIP3    H175598   3.950   0.851  12.633 -1.5720  0.5879 -0.5746
18061TIP3    H275599   4.044   0.969  12.647  0.9743 -1.4331  0.0221
18062TIP3   OH275600   0.206   4.929   4.985  0.1539  0.0138 -0.7519
18062TIP3    H175601   0.244   4.908   5.070 -1.4192  0.4120  0.0800
18062TIP3    H275602   0.281   4.944   4.928  1.2514 -1.2864  0.2916
18063TIP3   OH275603   0.535   3.385  11.080  0.3482 -0.0311 -0.4666
18063TIP3    H175604   0.585   3.466  11.098  0.5914  0.0011 -1.2800
18063TIP3    H275605   0.523   3.384  10.986 -3.6021  1.3825 -0.1656
18064TIP3   OH275606   5.067   6.046   1.446 -0.1061 -0.2454 -0.3610
18064TIP3    H175607   5.130   6.002   1.503 -0.2737 -0.0557 -0.0290
18064TIP3    H275608   4.999   5.980   1.430 -1.4785  0.5127  1.8695
18065TIP3   OH275609   1.922   4.752   0.504 -0.5476  0.0790 -0.3359
18065TIP3    H175610   1.959   4.751   0.592 -0.8002 -1.4935 -0.2150
18065TIP3    H275611   1.899   4.844   0.489  0.5827  0.5770  0.7560
18066TIP3   OH275612   3.205   4.918  14.708 -0.8495  0.3172  0.0628
18066TIP3    H175613   3.267   4.991  14.706  1.3432 -1.4271  0.6646
18066TIP3    H275614   3.237   4.858  14.640 -0.8494 -1.3935  1.5053
18067TIP3   OH275615   1.670   3.566   1.938  0.1774  0.0843  0.1069
18067TIP3    H175616   1.656   3.590   1.846 -2.0496  1.8860  0.8168
18067TIP3    H275617   1.595   3.604   1.984  2.1227  0.8028  2.9363
18068TIP3   OH275618   2.973   3.572  16.487  0.4262  0.1364 -0.1715
18068TIP3    H175619   2.969   3.565  16.582 -1.6721  0.8088 -0.1597
18068TIP3    H275620   3.025   3.497  16.459  1.7946  0.3974  1.5274
18069TIP3   OH275621   4.474   1.076  16.614 -0.4958  0.1892  0.3073
18069TIP3    H175622   4.522   1.125  16.547 -1.6639  1.0648  0.0664
18069TIP3    H275623   4.526   0.997  16.628  1.8706  1.7738  1.2180
18070TIP3   OH275624   2.954   4.897   3.796 -0.1722 -0.0629  0.4011
18070TIP3    H175625   2.987   4.836   3.862 -0.0884 -0.6671 -0.1875
18070TIP3    H275626   2.859   4.898   3.810 -0.2960 -1.1680 -0.2700
18071TIP3   OH275627   5.466   5.515   1.390 -0.4069  0.8656 -0.0369
18071TIP3    H175628   5.514   5.435   1.411 -0.8379  0.1504 -1.6862
18071TIP3    H275629   5.388   5.511   1.445 -0.3730  0.2108 -0.0274
18072TIP3   OH275630   3.703   6.497   5.011  0.2139  0.4526  0.5482
18072TIP3    H175631   3.740   6.419   4.971  0.0113  0.1989  0.8537
18072TIP3    H275632   3.779   6.544   5.046  0.3279  0.3594  0.4274
18073TIP3   OH275633   2.860   2.552   2.973  1.0453 -0.1084 -0.3210
18073TIP3    H175634   2.801   2.572   3.046 -0.8907 -0.7922 -1.5968
18073TIP3    H275635   2.814   2.584   2.895  2.2264 -0.9521 -1.4147
18074TIP3   OH275636   6.171   3.747   3.967  0.4903  0.8301  0.5730
18074TIP3    H175637   6.180   3.840   3.987 -0.9764  1.4526 -1.3646
18074TIP3    H275638   6.222   3.733   3.887 -0.4453  0.3349  0.0274
18075TIP3   OH275639   2.797   5.338   1.662 -0.4410  0.2554 -0.3838
18075TIP3    H175640   2.742   5.402   1.617 -2.1436 -0.0564  1.1283
18075TIP3    H275641   2.886   5.374   1.656 -0.8787  1.1420 -2.2636
18076TIP3   OH275642   6.257   1.426  14.599  0.6977 -0.5370 -0.3163
18076TIP3    H175643   6.319   1.454  14.667 -1.2601 -0.8717  1.7277
18076TIP3    H275644   6.228   1.339  14.628 -0.6042 -0.4583 -1.3048
18077TIP3   OH275645   5.913   0.011   6.088 -0.1961 -0.1318 -0.8210
18077TIP3    H175646   5.834   0.030   6.037 -0.3582  2.0587  0.1011
18077TIP3    H275647   5.919   0.084   6.150  1.5662 -1.2002  0.3599
18078TIP3   OH275648   2.780   4.068  10.794 -0.6845  0.4365 -0.2979
18078TIP3    H175649   2.773   3.976  10.766 -0.8881  0.2401  0.3663
18078TIP3    H275650   2.741   4.069  10.881 -0.8276  1.1926 -0.3642
18079TIP3   OH275651   5.302   2.291  16.260  0.0657 -0.6634 -0.1384
18079TIP3    H175652   5.342   2.349  16.325  0.7982 -1.7643  0.4197
18079TIP3    H275653   5.272   2.350  16.191 -0.4673  0.5142  1.0450
18080TIP3   OH275654   0.535   1.372  11.809 -0.2663  0.1097  0.6494
18080TIP3    H175655   0.470   1.430  11.849 -0.4162  0.3079  0.1291
18080TIP3    H275656   0.614   1.424  11.803 -0.6043  0.5200 -0.4940
18081TIP3   OH275657   1.024   3.029  11.008 -0.1009  0.1436  0.1857
18081TIP3    H175658   0.963   2.972  11.055 -1.4381  1.7402  0.5082
18081TIP3    H275659   1.027   2.994  10.919  0.6725 -1.5617  0.8468
18082TIP3   OH275660   3.542   3.235   4.641  0.4229  0.0444  0.4028
18082TIP3    H175661   3.598   3.306   4.673  0.8906  0.6316 -1.5976
18082TIP3    H275662   3.467   3.279   4.602  1.2084 -0.4508 -1.7845
18083TIP3   OH275663   5.597   2.362  12.621  0.3975 -0.1085  0.1535
18083TIP3    H175664   5.566   2.273  12.604  0.2867  0.1355 -0.9979
18083TIP3    H275665   5.692   2.357  12.607  0.2656  0.1646 -0.9264
18084TIP3   OH275666   4.922   4.531   6.070  0.2474  0.5024 -0.4546
18084TIP3    H175667   4.890   4.573   6.149 -0.9956  0.2718 -0.8145
18084TIP3    H275668   4.945   4.442   6.098  2.8545  1.3283  0.2991
18085TIP3   OH275669   3.821   0.631   5.182  0.7019 -0.3040  0.0145
18085TIP3    H175670   3.819   0.704   5.243  0.3089 -0.2626 -0.0459
18085TIP3    H275671   3.864   0.560   5.230  1.1807 -0.0060  0.0362
18086TIP3   OH275672   6.772   5.290  11.331  0.4863  0.3400 -0.6158
18086TIP3    H175673   6.750   5.326  11.417 -0.9063  0.6976 -1.0975
18086TIP3    H275674   6.841   5.226  11.349  1.0742  1.2670  0.6020
18087TIP3   OH275675   6.447   0.176  15.129 -0.1227  0.2726  0.1049
18087TIP3    H175676   6.400   0.168  15.211 -0.3960  0.2304 -0.0553
18087TIP3    H275677   6.379   0.180  15.062 -0.0286  2.7812  0.0397
18088TIP3   OH275678   3.223   2.313  14.229 -0.4769  0.6780  0.1038
18088TIP3    H175679   3.301   2.367  14.242  0.6297 -1.1564  1.8954
18088TIP3    H275680   3.251   2.247  14.165 -0.5364  0.0191  0.7471
18089TIP3   OH275681   2.759   4.039  14.516  0.0332 -0.2191  0.4056
18089TIP3    H175682   2.821   3.971  14.540  0.5637 -0.1135 -0.6093
18089TIP3    H275683   2.780   4.060  14.425 -0.2366  1.1603  0.6336
18090TIP3   OH275684   5.242   5.111  12.967  0.2771  0.2180 -0.0383
18090TIP3    H175685   5.232   5.188  12.910  0.1664  0.9382  0.9347
18090TIP3    H275686   5.154   5.073  12.971  0.6575 -0.9991 -1.9066
18091TIP3   OH275687   2.391   3.159  13.938 -0.2180  0.2341 -0.0007
18091TIP3    H175688   2.368   3.196  13.853  0.0348 -0.2935 -0.3025
18091TIP3    H275689   2.483   3.183  13.950 -0.1901  0.1170  0.0201
18092TIP3   OH275690   1.245   3.152   5.229  0.3697  0.0814  0.0651
18092TIP3    H175691   1.256   3.244   5.250 -0.0394  1.4622 -4.5281
18092TIP3    H275692   1.329   3.125   5.194  0.0093 -0.7641 -0.1742
18093TIP3   OH275693   0.009   1.103   0.271 -0.6516  0.1834 -0.3938
18093TIP3    H175694  -0.026   1.190   0.289 -1.6255  0.0950 -1.6741
18093TIP3    H275695  -0.050   1.068   0.204 -0.2745 -1.4645  0.1107
18094TIP3   OH275696   4.374   0.943   1.781  0.1002 -0.2502 -0.5850
18094TIP3    H175697   4.289   0.909   1.754  0.3827 -0.9000 -0.6715
18094TIP3    H275698   4.387   0.907   1.869  0.0093  0.3482 -0.3260
18095TIP3   OH275699   0.910   5.342  11.459  0.8140  0.1338  0.3619
18095TIP3    H175700   0.816   5.331  11.445  0.7322  2.5414 -1.7000
18095TIP3    H275701   0.916   5.408  11.528  1.0220 -0.3401  0.8032
18096TIP3   OH275702   1.138   0.606  11.152 -0.1582 -0.0964  0.3047
18096TIP3    H175703   1.160   0.632  11.062  0.4064 -1.1193  0.1274
18096TIP3    H275704   1.094   0.521  11.142 -0.9404  0.2206  0.9356
18097TIP3   OH275705   1.484   2.618   3.957 -0.1635 -0.0241 -0.1496
18097TIP3    H175706   1.504   2.528   3.984  1.5438  0.2733 -0.3498
18097TIP3    H275707   1.419   2.607   3.887  0.4246 -1.1378 -0.5528
18098TIP3   OH275708   6.287   6.626   6.126  0.4291 -0.7360  0.2622
18098TIP3    H175709   6.191   6.620   6.135 -0.2204  2.5108 -2.6007
18098TIP3    H275710   6.317   6.650   6.213 -1.7424  0.9521  0.6371
18099TIP3   OH275711   0.857   1.127   4.367 -0.1408 -0.3143 -0.4049
18099TIP3    H175712   0.823   1.051   4.414 -0.5260 -1.0466 -1.8282
18099TIP3    H275713   0.853   1.198   4.431  1.4045 -1.7169  1.3786
18100TIP3   OH275714   5.577   1.057   1.154  0.1157 -0.0158 -0.4545
18100TIP3    H175715   5.649   1.012   1.199  0.3445  0.7703 -0.0157
18100TIP3    H275716   5.537   1.111   1.222 -1.6112 -1.2629 -0.4096
18101TIP3   OH275717   2.035   1.796   0.959  0.1717 -0.4523 -0.1031
18101TIP3    H175718   2.095   1.860   0.998  0.9778 -1.1868 -0.0946
18101TIP3    H275719   2.006   1.838   0.878 -1.0135  0.8122  0.9322
18102TIP3   OH275720   3.583   6.622  15.897  0.0747  0.3579  0.6085
18102TIP3    H175721   3.650   6.569  15.942  1.5669  0.5949 -1.2401
18102TIP3    H275722   3.506   6.615  15.954  0.3722 -3.2752  0.8235
18103TIP3   OH275723   0.046   2.784   1.356 -0.5051  0.2729  0.4180
18103TIP3    H175724  -0.013   2.859   1.372 -0.6880  0.0921  0.5878
18103TIP3    H275725   0.092   2.772   1.439 -0.8535 -0.1327  0.5594
18104TIP3   OH275726   0.168   5.272   0.267 -0.2764 -0.4643  0.5275
18104TIP3    H175727   0.124   5.325   0.334 -0.6772  1.6063 -1.2376
18104TIP3    H275728   0.098   5.221   0.227 -0.3646 -0.2878  0.4551
18105TIP3   OH275729   1.897   1.135  14.660  0.0639  0.3858  0.2037
18105TIP3    H175730   1.862   1.224  14.664 -0.1956  0.2925  0.0284
18105TIP3    H275731   1.828   1.081  14.698 -0.0230  0.1869 -0.2351
18106TIP3   OH275732   1.415   4.814   2.330  0.0603 -0.1369 -0.5267
18106TIP3    H175733   1.449   4.724   2.337  1.0163  0.2190 -0.3775
18106TIP3    H275734   1.356   4.823   2.405  1.1314 -0.1701  0.3508
18107TIP3   OH275735   2.432   2.501  10.735  0.7886  0.5035 -0.6815
18107TIP3    H175736   2.393   2.577  10.692 -1.5447 -0.4124 -0.3111
18107TIP3    H275737   2.432   2.433  10.668 -0.3317 -0.1316 -0.0679
18108TIP3   OH275738   2.790   5.972  14.850 -0.4343 -0.1446 -0.2654
18108TIP3    H175739   2.730   5.952  14.921 -1.2637 -1.5340 -1.2950
18108TIP3    H275740   2.861   5.908  14.860 -1.0092 -0.9634 -1.1647
18109TIP3   OH275741   1.512   6.545   4.660  0.9252 -0.4339 -0.4047
18109TIP3    H175742   1.492   6.632   4.626  1.1860  0.4057  1.4697
18109TIP3    H275743   1.459   6.485   4.607 -0.3557  0.9932 -0.7968
18110TIP3   OH275744   1.176   3.647   2.685  0.1571  0.4359 -0.0915
18110TIP3    H175745   1.128   3.588   2.743  1.1743 -2.2261 -1.7612
18110TIP3    H275746   1.115   3.719   2.668 -2.3029 -1.5282 -0.1490
18111TIP3   OH275747   5.686   1.183   5.210 -0.5915  0.0674 -0.0093
18111TIP3    H175748   5.649   1.270   5.224  1.0238  0.6860  0.7660
18111TIP3    H275749   5.643   1.128   5.275 -0.5651  0.6323  0.4978
18112TIP3   OH275750   2.368   0.459  14.976  0.1448  0.0260  0.1894
18112TIP3    H175751   2.346   0.430  14.888 -1.3968 -2.2777  1.2154
18112TIP3    H275752   2.289   0.502  15.008  0.3989  0.1194  0.7094
18113TIP3   OH275753   4.308   5.950   4.258 -0.2616  0.1167 -0.4829
18113TIP3    H175754   4.299   6.025   4.315  0.3102  0.4629 -0.8385
18113TIP3    H275755   4.331   5.877   4.316 -1.1699  0.1359 -0.0980
18114TIP3   OH275756   5.879   5.164   5.206 -0.0927  0.0804  0.1603
18114TIP3    H175757   5.799   5.203   5.169  0.1139  1.4626  1.1104
18114TIP3    H275758   5.862   5.159   5.300  0.4284 -0.9203  0.2173
18115TIP3   OH275759   0.263   6.380   1.861  0.2304 -0.5502 -0.5415
18115TIP3    H175760   0.186   6.329   1.836 -1.6519  0.8373  1.9591
18115TIP3    H275761   0.335   6.317   1.860 -1.3246 -2.4095 -0.9538
18116TIP3   OH275762   2.524   3.948   4.592 -0.4850  0.1474  0.5268
18116TIP3    H175763   2.582   3.879   4.558  0.5576  0.3733  1.7791
18116TIP3    H275764   2.450   3.901   4.629 -1.6093 -0.1166 -1.8651
18117TIP3   OH275765   4.910   3.601   3.672  0.3738  0.4677  0.2314
18117TIP3    H175766   4.947   3.660   3.606 -1.6073  0.5852 -0.8459
18117TIP3    H275767   4.969   3.526   3.673 -0.0286  0.0271 -2.4247
18118TIP3   OH275768   6.010   0.289   4.930  0.2812 -0.6766 -0.5631
18118TIP3    H175769   6.070   0.226   4.971  1.4267  0.0894 -1.0080
18118TIP3    H275770   5.923   0.259   4.955  0.7211 -3.1246 -1.6760
18119TIP3   OH275771   0.798   3.040   2.419 -0.8898  0.3295 -0.0483
18119TIP3    H175772   0.710   3.074   2.433 -1.0333 -0.0851  0.0868
18119TIP3    H275773   0.789   2.945   2.431 -0.9380 -0.0425 -2.3750
18120TIP3   OH275774   3.472   0.145  13.219  0.3231  0.1029 -0.0208
18120TIP3    H175775   3.430   0.215  13.269  0.5801  0.3666 -0.1711
18120TIP3    H275776   3.469   0.175  13.128 -1.9609 -1.2609 -0.4781
18121TIP3   OH275777   0.141   1.683  16.491  0.0501  0.1347 -0.2321
18121TIP3    H175778   0.103   1.598  16.513  0.0636 -0.4620 -2.3192
18121TIP3    H275779   0.067   1.736  16.462  0.3039  0.1569 -0.8593
18122TIP3   OH275780   6.654   4.923   4.523 -0.1784 -0.2267  0.6742
18122TIP3    H175781   6.622   4.973   4.597  0.0307  1.4443 -0.3164
18122TIP3    H275782   6.750   4.928   4.531 -0.1565 -0.1042  0.3360
18123TIP3   OH275783   1.096   3.874  14.216 -0.0766  0.8428 -0.0721
18123TIP3    H175784   1.085   3.916  14.301  3.1726  0.8866  0.4497
18123TIP3    H275785   1.151   3.797  14.233 -0.0751  0.3400 -1.9978
18124TIP3   OH275786   2.117   1.886   3.537 -0.2476  0.1821 -0.6331
18124TIP3    H175787   2.126   1.798   3.575  0.5141  1.1999  1.7512
18124TIP3    H275788   2.049   1.876   3.470  0.3177 -2.3504 -0.9654
18125TIP3   OH275789   0.415   1.468  13.362 -0.3191  0.6034  0.5968
18125TIP3    H175790   0.477   1.475  13.435 -0.8785 -0.1526  1.1674
18125TIP3    H275791   0.470   1.475  13.284  1.1219 -3.5875  0.9641
18126TIP3   OH275792   2.700   6.795  14.996 -0.0536  0.0092 -0.0009
18126TIP3    H175793   2.737   6.850  14.927  3.7132 -0.1492  1.6884
18126TIP3    H275794   2.736   6.708  14.980  1.1528  0.0270  2.2393
18127TIP3   OH275795   0.566   5.025  10.746  0.0594  0.1887 -0.4280
18127TIP3    H175796   0.651   5.024  10.701  0.4746 -0.8275  0.3362
18127TIP3    H275797   0.504   5.053  10.679  0.4547 -2.4793 -2.0659
18128TIP3   OH275798   4.837   3.406   1.304  0.1155  0.2238  0.5360
18128TIP3    H175799   4.870   3.335   1.359 -0.4496  1.0299  1.9654
18128TIP3    H275800   4.910   3.425   1.245  0.6557 -0.8394  0.8306
18129TIP3   OH275801   0.026   3.682  10.861 -0.0146 -0.0019  0.5246
18129TIP3    H175802   0.069   3.767  10.854 -0.1951  0.0467 -0.0587
18129TIP3    H275803   0.096   3.623  10.890  0.0792  0.3631  1.0663
18130TIP3   OH275804   4.962   5.677  16.571  0.3327 -0.2352 -0.2932
18130TIP3    H175805   4.886   5.679  16.513  0.3959  0.1994 -0.3657
18130TIP3    H275806   4.990   5.769  16.577  0.0589 -0.2166  0.7758
18131TIP3   OH275807   1.190   1.418  13.076 -0.2270  0.0250 -0.4010
18131TIP3    H175808   1.108   1.468  13.083  0.3696  1.2580 -1.6376
18131TIP3    H275809   1.191   1.362  13.153 -1.4622  1.1587  0.4854
18132TIP3   OH275810   2.436   6.402   4.888  0.5057 -0.1519  0.6195
18132TIP3    H175811   2.522   6.371   4.859  1.0345 -0.2118  2.1489
18132TIP3    H275812   2.387   6.322   4.907 -0.4122 -0.1640 -1.5588
18133TIP3   OH275813   1.455   5.723  14.903 -0.4382 -0.0261  0.4635
18133TIP3    H175814   1.435   5.809  14.865 -1.2217 -0.5345 -0.3147
18133TIP3    H275815   1.549   5.726  14.921 -0.6520  1.4020  1.5253
18134TIP3   OH275816   5.338   5.077  16.456 -0.7001  0.0870  0.2934
18134TIP3    H175817   5.307   5.118  16.375 -3.0847 -2.4073 -0.2113
18134TIP3    H275818   5.409   5.019  16.428  0.4394  1.3135  0.5146
18135TIP3   OH275819   4.556   5.701  16.510  0.1967  0.1976 -1.0217
18135TIP3    H175820   4.592   5.759  16.443 -1.1379  1.1785 -0.9107
18135TIP3    H275821   4.570   5.613  16.474  1.4047  0.6025 -1.6085
18136TIP3   OH275822   4.776   5.541   5.967  0.2083  0.7395  0.0238
18136TIP3    H175823   4.684   5.530   5.990  0.1816 -1.2145 -0.8361
18136TIP3    H275824   4.778   5.619   5.912 -1.2459 -0.2005 -1.4440
18137TIP3   OH275825   3.426   4.101   2.871  0.5228 -0.3308 -0.1659
18137TIP3    H175826   3.416   4.144   2.785 -2.0953  0.1286  0.2926
18137TIP3    H275827   3.343   4.116   2.915  2.4739  1.3333  3.3811
18138TIP3   OH275828   0.012   5.276   1.644  0.2463 -0.4971  0.3377
18138TIP3    H175829  -0.076   5.240   1.632  0.2657 -0.5603  0.3823
18138TIP3    H275830   0.049   5.226   1.717 -0.0307  0.1880  0.9633
18139TIP3   OH275831   3.160   5.457   0.194  0.2654 -0.0872 -0.4731
18139TIP3    H175832   3.077   5.409   0.194  0.8225 -1.0887  0.3178
18139TIP3    H275833   3.198   5.440   0.108 -0.9522  1.5235 -1.3917
18140TIP3   OH275834   2.846   2.659  14.671  0.2622 -0.4871 -0.2810
18140TIP3    H175835   2.921   2.600  14.671  1.3405  0.7459  1.8487
18140TIP3    H275836   2.868   2.727  14.607  0.5368 -0.6309 -0.3363
18141TIP3   OH275837   3.268   3.319   2.403  0.1374 -0.0220  0.2287
18141TIP3    H175838   3.235   3.343   2.317 -1.6932  0.8443  1.1125
18141TIP3    H275839   3.286   3.225   2.397  0.3492  0.0872 -1.1672
18142TIP3   OH275840   2.571   2.604   2.187 -0.3099  0.1534 -0.0278
18142TIP3    H175841   2.494   2.636   2.139  0.5087  0.2218 -1.3545
18142TIP3    H275842   2.633   2.581   2.118  0.3172 -1.2884  0.9811
18143TIP3   OH275843   6.136   5.018  13.262  0.3119  0.0889  0.1543
18143TIP3    H175844   6.135   4.998  13.168 -0.0169  2.3423 -0.3844
18143TIP3    H275845   6.058   4.974  13.297 -0.4633  0.5387 -0.9565
18144TIP3   OH275846   5.125   3.475  15.126 -0.3653 -0.6121  0.1549
18144TIP3    H175847   5.124   3.459  15.032 -1.0767 -0.1080  0.0642
18144TIP3    H275848   5.218   3.473  15.150 -0.1648 -0.5762 -0.5880
18145TIP3   OH275849   4.143   1.016  10.583  0.3564  0.6253  0.1241
18145TIP3    H175850   4.219   1.054  10.627  0.8916  1.2429 -1.2697
18145TIP3    H275851   4.103   1.089  10.536  1.2494 -0.3754 -2.3952
18146TIP3   OH275852   4.686   4.391   2.055 -0.0357 -0.1290  0.2174
18146TIP3    H175853   4.768   4.343   2.067  0.5375  0.1103 -2.2749
18146TIP3    H275854   4.630   4.361   2.127  1.5417 -1.8142  0.8127
18147TIP3   OH275855   5.198   1.183  16.920 -0.3721 -0.1909 -0.2046
18147TIP3    H175856   5.106   1.207  16.910 -0.2229 -0.0697 -1.3875
18147TIP3    H275857   5.206   1.100  16.873  0.1332 -0.1810 -0.1363
18148TIP3   OH275858   2.675   6.047  10.469 -0.0026  0.0964  0.0956
18148TIP3    H175859   2.732   6.119  10.496 -0.8302 -0.1488  2.7630
18148TIP3    H275860   2.732   5.971  10.465  0.1443  0.1289  1.3308
18149TIP3   OH275861   0.091   1.239  14.063  0.4066 -0.0373 -0.1964
18149TIP3    H175862   0.055   1.186  14.134  1.2518 -1.8844 -1.0745
18149TIP3    H275863   0.186   1.240  14.079  0.7544 -1.3903 -1.7855
18150TIP3   OH275864   3.354   6.001   0.772  0.5266 -0.1655 -0.2626
18150TIP3    H175865   3.349   5.922   0.718  2.6423 -0.0890 -0.6531
18150TIP3    H275866   3.432   5.989   0.825 -0.5698  0.5484  1.5951
18151TIP3   OH275867   5.482   4.721  11.071 -0.2024  0.2592  0.1788
18151TIP3    H175868   5.495   4.709  11.166  0.3643  1.2489  0.2409
18151TIP3    H275869   5.394   4.687  11.055  0.1860 -1.1306  0.8255
18152TIP3   OH275870   0.452   4.759   4.192  0.0180  0.8243 -0.0338
18152TIP3    H175871   0.429   4.851   4.205 -1.9101  0.5121 -0.8046
18152TIP3    H275872   0.368   4.716   4.175  0.3368 -1.7558  3.8253
18153TIP3   OH275873   3.685   4.832  12.662  0.0806 -0.3060 -0.6169
18153TIP3    H175874   3.599   4.826  12.620 -0.4523 -2.0809  0.6561
18153TIP3    H275875   3.747   4.805  12.594 -0.5155 -0.6247 -1.0391
18154TIP3   OH275876   4.116   6.005   5.485 -0.7290  0.3336 -0.0778
18154TIP3    H175877   4.070   6.088   5.488 -2.5661 -0.5441 -1.5310
18154TIP3    H275878   4.069   5.954   5.419 -0.5598 -2.3772  1.7314
18155TIP3   OH275879   4.083   6.375   0.572 -0.3976  0.3968  0.2347
18155TIP3    H175880   4.120   6.313   0.510 -0.7706  2.7101 -2.4875
18155TIP3    H275881   4.159   6.415   0.614 -0.0584  0.2630 -0.2403
18156TIP3   OH275882   5.750   0.587   4.447 -0.2847 -0.2185 -0.5257
18156TIP3    H175883   5.722   0.646   4.517  2.8604 -1.0964  1.6788
18156TIP3    H275884   5.812   0.638   4.395  0.4582 -0.7662 -0.1947
18157TIP3   OH275885   2.257   5.704  13.665 -0.4934  0.0791  0.0017
18157TIP3    H175886   2.283   5.659  13.745 -2.5347 -1.6848 -0.2468
18157TIP3    H275887   2.324   5.681  13.601 -0.9809 -1.8893  0.1496
18158TIP3   OH275888   1.633   2.253  13.290  0.2894  0.6323  0.1626
18158TIP3    H175889   1.611   2.177  13.343 -0.2626  0.3374 -0.4743
18158TIP3    H275890   1.555   2.309  13.295  0.6894  1.1553  0.6231
18159TIP3   OH275891   2.750   3.931   1.014  0.5418  0.5621  0.5041
18159TIP3    H175892   2.780   3.930   1.105  0.0661 -0.6710  0.6721
18159TIP3    H275893   2.758   3.840   0.985 -0.9193  0.5975 -0.1335
18160TIP3   OH275894   1.436   5.712   5.386 -0.1544  0.3207  0.0566
18160TIP3    H175895   1.482   5.708   5.470  3.2200  3.2694 -1.4067
18160TIP3    H275896   1.347   5.740   5.409  0.8284  1.6800  2.6329
18161TIP3   OH275897   2.107   5.159   0.593 -0.7234  0.1018  0.6623
18161TIP3    H175898   2.019   5.138   0.563 -1.7116  0.3490  3.1577
18161TIP3    H275899   2.138   5.080   0.637  0.6471 -0.2370 -0.8181
18162TIP3   OH275900   2.603   5.141   5.092  0.4967  0.4401  0.1876
18162TIP3    H175901   2.676   5.165   5.035  0.0302  1.6985  0.1016
18162TIP3    H275902   2.630   5.058   5.131  1.7989  0.6852 -0.1499
18163TIP3   OH275903   1.340   3.431   2.149  0.6397  0.0800 -0.5348
18163TIP3    H175904   1.244   3.432   2.154  0.4926 -2.2217 -1.6291
18163TIP3    H275905   1.360   3.475   2.067  0.6096  1.0713 -0.0395
18164TIP3   OH275906   2.320   4.178   2.432  0.0847 -0.5171  0.4170
18164TIP3    H175907   2.411   4.191   2.459 -0.2478  0.9447  0.9176
18164TIP3    H275908   2.288   4.107   2.488  0.6300 -0.3484  0.9482
18165TIP3   OH275909   1.754   5.805  13.890 -0.1645 -0.0769  0.0008
18165TIP3    H175910   1.680   5.811  13.951 -0.7930  1.1376 -0.8382
18165TIP3    H275911   1.713   5.797  13.804  0.7123 -1.2037 -0.3247
18166TIP3   OH275912   0.355   0.063   0.550 -0.1050 -0.0697 -0.1495
18166TIP3    H175913   0.366   0.005   0.475 -1.4301 -0.9699  0.3198
18166TIP3    H275914   0.324   0.006   0.620 -0.1141  0.9752  0.7150
18167TIP3   OH275915   0.064   1.970   0.343 -0.2904 -0.6343  0.0528
18167TIP3    H175916  -0.031   1.974   0.331 -0.1621  1.1528 -0.6731
18167TIP3    H275917   0.091   1.893   0.293 -1.4015 -1.5596  0.8093
18168TIP3   OH275918   1.576   5.489  15.176  0.2049 -0.4058 -0.9732
18168TIP3    H175919   1.625   5.564  15.212 -0.9940  0.0326 -0.1978
18168TIP3    H275920   1.608   5.414  15.227  0.4359 -0.2072 -0.8205
18169TIP3   OH275921   4.876   4.582  11.918  0.1434 -0.0705 -0.4369
18169TIP3    H175922   4.791   4.618  11.893 -0.7015 -1.4121  0.3749
18169TIP3    H275923   4.927   4.658  11.945 -1.3027  0.6430  0.4245
18170TIP3   OH275924   4.460   1.542  11.229 -0.0780  0.0835  0.0492
18170TIP3    H175925   4.533   1.589  11.188 -0.4087  0.0606 -0.5715
18170TIP3    H275926   4.384   1.599  11.216 -0.3990 -0.4272 -0.3432
18171TIP3   OH275927   3.424   2.682  10.986  0.3625  0.2712  0.5484
18171TIP3    H175928   3.450   2.770  11.012 -1.2109  0.7643  0.6098
18171TIP3    H275929   3.344   2.695  10.934  1.5234 -0.9303 -1.6873
18172TIP3   OH275930   2.533   3.448   0.578 -0.3645  0.0139 -0.4654
18172TIP3    H175931   2.621   3.411   0.589 -0.4743 -0.1086  0.0669
18172TIP3    H275932   2.475   3.381   0.613 -0.5533  0.7812  0.7619
18173TIP3   OH275933   4.956   2.400  14.683 -0.2088 -0.3793  0.1796
18173TIP3    H175934   4.924   2.422  14.771  2.1844 -1.6068  1.4561
18173TIP3    H275935   4.967   2.305  14.685  0.8719 -0.3070 -1.0724
18174TIP3   OH275936   3.807   4.621   5.537 -0.2181  0.3030  0.5832
18174TIP3    H175937   3.889   4.636   5.488 -0.4504 -0.2092  0.0249
18174TIP3    H275938   3.835   4.581   5.619 -0.0061 -1.4276 -0.2927
18175TIP3   OH275939   5.611   5.767   1.403 -0.1420  0.1191 -0.0921
18175TIP3    H175940   5.681   5.756   1.467  1.0013 -0.2639 -1.3626
18175TIP3    H275941   5.589   5.678   1.377 -1.8994  0.1656  1.0774
18176TIP3   OH275942   3.964   3.747   4.773  0.0413 -0.3198 -0.3822
18176TIP3    H175943   3.970   3.710   4.684 -1.5951  1.1960 -1.1894
18176TIP3    H275944   3.885   3.800   4.771  1.4891  2.0767  1.1103
18177TIP3   OH275945   0.819   4.438   1.630  0.1212  0.6218 -0.8126
18177TIP3    H175946   0.797   4.387   1.552 -1.2333  1.6409 -1.1143
18177TIP3    H275947   0.888   4.498   1.601  2.8769 -1.9398 -0.0892
18178TIP3   OH275948   1.676   4.351   3.407 -0.2375  0.1200 -0.2296
18178TIP3    H175949   1.703   4.415   3.473 -1.4991  0.7088 -0.2505
18178TIP3    H275950   1.601   4.307   3.447  0.9209 -1.7438 -0.0029
18179TIP3   OH275951   0.790   5.652   5.130  0.1637 -0.8764 -0.3521
18179TIP3    H175952   0.758   5.570   5.094 -0.3521 -0.2667 -1.3404
18179TIP3    H275953   0.741   5.664   5.212 -1.8017 -0.2524 -1.5395
18180TIP3   OH275954   1.533   5.754  13.634  0.2567 -0.3086  0.3255
18180TIP3    H175955   1.509   5.680  13.689  0.9418 -1.9894 -1.4957
18180TIP3    H275956   1.512   5.725  13.545  2.0859  1.0498 -0.6074
18181TIP3   OH275957   6.173   4.323  14.915 -0.5360 -0.2547 -0.4784
18181TIP3    H175958   6.128   4.347  14.834  0.0279  1.2089 -0.4033
18181TIP3    H275959   6.111   4.268  14.963 -1.3307 -0.1674 -1.3868
18182TIP3   OH275960   6.341   0.589  14.130  0.1943  0.7808 -0.3665
18182TIP3    H175961   6.298   0.645  14.195  1.3916  1.7623 -0.3963
18182TIP3    H275962   6.272   0.572  14.065 -0.9371  0.0278  0.9662
18183TIP3   OH275963   1.693   3.398   2.576 -0.0645  0.0901  0.4243
18183TIP3    H175964   1.726   3.482   2.544 -0.9531  0.9636  1.7039
18183TIP3    H275965   1.611   3.384   2.529  0.8606 -0.9102 -0.9920
18184TIP3   OH275966   4.098   6.221  12.800  0.0977 -0.2028  0.0788
18184TIP3    H175967   4.044   6.216  12.721  1.1283 -0.2358 -0.6288
18184TIP3    H275968   4.114   6.130  12.825  2.0801 -0.2753 -1.2859
18185TIP3   OH275969   0.358   0.029   2.516 -0.2251 -0.2352 -0.0111
18185TIP3    H175970   0.308  -0.049   2.539 -1.5207  0.2135 -1.1374
18185TIP3    H275971   0.297   0.083   2.465  0.1006  2.2322  1.9862
18186TIP3   OH275972   4.873   0.972   1.689 -0.5873 -0.9203 -0.2840
18186TIP3    H175973   4.808   0.959   1.620  0.1466  0.6317 -1.3341
18186TIP3    H275974   4.833   0.934   1.767 -2.3187 -0.9005 -1.1087
18187TIP3   OH275975   4.909   2.989   4.265  0.6334 -0.1396  0.2068
18187TIP3    H175976   4.994   3.016   4.300  0.3342  0.2002  0.6687
18187TIP3    H275977   4.922   2.897   4.241  1.8588  0.5192 -2.0172
18188TIP3   OH275978   3.586   1.241  13.895  0.1482  0.2552 -0.3190
18188TIP3    H175979   3.515   1.261  13.835 -1.0048  2.0562  1.5181
18188TIP3    H275980   3.644   1.317  13.890 -0.9763  1.3715  2.1642
18189TIP3   OH275981   2.714   1.900   4.217  0.7787  0.1481 -0.5348
18189TIP3    H175982   2.795   1.942   4.187 -0.5167  2.0419 -1.5764
18189TIP3    H275983   2.700   1.828   4.154  0.4248  1.3280 -1.8592
18190TIP3   OH275984   4.549   4.169  15.010  0.3189 -0.1356  0.0017
18190TIP3    H175985   4.498   4.155  15.090 -1.3783  2.4818 -0.5100
18190TIP3    H275986   4.641   4.168  15.039 -0.1954 -0.6318  1.7037
18191TIP3   OH275987   6.361   0.415   4.377  0.5519 -0.1998 -0.1599
18191TIP3    H175988   6.287   0.355   4.367 -0.1813  0.8921 -1.7754
18191TIP3    H275989   6.328   0.499   4.346  1.7817  0.8773  1.3017
18192TIP3   OH275990   5.567   5.301   4.169  0.1679  0.2613  0.4127
18192TIP3    H175991   5.624   5.377   4.181  0.2295  0.7160 -2.2590
18192TIP3    H275992   5.620   5.227   4.197  0.7239  1.0146  1.4277
18193TIP3   OH275993   4.764   5.718   5.554  0.2479 -0.6005  0.3714
18193TIP3    H175994   4.670   5.709   5.571 -0.0160 -1.0171 -1.1244
18193TIP3    H275995   4.802   5.743   5.638 -1.2386 -0.1452  0.9328
18194TIP3   OH275996   2.355   5.697  14.784 -0.0144 -0.3792 -0.2060
18194TIP3    H175997   2.397   5.622  14.742 -1.0972 -0.8362 -0.5086
18194TIP3    H275998   2.272   5.707  14.738 -0.6245 -0.0335  0.9228
18195TIP3   OH275999   4.026   6.555   3.973 -0.0996 -0.1308 -0.1521
18195TIP3    H176000   4.063   6.628   4.023  0.1273 -0.9352  0.8923
18195TIP3    H276001   4.090   6.484   3.984 -0.5746 -0.6582 -0.7073
18196TIP3   OH276002   2.901   3.852  11.684 -0.6747 -0.8593 -0.3268
18196TIP3    H176003   2.817   3.884  11.717 -1.0000 -2.0674  0.0337
18196TIP3    H276004   2.958   3.849  11.761 -0.7387 -1.4466 -0.3007
18197TIP3   OH276005   2.128   4.888  16.517  0.6592  0.2961 -0.1583
18197TIP3    H176006   2.084   4.914  16.598  0.1734  1.8300 -0.8798
18197TIP3    H276007   2.198   4.829  16.545  1.6379  2.1693  1.5995
18198TIP3   OH276008   0.245   5.259   3.818  0.3840 -0.0095 -0.7340
18198TIP3    H176009   0.163   5.285   3.860  1.5293 -1.2893  2.6341
18198TIP3    H276010   0.300   5.338   3.824  0.0765  0.2608 -1.2852
18199TIP3   OH276011   2.657   4.337   5.137 -0.1042 -0.7596 -0.8472
18199TIP3    H176012   2.568   4.348   5.104 -0.7352 -4.0228 -0.5704
18199TIP3    H276013   2.678   4.245   5.120  2.5455 -0.5394  0.6683
18200TIP3   OH276014   2.739   4.312   3.695  0.0068  0.0635 -0.0908
18200TIP3    H176015   2.728   4.260   3.775  2.3620 -0.5314 -0.0509
18200TIP3    H276016   2.821   4.359   3.709 -0.6018  1.5678 -1.3377
18201TIP3   OH276017   5.831   2.757  15.241  0.0171  0.3074  0.3171
18201TIP3    H176018   5.813   2.851  15.245 -1.0499  0.0746  2.8352
18201TIP3    H276019   5.924   2.752  15.219  0.2950  2.0008  0.9351
18202TIP3   OH276020   3.865   0.284  12.601 -0.6346  0.2290 -0.0701
18202TIP3    H176021   3.860   0.285  12.506 -0.3169  1.8508 -0.0974
18202TIP3    H276022   3.820   0.363  12.628  0.8605  0.7555  1.0255
18203TIP3   OH276023   1.729   0.128   5.839 -1.0210 -0.4466  0.8263
18203TIP3    H176024   1.697   0.135   5.749 -0.6947  0.6623  0.7896
18203TIP3    H276025   1.655   0.152   5.894 -0.6313  0.9114  0.7793
18204TIP3   OH276026   0.599   1.361  15.842  0.0180  0.5291 -0.0249
18204TIP3    H176027   0.577   1.298  15.774  1.9665  0.3971 -0.6090
18204TIP3    H276028   0.536   1.344  15.912  0.2842 -1.8870 -0.2836
18205TIP3   OH276029   6.613   2.788   1.853 -0.5188  0.3264 -0.8095
18205TIP3    H176030   6.556   2.822   1.922  0.8896  2.7520 -0.7149
18205TIP3    H276031   6.557   2.781   1.776 -1.3483  0.8989 -0.2666
18206TIP3   OH276032   2.952   3.282   2.286  0.2028  0.1851  0.0709
18206TIP3    H176033   2.978   3.365   2.247 -1.1006  0.7399  0.3587
18206TIP3    H276034   2.964   3.294   2.380 -0.5323  0.2597  0.1616
18207TIP3   OH276035   6.668   4.295   2.311  0.5519 -0.0954 -0.4772
18207TIP3    H176036   6.749   4.320   2.355  0.3901  0.7693 -0.6412
18207TIP3    H276037   6.646   4.209   2.347  1.1838 -0.0407  0.0567
18208TIP3   OH276038   3.777   0.903   2.971 -0.3284 -0.2391  0.2204
18208TIP3    H176039   3.802   0.909   3.063 -1.7539 -0.2939  0.6265
18208TIP3    H276040   3.706   0.839   2.969  0.4230 -1.0913 -1.0901
18209TIP3   OH276041   6.083   5.534  12.096 -0.1669  0.4094 -0.3378
18209TIP3    H176042   6.034   5.520  12.016 -0.2826 -2.1971  0.0828
18209TIP3    H276043   6.038   5.480  12.162  0.1788  2.1116  1.3907
18210TIP3   OH276044   2.709   3.031  11.954 -0.0646  0.1898 -0.1051
18210TIP3    H176045   2.712   3.071  12.041  0.5371  1.4663 -0.6960
18210TIP3    H276046   2.796   3.045  11.917 -0.2524 -0.5183 -0.8549
18211TIP3   OH276047   1.246   5.457  11.672  0.3268 -0.3753  0.0472
18211TIP3    H176048   1.315   5.507  11.716  1.3734 -0.6098 -1.2551
18211TIP3    H276049   1.173   5.457  11.734  1.8228 -0.9640  1.9353
18212TIP3   OH276050   1.957   0.020  11.203 -0.5080  0.0531 -0.3754
18212TIP3    H176051   2.001   0.049  11.123 -0.0611  0.1374 -0.0982
18212TIP3    H276052   1.884  -0.034  11.171  0.3434 -0.8702 -0.8269
18213TIP3   OH276053   0.608   1.057   0.090  0.2375  0.2670 -0.0265
18213TIP3    H176054   0.533   0.998   0.098 -0.2341  0.9075  0.4032
18213TIP3    H276055   0.668   1.029   0.159 -0.2161  0.6147  0.5157
18214TIP3   OH276056   4.885   1.846   3.922  0.1624 -0.3446  0.3624
18214TIP3    H176057   4.857   1.777   3.983 -0.8365 -0.2506  0.0255
18214TIP3    H276058   4.805   1.892   3.899 -0.0513 -2.1059 -3.1710
18215TIP3   OH276059   3.481   0.474   0.275 -0.2986  0.2374 -0.0596
18215TIP3    H176060   3.552   0.444   0.331  0.5711  4.0209  1.1229
18215TIP3    H276061   3.411   0.499   0.335 -0.8485  0.8196 -0.9186
18216TIP3   OH276062   0.876   5.742  14.451  0.0544  0.4749 -0.4933
18216TIP3    H176063   0.962   5.702  14.465 -0.5111 -0.4310  0.5466
18216TIP3    H276064   0.892   5.836  14.453  1.1737  0.3301 -1.4126
18217TIP3   OH276065   0.778   5.735  16.573 -0.6308  0.1031  0.1481
18217TIP3    H176066   0.842   5.705  16.509  1.2152  1.1419  1.4208
18217TIP3    H276067   0.760   5.825  16.548 -1.7584 -0.2258 -0.2893
18218TIP3   OH276068   5.126   3.571  13.094  0.7616 -0.4648  0.7299
18218TIP3    H176069   5.094   3.610  13.013  0.0431  0.4080  1.4201
18218TIP3    H276070   5.167   3.644  13.141 -1.0883 -0.3758  2.2916
18219TIP3   OH276071   0.736   1.466  12.795 -0.2065 -0.2213 -0.0506
18219TIP3    H176072   0.756   1.527  12.866  1.0829 -2.3523  1.5447
18219TIP3    H276073   0.641   1.472  12.783 -0.1370  1.9013  0.1594
18220TIP3   OH276074   3.997   4.480   5.285  0.0485  0.5278 -0.4191
18220TIP3    H176075   4.042   4.565   5.290  0.7685  0.2136 -1.3118
18220TIP3    H276076   3.910   4.502   5.250  0.1348  0.9297 -0.3916
18221TIP3   OH276077   6.271   6.464   4.075  0.2981 -0.0550  0.1691
18221TIP3    H176078   6.237   6.406   4.144  0.9082  0.7071  1.1420
18221TIP3    H276079   6.235   6.550   4.097 -1.2565 -0.1752 -1.7147
18222TIP3   OH276080   6.785   5.060   0.201 -0.0040  0.0014 -0.2359
18222TIP3    H176081   6.776   5.065   0.106  0.3129 -1.5402 -0.3825
18222TIP3    H276082   6.706   5.102   0.235  0.3282  1.4183 -1.1352
18223TIP3   OH276083   1.111   6.500   4.871  0.5329  0.0433  0.2232
18223TIP3    H176084   1.077   6.410   4.868  2.1351 -0.5726 -0.7112
18223TIP3    H276085   1.185   6.495   4.931  0.4102  0.8534  0.4573
18224TIP3   OH276086   5.103   0.254  11.375  0.0317 -0.4187 -0.2264
18224TIP3    H176087   5.163   0.234  11.303  1.0007  1.3631  0.0245
18224TIP3    H276088   5.124   0.190  11.443  2.7550  1.0391  0.4421
18225TIP3   OH276089   1.805   5.340   4.845  0.3456  0.2189  0.2816
18225TIP3    H176090   1.846   5.404   4.786  1.5770 -0.9273 -0.1499
18225TIP3    H276091   1.759   5.394   4.910 -0.2892  1.5290 -1.1707
18226TIP3   OH276092   5.499   2.033  15.180  0.0279 -0.3313 -0.0722
18226TIP3    H176093   5.580   2.040  15.130  0.0523 -0.7039 -0.0845
18226TIP3    H276094   5.496   1.942  15.208 -0.6523 -0.4448 -0.5120
18227TIP3   OH276095   3.616   6.242   0.925 -0.1687  0.2231  0.2730
18227TIP3    H176096   3.655   6.329   0.934  0.9807 -0.3861  1.5541
18227TIP3    H276097   3.521   6.259   0.920  0.0892  1.5860 -0.5520
18228TIP3   OH276098   6.183   2.680   4.181  0.0327  0.1181  0.5074
18228TIP3    H176099   6.200   2.762   4.133  1.4208  0.0054  0.7667
18228TIP3    H276100   6.088   2.678   4.192 -0.1550  1.0152 -0.7054
18229TIP3   OH276101   5.197   3.296  10.795 -0.4038  0.2148  0.2053
18229TIP3    H176102   5.179   3.208  10.828  0.8325 -0.3451 -0.5455
18229TIP3    H276103   5.208   3.285  10.700 -2.7055  1.5928 -0.3203
18230TIP3   OH276104   2.898   1.597  11.156  0.4850  0.2608 -0.5952
18230TIP3    H176105   2.965   1.531  11.173  0.3685 -0.0161 -1.1788
18230TIP3    H276106   2.856   1.569  11.074 -0.5621  0.2482 -0.0773
18231TIP3   OH276107   4.154   4.343   4.995 -0.2494  0.1055  0.3871
18231TIP3    H176108   4.097   4.419   5.005 -0.4550  0.2955 -1.6686
18231TIP3    H276109   4.182   4.346   4.903 -0.0159 -2.1230  0.3130
18232TIP3   OH276110   4.569   2.032   4.537 -0.3655 -0.3514 -0.1921
18232TIP3    H176111   4.661   2.006   4.539 -0.3161 -0.1935  1.7346
18232TIP3    H276112   4.569   2.126   4.554 -0.8145  0.0895 -2.2908
18233TIP3   OH276113   4.706   6.020   5.695 -0.1156 -0.0902 -0.6170
18233TIP3    H176114   4.740   5.941   5.737 -0.1144  0.6429  0.8147
18233TIP3    H276115   4.784   6.074   5.681 -0.2144 -0.0231 -0.9144
18234TIP3   OH276116   3.939   6.140  15.712  0.2867  0.3886  0.0099
18234TIP3    H176117   3.878   6.208  15.683  0.8505  0.7115 -0.4321
18234TIP3    H276118   3.912   6.121  15.802 -1.7266 -0.8835 -0.8007
18235TIP3   OH276119   4.695   6.766  10.390 -0.7641 -0.1176  0.2645
18235TIP3    H176120   4.613   6.802  10.356 -0.8374  0.7032  1.2766
18235TIP3    H276121   4.737   6.727  10.313 -1.1511  1.2583 -0.6716
18236TIP3   OH276122   3.307   6.497  12.241  0.0366 -0.1514  0.3761
18236TIP3    H176123   3.313   6.560  12.169 -3.0174  1.2992  1.1994
18236TIP3    H276124   3.361   6.534  12.310 -0.5740  0.8648  0.3359
18237TIP3   OH276125   3.178   4.164   3.722  0.0482 -0.1680 -0.4370
18237TIP3    H176126   3.216   4.248   3.697 -0.7461 -0.2879 -2.2537
18237TIP3    H276127   3.141   4.178   3.809  1.3038  0.8854 -0.0473
18238TIP3   OH276128   4.903   3.938  12.316 -0.1454  0.2201  0.4956
18238TIP3    H176129   4.944   3.903  12.395 -1.4629  0.2858  1.2347
18238TIP3    H276130   4.816   3.967  12.344 -0.9451 -0.4452 -1.1241
18239TIP3   OH276131   1.277   1.201   1.751 -0.5413 -0.0202  0.0757
18239TIP3    H176132   1.210   1.211   1.683 -1.1520 -0.9642  0.5130
18239TIP3    H276133   1.333   1.130   1.718 -1.5762 -1.3781  1.0800
18240TIP3   OH276134   1.925   3.792   2.362 -0.2049 -0.3556  0.0349
18240TIP3    H176135   1.910   3.757   2.274 -2.4885 -0.3030  0.3494
18240TIP3    H276136   1.977   3.872   2.348 -1.6295  0.3636 -1.3963
18241TIP3   OH276137   3.850   4.000  12.307 -0.2083 -0.1388 -0.2826
18241TIP3    H176138   3.901   3.935  12.260  2.4164  1.5720  0.0358
18241TIP3    H276139   3.796   3.949  12.368  1.1219 -2.0279 -0.6287
18242TIP3   OH276140   6.169   0.324  14.345  0.1193 -0.4987 -0.1022
18242TIP3    H176141   6.197   0.251  14.400  1.2717  0.1305  0.1788
18242TIP3    H276142   6.186   0.294  14.256  1.2300 -0.3515  0.0371
18243TIP3   OH276143   4.129   1.632   4.617  0.6918  0.2403 -0.3661
18243TIP3    H176144   4.150   1.647   4.709 -1.6463 -1.1914  0.4816
18243TIP3    H276145   4.159   1.544   4.599 -0.0984 -0.0066 -0.5347
18244TIP3   OH276146   6.465   2.809  16.767 -0.4406 -0.0550  0.3763
18244TIP3    H176147   6.552   2.794  16.730 -0.6526  0.5169 -0.3892
18244TIP3    H276148   6.428   2.722  16.780  0.7854 -0.3737  2.0771
18245TIP3   OH276149   1.534   4.660   5.603  0.1279  0.3927 -0.2637
18245TIP3    H176150   1.559   4.704   5.522 -0.5723  1.5054  0.1040
18245TIP3    H276151   1.612   4.667   5.659  0.1294  0.8842 -0.3256
18246TIP3   OH276152   0.489   2.448   1.340 -0.4710 -0.5041  0.2852
18246TIP3    H176153   0.434   2.425   1.265 -0.5635 -0.0589  0.2150
18246TIP3    H276154   0.555   2.506   1.304 -0.5274 -0.2708  0.5532
18247TIP3   OH276155   6.764   1.630   3.328  0.3591  0.5978 -0.2528
18247TIP3    H176156   6.754   1.666   3.240  0.4292  2.0127  0.2902
18247TIP3    H276157   6.858   1.614   3.337  0.6236  2.2851  0.2275
18248TIP3   OH276158   6.108   1.403  16.111 -0.3075  0.3229 -0.3637
18248TIP3    H176159   6.094   1.327  16.167  2.0457 -0.9004 -1.3039
18248TIP3    H276160   6.050   1.389  16.037 -0.8719  0.1686  0.0944
18249TIP3   OH276161   1.173   2.971   2.581  0.1088  0.0783 -0.7464
18249TIP3    H176162   1.081   2.968   2.607  0.6939 -0.0589  1.5311
18249TIP3    H276163   1.191   2.883   2.548 -0.4511 -0.0410 -0.7510
18250TIP3   OH276164   3.522   4.525   3.782 -0.8421  0.4424  0.1515
18250TIP3    H176165   3.516   4.457   3.848  0.3616 -2.0340 -2.0841
18250TIP3    H276166   3.615   4.550   3.781 -0.5010 -0.6693 -1.4933
18251TIP3   OH276167   3.747   5.439  11.337  0.6154 -0.3418  0.1848
18251TIP3    H176168   3.811   5.459  11.268  0.7806  1.3391  0.7876
18251TIP3    H276169   3.793   5.455  11.419 -0.2607 -0.1250  0.6505
18252TIP3   OH276170   3.265   4.564  13.979  0.0908 -0.0844  0.5341
18252TIP3    H176171   3.191   4.582  13.920 -0.5380 -0.2552  1.2514
18252TIP3    H276172   3.294   4.477  13.955  1.7000  0.9186 -1.4407
18253TIP3   OH276173   4.146   6.517   5.969 -0.8141 -0.0235  0.5546
18253TIP3    H176174   4.095   6.483   6.042  1.7123 -1.7802  1.6343
18253TIP3    H276175   4.235   6.488   5.986  0.1002  0.5112 -2.6389
18254TIP3   OH276176   1.522   1.560  16.496  0.0177  0.5525  0.0164
18254TIP3    H176177   1.485   1.524  16.415  1.3240  0.0801 -0.3987
18254TIP3    H276178   1.600   1.608  16.468  1.4391 -0.9853  1.0930
18255TIP3   OH276179   6.551   5.773  14.058  0.0687  0.0090  0.3694
18255TIP3    H176180   6.512   5.706  14.002  0.8661  0.6580 -1.0302
18255TIP3    H276181   6.563   5.730  14.142  0.2193 -1.5100 -0.3919
18256TIP3   OH276182   4.723   1.391   0.236  0.4036 -0.0896  0.4490
18256TIP3    H176183   4.684   1.409   0.150  0.5055  2.3013  0.8268
18256TIP3    H276184   4.676   1.314   0.268 -0.1048 -0.6208 -1.4415
18257TIP3   OH276185   4.028   0.763   2.913  0.1097 -0.1023  0.8783
18257TIP3    H176186   4.027   0.785   2.820  1.0489 -0.9286  0.6465
18257TIP3    H276187   3.961   0.818   2.952  1.2240  1.9208  0.0876
18258TIP3   OH276188   2.259   2.830   0.073  0.4243  0.0857  0.3042
18258TIP3    H176189   2.312   2.811  -0.004 -0.5864  3.1956 -1.3359
18258TIP3    H276190   2.189   2.765   0.071  0.5329 -0.0095 -1.3029
18259TIP3   OH276191   5.066   1.775   3.356  0.3121 -0.4509  0.1048
18259TIP3    H176192   5.096   1.686   3.375 -1.3351 -1.6179 -2.2124
18259TIP3    H276193   5.037   1.809   3.440  2.0266 -1.6336  1.2506
18260TIP3   OH276194   5.067   1.826  16.062 -0.2037  0.0153 -0.2730
18260TIP3    H176195   4.984   1.869  16.040 -1.1515 -0.2280  2.4221
18260TIP3    H276196   5.090   1.777  15.983 -2.8389 -0.2383 -0.9854
18261TIP3   OH276197   4.824   6.300   5.869  0.1595 -0.0171  0.2783
18261TIP3    H176198   4.892   6.233   5.859 -1.1808 -1.2290 -1.1607
18261TIP3    H276199   4.870   6.383   5.858  1.9886 -0.5818  2.7184
18262TIP3   OH276200   6.435   4.042   0.037 -0.4927  0.1438  0.8116
18262TIP3    H176201   6.411   3.965   0.088 -1.2683  0.2190  0.5758
18262TIP3    H276202   6.479   4.007  -0.041 -0.3044 -0.0233  0.9907
18263TIP3   OH276203   2.817   1.166   5.652  0.1395  0.0835 -0.2124
18263TIP3    H176204   2.782   1.207   5.731 -1.3478  0.7069 -1.1459
18263TIP3    H276205   2.740   1.149   5.598  0.9673 -1.7798 -0.8697
18264TIP3   OH276206   6.398   0.187  14.645  0.6189 -0.1061  0.3128
18264TIP3    H176207   6.442   0.111  14.685  1.3188  0.8348  1.3844
18264TIP3    H276208   6.346   0.225  14.717  2.0127  1.7061  0.4177
18265TIP3   OH276209   6.197   1.630   5.106  0.3363  0.1631  0.1529
18265TIP3    H176210   6.137   1.560   5.130 -1.0224  1.0110 -0.6405
18265TIP3    H276211   6.255   1.591   5.041 -0.0193 -0.3999  0.1735
18266TIP3   OH276212   6.105   1.269  11.473 -0.0651 -0.3107 -0.2698
18266TIP3    H176213   6.044   1.268  11.399 -0.8045  2.1962  0.2261
18266TIP3    H276214   6.174   1.329  11.446  1.0667 -1.4336  0.0532
18267TIP3   OH276215   6.320   0.715  12.049 -0.2216 -0.2197 -0.8843
18267TIP3    H176216   6.259   0.786  12.029  0.4067  0.5780 -0.0679
18267TIP3    H276217   6.271   0.658  12.109  0.4477  1.5088  1.4458
18268TIP3   OH276218   3.127   5.260  16.292 -0.3946  0.0424  0.1085
18268TIP3    H176219   3.212   5.271  16.249 -0.1814 -0.3539  0.4217
18268TIP3    H276220   3.149   5.232  16.381 -0.8631 -0.8525 -0.0460
18269TIP3   OH276221   4.365   4.826  15.113  0.1426 -0.1806  0.0529
18269TIP3    H176222   4.416   4.890  15.064 -0.6167  0.0178 -0.5054
18269TIP3    H276223   4.376   4.745  15.063 -1.6889  0.3053 -1.2700
18270TIP3   OH276224   0.922   3.781   1.834  0.2096 -0.1746 -0.5671
18270TIP3    H176225   0.842   3.799   1.882  0.6648 -0.2088  0.2130
18270TIP3    H276226   0.903   3.809   1.744 -0.1466  1.2612 -0.0630
18271TIP3   OH276227   3.630   3.636   5.184  0.7055  0.4556  0.5287
18271TIP3    H176228   3.607   3.728   5.172 -0.3498  0.1934  0.4337
18271TIP3    H276229   3.549   3.589   5.166  1.1768 -0.4809  0.8042
18272TIP3   OH276230   1.058   3.258  16.030  0.0935  1.0610  0.0560
18272TIP3    H176231   1.096   3.249  15.942 -0.8372 -0.2646 -0.2292
18272TIP3    H276232   0.996   3.330  16.021 -1.8367 -0.6558 -1.0796
18273TIP3   OH276233   6.802   0.489  13.423 -0.0599 -0.0126  0.0362
18273TIP3    H176234   6.734   0.485  13.491 -0.1119 -0.2451 -0.0281
18273TIP3    H276235   6.780   0.418  13.363  0.8040 -0.7122  0.5354
18274TIP3   OH276236   6.787   5.355   0.454 -0.2935  0.3300  0.3385
18274TIP3    H176237   6.815   5.314   0.536 -0.1333  2.2363  1.2958
18274TIP3    H276238   6.692   5.365   0.464 -0.2243  0.8944  0.4601
18275TIP3   OH276239   4.223   1.599  11.874 -0.1772 -0.0187 -0.3959
18275TIP3    H176240   4.195   1.685  11.904  1.0731 -0.5187  2.6479
18275TIP3    H276241   4.290   1.617  11.808 -0.5301  1.3078 -0.4179
18276TIP3   OH276242   6.062   1.704   4.206 -0.0501 -0.1785 -0.1081
18276TIP3    H176243   5.982   1.758   4.204  0.2642  0.2766 -0.9040
18276TIP3    H276244   6.038   1.628   4.259 -0.3899  0.9292  1.3906
18277TIP3   OH276245   3.105   3.229  15.880  0.4719  0.5475  0.6708
18277TIP3    H176246   3.194   3.240  15.847 -0.2590  0.9268 -1.2699
18277TIP3    H276247   3.096   3.134  15.893  0.8047  0.3886 -0.1902
18278TIP3   OH276248   1.967   0.182   4.137 -0.3812  0.0830 -0.0454
18278TIP3    H176249   2.004   0.267   4.160  1.3694 -0.0018 -2.2247
18278TIP3    H276250   1.903   0.201   4.069  1.7627 -0.4381 -2.3468
18279TIP3   OH276251   4.230   1.023  13.921  0.3363  0.5193 -0.7136
18279TIP3    H176252   4.305   1.051  13.974  0.2672 -1.7014  0.6906
18279TIP3    H276253   4.168   1.096  13.928  1.0047  0.9924  0.9489
18280TIP3   OH276254   3.563   4.240  11.894  0.5842 -0.0731  0.5331
18280TIP3    H176255   3.528   4.209  11.810 -2.3003 -0.4874  1.7786
18280TIP3    H276256   3.617   4.168  11.925  1.4664 -0.0293 -0.8096
18281TIP3   OH276257   0.987   1.188  15.318  0.0162 -0.4518  0.3193
18281TIP3    H176258   1.008   1.196  15.411 -0.3787  0.5411  0.3379
18281TIP3    H276259   1.072   1.176  15.276  0.6014  2.3206  0.5085
18282TIP3   OH276260   0.121   6.162  14.255  0.1727  0.0869  0.6609
18282TIP3    H176261   0.137   6.149  14.161 -0.1284 -1.7411  0.8152
18282TIP3    H276262   0.205   6.143  14.296  0.2244  0.5838  0.7865
18283TIP3   OH276263   5.837   4.835  12.464 -0.2449 -0.5200  0.0301
18283TIP3    H176264   5.894   4.854  12.539 -1.2639 -2.7046  1.4822
18283TIP3    H276265   5.897   4.801  12.397  0.3588 -1.3334  0.9526
18284TIP3   OH276266   4.930   6.639   0.175  0.4876 -0.1813 -0.2737
18284TIP3    H176267   4.895   6.572   0.233  0.2676  1.7625  1.9784
18284TIP3    H276268   4.872   6.638   0.099 -0.4211 -1.4596  0.3977
18285TIP3   OH276269   4.935   1.750   2.201  0.8640  0.9867 -0.2581
18285TIP3    H176270   4.931   1.676   2.141 -0.2671 -0.1185  1.1025
18285TIP3    H276271   5.015   1.797   2.177  1.6605 -0.7189 -1.0842
18286TIP3   OH276272   3.183   1.368  16.281 -0.1186 -0.3932 -0.1671
18286TIP3    H176273   3.250   1.409  16.227  0.2724 -0.8175 -0.0094
18286TIP3    H276274   3.178   1.278  16.250 -0.6281 -0.3577 -0.1884
18287TIP3   OH276275   1.047   3.491   0.615  0.7478  0.0895  0.0539
18287TIP3    H176276   1.003   3.491   0.701  0.4621  0.0428 -0.0905
18287TIP3    H276277   1.046   3.400   0.587  0.6933  0.1287 -0.0730
18288TIP3   OH276278   2.544   0.679  15.549 -0.1407 -0.5713  0.2391
18288TIP3    H176279   2.593   0.729  15.614 -0.7194  0.6746 -0.2357
18288TIP3    H276280   2.461   0.727  15.540  0.9411  0.9604 -3.3836
18289TIP3   OH276281   6.742   0.235   0.514  0.3284 -0.0471 -0.6520
18289TIP3    H176282   6.765   0.326   0.534  0.3795 -0.1476 -0.2427
18289TIP3    H276283   6.726   0.235   0.419 -0.0039  0.4618 -0.6069
18290TIP3   OH276284   3.586   5.945   0.944 -0.3928 -0.6114  0.3965
18290TIP3    H176285   3.624   6.033   0.953  1.5383 -1.3946  0.4236
18290TIP3    H276286   3.660   5.890   0.918 -2.2594 -1.6010 -3.4875
18291TIP3   OH276287   4.602   6.218   4.473 -0.2484  0.1551  0.3780
18291TIP3    H176288   4.555   6.136   4.460 -0.1872 -0.0756  1.5027
18291TIP3    H276289   4.534   6.285   4.471 -0.4676 -0.0548  0.7659
18292TIP3   OH276290   5.531   4.997  13.001  0.0516  0.6377 -0.4070
18292TIP3    H176291   5.449   5.032  13.036 -0.6221 -0.9284 -0.3141
18292TIP3    H276292   5.598   5.023  13.064 -0.5590  0.9942  0.1007
18293TIP3   OH276293   0.190   0.437   3.738 -0.2021 -0.5799  0.1813
18293TIP3    H176294   0.186   0.532   3.721 -1.3858 -0.0949  2.7494
18293TIP3    H276295   0.108   0.403   3.701  0.6900 -0.8277 -1.6670
18294TIP3   OH276296   6.198   1.893   4.629 -0.2205 -0.1041  0.5783
18294TIP3    H176297   6.258   1.940   4.571 -1.2965 -1.3439 -1.7167
18294TIP3    H276298   6.252   1.865   4.702  1.2390  1.5177  0.1948
18295TIP3   OH276299   1.107   5.282  15.282 -0.0857 -0.5753  0.0010
18295TIP3    H176300   1.016   5.254  15.274 -0.9190  2.0063 -0.6606
18295TIP3    H276301   1.116   5.352  15.218  2.3742 -0.7143  0.1077
18296TIP3   OH276302   3.771   1.395   5.728 -0.5193 -0.3120 -0.3617
18296TIP3    H176303   3.795   1.372   5.638 -0.7957 -0.3793 -0.4179
18296TIP3    H276304   3.731   1.316   5.763 -3.0801  0.5712 -1.1027
18297TIP3   OH276305   4.898   5.084  13.814 -0.5389  0.3219  0.4387
18297TIP3    H176306   4.972   5.066  13.755 -0.7941 -2.3545  0.7993
18297TIP3    H276307   4.938   5.126  13.890  0.5858 -0.6550  0.4226
18298TIP3   OH276308   2.951   6.456  10.867  0.3971  0.6375  0.6211
18298TIP3    H176309   3.008   6.434  10.794  1.3512 -0.7426  1.7236
18298TIP3    H276310   3.010   6.461  10.943 -0.7644  0.5515  1.5631
18299TIP3   OH276311   1.018   4.056   1.655 -0.1494  0.6530 -0.1465
18299TIP3    H176312   1.012   4.129   1.716 -2.1461  0.9736 -0.6376
18299TIP3    H276313   0.937   4.061   1.604  0.0049 -1.4676 -0.6945
18300TIP3   OH276314   4.017   0.454   4.099  0.4349 -0.0854  0.4725
18300TIP3    H176315   3.960   0.391   4.143  0.9166  0.6845  2.3170
18300TIP3    H276316   4.097   0.406   4.081 -0.3417 -0.8484 -1.0582
18301TIP3   OH276317   3.410   1.728  15.955  0.6892 -0.4153 -0.5139
18301TIP3    H176318   3.381   1.818  15.940  0.3838 -0.2264  1.0114
18301TIP3    H276319   3.455   1.703  15.874  1.8281  1.5272 -0.5439
18302TIP3   OH276320   3.246   3.475   4.670  0.4017 -0.1696 -0.5117
18302TIP3    H176321   3.233   3.423   4.749 -1.8771 -1.3116 -1.5443
18302TIP3    H276322   3.331   3.517   4.682  0.4945 -0.9684  2.1455
18303TIP3   OH276323   0.269   5.461   0.864  0.0055  0.3745 -0.6313
18303TIP3    H176324   0.249   5.554   0.875 -1.9871 -0.0889  0.0823
18303TIP3    H276325   0.187   5.423   0.832  0.3281 -1.3666  0.5311
18304TIP3   OH276326   6.290   5.643  14.017 -0.0880 -0.5876  0.6580
18304TIP3    H176327   6.285   5.669  14.108  0.4694 -1.9674  1.1108
18304TIP3    H276328   6.218   5.690  13.974  0.0829  0.6240  1.6407
18305TIP3   OH276329   5.064   5.761  16.168  0.1389  0.1202 -0.1802
18305TIP3    H176330   5.121   5.725  16.236  0.2772 -3.4474 -1.9573
18305TIP3    H276331   5.122   5.815  16.114  0.3244  1.7832  1.5797
18306TIP3   OH276332   5.221   1.626  16.703  0.1510  0.3754  0.3765
18306TIP3    H176333   5.279   1.674  16.762  1.8011 -0.3457 -0.5765
18306TIP3    H276334   5.145   1.683  16.692  1.4812  2.2028  0.2597
18307TIP3   OH276335   6.686   2.494  13.979 -0.0027 -0.3337 -0.1473
18307TIP3    H176336   6.761   2.552  13.989 -0.7180  0.6138 -0.2311
18307TIP3    H276337   6.710   2.438  13.904  0.2851  0.4962 -0.6899
18308TIP3   OH276338   0.135   1.204  13.788 -0.0519 -0.0558  0.1571
18308TIP3    H176339   0.128   1.195  13.883 -0.1457  0.4556  0.2024
18308TIP3    H276340   0.190   1.281  13.775 -0.5472  0.2448 -0.2001
18309TIP3   OH276341   6.443   2.806  12.286  0.2405 -0.2828 -0.1298
18309TIP3    H176342   6.475   2.854  12.362 -0.4663 -0.7192  0.4583
18309TIP3    H276343   6.365   2.854  12.259 -0.4921 -1.1009  0.4848
18310TIP3   OH276344   1.023   1.705  13.105 -0.2560 -0.3291  0.5580
18310TIP3    H176345   1.108   1.686  13.066  1.0251 -1.0944  3.4957
18310TIP3    H276346   1.029   1.797  13.133 -0.1004 -0.5730  1.3623
18311TIP3   OH276347   0.818   6.289  12.519 -0.8422  0.5030  0.1737
18311TIP3    H176348   0.811   6.382  12.542  0.8969  0.8943 -0.6345
18311TIP3    H276349   0.851   6.290  12.429  1.0295 -0.8527  0.7837
18312TIP3   OH276350   4.495   6.621   5.645 -0.0032 -0.0718  0.4774
18312TIP3    H176351   4.515   6.677   5.719 -0.6985  0.4799  0.2499
18312TIP3    H276352   4.468   6.681   5.576 -0.6591 -0.6800  0.2011
18313TIP3   OH276353   5.382   0.529   4.789 -0.1789  0.9317  0.2905
18313TIP3    H176354   5.298   0.542   4.746 -1.1805 -1.0331  1.5114
18313TIP3    H276355   5.385   0.435   4.809  1.8727  1.1216  1.1575
18314TIP3   OH276356   5.357   3.699  13.850 -0.0846 -0.0977  0.1679
18314TIP3    H176357   5.298   3.695  13.774 -0.5286  1.2984  0.3984
18314TIP3    H276358   5.311   3.755  13.913  1.2639  0.6523  0.5430
18315TIP3   OH276359   5.177   0.184  16.778 -0.0384  0.4993  0.5688
18315TIP3    H176360   5.225   0.253  16.824 -0.0092  0.8209  0.0508
18315TIP3    H276361   5.245   0.124  16.748  0.0478  0.9933 -0.2289
18316TIP3   OH276362   2.101   3.812  17.045 -0.3779  0.3881 -0.2465
18316TIP3    H176363   2.139   3.728  17.019 -2.2519 -1.2361  1.8422
18316TIP3    H276364   2.085   3.803  17.139 -3.9037  1.6881 -0.5696
18317TIP3   OH276365   6.748   1.679   5.950  0.1195 -0.8278 -0.0158
18317TIP3    H176366   6.698   1.636   6.019 -1.4566  0.5789 -0.2106
18317TIP3    H276367   6.785   1.757   5.992  0.5857 -0.8689 -0.3444
18318TIP3   OH276368   2.586   2.100   5.472  0.8288  0.6413  0.3854
18318TIP3    H176369   2.532   2.082   5.549  1.8415 -2.1411  0.5361
18318TIP3    H276370   2.627   2.184   5.492 -2.2085  2.1844  0.8858
18319TIP3   OH276371   2.816   6.348  11.322  0.2027 -0.1221 -0.0557
18319TIP3    H176372   2.759   6.407  11.373 -1.6840 -1.9168  0.0372
18319TIP3    H276373   2.781   6.352  11.233 -0.0957 -1.2562  0.0031
18320TIP3   OH276374   4.411   6.153   2.747  0.2889  0.1854 -0.1868
18320TIP3    H176375   4.425   6.070   2.702  1.4977 -0.1707  0.7968
18320TIP3    H276376   4.391   6.128   2.837 -0.0045  0.9527 -0.0298
18321TIP3   OH276377   6.612   2.498  12.535  0.2824  0.3394  0.1177
18321TIP3    H176378   6.690   2.490  12.589  0.5259 -1.6257 -0.4479
18321TIP3    H276379   6.539   2.500  12.597  0.6406 -0.3822  0.5562
18322TIP3   OH276380   5.608   6.135  15.569  0.0447  0.1474 -1.1942
18322TIP3    H176381   5.586   6.045  15.546  0.1128 -0.1241 -0.2283
18322TIP3    H276382   5.701   6.134  15.589  0.0766  0.4593 -1.3164
18323TIP3   OH276383   1.849   2.030   5.685 -0.5932  0.3468  0.4094
18323TIP3    H176384   1.938   2.004   5.662 -0.4179  1.5119 -0.3076
18323TIP3    H276385   1.802   1.948   5.697 -0.0424 -0.3141 -1.6185
18324TIP3   OH276386   2.462   5.980   3.416  0.4067  0.7333 -0.0640
18324TIP3    H176387   2.395   5.945   3.357  0.2413 -2.0249  1.5886
18324TIP3    H276388   2.533   6.009   3.358 -0.4505 -0.2390 -1.6595
18325TIP3   OH276389   6.028   4.673   5.663 -0.1677  0.2408  0.5584
18325TIP3    H176390   5.993   4.762   5.666 -0.1457  0.2375  1.0944
18325TIP3    H276391   6.113   4.680   5.708  0.1380  0.0837  0.0094
18326TIP3   OH276392   0.234   2.558   2.268  0.4151 -0.1230 -0.0795
18326TIP3    H176393   0.306   2.504   2.299  0.6574 -0.0862 -0.5617
18326TIP3    H276394   0.186   2.501   2.207  0.6671  0.1955 -0.5862
18327TIP3   OH276395   1.835   3.167  16.714 -0.3868  0.1723  0.2552
18327TIP3    H176396   1.793   3.181  16.799 -1.5934 -0.1889 -0.2557
18327TIP3    H276397   1.763   3.175  16.651  0.3767 -0.1854 -0.6802
18328TIP3   OH276398   3.606   2.071  16.322  0.0629  0.4110  0.3920
18328TIP3    H176399   3.543   2.080  16.394 -0.9853  0.0230 -0.4533
18328TIP3    H276400   3.580   1.991  16.277  0.1248  1.1407 -0.9766
18329TIP3   OH276401   1.182   4.754   5.210  0.1250 -0.3157 -0.2041
18329TIP3    H176402   1.235   4.682   5.176 -0.5206 -2.0110  2.0908
18329TIP3    H276403   1.110   4.711   5.256 -0.3415  1.8076  1.2225
18330TIP3   OH276404   5.369   0.300   2.233  0.0273 -0.5880 -0.2617
18330TIP3    H176405   5.371   0.268   2.142  0.6601 -3.6733  0.7007
18330TIP3    H276406   5.302   0.245   2.275  0.8332 -0.2763  1.4751
18331TIP3   OH276407   3.615   1.833  14.397 -0.5032  0.2919 -0.5025
18331TIP3    H176408   3.621   1.829  14.492 -2.0324 -2.8815 -0.4067
18331TIP3    H276409   3.686   1.892  14.371  1.6655 -0.7574  2.4367
18332TIP3   OH276410   1.047   6.774  12.635  0.1007  0.0263 -0.4750
18332TIP3    H176411   1.083   6.692  12.669  0.3630 -0.6168 -2.2163
18332TIP3    H276412   0.963   6.783  12.679  0.0797 -1.1611 -0.2218
18333TIP3   OH276413   6.326   0.340  12.366 -0.3182  0.3329  0.1275
18333TIP3    H176414   6.236   0.318  12.389  0.0435  1.1062  2.5105
18333TIP3    H276415   6.344   0.285  12.289 -3.2873  1.3333 -1.4706
18334TIP3   OH276416   1.630   1.197   5.411  0.7028  0.0971  0.1119
18334TIP3    H176417   1.679   1.131   5.459 -0.1168  0.7746  1.9703
18334TIP3    H276418   1.651   1.279   5.456 -0.5490  0.6760 -0.3344
18335TIP3   OH276419   4.031   0.198  15.355  0.2876  0.0948  0.0131
18335TIP3    H176420   4.016   0.184  15.449 -0.4389  2.9467  0.4175
18335TIP3    H276421   4.097   0.132  15.332  0.1238 -1.0307  2.3891
18336TIP3   OH276422   4.485   6.376   5.353 -0.0249 -0.3163  0.2171
18336TIP3    H176423   4.406   6.397   5.403  0.0359 -0.4952  0.3910
18336TIP3    H276424   4.549   6.350   5.419  0.0790 -0.4848  0.0503
18337TIP3   OH276425   3.774   3.130  16.346 -0.0216  0.3514 -0.3771
18337TIP3    H176426   3.819   3.213  16.360 -0.5893  0.9279 -1.7507
18337TIP3    H276427   3.739   3.106  16.432  0.1256  1.5443  0.0277
18338TIP3   OH276428   3.900   5.831   0.605  0.5521  0.1648 -0.1580
18338TIP3    H176429   3.957   5.892   0.559  2.0760 -0.7972  0.3886
18338TIP3    H276430   3.958   5.761   0.635 -1.2499 -2.1618 -1.6702
18339TIP3   OH276431   5.435   3.276   3.078  0.0406  0.1486 -0.4525
18339TIP3    H176432   5.475   3.361   3.097 -0.4323  0.3650 -0.4257
18339TIP3    H276433   5.475   3.216   3.141  1.1560  0.1289 -1.1375
18340TIP3   OH276434   4.522   1.798  12.232 -0.3085 -0.0663 -0.3072
18340TIP3    H176435   4.440   1.750  12.238  0.4235 -1.1854  1.4103
18340TIP3    H276436   4.569   1.756  12.160 -0.1025 -1.2843  0.5141
18341TIP3   OH276437   4.854   4.465   1.624 -0.1677  0.2283  0.7546
18341TIP3    H176438   4.786   4.459   1.692  0.2722  0.6512  1.2446
18341TIP3    H276439   4.889   4.554   1.633  0.6857 -0.0978  0.7442
18342TIP3   OH276440   4.021   2.244  14.896  0.2510 -0.5796 -0.6003
18342TIP3    H176441   3.980   2.329  14.881 -0.9855 -1.0901 -0.2246
18342TIP3    H276442   4.109   2.265  14.928 -0.4989  0.5787  0.8349
18343TIP3   OH276443   1.612   0.607  13.644 -0.1119 -0.3350 -0.0777
18343TIP3    H176444   1.571   0.687  13.613  1.1494 -0.2412 -1.6356
18343TIP3    H276445   1.655   0.632  13.726 -3.3413 -0.5446  1.8312
18344TIP3   OH276446   0.154   4.042   4.432 -0.0262  0.3153 -0.2012
18344TIP3    H176447   0.075   4.032   4.379  0.4565  0.0854 -0.8794
18344TIP3    H276448   0.208   4.103   4.382  0.5838 -0.1839 -0.1511
18345TIP3   OH276449   2.317   0.306   0.362 -0.0615  0.5264  0.4870
18345TIP3    H176450   2.274   0.351   0.289  0.2496  0.8070  0.4763
18345TIP3    H276451   2.290   0.214   0.352 -1.4249  0.8369  1.0190
18346TIP3   OH276452   4.808   5.276  12.438 -0.2197  0.3176 -0.5528
18346TIP3    H176453   4.788   5.208  12.373  1.3942 -0.1412 -0.6126
18346TIP3    H276454   4.739   5.341  12.426 -0.4465 -0.1633 -2.1486
18347TIP3   OH276455   3.883   0.756  14.076  0.0283  0.1161  0.4920
18347TIP3    H176456   3.860   0.847  14.055 -0.1215 -0.1707 -0.6437
18347TIP3    H276457   3.967   0.741  14.032 -1.1361 -1.0371 -1.4416
18348TIP3   OH276458   4.193   1.183  11.190 -0.4325  0.4783 -0.0509
18348TIP3    H176459   4.176   1.099  11.148 -0.7752 -0.2850  1.5419
18348TIP3    H276460   4.266   1.220  11.140 -0.3244 -0.7142 -0.8263
18349TIP3   OH276461   2.495   5.689   2.386  0.1492  0.8019  0.2184
18349TIP3    H176462   2.528   5.728   2.305  0.6956  1.1943  0.6215
18349TIP3    H276463   2.498   5.760   2.450  1.3717  0.0717  1.0288
18350TIP3   OH276464   4.681   1.853  12.886 -0.0242  0.2138  0.2155
18350TIP3    H176465   4.692   1.766  12.925 -0.1649  0.5193  0.9707
18350TIP3    H276466   4.753   1.862  12.824  0.5017 -0.1052  0.7753
18351TIP3   OH276467   1.988   6.396  15.811 -0.4829 -0.2647  0.5657
18351TIP3    H176468   2.027   6.317  15.849  1.5923  0.5447  0.2430
18351TIP3    H276469   2.057   6.462  15.815 -0.8559  0.4922 -2.6730
18352TIP3   OH276470   2.550   3.888   2.736 -0.4644  0.2266 -0.3461
18352TIP3    H176471   2.528   3.800   2.706  1.1579  0.0192 -1.0163
18352TIP3    H276472   2.469   3.921   2.774 -1.0444 -1.6378  0.1486
18353TIP3   OH276473   2.138   2.053   1.524 -0.2471 -0.5894  0.7258
18353TIP3    H176474   2.106   2.143   1.535 -0.5728 -0.7523  1.1292
18353TIP3    H276475   2.197   2.058   1.449 -0.9657 -0.2186  0.1679
18354TIP3   OH276476   4.410   4.990   5.077  0.2188 -0.2067  0.4699
18354TIP3    H176477   4.489   4.941   5.101 -0.0547 -0.1495  1.5088
18354TIP3    H276478   4.402   4.976   4.983  1.5080 -0.1602  0.3266
18355TIP3   OH276479   3.611   3.254  12.207 -0.1135 -0.1614 -0.1595
18355TIP3    H176480   3.657   3.283  12.129  2.3166 -1.4230  0.6878
18355TIP3    H276481   3.619   3.327  12.269 -0.0907 -0.0183 -0.3303
18356TIP3   OH276482   6.083   1.881   0.948 -0.0757 -0.1174  0.1403
18356TIP3    H176483   6.048   1.833   0.873 -0.5488 -0.5550  0.6374
18356TIP3    H276484   6.177   1.859   0.949  0.3735  1.5269 -1.5454
18357TIP3   OH276485   3.659   5.824  11.694 -0.0146  0.2914  0.2398
18357TIP3    H176486   3.597   5.767  11.739  0.2753  0.9713  1.5514
18357TIP3    H276487   3.605   5.889  11.651 -0.2561  0.4299  0.7394
18358TIP3   OH276488   1.560   0.418   4.846 -0.0286  0.7750 -0.7101
18358TIP3    H176489   1.490   0.483   4.847 -1.4888 -0.7241 -1.3853
18358TIP3    H276490   1.516   0.335   4.831  1.8091 -0.3696 -0.1460
18359TIP3   OH276491   1.026   5.754  11.290 -0.1053  0.3811  0.7310
18359TIP3    H176492   1.099   5.706  11.329 -0.5998  0.2678  1.5604
18359TIP3    H276493   0.952   5.736  11.349 -1.4227 -1.4322 -1.3309
18360TIP3   OH276494   5.486   0.764   2.293 -0.2356 -0.0632 -0.6767
18360TIP3    H176495   5.433   0.813   2.231 -2.2773 -0.7885  0.4050
18360TIP3    H276496   5.566   0.816   2.303 -1.2564  1.7405 -1.4057
18361TIP3   OH276497   0.953   4.882   0.039  0.0977  0.0296  0.3230
18361TIP3    H176498   0.875   4.868  -0.015 -1.6289  1.0040  2.4192
18361TIP3    H276499   0.995   4.797   0.044 -0.1631 -0.2749 -1.7894
18362TIP3   OH276500   1.650   0.597  12.306 -0.6444 -0.2387  0.1693
18362TIP3    H176501   1.584   0.619  12.371 -0.0435  1.3493  0.2824
18362TIP3    H276502   1.683   0.681  12.275  1.4090 -0.9589  0.1871
18363TIP3   OH276503   5.985   3.448   3.316 -0.4352  0.0085  0.6543
18363TIP3    H176504   6.015   3.357   3.311  0.9279  0.2457  3.0287
18363TIP3    H276505   5.895   3.442   3.349 -1.0409 -0.5094 -1.0127
18364TIP3   OH276506   2.599   2.820   6.084 -0.8020  0.2613  0.4261
18364TIP3    H176507   2.593   2.913   6.063  0.6062  0.2128 -0.3131
18364TIP3    H276508   2.646   2.817   6.167  0.7248  0.1704 -0.4125
18365TIP3   OH276509   0.251   3.235   3.803  0.4673 -0.7443 -0.4571
18365TIP3    H176510   0.210   3.221   3.718 -1.1589  0.2749  0.1106
18365TIP3    H276511   0.336   3.274   3.783 -0.4284  0.7000 -1.6026
18366TIP3   OH276512   5.455   0.286  13.524  0.3959  0.1749  0.0960
18366TIP3    H176513   5.408   0.217  13.478  0.0461 -0.4437  1.3471
18366TIP3    H276514   5.386   0.337  13.566  0.6994  0.8608 -0.2221
18367TIP3   OH276515   4.319   5.317   4.370  0.0842 -0.4285  0.4410
18367TIP3    H176516   4.290   5.348   4.456 -1.0153  1.6774 -0.6261
18367TIP3    H276517   4.396   5.263   4.389  0.1272  0.3186  2.7082
18368TIP3   OH276518   4.660   3.434   2.917 -0.1242  0.3648 -0.3178
18368TIP3    H176519   4.643   3.368   2.983 -2.9585  0.9171 -0.3636
18368TIP3    H276520   4.648   3.389   2.833  1.5255  0.1271 -0.4490
18369TIP3   OH276521   2.564   1.505  16.345  0.4202 -0.7044 -0.3356
18369TIP3    H176522   2.528   1.590  16.372 -1.3030 -0.9288 -1.6805
18369TIP3    H276523   2.543   1.446  16.417 -3.1375 -1.0740 -1.4641
18370TIP3   OH276524   4.734   2.913   3.999  0.0382 -0.0715  0.1314
18370TIP3    H176525   4.670   2.883   3.935  2.7902 -2.5663 -1.7418
18370TIP3    H276526   4.818   2.911   3.951  2.1283 -1.1547  3.5123
18371TIP3   OH276527   6.110   0.682  11.348 -0.1007 -0.2190  0.1744
18371TIP3    H176528   6.081   0.660  11.259 -0.7265  1.8168 -0.1628
18371TIP3    H276529   6.081   0.772  11.361 -1.1067 -0.8449  2.9160
18372TIP3   OH276530   3.161   1.461   3.295 -0.7313 -0.0534 -0.3131
18372TIP3    H176531   3.218   1.416   3.233 -0.4872  0.0379 -0.1599
18372TIP3    H276532   3.183   1.422   3.380 -1.4433 -0.5541 -0.3510
18373TIP3   OH276533   3.617   5.923   3.551  0.2216  0.2034 -0.3687
18373TIP3    H176534   3.639   5.976   3.627  0.5369  1.5427 -1.3605
18373TIP3    H276535   3.599   5.836   3.587  0.8206  0.6806  1.1710
18374TIP3   OH276536   5.875   5.707   5.479  0.0144 -0.4673 -0.6379
18374TIP3    H176537   5.811   5.707   5.550  1.7141 -1.5105  0.9856
18374TIP3    H276538   5.857   5.627   5.430 -0.5248 -0.2606 -0.7819
18375TIP3   OH276539   2.015   6.561   4.448  0.0025 -0.7726 -0.5882
18375TIP3    H176540   2.002   6.623   4.376 -2.0361 -0.0833  0.3093
18375TIP3    H276541   1.931   6.517   4.457  0.5518 -1.5938  0.7030
18376TIP3   OH276542   0.864   1.933   3.378 -0.9298  0.0146 -0.2712
18376TIP3    H176543   0.869   1.990   3.301 -0.6658  0.4901  0.0985
18376TIP3    H276544   0.918   1.857   3.355 -1.8641 -0.4419 -1.0505
18377TIP3   OH276545   2.333   5.513  16.747 -0.4705 -0.4584  0.3873
18377TIP3    H176546   2.425   5.527  16.767 -0.5040 -1.4437  1.3270
18377TIP3    H276547   2.315   5.571  16.673  1.1331 -0.9118 -0.4037
18378TIP3   OH276548   4.492   5.432   0.205  0.4108 -0.0701  0.6252
18378TIP3    H176549   4.555   5.503   0.190 -0.0718 -0.1011 -2.0969
18378TIP3    H276550   4.539   5.353   0.178  0.2334 -0.5092  1.5847
18379TIP3   OH276551   5.089   1.217  12.363 -0.1910  0.1161  0.0053
18379TIP3    H176552   5.093   1.250  12.273 -0.4559  1.6019  0.5024
18379TIP3    H276553   5.151   1.272  12.411  0.1962 -0.8824  0.6851
18380TIP3   OH276554   3.472   3.781  16.056  0.1117 -0.0541  0.3941
18380TIP3    H176555   3.409   3.710  16.068 -0.6946  0.3400 -1.2623
18380TIP3    H276556   3.552   3.737  16.026 -0.0173 -0.3618  0.4982
18381TIP3   OH276557   0.967   3.580  14.095 -0.4882 -0.3732 -0.2260
18381TIP3    H176558   1.055   3.583  14.133  0.2639  0.2027 -1.9356
18381TIP3    H276559   0.917   3.642  14.148  0.9327  1.5869 -1.0623
18382TIP3   OH276560   0.477   0.342   5.877  0.5201  0.0839 -0.1011
18382TIP3    H176561   0.458   0.278   5.808  0.7362  0.7049 -0.7539
18382TIP3    H276562   0.487   0.425   5.830  1.1410  0.4338  0.6305
18383TIP3   OH276563   0.984   5.368   5.713 -0.4781  0.2268  0.3465
18383TIP3    H176564   1.074   5.341   5.733  0.6099  3.8640  1.0410
18383TIP3    H276565   0.965   5.327   5.628  1.7223 -0.8360  0.2945
18384TIP3   OH276566   3.981   5.882  12.471 -0.4596 -0.2793  0.4384
18384TIP3    H176567   4.046   5.846  12.530 -1.4818 -0.6389  1.3743
18384TIP3    H276568   3.922   5.809  12.452 -0.1770 -0.1587 -1.0028
18385TIP3   OH276569   6.460   3.218  16.764 -0.5396  0.2252 -0.2892
18385TIP3    H176570   6.496   3.292  16.813  1.6957 -0.4010 -0.8808
18385TIP3    H276571   6.403   3.174  16.827  1.5041  0.0039  1.5356
18386TIP3   OH276572   5.393   4.264  13.308 -0.3708 -0.0116 -0.6523
18386TIP3    H176573   5.342   4.341  13.285 -1.1174 -0.2508  0.1284
18386TIP3    H276574   5.483   4.295  13.315 -0.4614  0.4966 -1.6775
18387TIP3   OH276575   0.588   0.703  13.465  0.6427 -0.2471  0.0081
18387TIP3    H176576   0.522   0.720  13.398  1.0886  0.2518 -0.3112
18387TIP3    H276577   0.656   0.654  13.421  0.5256 -0.6982  0.3212
18388TIP3   OH276578   3.397   4.976   5.158 -0.2961 -0.1510  0.3815
18388TIP3    H176579   3.342   5.045   5.122 -0.1636  0.1397  0.7322
18388TIP3    H276580   3.462   4.960   5.089  0.2961  0.7928  0.6915
18389TIP3   OH276581   2.917   2.840   0.013 -0.1114 -0.2942  0.0794
18389TIP3    H176582   2.940   2.846   0.105 -0.3997  0.3406  0.1113
18389TIP3    H276583   2.952   2.920  -0.027 -1.5003  0.2997 -0.0207
18390TIP3   OH276584   5.969   4.567  14.809  0.3302 -0.8992  0.1198
18390TIP3    H176585   6.029   4.637  14.837 -1.0244 -0.2263  1.4704
18390TIP3    H276586   6.012   4.528  14.733  1.6733  0.6548  0.0249
18391TIP3   OH276587   0.950   6.722   4.782 -0.1323 -0.2002  0.4307
18391TIP3    H176588   1.010   6.660   4.823  1.6425 -0.4953 -2.3788
18391TIP3    H276589   0.999   6.805   4.780 -0.7331  0.1542  0.1505
18392TIP3   OH276590   4.271   1.234  15.636 -0.0383  0.0472 -0.1141
18392TIP3    H176591   4.270   1.145  15.602 -0.2054  0.0954 -0.2401
18392TIP3    H276592   4.246   1.226  15.728  0.4724 -0.0909  0.0158
18393TIP3   OH276593   1.265   4.843   2.566 -0.4306  0.2205  0.4589
18393TIP3    H176594   1.333   4.894   2.609  2.1628 -2.8126  0.3917
18393TIP3    H276595   1.237   4.779   2.632  0.7699 -1.9733 -1.0097
18394TIP3   OH276596   4.964   5.705   3.831  0.0998 -0.2092  0.4803
18394TIP3    H176597   4.965   5.704   3.927  0.9821  1.8792  0.5213
18394TIP3    H276598   4.890   5.647   3.808 -2.2818  1.7969  2.5057
18395TIP3   OH276599   3.967   1.734   2.170 -0.0550 -0.0046 -0.0502
18395TIP3    H176600   3.983   1.654   2.220 -0.8591  0.3209  0.7585
18395TIP3    H276601   4.050   1.751   2.126 -0.0447 -1.6070 -0.7248
18396TIP3   OH276602   1.916   0.124   1.454  0.1402  0.4644 -0.0577
18396TIP3    H176603   1.977   0.187   1.492  1.0277  0.0006 -0.6925
18396TIP3    H276604   1.924   0.046   1.509  3.1762 -1.0777 -2.4028
18397TIP3   OH276605   1.138   4.601  15.987  0.2582  0.3076 -0.4338
18397TIP3    H176606   1.211   4.579  15.930 -0.1684  0.0194 -0.8687
18397TIP3    H276607   1.100   4.517  16.011  0.5025  0.4175  0.3762
18398TIP3   OH276608   1.188   2.582   0.065  0.0012  0.1480  0.1118
18398TIP3    H176609   1.279   2.553   0.053  0.4032  0.6839  1.6421
18398TIP3    H276610   1.144   2.508   0.106 -0.9877 -1.1144 -2.9402
18399TIP3   OH276611   6.247   3.577   1.552 -0.0691  0.1174 -0.3655
18399TIP3    H176612   6.271   3.635   1.480  1.7150 -0.0938  0.0106
18399TIP3    H276613   6.315   3.510   1.553  0.4245  0.5501  1.9875
18400TIP3   OH276614   5.796   5.377   1.846  0.0110  0.4687  0.5551
18400TIP3    H176615   5.754   5.305   1.799  1.5016 -0.0887  0.0319
18400TIP3    H276616   5.747   5.455   1.818 -1.5041 -0.2728  0.9961
18401TIP3   OH276617   5.372   0.046  17.023  0.1816 -0.1101 -0.4198
18401TIP3    H176618   5.397   0.133  16.991 -3.4359  2.0897  1.9061
18401TIP3    H276619   5.283   0.033  16.989  0.3923 -2.6537 -0.1622
18402TIP3   OH276620   0.269   4.045   0.572  0.3191 -0.2102 -0.2419
18402TIP3    H176621   0.305   4.107   0.636 -0.1507  0.1224 -0.2929
18402TIP3    H276622   0.281   3.959   0.612  0.0949 -0.0134  0.2663
18403TIP3   OH276623   5.446   3.442   3.311 -0.1906 -0.6801  0.4819
18403TIP3    H176624   5.400   3.371   3.355  1.6818 -0.8669  2.2546
18403TIP3    H276625   5.474   3.500   3.381 -0.7333  1.2822 -0.8453
18404TIP3   OH276626   4.059   5.240  11.838  0.7378  0.0616 -0.1125
18404TIP3    H176627   4.009   5.265  11.760 -1.0136  1.5872  1.3805
18404TIP3    H276628   4.008   5.170  11.878  0.4426  0.7533  0.7565
18405TIP3   OH276629   1.669   4.263  13.416  0.3451  0.5758 -0.4397
18405TIP3    H176630   1.591   4.208  13.416  1.6705 -1.4962  1.5416
18405TIP3    H276631   1.711   4.246  13.332 -0.1762 -0.0857 -0.5713
18406TIP3   OH276632   6.441   0.215   0.883 -1.0071  0.1233  0.1431
18406TIP3    H176633   6.435   0.183   0.973 -0.8504  3.5138  1.4988
18406TIP3    H276634   6.531   0.194   0.856 -1.0381 -0.8791  0.7746
18407TIP3   OH276635   1.214   0.127   1.586 -0.2607 -0.1349 -0.2195
18407TIP3    H176636   1.252   0.107   1.671 -2.6726 -0.3067  0.9044
18407TIP3    H276637   1.289   0.132   1.526  1.3236 -2.5588  1.3931
18408TIP3   OH276638   1.976   4.559   5.337  0.1059  0.2622 -0.0412
18408TIP3    H176639   1.915   4.556   5.411 -1.1360 -0.9389 -1.0607
18408TIP3    H276640   1.976   4.650   5.308 -0.7178  0.3954  0.3685
18409TIP3   OH276641   4.473   6.269   2.327 -0.3827  0.0631 -0.3365
18409TIP3    H176642   4.472   6.332   2.399 -0.0866 -0.2886 -0.0187
18409TIP3    H276643   4.393   6.288   2.278  0.1498  1.2779 -0.7714
18410TIP3   OH276644   1.014   4.559   0.889  0.3818 -0.4706  0.7642
18410TIP3    H176645   1.077   4.631   0.884 -1.8347  1.5197  0.0314
18410TIP3    H276646   0.964   4.577   0.969 -0.9977 -0.4580 -0.0777
18411TIP3   OH276647   0.942   1.317   2.284 -0.0466  0.1511  0.3077
18411TIP3    H176648   0.992   1.371   2.223  0.3279 -0.1135  0.3769
18411TIP3    H276649   1.004   1.296   2.354 -0.4029  0.2449  0.6526
18412TIP3   OH276650   3.149   2.492  14.927 -0.1571  0.1217  0.8411
18412TIP3    H176651   3.164   2.548  15.003 -0.3941  1.7607 -0.2747
18412TIP3    H276652   3.232   2.445  14.914 -0.0038  0.0924  1.8739
18413TIP3   OH276653   2.000   0.470  12.304 -0.0885 -0.5043 -0.1917
18413TIP3    H176654   1.937   0.410  12.263 -1.3024 -0.2947  1.3022
18413TIP3    H276655   2.000   0.445  12.396  3.0883 -1.4243 -0.3153
18414TIP3   OH276656   3.938   4.731   2.340  0.1547  0.3717  0.1951
18414TIP3    H176657   3.940   4.640   2.310  3.4512  0.8403 -1.5346
18414TIP3    H276658   4.003   4.736   2.410  0.3668  1.4606 -0.0492
18415TIP3   OH276659   5.504   1.992  13.861 -0.0632 -0.1230 -0.0549
18415TIP3    H176660   5.492   1.970  13.953  0.5118  0.1534  0.0925
18415TIP3    H276661   5.573   2.059  13.861 -0.9811  0.8558 -0.5753
18416TIP3   OH276662   3.651   5.666  14.419  0.4815  0.7378  0.3204
18416TIP3    H176663   3.740   5.634  14.433  0.0644 -0.9541 -0.5880
18416TIP3    H276664   3.658   5.761  14.426  1.9209  0.5357  2.5338
18417TIP3   OH276665   1.517   2.943   5.362 -0.4023 -0.1545 -0.4272
18417TIP3    H176666   1.464   2.882   5.414  0.5248 -0.1460  0.5570
18417TIP3    H276667   1.543   3.011   5.423 -0.4632  0.6306 -1.2529
18418TIP3   OH276668   4.927   1.413  15.294  1.0801  0.7504  0.0339
18418TIP3    H176669   4.834   1.433  15.307  1.1573  0.8931  0.3642
18418TIP3    H276670   4.944   1.439  15.204  0.6799  0.2806 -0.1851
18419TIP3   OH276671   4.273   2.117  11.058 -0.1212 -0.0277  0.4928
18419TIP3    H176672   4.183   2.115  11.092 -0.2072 -2.3243  0.3086
18419TIP3    H276673   4.263   2.097  10.965  0.6989 -3.7470  1.0636
18420TIP3   OH276674   4.380   3.182   4.136 -0.0031  0.3903  0.3143
18420TIP3    H176675   4.462   3.192   4.087  1.6053  2.9614  3.1745
18420TIP3    H276676   4.324   3.253   4.104 -1.7999 -1.9791 -2.4035
18421TIP3   OH276677   2.078   0.425   3.646 -0.2608 -0.1403 -0.2566
18421TIP3    H176678   2.021   0.448   3.573  0.8536 -0.0703 -1.1291
18421TIP3    H276679   2.166   0.448   3.616  0.3161 -0.9395  0.7667
18422TIP3   OH276680   1.948   1.270   5.376  0.4183  0.4263 -0.6464
18422TIP3    H176681   1.964   1.294   5.467 -1.0778 -0.1927 -0.1918
18422TIP3    H276682   1.950   1.353   5.329  1.5379  0.7195 -0.1193
18423TIP3   OH276683   0.840   0.636   5.520  0.3421  0.0977  0.0771
18423TIP3    H176684   0.920   0.645   5.572  0.0389  1.0720  0.3833
18423TIP3    H276685   0.769   0.656   5.582 -0.0587  0.5646 -0.5282
18424TIP3   OH276686   4.800   4.984   3.036 -0.1291 -0.1712 -0.1610
18424TIP3    H176687   4.810   5.074   3.066  0.1705 -0.6338  1.2176
18424TIP3    H276688   4.853   4.933   3.097 -0.4187 -1.2997 -0.8280
18425TIP3   OH276689   2.619   3.501  13.682 -0.3038 -0.2544 -0.2549
18425TIP3    H176690   2.539   3.533  13.641 -0.2159 -0.8442 -0.9059
18425TIP3    H276691   2.598   3.413  13.710 -0.8178  0.6201  2.3163
18426TIP3   OH276692   3.245   5.501   3.723 -0.1110  0.2922 -0.5073
18426TIP3    H176693   3.158   5.495   3.685 -0.8359  1.4065  0.8919
18426TIP3    H276694   3.237   5.460   3.809  0.8352  0.1077 -0.4922
18427TIP3   OH276695   5.206   5.834   1.641  0.4744  0.4814  0.7370
18427TIP3    H176696   5.218   5.757   1.695 -2.2268 -1.6335 -1.3578
18427TIP3    H276697   5.258   5.817   1.562 -0.3880  0.6118  0.1212
18428TIP3   OH276698   6.224   3.467  16.853 -0.1905  0.5816  0.2297
18428TIP3    H176699   6.145   3.493  16.899 -0.5690  0.8608 -0.5620
18428TIP3    H276700   6.225   3.372  16.860 -0.0163  0.6379  1.1620
18429TIP3   OH276701   4.693   4.104   5.643 -0.1894 -0.1261 -0.6394
18429TIP3    H176702   4.621   4.155   5.681 -0.7278 -1.2346 -0.1063
18429TIP3    H276703   4.752   4.170   5.606 -0.6949  0.8996  0.2891
18430TIP3   OH276704   1.761   3.808  16.805  0.0492 -0.1158  0.2549
18430TIP3    H176705   1.806   3.861  16.740  1.4491 -0.1636  1.1560
18430TIP3    H276706   1.759   3.862  16.884 -1.8471  0.0435  0.1444
18431TIP3   OH276707   2.626   5.144   6.391 -0.2306  0.3000  0.1137
18431TIP3    H176708   2.576   5.067   6.416 -1.0921  0.5690 -0.7243
18431TIP3    H276709   2.699   5.109   6.340  0.4330 -0.0895  1.2966
18432TIP3   OH276710   2.153   5.439   5.378 -0.0918 -0.1110  0.3079
18432TIP3    H176711   2.057   5.435   5.380 -0.0813 -1.5226  2.7330
18432TIP3    H276712   2.180   5.372   5.441  2.5011  0.3998 -0.1743
18433TIP3   OH276713   0.325   5.806   1.355  0.3167  0.6908 -0.4714
18433TIP3    H176714   0.303   5.822   1.447  0.9454  1.7076 -0.4851
18433TIP3    H276715   0.333   5.711   1.349 -1.4019  0.4765  0.1282
18434TIP3   OH276716   1.919   1.588   2.422 -0.1167 -0.2396 -0.4071
18434TIP3    H176717   1.978   1.629   2.358 -0.9569  1.6287 -0.0293
18434TIP3    H276718   1.857   1.656   2.445 -1.7717 -1.8265  0.0584
18435TIP3   OH276719   5.160   6.717   3.707  0.0459 -0.2325  1.1356
18435TIP3    H176720   5.077   6.691   3.667  0.4780 -2.0246  1.3313
18435TIP3    H276721   5.190   6.640   3.754  1.9835  0.2553  0.8074
18436TIP3   OH276722   2.568   3.921  13.514  0.3857  0.0571  0.7740
18436TIP3    H176723   2.624   3.860  13.563 -0.3836  0.6184  2.4326
18436TIP3    H276724   2.535   3.869  13.440  0.3821 -1.3195  1.6924
18437TIP3   OH276725   6.243   5.244  14.510 -0.3713 -0.5063 -0.0679
18437TIP3    H176726   6.317   5.237  14.569 -0.8197  0.8861  0.7013
18437TIP3    H276727   6.223   5.153  14.486 -0.0284 -1.0969  1.7289
18438TIP3   OH276728   0.756   6.488   2.282 -0.9161  0.5012 -0.5108
18438TIP3    H176729   0.681   6.546   2.295 -0.7412  0.6061  0.0510
18438TIP3    H276730   0.830   6.537   2.316 -0.2532  1.1755 -2.7186
18439TIP3   OH276731   0.485   1.555   2.620 -0.5202  0.1114  0.1140
18439TIP3    H176732   0.424   1.610   2.670 -1.3420 -0.0841 -0.6388
18439TIP3    H276733   0.515   1.612   2.549  0.6778  0.4042  0.8242
18440TIP3   OH276734   2.026   1.366  12.814  0.4351  0.1748 -0.8836
18440TIP3    H176735   1.989   1.442  12.769  0.2016  0.1997 -0.6548
18440TIP3    H276736   1.990   1.371  12.903  1.0523  0.2403 -0.6295
18441TIP3   OH276737   6.357   2.086   6.160 -0.2684  0.2403 -0.1109
18441TIP3    H176738   6.336   2.041   6.242  1.4862 -0.5741 -0.0680
18441TIP3    H276739   6.287   2.059   6.100 -0.8171 -0.2552  0.7142
18442TIP3   OH276740   1.256   0.498   4.852  0.3095  0.5592  0.1702
18442TIP3    H176741   1.313   0.575   4.844  0.7211  0.1978 -0.4772
18442TIP3    H276742   1.261   0.474   4.944  0.8060  0.8320  0.2182
18443TIP3   OH276743   3.560   4.645   5.406 -0.3254  0.1147 -0.5565
18443TIP3    H176744   3.502   4.573   5.432 -1.0252 -0.1758 -2.7259
18443TIP3    H276745   3.641   4.602   5.379  0.6834  0.4657  1.6665
18444TIP3   OH276746   3.897   4.580   0.182 -0.1142 -0.0950  0.1466
18444TIP3    H176747   3.895   4.565   0.276  0.6326  2.3332  0.6347
18444TIP3    H276748   3.882   4.674   0.172 -0.6816 -0.3623 -2.2023
18445TIP3   OH276749   6.183   1.806   2.451  0.2290 -0.4471  0.5227
18445TIP3    H176750   6.178   1.812   2.355  0.0161 -0.7607  0.5113
18445TIP3    H276751   6.253   1.866   2.475 -0.3669  0.3775  0.2530
18446TIP3   OH276752   1.786   1.261   6.128  0.0835 -0.9673 -0.3416
18446TIP3    H176753   1.743   1.212   6.059 -1.0941 -1.6060  0.7888
18446TIP3    H276754   1.867   1.293   6.089 -1.4475  0.3922 -2.6032
18447TIP3   OH276755   1.288   5.061   2.881  0.2078  0.2011  0.2272
18447TIP3    H176756   1.377   5.066   2.847  0.1464 -2.3641 -0.5290
18447TIP3    H276757   1.295   5.005   2.959 -0.9780 -2.2595 -1.2781
18448TIP3   OH276758   3.697   2.647   2.469 -0.4557  0.1218  0.4775
18448TIP3    H176759   3.708   2.737   2.439 -0.4090  0.2118  0.7619
18448TIP3    H276760   3.784   2.608   2.460 -0.6441 -0.1234 -0.3765
18449TIP3   OH276761   1.523   6.643   2.845  0.6386  0.2946  0.3309
18449TIP3    H176762   1.501   6.733   2.872 -0.6497 -0.6101  2.6307
18449TIP3    H276763   1.441   6.607   2.812  0.4069 -0.8493  2.0343
18450TIP3   OH276764   4.925   3.635   1.500  0.0689  0.6405  0.6336
18450TIP3    H176765   4.942   3.551   1.459  0.6529  1.6485 -1.2920
18450TIP3    H276766   4.875   3.613   1.579 -1.7454 -1.3579 -0.9405
18451TIP3   OH276767   5.849   6.225  10.610  0.1292  0.0987  0.6477
18451TIP3    H176768   5.942   6.229  10.631 -0.1806  2.6327  1.9010
18451TIP3    H276769   5.846   6.185  10.523  2.4593  0.8238  0.1564
18452TIP3   OH276770   2.847   0.630   4.208 -0.1136 -0.4114 -0.9670
18452TIP3    H176771   2.900   0.644   4.130  0.8707  0.2688 -0.2014
18452TIP3    H276772   2.811   0.716   4.229  0.1335 -0.4583 -0.3215
18453TIP3   OH276773   6.515   1.129   5.063 -0.0583 -0.6149  0.0229
18453TIP3    H176774   6.592   1.134   5.006 -1.8205 -0.3189 -2.4954
18453TIP3    H276775   6.487   1.219   5.073  0.6112 -0.5779  2.0666
18454TIP3   OH276776   3.721   3.697   6.618  0.1701 -0.3014  1.3816
18454TIP3    H176777   3.708   3.606   6.642 -1.3679 -0.9863 -1.4944
18454TIP3    H276778   3.768   3.694   6.535 -0.7150  1.4278  0.7388
18455TIP3   OH276779   3.819   4.867  11.306 -0.9622  0.2652  0.5601
18455TIP3    H176780   3.730   4.850  11.338 -1.0134 -2.7794 -0.8009
18455TIP3    H276781   3.825   4.815  11.226  1.8088  1.0432  0.1700
18456TIP3   OH276782   4.278   4.966   2.722  0.2072 -0.6091  0.8005
18456TIP3    H176783   4.361   5.013   2.711 -0.5843  0.2351 -2.9612
18456TIP3    H276784   4.213   5.034   2.738 -0.2472 -0.8903  0.1959
18457TIP3   OH276785   5.696   2.017  11.173 -0.8648  0.6447  0.0334
18457TIP3    H176786   5.785   2.038  11.144  0.2234  0.3130  2.8305
18457TIP3    H276787   5.667   2.094  11.221 -0.5428 -0.5451  2.3026
18458TIP3   OH276788   0.155   2.998  12.067  0.7646 -0.7857 -0.0900
18458TIP3    H176789   0.150   3.087  12.032 -0.1933 -0.3247  1.1396
18458TIP3    H276790   0.219   2.954  12.012  1.5981  0.7977 -0.4344
18459TIP3   OH276791   6.578   4.122  13.776 -0.0905  0.1368  0.5200
18459TIP3    H176792   6.542   4.069  13.847 -1.3982  0.5100  0.1577
18459TIP3    H276793   6.642   4.064  13.734 -0.1435 -0.4945  1.2723
18460TIP3   OH276794   2.973   6.668   5.602  0.4036 -0.2127 -0.0015
18460TIP3    H176795   2.946   6.748   5.646  0.6856 -0.4398  0.5908
18460TIP3    H276796   2.951   6.598   5.664 -1.9102 -0.8343 -1.3756
18461TIP3   OH276797   3.502   0.849   4.758 -0.7689 -0.0621 -0.4783
18461TIP3    H176798   3.561   0.830   4.831 -0.7236 -2.4492 -1.0590
18461TIP3    H276799   3.560   0.884   4.690 -0.6750  1.2979  0.2628
18462TIP3   OH276800   0.657   6.196   2.577 -0.3070  0.3281  0.2626
18462TIP3    H176801   0.742   6.239   2.564 -0.3236  0.4516  0.5668
18462TIP3    H276802   0.629   6.172   2.488  0.8116 -1.1948  0.2814
18463TIP3   OH276803   5.637   4.813   3.895 -0.0853 -0.1336  0.4278
18463TIP3    H176804   5.551   4.823   3.854  0.2063  0.1020 -0.1321
18463TIP3    H276805   5.624   4.747   3.963 -0.5669 -0.5509 -0.0645
18464TIP3   OH276806   6.134   1.661  15.319  0.5015  0.2321 -0.0607
18464TIP3    H176807   6.109   1.702  15.236  0.4566  2.9404  1.1756
18464TIP3    H276808   6.067   1.594  15.334  0.3862 -0.1668 -2.0586
18465TIP3   OH276809   3.860   3.684   6.381 -0.5175  0.6118 -0.5149
18465TIP3    H176810   3.859   3.591   6.358  0.2709  0.3725  0.3503
18465TIP3    H276811   3.906   3.726   6.308  0.3267  0.1272 -0.2725
18466TIP3   OH276812   3.272   3.833  15.654  0.6202  0.3476  0.4502
18466TIP3    H176813   3.308   3.850  15.567  0.2530  1.1068  0.4430
18466TIP3    H276814   3.328   3.764  15.690 -1.1685 -2.4174 -1.6277
18467TIP3   OH276815   4.452   1.950   1.865  0.4000 -0.0833  0.1041
18467TIP3    H176816   4.427   1.938   1.774 -0.9891 -0.1450  0.4690
18467TIP3    H276817   4.541   1.916   1.870 -0.0745 -1.5615 -0.8910
18468TIP3   OH276818   3.772   3.269   3.678  0.3170 -0.0337 -0.1082
18468TIP3    H176819   3.839   3.206   3.649  0.6716 -0.0539  0.7439
18468TIP3    H276820   3.817   3.353   3.678  0.2471  0.0030  0.1457
18469TIP3   OH276821   2.560   0.604  14.299 -0.7245 -0.4799  0.5935
18469TIP3    H176822   2.654   0.623  14.300 -1.0167  1.4865 -1.0771
18469TIP3    H276823   2.555   0.509  14.311  1.5607 -0.8255 -0.4838
18470TIP3   OH276824   4.772   6.220  13.378  0.5093 -0.1787  0.2813
18470TIP3    H176825   4.844   6.250  13.322  0.0919 -0.4482 -0.4007
18470TIP3    H276826   4.799   6.246  13.467  1.6459 -0.6516  0.0940
18471TIP3   OH276827   3.892   2.944   1.225  0.0762 -0.1124  0.2788
18471TIP3    H176828   3.815   2.904   1.185  0.4497 -1.8212  1.1560
18471TIP3    H276829   3.952   2.871   1.239  1.1133  0.8905  1.2907
18472TIP3   OH276830   1.202   5.430  13.285  0.2428  0.1777  0.2971
18472TIP3    H176831   1.126   5.449  13.340  0.7239  2.2151  0.3582
18472TIP3    H276832   1.201   5.500  13.219  2.2167  0.4599  0.5074
18473TIP3   OH276833   5.548   1.858   2.700  0.3336 -0.4036  0.1033
18473TIP3    H176834   5.562   1.929   2.637 -2.0674 -0.9472 -1.1714
18473TIP3    H276835   5.578   1.780   2.655 -0.4240 -0.6566  0.0245
18474TIP3   OH276836   1.606   1.835   5.011  0.1681 -0.1672  0.4538
18474TIP3    H176837   1.621   1.877   5.096 -0.5890 -1.1997  1.1139
18474TIP3    H276838   1.562   1.753   5.032 -0.3391 -0.2814 -0.9686
18475TIP3   OH276839   6.246   4.498  17.029  0.6471  0.5539 -0.0462
18475TIP3    H176840   6.332   4.467  17.056  0.5198 -0.3993 -0.6890
18475TIP3    H276841   6.264   4.561  16.960  0.8883  1.5880  0.9390
18476TIP3   OH276842   5.748   1.801  11.818  0.4071  0.1426  0.0048
18476TIP3    H176843   5.729   1.849  11.899  0.4142 -1.1966  0.8237
18476TIP3    H276844   5.835   1.830  11.793  1.3577 -1.0539  1.7321
18477TIP3   OH276845   2.627   4.560   6.114  0.0349 -0.2031 -0.0460
18477TIP3    H176846   2.597   4.604   6.193 -0.4756  0.1298 -0.4204
18477TIP3    H276847   2.700   4.613   6.083  0.9342 -0.9179  0.7696
18478TIP3   OH276848   2.283   3.279  13.726  0.4351  0.0257 -0.2479
18478TIP3    H176849   2.298   3.348  13.661  0.6103  0.6853  0.4821
18478TIP3    H276850   2.201   3.303  13.769  1.2530  0.6353  1.0487
18479TIP3   OH276851   1.867   0.447   4.505 -0.2222 -0.1206  0.0534
18479TIP3    H176852   1.860   0.458   4.411  2.6710 -0.6525 -0.3124
18479TIP3    H276853   1.793   0.495   4.541 -0.4146  1.5540 -2.4071
18480TIP3   OH276854   1.977   4.076   2.277 -0.0519 -1.0439  0.1683
18480TIP3    H176855   1.985   4.113   2.365 -1.1959 -1.8816  0.6471
18480TIP3    H276856   2.036   4.129   2.224  0.4143 -0.3088  1.3705
18481TIP3   OH276857   2.603   3.408   4.533 -0.1771  0.0907  0.1441
18481TIP3    H176858   2.638   3.418   4.444 -2.2663 -0.6149 -0.8272
18481TIP3    H276859   2.573   3.318   4.537 -2.3713  0.7872  0.6656
18482TIP3   OH276860   4.190   0.194   5.369 -0.6096  0.0815 -0.0218
18482TIP3    H176861   4.171   0.100   5.363 -0.5046  0.0881 -0.5147
18482TIP3    H276862   4.177   0.215   5.462 -2.9124  0.0703 -0.2792
18483TIP3   OH276863   3.090   5.982  14.425 -0.1226 -0.3057  0.1802
18483TIP3    H176864   3.116   5.911  14.484 -0.5635 -1.3131 -0.7789
18483TIP3    H276865   3.009   5.950  14.385 -1.0102  1.2953  0.6247
18484TIP3   OH276866   3.339   1.817   4.700 -0.4114  0.5510  0.6105
18484TIP3    H176867   3.296   1.788   4.619 -0.6239 -0.0061  0.9163
18484TIP3    H276868   3.415   1.867   4.670  0.2828 -0.7865  0.0486
18485TIP3   OH276869   2.283   1.610  14.103  0.0058 -0.1233  0.0843
18485TIP3    H176870   2.370   1.605  14.143 -0.3749  5.2652  2.4804
18485TIP3    H276871   2.224   1.579  14.171 -0.1494  0.7032  0.3388
18486TIP3   OH276872   5.343   5.156   3.741 -0.0814 -0.2537 -0.0904
18486TIP3    H176873   5.416   5.160   3.679  0.4635 -1.2832  0.4509
18486TIP3    H276874   5.275   5.212   3.703  0.0069 -1.3272 -1.9272
18487TIP3   OH276875   1.236   2.188   1.547 -0.1066  0.5882  0.1785
18487TIP3    H176876   1.226   2.271   1.593  0.0240  0.1022  1.1045
18487TIP3    H276877   1.329   2.167   1.555 -0.5293 -0.8039  2.0514
18488TIP3   OH276878   0.855   3.796   2.421 -0.4094  0.0751 -0.1592
18488TIP3    H176879   0.790   3.729   2.400  0.6593 -1.5504  1.3965
18488TIP3    H276880   0.805   3.877   2.426 -2.5968 -1.2657  2.0680
18489TIP3   OH276881   3.547   0.963  14.362 -0.0195  0.3946  0.0913
18489TIP3    H176882   3.561   0.882  14.313 -1.0814 -1.0132  1.9694
18489TIP3    H276883   3.533   1.029  14.294 -0.9218 -1.3367 -1.5320
18490TIP3   OH276884   2.670   2.066   0.367 -0.2536 -0.3410  0.5013
18490TIP3    H176885   2.610   2.018   0.309  3.2422 -3.3097 -1.1190
18490TIP3    H276886   2.692   2.145   0.318 -1.0064 -0.4030  0.0402
18491TIP3   OH276887   4.738   5.083  12.253 -0.2559  0.1154  0.0526
18491TIP3    H176888   4.773   5.143  12.189 -0.2505  0.2004  0.1346
18491TIP3    H276889   4.707   5.008  12.202 -1.0482  0.5559 -0.1354
18492TIP3   OH276890   0.907   0.178  16.151 -0.3361  0.4876 -0.2030
18492TIP3    H176891   1.003   0.176  16.153 -0.3376  0.2719 -0.3652
18492TIP3    H276892   0.885   0.271  16.161 -0.1753  0.3366  2.2596
18493TIP3   OH276893   5.059   2.796   2.642  0.1104  0.1665 -0.1915
18493TIP3    H176894   5.094   2.766   2.726  1.8768  1.0236 -0.5761
18493TIP3    H276895   5.079   2.726   2.580  1.0594  0.5903 -0.3796
18494TIP3   OH276896   1.370   0.860   3.514 -0.4208 -0.0229 -0.6973
18494TIP3    H176897   1.387   0.954   3.503  0.9938 -0.3734 -1.8825
18494TIP3    H276898   1.389   0.843   3.606  2.3961  0.3418 -1.1041
18495TIP3   OH276899   3.476   4.267   0.845  0.2463  0.0896  0.1139
18495TIP3    H176900   3.381   4.265   0.835  0.2070  1.9241 -0.3103
18495TIP3    H276901   3.508   4.199   0.787 -0.8148 -0.8163  0.5500
18496TIP3   OH276902   2.808   3.927  13.824 -0.0668 -0.6656 -0.5849
18496TIP3    H176903   2.808   4.011  13.869  0.8958 -0.1068 -1.5729
18496TIP3    H276904   2.898   3.916  13.792 -0.3134 -1.8003 -0.9563
18497TIP3   OH276905   1.352   0.903  14.512 -0.0973 -0.5002  0.1917
18497TIP3    H176906   1.361   0.816  14.473 -2.8623 -0.0577 -1.6978
18497TIP3    H276907   1.413   0.958  14.462  0.7279 -1.0644  0.5498
18498TIP3   OH276908   3.877   6.608   3.040  0.4197  0.0264  0.1997
18498TIP3    H176909   3.884   6.699   3.009  2.2505  0.0485  0.5639
18498TIP3    H276910   3.820   6.614   3.116  1.2025  1.0392  0.7410
18499TIP3   OH276911   2.111   5.191  11.909 -0.0648  0.6398  0.0639
18499TIP3    H176912   2.090   5.139  11.832  2.0320 -0.1549 -0.0416
18499TIP3    H276913   2.138   5.127  11.975 -0.0526  1.4239  0.8382
18500TIP3   OH276914   0.343   5.015   0.943  0.2704  0.2225 -0.0290
18500TIP3    H176915   0.355   5.039   0.850 -0.1645  0.8074  0.0571
18500TIP3    H276916   0.431   4.993   0.973  0.0488 -2.8350 -1.3152
18501TIP3   OH276917   0.240   6.193   1.365  0.1869  0.3753  0.3045
18501TIP3    H176918   0.169   6.145   1.324  0.4956  0.3519 -0.2054
18501TIP3    H276919   0.214   6.285   1.356 -0.6302  0.3098  1.6937
18502TIP3   OH276920   5.084   3.195  12.951 -0.1310  0.1094  0.6543
18502TIP3    H176921   5.017   3.244  12.998 -0.9794 -0.6353  0.2630
18502TIP3    H276922   5.141   3.261  12.913 -0.5139  0.7503  1.1835
18503TIP3   OH276923   5.683   2.535   1.538 -0.2975 -0.0654 -0.8441
18503TIP3    H176924   5.672   2.511   1.446  0.4509  0.8341 -1.1857
18503TIP3    H276925   5.714   2.455   1.580 -1.9585 -0.8718 -1.0816
18504TIP3   OH276926   5.948   2.275  13.973 -0.1416 -0.7275  1.3986
18504TIP3    H176927   5.968   2.368  13.959 -2.9608 -0.2089  0.0473
18504TIP3    H276928   6.025   2.229  13.941  0.4763  1.0986  0.0857
18505TIP3   OH276929   2.458   3.040   3.592  0.3968 -0.4121 -0.1285
18505TIP3    H176930   2.451   3.019   3.499 -0.9762 -3.4704  0.5645
18505TIP3    H276931   2.552   3.031   3.612  0.4096 -1.9320 -0.7827
18506TIP3   OH276932   3.078   4.912   5.118  0.3141 -0.0786  0.0143
18506TIP3    H176933   3.156   4.917   5.172  0.8432 -1.6379 -0.5498
18506TIP3    H276934   3.062   5.002   5.089  0.8080  0.5424  1.6214
18507TIP3   OH276935   1.749   1.427  13.884 -0.0312 -0.0255  0.5844
18507TIP3    H176936   1.747   1.440  13.789 -1.1415  0.3300  0.6389
18507TIP3    H276937   1.840   1.406  13.903  0.4913  1.2382 -0.3788
18508TIP3   OH276938   1.983   2.301  15.384 -0.2314 -0.1597 -0.3707
18508TIP3    H176939   1.989   2.392  15.415 -1.0753 -0.2917  0.2251
18508TIP3    H276940   1.975   2.309  15.289 -1.6648  0.4882 -0.2302
18509TIP3   OH276941   5.933   1.196  11.275 -0.0520 -0.1669  0.2023
18509TIP3    H176942   5.954   1.229  11.188  2.8017 -1.2715  0.3614
18509TIP3    H276943   5.846   1.231  11.294  0.1090  1.8184 -2.2240
18510TIP3   OH276944   6.269   6.655  15.619 -0.0000  0.3263  0.2444
18510TIP3    H176945   6.263   6.559  15.623 -0.4334  0.3714  0.9278
18510TIP3    H276946   6.184   6.685  15.651  0.6285  0.9607  1.3648
18511TIP3   OH276947   4.916   6.687  14.609 -0.1476  0.1541 -0.7597
18511TIP3    H176948   4.862   6.676  14.688  0.3499 -0.2365 -0.4670
18511TIP3    H276949   4.899   6.777  14.581 -1.0733 -0.0095 -0.7660
18512TIP3   OH276950   6.108   3.316   4.987  0.6862 -0.1085 -0.0457
18512TIP3    H176951   6.070   3.295   4.901  0.6102 -1.3374  0.2592
18512TIP3    H276952   6.173   3.247   5.001  0.0096 -0.4948  1.3035
18513TIP3   OH276953   4.812   4.729  11.257  0.8029 -0.2200 -0.4240
18513TIP3    H176954   4.887   4.673  11.278  1.6960  0.1940 -2.2984
18513TIP3    H276955   4.818   4.742  11.162 -1.8889 -0.5177 -0.7163
18514TIP3   OH276956   4.107   5.535  12.504  0.6119  0.3642  0.2958
18514TIP3    H176957   4.114   5.612  12.560 -1.4322  0.1531  0.8978
18514TIP3    H276958   4.039   5.481  12.544  0.0885 -0.4871 -1.6052
18515TIP3   OH276959   0.542   6.426  10.572  0.5509 -0.1081  0.3620
18515TIP3    H176960   0.468   6.487  10.563  1.0549  0.5544  0.5672
18515TIP3    H276961   0.610   6.464  10.516  1.0872 -0.1329  0.9859
18516TIP3   OH276962   1.176   2.454   3.203 -0.2584 -0.1270  0.1765
18516TIP3    H176963   1.217   2.375   3.167 -0.2880  0.4637 -1.2172
18516TIP3    H276964   1.114   2.422   3.267  1.3034 -1.1271  1.2625
18517TIP3   OH276965   5.002   0.323   4.919 -0.0292  0.3860 -0.1179
18517TIP3    H176966   5.007   0.303   4.826  2.4049  2.5661 -0.5735
18517TIP3    H276967   5.003   0.419   4.924 -0.8174  0.3409  2.1296
18518TIP3   OH276968   5.337   0.165  14.491  0.7220 -0.1530  0.5565
18518TIP3    H176969   5.320   0.210  14.409  0.9872  1.7560  1.4790
18518TIP3    H276970   5.251   0.156  14.532  0.7119 -0.1583  0.5342
18519TIP3   OH276971   0.749   4.307   2.258  0.6940  0.2526  0.5076
18519TIP3    H176972   0.723   4.286   2.168  1.7541  1.8208 -0.2212
18519TIP3    H276973   0.845   4.298   2.258  0.8784  1.8133  0.9826
18520TIP3   OH276974   3.277   1.156  14.444 -0.0142  0.0046 -0.6095
18520TIP3    H176975   3.359   1.177  14.487  0.0179  0.6655 -0.9787
18520TIP3    H276976   3.301   1.096  14.373  0.2792  0.8355 -1.2352
18521TIP3   OH276977   1.252   6.561   1.783  0.7057  0.1111 -0.1869
18521TIP3    H176978   1.223   6.569   1.692  2.2188 -1.6646 -0.9038
18521TIP3    H276979   1.347   6.572   1.778  1.0221 -1.7120  0.8900
18522TIP3   OH276980   5.241   0.651   3.332  0.0681 -0.1738  0.1034
18522TIP3    H176981   5.146   0.645   3.328  0.1292 -0.9820 -0.6430
18522TIP3    H276982   5.264   0.613   3.416 -0.2126 -1.0466 -0.2013
18523TIP3   OH276983   3.754   6.136   1.332 -0.4959 -0.4418  0.0421
18523TIP3    H176984   3.730   6.224   1.364 -0.3165 -0.0659 -0.8364
18523TIP3    H276985   3.675   6.105   1.288  0.2976  0.4636 -2.1388
18524TIP3   OH276986   4.516   2.589  13.329  0.4702 -0.4618 -0.4818
18524TIP3    H176987   4.501   2.668  13.381  0.2698 -0.1419 -1.0193
18524TIP3    H276988   4.552   2.526  13.391 -3.1999 -1.3748  1.0123
18525TIP3   OH276989   2.277   2.428  12.991 -0.6989  0.4332  0.2362
18525TIP3    H176990   2.348   2.476  12.949 -1.5556  1.1104 -0.4936
18525TIP3    H276991   2.298   2.430  13.084 -0.8094  2.4393  0.2578
18526TIP3   OH276992   2.553   2.891   1.227 -0.1343 -0.5235 -0.1632
18526TIP3    H176993   2.497   2.877   1.150  1.8491  0.2929 -1.8530
18526TIP3    H276994   2.625   2.829   1.215  0.2623 -0.3141  1.0220
18527TIP3   OH276995   0.403   2.708  13.171  0.0079  0.7119  0.0097
18527TIP3    H176996   0.391   2.723  13.078 -1.5138  2.0017  0.3621
18527TIP3    H276997   0.453   2.784  13.202 -0.7879  1.0575  0.4793
18528TIP3   OH276998   4.654   6.317   2.707  0.5761 -0.5395 -0.5943
18528TIP3    H176999   4.563   6.289   2.694  0.8611 -1.1980 -1.2967
18528TIP3    H277000   4.702   6.235   2.722  0.9220 -0.1194  0.6607
18529TIP3   OH277001   1.124   6.312  17.046 -0.4914 -0.0816 -0.3434
18529TIP3    H177002   1.178   6.255  16.991  0.0251 -0.0631  0.1398
18529TIP3    H277003   1.070   6.252  17.097  0.1148 -0.1512  0.2276
18530TIP3   OH277004   5.090   4.037   2.700  0.4107 -0.0395 -0.4338
18530TIP3    H177005   5.149   4.111   2.682  1.0259 -0.7481 -1.4270
18530TIP3    H277006   5.040   4.065   2.776  0.9973  1.1943 -0.4703
18531TIP3   OH277007   3.778   5.600   3.102  0.1171 -0.1458  0.4042
18531TIP3    H177008   3.788   5.537   3.030 -2.3323  0.3361 -0.4405
18531TIP3    H277009   3.846   5.666   3.086 -1.8707  1.3260 -3.0499
18532TIP3   OH277010   2.505   4.725  15.069 -0.0277 -0.0593 -0.3810
18532TIP3    H177011   2.488   4.800  15.125  0.2391 -0.4954  0.2960
18532TIP3    H277012   2.599   4.726  15.053  0.2114 -1.0147  0.7785
18533TIP3   OH277013   1.359   1.840  11.391  0.5979 -0.2368 -0.0088
18533TIP3    H177014   1.271   1.865  11.361  0.0610 -0.5438  1.2201
18533TIP3    H277015   1.418   1.879  11.328 -0.4635 -0.9938 -1.5384
18534TIP3   OH277016   3.852   4.354   4.083 -0.9844  0.0404  0.1838
18534TIP3    H177017   3.913   4.361   4.156 -1.3428  0.4148  0.4519
18534TIP3    H277018   3.895   4.294   4.021  0.0023  0.9067  0.0019
18535TIP3   OH277019   6.290   5.764   3.296 -0.1266  0.5460 -0.3564
18535TIP3    H177020   6.313   5.728   3.211 -2.0031  0.0753 -0.7233
18535TIP3    H277021   6.347   5.719   3.358  1.6071  1.2547 -1.3724
18536TIP3   OH277022   2.419   4.665  15.351 -0.6628 -0.2771 -0.3555
18536TIP3    H177023   2.513   4.650  15.363 -0.3974  2.1881  1.2927
18536TIP3    H277024   2.414   4.748  15.304 -2.0191  0.0844  0.3828
18537TIP3   OH277025   0.940   5.140  16.335 -0.3905  0.8119  0.2126
18537TIP3    H177026   0.917   5.096  16.253 -0.9292  0.9861  0.2711
18537TIP3    H277027   1.015   5.090  16.368  1.7481  2.4462 -1.8174
18538TIP3   OH277028   0.426   0.996   6.133 -0.7990  0.3728  0.7323
18538TIP3    H177029   0.434   1.055   6.208 -0.1550 -0.5558  1.4121
18538TIP3    H277030   0.332   0.987   6.119 -0.9127  1.1950  0.8949
18539TIP3   OH277031   1.880   3.362   1.766 -0.0071  0.2387  0.6460
18539TIP3    H177032   1.947   3.316   1.716 -0.0824  0.4494  0.3447
18539TIP3    H277033   1.877   3.449   1.727  0.3264  0.5880  1.3895
18540TIP3   OH277034   4.126   4.597   0.740  0.3344  0.1619 -0.1916
18540TIP3    H177035   4.202   4.631   0.786  0.3705  0.5354 -0.5152
18540TIP3    H277036   4.159   4.577   0.652  0.6822 -2.1371  0.3899
18541TIP3   OH277037   4.688   1.351  14.083  0.0152 -0.0821  0.2806
18541TIP3    H177038   4.646   1.273  14.120 -1.0354  0.2874 -0.1049
18541TIP3    H277039   4.700   1.330  13.990  1.6153 -0.5685  0.5698
18542TIP3   OH277040   2.106   3.468   4.862  0.7169 -0.1759 -0.0591
18542TIP3    H177041   2.065   3.483   4.947  2.3765  0.6031  0.6333
18542TIP3    H277042   2.059   3.392   4.827 -0.6322  0.0688  1.1131
18543TIP3   OH277043   3.684   5.771  13.670  0.1343  0.5922  0.6211
18543TIP3    H177044   3.771   5.741  13.644  0.2639  1.0097  0.5605
18543TIP3    H277045   3.626   5.699  13.646  0.2972  0.8150 -0.4986
18544TIP3   OH277046   3.583   2.660  11.495  0.2216 -0.7854  0.0125
18544TIP3    H177047   3.608   2.703  11.577  1.6441  0.5418 -1.0560
18544TIP3    H277048   3.516   2.596  11.521 -2.0468  2.0285  1.7189
18545TIP3   OH277049   6.445   2.079   5.349 -0.0288 -0.4638  0.1362
18545TIP3    H177050   6.500   2.116   5.280  2.1841 -0.6660  1.6996
18545TIP3    H277051   6.421   1.992   5.317 -0.4542  0.0745 -1.0659
18546TIP3   OH277052   0.657   5.601   5.648  0.8226 -0.2158  0.1549
18546TIP3    H177053   0.737   5.645   5.676  1.8623 -0.2338 -2.4963
18546TIP3    H277054   0.656   5.520   5.699  1.4808  0.6170  1.5562
18547TIP3   OH277055   0.526   3.154  11.624 -0.0825 -0.2254 -0.0354
18547TIP3    H177056   0.447   3.110  11.655  1.4429 -3.0769  0.1296
18547TIP3    H277057   0.578   3.169  11.702  1.2806 -2.1722 -0.5160
18548TIP3   OH277058   5.593   0.255   5.464 -0.4269  0.7252  0.0214
18548TIP3    H177059   5.589   0.209   5.380  0.9528  1.6511 -0.5864
18548TIP3    H277060   5.583   0.347   5.441  1.3815  1.1207  0.7088
18549TIP3   OH277061   6.206   6.490  13.465  0.0601 -0.0156 -0.4496
18549TIP3    H177062   6.258   6.541  13.404  0.7002  1.5185  1.2601
18549TIP3    H277063   6.158   6.556  13.516 -1.1229 -1.2623  0.1280
18550TIP3   OH277064   5.292   0.828   4.010  0.2974  0.1105 -0.1990
18550TIP3    H177065   5.278   0.782   3.927 -0.4702 -0.1724  0.0711
18550TIP3    H277066   5.376   0.873   4.000  0.9549 -1.1474 -0.5797
18551TIP3   OH277067   2.814   4.007  14.921 -0.4118 -0.2065  0.5500
18551TIP3    H177068   2.759   3.930  14.934  0.2888 -0.4725  2.3009
18551TIP3    H277069   2.879   3.980  14.856 -1.8902 -0.0946 -1.0513
18552TIP3   OH277070   5.279   0.221  15.958 -0.4832  0.4090  0.2523
18552TIP3    H177071   5.343   0.155  15.985 -0.9255 -0.6739 -1.1852
18552TIP3    H277072   5.304   0.300  16.006  1.5766 -0.1305  0.1761
18553TIP3   OH277073   6.125   2.108  14.583  0.3252 -0.0038 -0.4877
18553TIP3    H177074   6.037   2.070  14.577 -0.0588  0.9602 -1.3081
18553TIP3    H277075   6.110   2.199  14.607  1.2042 -0.2331  1.0374
18554TIP3   OH277076   0.576   6.376  11.289  0.1083 -0.1538  0.4403
18554TIP3    H177077   0.645   6.406  11.348  0.7616 -0.9022  0.0711
18554TIP3    H277078   0.518   6.452  11.280  1.7465  1.0686 -0.4913
18555TIP3   OH277079   4.021   2.019   3.961 -0.5976 -0.9731 -0.4805
18555TIP3    H177080   4.082   1.987   4.028 -0.5606 -2.0485 -1.0187
18555TIP3    H277081   3.950   2.060   4.011  0.0811 -0.5617  0.1770
18556TIP3   OH277082   3.398   0.900   3.813  0.1097  0.0113  0.8556
18556TIP3    H177083   3.451   0.820   3.812  0.2716 -0.0247 -3.2172
18556TIP3    H277084   3.461   0.971   3.806 -0.1640  0.2118  0.3049
18557TIP3   OH277085   3.301   1.507  13.354 -0.1465 -0.6988  0.1314
18557TIP3    H177086   3.305   1.412  13.342 -0.3819 -0.7250  0.2674
18557TIP3    H277087   3.210   1.530  13.338 -0.0229 -0.4495 -0.2326
18558TIP3   OH277088   3.285   6.560  14.208 -0.6214  0.1764 -0.2529
18558TIP3    H177089   3.286   6.514  14.124 -0.0222 -0.5149  0.1277
18558TIP3    H277090   3.257   6.649  14.186  0.8419  0.3845 -1.3916
18559TIP3   OH277091   6.521   3.056   2.454  0.6406 -0.2292  0.5978
18559TIP3    H177092   6.531   3.150   2.468 -0.6076  0.1490 -0.8156
18559TIP3    H277093   6.610   3.022   2.460  1.1256  1.0597  1.0457
18560TIP3   OH277094   5.368   1.414   0.212  0.6534  0.0971  0.0563
18560TIP3    H177095   5.437   1.474   0.240  1.4501 -0.4418 -0.6817
18560TIP3    H277096   5.310   1.406   0.288  0.5388  1.7684  0.1657
18561TIP3   OH277097   5.695   1.597  14.807  0.4785 -0.5104 -0.1943
18561TIP3    H177098   5.687   1.534  14.735  1.5864  2.0004 -2.6803
18561TIP3    H277099   5.609   1.638  14.812  0.9681  0.7745 -1.6159
18562TIP3   OH277100   5.255   1.058   4.183  0.4501 -0.1895 -0.4684
18562TIP3    H177101   5.279   0.967   4.197 -2.0998 -0.4941  3.4278
18562TIP3    H277102   5.160   1.060   4.198  0.3762  3.0811 -0.6550
18563TIP3   OH277103   0.309   6.716   0.031  0.0441  0.1099 -0.0580
18563TIP3    H177104   0.224   6.676   0.015  0.1011 -0.5183  1.1381
18563TIP3    H277105   0.330   6.761  -0.051 -0.8189 -0.8543 -0.8357
18564TIP3   OH277106   6.576   1.890   2.591 -0.8065  0.2275  0.0818
18564TIP3    H177107   6.497   1.938   2.615 -0.0391  1.4233  0.2439
18564TIP3    H277108   6.639   1.910   2.660  0.1371  0.5147 -0.8501
18565TIP3   OH277109   3.185   1.330   1.916 -1.2705 -0.2057 -0.5745
18565TIP3    H177110   3.127   1.373   1.853 -1.0431  0.5650 -0.2693
18565TIP3    H277111   3.153   1.359   2.001  0.3052  1.2600 -0.4202
18566TIP3   OH277112   2.676   5.421   0.358  0.0975  0.1671 -0.2454
18566TIP3    H177113   2.657   5.514   0.367 -0.5157  0.1439 -1.2161
18566TIP3    H277114   2.669   5.387   0.447  1.0782  1.1653  0.2450
18567TIP3   OH277115   0.224   6.724  15.174 -0.1285  0.3591  0.4901
18567TIP3    H177116   0.269   6.798  15.134  2.3992 -0.2921  1.9155
18567TIP3    H277117   0.191   6.674  15.100  1.5200  0.8988 -0.6732
18568TIP3   OH277118   0.151   2.052  14.731  0.0783  0.3382  0.4958
18568TIP3    H177119   0.088   2.049  14.804  0.7450  0.3748  1.0883
18568TIP3    H277120   0.205   1.974  14.744 -0.4406 -0.2188 -0.5665
18569TIP3   OH277121   1.258   6.548   6.262  0.2466 -0.7788 -0.1219
18569TIP3    H177122   1.260   6.639   6.231  0.5230 -0.5546  0.5196
18569TIP3    H277123   1.211   6.552   6.345 -1.0527 -1.4695 -0.8006
18570TIP3   OH277124   1.961   3.270  11.269 -0.0083 -0.3903 -0.0031
18570TIP3    H177125   1.934   3.189  11.313 -1.0098  0.1467  0.4082
18570TIP3    H277126   1.966   3.335  11.340  2.1510 -0.3808 -0.0956
18571TIP3   OH277127   3.786   1.486  15.126 -0.4247 -0.1625  0.5112
18571TIP3    H177128   3.875   1.517  15.144 -1.0049  1.3572  0.9445
18571TIP3    H277129   3.784   1.472  15.032 -0.1694  1.3610  0.2531
18572TIP3   OH277130   5.884   1.696   1.156 -1.1356 -0.0829  0.1162
18572TIP3    H177131   5.818   1.626   1.157  0.0581 -1.2525  0.9404
18572TIP3    H277132   5.893   1.718   1.063 -0.6405 -1.9461 -0.3357
18573TIP3   OH277133   0.893   0.165   2.133 -0.7634  0.2363  0.4073
18573TIP3    H177134   0.922   0.120   2.053  0.7207  0.0194  1.0375
18573TIP3    H277135   0.800   0.142   2.140 -0.0895 -2.8806  0.7423
18574TIP3   OH277136   3.673   0.294  14.605  0.4011 -0.0076 -0.0636
18574TIP3    H177137   3.724   0.354  14.550  1.1437 -0.3582  0.2334
18574TIP3    H277138   3.636   0.349  14.673 -0.6134  0.4545 -0.9527
18575TIP3   OH277139   6.199   5.686  14.273 -0.5029 -0.6316 -0.2525
18575TIP3    H177140   6.239   5.764  14.310  2.2766 -2.1474  0.2157
18575TIP3    H277141   6.162   5.640  14.348  0.7773 -1.3053 -0.0025
18576TIP3   OH277142   5.397   1.189  15.647  0.4566  0.8727 -0.0970
18576TIP3    H177143   5.471   1.177  15.707 -0.7493 -0.5648  1.1786
18576TIP3    H277144   5.334   1.121  15.673 -2.4119  3.5448  0.5489
18577TIP3   OH277145   6.680   1.912  13.527  0.2926 -0.4610 -0.5160
18577TIP3    H177146   6.683   1.817  13.531  1.6219 -0.3840  2.4833
18577TIP3    H277147   6.766   1.937  13.493 -0.8226 -0.2817 -3.4883
18578TIP3   OH277148   5.046   2.809   5.535 -0.3580 -0.2175 -0.0287
18578TIP3    H177149   4.969   2.810   5.592 -0.8939 -1.3398 -0.6885
18578TIP3    H277150   5.011   2.789   5.448  0.3961  1.7582 -0.8634
18579TIP3   OH277151   4.777   5.767   0.910  0.0480 -0.7782 -0.4222
18579TIP3    H177152   4.838   5.793   0.841 -0.4124  0.0797 -0.5161
18579TIP3    H277153   4.827   5.705   0.963  1.5411  1.0020  0.3655
18580TIP3   OH277154   5.066   4.245   3.479  0.4937  0.4043  0.0349
18580TIP3    H177155   4.981   4.261   3.520 -0.0137 -0.7192 -0.5584
18580TIP3    H277156   5.124   4.308   3.522 -0.8381  1.9168 -0.2772
18581TIP3   OH277157   2.389   0.048   1.778  0.7700 -0.2978 -0.3887
18581TIP3    H177158   2.304   0.011   1.753 -0.2359  1.6493 -0.0678
18581TIP3    H277159   2.440  -0.027   1.807 -0.8471 -1.5278 -0.5733
18582TIP3   OH277160   2.536   1.927   1.486 -0.1363  0.3027 -0.3956
18582TIP3    H177161   2.512   2.013   1.521 -0.4003 -0.5875  1.7674
18582TIP3    H277162   2.457   1.874   1.497  0.5258 -0.6578 -0.1363
18583TIP3   OH277163   2.931   1.206   3.659 -0.1512 -0.0302  0.2008
18583TIP3    H177164   2.923   1.262   3.736  1.3060 -1.2179  1.2802
18583TIP3    H277165   3.012   1.236   3.617  0.3928 -1.0176  0.5335
18584TIP3   OH277166   0.070   4.248   3.435  0.1826  0.1841 -1.0117
18584TIP3    H177167   0.139   4.248   3.502 -1.3613  0.3178  0.6449
18584TIP3    H277168   0.004   4.188   3.468 -1.1498  1.1364 -1.8506
18585TIP3   OH277169   2.106   4.681  12.375 -0.1295  0.2646 -0.3054
18585TIP3    H177170   2.051   4.750  12.413 -0.0942  0.0364  0.1730
18585TIP3    H277171   2.054   4.648  12.302 -0.7486 -0.1050  0.2794
18586TIP3   OH277172   1.062   0.375  15.157  0.0617  0.3209 -0.0186
18586TIP3    H177173   1.139   0.318  15.155  0.4249  0.8291 -0.9989
18586TIP3    H277174   1.022   0.364  15.072  0.0993  1.4693 -0.2001
18587TIP3   OH277175   4.058   3.599  16.763 -0.1769 -0.5385 -0.4240
18587TIP3    H177176   4.058   3.569  16.854 -1.0519 -1.1215 -0.6012
18587TIP3    H277177   4.151   3.609  16.741  0.0528 -0.6970  0.4312
18588TIP3   OH277178   4.342   0.405  15.143  0.1558  0.1563 -0.7641
18588TIP3    H177179   4.311   0.427  15.056  0.8172 -1.1124 -1.3506
18588TIP3    H277180   4.305   0.319  15.161 -1.5691  1.1993  1.0437
18589TIP3   OH277181   0.782   2.612   4.390  0.6409  0.2845  0.0859
18589TIP3    H177182   0.845   2.574   4.329 -0.3754 -0.6472 -0.4371
18589TIP3    H277183   0.727   2.668   4.335  0.3310  0.2199  0.3287
18590TIP3   OH277184   6.523   4.473  11.969  0.1767 -0.6706  0.2738
18590TIP3    H177185   6.480   4.519  11.898  1.6083  0.0832 -0.1429
18590TIP3    H277186   6.479   4.388  11.973 -2.6854  0.7264  1.1964
18591TIP3   OH277187   2.551   3.554  15.944  0.1641 -0.7172 -0.0154
18591TIP3    H177188   2.617   3.484  15.945  1.5832  0.5527  1.7301
18591TIP3    H277189   2.568   3.602  15.863  1.8290 -0.0660  0.6810
18592TIP3   OH277190   5.111   1.247  10.397 -0.3184  0.0756  0.0829
18592TIP3    H177191   5.200   1.280  10.381  0.0396 -0.6862  0.4437
18592TIP3    H277192   5.062   1.323  10.427  0.2483  0.4770  0.0032
18593TIP3   OH277193   4.689   5.417  15.202  0.5927 -0.4773 -0.7332
18593TIP3    H177194   4.661   5.460  15.283 -0.1836 -0.5141 -0.9752
18593TIP3    H277195   4.784   5.428  15.201  0.7135 -1.1677  0.5791
18594TIP3   OH277196   5.505   0.446  12.766 -0.1081 -0.1242  0.2428
18594TIP3    H177197   5.424   0.491  12.741  1.1947  2.3803  0.1603
18594TIP3    H277198   5.476   0.375  12.823 -2.4349 -0.0738 -0.7483
18595TIP3   OH277199   6.501   1.373   0.142  0.2885 -0.2770 -0.0555
18595TIP3    H177200   6.585   1.415   0.162 -0.3432  0.5566  0.9115
18595TIP3    H277201   6.520   1.279   0.147  1.4115 -0.1322 -0.9539
18596TIP3   OH277202   6.612   0.786   2.821  0.6351 -0.4593 -0.2986
18596TIP3    H177203   6.606   0.859   2.760  2.2404 -0.6922 -0.7821
18596TIP3    H277204   6.666   0.721   2.776  1.0848 -1.0236  0.9975
18597TIP3   OH277205   6.772   6.681   5.577  0.4997  0.1389 -0.9705
18597TIP3    H177206   6.681   6.658   5.600  0.0181  2.9451  0.2724
18597TIP3    H277207   6.822   6.658   5.655  0.3076  1.5346 -0.4199
18598TIP3   OH277208   5.816   4.232  12.042 -0.1838 -0.2365  0.1014
18598TIP3    H177209   5.885   4.241  11.977 -2.6784  2.2609 -2.5485
18598TIP3    H277210   5.820   4.314  12.092 -2.1472  0.7845 -1.2716
18599TIP3   OH277211   1.867   0.992  12.765  0.6969  0.8178 -0.0680
18599TIP3    H177212   1.896   1.020  12.678  0.0216  2.3554  0.1699
18599TIP3    H277213   1.774   1.011  12.767  0.6290  0.4479  0.8697
18600TIP3   OH277214   1.447   2.290  12.884  1.0966  0.3955 -0.6394
18600TIP3    H177215   1.505   2.287  12.959  0.9309 -2.6578 -0.5151
18600TIP3    H277216   1.363   2.256  12.916  0.3711  1.0606 -1.7281
18601TIP3   OH277217   5.522   4.653  15.825  0.4193  0.1502  0.3692
18601TIP3    H177218   5.514   4.557  15.828 -0.1051  0.1991  0.6382
18601TIP3    H277219   5.505   4.675  15.733  1.4723 -0.0863  0.1030
18602TIP3   OH277220   5.039   2.782   3.502  0.1999 -0.1805  0.1158
18602TIP3    H177221   5.098   2.774   3.427 -0.0496  1.3368 -0.2891
18602TIP3    H277222   5.080   2.849   3.557 -1.6462  1.7506 -0.7332
18603TIP3   OH277223   6.568   6.493   4.795  0.5561  0.1551 -0.3536
18603TIP3    H177224   6.577   6.526   4.884 -0.4930  0.9864 -0.5372
18603TIP3    H277225   6.631   6.421   4.790 -0.9988 -1.5057  1.8177
18604TIP3   OH277226   4.529   6.079   0.099  0.5024 -0.6841 -0.1559
18604TIP3    H177227   4.470   6.041   0.033  0.1974  2.5477 -1.9347
18604TIP3    H277228   4.470   6.114   0.165  0.7160 -1.9022  0.7062
18605TIP3   OH277229   4.302   0.279   1.294  0.1067 -0.7400  0.0967
18605TIP3    H177230   4.398   0.275   1.288  0.1738  0.1449  0.4645
18605TIP3    H277231   4.272   0.210   1.234  0.9623 -0.4327 -0.7152
18606TIP3   OH277232   5.474   6.587  14.763 -0.1920  0.5779  0.4283
18606TIP3    H177233   5.406   6.571  14.698 -2.2018  0.9267  2.3317
18606TIP3    H277234   5.508   6.499  14.784 -1.0942  0.2411  0.5168
18607TIP3   OH277235   3.303   0.661   3.991  0.3262  0.0209  0.5806
18607TIP3    H177236   3.315   0.750   4.025 -1.3234  1.0926 -1.4121
18607TIP3    H277237   3.336   0.604   4.060  0.4157  2.1476  2.3972
18608TIP3   OH277238   3.120   6.247   1.531  0.1839  0.1692 -0.3311
18608TIP3    H177239   3.146   6.308   1.600 -0.3836  0.8441 -0.7018
18608TIP3    H277240   3.082   6.173   1.578 -0.7145  0.8663  0.0840
18609TIP3   OH277241   2.412   6.544  11.894  0.1541 -0.5607 -0.7483
18609TIP3    H177242   2.476   6.487  11.936 -2.1300 -1.8138  1.2599
18609TIP3    H277243   2.388   6.608  11.961 -1.2440 -0.5769 -1.2015
18610TIP3   OH277244   0.448   0.832   0.110  0.6067 -0.3297  0.5928
18610TIP3    H177245   0.402   0.854   0.029  0.1038 -0.8279  0.7367
18610TIP3    H277246   0.383   0.845   0.179  0.3510 -1.9850  0.7053
18611TIP3   OH277247   2.517   1.032  16.334 -0.3469 -0.2933 -0.0269
18611TIP3    H177248   2.458   1.057  16.263 -2.0115  0.4333  1.5489
18611TIP3    H277249   2.547   0.944  16.310 -0.4513  0.1274 -1.8455
18612TIP3   OH277250   3.629   4.170  17.029 -0.3061 -0.2599 -0.3427
18612TIP3    H177251   3.632   4.121  16.947 -2.9822  1.7648 -1.7884
18612TIP3    H277252   3.618   4.103  17.097 -1.3947 -1.7982 -1.9636
18613TIP3   OH277253   5.389   1.407   1.168  0.4186 -0.2288  0.2551
18613TIP3    H177254   5.424   1.361   1.092  0.3444 -0.8580  0.5919
18613TIP3    H277255   5.337   1.342   1.214  0.7984  0.0234  1.0656
18614TIP3   OH277256   3.481   2.360   5.443 -0.8299 -0.1197 -0.2340
18614TIP3    H177257   3.568   2.320   5.440 -0.8615 -0.1804 -0.3479
18614TIP3    H277258   3.421   2.286   5.431 -0.8665  0.0743 -1.3280
18615TIP3   OH277259   6.452   1.848   3.955  0.1314  0.1449  0.2565
18615TIP3    H177260   6.533   1.888   3.986  0.0876 -0.9160  1.8863
18615TIP3    H277261   6.463   1.841   3.860  1.8133  0.3205  0.4074
18616TIP3   OH277262   6.395   3.538  13.582  0.0855 -0.0962 -0.4779
18616TIP3    H177263   6.381   3.633  13.590  0.0303 -0.0620 -0.9424
18616TIP3    H277264   6.405   3.524  13.488  0.0642 -0.5577 -0.4102
18617TIP3   OH277265   5.584   5.005  12.482  0.7982  0.4207 -0.3678
18617TIP3    H177266   5.548   5.015  12.570 -0.1279  1.4496 -0.8399
18617TIP3    H277267   5.640   4.927  12.488  1.7474  1.1672  1.4271
18618TIP3   OH277268   5.982   5.193  15.594  0.3563 -0.1246  0.1604
18618TIP3    H177269   6.064   5.155  15.624  0.2163  1.3855  2.6577
18618TIP3    H277270   5.914   5.143  15.640  0.0393  0.7319  0.6523
18619TIP3   OH277271   2.053   6.327   2.202  0.1191 -0.2495  0.1725
18619TIP3    H177272   2.040   6.421   2.203  0.2575 -0.2330  0.5678
18619TIP3    H277273   1.968   6.290   2.224 -0.9857 -0.3548 -3.5269
18620TIP3   OH277274   2.961   4.090  12.654 -0.1821  0.2058 -0.7294
18620TIP3    H177275   2.880   4.140  12.644 -1.2457 -0.8059  1.9668
18620TIP3    H277276   3.030   4.156  12.657 -1.3126  1.3875  0.6060
18621TIP3   OH277277   1.524   0.557  10.553  0.0100  0.1411  0.7096
18621TIP3    H177278   1.524   0.522  10.464  0.0473 -0.3610  0.9045
18621TIP3    H277279   1.617   0.563  10.577 -0.0064  0.0860  0.7884
18622TIP3   OH277280   4.226   0.782   2.432 -0.4517 -0.2389 -0.9196
18622TIP3    H177281   4.320   0.774   2.451 -1.0425 -1.4259  1.9878
18622TIP3    H277282   4.200   0.695   2.403 -1.1897 -0.8208  1.3368
18623TIP3   OH277283   3.885   5.554  14.475  0.0653 -0.8710  0.1662
18623TIP3    H177284   3.941   5.554  14.552  1.5495 -1.6775 -0.8627
18623TIP3    H277285   3.885   5.463  14.445  0.0760 -0.4577 -1.1536
18624TIP3   OH277286   6.668   3.757  16.443 -0.5463 -0.0837 -0.0583
18624TIP3    H177287   6.716   3.759  16.526 -1.3812 -0.5407  0.4552
18624TIP3    H277288   6.685   3.841  16.402  1.1131 -0.4338 -0.1402
18625TIP3   OH277289   5.651   3.290   2.866 -0.2566  0.1988  0.2265
18625TIP3    H177290   5.563   3.327   2.860 -0.4529  0.1701  2.3031
18625TIP3    H277291   5.644   3.203   2.827 -1.1752  0.1586  0.4762
18626TIP3   OH277292   1.157   2.234   2.206  0.1502  0.6302  0.0147
18626TIP3    H177293   1.247   2.205   2.220  0.3258  0.2237 -1.7390
18626TIP3    H277294   1.165   2.317   2.160 -0.3649  0.5483 -0.2298
18627TIP3   OH277295   2.939   4.677  16.487 -0.4529 -0.0296  0.8242
18627TIP3    H177296   3.001   4.666  16.559 -1.3450 -0.1027  1.6047
18627TIP3    H277297   2.878   4.744  16.518 -1.9962 -1.4285  0.9851
18628TIP3   OH277298   2.362   4.497   4.604 -0.0011  0.2610 -0.1984
18628TIP3    H177299   2.443   4.506   4.555  0.2666 -1.1145 -0.0549
18628TIP3    H277300   2.297   4.472   4.539  0.2813 -1.2243  0.0442
18629TIP3   OH277301   4.397   4.570  13.435  0.6785 -0.2770 -0.1999
18629TIP3    H177302   4.417   4.619  13.356  1.1672 -0.1570 -0.0059
18629TIP3    H277303   4.403   4.478  13.408  1.3782 -0.2443 -0.1823
18630TIP3   OH277304   0.928   6.071   0.502  0.0721 -0.3840  0.3073
18630TIP3    H177305   0.919   6.162   0.528  0.1925 -0.8031  1.9556
18630TIP3    H277306   1.021   6.051   0.514 -0.3834 -1.4439  2.7596
18631TIP3   OH277307   4.742   3.472  12.266  0.4294  0.2925 -0.7082
18631TIP3    H177308   4.813   3.451  12.204 -0.3238  1.5685 -2.0747
18631TIP3    H277309   4.786   3.493  12.348  1.6789  1.3753 -1.6222
18632TIP3   OH277310   4.397   2.187  10.772 -0.1358 -0.0767 -0.1634
18632TIP3    H177311   4.381   2.197  10.678 -0.2278 -1.9626 -0.3847
18632TIP3    H277312   4.474   2.130  10.778 -0.7597 -0.8496  0.8820
18633TIP3   OH277313   5.343   2.920  16.447  0.0122  0.5154 -0.2811
18633TIP3    H177314   5.409   2.854  16.426  1.7672  2.1924 -0.3859
18633TIP3    H277315   5.265   2.870  16.469  2.2530 -1.8483  3.4950
18634TIP3   OH277316   5.646   3.311  10.070 -0.2458 -0.1703  0.3385
18634TIP3    H177317   5.713   3.350  10.013 -0.3697 -0.4457 -0.0014
18634TIP3    H277318   5.596   3.386  10.102 -0.3812 -0.0301 -0.1865
18635TIP3   OH277319   0.139   0.448  14.381 -0.7416 -0.0545 -0.4605
18635TIP3    H177320   0.155   0.358  14.352 -0.6007 -0.2004  0.0501
18635TIP3    H277321   0.076   0.439  14.452 -1.0673  0.2920 -0.7071
18636TIP3   OH277322   0.331   3.518   1.371 -0.2094  0.5751  0.5744
18636TIP3    H177323   0.375   3.517   1.456 -0.1796 -0.1689  0.5560
18636TIP3    H277324   0.250   3.565   1.387 -0.0963  0.6433  0.9643
18637TIP3   OH277325   6.681   1.199  14.298  0.1304  0.2766 -0.0604
18637TIP3    H177326   6.690   1.184  14.393 -1.3290  1.3165  0.2601
18637TIP3    H277327   6.639   1.119  14.265  0.1576  0.1345  0.2439
18638TIP3   OH277328   1.974   3.870  13.105  0.2171 -0.0533 -0.1712
18638TIP3    H177329   1.933   3.937  13.159  3.7373  1.0909  1.3030
18638TIP3    H277330   1.969   3.905  13.016 -1.6376  0.1261 -0.0418
18639TIP3   OH277331   4.528   3.805  12.419 -0.0140 -0.2480  0.1775
18639TIP3    H177332   4.578   3.791  12.339 -2.4476 -1.5467 -1.2235
18639TIP3    H277333   4.551   3.732  12.475  1.0519  0.2018  0.3484
18640TIP3   OH277334   5.127   6.566  11.228  0.2410 -0.1972 -0.5686
18640TIP3    H177335   5.043   6.612  11.223  0.0932 -0.5679 -1.5953
18640TIP3    H277336   5.125   6.524  11.314 -0.9613 -0.8223 -0.8660
18641TIP3   OH277337   3.042   2.769   6.235  0.8854 -0.1986 -0.4515
18641TIP3    H177338   3.058   2.693   6.291  0.7453 -0.1705 -0.3715
18641TIP3    H277339   3.125   2.784   6.190  0.8267 -0.5701 -0.6830
18642TIP3   OH277340   0.344   5.293   0.503  0.2366  0.2429 -0.7915
18642TIP3    H177341   0.356   5.241   0.583  4.3549 -0.0197 -1.3674
18642TIP3    H277342   0.324   5.228   0.435  2.2734 -0.3314 -0.9171
18643TIP3   OH277343   3.397   0.969   0.756 -0.2981 -0.1353 -0.0615
18643TIP3    H177344   3.315   0.987   0.709 -0.7279  2.4181  1.4797
18643TIP3    H277345   3.465   1.008   0.701  0.1901 -3.3075 -1.9627
18644TIP3   OH277346   4.304   2.928   3.992  0.2460  0.2259 -0.1552
18644TIP3    H177347   4.243   2.990   3.951  0.4929  0.8606  0.4098
18644TIP3    H277348   4.310   2.957   4.083  1.0410 -0.0976 -0.0917
18645TIP3   OH277349   3.327   5.253   1.146 -0.6282 -0.5014 -0.1614
18645TIP3    H177350   3.310   5.303   1.066  0.3679 -0.1466 -0.1569
18645TIP3    H277351   3.243   5.210   1.165 -0.7234 -1.0612 -1.7122
18646TIP3   OH277352   4.197   5.640   1.305  0.0414  0.4098 -0.0513
18646TIP3    H177353   4.173   5.563   1.356  0.0948  0.8656  0.6666
18646TIP3    H277354   4.198   5.712   1.368  0.6528  0.8820 -0.5834
18647TIP3   OH277355   2.835   2.751  16.498  0.0067  0.6247  0.0932
18647TIP3    H177356   2.797   2.685  16.556  0.0383 -0.1484 -0.7497
18647TIP3    H277357   2.798   2.732  16.412  0.1935  1.5687 -0.2076
18648TIP3   OH277358   5.706   1.650  14.161  0.5248 -0.0432 -0.3363
18648TIP3    H177359   5.771   1.592  14.124 -0.1370 -1.2191  0.2943
18648TIP3    H277360   5.632   1.593  14.184 -1.2084  1.3698 -2.0226
18649TIP3   OH277361   3.117   2.955  12.994 -0.5741 -0.1229  0.2780
18649TIP3    H177362   3.164   2.895  13.051  0.7252  0.6395  0.0306
18649TIP3    H277363   3.028   2.957  13.030  0.2447  0.4483  2.3613
18650TIP3   OH277364   4.221   4.526  16.064 -0.0756 -0.1428  0.3093
18650TIP3    H177365   4.315   4.515  16.048 -0.2000  0.8149 -1.2576
18650TIP3    H277366   4.206   4.480  16.147  1.3243 -2.2637 -0.5211
18651TIP3   OH277367   0.031   5.089  13.603  0.3132  0.0188 -0.0041
18651TIP3    H177368   0.116   5.045  13.594  0.2238 -0.9274  2.7820
18651TIP3    H277369  -0.033   5.018  13.604 -0.4310  0.6568 -1.1504
18652TIP3   OH277370   3.596   5.058   0.615  0.1519 -0.2506 -0.0036
18652TIP3    H177371   3.591   5.090   0.525 -2.0659 -0.7958 -0.1202
18652TIP3    H277372   3.602   4.963   0.606 -1.3358 -0.4008  0.4084
18653TIP3   OH277373   6.092   0.253   4.659  0.1636 -0.1222  0.3819
18653TIP3    H177374   6.117   0.336   4.618  2.8102 -1.2442 -0.4693
18653TIP3    H277375   6.049   0.278   4.741 -1.5027  2.1019 -1.0626
18654TIP3   OH277376   1.359   1.620  11.116 -0.3395 -0.2806 -0.5619
18654TIP3    H177377   1.361   1.694  11.055  2.0778  0.7229  0.5826
18654TIP3    H277378   1.436   1.632  11.171 -0.4136 -3.1374  0.3563
18655TIP3   OH277379   5.686   3.807   2.161  0.1096 -0.2437  0.6597
18655TIP3    H177380   5.601   3.842   2.135  0.7840 -0.5468 -2.3989
18655TIP3    H277381   5.749   3.872   2.130  1.0859 -1.1368  0.7260
18656TIP3   OH277382   6.223   2.721   0.130  0.1377 -0.3074 -1.1908
18656TIP3    H177383   6.160   2.736   0.200  1.2872  0.3642 -0.2561
18656TIP3    H277384   6.176   2.743   0.050 -1.1986 -1.0759 -0.6561
18657TIP3   OH277385   3.083   1.967   0.345 -0.2596 -0.5251 -0.5228
18657TIP3    H177386   3.058   1.905   0.277 -0.2146  0.4590 -1.4686
18657TIP3    H277387   3.107   2.046   0.298 -0.3803  0.2468  0.6531
18658TIP3   OH277388   4.092   1.509   1.684 -0.1802 -0.6103  0.4586
18658TIP3    H177389   4.018   1.468   1.639  1.4931 -4.0255  0.5158
18658TIP3    H277390   4.156   1.526   1.614 -0.6057  1.6022  0.5255
18659TIP3   OH277391   4.415   2.312   5.746  0.1300 -0.3295 -0.1128
18659TIP3    H177392   4.485   2.296   5.810  0.7361  0.8362 -0.4545
18659TIP3    H277393   4.416   2.407   5.733 -2.4068 -0.0970  0.8648
18660TIP3   OH277394   2.148   5.513  15.807 -0.0984 -0.4834  0.6011
18660TIP3    H177395   2.153   5.418  15.818 -0.0086 -0.7335 -1.1850
18660TIP3    H277396   2.230   5.545  15.844 -0.0102 -1.1308  0.9872
18661TIP3   OH277397   6.648   3.200   4.170  0.8129  0.1240  0.2427
18661TIP3    H177398   6.593   3.268   4.208 -0.1903 -1.3017  1.4757
18661TIP3    H277399   6.715   3.183   4.237  2.4773  1.4383 -1.0021
18662TIP3   OH277400   3.065   0.388  11.509 -0.2179 -0.4205 -0.1428
18662TIP3    H177401   3.088   0.296  11.504  0.7219 -0.3235  1.6693
18662TIP3    H277402   3.070   0.409  11.602 -2.0977  1.0497 -0.3051
18663TIP3   OH277403   5.916   0.782  16.205 -0.8393 -0.0153 -0.3360
18663TIP3    H177404   5.863   0.715  16.162 -1.7675  1.2274 -1.2301
18663TIP3    H277405   5.854   0.853  16.223  0.0834  0.5578  0.6861
18664TIP3   OH277406   1.048   5.596   3.755  0.2375  0.4000  0.1966
18664TIP3    H177407   0.992   5.522   3.777  0.7379  0.3196  1.2255
18664TIP3    H277408   1.087   5.623   3.838  0.4605  1.4945 -0.2394
18665TIP3   OH277409   3.726   0.588   4.799  0.6989  0.2778  0.0433
18665TIP3    H177410   3.742   0.524   4.869 -0.4189 -1.2568 -1.0400
18665TIP3    H277411   3.721   0.672   4.845  1.8453 -0.4181  1.5606
18666TIP3   OH277412   4.738   6.046  11.495  0.1469  0.1066  0.0366
18666TIP3    H177413   4.727   6.054  11.400  4.1429 -0.4636 -0.6601
18666TIP3    H277414   4.713   5.956  11.514  0.5456 -0.1829 -0.7437
18667TIP3   OH277415   0.517   1.760  16.710  0.3497  0.5212  0.4606
18667TIP3    H177416   0.432   1.718  16.726 -0.0235  0.4670 -1.4813
18667TIP3    H277417   0.580   1.688  16.711 -0.0738  0.0806 -1.2108
18668TIP3   OH277418   6.528   5.538   6.877 -0.0493  0.7286  0.2620
18668TIP3    H177419   6.463   5.498   6.820 -3.0378  1.1533  3.0773
18668TIP3    H277420   6.610   5.494   6.855 -2.0812 -3.1322 -0.5073
18669TIP3   OH277421   2.654   3.299  14.353  0.2203 -0.5360  0.0571
18669TIP3    H177422   2.609   3.246  14.287 -0.5121 -0.3301  0.3814
18669TIP3    H277423   2.606   3.382  14.354  0.5377 -0.3510  0.4925
18670TIP3   OH277424   0.026   0.674   5.809  0.0913  0.1214  0.0912
18670TIP3    H177425   0.102   0.665   5.866 -0.7934 -1.8957  1.0667
18670TIP3    H277426  -0.046   0.694   5.869 -0.7093 -1.2192 -0.3702
18671TIP3   OH277427   4.095   0.677  16.841 -0.1587 -1.2974  0.4806
18671TIP3    H177428   4.058   0.760  16.871  0.8807 -0.5570 -0.2235
18671TIP3    H277429   4.131   0.696  16.754  1.5306 -2.0655  0.9634
18672TIP3   OH277430   6.479   0.542  16.061  0.2138  0.4527  0.1966
18672TIP3    H177431   6.386   0.520  16.050 -0.0552  1.2682  0.6966
18672TIP3    H277432   6.521   0.514  15.980 -0.4990  0.1854 -0.0850
18673TIP3   OH277433   1.284   3.330   4.169 -0.1439 -1.3829  0.7570
18673TIP3    H177434   1.264   3.415   4.209 -1.2315 -1.4615  0.4036
18673TIP3    H277435   1.370   3.308   4.204  1.6665  1.3264 -1.5635
18674TIP3   OH277436   0.796   4.589  12.916  0.1785 -0.2293  0.4261
18674TIP3    H177437   0.854   4.516  12.893  1.7674  0.7787  1.0186
18674TIP3    H277438   0.811   4.654  12.847 -0.1648  0.0899  0.6492
18675TIP3   OH277439   4.479   0.666   1.209  0.7769  0.3235 -0.1191
18675TIP3    H177440   4.563   0.657   1.164  0.6191 -0.4927 -0.2744
18675TIP3    H277441   4.498   0.641   1.300  0.4879 -0.9872 -0.3939
18676TIP3   OH277442   0.176   5.016  10.903  0.5522  0.0071  0.1371
18676TIP3    H177443   0.253   5.028  10.958  0.7077 -1.0951  0.1891
18676TIP3    H277444   0.110   5.073  10.942  1.3405  1.0046  0.0625
18677TIP3   OH277445   5.833   1.753  15.778 -0.1942 -0.5870  0.4254
18677TIP3    H177446   5.857   1.844  15.793  1.1148 -1.0936  1.6129
18677TIP3    H277447   5.759   1.738  15.838 -0.5619 -0.2636  0.0633
18678TIP3   OH277448   2.485   2.133   4.995 -0.8232 -0.0863 -0.2962
18678TIP3    H177449   2.489   2.094   4.908  0.7308 -1.2152  0.2313
18678TIP3    H277450   2.561   2.190   5.000 -0.5341 -0.5249  0.5307
18679TIP3   OH277451   5.592   3.521  15.379 -0.4841 -0.4938 -0.1512
18679TIP3    H177452   5.543   3.557  15.452 -0.5623 -0.5607 -0.1700
18679TIP3    H277453   5.645   3.593  15.347 -1.4413 -0.0821 -0.8773
18680TIP3   OH277454   1.511   1.932  16.208  0.0469 -0.9514  0.3238
18680TIP3    H177455   1.515   1.958  16.300 -0.0385  0.5219 -0.0652
18680TIP3    H277456   1.586   1.977  16.168 -1.5751  0.8213 -0.8689
18681TIP3   OH277457   5.178   0.890  13.673 -0.2867  0.3308 -0.3137
18681TIP3    H177458   5.271   0.878  13.691 -0.5162 -1.2258 -0.0486
18681TIP3    H277459   5.142   0.922  13.756  0.0533  1.2857 -0.5209
18682TIP3   OH277460   3.843   5.379  13.184  0.2622 -0.6306 -0.2833
18682TIP3    H177461   3.929   5.358  13.148 -0.3193 -4.2078  0.0442
18682TIP3    H277462   3.782   5.357  13.114 -0.5249 -0.9735  0.4961
18683TIP3   OH277463   5.495   4.157   4.513  0.8441  0.2988 -0.1644
18683TIP3    H177464   5.502   4.157   4.609  0.4311 -0.3238 -0.1275
18683TIP3    H277465   5.401   4.169   4.496  0.7473 -0.7782 -0.4621
18684TIP3   OH277466   5.432   4.823   0.846 -0.0474  0.1468 -0.1572
18684TIP3    H177467   5.437   4.730   0.867 -0.7614 -0.2703 -1.7333
18684TIP3    H277468   5.522   4.847   0.821  1.0305  0.8365  3.6995
18685TIP3   OH277469   3.897   5.971  14.334 -0.2926  0.4235 -0.1947
18685TIP3    H177470   3.955   6.013  14.398 -1.1085  1.2182  0.0444
18685TIP3    H277471   3.811   5.973  14.375 -0.6271 -0.0868 -0.8495
18686TIP3   OH277472   1.897   1.085   2.918  0.4189 -0.0891  0.5426
18686TIP3    H177473   1.936   1.131   2.993 -0.1052 -0.6073  1.1546
18686TIP3    H277474   1.953   1.008   2.906  1.5646  0.9025 -0.7722
18687TIP3   OH277475   5.591   0.200   6.202 -0.4493  0.0142 -0.9806
18687TIP3    H177476   5.524   0.266   6.220 -1.2636 -1.4036  1.7781
18687TIP3    H277477   5.672   0.249   6.189 -1.3431  1.5953 -0.7542
18688TIP3   OH277478   5.241   6.026  11.403 -0.4140 -0.3695 -0.1312
18688TIP3    H177479   5.307   5.958  11.408 -0.2831 -0.1662  1.0068
18688TIP3    H277480   5.163   5.988  11.443 -0.5872 -0.1351 -0.2390
18689TIP3   OH277481   3.325   6.203  16.994  0.5437 -0.0692 -0.5573
18689TIP3    H177482   3.385   6.153  16.938 -0.0569 -0.6988 -0.6569
18689TIP3    H277483   3.274   6.136  17.040  1.7385  0.4001  1.5815
18690TIP3   OH277484   4.026   2.937   0.282  0.4115  0.1113  0.1810
18690TIP3    H177485   4.093   2.933   0.214 -0.6005  0.5668 -0.8879
18690TIP3    H277486   4.005   2.846   0.300  1.6481 -0.0514  0.8907
18691TIP3   OH277487   0.435   4.087  16.767 -0.1027 -0.0737  0.1066
18691TIP3    H177488   0.453   4.180  16.783  1.5191 -0.1169 -1.1112
18691TIP3    H277489   0.376   4.086  16.692  1.3862 -0.0036 -1.1177
18692TIP3   OH277490   5.574   1.778   4.810  0.6843 -1.0513 -0.3567
18692TIP3    H177491   5.497   1.792   4.865  0.7510 -1.9385 -0.0201
18692TIP3    H277492   5.617   1.864   4.806  0.0300 -0.7020 -0.0136
18693TIP3   OH277493   6.181   5.459   3.104 -0.6543 -0.0674  0.6197
18693TIP3    H177494   6.206   5.539   3.058 -1.6687  0.8696  1.6580
18693TIP3    H277495   6.249   5.448   3.171  1.3528 -1.9386 -1.5459
18694TIP3   OH277496   4.306   1.119  14.264  0.5213  0.0308  0.7941
18694TIP3    H177497   4.210   1.116  14.265  0.4670 -0.3380 -1.4528
18694TIP3    H277498   4.328   1.212  14.271 -0.1660  0.4861 -1.9682
18695TIP3   OH277499   5.005   4.813  16.740 -0.1817  0.3546  0.1381
18695TIP3    H177500   4.993   4.760  16.819  2.1282 -0.2609  0.1457
18695TIP3    H277501   4.980   4.901  16.767 -1.4862 -0.2095  0.9105
18696TIP3   OH277502   6.143   5.186  13.525 -0.2771  0.4014  0.1362
18696TIP3    H177503   6.119   5.276  13.501  0.7653  0.0424 -2.5697
18696TIP3    H277504   6.222   5.168  13.473  0.2216 -1.6969  1.5195
18697TIP3   OH277505   3.386   5.889  11.323  0.1205  0.0696  0.1306
18697TIP3    H177506   3.472   5.848  11.331  0.4827  0.8058  0.1026
18697TIP3    H277507   3.393   5.945  11.246  0.3653  1.8533  1.3701
18698TIP3   OH277508   2.425   6.299   3.587  0.5652  0.2438 -0.4292
18698TIP3    H177509   2.446   6.379   3.636 -1.7200  1.0554 -0.6367
18698TIP3    H277510   2.432   6.325   3.495  1.6820 -0.3639 -0.5303
18699TIP3   OH277511   3.073   1.835   2.730 -0.5368 -0.3474  0.1255
18699TIP3    H177512   3.113   1.798   2.809 -0.6119 -0.5051  0.0913
18699TIP3    H277513   3.119   1.791   2.658 -1.6777 -1.5407  0.0836
18700TIP3   OH277514   2.364   5.014   6.395  0.1747 -0.3154  0.2167
18700TIP3    H177515   2.312   4.952   6.447 -0.0003  0.3159  0.8112
18700TIP3    H277516   2.317   5.097   6.404 -0.4015 -0.3800 -1.7453
18701TIP3   OH277517   6.768   4.578  10.655  0.0420  0.1412 -0.5961
18701TIP3    H177518   6.793   4.553  10.566 -0.1311  1.2280 -0.9564
18701TIP3    H277519   6.741   4.669  10.648  2.4315  1.0830  1.0014
18702TIP3   OH277520   5.085   0.701  14.703  0.8126  0.0539 -0.5645
18702TIP3    H177521   5.128   0.650  14.772 -0.3733 -0.5282 -0.2250
18702TIP3    H277522   5.026   0.639  14.660 -2.7411  1.5663  1.5732
18703TIP3   OH277523   6.129   5.018   4.612  0.0589  0.1719  0.0064
18703TIP3    H177524   6.145   5.110   4.633  1.2737  0.0478 -0.3158
18703TIP3    H277525   6.044   4.999   4.651 -0.0263  1.3223  0.4133
18704TIP3   OH277526   5.166   2.300   1.182 -0.0146  0.3685  0.1122
18704TIP3    H177527   5.249   2.294   1.134  0.7439  0.5738  1.3642
18704TIP3    H277528   5.099   2.308   1.113  1.0278  0.5398 -0.9063
18705TIP3   OH277529   5.183   3.781   1.444  0.0429 -0.5010 -0.1186
18705TIP3    H177530   5.098   3.752   1.476  0.2347  0.2015  1.0706
18705TIP3    H277531   5.182   3.876   1.454  2.0599 -0.6514  2.8048
18706TIP3   OH277532   2.928   4.995  14.682  0.0017 -0.0460  0.0719
18706TIP3    H177533   2.893   5.005  14.593 -0.9969 -4.2214 -0.1793
18706TIP3    H277534   3.018   4.966  14.670  0.8090  2.0460  0.5859
18707TIP3   OH277535   3.264   4.717   4.980 -0.6057 -0.6326 -0.0598
18707TIP3    H177536   3.352   4.731   4.944 -0.3114 -0.4462  0.7012
18707TIP3    H277537   3.225   4.804   4.983  0.1277 -0.3229  1.9236
18708TIP3   OH277538   3.380   0.819   4.403  0.2280 -0.7353  0.1183
18708TIP3    H177539   3.379   0.726   4.428  3.0428 -1.4159 -1.7521
18708TIP3    H277540   3.418   0.819   4.315  2.4266  2.3012  0.8846
18709TIP3   OH277541   3.802   2.483   5.456  0.7961 -0.1782 -0.3001
18709TIP3    H177542   3.791   2.423   5.530  2.0352 -0.0523  0.0063
18709TIP3    H277543   3.759   2.564   5.484 -0.1834 -0.6586 -0.3926
18710TIP3   OH277544   0.352   5.552  15.605  0.4306  0.2112  0.6814
18710TIP3    H177545   0.340   5.458  15.621  2.9109 -0.2379  0.2708
18710TIP3    H277546   0.282   5.593  15.656 -1.3922 -1.8698  0.0370
18711TIP3   OH277547   6.317   1.659  11.093  0.2293 -0.0755  0.5367
18711TIP3    H177548   6.336   1.706  11.012 -1.0624  1.6224  1.1440
18711TIP3    H277549   6.379   1.694  11.157  0.4159 -0.4927  0.5879
18712TIP3   OH277550   1.638   2.650  16.204  0.4587  0.0502  0.2685
18712TIP3    H177551   1.651   2.578  16.142  1.4853  1.4846 -1.2621
18712TIP3    H277552   1.626   2.606  16.288  1.2383 -1.9134 -0.5668
18713TIP3   OH277553   2.974   5.224  11.927 -0.5327  0.4900  0.4767
18713TIP3    H177554   2.944   5.312  11.950 -2.0957  0.5782 -1.5758
18713TIP3    H277555   3.068   5.225  11.943 -0.5315  2.5300  0.5088
18714TIP3   OH277556   4.942   6.303  12.541  0.2036  0.3314 -0.6261
18714TIP3    H177557   5.001   6.325  12.469  1.3176 -0.2636  0.0786
18714TIP3    H277558   4.864   6.357  12.525  0.3924  0.1718 -2.2917
18715TIP3   OH277559   1.779   4.075  13.189  0.4566 -0.2452 -0.4769
18715TIP3    H177560   1.795   4.168  13.176  0.0579 -0.1277 -0.1672
18715TIP3    H277561   1.714   4.052  13.122  0.2221 -0.1955 -0.2690
18716TIP3   OH277562   2.902   0.454   0.004  0.2019 -0.1815 -0.2350
18716TIP3    H177563   2.912   0.465   0.099  1.7602  1.5261 -0.5417
18716TIP3    H277564   2.893   0.360  -0.008  4.5237 -1.0021  1.3013
18717TIP3   OH277565   6.096   4.594   4.712  0.0399  0.0360 -0.0137
18717TIP3    H177566   6.148   4.629   4.784  0.4405 -0.6864  0.0628
18717TIP3    H277567   6.108   4.656   4.640 -0.4704  0.8309  0.5729
18718TIP3   OH277568   0.380   1.250   0.306 -0.3159  0.1313  0.6388
18718TIP3    H177569   0.373   1.187   0.233  0.7432  0.2868  0.3839
18718TIP3    H277570   0.421   1.200   0.376 -0.3159  0.2875  0.7498
18719TIP3   OH277571   2.757   5.179  13.831  0.8709  1.1192 -0.1238
18719TIP3    H177572   2.724   5.201  13.744 -0.3198  0.5751  0.1695
18719TIP3    H277573   2.679   5.161  13.883  1.6069  0.2452  0.7382
18720TIP3   OH277574   0.501   5.352   4.125 -0.1568  0.7443 -0.2333
18720TIP3    H177575   0.518   5.266   4.085 -0.8059  1.2278 -1.6426
18720TIP3    H277576   0.544   5.348   4.210 -1.1282 -1.3889  0.2365
18721TIP3   OH277577   4.566   0.067   3.541  0.4225 -0.1144 -0.3316
18721TIP3    H177578   4.526   0.149   3.570  1.0590  0.9318 -2.2615
18721TIP3    H277579   4.568   0.013   3.620 -0.5259  1.5059  0.8728
18722TIP3   OH277580   2.775   5.983  16.407  0.3698  0.0176 -1.0299
18722TIP3    H177581   2.691   5.936  16.403 -0.0251  0.5635  0.2754
18722TIP3    H277582   2.754   6.071  16.376  0.3625  0.2751 -0.2974
18723TIP3   OH277583   2.203   2.118  11.253  0.5281  0.0833  0.2233
18723TIP3    H177584   2.274   2.164  11.209 -0.7680  0.7611 -1.2588
18723TIP3    H277585   2.153   2.078  11.182 -2.3634  2.2438  0.8530
18724TIP3   OH277586   1.076   0.861   2.196 -0.0527  0.4388  0.1034
18724TIP3    H177587   1.017   0.855   2.270 -1.1906  1.0911 -0.7152
18724TIP3    H277588   1.051   0.942   2.151 -1.0112 -1.0760 -2.3110
18725TIP3   OH277589   2.612   0.447  13.050 -0.3241  0.3038 -0.4334
18725TIP3    H177590   2.523   0.418  13.027 -0.4670  0.1187  0.3134
18725TIP3    H277591   2.662   0.366  13.058 -0.6940  0.2239  1.5336
18726TIP3   OH277592   2.032   6.161  15.507  0.2284 -0.3067  0.0200
18726TIP3    H177593   1.984   6.092  15.459  0.3898 -1.3126  1.2506
18726TIP3    H277594   1.963   6.215  15.546 -0.0446  2.4439 -3.7120
18727TIP3   OH277595   1.654   2.054   2.205 -0.6435  0.5852 -0.4893
18727TIP3    H177596   1.723   2.117   2.186  1.2773 -1.2764 -0.0185
18727TIP3    H277597   1.641   2.060   2.300 -1.6673  1.4098 -0.6620
18728TIP3   OH277598   3.619   2.377  13.336 -0.4716 -0.1450 -0.6868
18728TIP3    H177599   3.542   2.425  13.367 -1.3921 -0.6452 -2.1349
18728TIP3    H277600   3.666   2.440  13.281 -0.4879 -0.2070 -0.7727
18729TIP3   OH277601   2.009   2.885  14.171 -0.5416  0.1596 -0.1123
18729TIP3    H177602   2.056   2.914  14.249 -0.6891  1.0527 -0.3388
18729TIP3    H277603   1.996   2.791  14.184  0.3496  0.1007  0.4473
18730TIP3   OH277604   4.280   3.888  12.251 -0.1631  0.1725  0.4409
18730TIP3    H177605   4.344   3.959  12.248  0.9892 -0.8514 -1.0008
18730TIP3    H277606   4.266   3.865  12.159 -3.8276  1.3458  0.5500
18731TIP3   OH277607   6.207   4.171   5.177 -0.1652 -0.0567  0.4155
18731TIP3    H177608   6.241   4.250   5.135  0.9541 -1.0227 -0.5824
18731TIP3    H277609   6.112   4.180   5.173 -0.1226 -0.0042 -2.2616
18732TIP3   OH277610   0.406   5.146  12.878 -0.1671  0.3709  0.1451
18732TIP3    H177611   0.374   5.139  12.967  0.7173  0.1198  0.4572
18732TIP3    H277612   0.408   5.240  12.860 -0.1528  0.4315  0.4660
18733TIP3   OH277613   0.322   3.939   2.046  0.2977  0.0322 -0.0705
18733TIP3    H177614   0.354   4.028   2.033  3.3966 -0.7817  1.0418
18733TIP3    H277615   0.274   3.918   1.966  1.8330  1.7776 -1.5435
18734TIP3   OH277616   5.555   5.811   0.312 -0.1192  0.2185  0.8383
18734TIP3    H177617   5.595   5.896   0.330 -1.5988  1.4640 -1.2218
18734TIP3    H277618   5.468   5.832   0.278 -1.4627 -2.2446  2.4140
18735TIP3   OH277619   5.586   1.611   2.558  0.3542  0.4788 -0.7201
18735TIP3    H177620   5.531   1.537   2.582  1.2716 -1.0741 -3.0638
18735TIP3    H277621   5.569   1.625   2.465  1.6167  1.9996 -0.7732
18736TIP3   OH277622   0.664   1.941   0.113  0.5065  0.4668  0.2844
18736TIP3    H177623   0.703   1.905   0.034  1.5940  0.8356  0.6276
18736TIP3    H277624   0.589   1.885   0.131 -1.2131  1.7347 -2.2873
18737TIP3   OH277625   4.157   5.631   2.862  0.8487  0.0838 -0.2590
18737TIP3    H177626   4.173   5.539   2.841  0.0600 -0.2696  0.6408
18737TIP3    H277627   4.144   5.632   2.956  0.9507  1.1455 -0.2436
18738TIP3   OH277628   1.388   4.176   6.198 -0.0765  0.4562  0.0815
18738TIP3    H177629   1.483   4.182   6.193 -0.0037 -0.3447  0.5402
18738TIP3    H277630   1.361   4.262   6.232  0.6109  0.0877  1.6423
18739TIP3   OH277631   5.514   1.881   1.481  0.2632 -0.0307 -0.2623
18739TIP3    H177632   5.446   1.859   1.545 -0.1491  1.5820 -0.0991
18739TIP3    H277633   5.580   1.927   1.532 -0.3111  1.7429 -1.0366
18740TIP3   OH277634   1.039   3.605  11.604  1.1056  0.9401  0.0004
18740TIP3    H177635   1.070   3.569  11.521 -0.4558  0.0917 -0.2610
18740TIP3    H277636   0.945   3.590  11.602  0.9531  1.5474  1.6313
18741TIP3   OH277637   5.692   2.217  16.335 -0.9491 -0.2451 -0.2416
18741TIP3    H177638   5.784   2.196  16.353 -1.1495 -0.8444  0.1362
18741TIP3    H277639   5.657   2.135  16.299 -1.1660  0.1920 -1.0389
18742TIP3   OH277640   4.844   1.716  15.557  0.3321  0.2429 -0.2255
18742TIP3    H177641   4.846   1.748  15.467 -2.4265 -0.7069 -0.7404
18742TIP3    H277642   4.753   1.689  15.570  0.8179 -0.3038  2.6351
18743TIP3   OH277643   4.979   2.788  12.390  0.0627 -0.1646  0.4545
18743TIP3    H177644   5.051   2.851  12.395  0.0757 -0.2265  1.2347
18743TIP3    H277645   5.004   2.718  12.450 -0.7926 -0.0244  0.9983
18744TIP3   OH277646   4.094   5.290   5.034 -0.5297  0.5803 -0.2025
18744TIP3    H177647   4.155   5.343   4.982 -0.5109  0.8400  0.0830
18744TIP3    H277648   4.013   5.340   5.033 -0.5191  0.6021  0.0463
18745TIP3   OH277649   3.441   1.336   4.617 -0.1775 -0.0282 -0.3552
18745TIP3    H177650   3.408   1.407   4.562  3.5628  2.4376  0.2009
18745TIP3    H277651   3.430   1.367   4.707 -2.2070 -2.0891  0.2017
18746TIP3   OH277652   3.875   3.520  11.010  0.1990 -0.5576 -0.1620
18746TIP3    H177653   3.963   3.484  11.024  0.9436  0.8368 -1.0306
18746TIP3    H277654   3.876   3.603  11.057 -1.3539 -1.4256  1.4856
18747TIP3   OH277655   5.566   1.281   3.827  0.3345 -0.2608 -0.1195
18747TIP3    H177656   5.472   1.291   3.837 -0.4812 -4.1408 -1.8972
18747TIP3    H277657   5.604   1.360   3.865 -3.6650  2.4092 -1.1695
18748TIP3   OH277658   2.755   6.604  13.843 -0.5796 -0.9548 -0.8041
18748TIP3    H177659   2.829   6.637  13.894 -0.0684 -2.8555 -0.2507
18748TIP3    H277660   2.791   6.532  13.791 -1.7733 -1.0742 -1.5040
18749TIP3   OH277661   6.193   3.038  14.111  0.4663  0.4208 -0.3862
18749TIP3    H177662   6.244   3.037  14.192 -1.0223  2.8901  0.7277
18749TIP3    H277663   6.215   2.956  14.067  1.4127 -0.9900  2.4758
18750TIP3   OH277664   1.805   1.425   0.696  0.2228 -0.2179 -0.0583
18750TIP3    H177665   1.806   1.487   0.623 -2.4896  0.2250  0.1916
18750TIP3    H277666   1.836   1.343   0.658  1.5559  0.6562 -0.9763
18751TIP3   OH277667   2.672   4.854   4.374 -0.3002  0.2115 -0.4520
18751TIP3    H177668   2.628   4.928   4.417 -0.4395 -1.5288  2.6888
18751TIP3    H277669   2.765   4.869   4.391 -0.3681 -0.5760  0.7512
18752TIP3   OH277670   5.631   0.217  15.765  0.3435  0.5947 -0.1410
18752TIP3    H177671   5.655   0.290  15.707  0.2861  0.0332 -0.8837
18752TIP3    H277672   5.591   0.152  15.707  1.0857 -0.3604  0.3835
18753TIP3   OH277673   1.632   1.367   0.895  0.5692  0.1346  0.3765
18753TIP3    H177674   1.664   1.393   0.809  0.3550 -0.8051  0.0005
18753TIP3    H277675   1.704   1.318   0.934 -0.1478 -1.4164 -0.2053
18754TIP3   OH277676   0.839   4.877  13.607  0.4828 -0.3854 -0.4579
18754TIP3    H177677   0.839   4.921  13.523  0.3187 -1.5060 -1.0681
18754TIP3    H277678   0.855   4.946  13.671 -0.0752  0.5879 -1.3428
18755TIP3   OH277679   3.365   2.191   2.988 -0.8159  0.1624  0.1976
18755TIP3    H177680   3.397   2.104   2.963 -1.9537  0.2861 -1.8388
18755TIP3    H277681   3.408   2.251   2.928  0.1994  1.1166  1.7878
18756TIP3   OH277682   1.976   6.545   3.019 -0.6598  0.0705  0.5832
18756TIP3    H177683   1.955   6.470   3.075  2.2589 -0.7232  0.7660
18756TIP3    H277684   2.033   6.509   2.951 -0.5554  1.8246 -0.3106
18757TIP3   OH277685   3.685   2.314   2.907 -0.1060 -0.3105 -0.1115
18757TIP3    H177686   3.670   2.391   2.851 -1.9129  0.0381  0.7925
18757TIP3    H277687   3.647   2.338   2.991  0.3776 -1.7634  0.5412
18758TIP3   OH277688   0.992   3.641   1.197 -0.3238 -0.3970  0.2631
18758TIP3    H177689   0.931   3.668   1.129 -2.3150 -1.2875  1.6131
18758TIP3    H277690   1.054   3.583   1.152 -2.6461 -2.4416 -0.5345
18759TIP3   OH277691   4.520   1.725   6.278 -0.1704 -0.3708 -0.2800
18759TIP3    H177692   4.595   1.767   6.320  0.2587 -1.1286 -0.2672
18759TIP3    H277693   4.486   1.791   6.218 -0.5002  0.5567  0.8895
18760TIP3   OH277694   3.156   3.579   4.413 -0.7040  0.2120 -0.0189
18760TIP3    H177695   3.145   3.498   4.363  0.6318  0.5395 -0.9071
18760TIP3    H277696   3.187   3.550   4.499 -0.2887 -0.2358 -0.3112
18761TIP3   OH277697   2.989   5.784  14.948 -0.6376 -0.1709  0.3291
18761TIP3    H177698   3.046   5.853  14.915 -0.0407 -1.1427 -0.7427
18761TIP3    H277699   3.029   5.703  14.917 -1.0305 -1.0439  1.9988
18762TIP3   OH277700   4.372   1.691  13.453  0.6724 -0.1490  0.0814
18762TIP3    H177701   4.398   1.725  13.539  0.8132 -0.6990  0.2564
18762TIP3    H277702   4.322   1.612  13.472 -0.1265  0.2577 -0.3106
18763TIP3   OH277703   0.574   2.753   3.276  0.4857 -0.4268  0.1011
18763TIP3    H177704   0.591   2.733   3.368  1.9769  0.4489  0.0503
18763TIP3    H277705   0.561   2.848   3.275  0.1579 -0.4793 -0.5416
18764TIP3   OH277706   0.434   1.746  15.363 -0.0754 -0.3100  0.0184
18764TIP3    H177707   0.454   1.712  15.276 -1.3774 -0.4005 -0.2717
18764TIP3    H277708   0.517   1.779  15.397  0.4666 -0.3919 -1.2103
18765TIP3   OH277709   1.749   4.404  11.527  0.0151 -0.0220  0.1835
18765TIP3    H177710   1.815   4.334  11.526 -0.4015 -0.5081 -2.8401
18765TIP3    H277711   1.793   4.478  11.569  1.8135 -0.9243 -0.0074
18766TIP3   OH277712   1.431   5.527  14.723  0.2609  0.0229 -0.1110
18766TIP3    H177713   1.429   5.603  14.781 -0.2320  1.0986 -1.4712
18766TIP3    H277714   1.435   5.564  14.635 -2.5016 -1.4042 -0.9858
18767TIP3   OH277715   1.482   5.238   5.798  0.2313 -0.2346 -0.5006
18767TIP3    H177716   1.468   5.189   5.879 -0.2311 -0.7342 -0.8766
18767TIP3    H277717   1.545   5.306   5.822  1.2540 -1.2990 -0.0920
18768TIP3   OH277718   4.640   4.629   1.467 -0.0245 -0.3302  0.3169
18768TIP3    H177719   4.690   4.705   1.437 -0.5707 -0.6200 -1.4599
18768TIP3    H277720   4.703   4.579   1.520  1.0643  0.1489 -0.4804
18769TIP3   OH277721   6.536   0.932   0.903  0.1217 -0.1687  0.3920
18769TIP3    H177722   6.570   1.012   0.943  0.1934  0.9925 -1.8187
18769TIP3    H277723   6.447   0.925   0.935  0.2584  0.5583  0.9589
18770TIP3   OH277724   5.195   3.405   2.122  0.0685 -0.2600  0.1633
18770TIP3    H177725   5.214   3.424   2.214  1.6611 -0.0010 -0.2051
18770TIP3    H277726   5.170   3.490   2.085 -0.7193 -0.3900  0.3683
18771TIP3   OH277727   5.911   2.261  12.870  0.4382 -0.0808  0.5797
18771TIP3    H177728   5.917   2.166  12.861  1.2778  0.0889 -0.9621
18771TIP3    H277729   5.965   2.282  12.946 -1.0984 -0.9551  1.9921
18772TIP3   OH277730   5.495   2.525   1.058  0.8451 -0.8561  0.0078
18772TIP3    H177731   5.566   2.507   0.997  0.7432 -0.3151 -0.2759
18772TIP3    H277732   5.537   2.526   1.144  1.7203  1.9643 -0.3200
18773TIP3   OH277733   6.745   0.580  12.779  0.3094  0.3469  0.2455
18773TIP3    H177734   6.711   0.496  12.747  1.3327 -0.5054  1.3068
18773TIP3    H277735   6.750   0.635  12.701 -0.5562 -0.5076 -0.4388
18774TIP3   OH277736   4.625   5.229  16.686  0.2526  0.4894 -0.0362
18774TIP3    H177737   4.535   5.197  16.677  0.3542  0.0035  0.5638
18774TIP3    H277738   4.679   5.154  16.660  0.5040  0.0166  1.7165
18775TIP3   OH277739   3.100   3.063   3.289  0.3190 -0.7065 -0.3926
18775TIP3    H177740   3.076   3.077   3.381 -0.9842 -2.5012 -0.4089
18775TIP3    H277741   3.017   3.063   3.242  0.9887  0.4526 -1.6542
18776TIP3   OH277742   2.145   1.925   6.170  0.2203  0.0832  0.3087
18776TIP3    H177743   2.189   1.936   6.254  0.3156 -3.8679  0.9586
18776TIP3    H277744   2.070   1.868   6.189 -0.1055 -0.4376 -2.1852
18777TIP3   OH277745   2.613   5.610  15.389 -0.2469 -0.1192 -0.6850
18777TIP3    H177746   2.630   5.702  15.409 -0.4355 -0.1722 -0.2694
18777TIP3    H277747   2.537   5.587  15.442 -0.7673 -0.2687 -1.4780
18778TIP3   OH277748   0.154   1.296  16.239  0.2624  0.1750 -0.2711
18778TIP3    H177749   0.224   1.272  16.178 -0.3120  0.7344 -1.1891
18778TIP3    H277750   0.130   1.214  16.282 -0.4525 -0.6070 -2.0367
18779TIP3   OH277751   5.649   0.137   1.893 -0.4069  0.7058 -0.3179
18779TIP3    H177752   5.568   0.098   1.927  0.6802 -0.1432  1.4407
18779TIP3    H277753   5.633   0.148   1.800 -1.5794 -1.9801 -0.5091
18780TIP3   OH277754   6.486   1.737  14.564  0.5852  0.2708 -0.1145
18780TIP3    H177755   6.550   1.799  14.598  0.9916 -0.0247 -0.3384
18780TIP3    H277756   6.486   1.665  14.627  0.1029  0.5000  0.1526
18781TIP3   OH277757   2.350   1.862   3.866 -0.1924  0.6437  0.0595
18781TIP3    H177758   2.399   1.917   3.928  0.5398  0.2437 -0.1509
18781TIP3    H277759   2.356   1.910   3.783 -0.2562  0.6461  0.0560
18782TIP3   OH277760   5.580   2.683   3.314  0.3428 -0.6917  0.6221
18782TIP3    H177761   5.527   2.737   3.373 -1.0302  0.6662 -1.7116
18782TIP3    H277762   5.569   2.594   3.347 -2.9061 -0.3856  0.6875
18783TIP3   OH277763   4.081   6.545  11.759  0.0378 -0.1356  0.1079
18783TIP3    H177764   4.119   6.632  11.764  1.0182 -0.5865  0.9630
18783TIP3    H277765   4.049   6.537  11.669  1.3752  0.5214 -0.4488
18784TIP3   OH277766   2.999   3.516  14.522 -0.3105 -0.0282  0.1491
18784TIP3    H177767   3.047   3.567  14.457  1.0955  0.0930  1.2299
18784TIP3    H277768   2.940   3.580  14.563 -1.2859 -0.1292 -1.0416
18785TIP3   OH277769   6.376   0.246   2.009  0.0688 -0.0848  0.7933
18785TIP3    H177770   6.392   0.213   1.920  0.5126 -0.4938  1.0206
18785TIP3    H277771   6.282   0.233   2.023 -0.4853  2.0394 -0.4325
18786TIP3   OH277772   4.017   6.496  15.022 -0.0760 -0.1510  0.0828
18786TIP3    H177773   3.987   6.427  14.963 -0.1977  1.4594 -1.8405
18786TIP3    H277774   4.105   6.517  14.992  1.1935 -1.4354  2.5597
18787TIP3   OH277775   5.118   3.356  14.886  0.2640  0.3903  0.1862
18787TIP3    H177776   5.213   3.347  14.883  0.1717 -0.3416 -1.1377
18787TIP3    H277777   5.085   3.269  14.865 -0.6950  1.0498 -1.1519
18788TIP3   OH277778   3.978   1.584  17.029 -0.3925  0.8057 -0.6861
18788TIP3    H177779   3.981   1.491  17.007  1.5806  0.6392  0.0844
18788TIP3    H277780   3.969   1.587  17.124 -1.7046  1.4527 -0.7978
18789TIP3   OH277781   2.942   0.601   3.335 -0.7898  0.4929 -0.6455
18789TIP3    H177782   3.031   0.634   3.345 -1.3275  1.6843  0.4401
18789TIP3    H277783   2.889   0.654   3.394 -2.6337  1.4613 -2.9785
18790TIP3   OH277784   4.722   6.163   4.754 -0.3899  0.2843 -0.4647
18790TIP3    H177785   4.784   6.101   4.792 -0.9003  0.0680  0.0247
18790TIP3    H277786   4.724   6.146   4.660  1.5181  1.3880 -0.6803
18791TIP3   OH277787   4.743   3.113   6.344  0.4361  0.7514  0.4721
18791TIP3    H177788   4.693   3.175   6.291 -1.2945 -0.6614  0.3568
18791TIP3    H277789   4.703   3.117   6.430 -0.1071 -0.5995  0.3117
18792TIP3   OH277790   3.019   4.777   0.730 -0.0095  0.4018  0.2739
18792TIP3    H177791   2.982   4.779   0.642 -1.0894  0.0681  0.6921
18792TIP3    H277792   2.943   4.792   0.788  0.3470 -1.1313  1.2143
18793TIP3   OH277793   4.960   3.872   0.037  0.7703 -0.0108 -0.2508
18793TIP3    H177794   5.048   3.859   0.071  1.0394 -0.1461 -0.9749
18793TIP3    H277795   4.932   3.785   0.007 -0.1864 -0.2617  1.2914
18794TIP3   OH277796   5.660   3.009  16.888 -0.5172  0.2253 -0.4284
18794TIP3    H177797   5.653   2.938  16.824 -2.1058  0.5269 -0.6179
18794TIP3    H277798   5.694   3.083  16.838 -1.6796  0.4393 -0.9418
18795TIP3   OH277799   1.634   1.759  13.330  0.3645  0.3464  0.2610
18795TIP3    H177800   1.616   1.681  13.277  0.7769  2.3999 -3.2487
18795TIP3    H277801   1.729   1.766  13.330  0.3338  0.7939  0.6119
18796TIP3   OH277802   5.955   5.370  13.449 -0.3255  1.1016  0.3038
18796TIP3    H177803   5.867   5.331  13.455  0.4152 -0.6075  0.5004
18796TIP3    H277804   5.970   5.406  13.537 -0.4799  0.6031  0.5420
18797TIP3   OH277805   2.677   3.918  11.801  0.2846 -0.7080 -0.1814
18797TIP3    H177806   2.586   3.918  11.770 -0.1912 -0.2378  1.1666
18797TIP3    H277807   2.682   3.992  11.860  1.3437 -1.2014  0.3707
18798TIP3   OH277808   3.060   5.498   4.039  0.9613  0.0798  0.2020
18798TIP3    H177809   3.153   5.502   4.063  0.7181 -0.0955  1.2116
18798TIP3    H277810   3.034   5.590   4.027  0.3604  0.4823  3.6413
18799TIP3   OH277811   1.784   4.654  14.152  0.1856  0.4654  0.3025
18799TIP3    H177812   1.774   4.644  14.057  0.3325  1.2835  0.1867
18799TIP3    H277813   1.877   4.675  14.163 -0.0018  1.2254  0.5329
18800TIP3   OH277814   0.935   4.456   5.996  0.8313  0.1612 -0.4189
18800TIP3    H177815   0.919   4.364   5.973  0.4881 -0.5419  2.2255
18800TIP3    H277816   0.940   4.455   6.092 -0.1649  3.0617 -0.2528
18801TIP3   OH277817   1.608   2.694  11.489 -0.1416  0.0527 -0.1220
18801TIP3    H177818   1.604   2.693  11.585  2.2569 -0.8303  0.0203
18801TIP3    H277819   1.639   2.782  11.467  2.7479 -0.7852  0.1957
18802TIP3   OH277820   1.688   4.670  16.572  0.0796  0.8530 -0.3674
18802TIP3    H177821   1.720   4.657  16.483  3.2128  0.3597  0.7028
18802TIP3    H277822   1.695   4.765  16.586 -1.5517  1.0954 -0.9652
18803TIP3   OH277823   6.078   6.754  13.568  0.2542  0.1168  0.1019
18803TIP3    H177824   6.023   6.811  13.622 -0.2444 -0.6201  0.3932
18803TIP3    H277825   6.132   6.814  13.517 -0.7346  0.8618 -0.1037
18804TIP3   OH277826   1.070   2.237  16.792 -0.2554  0.4115  0.1345
18804TIP3    H177827   1.159   2.239  16.827  0.3135 -0.1686 -1.2126
18804TIP3    H277828   1.014   2.254  16.868  0.9671  0.1460  1.1280
18805TIP3   OH277829   0.153   2.658   5.569  0.5933 -0.5237 -0.1809
18805TIP3    H177830   0.246   2.681   5.567  0.5551  0.6214  3.2475
18805TIP3    H277831   0.107   2.742   5.564 -0.1019 -0.8171  0.8380
18806TIP3   OH277832   1.541   0.773   5.708  0.7044 -0.0612  0.6101
18806TIP3    H177833   1.456   0.811   5.732 -0.3641  0.3169 -3.1098
18806TIP3    H277834   1.537   0.684   5.742 -2.0045 -0.6269 -0.8851
18807TIP3   OH277835   3.511   0.228  13.623  0.5512 -0.7156  0.4327
18807TIP3    H177836   3.589   0.207  13.573 -0.0377 -1.2502 -0.2889
18807TIP3    H277837   3.450   0.157  13.603 -0.3258 -0.0063  0.5118
18808TIP3   OH277838   3.386   3.008  11.957  0.4367  0.0925 -0.0454
18808TIP3    H177839   3.381   2.917  11.985  2.0483 -0.0073  0.0266
18808TIP3    H277840   3.363   3.059  12.034 -0.8554 -0.2391 -0.1915
18809TIP3   OH277841   4.750   4.919   1.625 -0.6367  0.2670  0.5318
18809TIP3    H177842   4.657   4.918   1.606 -0.6719  0.1397  0.7081
18809TIP3    H277843   4.769   5.010   1.648 -0.9918  0.0349  1.8183
18810TIP3   OH277844   5.274   1.718   2.412 -0.3734  0.5729 -0.2519
18810TIP3    H177845   5.190   1.735   2.457 -0.5352 -1.1008  0.1426
18810TIP3    H277846   5.332   1.786   2.445 -0.8676  0.1983  1.5198
18811TIP3   OH277847   3.937   2.641   0.831 -0.2449  0.3708 -0.0503
18811TIP3    H177848   3.886   2.565   0.802 -1.8565  1.2477  0.3962
18811TIP3    H277849   4.008   2.648   0.767 -0.7703 -0.7879 -0.7872
18812TIP3   OH277850   2.521   1.499  13.312 -0.3797 -0.1952 -0.1028
18812TIP3    H177851   2.483   1.548  13.385 -2.3407 -0.6609 -0.7389
18812TIP3    H277852   2.466   1.521  13.237 -0.9625 -2.8176 -0.5468
18813TIP3   OH277853   2.957   5.152   4.970 -0.2974  0.1411  0.1777
18813TIP3    H177854   2.938   5.223   5.032  2.2385  1.4134 -0.3503
18813TIP3    H277855   2.931   5.187   4.885  1.0866  0.5681 -0.1029
18814TIP3   OH277856   6.362   0.502  15.721 -0.6916  0.5480  0.1410
18814TIP3    H177857   6.453   0.487  15.745 -1.1255  0.5592  1.9716
18814TIP3    H277858   6.364   0.574  15.658  0.4863  1.2825  0.9843
18815TIP3   OH277859   4.449   1.532  12.463 -0.6337 -0.6384  0.4151
18815TIP3    H177860   4.473   1.445  12.493 -0.2096 -0.6422  0.0854
18815TIP3    H277861   4.469   1.531  12.369  0.9483  0.3298  0.7056
18816TIP3   OH277862   2.686   4.686   1.321 -0.4069 -0.1164  0.2175
18816TIP3    H177863   2.602   4.655   1.355 -2.1083  1.4398 -2.2954
18816TIP3    H277864   2.697   4.639   1.238  1.6603 -0.8688  0.8517
18817TIP3   OH277865   5.937   6.202   4.225  0.9477  0.1857 -0.4062
18817TIP3    H177866   5.962   6.287   4.263 -0.0484 -0.4530  1.8432
18817TIP3    H277867   5.844   6.211   4.205  0.7165 -0.5064  0.3106
18818TIP3   OH277868   0.100   1.267  15.668  0.3578  0.6168 -0.3634
18818TIP3    H177869   0.034   1.245  15.603 -0.6264  0.5597  0.6238
18818TIP3    H277870   0.064   1.342  15.715  1.5144  1.3129 -0.5353
18819TIP3   OH277871   2.283   5.928   2.907 -0.5038  0.1402 -0.5562
18819TIP3    H177872   2.323   5.843   2.891 -0.3851  0.1318 -0.2167
18819TIP3    H277873   2.189   5.913   2.894 -0.6946 -0.4924  1.2966
18820TIP3   OH277874   2.645   1.298  14.977 -0.1535 -0.0444 -0.9410
18820TIP3    H177875   2.738   1.307  15.000 -0.2882 -1.2011  0.1262
18820TIP3    H277876   2.644   1.307  14.882  0.8955  1.1412 -0.8827
18821TIP3   OH277877   1.440   1.864  14.552  0.3895 -0.0325 -0.7022
18821TIP3    H177878   1.350   1.897  14.545  0.2760 -0.1485  0.0360
18821TIP3    H277879   1.446   1.796  14.485 -0.0356  0.0728 -0.8502
18822TIP3   OH277880   2.537   5.086   1.454 -0.5125  0.1629 -0.3693
18822TIP3    H177881   2.626   5.050   1.449  0.2395  2.0197 -1.4477
18822TIP3    H277882   2.534   5.131   1.538  0.0462  1.1843 -0.8753
18823TIP3   OH277883   2.844   1.555  11.789 -0.3841 -0.4860 -0.8210
18823TIP3    H177884   2.825   1.503  11.868  1.6738  0.4891  0.4056
18823TIP3    H277885   2.812   1.643  11.810 -1.0817 -0.5361 -1.6491
18824TIP3   OH277886   4.427   0.068  16.210 -0.1659  0.0115 -0.2243
18824TIP3    H177887   4.448   0.138  16.148  0.3951 -1.2942 -1.5826
18824TIP3    H277888   4.349   0.027  16.173 -0.4017 -0.1750  0.4741
18825TIP3   OH277889   4.616   1.069   0.837  0.2077  0.2790 -0.3413
18825TIP3    H177890   4.624   1.161   0.812  0.3906  0.6143  0.8589
18825TIP3    H277891   4.552   1.033   0.777 -1.8989  1.8699  0.8205
18826TIP3   OH277892   0.876   5.168   1.557 -0.3291 -0.3058  0.2113
18826TIP3    H177893   0.922   5.217   1.489 -0.2129 -1.5670 -0.6585
18826TIP3    H277894   0.944   5.145   1.620 -0.0937 -0.5886 -0.1347
18827TIP3   OH277895   1.142   6.274   2.764 -0.1126 -0.3238 -0.4681
18827TIP3    H177896   1.048   6.257   2.757  0.1253 -1.1183 -2.6407
18827TIP3    H277897   1.183   6.191   2.737  1.1964  0.3613 -0.6667
18828TIP3   OH277898   0.458   1.577  14.751  0.0582 -0.8581  0.1807
18828TIP3    H177899   0.516   1.580  14.828  0.8398  0.9283 -0.4394
18828TIP3    H277900   0.518   1.578  14.676 -0.7373  0.2755 -0.4669
18829TIP3   OH277901   2.699   2.959   0.120 -0.4636 -0.5807  0.1546
18829TIP3    H177902   2.635   2.897   0.156  1.2441 -0.9383  2.7831
18829TIP3    H277903   2.769   2.904   0.086  1.1205 -0.1981  2.6127
18830TIP3   OH277904   3.474   1.933   2.936 -0.4654 -0.5287 -0.4267
18830TIP3    H177905   3.460   1.889   2.852 -1.0570 -0.4937 -0.3539
18830TIP3    H277906   3.428   1.878   3.000 -1.2973  0.2256 -0.3481
18831TIP3   OH277907   6.802   0.505  16.704  0.5092  0.1063 -0.2390
18831TIP3    H177908   6.849   0.421  16.694  0.3298  0.0987 -1.0474
18831TIP3    H277909   6.744   0.491  16.778 -0.2776 -0.8469 -1.0136
18832TIP3   OH277910   4.613   3.463   1.519  0.3788  0.2860 -0.4368
18832TIP3    H177911   4.616   3.528   1.448  0.3816 -0.5018 -1.1738
18832TIP3    H277912   4.703   3.434   1.529  0.1061 -0.9405 -1.3863
18833TIP3   OH277913   3.102   5.623   1.206  0.3701 -0.5608  0.1643
18833TIP3    H177914   3.173   5.676   1.241  0.5467 -0.2809 -0.5880
18833TIP3    H277915   3.143   5.572   1.136  0.1651 -1.5661  0.7565
18834TIP3   OH277916   3.246   3.032  13.831  0.0280 -0.0222  0.0818
18834TIP3    H177917   3.183   3.012  13.900  0.0299 -1.0794 -0.2046
18834TIP3    H277918   3.322   2.977  13.852  0.2674  0.1222 -0.4083
18835TIP3   OH277919   4.935   6.280  13.166 -0.0726  0.5414  0.1310
18835TIP3    H177920   4.983   6.325  13.096  0.5964 -0.0744  0.1824
18835TIP3    H277921   4.843   6.294  13.144  0.1239  1.3079 -0.2538
18836TIP3   OH277922   5.443   0.425   1.554  0.1951 -0.2172  0.4075
18836TIP3    H177923   5.457   0.422   1.459 -1.9592  2.3849 -0.0840
18836TIP3    H277924   5.529   0.447   1.590  0.5234  1.4143 -1.2198
18837TIP3   OH277925   0.355   4.624   1.133 -0.7196 -0.1037 -0.3571
18837TIP3    H177926   0.371   4.650   1.224  2.8251  1.9625 -1.3859
18837TIP3    H277927   0.289   4.686   1.102  1.2644  2.2114 -0.2833
18838TIP3   OH277928   3.622   6.494   0.345 -0.4058  0.6096  0.7011
18838TIP3    H177929   3.601   6.588   0.343  0.1811  0.7421  0.6398
18838TIP3    H277930   3.617   6.470   0.437 -1.2674  0.5342  0.6428
18839TIP3   OH277931   0.277   2.623   0.203 -0.1113 -0.0826 -0.0243
18839TIP3    H177932   0.229   2.646   0.282  0.2257 -0.4676  0.2959
18839TIP3    H277933   0.209   2.589   0.144 -0.5051  1.0540 -0.2538
18840TIP3   OH277934   5.641   6.736  16.684 -0.0367  0.2000 -0.1356
18840TIP3    H177935   5.657   6.642  16.692 -1.3157 -0.0603 -0.2703
18840TIP3    H277936   5.693   6.763  16.609  0.3341 -0.4104 -0.1013
18841TIP3   OH277937   6.103   1.660  16.244  0.0241 -0.9058  0.0966
18841TIP3    H177938   6.102   1.692  16.154 -0.3294 -1.0327  0.0518
18841TIP3    H277939   6.090   1.565  16.236 -1.8798 -0.7185  0.3380
18842TIP3   OH277940   2.853   2.251  15.747  0.0309 -1.1771  0.1671
18842TIP3    H177941   2.810   2.245  15.662 -1.5017 -0.3089  0.8490
18842TIP3    H277942   2.835   2.166  15.789 -0.3352 -1.1206  0.1293
18843TIP3   OH277943   3.283   1.620   0.256 -0.1526 -0.6835  0.0310
18843TIP3    H177944   3.214   1.623   0.321  0.0491  1.6383  0.2120
18843TIP3    H277945   3.360   1.588   0.304 -0.9766 -3.0390 -0.1200
18844TIP3   OH277946   5.233   4.185  14.745 -0.2776  0.3286  0.2999
18844TIP3    H177947   5.188   4.119  14.798  0.2163  0.9909  1.5673
18844TIP3    H277948   5.209   4.269  14.785 -0.8096  0.9478 -1.2213
18845TIP3   OH277949   5.247   0.450  16.944  0.4978  0.4421  0.4454
18845TIP3    H177950   5.262   0.544  16.930  2.9742 -0.0930 -1.0634
18845TIP3    H277951   5.335   0.413  16.954 -0.4482 -1.6558  1.7360
18846TIP3   OH277952   3.330   4.053  11.405  0.2529 -0.1279  0.2901
18846TIP3    H177953   3.236   4.064  11.421  0.1546 -0.8011  0.1942
18846TIP3    H277954   3.341   4.076  11.313  0.3524  0.9416  0.5608
18847TIP3   OH277955   1.703   3.410   2.262 -0.2340 -0.5739  0.7181
18847TIP3    H177956   1.667   3.403   2.173  2.3628 -0.7789 -0.4129
18847TIP3    H277957   1.634   3.378   2.319 -1.9681 -0.4992 -1.2418
18848TIP3   OH277958   1.813   4.361   0.821 -0.1835  0.2206  0.3117
18848TIP3    H177959   1.775   4.448   0.820  2.0836  1.3426  2.1442
18848TIP3    H277960   1.777   4.319   0.899 -0.7402 -0.2486 -0.1876
18849TIP3   OH277961   0.931   2.022  17.013 -0.1711  0.3620  0.8159
18849TIP3    H177962   0.890   2.098  17.055 -1.8640 -0.2400  0.3583
18849TIP3    H277963   0.937   1.956  17.082 -0.3672  0.3142  0.7882
18850TIP3   OH277964   2.645   4.784   4.976 -0.1372 -0.8537  0.3740
18850TIP3    H177965   2.705   4.815   5.043 -0.5484 -1.0801  0.8541
18850TIP3    H277966   2.695   4.791   4.894  0.1281  0.0604  0.6094
18851TIP3   OH277967   1.027   3.177  15.111 -0.1547 -0.1702 -0.0006
18851TIP3    H177968   1.077   3.255  15.089 -0.3408 -0.3171 -0.9863
18851TIP3    H277969   1.060   3.109  15.052  1.0998 -1.2913  1.8696
18852TIP3   OH277970   3.581   4.501  13.240 -0.1349 -0.0195  0.1750
18852TIP3    H177971   3.619   4.588  13.230 -2.1054  0.8728 -0.1597
18852TIP3    H277972   3.500   4.504  13.189 -1.8501 -0.9996  2.6498
18853TIP3   OH277973   3.190   5.344   4.863  0.2001 -0.8530  0.3603
18853TIP3    H177974   3.100   5.369   4.839 -0.5405  1.3301  4.4154
18853TIP3    H277975   3.242   5.423   4.847  0.3706 -0.5485  2.2269
18854TIP3   OH277976   3.436   3.425   6.355  0.2767 -0.4391 -0.1098
18854TIP3    H177977   3.420   3.346   6.407  1.4579 -0.7772 -0.2357
18854TIP3    H277978   3.350   3.450   6.323 -1.1024  1.3992  4.2354
18855TIP3   OH277979   6.420   3.735   3.151 -0.5645  0.5876  0.0158
18855TIP3    H177980   6.340   3.726   3.098  0.1252 -1.7150 -0.7399
18855TIP3    H277981   6.429   3.651   3.195  1.9655  0.4151 -0.6806
18856TIP3   OH277982   0.499   0.240  12.483 -0.0596 -0.3140  0.4514
18856TIP3    H177983   0.458   0.207  12.563 -0.7256 -1.6361 -0.3907
18856TIP3    H277984   0.426   0.256  12.423  0.5514 -3.3512 -1.3034
18857TIP3   OH277985   2.620   1.112   0.403  0.1545  0.1895  0.3176
18857TIP3    H177986   2.649   1.163   0.479  0.4482  0.1233  0.2508
18857TIP3    H277987   2.692   1.051   0.387  0.3849  0.6501 -0.4319
18858TIP3   OH277988   0.250   0.696  13.088  0.5601  0.2982  0.1448
18858TIP3    H177989   0.170   0.747  13.080  0.6270  0.4797  0.5784
18858TIP3    H277990   0.291   0.701  13.002  1.1754  1.9880  0.4963
18859TIP3   OH277991   6.350   3.673   2.774 -0.4314  0.3162  0.2527
18859TIP3    H177992   6.294   3.717   2.711 -0.2353 -2.7520 -2.3432
18859TIP3    H277993   6.293   3.655   2.849 -1.7896  0.7043 -0.6643
18860TIP3   OH277994   0.509   1.170   2.853 -1.0172 -0.0309 -0.1478
18860TIP3    H177995   0.493   1.153   2.760  0.3397 -2.8679  0.0344
18860TIP3    H277996   0.577   1.107   2.878  0.5269  2.3203  2.2080
18861TIP3   OH277997   2.408   4.560  13.468  0.8626  0.1414  0.3015
18861TIP3    H177998   2.318   4.527  13.475  1.3442 -1.2640  0.2294
18861TIP3    H277999   2.407   4.616  13.390 -0.0204  0.4346  0.5029
18862TIP3   OH278000   6.510   5.971   3.771 -0.4962  0.0215 -0.1734
18862TIP3    H178001   6.563   5.955   3.692 -0.0293 -0.6181  0.2557
18862TIP3    H278002   6.424   5.935   3.750  0.0150 -1.4305  0.0900
18863TIP3   OH278003   5.914   5.024   2.225  0.0468 -0.3981 -0.4434
18863TIP3    H178004   5.942   5.016   2.134 -0.0770 -2.0396 -0.3814
18863TIP3    H278005   5.877   5.112   2.232 -0.3166 -0.3882 -2.0924
18864TIP3   OH278006   1.098   2.604  15.046  0.2642  0.4177 -0.3258
18864TIP3    H178007   1.087   2.617  15.140  2.4642  0.6682 -0.0511
18864TIP3    H278008   1.031   2.660  15.006 -1.9731 -1.1211  1.0482
18865TIP3   OH278009   2.887   5.836   2.191 -0.1092 -0.1579 -0.0498
18865TIP3    H178010   2.932   5.798   2.115 -0.0954 -1.9916  0.8140
18865TIP3    H278011   2.935   5.917   2.209  0.3658 -0.0880 -1.5228
18866TIP3   OH278012   2.459   4.205   3.386  0.0624 -0.0666  0.2346
18866TIP3    H178013   2.389   4.257   3.425  0.6343  0.5129  0.5201
18866TIP3    H278014   2.463   4.234   3.295 -2.1918 -2.3942 -0.7246
18867TIP3   OH278015   0.618   0.178  14.983  0.3881 -0.2857 -0.5087
18867TIP3    H178016   0.640   0.085  14.979 -0.7130 -0.5303 -2.9843
18867TIP3    H278017   0.595   0.201  14.893 -0.8295  2.0282  0.3036
18868TIP3   OH278018   1.365   3.473  10.720  0.1015 -0.1643 -0.2417
18868TIP3    H178019   1.393   3.383  10.708  2.1318  0.5522 -1.3610
18868TIP3    H278020   1.313   3.492  10.642 -0.6093 -0.4508  0.1558
18869TIP3   OH278021   2.074   1.050  13.301 -0.3926 -0.2765  0.1672
18869TIP3    H178022   2.026   1.132  13.301 -0.5068 -0.3429  0.6974
18869TIP3    H278023   2.155   1.070  13.254 -0.1096  0.3199  0.8925
18870TIP3   OH278024   1.357   1.151   3.064  0.2624 -0.4220 -0.5664
18870TIP3    H178025   1.347   1.109   2.979  1.4819 -0.4895 -0.6974
18870TIP3    H278026   1.344   1.244   3.047  2.8544 -0.1260 -1.3323
18871TIP3   OH278027   6.384   2.701   5.039 -0.0157  0.0463  0.2317
18871TIP3    H178028   6.445   2.661   4.978  1.0675  1.2108  0.5122
18871TIP3    H278029   6.345   2.774   4.990 -0.5204 -0.1511  0.3370
18872TIP3   OH278030   3.794   6.138  11.364 -0.0366 -0.3825 -0.3960
18872TIP3    H178031   3.725   6.200  11.387 -0.5356 -0.9279 -0.4254
18872TIP3    H278032   3.754   6.081  11.298 -0.0297 -1.6186  0.6334
18873TIP3   OH278033   5.299   6.425   5.592  0.2598  0.7928  0.5375
18873TIP3    H178034   5.335   6.499   5.542  1.0338  0.7268  0.9907
18873TIP3    H278035   5.296   6.353   5.529 -0.1023  1.0858  0.2097
18874TIP3   OH278036   0.401   3.609  16.757 -0.4889 -0.1697  0.7819
18874TIP3    H178037   0.380   3.531  16.809 -1.8013 -0.5263 -0.2170
18874TIP3    H278038   0.480   3.584  16.708  0.2047 -0.1633  1.8657
18875TIP3   OH278039   0.386   0.606  16.226  0.6074  0.3595  0.2745
18875TIP3    H178040   0.343   0.688  16.202  1.4777  0.6441 -0.3838
18875TIP3    H278041   0.414   0.619  16.317  0.4136  0.6422  0.2944
18876TIP3   OH278042   2.656   1.791   5.020  0.1757 -0.4611 -0.0028
18876TIP3    H178043   2.723   1.748   5.073  2.0338  2.1761  0.0201
18876TIP3    H278044   2.645   1.877   5.061  0.7477  1.2076 -3.0412
18877TIP3   OH278045   3.924   5.949  14.954 -0.2364  0.0849  0.1186
18877TIP3    H178046   3.863   5.985  15.019  1.1004 -0.0868  1.5372
18877TIP3    H278047   3.892   5.860  14.938 -0.0890 -0.1930  1.2511
18878TIP3   OH278048   2.541   1.057   0.690 -0.5382 -0.0929 -0.0423
18878TIP3    H178049   2.505   0.977   0.652 -1.0287  0.2249 -0.2616
18878TIP3    H278050   2.491   1.071   0.770  0.0483 -0.4033  0.3836
18879TIP3   OH278051   6.421   3.658  15.582 -0.0590 -0.1045  0.1808
18879TIP3    H178052   6.336   3.639  15.622 -0.1218  0.7809  0.4955
18879TIP3    H278053   6.415   3.750  15.554  0.8907  0.0764  0.5029
18880TIP3   OH278054   4.102   6.676  16.932 -0.0963  0.8448 -0.4571
18880TIP3    H178055   4.027   6.669  16.991  0.2173  2.3617  0.1623
18880TIP3    H278056   4.063   6.695  16.847 -0.5831 -1.8227 -0.9161
18881TIP3   OH278057   6.696   0.188  15.538  0.0534 -0.3497  0.5298
18881TIP3    H178058   6.770   0.171  15.596  2.8559 -2.2250 -3.1768
18881TIP3    H278059   6.641   0.110  15.546 -1.0362  0.5350  2.4109
18882TIP3   OH278060   0.946   6.564   6.223 -0.1719  0.0093 -0.3892
18882TIP3    H178061   0.907   6.626   6.284  0.6085  0.9290 -0.7991
18882TIP3    H278062   0.994   6.503   6.279  1.4489  1.4860 -0.0869
18883TIP3   OH278063   6.520   1.596   4.138  0.0695  0.3372  0.5311
18883TIP3    H178064   6.433   1.618   4.170 -0.3544  0.9666 -0.9367
18883TIP3    H278065   6.512   1.599   4.043  1.3400 -1.0637  0.3347
18884TIP3   OH278066   4.992   4.536  13.124  0.3431 -0.1231 -0.3816
18884TIP3    H178067   4.977   4.624  13.159  1.2055  0.3015 -1.0508
18884TIP3    H278068   4.908   4.491  13.134 -0.1547  0.8343 -0.2020
18885TIP3   OH278069   6.472   1.109  16.787  0.3392  0.3280 -0.5864
18885TIP3    H178070   6.464   1.055  16.866  1.2979 -0.0584 -0.7361
18885TIP3    H278071   6.411   1.180  16.800 -0.0789 -0.1589  0.1604
18886TIP3   OH278072   5.670   5.745   2.908  0.0601 -0.2394 -0.9817
18886TIP3    H178073   5.760   5.712   2.917  0.1697  0.2667 -0.0061
18886TIP3    H278074   5.627   5.683   2.850 -0.4245 -3.5428  2.5374
18887TIP3   OH278075   2.892   2.114   5.441  0.0040 -0.0496  0.0727
18887TIP3    H178076   2.838   2.186   5.473 -0.0317 -0.6448  1.4178
18887TIP3    H278077   2.849   2.085   5.361 -1.3726 -0.1436  0.8167
18888TIP3   OH278078   4.876   1.499   3.822 -0.0213  0.2220  0.0916
18888TIP3    H178079   4.949   1.518   3.762 -0.3059  1.1671  0.0285
18888TIP3    H278080   4.911   1.515   3.909 -0.4446  1.8015  0.0104
18889TIP3   OH278081   0.737   0.441  14.795  0.0063 -0.1375  0.8334
18889TIP3    H178082   0.711   0.360  14.753  0.6065 -0.0655  0.3014
18889TIP3    H278083   0.719   0.509  14.731  1.4605 -0.0904  0.4392
18890TIP3   OH278084   3.366   1.579   4.516 -0.4360 -0.2119 -0.3772
18890TIP3    H178085   3.449   1.599   4.559 -1.4076  1.6286  0.7696
18890TIP3    H278086   3.374   1.617   4.429 -0.1487  0.1389 -0.2009
18891TIP3   OH278087   3.493   1.260  11.743 -0.0205  0.1763 -0.1178
18891TIP3    H178088   3.464   1.210  11.666 -0.2154 -0.8247  0.5777
18891TIP3    H278089   3.481   1.199  11.816 -0.1816  1.2316  0.7580
18892TIP3   OH278090   1.483   5.640   5.001  0.7619  0.0973 -0.4227
18892TIP3    H178091   1.513   5.666   4.914 -0.4651  1.3478 -0.5160
18892TIP3    H278092   1.494   5.545   5.003  4.0795  0.3639 -0.6093
18893TIP3   OH278093   1.051   0.045  15.266 -0.7529 -0.6981 -0.2421
18893TIP3    H178094   0.963   0.074  15.241 -0.4269  1.0551  0.4842
18893TIP3    H278095   1.086   0.003  15.188 -1.1351  1.2945 -1.5547
18894TIP3   OH278096   2.712   1.215  13.827 -0.1404 -0.3182  0.0218
18894TIP3    H178097   2.703   1.157  13.902 -1.1606 -0.4048 -0.1525
18894TIP3    H278098   2.707   1.303  13.864 -2.1111 -0.3513 -0.0694
18895TIP3   OH278099   5.739   1.998  12.008  0.2552  0.2373 -0.2364
18895TIP3    H178100   5.803   2.032  12.070  1.9935 -0.2896 -1.6726
18895TIP3    H278101   5.712   2.074  11.957 -2.1341  0.9382  1.8238
18896TIP3   OH278102   4.132   0.177  13.979 -0.3864  0.5368 -0.5182
18896TIP3    H178103   4.185   0.143  13.907  0.3173 -0.2923  0.3822
18896TIP3    H278104   4.049   0.129  13.972  0.4403 -1.1296  0.4810
18897TIP3   OH278105   6.788   4.381  16.367  0.1374 -0.2027  0.5175
18897TIP3    H178106   6.813   4.298  16.409  0.9005 -0.1855  0.1081
18897TIP3    H278107   6.864   4.405  16.314 -0.0501  0.8006  0.6868
18898TIP3   OH278108   5.118   0.693  15.863 -0.0980  0.4378  0.9595
18898TIP3    H178109   5.027   0.663  15.862  0.6700 -2.2826 -0.8075
18898TIP3    H278110   5.121   0.759  15.932 -3.2278  0.0773  1.6047
18899TIP3   OH278111   6.431   3.260   3.340 -0.5205 -0.3764  0.2485
18899TIP3    H178112   6.415   3.169   3.363 -0.6604 -0.1804  0.9538
18899TIP3    H278113   6.392   3.270   3.253  1.4411 -1.5594 -0.8426
18900TIP3   OH278114   3.097   3.035   4.405 -0.1887 -0.0073 -0.4699
18900TIP3    H178115   3.119   3.123   4.377  0.1660 -0.1774 -0.7238
18900TIP3    H278116   3.070   3.045   4.497 -1.1120  0.5055 -0.7904
18901TIP3   OH278117   4.230   5.197  12.652 -0.5645 -0.1801  0.0863
18901TIP3    H178118   4.268   5.278  12.687 -1.5528  0.2681  0.1416
18901TIP3    H278119   4.140   5.220  12.631 -0.3396 -0.7691 -1.6518
18902TIP3   OH278120   3.312   2.208   3.248 -0.0342 -0.8308 -0.1989
18902TIP3    H178121   3.315   2.186   3.155 -2.3494 -0.5246 -0.4087
18902TIP3    H278122   3.252   2.144   3.286 -1.0055  0.4982  0.6057
18903TIP3   OH278123   6.492   2.779   3.406 -0.2981  0.4589  0.2661
18903TIP3    H178124   6.536   2.741   3.330  1.5813  1.3569  0.8385
18903TIP3    H278125   6.413   2.726   3.416  0.9114 -1.6389 -0.4781
18904TIP3   OH278126   5.994   5.390  14.735 -0.3405 -0.4321  0.0634
18904TIP3    H178127   5.904   5.418  14.751 -0.5878 -2.2040  2.3717
18904TIP3    H278128   5.988   5.295  14.725  1.4352 -0.9400  2.7109
18905TIP3   OH278129   2.921   3.374  14.295 -0.8291  0.4598 -0.0938
18905TIP3    H178130   2.845   3.320  14.318  0.0076 -0.5311  0.4013
18905TIP3    H278131   2.940   3.422  14.376 -1.2916  1.1753 -0.3992
18906TIP3   OH278132   0.723   4.984  12.407 -0.6836 -0.2073  0.0865
18906TIP3    H178133   0.780   4.956  12.335 -0.0913 -1.1488  0.8998
18906TIP3    H278134   0.647   4.926  12.402  0.1024 -1.3792  1.1838
18907TIP3   OH278135   1.108   2.385   2.601  0.5441 -0.1493  0.0192
18907TIP3    H178136   1.043   2.319   2.580  0.9284 -1.9447  3.5966
18907TIP3    H278137   1.064   2.469   2.587 -1.2313 -1.2258 -1.1262
18908TIP3   OH278138   1.396   2.362   0.323  0.1733 -0.0976 -0.1705
18908TIP3    H178139   1.418   2.454   0.337  0.1727  0.0570 -1.1026
18908TIP3    H278140   1.301   2.362   0.313  0.3485  0.1111 -2.1926
18909TIP3   OH278141   4.543   4.257   2.249 -0.8011 -0.2525 -0.0396
18909TIP3    H178142   4.518   4.185   2.191  1.0585 -1.5569  0.6755
18909TIP3    H278143   4.463   4.279   2.296 -1.3760 -2.0479 -0.1176
18910TIP3   OH278144   6.259   5.906   4.681 -0.1989 -0.3275 -0.6361
18910TIP3    H178145   6.333   5.856   4.645 -0.4802 -1.7054  0.6020
18910TIP3    H278146   6.190   5.841   4.693 -1.5088  0.8763 -1.4107
18911TIP3   OH278147   1.412   4.306  15.407 -0.2075 -0.5259 -0.3199
18911TIP3    H178148   1.463   4.225  15.408 -0.8679 -1.0234  2.6891
18911TIP3    H278149   1.323   4.277  15.384 -0.2058 -0.4881 -0.3740
18912TIP3   OH278150   3.475   3.696  16.359 -0.6073  0.0612  1.1128
18912TIP3    H178151   3.512   3.782  16.340 -1.6909  0.5949  1.3339
18912TIP3    H278152   3.419   3.677  16.284 -1.7541  0.3687  1.8540
18913TIP3   OH278153   3.069   3.357  13.496  0.0426  0.1223  0.1337
18913TIP3    H178154   2.975   3.338  13.504  0.2246 -0.8530  0.1744
18913TIP3    H278155   3.105   3.281  13.449  0.8903  0.2238  0.5900
18914TIP3   OH278156   3.742   4.551   4.201 -0.5208  0.5165 -0.3479
18914TIP3    H178157   3.772   4.462   4.182 -0.7722 -0.1401  2.0209
18914TIP3    H278158   3.769   4.602   4.125  1.0338 -1.2705 -1.0714
18915TIP3   OH278159   2.327   0.836  15.444  0.2057 -0.1005  0.0185
18915TIP3    H178160   2.385   0.870  15.376 -0.9599 -0.7458 -1.3631
18915TIP3    H278161   2.284   0.761  15.403  0.4781 -1.4021  1.9507
18916TIP3   OH278162   4.744   4.532   0.843 -0.4925  0.0717  0.3004
18916TIP3    H178163   4.819   4.584   0.871 -0.2814  0.0455 -0.2087
18916TIP3    H278164   4.684   4.534   0.918 -0.2943  0.6790  0.4475
18917TIP3   OH278165   3.499   0.483   5.302  0.6632 -0.4488  0.8915
18917TIP3    H178166   3.492   0.498   5.397  0.4999 -1.3218  1.0270
18917TIP3    H278167   3.557   0.408   5.294 -0.7256 -1.5125  0.4055
18918TIP3   OH278168   4.145   4.827   4.334 -0.2066  0.4303  0.0246
18918TIP3    H178169   4.163   4.919   4.350 -1.2761  0.8081 -0.8027
18918TIP3    H278170   4.196   4.806   4.255 -0.8338  0.6190 -0.4331
18919TIP3   OH278171   2.973   2.613  16.017  0.0661  0.5707 -0.2275
18919TIP3    H178172   3.053   2.660  15.993  0.0554  0.7976  0.1862
18919TIP3    H278173   2.974   2.535  15.961  0.5549  0.5954 -0.2578
18920TIP3   OH278174   2.113   2.358   3.719  0.0685  0.2784  0.1704
18920TIP3    H178175   2.114   2.262   3.714 -1.6083  0.2210  0.2733
18920TIP3    H278176   2.193   2.381   3.766  0.3338 -1.0914  0.4271
18921TIP3   OH278177   4.685   5.244   0.471  0.0390  0.4436  0.5558
18921TIP3    H178178   4.724   5.157   0.480 -0.1878  0.1252 -1.1760
18921TIP3    H278179   4.712   5.274   0.385 -3.0275  0.4284 -0.5546
18922TIP3   OH278180   1.956   1.826   4.923 -0.0337 -0.1049  0.2309
18922TIP3    H178181   1.896   1.764   4.883  1.4768  0.5392 -3.3521
18922TIP3    H278182   2.039   1.779   4.929  1.0602  1.3288 -2.2680
18923TIP3   OH278183   2.303   5.723   2.616 -0.6968  0.3781 -0.0607
18923TIP3    H178184   2.375   5.671   2.653 -0.5551  1.2737  0.9535
18923TIP3    H278185   2.232   5.660   2.605 -0.4517 -0.0859  0.9326
18924TIP3   OH278186   1.240   3.160   1.949  0.2761 -0.4993  0.2882
18924TIP3    H178187   1.301   3.227   1.919 -1.3442  1.2225  0.6075
18924TIP3    H278188   1.154   3.192   1.921 -0.5297 -2.6567  0.1383
18925TIP3   OH278189   5.283   5.845   1.164 -0.0756  0.7370 -0.0734
18925TIP3    H178190   5.311   5.794   1.088  0.2330  2.2626 -1.0186
18925TIP3    H278191   5.195   5.876   1.142 -0.2653  0.6339  0.4989
18926TIP3   OH278192   2.529   1.529  12.408  0.2146 -0.2825 -0.2154
18926TIP3    H178193   2.498   1.532  12.317  0.4925  0.4635 -0.2893
18926TIP3    H278194   2.610   1.478  12.404 -1.1811 -2.6878  0.0527
18927TIP3   OH278195   1.372   1.667   2.004 -0.3301  0.1902 -0.2214
18927TIP3    H178196   1.429   1.743   2.009 -0.2052  0.1056 -0.3631
18927TIP3    H278197   1.325   1.667   2.088  0.1428  0.0491  0.0439
18928TIP3   OH278198   3.594   3.967  10.741 -0.2945 -0.2726 -0.2214
18928TIP3    H178199   3.563   3.993  10.654 -0.5627 -0.4814 -0.1919
18928TIP3    H278200   3.570   4.040  10.798 -3.1849 -1.4723  0.3162
18929TIP3   OH278201   0.827   5.196  14.059 -0.0972  0.2840  0.1534
18929TIP3    H178202   0.804   5.113  14.101 -0.7506  0.2855 -0.1842
18929TIP3    H278203   0.867   5.248  14.128 -2.1320  0.7064  1.1077
18930TIP3   OH278204   3.181   4.841  13.681 -0.1178  0.0250 -0.2141
18930TIP3    H178205   3.091   4.844  13.712  0.3236 -2.3983  1.6546
18930TIP3    H278206   3.186   4.761  13.629  1.1808 -0.4943  0.6463
18931TIP3   OH278207   5.820   0.183  10.414  0.4701 -0.6017 -0.0533
18931TIP3    H178208   5.734   0.145  10.398 -0.5467  1.9718 -1.3958
18931TIP3    H278209   5.870   0.167  10.334 -0.1414  1.1516 -0.8425
18932TIP3   OH278210   3.552   0.329   0.972 -0.3644 -0.3453 -0.1490
18932TIP3    H178211   3.646   0.333   0.991 -0.0415  0.1302 -1.7103
18932TIP3    H278212   3.533   0.235   0.968  0.1512 -0.4478 -0.2790
18933TIP3   OH278213   3.132   1.394  11.232 -0.0597 -0.0870  0.2072
18933TIP3    H178214   3.216   1.426  11.201 -0.7321  0.9750 -0.6015
18933TIP3    H278215   3.114   1.318  11.176 -0.0248  0.1983 -0.1974
18934TIP3   OH278216   6.507   4.834  15.815 -0.4779  0.2487  0.7453
18934TIP3    H178217   6.418   4.847  15.781 -0.9593  0.1250  1.8962
18934TIP3    H278218   6.507   4.745  15.849  0.3944 -0.0824 -0.0803
18935TIP3   OH278219   2.698   3.205   0.920 -0.0088  0.2368 -0.7487
18935TIP3    H178220   2.656   3.153   0.851  0.5450  1.5525 -2.1544
18935TIP3    H278221   2.792   3.188   0.909  0.1578  1.2974 -1.0523
18936TIP3   OH278222   2.121   2.648   1.682  0.1355 -0.4172  0.1314
18936TIP3    H178223   2.152   2.558   1.673 -0.8033 -0.5992 -1.7207
18936TIP3    H278224   2.097   2.656   1.775  2.7750 -1.1785  0.9767
18937TIP3   OH278225   1.936   1.560  15.816  0.4129 -0.1819 -0.1991
18937TIP3    H178226   1.979   1.546  15.900  0.8403  2.5376  0.1407
18937TIP3    H278227   1.985   1.633  15.777 -1.2473  0.1733 -1.7357
18938TIP3   OH278228   3.748   6.153  10.316  0.1715 -0.1338  0.5775
18938TIP3    H178229   3.839   6.168  10.289 -0.8958  1.5385 -2.5901
18938TIP3    H278230   3.740   6.199  10.400  2.1363 -0.1212  0.8119
18939TIP3   OH278231   0.970   3.045   1.604 -0.3522  0.4524  0.3629
18939TIP3    H178232   1.046   3.080   1.557 -0.3263 -0.2673 -0.1574
18939TIP3    H278233   0.904   3.113   1.598  0.5591  1.5069  1.6763
18940TIP3   OH278234   6.061   4.265   2.560  0.5925  0.2177 -0.1274
18940TIP3    H178235   6.063   4.339   2.499  0.6017 -0.4696 -0.9770
18940TIP3    H278236   6.114   4.294   2.634  0.3186  1.1876 -0.2979
18941TIP3   OH278237   0.698   4.411  15.408  0.7553 -0.5104  0.3664
18941TIP3    H178238   0.669   4.358  15.482 -1.1711  1.7775  1.3610
18941TIP3    H278239   0.627   4.404  15.344  1.0607 -0.1457 -0.0176
18942TIP3   OH278240   0.417   1.325  12.160 -0.0997  0.2367 -0.1039
18942TIP3    H178241   0.506   1.322  12.194 -0.1307 -0.5287 -0.0732
18942TIP3    H278242   0.419   1.394  12.093  0.5104  0.2183 -0.1060
18943TIP3   OH278243   0.887   3.744   4.646 -0.4237 -0.4141  0.1317
18943TIP3    H178244   0.889   3.726   4.740 -2.3770 -0.6106  0.1751
18943TIP3    H278245   0.898   3.659   4.605  1.3846 -0.2164  0.1267
18944TIP3   OH278246   0.594   1.990  13.430 -0.5926 -0.8980 -0.2981
18944TIP3    H178247   0.543   2.040  13.494 -0.6726 -0.2700 -0.8351
18944TIP3    H278248   0.559   2.018  13.345  1.1007  0.1005 -0.7143
18945TIP3   OH278249   3.769   1.199  11.316  0.7851 -1.0844  0.7078
18945TIP3    H178250   3.793   1.107  11.324 -1.6440 -1.6290  3.3117
18945TIP3    H278251   3.848   1.247  11.342  1.8347 -2.4110  0.0860
18946TIP3   OH278252   1.133   1.602   0.187 -0.2186 -0.5970  0.3950
18946TIP3    H178253   1.226   1.594   0.208 -0.2408  0.4347  0.9575
18946TIP3    H278254   1.091   1.531   0.235  0.3114 -1.3515 -0.2204
18947TIP3   OH278255   4.927   1.195  16.447 -0.4351  0.0563  0.0685
18947TIP3    H178256   4.869   1.223  16.519 -1.4635 -1.0406 -0.2987
18947TIP3    H278257   4.999   1.258  16.449 -1.6042  1.4574  0.5844
18948TIP3   OH278258   2.731   0.457   3.183 -0.3462  0.0375 -0.0934
18948TIP3    H178259   2.821   0.481   3.202  0.3219 -2.3029  0.0961
18948TIP3    H278260   2.707   0.510   3.107  0.9926  1.0967  0.1960
18949TIP3   OH278261   3.302   1.732  14.003  0.3209 -0.6013  0.0587
18949TIP3    H178262   3.345   1.765  13.924  1.5759  1.5000  1.5071
18949TIP3    H278263   3.208   1.743  13.986  0.5794  0.0311 -1.0509
18950TIP3   OH278264   4.946   0.823  12.827 -0.1066 -0.0510 -0.4018
18950TIP3    H178265   4.944   0.916  12.801  2.8039 -0.1365 -1.3607
18950TIP3    H278266   4.970   0.777  12.747  1.5056 -1.2472  0.7127
18951TIP3   OH278267   5.815   1.393   1.088 -0.1007  0.2164 -0.4246
18951TIP3    H178268   5.799   1.325   1.022 -1.6335 -0.6553  0.7980
18951TIP3    H278269   5.744   1.455   1.076 -0.5155 -0.0582  0.5109
18952TIP3   OH278270   3.343   5.215  11.813  0.4143  0.3750 -0.4414
18952TIP3    H178271   3.376   5.146  11.755  0.3265  0.3292 -0.4361
18952TIP3    H278272   3.302   5.169  11.886  0.0898  0.4304 -0.5873
18953TIP3   OH278273   1.231   6.354  15.321  0.5971  0.2421  0.0088
18953TIP3    H178274   1.261   6.266  15.341 -2.2191 -0.5229  1.3933
18953TIP3    H278275   1.185   6.345  15.237  1.3448  0.7128 -0.4715
18954TIP3   OH278276   0.799   3.106   3.916  0.0506  0.8135 -0.1372
18954TIP3    H178277   0.785   3.069   3.828  0.8521 -0.5671  0.2826
18954TIP3    H278278   0.743   3.184   3.918  0.2723  1.0661 -1.9861
18955TIP3   OH278279   5.319   0.561  13.810 -0.2422 -0.2031  0.1400
18955TIP3    H178280   5.253   0.630  13.825 -0.4737  0.1821 -2.2242
18955TIP3    H278281   5.337   0.526  13.897  0.6010  3.4871  1.6441
18956TIP3   OH278282   3.506   2.542   0.769 -0.3948 -0.8484  1.0113
18956TIP3    H178283   3.528   2.630   0.737 -2.0225 -0.9354 -0.4809
18956TIP3    H278284   3.565   2.528   0.843  1.8532  0.3782 -0.4309
18957TIP3   OH278285   0.310   4.986   4.225 -0.3580  0.0324  0.2854
18957TIP3    H178286   0.322   5.010   4.133  0.3142 -1.5424 -0.0834
18957TIP3    H278287   0.226   4.939   4.226 -0.9054  1.0108  0.6929
18958TIP3   OH278288   3.156   1.526   5.080 -0.9343 -0.1221 -0.1209
18958TIP3    H178289   3.247   1.503   5.062 -1.2823 -2.6043  0.9805
18958TIP3    H278290   3.161   1.589   5.152 -0.0968  0.5980 -0.7753
18959TIP3   OH278291   3.707   4.770  15.461 -0.2141  0.1557 -0.7185
18959TIP3    H178292   3.786   4.753  15.410  0.5669 -0.5060  0.6887
18959TIP3    H278293   3.644   4.705  15.428  0.9651 -1.7597  0.6137
18960TIP3   OH278294   2.805   2.085   5.152 -0.0041  0.6662 -0.3064
18960TIP3    H178295   2.886   2.052   5.112  0.3008  0.6228  0.3357
18960TIP3    H278296   2.794   2.173   5.116  0.6455  0.8964  0.0417
18961TIP3   OH278297   6.013   6.479  16.852 -0.1750 -0.6647  0.4251
18961TIP3    H178298   6.036   6.531  16.775 -0.5319  0.7732  1.2647
18961TIP3    H278299   6.096   6.449  16.887  0.2669  1.6222  1.4710
18962TIP3   OH278300   1.111   2.497   5.642  0.7157 -0.1438 -0.3718
18962TIP3    H178301   1.020   2.485   5.616  0.6941  0.9701 -0.8363
18962TIP3    H278302   1.108   2.506   5.738  0.1283  1.5483 -0.5158
18963TIP3   OH278303   1.977   4.900  13.368  0.6075 -0.1250 -0.1922
18963TIP3    H178304   1.970   4.974  13.428 -0.2433  0.0235 -0.4625
18963TIP3    H278305   1.914   4.836  13.400  0.8037 -0.4276 -0.4005
18964TIP3   OH278306   1.153   2.012   1.801 -0.2332 -0.3698  0.4728
18964TIP3    H178307   1.094   1.987   1.730 -0.5223  4.1939 -1.2973
18964TIP3    H278308   1.098   2.013   1.880 -1.6384  0.3137 -0.4637
18965TIP3   OH278309   4.933   3.675   5.095 -0.5577  0.0199  0.0196
18965TIP3    H178310   4.916   3.620   5.171 -1.1911  0.1192 -0.0486
18965TIP3    H278311   4.993   3.623   5.041 -1.4183 -0.7493 -0.2083
18966TIP3   OH278312   1.160   5.315  16.858 -0.2026 -0.2853  0.1866
18966TIP3    H178313   1.117   5.382  16.806 -1.5991 -1.6249 -0.4750
18966TIP3    H278314   1.175   5.356  16.943  2.0866  1.9281 -1.1710
18967TIP3   OH278315   0.089   0.911  16.642 -0.8134  0.0873 -0.4309
18967TIP3    H178316   0.173   0.912  16.687 -0.9517 -0.9512 -0.1101
18967TIP3    H278317   0.099   0.974  16.571  0.4323 -0.4088 -0.7214
18968TIP3   OH278318   4.145   0.114   5.007 -0.4749 -0.4258  0.4474
18968TIP3    H178319   4.230   0.102   4.964 -0.4619 -0.9736  0.6154
18968TIP3    H278320   4.142   0.045   5.073 -0.6149  0.2360  1.1380
18969TIP3   OH278321   2.874   5.390  13.403  0.0108 -0.5479  0.5455
18969TIP3    H178322   2.873   5.415  13.311  1.9983  2.4996  1.1883
18969TIP3    H278323   2.948   5.329  13.411  0.1838 -0.3832  0.2097
18970TIP3   OH278324   2.408   5.950   0.015  0.0659  0.1256 -0.2194
18970TIP3    H178325   2.394   5.943  -0.079  1.7971 -0.7613 -0.4582
18970TIP3    H278326   2.478   6.015   0.024  0.1785 -0.0821  0.4320
18971TIP3   OH278327   4.072   5.683   3.570  0.5830 -0.2468 -0.1672
18971TIP3    H178328   4.145   5.729   3.529 -1.0179  1.3136 -1.4033
18971TIP3    H278329   4.016   5.656   3.496 -0.5649 -0.5616  0.7879
18972TIP3   OH278330   5.886   5.831   0.491 -0.4221 -0.7842 -0.0450
18972TIP3    H178331   5.811   5.836   0.549  0.6930 -0.5822  1.4202
18972TIP3    H278332   5.908   5.738   0.488  0.1028 -0.6861  0.6345
18973TIP3   OH278333   4.153   4.268   3.147  0.0987 -0.0727 -0.0632
18973TIP3    H178334   4.191   4.283   3.060  0.3774 -0.0785  0.0588
18973TIP3    H278335   4.191   4.186   3.176 -0.4456 -0.3733 -0.1834
18974TIP3   OH278336   3.764   0.127   3.563 -0.1070 -0.2924  0.1866
18974TIP3    H178337   3.789   0.180   3.639 -4.8266  1.4352  0.8661
18974TIP3    H278338   3.745   0.041   3.600 -0.2419 -0.1052  0.5613
18975TIP3   OH278339   5.819   1.299  13.421  0.0035  0.1584 -0.5614
18975TIP3    H178340   5.908   1.329  13.403 -0.0692 -0.0952 -1.3733
18975TIP3    H278341   5.765   1.340  13.353 -0.2872 -0.7859 -0.9102
18976TIP3   OH278342   3.053   4.650   2.739  0.1571 -0.3850  0.3330
18976TIP3    H178343   3.111   4.713   2.697  0.3517 -1.4951 -1.1856
18976TIP3    H278344   3.057   4.670   2.832  0.6445  1.4512 -0.0584
18977TIP3   OH278345   6.549   1.270   3.235 -0.7800 -0.2180 -0.0910
18977TIP3    H178346   6.514   1.359   3.247 -1.6736 -0.4950 -0.5201
18977TIP3    H278347   6.564   1.239   3.324  1.6362  1.1295  0.0512
18978TIP3   OH278348   4.669   4.725   0.190 -0.5320  0.6015 -0.3823
18978TIP3    H178349   4.737   4.684   0.243 -0.5717  1.8135  0.6554
18978TIP3    H278350   4.609   4.654   0.169  1.1630 -0.5766 -1.5927
18979TIP3   OH278351   6.223   2.848   3.256 -0.1308  0.4146  0.3547
18979TIP3    H178352   6.206   2.756   3.276 -0.6011  0.2396 -0.7614
18979TIP3    H278353   6.161   2.897   3.309  0.2618  0.1084  1.1079
18980TIP3   OH278354   1.699   1.003  14.778 -0.5822  0.2150 -0.1684
18980TIP3    H178355   1.742   0.951  14.846  2.3220  1.8053 -0.6389
18980TIP3    H278356   1.607   0.974  14.781  0.3621 -3.2192  1.1097
18981TIP3   OH278357   6.603   0.028   5.868  0.1681 -0.3501  0.2678
18981TIP3    H178358   6.530   0.021   5.807  1.2103  0.6594 -1.1827
18981TIP3    H278359   6.676   0.060   5.814  1.6115 -1.0631  1.7062
18982TIP3   OH278360   1.318   2.487  10.138  0.0207  0.1567 -0.0681
18982TIP3    H178361   1.288   2.504  10.227 -0.6118 -1.6999  0.1044
18982TIP3    H278362   1.284   2.561  10.087 -0.6978  0.5757  0.9923
18983TIP3   OH278363   0.242   4.103  13.195  0.1054  0.2638 -0.1196
18983TIP3    H178364   0.329   4.137  13.174 -0.3750  0.9054 -1.1070
18983TIP3    H278365   0.184   4.143  13.131 -0.7613 -1.0121 -0.1743
18984TIP3   OH278366   1.872   5.223  13.863  0.3566 -0.0530  0.0165
18984TIP3    H178367   1.917   5.296  13.821  0.3383 -0.3356 -0.5036
18984TIP3    H278368   1.784   5.225  13.828 -0.1468  0.6711  1.2504
18985TIP3   OH278369   5.762   1.692  15.048 -0.2388 -1.1585 -0.1673
18985TIP3    H178370   5.775   1.784  15.072  2.3473 -1.7168  0.8939
18985TIP3    H278371   5.751   1.694  14.952 -0.0374  0.2134 -0.1863
18986TIP3   OH278372   2.721   6.595  10.901  0.3194 -0.0935 -0.6629
18986TIP3    H178373   2.803   6.552  10.877  0.3928 -0.5237  0.3351
18986TIP3    H278374   2.742   6.689  10.900  0.1634 -0.0308 -2.8202
18987TIP3   OH278375   4.208   0.488   4.384  0.2955  0.0617  0.0680
18987TIP3    H178376   4.142   0.419   4.386 -0.4374  0.7523  0.4527
18987TIP3    H278377   4.180   0.546   4.313 -0.3180  1.1084  1.1242
18988TIP3   OH278378   3.060   1.433   3.823 -0.7280 -0.3710 -0.2043
18988TIP3    H178379   3.069   1.477   3.738 -0.9718 -1.5787 -0.8792
18988TIP3    H278380   3.127   1.364   3.821  1.3575  1.4155  1.8354
18989TIP3   OH278381   0.949   4.125  16.048 -0.5932 -0.2301  0.3443
18989TIP3    H178382   0.899   4.193  16.002 -0.4386  0.0927  0.6461
18989TIP3    H278383   0.964   4.058  15.982 -0.7036  0.0543  0.0236
18990TIP3   OH278384   3.567   1.841  16.182 -0.1993 -0.5134  0.1881
18990TIP3    H178385   3.640   1.847  16.120  0.3935  3.3738  1.0123
18990TIP3    H278386   3.494   1.806  16.130  1.2649 -0.9817 -1.6602
18991TIP3   OH278387   5.173   2.868  13.131  0.1303 -0.3108  0.4354
18991TIP3    H178388   5.130   2.927  13.069  0.2377  0.6202  1.2107
18991TIP3    H278389   5.113   2.794  13.138  0.0030 -0.3212 -0.5827
18992TIP3   OH278390   5.199   3.745  13.599  0.4252 -0.2726 -0.0031
18992TIP3    H178391   5.256   3.794  13.540  0.3950 -0.2943 -0.0514
18992TIP3    H278392   5.114   3.743  13.553  0.4584 -0.4724 -0.0573
18993TIP3   OH278393   2.286   2.539   0.894 -0.9203 -0.0882 -0.1538
18993TIP3    H178394   2.330   2.458   0.921 -2.0455 -0.1369  1.7302
18993TIP3    H278395   2.322   2.559   0.808  2.1469 -0.5919  0.8851
18994TIP3   OH278396   0.696   5.973   3.370  0.6128 -0.4943 -0.7843
18994TIP3    H178397   0.723   5.995   3.459  1.3511 -1.1823 -0.8257
18994TIP3    H278398   0.736   6.040   3.315  1.4077 -0.9215 -0.7402
18995TIP3   OH278399   3.062   6.128   4.952  0.2936  0.1676 -0.3976
18995TIP3    H178400   3.012   6.103   4.874  1.0857  0.1414 -0.9039
18995TIP3    H278401   3.077   6.222   4.942 -2.0609  0.8056  1.1535
18996TIP3   OH278402   1.423   2.338   4.551 -0.5445  0.7177 -0.3035
18996TIP3    H178403   1.466   2.332   4.636 -0.2906  0.6669 -0.4341
18996TIP3    H278404   1.482   2.293   4.491 -0.8906  0.4446 -0.4465
18997TIP3   OH278405   1.981   2.101  14.131 -0.1873 -0.1427  0.4047
18997TIP3    H178406   1.965   2.145  14.047  0.3360 -0.3770  0.1736
18997TIP3    H278407   2.054   2.041  14.113 -0.8420 -1.0571  0.7319
18998TIP3   OH278408   3.191   4.116  12.081 -0.2038 -0.0637  0.3899
18998TIP3    H178409   3.220   4.091  11.994  0.3874 -2.4224  1.1965
18998TIP3    H278410   3.118   4.058  12.100  0.8796 -0.9440  2.1600
18999TIP3   OH278411   4.178   3.270  10.736  0.0987 -0.5085 -0.3787
18999TIP3    H178412   4.227   3.188  10.731  2.6548  0.7961  1.0366
18999TIP3    H278413   4.208   3.321  10.661 -1.9103 -0.9815 -1.5901
19000TIP3   OH278414   6.612   4.941  11.847 -0.2879 -0.5230 -0.1309
19000TIP3    H178415   6.533   4.983  11.882 -0.2507  1.2795 -1.9937
19000TIP3    H278416   6.684   4.982  11.895 -0.4220 -2.3330  1.7323
19001TIP3   OH278417   2.616   6.493   4.064  0.1686  0.0125  0.3697
19001TIP3    H178418   2.581   6.580   4.047  0.9896  0.1787 -0.5233
19001TIP3    H278419   2.556   6.434   4.018  1.3090  0.3348 -1.6403
19002TIP3   OH278420   5.918   2.740  16.200 -0.4402  0.1155 -0.0431
19002TIP3    H178421   5.996   2.746  16.146 -0.0711  0.4718  0.5130
19002TIP3    H278422   5.891   2.649  16.195  0.4803 -0.1875  0.3981
19003TIP3   OH278423   3.718   6.006   0.394  0.0350 -0.2842  0.4923
19003TIP3    H178424   3.753   5.966   0.315  0.9028  0.3745  0.5375
19003TIP3    H278425   3.733   5.941   0.463  0.7022 -0.2135  0.4149
19004TIP3   OH278426   2.463   0.885   0.302  0.5097 -0.1111  0.4286
19004TIP3    H178427   2.544   0.835   0.296  0.9935  0.6357  0.5408
19004TIP3    H278428   2.478   0.945   0.376  0.0893  0.4362  0.0749
19005TIP3   OH278429   1.713   4.800   2.536 -0.4257 -0.5916  0.2168
19005TIP3    H178430   1.771   4.861   2.489 -1.6890  0.4634 -0.0349
19005TIP3    H278431   1.635   4.852   2.557 -1.1643 -1.8866  0.8149
19006TIP3   OH278432   2.858   4.800  12.824  0.1133 -0.3095  0.2691
19006TIP3    H178433   2.938   4.828  12.869 -0.2362  2.1959 -0.5021
19006TIP3    H278434   2.839   4.871  12.762 -2.0351 -1.4056 -0.4330
19007TIP3   OH278435   4.236   5.853  13.906  0.3006  0.4332  0.3438
19007TIP3    H178436   4.207   5.813  13.824  2.1354 -1.3257  0.4585
19007TIP3    H278437   4.273   5.780  13.957  1.6294  1.8926  1.6034
19008TIP3   OH278438   6.507   1.838  12.763 -0.3567  0.4888  0.3246
19008TIP3    H178439   6.467   1.778  12.826  0.0310  0.0854  0.1916
19008TIP3    H278440   6.601   1.820  12.769 -0.2588  0.9174  0.1128
19009TIP3   OH278441   2.294   5.720   1.206 -0.0124  0.6126 -0.3796
19009TIP3    H178442   2.215   5.734   1.154 -0.2868 -0.5817 -0.3017
19009TIP3    H278443   2.364   5.759   1.153 -0.3983  0.1160 -1.2796
19010TIP3   OH278444   6.735   1.050  13.904  0.1196  0.1037 -0.3562
19010TIP3    H178445   6.752   1.115  13.972 -1.5849  0.0057  0.2192
19010TIP3    H278446   6.818   1.042  13.857  1.1367  0.7401  1.2231
19011TIP3   OH278447   0.137   0.749   1.659  0.1154  0.4380 -0.5488
19011TIP3    H178448   0.103   0.804   1.588 -0.9758 -0.0008 -0.3873
19011TIP3    H278449   0.222   0.788   1.682 -0.7226  2.1914 -0.2857
19012TIP3   OH278450   1.654   1.199   3.708 -0.3952  0.0989  0.1097
19012TIP3    H178451   1.657   1.269   3.642 -1.0747 -1.1148 -1.2839
19012TIP3    H278452   1.696   1.124   3.666  0.8139 -0.2047  1.7759
19013TIP3   OH278453   1.870   0.138   4.681  0.0751 -0.0647  0.3067
19013TIP3    H178454   1.871   0.190   4.761 -0.5895  0.0822  0.2255
19013TIP3    H278455   1.880   0.203   4.611  2.3000 -0.3217  0.3004
19014TIP3   OH278456   3.842   3.688   1.046 -0.4117  0.4476 -0.0888
19014TIP3    H178457   3.765   3.739   1.017 -0.4403  0.1730 -0.5090
19014TIP3    H278458   3.912   3.716   0.987  1.0582  3.9592  2.9052
19015TIP3   OH278459   1.533   1.673  16.132  0.1492 -0.2023  0.2200
19015TIP3    H178460   1.486   1.749  16.098  0.1747 -1.2525 -2.4608
19015TIP3    H278461   1.597   1.652  16.064  0.1236 -2.6304  0.8453
19016TIP3   OH278462   5.698   2.952   0.119 -0.1382  0.4108  0.6353
19016TIP3    H178463   5.679   2.859   0.132 -0.7575  0.4415  0.0175
19016TIP3    H278464   5.775   2.952   0.061 -0.1815  0.2827  0.5760
19017TIP3   OH278465   5.401   5.137  11.961 -0.2525  0.5953  0.3556
19017TIP3    H178466   5.418   5.223  12.001  1.3510  0.3600  0.2429
19017TIP3    H278467   5.476   5.122  11.904  1.5215 -2.5160  3.1945
19018TIP3   OH278468   1.453   0.678   4.827  0.3123  0.1826 -0.5798
19018TIP3    H178469   1.455   0.760   4.779  0.0529  0.2525 -0.4729
19018TIP3    H278470   1.479   0.702   4.916 -3.3736  0.8603  0.4732
19019TIP3   OH278471   4.694   6.316  11.349  0.1393  0.0274  0.5020
19019TIP3    H178472   4.741   6.248  11.300 -0.0495 -0.7887  1.4080
19019TIP3    H278473   4.678   6.385  11.285 -0.3183 -1.1051 -0.6535
19020TIP3   OH278474   4.171   2.499   3.690  0.7970 -0.3232  0.2659
19020TIP3    H178475   4.105   2.430   3.682  1.8499 -1.2888 -0.4501
19020TIP3    H278476   4.227   2.469   3.762  1.8948 -0.8091 -0.7482
19021TIP3   OH278477   2.230   0.030   2.460  0.2524  0.8357 -0.2639
19021TIP3    H178478   2.239   0.064   2.371  0.3880 -0.4411 -0.7733
19021TIP3    H278479   2.319   0.014   2.489  0.1765 -0.3553 -0.5916
19022TIP3   OH278480   6.206   3.221   1.717 -0.4968 -0.3158 -0.7820
19022TIP3    H178481   6.154   3.211   1.638 -1.4151  0.1894 -0.2564
19022TIP3    H278482   6.177   3.304   1.754  0.6345 -0.0580 -0.4323
19023TIP3   OH278483   2.306   3.709   0.308  0.2032  0.7778 -0.1651
19023TIP3    H178484   2.314   3.786   0.365 -1.4379  0.9014 -0.0660
19023TIP3    H278485   2.219   3.716   0.270  1.6211  1.3002 -3.6386
19024TIP3   OH278486   2.773   3.551   1.886 -0.0447 -0.3378  0.3160
19024TIP3    H178487   2.704   3.582   1.827  0.3315  0.0114  0.0594
19024TIP3    H278488   2.741   3.572   1.974 -0.0398  0.2763  0.1697
19025TIP3   OH278489   4.530   5.197  15.273 -0.2333 -0.0974  0.2063
19025TIP3    H178490   4.585   5.250  15.216  0.8472 -0.5906  0.7509
19025TIP3    H278491   4.477   5.260  15.322  1.5905  0.5727  1.4232
19026TIP3   OH278492   1.212   3.978  11.950 -0.4364  0.1382 -0.0408
19026TIP3    H178493   1.308   3.978  11.950 -0.4335  0.4930  0.0991
19026TIP3    H278494   1.188   3.897  11.905 -0.0773  1.6192 -3.1422
19027TIP3   OH278495   0.474   5.825   4.241  0.3099 -0.1308  0.1054
19027TIP3    H178496   0.476   5.730   4.248  0.2384 -0.2061 -0.7658
19027TIP3    H278497   0.477   5.842   4.147 -2.2673  0.6478  0.0811
19028TIP3   OH278498   6.127   0.411   2.194  0.1962 -0.0313 -0.0377
19028TIP3    H178499   6.112   0.333   2.141  3.9099 -1.1687  0.2968
19028TIP3    H278500   6.178   0.379   2.269 -1.2731  2.2068  2.0757
19029TIP3   OH278501   5.093   0.536  15.630  0.1012 -0.0528 -0.3207
19029TIP3    H178502   5.114   0.603  15.695  1.4599  0.0991 -0.8775
19029TIP3    H278503   5.085   0.455  15.681 -0.9644  0.4145  0.2805
19030TIP3   OH278504   0.558   2.255   5.238  0.4644  0.3428 -0.7305
19030TIP3    H178505   0.572   2.183   5.177  1.4615 -0.4414  0.3915
19030TIP3    H278506   0.490   2.223   5.298 -0.9671  1.3448 -1.7550
19031TIP3   OH278507   5.742   3.127   5.330  0.0147 -0.1091  0.0854
19031TIP3    H178508   5.823   3.089   5.363  0.3581 -0.3848 -1.0194
19031TIP3    H278509   5.675   3.104   5.395  0.1653 -2.7695 -0.5862
19032TIP3   OH278510   5.936   2.266   4.579 -0.4262  0.6440 -0.4001
19032TIP3    H178511   5.945   2.180   4.539  2.2251  0.3792  0.5820
19032TIP3    H278512   5.888   2.250   4.661  3.5865 -0.8122  1.9508
19033TIP3   OH278513   5.101   0.839   0.757  0.2318  0.1015  0.1250
19033TIP3    H178514   5.084   0.771   0.822  1.7504 -0.2924  0.1475
19033TIP3    H278515   5.031   0.903   0.770 -0.9860 -1.2299  0.3978
19034TIP3   OH278516   2.239   2.006  15.742  0.1987 -0.6536 -0.2702
19034TIP3    H178517   2.225   2.068  15.671 -3.4232 -0.8982  0.0721
19034TIP3    H278518   2.233   2.059  15.822  2.4778 -0.6786  0.0035
19035TIP3   OH278519   6.459   2.179   4.577  0.2571 -0.2830  0.1686
19035TIP3    H178520   6.491   2.245   4.515 -0.0297 -1.0649 -0.8349
19035TIP3    H278521   6.434   2.105   4.522  2.3302 -1.9901  1.3828
19036TIP3   OH278522   3.927   3.471   1.689 -0.1614 -0.6325 -0.1595
19036TIP3    H178523   3.856   3.533   1.672 -0.7963 -1.1239  0.6092
19036TIP3    H278524   3.928   3.462   1.784  1.5270  0.0294 -0.0753
19037TIP3   OH278525   0.104   1.364  11.936  0.1803 -0.0225  0.5483
19037TIP3    H178526   0.105   1.368  11.841  1.8873  0.3481  0.5434
19037TIP3    H278527   0.103   1.271  11.957 -0.8544 -0.1025  0.1962
19038TIP3   OH278528   1.146   5.157   2.419 -0.0949  0.3569 -0.4269
19038TIP3    H178529   1.161   5.062   2.414 -1.1383  0.1047  0.7699
19038TIP3    H278530   1.174   5.180   2.507  0.7568  1.2973 -0.9308
19039TIP3   OH278531   0.785   2.264   0.027 -0.3843  0.4943 -0.6729
19039TIP3    H178532   0.740   2.276  -0.056  0.1088  1.8942 -0.7518
19039TIP3    H278533   0.715   2.256   0.092 -0.7638 -0.3029 -1.1724
19040TIP3   OH278534   0.323   2.266  13.704 -0.1488  0.0920  0.3423
19040TIP3    H178535   0.309   2.342  13.761  0.8757  0.0492  0.6682
19040TIP3    H278536   0.418   2.262  13.692 -0.2200 -0.9205  0.0294
19041TIP3   OH278537   0.848   0.669   1.477 -0.5396  0.2593  0.2204
19041TIP3    H178538   0.905   0.593   1.464 -0.0704  0.3749  1.4175
19041TIP3    H278539   0.789   0.643   1.547 -1.5084  0.4043 -0.5243
19042TIP3   OH278540   2.817   0.910   0.335  0.1121 -0.0920  0.0037
19042TIP3    H178541   2.855   0.863   0.409 -0.1714  0.8209  0.7551
19042TIP3    H278542   2.778   0.842   0.280  0.1326 -0.7652  0.8050
19043TIP3   OH278543   2.887   0.269   2.845 -0.5449 -0.1995 -0.1818
19043TIP3    H178544   2.916   0.225   2.925  0.9056 -1.3147 -1.2678
19043TIP3    H278545   2.925   0.217   2.774 -1.9752  0.6262 -1.6163
19044TIP3   OH278546   3.326   5.444  12.227  0.4725  0.5581  0.1176
19044TIP3    H178547   3.280   5.466  12.308 -1.3952 -1.0777 -0.4193
19044TIP3    H278548   3.269   5.477  12.157  0.3476 -1.0056 -0.5615
19045TIP3   OH278549   2.969   3.970   3.627 -0.7115 -0.0758  0.2976
19045TIP3    H178550   3.017   4.047   3.657 -0.0322  0.0070 -0.9129
19045TIP3    H278551   2.934   3.995   3.541 -0.0706 -1.2478 -0.3324
19046TIP3   OH278552   2.766   1.023   1.221  1.0453 -0.2146  0.0421
19046TIP3    H178553   2.800   0.980   1.142 -0.8142 -1.6235 -0.0296
19046TIP3    H278554   2.806   1.110   1.218  2.3707 -0.8098 -1.5296
19047TIP3   OH278555   5.329   6.048   3.972 -0.6672  0.2176 -0.0856
19047TIP3    H178556   5.255   6.006   3.929 -1.0958 -2.4281  2.8542
19047TIP3    H278557   5.405   6.022   3.920 -1.4219 -0.1312 -1.0458
19048TIP3   OH278558   2.726   6.385  10.647  0.0693 -0.4633  0.3279
19048TIP3    H178559   2.780   6.463  10.661 -1.5094  0.9487 -0.9925
19048TIP3    H278560   2.777   6.313  10.684  1.0162  1.3477  2.8324
19049TIP3   OH278561   1.587   6.570   3.359  0.3837  0.4343 -0.0466
19049TIP3    H178562   1.583   6.621   3.440  1.1406 -0.5439  0.6342
19049TIP3    H278563   1.679   6.545   3.350 -0.3048 -3.2168  1.2652
19050TIP3   OH278564   2.893   5.037   0.967  0.3101 -0.2053 -0.2445
19050TIP3    H178565   2.805   5.003   0.983  0.2857 -0.5159 -0.9805
19050TIP3    H278566   2.887   5.081   0.882 -0.0945  3.2277  1.3910
19051TIP3   OH278567   2.351   0.605   6.005  0.1909 -0.2707  0.2384
19051TIP3    H178568   2.405   0.526   6.011 -0.5319 -0.9244 -1.2135
19051TIP3    H278569   2.369   0.639   5.917 -0.0368  0.8002  0.5935
19052TIP3   OH278570   3.479   2.846   4.083  0.4351  0.1271  0.5538
19052TIP3    H178571   3.506   2.771   4.136 -0.3931 -0.7335 -0.2095
19052TIP3    H278572   3.531   2.919   4.117  0.6178 -0.5939  1.8982
19053TIP3   OH278573   4.945   0.493  12.130 -0.1547  0.3828  0.0488
19053TIP3    H178574   4.942   0.400  12.107 -0.2654  0.2177  0.6918
19053TIP3    H278575   5.028   0.524  12.095  0.2208 -0.1373  0.4640
19054TIP3   OH278576   3.062   2.043   2.140  0.3653  0.2610 -0.3166
19054TIP3    H178577   3.072   1.962   2.091 -0.9030 -0.5228  0.6324
19054TIP3    H278578   2.986   2.086   2.101  0.5168  0.5794 -0.2699
19055TIP3   OH278579   6.039   5.889  14.445 -0.1521  0.0538 -0.4781
19055TIP3    H178580   6.063   5.974  14.406  0.0592 -0.8841 -2.5138
19055TIP3    H278581   6.038   5.906  14.539  1.3393  1.9599 -0.7332
19056TIP3   OH278582   5.632   4.413  10.179 -0.7052  0.3076 -0.7581
19056TIP3    H178583   5.615   4.508  10.180 -0.6091  0.3529  1.3066
19056TIP3    H278584   5.690   4.399  10.253 -1.0702 -1.4467 -0.7744
19057TIP3   OH278585   3.924   3.532  10.742 -0.1467 -0.0225 -0.2865
19057TIP3    H178586   3.931   3.446  10.702 -0.8671 -0.6422  0.8747
19057TIP3    H278587   3.901   3.515  10.833  0.3372  1.3812  0.1271
19058TIP3   OH278588   6.608   2.526   2.427 -0.6863 -0.2968 -0.1206
19058TIP3    H178589   6.529   2.474   2.415 -1.2170  0.5552 -0.4282
19058TIP3    H278590   6.619   2.572   2.344 -0.5945  0.5651  0.3585
19059TIP3   OH278591   6.773   1.115  13.179  0.6989 -0.6957 -0.2322
19059TIP3    H178592   6.794   1.035  13.131  0.5956 -0.4875 -0.6323
19059TIP3    H278593   6.702   1.155  13.128  0.5668 -0.4864  0.1138
19060TIP3   OH278594   4.229   5.356   2.771 -0.4884 -0.1198  0.2958
19060TIP3    H178595   4.200   5.296   2.839  2.1738 -0.6071  1.1335
19060TIP3    H278596   4.224   5.304   2.690 -0.8706 -0.5229  0.5724
19061TIP3   OH278597   5.406   4.816   2.030 -0.0657  0.4845 -0.9007
19061TIP3    H178598   5.318   4.781   2.045  0.0611  0.3129 -0.5699
19061TIP3    H278599   5.411   4.894   2.085  0.2929  0.0183 -0.2623
19062TIP3   OH278600   4.022   0.449  11.340 -0.2768  0.2956 -0.0396
19062TIP3    H178601   4.118   0.450  11.350 -0.3486  0.8749  0.6662
19062TIP3    H278602   4.007   0.388  11.268  0.6068 -0.0521  0.0480
19063TIP3   OH278603   0.460   6.791   4.020 -0.1020 -0.3480  0.0781
19063TIP3    H178604   0.549   6.809   4.052  0.7978 -1.5654 -1.5773
19063TIP3    H278605   0.443   6.700   4.045  0.2207 -0.9910 -1.8809
19064TIP3   OH278606   4.243   4.284   2.276 -0.3449  0.0593  0.3074
19064TIP3    H178607   4.240   4.378   2.297 -0.0961 -0.5962  4.1576
19064TIP3    H278608   4.169   4.247   2.324 -0.0150 -1.8082 -0.5558
19065TIP3   OH278609   0.680   6.608   4.955  0.0023 -0.5093  0.4132
19065TIP3    H178610   0.613   6.551   4.994  1.1922 -1.0092  1.8721
19065TIP3    H278611   0.663   6.694   4.992  1.1169 -0.9797  2.1588
19066TIP3   OH278612   5.509   4.199  16.724  0.2773 -0.1634  0.5928
19066TIP3    H178613   5.494   4.115  16.768 -0.4475 -0.3770 -0.0549
19066TIP3    H278614   5.492   4.182  16.631  1.5481  0.3434  0.2447
19067TIP3   OH278615   2.793   3.437   1.242 -0.0701 -0.1567  0.3360
19067TIP3    H178616   2.714   3.407   1.196 -1.0518  0.9748  1.2409
19067TIP3    H278617   2.864   3.418   1.180 -1.0367 -1.1646 -0.5179
19068TIP3   OH278618   2.965   2.334  15.399 -0.3941 -0.1945  0.0117
19068TIP3    H178619   2.897   2.382  15.447 -1.4792  0.0099 -1.6515
19068TIP3    H278620   2.938   2.242  15.405  0.3470 -0.3572  1.1120
19069TIP3   OH278621   3.516   3.000   2.983  0.3324  0.2872 -0.0765
19069TIP3    H178622   3.430   2.973   3.017 -0.4179 -0.7569 -2.5866
19069TIP3    H278623   3.540   3.075   3.037 -2.1776  0.6346  0.6957
19070TIP3   OH278624   1.208   5.101   6.227 -0.7099  0.1588 -0.0692
19070TIP3    H178625   1.271   5.141   6.287 -0.4826  0.3664 -0.4403
19070TIP3    H278626   1.249   5.019   6.199 -0.4503  0.4546 -0.5701
19071TIP3   OH278627   2.187   4.695  16.748  0.1279 -0.3351 -0.3139
19071TIP3    H178628   2.163   4.623  16.690 -0.4211 -1.2584  1.0247
19071TIP3    H278629   2.104   4.738  16.769  0.2375 -0.4500  0.3620
19072TIP3   OH278630   4.725   3.922  15.730 -0.9301  0.1290  0.4162
19072TIP3    H178631   4.783   3.848  15.711 -2.4266 -1.0464  0.3206
19072TIP3    H278632   4.753   3.990  15.668  0.1519 -0.5111  0.1781
19073TIP3   OH278633   6.348   6.618  16.165 -0.4662  0.3448  0.4273
19073TIP3    H178634   6.394   6.538  16.142  0.2092  0.5105  1.1391
19073TIP3    H278635   6.389   6.686  16.111 -0.9823  0.2284 -0.1143
19074TIP3   OH278636   5.997   3.018   4.019 -0.1471  0.1060  0.0563
19074TIP3    H178637   6.010   3.024   4.114  0.1907  0.2384  0.0049
19074TIP3    H278638   6.082   2.990   3.985 -0.6881 -1.4238 -0.0731
19075TIP3   OH278639   3.403   5.604   2.670 -0.0717  0.1317  0.2884
19075TIP3    H178640   3.416   5.568   2.758  0.0214 -2.5538 -0.7247
19075TIP3    H278641   3.491   5.621   2.638 -0.1154  1.3576  0.7659
19076TIP3   OH278642   2.152   4.308   2.918  0.3386 -0.4968 -0.2229
19076TIP3    H178643   2.147   4.384   2.860  1.8710 -0.2381 -0.0656
19076TIP3    H278644   2.076   4.317   2.975 -0.6867 -0.2590 -1.5786
19077TIP3   OH278645   3.967   3.089  11.735  0.0351 -0.4717 -0.5821
19077TIP3    H178646   3.943   3.016  11.792 -1.6205  0.1357 -0.4710
19077TIP3    H278647   3.963   3.052  11.646 -1.9329 -0.2694 -0.6154
19078TIP3   OH278648   6.457   0.510   0.480 -0.2252 -0.3171 -0.2428
19078TIP3    H178649   6.445   0.472   0.567  3.6108 -1.8607 -0.1963
19078TIP3    H278650   6.488   0.437   0.427 -1.7628  0.7685 -2.8020
19079TIP3   OH278651   2.028   0.153   5.612 -0.0519  0.0863  0.1240
19079TIP3    H178652   1.954   0.121   5.561  0.3199 -0.4592 -0.0769
19079TIP3    H278653   2.024   0.248   5.603  0.7684 -0.0309 -2.0216
19080TIP3   OH278654   2.810   0.956  14.331  0.4441 -0.5183  0.1590
19080TIP3    H178655   2.835   0.871  14.296  1.5688  0.4284 -1.5162
19080TIP3    H278656   2.867   0.968  14.408  1.2298 -0.7581 -0.3682
19081TIP3   OH278657   4.578   3.048   5.389 -0.3930  0.1681  0.3299
19081TIP3    H178658   4.488   3.078   5.376 -0.5318 -0.8792 -1.2661
19081TIP3    H278659   4.581   2.961   5.351  1.1841 -0.0325  0.8257
19082TIP3   OH278660   0.127   0.932   0.990 -0.2221 -0.4688  0.3936
19082TIP3    H178661   0.160   0.999   1.049 -0.6968 -1.2639  1.5971
19082TIP3    H278662   0.206   0.897   0.947  0.2289 -0.5084  1.2376
19083TIP3   OH278663   5.951   5.717   2.344  0.3448 -0.0341 -0.2800
19083TIP3    H178664   6.033   5.679   2.313  0.2137 -0.4696 -0.0947
19083TIP3    H278665   5.884   5.672   2.293  0.1503 -0.4939  0.3698
19084TIP3   OH278666   6.553   3.986  16.879 -0.0144 -0.1953 -0.6520
19084TIP3    H178667   6.530   3.930  16.805 -1.3004  0.8202 -1.0604
19084TIP3    H278668   6.621   4.045  16.845  0.5279 -0.7576 -0.5519
19085TIP3   OH278669   0.904   4.814   1.775 -0.6410  0.1325  0.3295
19085TIP3    H178670   0.897   4.735   1.721 -0.2860 -0.9198  1.7541
19085TIP3    H278671   0.820   4.858   1.764 -1.5569 -1.3761  0.8638
19086TIP3   OH278672   2.367   2.209   2.310 -0.6852  0.4029  0.6862
19086TIP3    H178673   2.385   2.161   2.391 -0.5897 -1.2340 -0.2716
19086TIP3    H278674   2.278   2.242   2.321 -0.3926  0.8680  1.7663
19087TIP3   OH278675   5.208   4.228  12.823 -0.1724  0.3495 -0.0077
19087TIP3    H178676   5.198   4.136  12.802 -1.6106  0.3842  0.4579
19087TIP3    H278677   5.246   4.267  12.744 -0.4418 -0.4610 -0.5497
19088TIP3   OH278678   0.865   1.859  16.227  0.3071 -0.6391 -0.2597
19088TIP3    H178679   0.918   1.858  16.307  0.8761 -1.0428 -0.6356
19088TIP3    H278680   0.798   1.926  16.243  1.2939  0.3103 -0.0214
19089TIP3   OH278681   4.996   1.755  14.605 -0.5234 -0.3505  0.3036
19089TIP3    H178682   5.050   1.824  14.643  0.0953 -0.7812  0.2233
19089TIP3    H278683   4.937   1.800  14.545  0.4185  0.0299 -0.3539
19090TIP3   OH278684   0.477   1.999  14.251 -0.0495  0.0035  0.4215
19090TIP3    H178685   0.479   1.961  14.163 -0.5763 -0.2448  0.5127
19090TIP3    H278686   0.440   2.087  14.238 -3.9546 -1.3871  0.8360
19091TIP3   OH278687   4.142   4.989   0.302 -0.1883  0.1609  0.2197
19091TIP3    H178688   4.076   5.058   0.295  1.9268  2.3779  0.6323
19091TIP3    H278689   4.216   5.021   0.250  1.7128 -0.6591  2.2320
19092TIP3   OH278690   5.869   2.712  10.737  0.3636  0.0399  0.0104
19092TIP3    H178691   5.887   2.683  10.648  3.3862 -1.0564  0.8718
19092TIP3    H278692   5.844   2.633  10.784  1.7298  0.0293  0.7742
19093TIP3   OH278693   0.548   6.275   1.357  0.6819 -0.3129  0.1742
19093TIP3    H178694   0.468   6.267   1.409  0.6741  1.7981  0.5857
19093TIP3    H278695   0.523   6.246   1.269 -0.9361  1.4449 -0.0229
19094TIP3   OH278696   4.004   0.615   2.364  0.3775 -0.3648  0.2168
19094TIP3    H178697   3.927   0.585   2.316 -0.8528  0.3227  1.6502
19094TIP3    H278698   4.001   0.565   2.446  1.2874 -0.0907  0.4269
19095TIP3   OH278699   0.115   3.663  11.374 -0.5162 -0.1856  0.2161
19095TIP3    H178700   0.037   3.718  11.366 -2.0296 -2.4458 -2.3025
19095TIP3    H278701   0.098   3.608  11.450 -1.4909 -0.7239 -0.3677
19096TIP3   OH278702   0.427   5.796  13.409  0.7911 -0.1580  0.2390
19096TIP3    H178703   0.367   5.865  13.377  2.1941  1.5538  1.1046
19096TIP3    H278704   0.372   5.738  13.460 -0.1553  1.4049  1.0720
19097TIP3   OH278705   6.375   3.662  16.546  0.2497  0.7739  0.0500
19097TIP3    H178706   6.468   3.659  16.564 -0.0687  0.6595  1.8706
19097TIP3    H278707   6.347   3.571  16.543  0.5638  0.6751 -2.9905
19098TIP3   OH278708   4.053   4.253   0.520 -0.0110  0.3157  0.0971
19098TIP3    H178709   4.036   4.285   0.609  0.1655 -0.1553  0.3079
19098TIP3    H278710   4.146   4.227   0.522 -0.8674 -3.3129  0.9802
19099TIP3   OH278711   5.719   1.016  11.563 -0.3732 -0.0526  0.1335
19099TIP3    H178712   5.658   1.077  11.522 -0.0570  1.2419  1.4852
19099TIP3    H278713   5.780   1.071  11.611  1.2895 -1.3634 -0.3778
19100TIP3   OH278714   0.046   1.884   1.545  0.2104 -0.2853  0.1175
19100TIP3    H178715   0.023   1.800   1.585  0.9003 -0.9178 -0.7821
19100TIP3    H278716   0.117   1.864   1.484 -0.1045  0.8256 -0.6600
19101TIP3   OH278717   6.302   3.136   1.007  0.2007  0.2094  0.0963
19101TIP3    H178718   6.305   3.094   0.921  0.5347 -0.8880  0.6139
19101TIP3    H278719   6.382   3.189   1.011  0.5701 -0.3337  0.0109
19102TIP3   OH278720   3.037   5.443  15.297  0.4977  0.8426  0.4406
19102TIP3    H178721   2.950   5.462  15.261  1.2086  2.6719 -0.4396
19102TIP3    H278722   3.033   5.474  15.388  0.0210  0.2625  0.6196
19103TIP3   OH278723   4.493   5.652   5.426  0.4920 -0.2120 -0.2355
19103TIP3    H178724   4.564   5.593   5.403 -1.7178 -2.0826 -2.9595
19103TIP3    H278725   4.417   5.595   5.435 -0.7544  1.6632  2.6446
19104TIP3   OH278726   2.863   0.156   1.252 -0.2861  0.9340 -0.4140
19104TIP3    H178727   2.885   0.082   1.308 -0.1823 -0.1915 -1.8992
19104TIP3    H278728   2.938   0.215   1.258  1.7807 -1.2435 -2.7292
19105TIP3   OH278729   4.806   0.618  16.567  0.4113  0.1142 -0.1225
19105TIP3    H178730   4.729   0.569  16.539  0.4765  0.7436 -1.4817
19105TIP3    H278731   4.806   0.610  16.662 -1.2877  0.0493 -0.1035
19106TIP3   OH278732   5.781   0.703  11.481  0.0691 -0.2193  0.4118
19106TIP3    H178733   5.808   0.649  11.554  0.8981 -2.0296 -1.1636
19106TIP3    H278734   5.854   0.764  11.468  0.1252 -0.2076  0.7625
19107TIP3   OH278735   1.758   4.453   5.936  0.3841 -0.2781  0.2664
19107TIP3    H178736   1.789   4.388   6.000  0.0643  1.0123  1.7954
19107TIP3    H278737   1.670   4.423   5.913 -0.8770  0.9494  3.0401
19108TIP3   OH278738   6.509   2.455   0.147 -0.0226 -0.1888  0.0331
19108TIP3    H178739   6.523   2.541   0.107 -0.8548  0.3271  0.8132
19108TIP3    H278740   6.466   2.474   0.230  2.1583 -1.2101  1.4836
19109TIP3   OH278741   5.355   1.714   0.043 -0.4036  0.5359 -0.2307
19109TIP3    H178742   5.385   1.711   0.134 -1.4973 -0.7843  0.1095
19109TIP3    H278743   5.303   1.794   0.038 -0.5282  0.4977  0.3657
19110TIP3   OH278744   2.294   4.932   1.997 -0.0021 -0.7810 -0.3053
19110TIP3    H178745   2.374   4.984   1.986 -0.9587  2.0671  3.6289
19110TIP3    H278746   2.311   4.880   2.076 -1.8659 -0.2622  0.4842
19111TIP3   OH278747   5.152   3.171  15.187  0.3063  0.0096  0.4299
19111TIP3    H178748   5.064   3.161  15.150  0.0110 -0.7751  1.2995
19111TIP3    H278749   5.171   3.264  15.179 -1.1446  0.4200  1.3987
19112TIP3   OH278750   4.518   1.788   4.614  0.0071  0.1661 -0.2674
19112TIP3    H178751   4.524   1.723   4.545  1.0955 -0.6706  0.5871
19112TIP3    H278752   4.535   1.871   4.570 -0.0309 -0.2692 -1.1215
19113TIP3   OH278753   0.784   1.054   3.157 -0.2814 -0.3830  0.1541
19113TIP3    H178754   0.804   1.027   3.247 -1.7827  0.5974  0.8077
19113TIP3    H278755   0.867   1.042   3.110  0.2558 -1.9460  1.3963
19114TIP3   OH278756   2.517   5.573   6.263  0.1826 -0.2604  0.4317
19114TIP3    H178757   2.583   5.571   6.193 -1.2634  1.0913 -1.0521
19114TIP3    H278758   2.504   5.481   6.286  1.0311 -0.6997 -0.7633
19115TIP3   OH278759   1.800   2.347   6.266 -0.2575  0.3143  0.3928
19115TIP3    H178760   1.742   2.413   6.304 -2.5594 -0.8681 -0.8841
19115TIP3    H278761   1.747   2.303   6.200  1.6820 -1.8091  0.1269
19116TIP3   OH278762   0.297   5.682  14.742  0.3218 -0.3487  0.1829
19116TIP3    H178763   0.257   5.661  14.826  2.0350 -0.5133  1.0006
19116TIP3    H278764   0.252   5.762  14.713  0.8054  0.6727  2.0715
19117TIP3   OH278765   4.927   4.695  12.274  0.6454  0.0265 -0.7088
19117TIP3    H178766   4.953   4.723  12.186  2.0325 -1.5484 -0.8393
19117TIP3    H278767   5.002   4.647  12.308  0.1333  0.5696  1.3707
19118TIP3   OH278768   1.477   0.862   1.849 -0.6262 -0.4364 -0.2109
19118TIP3    H178769   1.452   0.795   1.786 -0.4482 -1.1056  0.4224
19118TIP3    H278770   1.394   0.900   1.877 -0.8378 -1.3345  0.4406
19119TIP3   OH278771   1.076   6.198  10.951 -0.0358  0.2009  0.2517
19119TIP3    H178772   1.032   6.120  10.917 -0.8167  1.2332 -1.2593
19119TIP3    H278773   1.047   6.268  10.892  0.0068  1.7848  2.0276
19120TIP3   OH278774   0.497   4.726   3.894  0.0118 -0.6412 -0.6710
19120TIP3    H178775   0.457   4.703   3.978 -2.3614  2.3581 -0.7757
19120TIP3    H278776   0.531   4.815   3.907 -0.3591 -0.1206 -2.8332
19121TIP3   OH278777   4.607   1.214  14.348 -0.2159 -0.1144  0.0410
19121TIP3    H178778   4.542   1.180  14.410 -0.1640  0.6676  0.5329
19121TIP3    H278779   4.587   1.169  14.266 -2.3285  1.1585 -0.2155
19122TIP3   OH278780   6.223   1.866  14.473  0.1860  0.0668 -0.1152
19122TIP3    H178781   6.249   1.840  14.561 -0.8768  1.0502  0.5323
19122TIP3    H278782   6.201   1.959  14.481  1.9214  0.6897 -1.8582
19123TIP3   OH278783   3.187   2.041  12.493  0.1207 -0.5389 -0.2254
19123TIP3    H178784   3.171   2.114  12.553 -0.0757 -0.7030 -0.0767
19123TIP3    H278785   3.115   1.980  12.510  1.5826 -1.9265  1.4115
19124TIP3   OH278786   4.718   2.020   3.411  0.3680  0.5745  0.1442
19124TIP3    H178787   4.801   2.018   3.458  0.2339 -1.1940  0.3922
19124TIP3    H278788   4.743   2.015   3.318  0.5648 -0.5144  0.2373
19125TIP3   OH278789   2.484   6.289   0.928 -0.9860  0.3312  0.5071
19125TIP3    H178790   2.403   6.270   0.881 -0.8110  0.2666  0.2302
19125TIP3    H278791   2.554   6.276   0.863 -0.6465 -0.9018  1.0793
19126TIP3   OH278792   1.201   2.277  11.905 -0.4382  0.1465 -0.6041
19126TIP3    H178793   1.183   2.238  11.820  1.3199 -0.1549 -0.8852
19126TIP3    H278794   1.222   2.202  11.961 -5.1441 -0.1273  1.2475
19127TIP3   OH278795   3.040   3.945   2.961  0.3991  0.8956  0.2237
19127TIP3    H178796   3.053   3.885   3.034 -1.3991 -0.3206 -0.4062
19127TIP3    H278797   3.079   3.900   2.886  3.2579  2.6182  0.5258
19128TIP3   OH278798   2.880   1.369   1.541  0.3025  0.1875 -0.4179
19128TIP3    H178799   2.957   1.354   1.486 -0.2555 -0.1455 -1.1331
19128TIP3    H278800   2.873   1.290   1.594  1.4147  0.9174  0.8790
19129TIP3   OH278801   2.772   6.722  11.835 -0.7005 -0.1002  0.5562
19129TIP3    H178802   2.760   6.799  11.890  0.4010  1.6122 -1.4568
19129TIP3    H278803   2.710   6.734  11.763  1.1901  0.2756 -1.1002
19130TIP3   OH278804   2.078   5.985  12.833 -0.1932 -0.1409  0.2884
19130TIP3    H178805   2.046   6.006  12.746  0.1210 -0.2693  0.1402
19130TIP3    H278806   2.011   6.020  12.892 -0.4653 -0.1589 -0.0050
19131TIP3   OH278807   2.221   4.137  14.866  0.0399 -0.3510  0.4692
19131TIP3    H178808   2.181   4.204  14.921 -0.9233 -0.9227  0.4747
19131TIP3    H278809   2.169   4.058  14.881  0.4572 -0.8135 -0.4052
19132TIP3   OH278810   5.022   0.679  13.570 -0.1597  0.0773 -0.1767
19132TIP3    H178811   4.961   0.674  13.643 -0.1913  1.1949 -0.1209
19132TIP3    H278812   5.086   0.745  13.595  1.1009 -1.0754 -0.2321
19133TIP3   OH278813   6.396   0.527  16.584 -0.3366 -0.8414 -0.3272
19133TIP3    H178814   6.301   0.517  16.574 -0.4678 -0.6470  0.6428
19133TIP3    H278815   6.417   0.604  16.530 -1.2966  1.2532  2.0869
19134TIP3   OH278816   4.028   5.613   0.295 -0.9137  0.1044  0.0610
19134TIP3    H178817   4.104   5.563   0.325  0.0641  0.7739 -1.2202
19134TIP3    H278818   3.967   5.547   0.263 -1.7718 -0.6022  2.8692
19135TIP3   OH278819   0.913   1.137   0.653  0.0345 -0.0582  0.5758
19135TIP3    H178820   0.991   1.143   0.597 -0.8870 -0.2424 -0.7551
19135TIP3    H278821   0.845   1.103   0.596 -1.9489  3.2267  0.7494
19136TIP3   OH278822   3.704   2.047  15.916  0.2837  0.2361  0.3376
19136TIP3    H178823   3.767   1.981  15.947 -0.9018 -1.0564  0.0890
19136TIP3    H278824   3.701   2.112  15.986  0.7742 -0.4662  1.0279
19137TIP3   OH278825   2.899   4.778  13.992 -0.0327 -0.4492  0.4849
19137TIP3    H178826   2.844   4.770  13.915  0.9221  1.9829 -0.5392
19137TIP3    H278827   2.979   4.730  13.970  0.2164  0.1981 -0.0603
19138TIP3   OH278828   4.261   4.366   4.731 -0.1021 -0.1280 -0.1425
19138TIP3    H178829   4.310   4.389   4.653  0.0549 -1.4424 -0.4573
19138TIP3    H278830   4.170   4.362   4.703 -0.2110  0.6989  0.0631
19139TIP3   OH278831   0.417   0.047  15.586  0.2154  0.6932 -0.5420
19139TIP3    H178832   0.502   0.072  15.551 -0.0925  1.1304 -0.9877
19139TIP3    H278833   0.377   0.129  15.615  0.9276  0.2343  1.9556
19140TIP3   OH278834   5.019   0.221   2.121  0.0449 -0.0823 -0.3335
19140TIP3    H178835   5.067   0.160   2.178  0.4472 -0.6982 -1.3125
19140TIP3    H278836   5.087   0.262   2.068 -0.1581  1.6033  0.6255
19141TIP3   OH278837   1.083   4.051  13.932  0.4010 -0.0222 -0.3051
19141TIP3    H178838   1.098   4.041  14.026  0.3579  0.0523 -0.2897
19141TIP3    H278839   1.022   4.124  13.926 -0.6578 -0.8745 -0.3155
19142TIP3   OH278840   6.523   5.948  13.857 -0.0671  0.7224 -0.5879
19142TIP3    H178841   6.544   5.899  13.936 -0.2384  0.6944 -0.5601
19142TIP3    H278842   6.427   5.951  13.854 -0.0592  1.0794 -0.5744
19143TIP3   OH278843   5.911   0.708   1.108  0.0745  0.3667  0.5824
19143TIP3    H178844   5.906   0.708   1.013 -1.0420  0.4596  0.6257
19143TIP3    H278845   6.004   0.711   1.128  0.3038  0.6419 -0.5058
19144TIP3   OH278846   0.757   3.712  14.279  0.2150 -0.0336 -0.1550
19144TIP3    H178847   0.685   3.650  14.272 -0.9949  1.1593  1.0980
19144TIP3    H278848   0.810   3.680  14.352 -0.6214  0.5666  0.7427
19145TIP3   OH278849   3.422   6.003   4.960  0.1933  0.3790 -0.0736
19145TIP3    H178850   3.396   6.093   4.978 -1.6670  0.1693 -1.4464
19145TIP3    H278851   3.356   5.949   5.005 -0.0629 -0.2472 -1.1723
19146TIP3   OH278852   2.154   1.722   0.441 -0.5339 -0.3533 -0.7025
19146TIP3    H178853   2.154   1.735   0.535  1.0378 -0.9681 -0.5841
19146TIP3    H278854   2.131   1.630   0.428  2.1686 -1.0970 -0.7029
19147TIP3   OH278855   4.960   2.161  15.862  0.1117  0.1945  0.0837
19147TIP3    H178856   4.904   2.084  15.860 -1.0370  1.0131 -0.5387
19147TIP3    H278857   4.971   2.181  15.956 -1.2484  0.4225  0.2218
19148TIP3   OH278858   1.324   0.638  14.412  0.0773  0.0644 -0.1117
19148TIP3    H178859   1.399   0.579  14.404 -1.1724 -1.7863  1.0574
19148TIP3    H278860   1.275   0.627  14.331 -0.2337 -0.6635  0.1661
19149TIP3   OH278861   3.178   4.815   5.895  0.5845  0.5376 -0.1982
19149TIP3    H178862   3.151   4.747   5.833  0.0505 -2.3326  2.8886
19149TIP3    H278863   3.096   4.844   5.935  1.0031  1.4627  0.0121
19150TIP3   OH278864   1.226   3.362   4.508  0.3466  0.2292 -0.1960
19150TIP3    H178865   1.195   3.277   4.539 -0.8073  0.6395 -0.1506
19150TIP3    H278866   1.319   3.349   4.489  0.0961 -1.1478 -0.5725
19151TIP3   OH278867   1.731   4.268  16.940 -0.3320  0.1810 -0.3255
19151TIP3    H178868   1.686   4.350  16.963 -0.2121 -0.0217  0.6675
19151TIP3    H278869   1.748   4.276  16.846 -3.4415 -0.2194 -1.0369
19152TIP3   OH278870   5.306   0.554   1.008 -0.2366 -0.4038 -0.4444
19152TIP3    H178871   5.374   0.487   1.002  1.8721  1.5118  0.7309
19152TIP3    H278872   5.294   0.567   1.103  1.2636  2.5634 -0.5531
19153TIP3   OH278873   6.674   5.297  11.920 -0.1443  0.2815  0.2211
19153TIP3    H178874   6.708   5.283  11.832  1.5252  0.0172  0.8538
19153TIP3    H278875   6.604   5.361  11.909  1.4137  1.8704 -1.0661
19154TIP3   OH278876   4.008   0.480   2.615 -0.1480 -0.1974  0.1203
19154TIP3    H178877   4.044   0.400   2.653  2.2833  0.6417 -0.2765
19154TIP3    H278878   3.932   0.500   2.669 -3.0211 -4.5367 -1.7600
19155TIP3   OH278879   1.429   3.970   5.339  0.5349 -0.5161  0.5118
19155TIP3    H178880   1.433   3.914   5.416  2.6816  0.4618  1.1873
19155TIP3    H278881   1.472   3.920   5.270 -0.9768 -1.2044  0.0330
19156TIP3   OH278882   0.883   0.417   1.725  0.0102 -0.2678  0.4710
19156TIP3    H178883   0.965   0.463   1.743  0.0653  0.6255 -1.8513
19156TIP3    H278884   0.909   0.325   1.717  0.5356 -0.1869  1.1293
19157TIP3   OH278885   3.934   0.326   2.361  0.0350 -0.5632 -0.2781
19157TIP3    H178886   3.861   0.366   2.409 -1.0600 -0.9540 -1.5782
19157TIP3    H278887   3.972   0.264   2.424  0.4827  1.0078  1.0668
19158TIP3   OH278888   6.237   0.537  12.966  0.3723 -0.3692  1.0425
19158TIP3    H178889   6.250   0.517  12.873  0.4239  2.0787  0.4289
19158TIP3    H278890   6.143   0.556  12.973  0.2886 -0.9793  1.5881
19159TIP3   OH278891   2.375   0.525  13.695  0.0731  0.2299 -0.4654
19159TIP3    H178892   2.281   0.540  13.708  0.3736  0.5422  1.4879
19159TIP3    H278893   2.410   0.611  13.673 -0.2150 -0.0663 -2.2984
19160TIP3   OH278894   3.758   6.038  13.661  0.3347  0.4941 -0.0999
19160TIP3    H178895   3.710   5.958  13.683 -0.3720  0.8008 -0.5026
19160TIP3    H278896   3.850   6.010  13.654  0.1594 -0.1820  0.2391
19161TIP3   OH278897   5.882   1.113  16.788 -0.2035 -0.2779 -0.0407
19161TIP3    H178898   5.876   1.163  16.869 -0.9063  0.3560 -0.4650
19161TIP3    H278899   5.935   1.037  16.810  1.3648  0.9125  0.4923
19162TIP3   OH278900   5.228   1.233  13.718  0.5212 -0.4385 -0.0034
19162TIP3    H178901   5.282   1.256  13.643  0.0704  2.7131  0.5135
19162TIP3    H278902   5.282   1.172  13.768  1.1975 -1.8760 -2.3268
19163TIP3   OH278903   3.016   5.624  11.584  1.1680  0.2130  0.2390
19163TIP3    H178904   3.083   5.555  11.586  1.0341 -0.0525 -1.7014
19163TIP3    H278905   2.995   5.640  11.675  1.4665 -2.0761  0.7747
19164TIP3   OH278906   4.856   3.618  13.219  0.2461 -0.1017  0.3900
19164TIP3    H178907   4.866   3.713  13.225 -1.5438  0.2138 -0.7747
19164TIP3    H278908   4.857   3.600  13.125  2.0095 -1.4662  0.6154
19165TIP3   OH278909   1.147   0.444   0.691  0.1205 -0.2781 -0.0243
19165TIP3    H178910   1.086   0.376   0.663 -0.1770 -0.3279  0.7031
19165TIP3    H278911   1.150   0.435   0.787  0.3035  0.5341  0.0557
19166TIP3   OH278912   3.172   1.151  14.729 -0.3227  0.0778 -0.5274
19166TIP3    H178913   3.168   1.211  14.655  1.5851  0.6106 -0.2442
19166TIP3    H278914   3.228   1.195  14.793  0.2750 -1.5529  0.1247
19167TIP3   OH278915   5.945   2.779  14.306  0.2544 -0.1788  0.4040
19167TIP3    H178916   5.977   2.777  14.215  0.7320  1.5017  0.4927
19167TIP3    H278917   5.854   2.809  14.298  0.2987 -0.0237  0.4725
19168TIP3   OH278918   5.534   6.324  12.196 -0.3841 -0.0098 -0.7560
19168TIP3    H178919   5.442   6.348  12.197 -0.3762  0.0433 -1.1343
19168TIP3    H278920   5.581   6.406  12.180  0.0213  0.7738  3.5033
19169TIP3   OH278921   3.754   5.652  13.267  0.4775  0.1729  0.4418
19169TIP3    H178922   3.799   5.736  13.257 -0.5663  1.1382  2.9213
19169TIP3    H278923   3.806   5.590  13.216  4.3475  1.2679  2.6755
19170TIP3   OH278924   4.575   3.803   1.430  0.5099  0.3428 -0.1780
19170TIP3    H178925   4.571   3.897   1.412 -0.7256  0.7555  1.9132
19170TIP3    H278926   4.488   3.771   1.408  0.2668  0.1145  1.0327
19171TIP3   OH278927   6.141   4.021  17.078 -0.3196 -0.3369 -0.2263
19171TIP3    H178928   6.099   4.089  17.026 -0.0036  0.1249  0.1236
19171TIP3    H278929   6.229   4.053  17.094  0.3254 -1.4729 -1.2999
19172TIP3   OH278930   1.666   3.108   1.516 -0.5779  0.5650 -0.0941
19172TIP3    H178931   1.731   3.124   1.583 -0.0875 -0.1389 -0.3922
19172TIP3    H278932   1.716   3.079   1.440 -1.2507 -0.2807 -0.2376
19173TIP3   OH278933   5.205   5.921   2.180 -0.0769 -0.0683 -0.4129
19173TIP3    H178934   5.165   5.834   2.179 -0.6120  0.1736 -0.2893
19173TIP3    H278935   5.167   5.964   2.256  0.6464  0.0667 -0.1183
19174TIP3   OH278936   1.217   3.151   2.758  0.6435  0.2788 -0.4791
19174TIP3    H178937   1.189   3.079   2.702  0.0022  0.5294 -0.4854
19174TIP3    H278938   1.268   3.110   2.827 -0.8675 -0.3443  0.2989
19175TIP3   OH278939   4.648   5.873  11.832  0.1046  0.3194 -0.1481
19175TIP3    H178940   4.664   5.811  11.903 -0.0905  0.8616  0.3718
19175TIP3    H278941   4.620   5.818  11.759 -0.4294 -0.1788  0.4179
19176TIP3   OH278942   6.173   0.861  11.838  0.1332  0.1257  0.2449
19176TIP3    H178943   6.182   0.786  11.779 -0.6015  0.1577  0.0791
19176TIP3    H278944   6.083   0.856  11.869  0.5131  0.0999  1.3873
19177TIP3   OH278945   6.170   6.625  14.598  0.2466 -0.0035 -0.7127
19177TIP3    H178946   6.090   6.653  14.643  0.2080  0.0446 -0.8097
19177TIP3    H278947   6.187   6.695  14.535  0.7351  0.3049 -0.2435
19178TIP3   OH278948   6.700   6.245   0.865 -0.3457 -0.1045  0.1309
19178TIP3    H178949   6.761   6.238   0.791 -0.6484 -0.4396 -0.0938
19178TIP3    H278950   6.708   6.161   0.910  0.0585  0.2131  0.6578
19179TIP3   OH278951   3.067   3.351  17.050 -0.5342 -0.1320  0.3192
19179TIP3    H178952   3.043   3.389  17.135  0.0751 -0.3580  0.5975
19179TIP3    H278953   3.072   3.426  16.991  0.1740  0.1765  0.7516
19180TIP3   OH278954   2.119   0.246   5.033  0.1515  0.3461 -0.6223
19180TIP3    H178955   2.102   0.324   4.981 -1.7701 -0.4005 -1.2342
19180TIP3    H278956   2.060   0.254   5.108 -0.3481 -0.6593 -0.8856
19181TIP3   OH278957   3.445   1.801  15.231  0.1681 -0.0388 -0.0679
19181TIP3    H178958   3.464   1.738  15.301  1.4782  0.1305 -0.2552
19181TIP3    H278959   3.468   1.886  15.268 -0.5626  0.2213 -0.1977
19182TIP3   OH278960   2.559   6.393  13.431 -0.1429 -1.1752 -0.2979
19182TIP3    H178961   2.548   6.427  13.342 -1.0958 -1.2523 -0.2179
19182TIP3    H278962   2.587   6.469  13.482 -0.8810 -0.8173 -0.4096
19183TIP3   OH278963   5.055   2.784   3.046  0.8088 -0.1491  0.2428
19183TIP3    H178964   5.117   2.817   3.111  1.3150 -0.5083 -0.0495
19183TIP3    H278965   5.107   2.726   2.990  0.5915  0.8184 -1.0084
19184TIP3   OH278966   1.143   4.942   0.254  0.4134 -0.3599  0.2414
19184TIP3    H178967   1.131   5.006   0.324  0.3872 -1.5533  1.3811
19184TIP3    H278968   1.059   4.940   0.208  0.9515  1.6227 -0.9026
19185TIP3   OH278969   3.708   1.486  15.397  0.4918 -0.0666  0.2020
19185TIP3    H178970   3.739   1.506  15.309  1.7127 -0.1573  0.5945
19185TIP3    H278971   3.615   1.470  15.386  0.1609  2.0562 -0.7430
19186TIP3   OH278972   4.818   0.110  13.830 -0.1269  0.1389  0.3432
19186TIP3    H178973   4.893   0.051  13.835 -0.4115 -0.3232 -0.6650
19186TIP3    H278974   4.851   0.188  13.785 -0.3172 -0.1690 -0.3283
19187TIP3   OH278975   4.376   3.194  16.804  0.1272  0.4683  0.2279
19187TIP3    H178976   4.324   3.115  16.793 -1.0508  1.2797 -0.3075
19187TIP3    H278977   4.419   3.206  16.719  0.8965  0.0165  0.5430
19188TIP3   OH278978   1.060   1.576  17.010  0.3633 -0.5067  0.3456
19188TIP3    H178979   1.076   1.563  17.103 -0.1901  0.5681  0.6152
19188TIP3    H278980   1.120   1.646  16.985 -0.1240 -0.1606  0.1179
19189TIP3   OH278981   2.107   3.164  14.762  1.1460 -0.3480  0.7308
19189TIP3    H178982   2.049   3.087  14.765  0.7492 -0.0136  2.5520
19189TIP3    H278983   2.095   3.199  14.674  1.2676 -2.3115 -0.1240
19190TIP3   OH278984   4.653   1.080  14.844  0.0705  0.1792 -0.5404
19190TIP3    H178985   4.608   1.160  14.816 -0.0582  0.8642  1.4375
19190TIP3    H278986   4.626   1.068  14.935  1.7532 -0.9293 -0.1340
19191TIP3   OH278987   2.236   4.211  15.780 -0.5247  0.4761  0.1635
19191TIP3    H178988   2.281   4.259  15.710  1.4729 -0.9564  0.3833
19191TIP3    H278989   2.220   4.277  15.848  2.8377  0.8175  0.8018
19192TIP3   OH278990   3.320   5.000   2.899 -0.5623  0.4651  0.4695
19192TIP3    H178991   3.337   5.038   2.986  1.9360  1.5844 -0.4114
19192TIP3    H278992   3.350   5.067   2.838  1.4464 -1.7894 -1.2136
19193TIP3   OH278993   3.051   6.023  16.906  0.2886  0.2566  0.4113
19193TIP3    H178994   3.095   6.048  16.988  1.9450  1.4631 -0.7904
19193TIP3    H278995   2.964   6.063  16.913  0.2966  0.1013  1.6843
19194TIP3   OH278996   5.287   0.424   0.175 -0.0807 -0.5093  0.2843
19194TIP3    H178997   5.333   0.468   0.103 -2.8124  1.6136 -0.3117
19194TIP3    H278998   5.213   0.380   0.134 -0.9784 -0.3326  1.6398
19195TIP3   OH278999   2.622   4.335  11.719  0.3371  0.4287  0.0115
19195TIP3    H179000   2.606   4.425  11.688 -0.4873  0.5162  0.6175
19195TIP3    H279001   2.667   4.292  11.647  0.6932  1.3132 -0.3175
19196TIP3   OH279002   5.822   6.746   5.450  0.1328 -0.1544  0.5123
19196TIP3    H179003   5.833   6.656   5.419  0.3619 -0.0499  0.2857
19196TIP3    H279004   5.795   6.794   5.371  0.5100  0.0726  0.5220
19197TIP3   OH279005   1.170   1.789   2.193  0.3362 -0.3498 -0.1031
19197TIP3    H179006   1.110   1.820   2.125  1.3267  1.4633 -0.1847
19197TIP3    H279007   1.162   1.853   2.263  2.8276  0.4607 -0.4828
19198TIP3   OH279008   6.044   1.582  15.822 -0.0578  0.0035  0.2847
19198TIP3    H179009   6.133   1.618  15.818  0.0880 -0.3981 -0.3709
19198TIP3    H279010   5.987   1.657  15.815  0.2407  0.1481 -0.7773
19199TIP3   OH279011   6.138   0.991  15.215  0.3233 -0.4542 -0.1461
19199TIP3    H179012   6.157   1.073  15.170  0.0362  0.2192  0.9337
19199TIP3    H279013   6.069   0.951  15.163  0.9138 -0.3324 -1.0469
19200TIP3   OH279014   2.448   6.526  15.301  0.1279 -0.0398  0.0754
19200TIP3    H179015   2.506   6.535  15.377  2.9434 -0.3766 -1.8595
19200TIP3    H279016   2.488   6.581  15.234 -1.0338 -1.3372 -1.7871
19201TIP3   OH279017   5.224   4.832  14.265 -0.2046  0.3903 -0.5649
19201TIP3    H179018   5.193   4.835  14.174 -0.7486  0.7606 -0.3698
19201TIP3    H279019   5.144   4.826  14.317  0.0716  0.9745 -0.0686
19202TIP3   OH279020   4.341   3.174   5.364  0.1224 -0.4012  0.0960
19202TIP3    H179021   4.307   3.197   5.450 -1.3735 -1.3573 -0.1977
19202TIP3    H279022   4.270   3.198   5.304  0.5792 -1.0384 -0.7119
19203TIP3   OH279023   6.078   6.537   2.563 -0.2297 -0.0204 -0.5610
19203TIP3    H179024   6.168   6.566   2.579  0.4500 -1.3322 -1.8445
19203TIP3    H279025   6.053   6.492   2.644 -0.4387  1.9315  0.5160
19204TIP3   OH279026   3.414   0.815  11.655 -0.0939 -0.3743 -0.4205
19204TIP3    H179027   3.395   0.906  11.635 -0.9507 -0.6022 -0.6805
19204TIP3    H279028   3.501   0.799  11.618  0.1225  0.3665 -0.2436
19205TIP3   OH279029   1.150   3.240  12.533 -0.0565 -0.5029 -0.3535
19205TIP3    H179030   1.178   3.192  12.454  0.1406 -0.3220 -0.3951
19205TIP3    H279031   1.074   3.191  12.565  1.6942 -2.4439  1.1276
19206TIP3   OH279032   6.500   4.446   0.336 -0.0526  0.1798  0.0934
19206TIP3    H179033   6.517   4.490   0.420  1.1365  0.4073 -0.2502
19206TIP3    H279034   6.587   4.428   0.301 -0.5000  1.7996 -2.0056
19207TIP3   OH279035   1.854   5.011  15.318 -0.4237 -0.3155 -0.1643
19207TIP3    H179036   1.876   5.018  15.411 -3.0519  1.4924  0.4193
19207TIP3    H279037   1.925   5.059  15.274  0.2017 -0.1091  1.0124
19208TIP3   OH279038   6.718   2.351   2.763  0.0246 -0.2781  0.4704
19208TIP3    H179039   6.762   2.366   2.847 -1.7068 -1.5796  1.6699
19208TIP3    H279040   6.756   2.416   2.705  0.3966  1.5380  2.5941
19209TIP3   OH279041   1.509   2.583  13.579 -0.2261 -0.0055 -0.1125
19209TIP3    H179042   1.496   2.542  13.494 -0.6840  0.1927 -0.1401
19209TIP3    H279043   1.447   2.656  13.580 -0.6737 -0.3857  0.6469
19210TIP3   OH279044   1.925   4.015   2.766 -0.3930  0.1130 -0.4815
19210TIP3    H179045   1.882   4.100   2.770  1.1322  1.0471 -2.4086
19210TIP3    H279046   1.855   3.954   2.741 -1.3700  0.8815  0.2954
19211TIP3   OH279047   5.796   2.969  10.354  0.2912  0.0818  0.1261
19211TIP3    H179048   5.864   2.910  10.320 -0.0166 -0.1244 -0.1371
19211TIP3    H279049   5.732   2.975  10.283  0.3428  0.7756  0.1299
19212TIP3   OH279050   2.785   5.868  15.402  0.2103 -0.2189 -0.3046
19212TIP3    H179051   2.845   5.824  15.341  1.9598  1.0860  0.3850
19212TIP3    H279052   2.731   5.923  15.346  0.6536 -0.3055 -0.8336
19213TIP3   OH279053   1.484   0.528  10.128  0.3481 -0.7288 -0.3491
19213TIP3    H179054   1.435   0.499  10.051  0.8835 -1.4470 -0.4299
19213TIP3    H279055   1.456   0.469  10.198 -0.1042 -0.1047  0.0027
19214TIP3   OH279056   3.302   0.010   0.811 -0.1390 -0.0442  0.5645
19214TIP3    H179057   3.323  -0.011   0.720 -1.8943 -0.7361  0.2846
19214TIP3    H279058   3.387   0.025   0.852  0.6686  0.5935 -1.2503
19215TIP3   OH279059   2.818   0.891   0.720 -0.2468  0.0914 -0.2809
19215TIP3    H179060   2.724   0.880   0.703 -0.3038  0.3354 -0.1149
19215TIP3    H279061   2.828   0.983   0.744  0.0067  0.0166 -0.0992
19216TIP3   OH279062   2.270   5.314   3.704  0.5143  0.2434  0.2850
19216TIP3    H179063   2.201   5.282   3.763  1.5060 -0.7135  0.9580
19216TIP3    H279064   2.351   5.306   3.755  1.1479  1.2709 -0.5186
19217TIP3   OH279065   6.531   5.913   0.084  0.1745  0.3370  0.4115
19217TIP3    H179066   6.459   5.950   0.033  0.8427  1.7433  0.4355
19217TIP3    H279067   6.509   5.821   0.094 -1.3384  0.6236 -0.0595
19218TIP3   OH279068   6.532   4.253   5.202  0.2654  0.0980 -0.2557
19218TIP3    H179069   6.447   4.212   5.189  1.3654 -2.7444  0.6113
19218TIP3    H279070   6.594   4.179   5.202  2.5179  1.8590  0.8806
19219TIP3   OH279071   4.674   1.986   1.124 -0.1965 -0.0440 -0.1740
19219TIP3    H179072   4.589   2.027   1.107  0.4899  1.5514 -0.0060
19219TIP3    H279073   4.718   2.048   1.183  1.0987 -0.8057 -0.3044
19220TIP3   OH279074   5.854   0.967  14.565 -0.4177 -0.2227  0.3218
19220TIP3    H179075   5.866   1.025  14.490  1.2916 -0.5524  0.2987
19220TIP3    H279076   5.769   0.992  14.602 -1.1523  0.1491 -1.5206
19221TIP3   OH279077   6.480   0.447  12.575 -0.3931 -0.1171 -0.6786
19221TIP3    H179078   6.488   0.512  12.505 -1.0100 -0.4594 -1.0739
19221TIP3    H279079   6.446   0.369  12.531  0.1816 -0.6594 -0.1803
19222TIP3   OH279080   4.330   2.644   0.241 -0.0289 -0.4953  0.1840
19222TIP3    H179081   4.400   2.708   0.230  0.0912 -0.6285  0.1760
19222TIP3    H279082   4.361   2.586   0.311 -0.5288 -0.0063  0.8162
19223TIP3   OH279083   1.852   5.463   0.447  0.6548  0.6370  0.0203
19223TIP3    H179084   1.758   5.474   0.461  0.3847  0.8640 -1.7350
19223TIP3    H279085   1.887   5.443   0.533 -0.8026  1.9323  0.9672
19224TIP3   OH279086   0.378   5.603   2.489  0.2176  0.1054  0.1990
19224TIP3    H179087   0.293   5.561   2.476 -1.1505  2.8002 -0.3627
19224TIP3    H279088   0.430   5.538   2.536 -1.9620 -1.8437  0.1118
19225TIP3   OH279089   5.737   2.118   3.231  0.1540  0.0381  0.4595
19225TIP3    H179090   5.814   2.147   3.279 -0.8219  2.2844  0.8475
19225TIP3    H279091   5.707   2.197   3.186 -0.7262 -1.2798 -1.3861
19226TIP3   OH279092   1.981   3.360   2.014  0.0657 -0.2206  0.4105
19226TIP3    H179093   1.941   3.336   1.930 -0.3970 -1.8016  1.0488
19226TIP3    H279094   1.925   3.319   2.080  1.3872 -0.4484  1.4228
19227TIP3   OH279095   1.019   3.479  11.897  0.2459  0.2785  0.8224
19227TIP3    H179096   1.095   3.494  11.840 -1.6084  2.4668 -1.2885
19227TIP3    H279097   0.963   3.420  11.846 -1.2924  2.0020  0.4439
19228TIP3   OH279098   2.857   0.092  15.975  0.0730 -0.3495 -0.6214
19228TIP3    H179099   2.943   0.062  15.945  0.4371 -0.0921  0.1312
19228TIP3    H279100   2.796   0.066  15.906  1.1370  1.9866 -2.5876
19229TIP3   OH279101   6.308   1.528  17.022  0.0468 -0.0212  0.0776
19229TIP3    H179102   6.330   1.461  16.957  0.2253 -0.0175  0.1345
19229TIP3    H279103   6.340   1.610  16.984 -1.1957  0.2112 -0.5241
19230TIP3   OH279104   3.374   4.333  12.163 -0.0798  0.5431  0.1418
19230TIP3    H179105   3.460   4.290  12.161 -0.4169 -0.1317 -0.8122
19230TIP3    H279106   3.312   4.262  12.144 -1.1018  0.5061  2.9943
19231TIP3   OH279107   2.176   5.524  13.102 -0.0635  0.4260  0.1810
19231TIP3    H179108   2.190   5.523  13.007 -0.4902  0.4655  0.1152
19231TIP3    H279109   2.081   5.536  13.112 -0.1105 -0.2196  0.6016
19232TIP3   OH279110   1.746   2.503   2.706 -0.6422  0.1561  0.0964
19232TIP3    H179111   1.747   2.412   2.678 -1.0330 -0.7667  2.7595
19232TIP3    H279112   1.823   2.512   2.762 -0.2402  1.6875 -0.6325
19233TIP3   OH279113   3.704   3.730  15.866 -0.2795  0.0331  0.2738
19233TIP3    H179114   3.743   3.651  15.828 -0.9685 -1.3486  2.2433
19233TIP3    H279115   3.750   3.802  15.825  0.6396 -1.4055 -1.3417
19234TIP3   OH279116   4.238   2.061   2.644  0.2197  0.5018  0.2675
19234TIP3    H179117   4.169   2.003   2.611  2.2230 -2.2979  0.5676
19234TIP3    H279118   4.246   2.129   2.578 -1.7895  0.0516 -0.5032
19235TIP3   OH279119   5.079   6.076   3.287 -0.0197  0.3835 -0.4827
19235TIP3    H179120   5.163   6.112   3.318  0.1076 -0.0920 -0.2515
19235TIP3    H279121   5.014   6.115   3.345  0.5063 -3.0975  2.8729
19236TIP3   OH279122   5.160   2.200  13.986  0.4348 -0.9097  0.1717
19236TIP3    H179123   5.130   2.154  14.064  0.3870 -2.8545 -0.9289
19236TIP3    H279124   5.134   2.143  13.914  1.7255  0.1463 -1.1704
19237TIP3   OH279125   1.632   6.205   1.358 -0.7623  0.4856 -0.3235
19237TIP3    H179126   1.713   6.163   1.331 -0.7832  0.9862 -1.2215
19237TIP3    H279127   1.568   6.134   1.364 -0.4328  0.1893 -0.3190
19238TIP3   OH279128   1.450   0.665  15.446  0.0633  0.4482 -0.3337
19238TIP3    H179129   1.385   0.601  15.475  0.0088  0.3094 -0.7525
19238TIP3    H279130   1.438   0.670  15.351  0.5896  0.5079 -0.4000
19239TIP3   OH279131   5.675   0.558   0.711  0.3654 -0.3330 -0.1473
19239TIP3    H179132   5.710   0.593   0.629 -0.3026 -1.5666 -0.9988
19239TIP3    H279133   5.736   0.488   0.735 -0.5315 -1.3471 -0.7249
19240TIP3   OH279134   0.574   6.210  15.750 -0.4582 -0.2867 -0.2995
19240TIP3    H179135   0.598   6.177  15.664 -2.6502 -1.7258 -0.4456
19240TIP3    H279136   0.478   6.217  15.747 -0.3907  2.9612  0.8872
19241TIP3   OH279137   1.704   5.317   1.332  0.1329 -0.1513  0.3004
19241TIP3    H179138   1.706   5.273   1.417 -1.2504  1.6106  1.3035
19241TIP3    H279139   1.795   5.342   1.316  0.6209 -1.6096  0.6177
19242TIP3   OH279140   2.766   5.941  13.720  0.0267 -0.3202  1.0316
19242TIP3    H179141   2.775   6.036  13.733 -0.1297 -0.2712  0.7794
19242TIP3    H279142   2.772   5.905  13.809 -1.8166  0.0794  1.3488
19243TIP3   OH279143   6.486   4.710  16.497 -0.2089 -1.0922 -0.1172
19243TIP3    H179144   6.463   4.801  16.516  0.9446 -0.8867  0.3864
19243TIP3    H279145   6.431   4.686  16.422  1.4535  0.9455 -2.1316
19244TIP3   OH279146   3.059   1.492  14.846  0.4111 -0.1300 -0.4060
19244TIP3    H179147   3.097   1.573  14.881 -0.2547 -0.5419  1.3854
19244TIP3    H279148   3.013   1.520  14.767 -0.1461  1.3338  0.3870
19245TIP3   OH279149   2.748   2.736   5.776  0.4448 -0.2298  0.3620
19245TIP3    H179150   2.718   2.825   5.754  1.1979 -0.2832 -0.9977
19245TIP3    H279151   2.712   2.720   5.863  0.1707  1.3539  0.5805
19246TIP3   OH279152   1.675   3.620  12.435 -0.3281  0.5725 -0.6647
19246TIP3    H179153   1.600   3.677  12.450 -0.2707  0.6723 -0.7608
19246TIP3    H279154   1.645   3.533  12.463 -0.1548  0.7906  0.2182
19247TIP3   OH279155   2.495   0.441   5.157 -0.0759 -0.2360  0.4844
19247TIP3    H179156   2.564   0.462   5.093 -0.0042 -0.3835  0.5131
19247TIP3    H279157   2.535   0.375   5.214  1.0411  2.1985  2.7069
19248TIP3   OH279158   2.035   1.799   1.530  0.0798 -0.5557  0.3772
19248TIP3    H179159   2.086   1.735   1.479  1.1174  0.4747  0.0906
19248TIP3    H279160   2.081   1.882   1.517 -0.4771  0.0034  1.8352
19249TIP3   OH279161   2.402   2.902  14.338 -0.0411 -0.3666  0.0619
19249TIP3    H179162   2.347   2.950  14.276 -1.5554 -0.8932  0.9526
19249TIP3    H279163   2.362   2.816  14.345  1.5939 -1.1823 -0.1240
19250TIP3   OH279164   3.252   3.472  11.819 -0.4378 -0.8077  0.3255
19250TIP3    H179165   3.279   3.391  11.775  0.6818  0.1874 -0.9143
19250TIP3    H279166   3.314   3.481  11.892 -0.2933 -0.8665  0.2114
19251TIP3   OH279167   4.015   0.027   1.305 -0.3061 -0.4466  0.5975
19251TIP3    H179168   3.937   0.075   1.276  0.5516  0.2398 -0.6464
19251TIP3    H279169   4.036  -0.032   1.232  0.5487 -0.3671  0.7678
19252TIP3   OH279170   5.374   4.498   3.075  0.2492 -0.2249 -0.5866
19252TIP3    H179171   5.349   4.405   3.080 -2.0834  0.2006 -2.5324
19252TIP3    H279172   5.459   4.502   3.119 -0.0833 -3.0691  0.5658
19253TIP3   OH279173   6.206   1.116   3.671 -0.6190  0.0393  0.3364
19253TIP3    H179174   6.216   1.029   3.711 -0.2154 -0.9689 -1.8148
19253TIP3    H279175   6.164   1.169   3.739 -0.0918 -1.5889  2.0179
19254TIP3   OH279176   1.051   5.597   1.604  0.5300  0.4777  0.1535
19254TIP3    H179177   1.018   5.679   1.565  0.0327  0.7175  1.0564
19254TIP3    H279178   0.981   5.534   1.588  1.2345 -0.0071 -1.2350
19255TIP3   OH279179   6.587   3.480  16.529 -0.4742  0.0248  0.4245
19255TIP3    H179180   6.645   3.511  16.599 -1.3777  1.4974  0.5706
19255TIP3    H279181   6.644   3.475  16.452  0.0548  0.5917  0.7656
19256TIP3   OH279182   4.103   3.149   1.269 -0.2320  0.3686 -0.4578
19256TIP3    H179183   4.045   3.210   1.315  0.4152  1.4401 -1.0417
19256TIP3    H279184   4.052   3.068   1.264 -0.7170  0.5319  1.2220
19257TIP3   OH279185   3.745   1.127   0.165 -0.2016  0.1595 -0.2000
19257TIP3    H179186   3.768   1.097   0.253  0.1522 -0.3863 -0.4726
19257TIP3    H279187   3.727   1.046   0.116 -1.1570  0.4995 -0.4237
19258TIP3   OH279188   0.964   6.783  10.909  0.3473  0.8697  0.1225
19258TIP3    H179189   0.906   6.834  10.853 -0.4501  1.5783  1.5365
19258TIP3    H279190   1.024   6.740  10.848 -2.0826 -0.5121 -1.4781
19259TIP3   OH279191   4.304   2.192   3.493 -0.3312 -0.9092 -0.0508
19259TIP3    H179192   4.337   2.250   3.562 -0.3223  0.3088 -1.0284
19259TIP3    H279193   4.269   2.116   3.539 -0.6089  0.0106  1.3122
19260TIP3   OH279194   4.182   2.777  11.066  0.2572  0.4094  0.1879
19260TIP3    H179195   4.101   2.789  11.117 -0.2932  0.0181 -0.5716
19260TIP3    H279196   4.155   2.725  10.990  1.3932 -0.4565  0.3463
19261TIP3   OH279197   4.470   0.788  12.014  0.1358  0.2281 -0.2990
19261TIP3    H179198   4.442   0.873  11.980 -1.2174  0.3126  0.9361
19261TIP3    H279199   4.436   0.724  11.950  0.4647  0.5641 -0.8126
19262TIP3   OH279200   1.390   3.064   2.977 -0.0708  0.1659  0.5972
19262TIP3    H179201   1.410   2.982   3.022 -2.5377  0.4130  2.3812
19262TIP3    H279202   1.466   3.119   2.992  0.3429 -0.7483  2.0904
19263TIP3   OH279203   1.448   5.838   2.731 -0.0627  0.6250  0.4701
19263TIP3    H179204   1.494   5.888   2.663  1.7080 -0.7862  0.5863
19263TIP3    H279205   1.377   5.897   2.759  0.5236  2.1238 -1.0098
19264TIP3   OH279206   2.642   2.278  16.554 -0.3390  0.4980 -0.2634
19264TIP3    H179207   2.627   2.184  16.545  0.2097  0.5205 -1.8448
19264TIP3    H279208   2.653   2.293  16.647 -2.1059 -0.7407  0.1930
19265TIP3   OH279209   5.462   3.131  11.532 -0.0875  0.3634 -0.4247
19265TIP3    H179210   5.500   3.072  11.597 -0.3164  0.9144  0.2294
19265TIP3    H279211   5.500   3.103  11.449 -0.4013 -0.8747 -0.1798
19266TIP3   OH279212   3.282   0.297  15.271  0.4393 -1.0388  0.2385
19266TIP3    H179213   3.196   0.316  15.235  1.3510  0.3670 -1.3289
19266TIP3    H279214   3.280   0.203  15.290 -0.6998 -1.5123 -1.9148
19267TIP3   OH279215   4.415   2.073   1.091  0.2159  0.0158  0.0629
19267TIP3    H179216   4.371   2.047   1.010 -1.2890  0.8408  0.5793
19267TIP3    H279217   4.354   2.047   1.160  0.6119  1.0347  0.8144
19268TIP3   OH279218   3.894   2.511   6.311  0.2853 -0.5486  0.5545
19268TIP3    H179219   3.902   2.604   6.331  0.1129 -0.5290  0.5285
19268TIP3    H279220   3.954   2.498   6.237  1.5467 -0.7856  1.5735
19269TIP3   OH279221   0.767   1.264  11.974 -0.5073 -0.3517  0.5354
19269TIP3    H179222   0.802   1.176  11.975 -1.0919 -0.7146 -2.4183
19269TIP3    H279223   0.672   1.253  11.967 -0.6571  0.5300  0.9227
19270TIP3   OH279224   6.109   5.375  13.960 -0.0955  0.4007 -1.0180
19270TIP3    H179225   6.183   5.417  14.004  0.1713 -0.0841 -0.9918
19270TIP3    H279226   6.044   5.362  14.029  0.9873 -1.9052 -0.3457
19271TIP3   OH279227   1.651   5.833   5.233 -0.1935 -0.7282 -0.2949
19271TIP3    H179228   1.588   5.855   5.302 -0.2553 -0.7807 -0.3338
19271TIP3    H279229   1.633   5.741   5.213 -2.6659  0.1910 -2.9225
19272TIP3   OH279230   1.162   6.318  14.355  0.2535 -0.0030 -0.0453
19272TIP3    H179231   1.088   6.338  14.298  0.9133 -1.0569 -1.3236
19272TIP3    H279232   1.237   6.356  14.309  0.5522  0.8592  1.1249
19273TIP3   OH279233   2.256   5.260  16.692 -0.2066  0.3957  0.5563
19273TIP3    H179234   2.311   5.336  16.711 -1.4198  1.1841  1.0603
19273TIP3    H279235   2.177   5.296  16.652 -1.1430 -0.5034  1.5161
19274TIP3   OH279236   6.604   6.015   3.389 -0.3474 -0.1036  0.1041
19274TIP3    H179237   6.564   5.951   3.448  2.3343 -2.7649 -0.6702
19274TIP3    H279238   6.587   5.980   3.301 -0.4653  1.3501 -0.4742
19275TIP3   OH279239   4.718   1.245  16.957  0.2378 -0.1670 -0.0648
19275TIP3    H179240   4.724   1.155  16.987  0.0253 -0.2132 -0.1596
19275TIP3    H279241   4.786   1.292  17.006 -0.8259  0.0008  1.3299
19276TIP3   OH279242   4.781   5.586  14.208  0.3004 -0.1604 -0.4567
19276TIP3    H179243   4.846   5.559  14.144 -0.0235  0.7000 -1.1558
19276TIP3    H279244   4.832   5.632  14.275  0.6847 -1.3586  0.1161
19277TIP3   OH279245   5.041   0.304  15.798  0.0657  0.0973 -0.0844
19277TIP3    H179246   5.010   0.214  15.812  2.1845 -1.0835 -2.2118
19277TIP3    H279247   5.118   0.312  15.855 -0.4146  0.7776  0.4849
19278TIP3   OH279248   0.560   0.858   3.379 -0.2964  0.2463  0.1793
19278TIP3    H179249   0.509   0.831   3.455  0.1376 -1.3527 -0.0471
19278TIP3    H279250   0.556   0.783   3.320  0.1718  1.0830 -0.9623
19279TIP3   OH279251   4.830   1.392   2.873 -0.3218  0.6655  0.4091
19279TIP3    H179252   4.831   1.487   2.869  0.1406  0.6402 -0.1990
19279TIP3    H279253   4.852   1.364   2.784 -0.2194 -0.0039  0.6410
19280TIP3   OH279254   3.099   3.110  12.081  0.4209 -0.1697 -0.2506
19280TIP3    H179255   3.035   3.180  12.093  1.5362  0.6793  0.9353
19280TIP3    H279256   3.103   3.097  11.986  0.4402  1.6383 -0.5247
19281TIP3   OH279257   6.569   2.822   4.269 -0.2053  0.5293 -0.4559
19281TIP3    H179258   6.643   2.862   4.224 -0.5451  0.0313 -1.4794
19281TIP3    H279259   6.551   2.742   4.220 -2.8347  1.7188 -1.6328
19282TIP3   OH279260   2.221   6.631  11.726  0.1845 -0.2338  0.4823
19282TIP3    H179261   2.308   6.615  11.762 -0.4566  1.8393  3.2901
19282TIP3    H279262   2.206   6.724  11.740 -2.9669 -0.7429  1.3335
19283TIP3   OH279263   4.730   0.822   1.380 -0.9135  0.3811 -0.3265
19283TIP3    H179264   4.674   0.746   1.364 -0.9831  0.6406 -1.4160
19283TIP3    H279265   4.674   0.884   1.427 -0.4589 -0.7359  1.8264
19284TIP3   OH279266   5.956   2.330   3.896 -0.4448  0.1654  0.0172
19284TIP3    H179267   6.037   2.372   3.923 -0.0086  0.1572 -1.2057
19284TIP3    H279268   5.974   2.236   3.902 -1.8009 -0.0291  3.9116
19285TIP3   OH279269   0.929   0.046   1.890 -0.6549  0.3507  0.3100
19285TIP3    H179270   0.893   0.009   1.809  0.0956 -1.8422  0.9151
19285TIP3    H279271   0.952   0.136   1.867  1.1583 -0.7017 -2.4510
19286TIP3   OH279272   2.812   4.983   2.085  0.2170  0.2418  0.4357
19286TIP3    H179273   2.817   4.916   2.153 -1.1008 -1.8647 -1.4098
19286TIP3    H279274   2.885   4.963   2.026  1.0326  1.7263  0.8686
19287TIP3   OH279275   5.647   6.591   4.068  0.2596  0.0144 -0.3893
19287TIP3    H179276   5.708   6.579   4.140 -1.0913 -1.9080  0.5331
19287TIP3    H279277   5.690   6.548   3.993  0.5422 -0.3294 -0.0334
19288TIP3   OH279278   3.676   3.132   5.813  0.1772  0.3552  0.4926
19288TIP3    H179279   3.670   3.040   5.786  1.3472  0.4841 -0.2751
19288TIP3    H279280   3.660   3.182   5.733  0.5370  0.8043  0.6974
19289TIP3   OH279281   0.414   6.268  14.159 -0.1462 -0.3551  0.0191
19289TIP3    H179282   0.422   6.337  14.093  1.7228  0.4166  0.9702
19289TIP3    H279283   0.343   6.212  14.127 -0.9889  1.3737 -1.3475
19290TIP3   OH279284   6.752   2.785  10.604 -1.3133  0.0517 -0.6853
19290TIP3    H179285   6.814   2.841  10.650 -0.1051 -1.5326 -0.2684
19290TIP3    H279286   6.683   2.844  10.573  1.1419  2.1345 -2.5210
19291TIP3   OH279287   6.357   5.625   0.969  0.3842  0.3358  0.5226
19291TIP3    H179288   6.437   5.600   1.016  0.8126  0.5239 -0.0935
19291TIP3    H279289   6.354   5.566   0.894  0.2517  0.7174  0.2301
19292TIP3   OH279290   3.276   4.273  13.535  0.2429  0.3271 -0.5989
19292TIP3    H179291   3.353   4.289  13.589 -0.0753  1.4052 -0.4382
19292TIP3    H279292   3.219   4.219  13.590  0.1774  0.9233 -0.0639
19293TIP3   OH279293   2.159   5.182   3.474 -0.5142 -0.0964  0.4990
19293TIP3    H179294   2.207   5.254   3.515 -1.2438  0.4103  0.4840
19293TIP3    H279295   2.177   5.106   3.529 -0.6692  0.3567  1.1748
19294TIP3   OH279296   4.420   2.094   4.254 -0.1888 -0.7454  0.0102
19294TIP3    H179297   4.481   2.080   4.326 -0.7548  0.6649  0.8203
19294TIP3    H279298   4.395   2.187   4.261 -2.0176 -1.1422 -0.5924
19295TIP3   OH279299   3.110   5.860   6.621  0.2255  0.1547 -0.4681
19295TIP3    H179300   3.043   5.824   6.680  0.2692  0.1396 -0.4279
19295TIP3    H279301   3.104   5.805   6.542 -0.2297  0.5352 -0.7076
19296TIP3   OH279302   4.435   1.105   4.913  0.0512  0.2549 -0.2122
19296TIP3    H179303   4.408   1.097   5.004 -0.6369  1.5689 -0.2699
19296TIP3    H279304   4.362   1.069   4.863 -0.2253  0.8993 -0.2794
19297TIP3   OH279305   1.990   0.545   1.931 -0.3663 -0.1592  0.3675
19297TIP3    H179306   1.961   0.580   2.015  0.2799  1.1345  0.0856
19297TIP3    H279307   1.976   0.616   1.868  0.6461 -0.5223 -0.3098
19298TIP3   OH279308   6.220   6.114   4.343  0.4722  0.1317  0.3331
19298TIP3    H179309   6.201   6.202   4.374  0.4342  1.2221 -2.4439
19298TIP3    H279310   6.141   6.063   4.362 -0.7079  1.5205 -0.6778
19299TIP3   OH279311   4.713   6.147  14.066 -0.4797  0.1978  0.2439
19299TIP3    H179312   4.646   6.214  14.055 -0.8614 -0.3206 -0.8040
19299TIP3    H279313   4.796   6.195  14.065 -0.8160  1.1424  4.0436
19300TIP3   OH279314   3.555   1.652  10.608  0.1820 -0.2439 -0.0745
19300TIP3    H179315   3.490   1.631  10.675  3.2618 -0.0370  3.3420
19300TIP3    H279316   3.538   1.744  10.586  0.8743  0.6990  2.8888
19301TIP3   OH279317   4.374   0.561  14.113  0.2410  0.8541  0.3933
19301TIP3    H179318   4.364   0.599  14.201 -0.5344  1.3169  0.1112
19301TIP3    H279319   4.287   0.530  14.091  0.4903  0.5156 -0.1250
19302TIP3   OH279320   2.580   0.218   2.357 -0.4630 -0.3908  0.2951
19302TIP3    H179321   2.649   0.178   2.305 -0.0392  0.5224  0.1354
19302TIP3    H279322   2.499   0.190   2.314 -0.1722 -0.8824  0.0534
19303TIP3   OH279323   3.052   2.028  15.734  0.0957 -0.3138  0.4032
19303TIP3    H179324   2.972   1.975  15.738  0.0461 -0.2107  0.7821
19303TIP3    H279325   3.022   2.116  15.715  0.1022 -0.2253  0.8140
19304TIP3   OH279326   5.314   5.387  17.052 -0.0883  0.0426 -0.0630
19304TIP3    H179327   5.243   5.328  17.076  0.4774 -0.3693  0.6545
19304TIP3    H279328   5.342   5.358  16.966 -1.1669  0.5900 -0.6322
19305TIP3   OH279329   2.350   0.334  11.559  0.5588 -0.4642 -0.1513
19305TIP3    H179330   2.306   0.410  11.522  0.8158  0.4995  1.4480
19305TIP3    H279331   2.317   0.260  11.508 -1.2127  0.4823 -0.4452
19306TIP3   OH279332   0.355   4.173  14.304 -0.2538 -0.7906 -0.2506
19306TIP3    H179333   0.352   4.245  14.368 -1.0756 -0.8901 -0.1629
19306TIP3    H279334   0.398   4.101  14.350  0.1918 -0.4984 -0.1991
19307TIP3   OH279335   4.217   0.975  16.675 -0.6185  0.6836 -0.4408
19307TIP3    H179336   4.221   0.884  16.644 -0.0967  0.5759 -0.0669
19307TIP3    H279337   4.292   1.017  16.635  0.5682  0.3347  1.2936
19308TIP3   OH279338   2.186   2.450  11.012 -0.1778 -0.0881  0.3197
19308TIP3    H179339   2.155   2.455  11.102  0.2267  1.5054  0.4038
19308TIP3    H279340   2.279   2.473  11.017 -0.2078  0.2614 -0.5282
19309TIP3   OH279341   1.116   0.885   6.422  0.0795 -0.4132 -0.4050
19309TIP3    H179342   1.095   0.803   6.467  0.1263 -0.3885 -0.3395
19309TIP3    H279343   1.211   0.891   6.426  0.0894 -0.4392 -0.5553
19310TIP3   OH279344   5.918   6.181   2.025  0.7537  0.1162 -0.0438
19310TIP3    H179345   5.947   6.107   2.079  0.5465  0.9297  1.2391
19310TIP3    H279346   5.878   6.241   2.088 -0.4475  0.6368 -1.2770
19311TIP3   OH279347   5.883   5.535   1.373 -0.4138  0.4912 -0.4245
19311TIP3    H179348   5.975   5.544   1.398 -1.1179 -0.9368  3.4456
19311TIP3    H279349   5.879   5.453   1.324  0.3193  0.2326 -0.0639
19312TIP3   OH279350   6.538   6.559  12.488  0.3844  0.3104 -0.2398
19312TIP3    H179351   6.580   6.625  12.433 -1.4791  0.7225 -1.2534
19312TIP3    H279352   6.515   6.606  12.568  1.2561  0.2349  0.0660
19313TIP3   OH279353   0.762   2.208  14.103  0.3992  0.0753 -0.2773
19313TIP3    H179354   0.745   2.245  14.190 -1.8312 -1.2663 -0.0730
19313TIP3    H279355   0.853   2.232  14.084  0.1888  2.4885  1.3607
19314TIP3   OH279356   0.524   1.185   5.466 -0.1667 -0.2424  0.5034
19314TIP3    H179357   0.438   1.190   5.424 -0.0942 -1.2393  0.2174
19314TIP3    H279358   0.586   1.212   5.398 -0.2068 -0.0379  0.5476
19315TIP3   OH279359   4.682   3.731   0.149 -0.4895 -0.3540  0.1506
19315TIP3    H179360   4.631   3.802   0.111 -0.2163 -0.5336 -0.5820
19315TIP3    H279361   4.720   3.686   0.073 -0.5499 -1.1949  0.6102
19316TIP3   OH279362   2.516   0.429  12.058  0.2908  0.2392  0.2986
19316TIP3    H179363   2.493   0.503  12.114  2.0743  0.5752  0.6552
19316TIP3    H279364   2.612   0.431  12.054  0.3500 -1.6738 -0.2132
19317TIP3   OH279365   0.788   3.531   2.355  0.0343  0.0767 -0.3100
19317TIP3    H179366   0.827   3.443   2.357 -1.3037 -0.5735 -1.2789
19317TIP3    H279367   0.704   3.519   2.311 -1.0125  1.5403  1.1874
19318TIP3   OH279368   6.315   4.840   5.357 -0.1164  0.3459  0.1483
19318TIP3    H179369   6.335   4.845   5.450 -0.9242 -0.2209  0.3541
19318TIP3    H279370   6.237   4.895   5.346  0.8559  1.6809 -0.4751
19319TIP3   OH279371   4.654   3.587   4.148 -0.0547  0.4819 -0.5641
19319TIP3    H179372   4.626   3.521   4.211  1.0640  1.8312  1.4520
19319TIP3    H279373   4.725   3.544   4.099  0.5750  0.1091  0.6333
19320TIP3   OH279374   1.495   3.517   0.741 -0.2912 -0.0263 -0.1201
19320TIP3    H179375   1.419   3.481   0.785  2.0028 -2.0227  2.5492
19320TIP3    H279376   1.535   3.442   0.696  1.2106  0.4679  0.3205
19321TIP3   OH279377   3.329   2.915  13.314  0.4686 -0.4609 -0.5750
19321TIP3    H179378   3.294   2.877  13.394  0.0687 -0.2814 -0.6600
19321TIP3    H279379   3.384   2.847  13.276  1.5438 -0.1794  0.4049
19322TIP3   OH279380   4.770   4.011  13.854 -0.1903 -0.5791 -0.1836
19322TIP3    H179381   4.690   4.054  13.883 -0.9741 -1.7386 -0.5576
19322TIP3    H279382   4.820   4.081  13.811 -1.1078  0.1045 -0.1704
19323TIP3   OH279383   4.551   6.692   5.953  0.4003  0.2120  0.1805
19323TIP3    H179384   4.496   6.615   5.970  0.2392  0.9346  3.7601
19323TIP3    H279385   4.492   6.767   5.965  1.3395  0.9314  0.4396
19324TIP3   OH279386   3.888   3.390  16.322  0.7087  0.4365 -0.3475
19324TIP3    H179387   3.862   3.447  16.249 -0.7076 -0.0813 -0.2865
19324TIP3    H279388   3.961   3.435  16.363 -1.2511  3.0368  0.5949
19325TIP3   OH279389   4.642   3.116  15.885 -0.2476  0.0697 -0.3646
19325TIP3    H179390   4.549   3.139  15.881 -0.4978 -1.0994 -1.8741
19325TIP3    H279391   4.670   3.110  15.794  0.7045 -1.8960 -0.0052
19326TIP3   OH279392   4.480   6.554  12.600  0.0294  0.0454 -0.2082
19326TIP3    H179393   4.428   6.478  12.626  1.5945 -0.8178  0.5378
19326TIP3    H279394   4.441   6.582  12.517 -0.9370 -1.2126 -0.2195
19327TIP3   OH279395   5.399   3.172  14.571  0.4053 -0.5895  0.1391
19327TIP3    H179396   5.304   3.186  14.579  0.2014 -0.2089 -2.0812
19327TIP3    H279397   5.409   3.129  14.486  2.2947  0.2825 -0.1318
19328TIP3   OH279398   0.451   1.762   5.190 -0.8513  0.6559  0.0679
19328TIP3    H179399   0.477   1.685   5.242  0.6988  1.1065 -0.0005
19328TIP3    H279400   0.418   1.824   5.254  0.3203  0.9077  0.4478
19329TIP3   OH279401   3.445   3.493   3.966 -0.3121 -0.1395 -0.1939
19329TIP3    H179402   3.457   3.551   3.890 -1.3102  0.8879  0.4072
19329TIP3    H279403   3.498   3.416   3.945 -0.4615  0.1626 -1.8859
19330TIP3   OH279404   4.933   2.553  14.331  0.0569  0.4360 -0.7179
19330TIP3    H179405   4.922   2.467  14.371  3.3292  0.4033  0.4355
19330TIP3    H279406   4.884   2.548  14.249 -0.2386 -2.3470 -0.4663
19331TIP3   OH279407   0.773   2.395   4.949 -0.2859 -0.2105 -0.4233
19331TIP3    H179408   0.688   2.437   4.936 -0.1583  1.5025  3.0419
19331TIP3    H279409   0.823   2.418   4.871 -2.7517 -0.8555 -2.3451
19332TIP3   OH279410   4.880   0.771  13.887 -0.0782  0.8116 -0.3972
19332TIP3    H179411   4.860   0.679  13.903 -1.2001  1.2579  0.9049
19332TIP3    H279412   4.823   0.796  13.814  0.2135  0.5033 -0.7377
19333TIP3   OH279413   1.624   2.526   6.357 -0.6283  0.4201 -0.0060
19333TIP3    H179414   1.544   2.508   6.406 -0.0816  0.8842  1.0858
19333TIP3    H279415   1.649   2.615   6.382  0.7538 -0.0630  0.4431
19334TIP3   OH279416   5.194   6.033  14.640  0.3454 -0.6275  0.1350
19334TIP3    H179417   5.196   6.026  14.545 -0.1187  1.3933 -0.0668
19334TIP3    H279418   5.266   6.093  14.661 -0.1587 -0.2875  0.9595
19335TIP3   OH279419   0.132   5.083   1.807 -0.1688 -0.1494 -0.0143
19335TIP3    H179420   0.211   5.103   1.755 -0.9758  1.4139 -0.7158
19335TIP3    H279421   0.106   4.996   1.778  2.1383 -1.4033  1.3624
19336TIP3   OH279422   0.684   0.444  15.462 -0.3477  0.0364  0.2087
19336TIP3    H179423   0.701   0.427  15.369  0.2671 -0.9083  0.4841
19336TIP3    H279424   0.710   0.536  15.474 -0.1986  0.0932 -0.4972
19337TIP3   OH279425   0.525   4.637  14.630  0.2240  0.3265 -0.6789
19337TIP3    H179426   0.480   4.694  14.692 -1.7120  0.8175 -2.3938
19337TIP3    H279427   0.598   4.689  14.598 -0.7381  1.3907 -1.2427
19338TIP3   OH279428   3.146   5.289  17.002  0.7128  0.0970 -0.0370
19338TIP3    H179429   3.131   5.383  16.993  1.5581  0.2462  0.0010
19338TIP3    H279430   3.209   5.268  16.933 -1.0287 -0.8694 -1.4483
19339TIP3   OH279431   6.530   1.228  13.069  0.4401 -0.0626  0.0616
19339TIP3    H179432   6.511   1.141  13.106  0.6410 -0.5136 -0.8796
19339TIP3    H279433   6.448   1.276  13.079 -0.6773 -1.3449 -2.1531
19340TIP3   OH279434   4.342   4.622  12.684 -0.0154 -0.8194 -0.5635
19340TIP3    H179435   4.406   4.655  12.746 -0.9440  0.9924 -0.4789
19340TIP3    H279436   4.374   4.651  12.598 -0.1711 -0.8334 -0.6279
19341TIP3   OH279437   6.100   4.963  13.003 -0.1780  0.4601 -0.0183
19341TIP3    H179438   6.022   4.941  12.952  1.1096 -2.3314 -1.0149
19341TIP3    H279439   6.159   5.004  12.939  0.3042 -0.3134 -0.0916
19342TIP3   OH279440   0.410   6.269  13.533 -0.3785  0.0493  0.1305
19342TIP3    H179441   0.331   6.280  13.481 -1.1997  0.5470  1.4466
19342TIP3    H279442   0.435   6.358  13.558  0.6268 -0.1011 -0.2846
19343TIP3   OH279443   6.148   1.232  12.868 -0.1641 -0.5665  0.9331
19343TIP3    H179444   6.106   1.293  12.807  0.9537  0.6599  1.3431
19343TIP3    H279445   6.228   1.206  12.823  0.5854  0.2143  1.7662
19344TIP3   OH279446   0.084   4.727  11.078 -0.8815 -0.6550 -0.0997
19344TIP3    H179447   0.046   4.647  11.113 -0.1605 -1.8878 -1.9776
19344TIP3    H279448   0.176   4.724  11.104 -0.7985 -0.5660 -0.3741
19345TIP3   OH279449   4.903   5.079  16.800  0.1896  0.2562  0.5603
19345TIP3    H179450   4.843   5.074  16.875  1.0597  0.4046  1.2908
19345TIP3    H279451   4.900   5.170  16.772  0.6539  0.4440  1.1012
19346TIP3   OH279452   4.068   3.794   0.909 -0.2005 -0.2584  0.1381
19346TIP3    H179453   4.045   3.856   0.840 -1.9881 -0.5324  0.4621
19346TIP3    H279454   4.118   3.726   0.864 -0.7811 -0.0989 -0.7574
19347TIP3   OH279455   0.152   5.766  16.966  0.6848  0.0386  0.0514
19347TIP3    H179456   0.125   5.687  16.920 -0.2605  0.0544  0.5556
19347TIP3    H279457   0.170   5.736  17.055 -2.8755  0.8459  1.1990
19348TIP3   OH279458   6.263   0.428   1.038 -0.1251  0.6757 -0.3864
19348TIP3    H179459   6.280   0.365   1.108  1.3668 -0.5989 -1.7898
19348TIP3    H279460   6.209   0.380   0.975 -3.1566  2.4169  0.6734
19349TIP3   OH279461   2.457   1.303  11.207 -0.0114  0.2821 -0.1209
19349TIP3    H179462   2.442   1.394  11.231 -0.6693  0.7937 -2.2600
19349TIP3    H279463   2.518   1.308  11.133 -0.5613 -0.9706 -0.6848
19350TIP3   OH279464   5.834   2.488  13.588 -0.3257  0.9377 -0.5626
19350TIP3    H179465   5.905   2.536  13.631 -1.4161  1.0933  1.1472
19350TIP3    H279466   5.878   2.420  13.537  1.0596 -0.3854  2.1683
19351TIP3   OH279467   0.412   6.596  11.259 -0.1121 -0.0387 -0.0395
19351TIP3    H179468   0.343   6.531  11.247 -0.3041  0.1789 -0.1372
19351TIP3    H279469   0.364   6.679  11.271  0.1488  0.2359 -0.8434
19352TIP3   OH279470   3.921   4.659   4.732 -0.0778 -0.0022  0.2210
19352TIP3    H179471   3.946   4.673   4.641 -0.7655  0.7714  0.1412
19352TIP3    H279472   3.936   4.743   4.774 -2.2847  0.4482  0.2196
19353TIP3   OH279473   0.976   5.120  11.554  0.0559 -0.1134 -1.1071
19353TIP3    H179474   0.907   5.067  11.593  1.3003 -1.9794 -1.2777
19353TIP3    H279475   0.931   5.195  11.516 -1.6371 -0.3150  0.3961
19354TIP3   OH279476   0.102   1.510  14.067  0.2680  0.6900  0.0386
19354TIP3    H179477   0.162   1.514  13.992 -1.8396 -0.4111 -1.8205
19354TIP3    H279478   0.054   1.429  14.054 -1.4969  1.4316  1.5700
19355TIP3   OH279479   1.716   2.789  12.422 -0.1360 -0.2023  0.1942
19355TIP3    H179480   1.773   2.813  12.495 -0.2314  1.0176 -0.1155
19355TIP3    H279481   1.763   2.718  12.379  0.6947  0.1340  0.5127
19356TIP3   OH279482   4.224   6.714   2.801  0.7057  0.5766 -0.3500
19356TIP3    H179483   4.210   6.730   2.894  1.0598 -1.4626  0.1134
19356TIP3    H279484   4.144   6.669   2.772  1.6767 -1.2982 -0.3065
19357TIP3   OH279485   2.507   4.754  14.118 -0.0655  0.6344 -0.6957
19357TIP3    H179486   2.498   4.723  14.208 -1.4584  0.7958 -0.7525
19357TIP3    H279487   2.426   4.802  14.101 -0.3988 -0.4536 -2.4365
19358TIP3   OH279488   6.222   0.181  14.979 -0.1505  0.3631 -0.4385
19358TIP3    H179489   6.138   0.171  15.023  0.4313  0.9243  0.8276
19358TIP3    H279490   6.199   0.205  14.889 -1.4197 -2.9239 -1.1561
19359TIP3   OH279491   3.072   4.929  13.313  0.8607  0.2010 -0.0986
19359TIP3    H179492   3.035   4.989  13.378 -0.0946 -1.2789  0.7719
19359TIP3    H279493   3.141   4.980  13.271 -1.2247  2.6410 -0.8442
19360TIP3   OH279494   4.894   4.050  11.465 -0.1687  0.5492 -0.5518
19360TIP3    H179495   4.898   3.969  11.517 -1.0115 -0.0820 -1.4171
19360TIP3    H279496   4.885   4.120  11.530 -0.1084 -0.1112  0.1894
19361TIP3   OH279497   1.021   1.805  13.939 -0.6343 -0.0019 -0.1995
19361TIP3    H179498   0.971   1.743  13.887 -1.6439  0.1172  0.6074
19361TIP3    H279499   0.964   1.826  14.013  0.0024  1.3019 -0.0582
19362TIP3   OH279500   1.919   3.697  15.406  0.1008  0.5799  0.3702
19362TIP3    H179501   1.829   3.677  15.431  0.6516 -2.0288  0.4676
19362TIP3    H279502   1.931   3.653  15.322  0.8103  2.3700 -0.5379
19363TIP3   OH279503   2.256   3.394  11.318 -0.2909 -0.4349  0.8322
19363TIP3    H179504   2.236   3.303  11.298  1.1392 -0.7557  0.7660
19363TIP3    H279505   2.263   3.437  11.233 -0.2813 -0.4284  0.8363
19364TIP3   OH279506   5.050   0.132  14.856  0.7772 -0.3001 -0.0732
19364TIP3    H179507   5.018   0.221  14.869 -0.0890 -0.6541  0.2836
19364TIP3    H279508   5.080   0.130  14.765 -1.1227 -0.2079 -0.7569
19365TIP3   OH279509   5.589   4.159  11.035  0.3591 -0.6902 -0.1788
19365TIP3    H179510   5.528   4.222  10.997  1.2129  0.4970  0.3713
19365TIP3    H279511   5.567   4.157  11.128  1.0319 -0.3718 -0.0027
19366TIP3   OH279512   1.050   0.532  13.079 -0.1375 -0.4367  0.0440
19366TIP3    H179513   0.955   0.548  13.081  0.0482  0.6943  0.4207
19366TIP3    H279514   1.068   0.484  13.160 -0.3329 -0.3364  0.1469
19367TIP3   OH279515   0.038   1.321  10.920 -0.2694  0.5398  0.7657
19367TIP3    H179516   0.031   1.281  10.834  0.6763 -1.4286  1.5145
19367TIP3    H279517   0.014   1.413  10.907 -1.0712  0.0854 -1.3756
19368TIP3   OH279518   2.351   1.187  15.134  0.1649 -0.5441 -0.7731
19368TIP3    H179519   2.369   1.094  15.150 -0.1970 -0.8617 -2.0682
19368TIP3    H279520   2.436   1.229  15.137  0.4765 -1.1190 -1.3157
19369TIP3   OH279521   5.783   6.530   0.972 -0.4278 -0.1778  0.5011
19369TIP3    H179522   5.775   6.448   1.019 -1.1508 -0.6295 -0.3733
19369TIP3    H279523   5.797   6.596   1.040 -2.5184 -0.6475  1.4854
19370TIP3   OH279524   0.041   6.100   2.829  0.1830 -0.3842 -0.0097
19370TIP3    H179525   0.105   6.114   2.898 -0.7431 -2.8224  1.4742
19370TIP3    H279526  -0.023   6.171   2.841 -0.0921 -0.9060  1.8410
19371TIP3   OH279527   6.151   3.983   1.928  0.7383  0.1491  0.1976
19371TIP3    H179528   6.130   3.900   1.886 -0.0099  1.0244 -1.2682
19371TIP3    H279529   6.109   3.978   2.014 -1.4356 -0.0735 -0.8017
19372TIP3   OH279530   3.473   6.286   1.261 -0.3928 -0.1418  0.1553
19372TIP3    H179531   3.431   6.362   1.221  2.0720  0.3265 -1.7819
19372TIP3    H279532   3.523   6.322   1.335 -1.7235 -0.4152  1.2317
19373TIP3   OH279533   5.620   4.142   0.425 -0.2775 -0.1502 -0.1855
19373TIP3    H179534   5.537   4.173   0.387  0.5379 -0.9994 -2.8798
19373TIP3    H279535   5.687   4.194   0.381  0.7057 -0.0774  1.3333
19374TIP3   OH279536   2.774   5.375   5.055  0.0949  0.2818 -0.0293
19374TIP3    H179537   2.679   5.380   5.056 -0.0151 -1.1108 -1.1249
19374TIP3    H279538   2.803   5.466   5.048 -1.1286  0.7447  0.7034
19375TIP3   OH279539   3.305   5.781   1.301  0.2055 -0.1389 -0.5378
19375TIP3    H179540   3.360   5.718   1.348 -0.0405 -0.8195 -1.1555
19375TIP3    H279541   3.366   5.848   1.271  0.1320  1.5954  2.6982
19376TIP3   OH279542   4.380   6.496  15.296 -0.2412 -0.1720 -0.1287
19376TIP3    H179543   4.409   6.470  15.208 -0.0239  1.2299 -0.4896
19376TIP3    H279544   4.443   6.562  15.324  0.5386 -1.6179  1.7179
19377TIP3   OH279545   3.805   6.808  15.848 -0.1236 -0.6843 -0.7585
19377TIP3    H179546   3.828   6.732  15.796  0.1588 -1.0516 -0.1121
19377TIP3    H279547   3.731   6.779  15.902  0.8392 -0.9316  0.4605
19378TIP3   OH279548   0.909   1.533  14.966 -0.0756 -0.1819  0.2953
19378TIP3    H179549   0.949   1.482  14.895 -0.9485 -0.9878  0.3732
19378TIP3    H279550   0.982   1.585  15.001  0.3490  0.3455 -1.2677
19379TIP3   OH279551   0.934   0.895   5.669  0.2195  0.5982 -0.5959
19379TIP3    H179552   0.911   0.955   5.598  0.7146  0.8061 -0.5847
19379TIP3    H279553   1.024   0.919   5.692  0.8238 -0.8667 -1.3284
19380TIP3   OH279554   0.115   0.418   2.030  0.3662  0.3160  0.0736
19380TIP3    H179555   0.195   0.422   1.977  0.7312  0.6137  0.6413
19380TIP3    H279556   0.138   0.460   2.113  0.7641 -2.8986  1.7434
19381TIP3   OH279557   4.038   0.124  16.694 -0.0183 -0.1801 -0.1917
19381TIP3    H179558   4.077   0.042  16.724  0.6637  0.6395  1.3126
19381TIP3    H279559   3.945   0.116  16.715  0.1357 -0.3696  0.4299
19382TIP3   OH279560   6.489   1.788  13.749 -0.3944 -0.9589  0.2316
19382TIP3    H179561   6.560   1.724  13.755 -2.1832 -2.9929  1.1002
19382TIP3    H279562   6.472   1.814  13.840 -0.1267  0.2732 -0.0560
19383TIP3   OH279563   4.712   2.388  12.776  0.6831 -0.2005  0.4002
19383TIP3    H179564   4.781   2.366  12.713  0.1242 -2.8608  0.6164
19383TIP3    H279565   4.725   2.327  12.848 -0.5083  0.8179  1.5284
19384TIP3   OH279566   3.653   2.590  16.470 -0.0328 -0.1944 -0.0112
19384TIP3    H179567   3.567   2.549  16.474  0.1300 -0.5943 -0.5167
19384TIP3    H279568   3.674   2.595  16.376  1.2632 -1.7312  0.1524
19385TIP3   OH279569   2.750   6.237  13.340  0.1131  0.5373 -0.0895
19385TIP3    H179570   2.688   6.284  13.396  1.4755  1.7657  0.4321
19385TIP3    H279571   2.695   6.199  13.271 -1.2355  1.4403  0.4423
19386TIP3   OH279572   6.186   1.826  15.522 -0.0697 -0.4342  0.0587
19386TIP3    H179573   6.130   1.785  15.457  0.0967  0.0134 -0.3702
19386TIP3    H279574   6.272   1.785  15.509  0.6508  1.5087 -1.7989
19387TIP3   OH279575   1.871   2.019   2.463  0.2376  0.6724  0.2657
19387TIP3    H179576   1.910   1.973   2.537 -0.1216 -0.9131 -0.4940
19387TIP3    H279577   1.945   2.038   2.405  0.4446  1.4525  0.7738
19388TIP3   OH279578   5.474   5.488  16.206 -0.4438  0.3038  0.0103
19388TIP3    H179579   5.559   5.489  16.161  0.8703  0.9649  2.2963
19388TIP3    H279580   5.446   5.580  16.206  0.3588  0.5925  1.7862
19389TIP3   OH279581   2.862   1.914   0.535  0.4790  0.4688  0.6344
19389TIP3    H179582   2.937   1.931   0.479 -0.9971  0.1319 -1.5491
19389TIP3    H279583   2.794   1.972   0.503 -1.1971 -1.5540  0.3438
19390TIP3   OH279584   3.861   3.351  11.732  0.0856 -0.4782 -0.6372
19390TIP3    H179585   3.911   3.270  11.741  0.0884 -0.4445 -0.3548
19390TIP3    H279586   3.916   3.406  11.676  0.5765 -0.2687  0.0385
19391TIP3   OH279587   0.631   1.649   1.398 -0.3497  0.0332 -0.1913
19391TIP3    H179588   0.556   1.602   1.362  0.8553 -2.7473  0.6447
19391TIP3    H279589   0.629   1.630   1.491 -0.1594  2.3236  0.3529
19392TIP3   OH279590   5.004   2.924  12.916 -0.2769  0.1372  0.1580
19392TIP3    H179591   4.921   2.905  12.960 -0.4473  0.1653 -0.1534
19392TIP3    H279592   4.999   3.016  12.894 -0.7128 -0.1585 -1.0288
19393TIP3   OH279593   3.186   5.627   1.974 -0.6597  0.1926  1.1000
19393TIP3    H179594   3.111   5.568   1.968 -0.3509 -0.2898  1.7845
19393TIP3    H279595   3.218   5.635   1.885 -0.5590 -0.8796  1.0273
19394TIP3   OH279596   2.765   5.203   1.203 -0.0592  0.3043  0.1310
19394TIP3    H179597   2.804   5.146   1.136  1.8669  2.1927 -0.4837
19394TIP3    H279598   2.789   5.163   1.286  1.9720  0.5699 -0.2747
19395TIP3   OH279599   5.438   6.048  15.296 -0.0166  0.2117 -0.1145
19395TIP3    H179600   5.366   5.986  15.310  1.2439 -1.2109  0.2983
19395TIP3    H279601   5.394   6.130  15.273 -1.7469 -0.8819 -0.9852
19396TIP3   OH279602   2.316   6.067   5.488  0.3097  0.2685 -0.0991
19396TIP3    H179603   2.388   6.053   5.426  0.5413  2.3248 -0.3858
19396TIP3    H279604   2.246   6.105   5.436 -0.0767  0.5661  0.6186
19397TIP3   OH279605   0.402   0.129   6.198  0.0926 -0.3571  0.3825
19397TIP3    H179606   0.391   0.041   6.233  0.6406 -1.2773 -1.6249
19397TIP3    H279607   0.350   0.130   6.117  0.8594  0.8366 -0.1264
19398TIP3   OH279608   4.878   3.477  15.718  0.1267  0.1715 -0.2696
19398TIP3    H179609   4.923   3.396  15.693 -0.4670  0.7123 -3.4524
19398TIP3    H279610   4.939   3.521  15.778 -0.1698 -3.2117  2.8769
19399TIP3   OH279611   6.016   5.960   4.325 -0.4255  0.4387 -0.1469
19399TIP3    H179612   6.067   5.932   4.250 -1.9824  0.4678 -1.2640
19399TIP3    H279613   5.946   6.014   4.288 -2.0798 -0.7166  1.1518
19400TIP3   OH279614   0.061   5.577  16.317  0.2906  0.7365  0.1453
19400TIP3    H179615   0.128   5.639  16.345 -0.4593  0.8256  1.8480
19400TIP3    H279616   0.073   5.570  16.222  2.7476  0.6890  0.3877
19401TIP3   OH279617   5.852   6.332   2.265  0.0294  0.1045  0.0515
19401TIP3    H179618   5.800   6.394   2.316  0.2081 -0.5341  1.0374
19401TIP3    H279619   5.926   6.310   2.321  1.0672  0.5511 -1.1127
19402TIP3   OH279620   3.886   0.691  12.458  0.1012  0.2136  0.5985
19402TIP3    H179621   3.853   0.773  12.419  0.5896  0.3390  0.4474
19402TIP3    H279622   3.907   0.636  12.383  0.4124  0.2041  0.6930
19403TIP3   OH279623   1.343   3.272  11.299 -0.1895  0.4427 -0.7133
19403TIP3    H179624   1.322   3.191  11.253 -1.4363  0.5747 -0.4067
19403TIP3    H279625   1.370   3.333  11.231  0.0693 -0.0141 -1.0236
19404TIP3   OH279626   2.675   5.330   6.075  0.7093 -0.1357  0.1795
19404TIP3    H179627   2.734   5.311   6.002  0.4542 -1.7234  0.3662
19404TIP3    H279628   2.733   5.342   6.150  0.8516 -0.5404  0.1322
19405TIP3   OH279629   6.131   0.251   3.759  0.2786  0.6934  0.1574
19405TIP3    H179630   6.064   0.252   3.827  0.2866  1.8246  0.1716
19405TIP3    H279631   6.210   0.285   3.801  0.5356  0.5107 -0.1696
19406TIP3   OH279632   0.083   0.718   4.291  0.0173 -0.3979 -0.1696
19406TIP3    H179633   0.042   0.740   4.375  1.2190 -1.0852  0.6281
19406TIP3    H279634   0.120   0.800   4.260 -2.8111  0.5020 -1.4559
19407TIP3   OH279635   3.198   0.077   4.735 -0.2978 -0.0851  0.3363
19407TIP3    H179636   3.212   0.172   4.742 -1.7797  0.1752  0.0698
19407TIP3    H279637   3.171   0.051   4.823 -2.2092  0.1860 -0.1296
19408TIP3   OH279638   5.820   3.878   0.220  0.0968 -0.2953 -0.2758
19408TIP3    H179639   5.905   3.908   0.249  0.4146 -1.5536  0.1484
19408TIP3    H279640   5.788   3.823   0.291 -1.0461  0.0942 -0.4631
19409TIP3   OH279641   4.990   3.917   5.265  0.2272  0.1464 -0.3689
19409TIP3    H179642   4.959   3.838   5.222 -0.9691 -1.6343  3.3696
19409TIP3    H279643   4.910   3.966   5.287  0.7425  0.7466  0.2312
19410TIP3   OH279644   0.490   2.998   5.237  0.3061 -0.3655 -0.0809
19410TIP3    H179645   0.472   2.907   5.214 -1.3772  0.0844 -0.7135
19410TIP3    H279646   0.469   3.004   5.330 -1.6908 -0.1917 -0.4889
19411TIP3   OH279647   4.521   2.344   0.086 -0.4706 -0.0394 -0.2987
19411TIP3    H179648   4.469   2.413   0.128 -2.3547 -0.7501 -1.3770
19411TIP3    H279649   4.498   2.264   0.134  0.4215 -0.2241 -0.1508
19412TIP3   OH279650   6.456   3.077  11.558  0.5078  0.4318  0.1827
19412TIP3    H179651   6.381   3.133  11.575  0.0863 -0.0554 -0.0594
19412TIP3    H279652   6.528   3.118  11.607  0.8560  2.6212 -1.9686
19413TIP3   OH279653   1.209   6.682   0.397  0.3267  0.2606  0.5717
19413TIP3    H179654   1.215   6.668   0.303  0.8377  2.7159  0.1830
19413TIP3    H279655   1.267   6.756   0.415 -0.2809  0.3030  2.7145
19414TIP3   OH279656   1.592   6.075   3.182 -0.2890 -0.0774  0.2702
19414TIP3    H179657   1.630   5.990   3.162 -1.5459 -0.6067  0.0935
19414TIP3    H279658   1.511   6.079   3.131 -1.0273  0.5756  1.4430
19415TIP3   OH279659   2.816   5.701   2.720  0.1202 -0.3518  0.3151
19415TIP3    H179660   2.811   5.729   2.628 -1.1803  0.1780  0.5227
19415TIP3    H279661   2.805   5.606   2.717  0.3642 -0.3677 -0.0986
19416TIP3   OH279662   0.071   0.593  16.250  0.0640  0.1033 -0.1454
19416TIP3    H179663   0.134   0.562  16.315 -0.5999 -0.7228  0.1285
19416TIP3    H279664   0.055   0.684  16.274  0.3217 -0.0011  0.4566
19417TIP3   OH279665   0.543   6.337   3.157 -0.3667  0.3369 -0.1340
19417TIP3    H179666   0.531   6.321   3.250 -1.9221  0.0840 -0.3518
19417TIP3    H279667   0.559   6.431   3.151  1.4144  0.1159  0.4981
19418TIP3   OH279668   3.539   3.776   4.251  0.3817 -0.1803  0.3925
19418TIP3    H179669   3.543   3.682   4.268 -2.2450 -0.4266  0.0596
19418TIP3    H279670   3.524   3.815   4.337  1.1616 -0.0849  0.4884
19419TIP3   OH279671   2.487   1.186  14.622  0.5231 -0.8960  0.3535
19419TIP3    H179672   2.508   1.104  14.668 -1.8733 -1.1349  1.1674
19419TIP3    H279673   2.474   1.160  14.531  1.0522 -1.1800  0.3546
19420TIP3   OH279674   5.284   4.322  16.814  0.1700 -0.0246  0.1790
19420TIP3    H179675   5.367   4.297  16.774 -0.6923 -1.0804 -1.0240
19420TIP3    H279676   5.239   4.239  16.829 -0.0237  0.4048  2.3537
19421TIP3   OH279677   4.594   2.782   4.564 -0.4660 -0.0129  0.0364
19421TIP3    H179678   4.579   2.873   4.540  0.5623  0.0683 -0.3433
19421TIP3    H279679   4.680   2.761   4.527 -0.6719 -1.1251  0.1515
19422TIP3   OH279680   6.740   0.189   3.951 -0.4940 -0.1602 -0.4884
19422TIP3    H179681   6.684   0.120   3.986  0.8038 -1.7081 -1.3557
19422TIP3    H279682   6.828   0.166   3.980  0.1182  0.5160 -1.7205
19423TIP3   OH279683   3.706   4.974  16.436  0.0373  0.4714  0.3644
19423TIP3    H179684   3.645   4.901  16.426  1.8870 -0.8809 -2.3462
19423TIP3    H279685   3.665   5.047  16.391 -0.3927  0.1417  0.2158
19424TIP3   OH279686   2.734   5.756  11.651  0.4309 -0.4234  0.2981
19424TIP3    H179687   2.782   5.817  11.708 -1.9297  1.2990  0.5861
19424TIP3    H279688   2.680   5.705  11.711 -0.9732  0.3873 -0.2246
19425TIP3   OH279689   0.376   3.673  13.970 -0.1522  0.2003 -0.3907
19425TIP3    H179690   0.353   3.580  13.982 -0.0869  0.0822 -1.1060
19425TIP3    H279691   0.471   3.672  13.957 -0.3811  0.1395 -2.3081
19426TIP3   OH279692   4.374   4.171   1.894 -0.1970  0.5284 -0.2911
19426TIP3    H179693   4.363   4.155   1.987  2.6099  0.7641  0.1719
19426TIP3    H279694   4.359   4.085   1.853  0.2516  0.0291  0.5628
19427TIP3   OH279695   3.730   1.437   1.272 -0.6361  0.4824  0.5133
19427TIP3    H179696   3.768   1.522   1.294  0.8444  0.0005 -0.0311
19427TIP3    H279697   3.770   1.376   1.335 -1.2943  0.1024  0.5718
19428TIP3   OH279698   2.953   1.085  15.475  0.5076 -0.5335  0.0543
19428TIP3    H179699   2.873   1.054  15.520  0.0964 -2.6240 -1.9406
19428TIP3    H279700   2.944   1.180  15.474 -1.3661 -0.6490  0.9360
19429TIP3   OH279701   1.763   5.300  13.275  0.0692  0.0495 -0.0941
19429TIP3    H179702   1.807   5.219  13.251 -0.5732  0.0274 -1.2386
19429TIP3    H279703   1.817   5.369  13.237 -0.5748  0.0451 -1.0499
19430TIP3   OH279704   6.512   6.081  11.246 -0.2822  1.0359  0.0760
19430TIP3    H179705   6.447   6.023  11.285  0.9323 -1.0765 -0.9009
19430TIP3    H279706   6.490   6.083  11.153 -0.5701  2.5718  0.1416
19431TIP3   OH279707   2.616   2.807  15.707 -0.3810 -0.4277  0.5383
19431TIP3    H179708   2.683   2.844  15.765  0.0995 -0.0383 -0.2515
19431TIP3    H279709   2.647   2.828  15.619 -0.5211 -2.0111  0.0956
19432TIP3   OH279710   3.276   0.193   1.115  0.4474  0.0770  0.2749
19432TIP3    H179711   3.247   0.205   1.205  0.7586 -0.4499  0.4510
19432TIP3    H279712   3.195   0.177   1.066  0.3271 -0.1941  0.5571
19433TIP3   OH279713   4.439   1.027  11.715  0.3123 -0.0312  0.8141
19433TIP3    H179714   4.353   1.016  11.673  1.0311 -0.4151 -0.6065
19433TIP3    H279715   4.445   1.121  11.732  0.3222  0.2602 -0.6881
19434TIP3   OH279716   0.619   5.031  14.182  0.3460 -0.4856  0.0721
19434TIP3    H179717   0.570   4.982  14.116  1.0106  0.2309 -0.9916
19434TIP3    H279718   0.582   5.003  14.265 -0.5202 -1.4186 -0.6008
19435TIP3   OH279719   0.719   2.209  14.586 -0.2147 -0.5166 -0.0209
19435TIP3    H179720   0.683   2.122  14.602 -1.3182 -0.4589 -1.8646
19435TIP3    H279721   0.644   2.260  14.556  0.2746  1.2867  1.6638
19436TIP3   OH279722   3.602   3.458   1.835 -0.0722  0.3778  0.2572
19436TIP3    H179723   3.529   3.507   1.798  0.2526  1.1046  0.5624
19436TIP3    H279724   3.616   3.497   1.922  0.5700  0.1359  0.2715
19437TIP3   OH279725   0.174   2.853   2.217  0.3554  0.0175  0.2095
19437TIP3    H179726   0.212   2.856   2.130 -0.5018 -1.1587 -0.2358
19437TIP3    H279727   0.179   2.761   2.243  2.0017  0.5599  2.0712
19438TIP3   OH279728   1.798   6.693   5.070 -0.0467 -0.2657 -0.6834
19438TIP3    H179729   1.771   6.782   5.091  0.6109 -0.5454  1.7084
19438TIP3    H279730   1.731   6.661   5.009 -1.1448  1.3391 -0.3737
19439TIP3   OH279731   2.300   3.872  11.110 -0.1971 -0.3014  0.3846
19439TIP3    H179732   2.277   3.958  11.075  0.7874  0.5044  1.6378
19439TIP3    H279733   2.216   3.827  11.121 -0.6669  0.1545 -1.0882
19440TIP3   OH279734   6.095   3.574  12.489 -0.6780 -0.5941  0.6556
19440TIP3    H179735   6.014   3.607  12.449  0.3955  0.3057 -0.8922
19440TIP3    H279736   6.104   3.484  12.455  0.3683  0.2534 -1.5087
19441TIP3   OH279737   2.217   5.528  13.898 -0.0488 -0.5530  0.7438
19441TIP3    H179738   2.232   5.520  13.992 -0.0064 -1.3631  0.6709
19441TIP3    H279739   2.131   5.570  13.891 -0.5495 -1.4738  1.1513
19442TIP3   OH279740   3.114   2.634   3.033 -0.6613 -0.1223  0.1189
19442TIP3    H179741   3.152   2.555   3.072 -0.3047 -0.3510 -0.6731
19442TIP3    H279742   3.028   2.606   3.002 -0.0708 -0.5243 -1.2179
19443TIP3   OH279743   0.780   3.734   3.460  0.1317  0.0426 -0.1123
19443TIP3    H179744   0.806   3.664   3.401 -0.9324 -3.4060  3.0521
19443TIP3    H279745   0.857   3.749   3.515 -0.1797 -0.0014  0.3479
19444TIP3   OH279746   2.445   0.899  11.582 -0.1346  0.2254  0.3859
19444TIP3    H179747   2.381   0.839  11.621  1.2989 -1.0450  0.8988
19444TIP3    H279748   2.454   0.969  11.647 -0.6616  0.1869  0.5098
19445TIP3   OH279749   3.460   2.488   1.956  0.2770  0.0985 -0.1781
19445TIP3    H179750   3.555   2.497   1.963  0.1767  0.7247  0.6004
19445TIP3    H279751   3.437   2.426   2.025 -0.0859  1.5510  1.0467
19446TIP3   OH279752   1.894   0.631   4.278 -0.0326 -0.3261 -0.0579
19446TIP3    H179753   1.833   0.664   4.212  1.8848  1.4715 -1.0477
19446TIP3    H279754   1.940   0.560   4.235 -2.1676 -2.6128  1.1277
19447TIP3   OH279755   3.178   5.282   1.927  0.1972  0.0717  0.2549
19447TIP3    H179756   3.115   5.211   1.913  0.7065 -0.1525 -0.9922
19447TIP3    H279757   3.252   5.240   1.970  0.1286  0.0289  0.3324
19448TIP3   OH279758   6.559   1.959  14.059  0.1954  0.2225 -0.5729
19448TIP3    H179759   6.578   1.865  14.058  0.4048  0.1969  1.3354
19448TIP3    H279760   6.642   1.999  14.085  0.0217  0.9177 -1.0725
19449TIP3   OH279761   5.083   0.126   0.425 -0.2984 -0.0772  0.2697
19449TIP3    H179762   4.990   0.129   0.447 -0.6733 -0.1515 -1.1566
19449TIP3    H279763   5.106   0.034   0.430 -0.8480 -0.3350 -1.3276
19450TIP3   OH279764   3.615   6.603  13.400  0.1839 -0.1763  0.3329
19450TIP3    H179765   3.573   6.615  13.315  1.7048 -1.3806 -0.6481
19450TIP3    H279766   3.555   6.545  13.448  0.2873 -1.1944 -0.7223
19451TIP3   OH279767   2.561   0.278   4.557  0.2584  0.5667  0.0750
19451TIP3    H179768   2.572   0.302   4.465 -2.1370 -0.1691 -0.4799
19451TIP3    H279769   2.522   0.355   4.598  0.0747  0.4350  0.1506
19452TIP3   OH279770   4.247   3.164   1.039 -0.0038 -0.0972 -0.0837
19452TIP3    H179771   4.225   3.140   0.949  1.6768 -1.6186 -0.1563
19452TIP3    H279772   4.169   3.141   1.090  0.2784 -2.7429 -0.6712
19453TIP3   OH279773   1.141   5.354  16.410  0.3427 -0.3385 -0.9209
19453TIP3    H179774   1.095   5.414  16.351 -2.0721  2.9487  3.6454
19453TIP3    H279775   1.080   5.282  16.423 -0.0591  0.0093 -0.8438
19454TIP3   OH279776   3.197   2.147  14.886 -0.0283 -0.5562 -0.0589
19454TIP3    H179777   3.116   2.131  14.838 -1.4421  2.6523  1.0313
19454TIP3    H279778   3.262   2.167  14.818 -0.8624 -0.3897 -0.8182
19455TIP3   OH279779   5.612   4.561  13.863 -0.0031  0.4589 -0.3912
19455TIP3    H179780   5.691   4.508  13.862 -1.2489 -1.6173  1.2505
19455TIP3    H279781   5.588   4.570  13.770  0.8210 -0.9891 -0.7774
19456TIP3   OH279782   1.553   0.334   1.022 -0.3640 -0.5745 -0.3139
19456TIP3    H179783   1.522   0.278   0.951  0.6075 -0.8198 -0.5520
19456TIP3    H279784   1.592   0.274   1.086 -0.1199 -0.2497 -0.1546
19457TIP3   OH279785   1.151   6.481   0.585  0.1711 -0.4842  0.5369
19457TIP3    H179786   1.147   6.530   0.503  3.0840 -0.8121  0.0736
19457TIP3    H279787   1.099   6.402   0.569  0.6698 -0.5340 -1.0175
19458TIP3   OH279788   1.514   5.585   1.265 -0.0403  0.0499 -0.4925
19458TIP3    H179789   1.565   5.622   1.337 -0.3226 -0.6135  0.0666
19458TIP3    H279790   1.445   5.534   1.309  0.3715 -1.1715 -1.2190
19459TIP3   OH279791   0.033   0.865   3.445  0.2269 -0.0529  0.4592
19459TIP3    H179792   0.048   0.877   3.539 -0.0179  2.8372  0.2099
19459TIP3    H279793   0.113   0.896   3.403  0.3078 -1.2515 -0.3315
19460TIP3   OH279794   5.857   3.036  13.006 -0.5069 -0.0480 -0.2870
19460TIP3    H179795   5.808   2.981  13.068 -2.2100  1.6904  0.0117
19460TIP3    H279796   5.796   3.053  12.935  0.2871  0.7116 -0.8117
19461TIP3   OH279797   0.298   4.885   5.255 -0.6450 -0.6532 -0.2133
19461TIP3    H179798   0.247   4.810   5.288  1.0399 -1.2131  1.2814
19461TIP3    H279799   0.310   4.941   5.331 -1.5612  1.0056 -1.2344
19462TIP3   OH279800   6.649   3.857   5.693  0.3614  0.4151 -0.1338
19462TIP3    H179801   6.722   3.904   5.653  0.7905  0.0926  0.2539
19462TIP3    H279802   6.636   3.780   5.638 -0.1593  0.8337 -0.6092
19463TIP3   OH279803   4.879   0.991   6.110 -0.0066 -0.2607  0.5458
19463TIP3    H179804   4.787   0.965   6.117  0.2903 -1.5280 -0.0024
19463TIP3    H279805   4.928   0.914   6.137  0.9284 -0.4342 -1.4875
19464TIP3   OH279806   4.681   1.247  10.830 -0.2124  0.3578  0.3164
19464TIP3    H179807   4.658   1.338  10.852  3.0824  0.9642  1.9330
19464TIP3    H279808   4.772   1.252  10.801 -0.5446 -2.2495 -1.5604
19465TIP3   OH279809   2.698   1.662  14.861  0.0439  0.1033  0.5451
19465TIP3    H179810   2.688   1.598  14.790  0.5889  0.4147  0.1823
19465TIP3    H279811   2.654   1.741  14.829 -0.6306 -0.0794  0.9937
19466TIP3   OH279812   6.168   2.332   4.391  0.0767  0.1152 -0.2523
19466TIP3    H179813   6.149   2.425   4.394  0.8487  0.2719  0.1797
19466TIP3    H279814   6.212   2.314   4.475 -0.6257 -0.7615 -0.0574
19467TIP3   OH279815   2.989   0.511   4.701 -0.3879 -0.3436  0.5333
19467TIP3    H179816   2.938   0.511   4.620 -0.7643  0.8274  0.7507
19467TIP3    H279817   2.990   0.419   4.729 -0.9129 -0.6400 -0.3795
19468TIP3   OH279818   4.255   6.401  11.350 -0.1274 -0.2371  0.1513
19468TIP3    H179819   4.264   6.496  11.343  0.9262 -0.3282  0.2325
19468TIP3    H279820   4.268   6.369  11.261 -1.5605 -0.2393 -0.0850
19469TIP3   OH279821   6.616   4.980   0.661 -0.1355  0.5019 -0.4375
19469TIP3    H179822   6.698   4.934   0.640 -0.7290 -0.3610 -0.9378
19469TIP3    H279823   6.575   4.925   0.728 -1.6688 -0.6976 -2.2432
19470TIP3   OH279824   5.327   6.577   3.405  0.1775  0.2552  0.3833
19470TIP3    H179825   5.397   6.621   3.454  1.6269 -1.8047  0.2957
19470TIP3    H279826   5.332   6.613   3.317  0.1766  1.1396  0.7376
19471TIP3   OH279827   5.205   2.827   5.009 -0.3032  1.2537 -0.2673
19471TIP3    H179828   5.256   2.780   4.943 -0.6111  0.6934 -0.1135
19471TIP3    H279829   5.239   2.917   5.006  0.6026  0.9211 -0.2484
19472TIP3   OH279830   3.033   6.036  13.603 -0.5650 -0.1259  0.2906
19472TIP3    H179831   3.043   6.069  13.513 -1.7921  0.0711  0.2094
19472TIP3    H279832   3.082   6.098  13.657 -1.1750  0.6951 -0.0780
19473TIP3   OH279833   1.056   6.188  12.851 -0.0582  0.5100 -0.3303
19473TIP3    H179834   0.980   6.170  12.797  0.7127  1.3834 -1.7590
19473TIP3    H279835   1.128   6.199  12.788  1.0929  0.4791  0.9335
19474TIP3   OH279836   5.292   0.967  10.472 -0.1963 -0.1188 -0.5156
19474TIP3    H179837   5.368   0.980  10.415  0.0481 -1.5650 -0.5695
19474TIP3    H279838   5.329   0.964  10.560 -0.3457  0.3466 -0.4362
19475TIP3   OH279839   0.027   6.054   0.375 -0.0544  0.6175  0.3900
19475TIP3    H179840   0.045   6.094   0.289 -0.7146  1.2526  0.5343
19475TIP3    H279841  -0.036   5.984   0.356 -0.1682  0.7303  0.3465
19476TIP3   OH279842   6.331   2.496   2.596 -0.2090  0.5536  0.3037
19476TIP3    H179843   6.304   2.424   2.653 -1.5006 -0.0961 -1.0699
19476TIP3    H279844   6.271   2.492   2.522  3.1512 -0.4209 -2.5915
19477TIP3   OH279845   5.462   1.753  11.842  0.1418  0.4502 -0.8535
19477TIP3    H179846   5.547   1.772  11.804  0.3895  0.5496 -0.2543
19477TIP3    H279847   5.475   1.758  11.936 -0.0865 -1.3599 -0.6792
19478TIP3   OH279848   2.233   4.221   3.954  0.8559  0.8823 -0.1071
19478TIP3    H179849   2.179   4.296   3.929 -0.3229 -0.2516 -1.0492
19478TIP3    H279850   2.172   4.148   3.961  2.2451 -0.4492 -1.2342
19479TIP3   OH279851   3.780   4.493  11.172 -0.5879 -0.3430  0.2174
19479TIP3    H179852   3.784   4.419  11.112 -1.7119  0.9831 -1.5875
19479TIP3    H279853   3.853   4.549  11.145  0.1598 -0.6705  1.4700
19480TIP3   OH279854   0.431   3.478  13.613  0.1553  0.3104  0.6186
19480TIP3    H179855   0.406   3.567  13.590  0.4951  0.1474 -0.4405
19480TIP3    H279856   0.348   3.431  13.624 -0.1066 -0.0102 -1.9885
19481TIP3   OH279857   5.122   4.832  15.744  0.3629 -0.2727  0.4644
19481TIP3    H179858   5.051   4.879  15.787  0.5066 -1.0862  1.6182
19481TIP3    H279859   5.200   4.883  15.762  0.1310  0.5209 -0.6473
19482TIP3   OH279860   2.313   1.106  13.696  0.0506  0.2934 -0.3639
19482TIP3    H179861   2.299   1.057  13.615  1.0634 -1.6006  0.5372
19482TIP3    H279862   2.303   1.198  13.671 -0.9528 -0.3007 -2.3359
19483TIP3   OH279863   2.593   2.577   0.260 -0.0846  0.0946 -0.3417
19483TIP3    H179864   2.514   2.546   0.305  0.4012  0.9155  1.1512
19483TIP3    H279865   2.617   2.657   0.307  2.2300 -0.6784 -0.0918
19484TIP3   OH279866   6.156   0.045  15.409  0.5715 -0.4536  0.0943
19484TIP3    H179867   6.091   0.112  15.429 -0.3474 -1.6020  1.1526
19484TIP3    H279868   6.224   0.057  15.475 -0.4988 -1.6817  1.4958
19485TIP3   OH279869   0.203   4.197   1.357  0.2551  0.0091 -0.5167
19485TIP3    H179870   0.145   4.190   1.281  1.7329  0.7741 -1.7771
19485TIP3    H279871   0.236   4.287   1.354 -0.5583  0.4333  1.7514
19486TIP3   OH279872   0.335   2.812   1.341  0.5020  0.1209 -0.5144
19486TIP3    H179873   0.357   2.767   1.260  0.3495 -3.3545  1.1966
19486TIP3    H279874   0.240   2.802   1.349  0.5358  0.2819  0.1590
19487TIP3   OH279875   3.479   2.043  11.605  0.4210  0.4208 -0.3403
19487TIP3    H179876   3.408   2.026  11.667 -0.2628 -1.7016 -1.5948
19487TIP3    H279877   3.557   2.009  11.649  0.0658 -0.4056 -0.3271
19488TIP3   OH279878   4.317   4.836   3.140  0.7257  0.8143  0.3079
19488TIP3    H179879   4.234   4.789   3.147  0.4744  1.0266 -0.9550
19488TIP3    H279880   4.327   4.882   3.223 -0.2767  0.5566  0.5763
19489TIP3   OH279881   5.118   3.589  12.229 -0.0319  0.1605 -0.7778
19489TIP3    H179882   5.213   3.600  12.223 -0.0658  0.3607 -0.9642
19489TIP3    H279883   5.087   3.604  12.140 -0.2577  0.2989 -0.6757
19490TIP3   OH279884   2.786   4.148  12.980  0.1296 -0.3229 -0.3097
19490TIP3    H179885   2.784   4.222  12.919  0.7366  0.0811  0.1452
19490TIP3    H279886   2.703   4.103  12.966  0.0877 -0.0016 -1.1417
19491TIP3   OH279887   2.500   2.968  15.075 -0.2264 -0.1063  0.3608
19491TIP3    H179888   2.532   3.033  15.137 -1.1866 -2.3084  3.4502
19491TIP3    H279889   2.467   3.018  15.001  0.8380  2.7308  1.6724
19492TIP3   OH279890   6.137   3.135  14.943 -0.0920 -0.3346 -0.0224
19492TIP3    H179891   6.139   3.089  15.028  0.5589 -0.1223  0.0776
19492TIP3    H279892   6.121   3.227  14.967 -0.5244 -0.3702 -0.1703
19493TIP3   OH279893   3.458   6.453   2.929 -0.5452  0.2588 -0.5433
19493TIP3    H179894   3.500   6.514   2.868  0.0945 -2.4101 -2.9712
19493TIP3    H279895   3.370   6.488   2.941  0.3524  2.6337 -0.3144
19494TIP3   OH279896   3.888   2.615  12.742  0.0409 -0.5042 -0.0521
19494TIP3    H179897   3.829   2.640  12.813 -3.7805 -1.7780 -2.4308
19494TIP3    H279898   3.925   2.531  12.770  0.8917  0.3773  1.5571
19495TIP3   OH279899   3.985   5.272  12.571 -0.5280  0.1226 -0.1017
19495TIP3    H179900   3.947   5.326  12.639  1.3169  0.7454  0.4879
19495TIP3    H279901   3.909   5.232  12.527 -1.7785 -0.2266  2.2045
19496TIP3   OH279902   0.927   0.200   4.127 -0.0058  0.1849 -0.6698
19496TIP3    H179903   0.912   0.243   4.211 -0.5421  2.4324 -1.8448
19496TIP3    H279904   1.002   0.142   4.143 -1.9064 -1.7777  2.0778
19497TIP3   OH279905   0.928   5.190   5.521 -0.7213  0.5852  0.0627
19497TIP3    H179906   0.949   5.124   5.587  0.3766  0.7148 -0.1355
19497TIP3    H279907   0.951   5.147   5.438  1.3183  1.6618  0.0118
19498TIP3   OH279908   4.739   6.090  12.416  0.7994 -0.2796  0.9028
19498TIP3    H179909   4.805   6.126  12.357  1.4387  0.3998  1.9774
19498TIP3    H279910   4.790   6.048  12.486  0.1321  0.5497  1.9286
19499TIP3   OH279911   1.114   4.107   2.814 -0.5520  0.3735 -0.3583
19499TIP3    H179912   1.097   4.056   2.735  2.7925 -1.1374 -0.2720
19499TIP3    H279913   1.086   4.051   2.886  1.1401 -0.5514 -0.3586
19500TIP3   OH279914   0.254   1.246  13.493 -0.0940  0.4691  0.5985
19500TIP3    H179915   0.173   1.296  13.508 -0.1865  0.3340  0.5445
19500TIP3    H279916   0.315   1.311  13.458 -0.4342  0.3911 -0.1539
19501TIP3   OH279917   2.153   4.186   0.446 -0.0510 -0.2555 -0.3847
19501TIP3    H179918   2.233   4.210   0.400  0.1442  0.1201  0.1363
19501TIP3    H279919   2.087   4.247   0.412  0.4432  1.0692  0.9303
19502TIP3   OH279920   0.566   3.608  16.517 -0.0938  0.0477  0.0876
19502TIP3    H179921   0.649   3.589  16.473 -0.7088  0.0880 -1.1189
19502TIP3    H279922   0.513   3.529  16.504 -0.7056  0.5103 -0.2864
19503TIP3   OH279923   4.842   3.374  14.860  0.5420 -0.3513 -0.1859
19503TIP3    H179924   4.819   3.449  14.806  0.9207  0.4464  0.7293
19503TIP3    H279925   4.935   3.388  14.881  1.1767 -2.0856 -1.5872
19504TIP3   OH279926   3.908   3.560  12.356 -0.0822 -0.3028 -0.0320
19504TIP3    H179927   3.822   3.529  12.325 -0.5770 -0.4535  1.4114
19504TIP3    H279928   3.912   3.531  12.447  0.6947  1.3326  0.4940
19505TIP3   OH279929   3.453   3.783  12.544 -0.4562  0.3618  0.8840
19505TIP3    H179930   3.448   3.725  12.620 -0.2128  0.8970  1.3190
19505TIP3    H279931   3.460   3.871  12.582 -0.3882  0.6397  0.2389
19506TIP3   OH279932   1.297   4.408   6.288 -0.1271  0.0333 -0.4777
19506TIP3    H179933   1.364   4.446   6.345 -0.2051  0.6083 -0.7625
19506TIP3    H279934   1.214   4.443   6.320 -0.1999  0.1099 -0.7489
19507TIP3   OH279935   6.528   1.588   3.528  0.7521  0.0970  0.4124
19507TIP3    H179936   6.580   1.571   3.450 -0.8043  0.4584 -0.7587
19507TIP3    H279937   6.481   1.506   3.544  0.6405  0.2041  0.6364
19508TIP3   OH279938   2.165   5.805  13.185 -0.2662  0.3195 -0.3517
19508TIP3    H179939   2.096   5.811  13.251  0.0419 -1.3093  0.1570
19508TIP3    H279940   2.159   5.716  13.151  0.1269  0.8605 -1.9488
19509TIP3   OH279941   2.110   5.832   4.917 -0.2111  0.0439  0.2334
19509TIP3    H179942   2.098   5.827   4.822 -1.2915  1.0507  0.2906
19509TIP3    H279943   2.130   5.924   4.934 -1.8360  0.2671  1.1405
19510TIP3   OH279944   6.026   3.980  13.830  0.2909  0.3978 -0.0010
19510TIP3    H179945   5.946   4.030  13.812  0.4709  1.4280  1.7819
19510TIP3    H279946   6.097   4.043  13.817  1.0315 -0.8665 -2.9695
19511TIP3   OH279947   2.506   1.737   5.964  0.7239 -0.1214  0.2476
19511TIP3    H179948   2.527   1.730   6.057 -1.3169 -1.4253  0.6680
19511TIP3    H279949   2.540   1.656   5.926 -1.7343 -1.4052  0.6146
19512TIP3   OH279950   5.724   5.395  14.776  0.2576  0.3784  0.0394
19512TIP3    H179951   5.669   5.472  14.791  1.2644  1.0247  0.5438
19512TIP3    H279952   5.673   5.340  14.717 -0.8645  1.0116  0.3977
19513TIP3   OH279953   6.579   3.993  10.440  0.5181  0.6422 -0.2615
19513TIP3    H179954   6.496   3.953  10.414  1.6568 -2.0365 -0.1546
19513TIP3    H279955   6.616   3.931  10.503  2.9693  1.3097 -0.9363
19514TIP3   OH279956   6.045   2.495   2.694 -0.1272 -0.4470 -0.2923
19514TIP3    H179957   6.013   2.574   2.649  2.4644 -0.3793 -2.1943
19514TIP3    H279958   6.099   2.529   2.766 -3.8408 -0.5634  2.9034
19515TIP3   OH279959   2.057   2.015   2.238  0.0767  0.3115 -0.1216
19515TIP3    H179960   2.111   2.093   2.232  2.6107 -1.3586 -0.4044
19515TIP3    H279961   2.019   2.006   2.150  0.7453  0.5919 -0.4489
19516TIP3   OH279962   2.317   2.745   1.534 -0.1529 -0.1202 -0.0223
19516TIP3    H179963   2.246   2.712   1.588  0.6525  0.2976  1.3433
19516TIP3    H279964   2.354   2.817   1.585  0.0462  0.9184 -1.5588
19517TIP3   OH279965   1.654   0.134   5.083  0.6573  0.1819  0.7041
19517TIP3    H179966   1.589   0.112   5.016  1.8464  1.1020 -0.8124
19517TIP3    H279967   1.604   0.181   5.149 -0.3136  0.5445 -0.2505
19518TIP3   OH279968   2.825   1.102  12.179  0.1330  0.0585  0.8842
19518TIP3    H179969   2.840   1.040  12.250  1.5716  0.7630  1.2152
19518TIP3    H279970   2.730   1.115  12.179 -0.2516 -2.2784  0.6629
19519TIP3   OH279971   4.785   4.262  16.576 -0.3586  0.0138  0.1807
19519TIP3    H179972   4.865   4.246  16.626 -0.0615  0.9471  0.0338
19519TIP3    H279973   4.717   4.213  16.623  0.1032  0.0783  0.9397
19520TIP3   OH279974   5.415   6.601   1.514 -0.1724  0.3403  0.0519
19520TIP3    H179975   5.507   6.603   1.539  0.1062 -1.5304 -0.6984
19520TIP3    H279976   5.411   6.651   1.433  0.0157  1.1346  0.5218
19521TIP3   OH279977   4.030   5.232   4.149 -0.0992 -0.4745 -0.0143
19521TIP3    H179978   3.973   5.300   4.183 -1.5413 -1.8521  0.4360
19521TIP3    H279979   4.069   5.190   4.226  0.4238 -0.4623 -0.2634
19522TIP3   OH279980   5.933   6.356   0.185  0.0675  0.1714  0.3122
19522TIP3    H179981   5.872   6.297   0.140 -2.0997  0.9686  1.9726
19522TIP3    H279982   5.982   6.300   0.244 -0.5169 -0.2426  0.4106
19523TIP3   OH279983   6.303   3.964  11.005 -0.4468 -0.5281  0.2569
19523TIP3    H179984   6.369   3.984  11.072 -1.1765 -0.4107  0.9467
19523TIP3    H279985   6.350   3.975  10.922 -0.1368  1.6166  0.6631
19524TIP3   OH279986   1.092   5.762   3.312  0.4578 -0.0450 -0.5447
19524TIP3    H179987   1.144   5.683   3.302  0.0009 -0.4255  0.0279
19524TIP3    H279988   1.081   5.772   3.406  0.6597  0.8032 -0.5993
19525TIP3   OH279989   0.320   4.688   1.925  0.0506  0.0071 -0.1580
19525TIP3    H179990   0.300   4.728   2.010  0.0214  0.1072 -0.2122
19525TIP3    H279991   0.264   4.734   1.863 -0.4853 -0.5803 -0.1251
19526TIP3   OH279992   3.264   0.224  11.891 -0.3576  0.0754 -0.4912
19526TIP3    H179993   3.222   0.165  11.829 -0.8387  1.1080 -1.1860
19526TIP3    H279994   3.192   0.256  11.946 -0.0724 -0.1165  0.0018
19527TIP3   OH279995   6.702   6.673  13.976  0.7068  0.0825 -0.1188
19527TIP3    H179996   6.629   6.719  13.935  0.5582  0.0217  0.0808
19527TIP3    H279997   6.774   6.736  13.976  0.5807  0.2254 -0.0844
19528TIP3   OH279998   5.275   0.317   0.427 -0.4648  0.4962 -0.3636
19528TIP3    H179999   5.209   0.248   0.419 -0.3370  0.0491  1.7803
19528TIP3    H280000   5.274   0.362   0.342 -4.1977  1.1635 -0.1191
19529TIP3   OH280001   0.259   1.893  13.880  0.1160  0.0258  0.5865
19529TIP3    H180002   0.267   1.965  13.943  0.8601 -0.7916  1.4574
19529TIP3    H280003   0.250   1.936  13.795  0.1080  1.1452  1.1387
19530TIP3   OH280004   1.704   4.374   1.321  0.0652  0.1392  0.1610
19530TIP3    H180005   1.799   4.366   1.331  0.2420  1.2847 -0.3609
19530TIP3    H280006   1.670   4.364   1.410  0.6160 -0.8582  0.2720
19531TIP3   OH280007   3.096   5.565  14.822  0.3831 -0.8527  0.3129
19531TIP3    H180008   3.046   5.487  14.798 -0.0698 -0.4170 -0.1992
19531TIP3    H280009   3.187   5.540  14.809  0.1700 -0.6638 -1.8601
19532TIP3   OH280010   0.130   4.610   5.268  0.0703 -0.3299  0.3085
19532TIP3    H180011   0.065   4.544   5.292  1.1723 -1.2762  0.7981
19532TIP3    H280012   0.201   4.599   5.332  0.5910  0.8632 -0.0311
19533TIP3   OH280013   0.726   2.981  13.850  0.4743  0.0483  0.0122
19533TIP3    H180014   0.668   2.908  13.875 -2.2863  2.7847  2.4424
19533TIP3    H280015   0.747   3.025  13.932  3.5782  1.0510 -1.1623
19534TIP3   OH280016   4.188   3.762   4.923 -0.0298  0.0885  0.3859
19534TIP3    H180017   4.105   3.748   4.878  0.0799  0.9753 -0.1198
19534TIP3    H280018   4.219   3.674   4.944  0.1687 -0.4394 -1.7964
19535TIP3   OH280019   2.928   6.204  11.903 -0.2523  0.6377  0.5799
19535TIP3    H180020   3.015   6.190  11.867  0.0019 -0.9814  1.7250
19535TIP3    H280021   2.883   6.255  11.836  0.7274 -0.7933 -1.2940
19536TIP3   OH280022   6.228   0.168  14.130 -0.2791 -0.4244  0.4395
19536TIP3    H180023   6.226   0.072  14.124  0.9368 -0.3936 -0.8782
19536TIP3    H280024   6.193   0.198  14.047  0.0789  0.2769  0.5369
19537TIP3   OH280025   2.704   2.557   3.655 -0.4355  0.4129  0.0268
19537TIP3    H180026   2.693   2.477   3.604 -1.8783  0.4707  0.2253
19537TIP3    H280027   2.742   2.527   3.738 -0.6952 -0.0318 -0.0111
19538TIP3   OH280028   1.009   0.113   1.198 -0.7531  0.2800 -0.5537
19538TIP3    H180029   1.051   0.066   1.126 -1.2179  1.1244 -1.4122
19538TIP3    H280030   1.081   0.148   1.250 -0.3981  0.3652 -1.0984
19539TIP3   OH280031   0.239   0.371  13.157  0.1238  0.0757 -0.2291
19539TIP3    H180032   0.290   0.451  13.174 -0.2919  0.4707 -0.8224
19539TIP3    H280033   0.150   0.402  13.140 -1.3135 -0.7631  4.2262
19540TIP3   OH280034   3.006   1.266   4.037 -0.1877 -0.1018 -0.0432
19540TIP3    H180035   3.028   1.333   3.972 -0.9036 -0.7005 -0.9205
19540TIP3    H280036   3.025   1.183   3.994 -2.6624 -0.5900 -0.3088
19541TIP3   OH280037   2.333   0.364  10.893  0.4980 -1.0624 -0.3467
19541TIP3    H180038   2.417   0.407  10.876  0.1572  0.0553  0.6166
19541TIP3    H280039   2.282   0.379  10.814  0.0760  1.1757  0.2739
19542TIP3   OH280040   3.778   4.078   2.532 -0.2909 -0.4076 -0.2765
19542TIP3    H180041   3.772   3.986   2.557 -1.7093  0.3783  2.7011
19542TIP3    H280042   3.790   4.125   2.615 -0.8823  2.1890 -1.5560
19543TIP3   OH280043   0.763   6.385  12.149 -0.6518  0.1285 -0.0605
19543TIP3    H180044   0.736   6.458  12.204  0.7492 -0.4696  1.5175
19543TIP3    H280045   0.763   6.420  12.060  1.4661  2.5637  0.7638
19544TIP3   OH280046   0.527   2.123  16.729  0.0478  0.4166  0.2290
19544TIP3    H180047   0.491   2.098  16.814 -0.2775  0.2791  0.0495
19544TIP3    H280048   0.607   2.071  16.721  0.5150  1.0307  0.8113
19545TIP3   OH280049   1.654   6.534  12.521  0.3704  0.1901 -0.0536
19545TIP3    H180050   1.746   6.557  12.532  0.1983  1.2893 -0.6810
19545TIP3    H280051   1.607   6.615  12.539 -0.5316 -0.5210  0.8864
19546TIP3   OH280052   5.264   2.421  12.377  1.0519 -0.6724  0.0491
19546TIP3    H180053   5.342   2.375  12.346  0.4380 -1.6267 -0.1512
19546TIP3    H280054   5.211   2.434  12.298  1.7149  1.4822 -0.1121
19547TIP3   OH280055   0.067   4.782  13.828 -0.2390 -0.1210  0.0178
19547TIP3    H180056   0.016   4.737  13.761 -0.9188 -0.5612  0.8241
19547TIP3    H280057   0.002   4.816  13.890  0.1263  3.0547 -1.1634
19548TIP3   OH280058   3.036   2.874  15.934  0.3921  0.2968  0.5957
19548TIP3    H180059   2.950   2.853  15.970  0.7054 -0.6521  0.8205
19548TIP3    H280060   3.043   2.820  15.855  1.6393 -1.3672  1.7523
19549TIP3   OH280061   4.999   0.018  10.613 -0.0511  0.5853  0.7011
19549TIP3    H180062   5.040   0.062  10.539  0.2832  0.0722  0.5731
19549TIP3    H280063   5.072  -0.007  10.670 -0.2563  0.4572  0.9132
19550TIP3   OH280064   0.213   6.595   2.455  0.3809 -0.2894  0.2408
19550TIP3    H180065   0.137   6.587   2.397  0.4536 -0.3261  0.1500
19550TIP3    H280066   0.249   6.506   2.460  1.1908 -0.0338 -0.7652
19551TIP3   OH280067   4.692   4.849  13.027  0.0542 -0.1296 -0.4208
19551TIP3    H180068   4.778   4.822  12.992  0.7599  0.8707  0.4740
19551TIP3    H280069   4.710   4.931  13.074 -1.5170  0.4507 -0.7584
19552TIP3   OH280070   1.307   4.225   5.348  0.0006 -0.0120 -0.5131
19552TIP3    H180071   1.262   4.238   5.264  0.2065 -1.0169 -0.7928
19552TIP3    H280072   1.367   4.152   5.331 -0.7567 -0.9752  0.8234
19553TIP3   OH280073   2.893   5.343   0.204 -0.2900  0.0273 -0.1133
19553TIP3    H180074   2.859   5.395   0.130 -0.9516 -0.5712 -0.2434
19553TIP3    H280075   2.824   5.350   0.270 -0.6804 -1.1960 -0.3738
19554TIP3   OH280076   4.933   4.830  10.949  0.0073 -0.1180 -0.3056
19554TIP3    H180077   4.930   4.873  10.863  0.0092  1.7151  0.5654
19554TIP3    H280078   5.027   4.827  10.971 -0.0985  1.1296  0.4142
19555TIP3   OH280079   0.774   6.809  15.306 -0.0308  0.1587 -0.2412
19555TIP3    H180080   0.743   6.871  15.372  0.5454  0.7217 -0.4904
19555TIP3    H280081   0.703   6.745  15.298 -0.1538  0.1476  0.8335
19556TIP3   OH280082   6.560   5.830  12.042 -0.1921  0.1999  0.0766
19556TIP3    H180083   6.626   5.776  12.086  0.1468 -0.0141 -0.6758
19556TIP3    H280084   6.524   5.773  11.974 -1.3744  0.2150  0.6637
19557TIP3   OH280085   5.832   4.923  12.889  0.1404 -0.2293  0.1273
19557TIP3    H180086   5.742   4.909  12.862  0.2885  0.5182 -0.7878
19557TIP3    H280087   5.845   5.017  12.886  0.5025 -0.1862  1.7891
19558TIP3   OH280088   6.163   5.401   1.655  0.1905  0.4453 -0.0388
19558TIP3    H180089   6.145   5.459   1.581 -2.4927 -1.3667 -0.9893
19558TIP3    H280090   6.104   5.327   1.642  2.1903 -1.6888  2.0364
19559TIP3   OH280091   6.030   6.432   5.123  0.0575 -0.0840 -0.1623
19559TIP3    H180092   6.051   6.493   5.193  0.4569  0.3059 -0.6126
19559TIP3    H280093   5.991   6.357   5.167  2.3576 -0.8370  0.7330
19560TIP3   OH280094   4.712   5.908   3.663 -0.0233 -0.2060 -0.2787
19560TIP3    H180095   4.714   5.832   3.605  0.9831  0.5452 -1.2568
19560TIP3    H280096   4.798   5.908   3.706  1.1988  2.0034 -2.4976
19561TIP3   OH280097   5.838   0.615   3.041  0.3708  0.3912 -0.6614
19561TIP3    H180098   5.885   0.659   2.970  0.5072 -1.1362 -1.5518
19561TIP3    H280099   5.875   0.652   3.121  0.0490  2.3189 -1.3560
19562TIP3   OH280100   1.766   2.417  11.636  0.7421  0.0111 -0.4764
19562TIP3    H180101   1.747   2.353  11.705 -1.1800  1.1175  0.0892
19562TIP3    H280102   1.739   2.374  11.555  1.2037 -0.5665 -0.3334
19563TIP3   OH280103   5.675   0.687  10.604 -0.4802 -0.0264  0.5282
19563TIP3    H180104   5.624   0.606  10.603  0.7744 -0.9235  2.5870
19563TIP3    H280105   5.663   0.722  10.692  0.8243  0.7952  0.4027
19564TIP3   OH280106   1.211   3.452   3.647  0.5359  0.4057 -0.9847
19564TIP3    H180107   1.133   3.496   3.613 -0.2101  0.0159  0.1905
19564TIP3    H280108   1.257   3.521   3.695  0.0048  0.2286 -0.2004
19565TIP3   OH280109   1.122   2.250  15.837  0.4554  0.2591  0.0679
19565TIP3    H180110   1.056   2.189  15.869 -0.9821  1.1686 -1.0355
19565TIP3    H280111   1.156   2.210  15.757  0.9841 -0.0324  0.4337
19566TIP3   OH280112   4.331   2.084   1.393  0.1761  0.0908 -0.2045
19566TIP3    H180113   4.367   2.106   1.479  0.4694 -0.5825 -0.1499
19566TIP3    H280114   4.280   2.161   1.368 -1.1245 -0.2662  1.2254
19567TIP3   OH280115   6.300   3.016  13.186 -0.0644 -0.6409  0.4463
19567TIP3    H180116   6.246   3.014  13.107 -0.6661 -2.5739  0.8480
19567TIP3    H280117   6.384   2.979  13.159  0.5052  0.7758  0.2190
19568TIP3   OH280118   6.793   1.623   4.153 -0.8879  0.5857  0.2499
19568TIP3    H180119   6.820   1.555   4.091 -0.9751  2.4837 -2.0211
19568TIP3    H280120   6.698   1.627   4.142 -1.1195 -0.1211  1.7448
19569TIP3   OH280121   1.784   6.653  14.563 -0.2179  0.4663 -0.6286
19569TIP3    H180122   1.717   6.697  14.511 -0.8506  0.1496 -0.1016
19569TIP3    H280123   1.845   6.722  14.588 -2.2211  1.4842  1.8067
19570TIP3   OH280124   0.930   2.526   4.740 -0.4557  0.2121 -0.2938
19570TIP3    H180125   0.889   2.574   4.668 -0.6285 -1.4787 -1.3964
19570TIP3    H280126   1.012   2.492   4.704 -0.1923 -0.0676  0.5269
19571TIP3   OH280127   5.129   6.326   4.335  0.4475 -0.5943 -0.2385
19571TIP3    H180128   5.036   6.311   4.320  0.2280  1.4600 -1.2074
19571TIP3    H280129   5.140   6.321   4.430 -0.8898  0.4019 -0.0171
19572TIP3   OH280130   0.453   2.921  13.999 -0.2539  0.0670  0.2495
19572TIP3    H180131   0.431   2.829  14.015 -0.6331  0.0231 -0.4898
19572TIP3    H280132   0.373   2.959  13.964 -0.7766  1.2167  2.4646
19573TIP3   OH280133   1.692   1.756  15.275 -0.3803  0.8778 -0.1158
19573TIP3    H180134   1.706   1.661  15.265 -0.8096  0.7868  0.1316
19573TIP3    H280135   1.628   1.778  15.208 -2.0149  0.5683  1.2854
19574TIP3   OH280136   1.290   4.469  11.313  0.4342  0.0448 -0.3836
19574TIP3    H180137   1.345   4.431  11.245  0.6467  0.3830 -0.4035
19574TIP3    H280138   1.308   4.563  11.309 -0.3513  0.1959 -0.5755
19575TIP3   OH280139   5.042   2.602   2.090  0.2032  0.4622  0.1625
19575TIP3    H180140   5.069   2.517   2.124  0.8742  0.8128  0.5277
19575TIP3    H280141   5.094   2.614   2.010 -1.1561 -0.2296 -0.8639
19576TIP3   OH280142   0.170   5.368   5.338  0.6269 -0.2803  0.3134
19576TIP3    H180143   0.116   5.294   5.310  1.1352 -0.1752 -1.0283
19576TIP3    H280144   0.150   5.438   5.275 -0.5901  1.0991  2.1300
19577TIP3   OH280145   1.010   5.477  15.895  0.6606 -0.3827  0.2015
19577TIP3    H180146   0.936   5.439  15.943  0.5842 -1.9313 -1.0537
19577TIP3    H280147   0.978   5.563  15.866 -0.1559 -0.4636  0.8183
19578TIP3   OH280148   5.405   3.922  12.803  0.1352 -0.1102 -0.2029
19578TIP3    H180149   5.403   3.932  12.898  0.1678  1.2680 -0.3300
19578TIP3    H280150   5.332   3.976  12.772  0.9890  0.5956 -1.0428
19579TIP3   OH280151   1.305   2.882   4.392  0.6375  0.1127  0.1188
19579TIP3    H180152   1.360   2.815   4.433  0.0970 -0.5118 -0.1748
19579TIP3    H280153   1.291   2.851   4.303  0.2509  0.5367  0.0284
19580TIP3   OH280154   3.248   1.776  13.085  0.2030 -0.1207 -0.0051
19580TIP3    H180155   3.225   1.699  13.033  1.4984  0.2172 -1.1569
19580TIP3    H280156   3.187   1.775  13.158 -1.8505 -0.5163 -1.6275
19581TIP3   OH280157   5.684   4.103  16.042  0.2294 -0.1269 -0.5091
19581TIP3    H180158   5.659   4.126  16.131  1.6196 -2.0086  0.4339
19581TIP3    H280159   5.610   4.052  16.009  0.5533 -1.2075  0.3633
19582TIP3   OH280160   0.146   1.562  15.288 -0.2043 -0.5088  0.8548
19582TIP3    H180161   0.241   1.551  15.284 -0.1542  0.0981  0.2219
19582TIP3    H280162   0.133   1.656  15.297 -0.7223 -0.7012  2.2534
19583TIP3   OH280163   5.206   4.630   5.857  0.1133  0.1050  0.5115
19583TIP3    H180164   5.291   4.670   5.845  0.4246 -1.1363 -2.0284
19583TIP3    H280165   5.225   4.538   5.877 -0.5629 -0.6167 -1.8772
19584TIP3   OH280166   4.788   3.464  12.983  0.4757 -0.5661  0.0744
19584TIP3    H180167   4.810   3.373  13.003 -0.3277 -0.8306 -0.2168
19584TIP3    H280168   4.786   3.466  12.887  0.2951 -0.2875  0.0859
19585TIP3   OH280169   6.509   0.501   5.210  0.3668 -0.3430 -0.6544
19585TIP3    H180170   6.531   0.590   5.183 -0.9815  0.4196  0.5879
19585TIP3    H280171   6.486   0.457   5.128 -3.3506  1.8172 -1.0450
19586TIP3   OH280172   1.292   3.401  11.724 -0.1173  0.4542 -1.1154
19586TIP3    H180173   1.364   3.413  11.663  0.4434  0.4114 -0.4734
19586TIP3    H280174   1.333   3.407  11.811 -1.1182  1.9726 -0.7119
19587TIP3   OH280175   0.915   2.593  14.239 -0.1112 -0.1063 -0.2856
19587TIP3    H180176   0.953   2.679  14.258 -2.6950  0.8898  0.8223
19587TIP3    H280177   0.825   2.611  14.213 -0.7781 -2.4895  0.1102
19588TIP3   OH280178   6.432   1.413   5.173 -0.0542 -0.1716  0.4228
19588TIP3    H180179   6.439   1.491   5.228 -1.1489  1.1652 -1.2232
19588TIP3    H280180   6.455   1.443   5.085 -0.0131 -1.8347 -0.1822
19589TIP3   OH280181   0.775   0.007   3.803 -0.0455 -0.1024 -0.0078
19589TIP3    H180182   0.839   0.027   3.735  0.8964 -2.4121  0.1057
19589TIP3    H280183   0.777  -0.088   3.810 -2.5502 -0.1494  0.9507
19590TIP3   OH280184   3.417   4.529   5.599 -0.2971 -0.1259 -0.0846
19590TIP3    H180185   3.405   4.438   5.627  0.5111  0.3471  1.8820
19590TIP3    H280186   3.328   4.559   5.578 -0.7198 -1.0044  0.3965
19591TIP3   OH280187   0.828   3.833  11.371  0.2303  0.0331  0.1997
19591TIP3    H180188   0.776   3.774  11.425 -0.8095  1.5348  0.9045
19591TIP3    H280189   0.919   3.816  11.396 -0.0910 -0.8367  0.8008
19592TIP3   OH280190   6.215   2.746  14.856 -0.2875  0.2651 -0.0232
19592TIP3    H180191   6.212   2.651  14.861  0.7977  0.2200 -0.0551
19592TIP3    H280192   6.145   2.770  14.795  0.4326 -0.6075 -1.2080
19593TIP3   OH280193   5.761   3.446   1.772  0.4755 -0.2733  0.0718
19593TIP3    H180194   5.828   3.502   1.733  0.8055 -1.5518 -1.2753
19593TIP3    H280195   5.728   3.393   1.699 -2.7872  1.0201  0.4217
19594TIP3   OH280196   5.958   2.908   2.442 -0.3462  0.4948  0.4444
19594TIP3    H180197   6.052   2.900   2.460 -0.2092 -0.1393 -0.4827
19594TIP3    H280198   5.951   2.902   2.347 -1.3871 -0.1508  0.5457
19595TIP3   OH280199   4.944   5.482  15.221 -0.3861  0.3087 -0.1644
19595TIP3    H180200   5.003   5.544  15.180  1.7909 -1.0127  0.7829
19595TIP3    H280201   5.001   5.413  15.255 -2.6452 -2.1938 -1.0761
19596TIP3   OH280202   4.081   3.306  12.447  0.1577 -0.4829 -0.1609
19596TIP3    H180203   4.008   3.324  12.507  1.0727  1.5816  0.4440
19596TIP3    H280204   4.063   3.361  12.370  0.9137 -0.1395 -0.1082
19597TIP3   OH280205   5.134   2.384  14.444  0.4203  0.5324 -0.4951
19597TIP3    H180206   5.194   2.459  14.440  0.3239  0.5693 -1.4518
19597TIP3    H280207   5.085   2.398  14.524  3.5010 -0.9232  1.8748
19598TIP3   OH280208   2.448   2.125  14.419  0.3360 -0.2411  0.5466
19598TIP3    H180209   2.459   2.045  14.470 -2.3087 -1.0892 -0.0431
19598TIP3    H280210   2.494   2.107  14.336 -0.6372 -1.3961  0.2256
19599TIP3   OH280211   6.011   2.428   0.611  0.2367 -0.5314  0.2493
19599TIP3    H180212   6.002   2.370   0.536  0.5389 -0.3448  0.0629
19599TIP3    H280213   6.095   2.405   0.649  1.3347  1.0885 -1.0003
19600TIP3   OH280214   1.119   4.100   3.931  0.2325  0.0542  0.3089
19600TIP3    H180215   1.105   4.008   3.953 -0.7603  0.1946  0.3218
19600TIP3    H280216   1.033   4.141   3.945  0.4738  0.8343 -0.4114
19601TIP3   OH280217   3.033   5.141  13.485 -0.0424 -0.2483 -0.0275
19601TIP3    H180218   2.954   5.163  13.534 -0.1547  1.8657 -1.0316
19601TIP3    H280219   3.104   5.157  13.546 -0.3341 -1.3502  0.6203
19602TIP3   OH280220   1.966   0.664   0.105 -0.1865  0.3772  0.4335
19602TIP3    H180221   1.906   0.589   0.105 -1.6605  1.4604  2.4966
19602TIP3    H280222   1.940   0.716   0.029  0.6795 -0.9944 -0.8633
19603TIP3   OH280223   4.435   0.521  10.703 -0.6418  0.3749  0.2626
19603TIP3    H180224   4.509   0.467  10.676 -1.6196 -2.0977  2.0862
19603TIP3    H280225   4.376   0.520  10.628 -0.1600 -0.2175 -0.1152
19604TIP3   OH280226   4.076   3.863   3.066 -0.2764  0.3999  0.4086
19604TIP3    H180227   4.126   3.871   3.147  1.9617 -1.1968 -0.6983
19604TIP3    H280228   4.033   3.778   3.071 -1.0359  0.7632  0.3486
19605TIP3   OH280229   6.027   3.965  10.770 -0.1502 -0.1522 -0.1142
19605TIP3    H180230   6.113   3.922  10.777 -0.9511 -1.6896  0.9663
19605TIP3    H280231   6.001   3.952  10.679  0.1692 -0.9232 -0.1075
19606TIP3   OH280232   1.459   2.574  15.797  0.2162  0.2419  0.0938
19606TIP3    H180233   1.483   2.656  15.753  0.7214  0.4193  0.6843
19606TIP3    H280234   1.381   2.597  15.849 -0.4061  0.0214 -0.7195
19607TIP3   OH280235   0.663   4.835   4.490  0.1995 -0.0505  0.0649
19607TIP3    H180236   0.592   4.897   4.472  0.1105 -0.0702  0.3400
19607TIP3    H280237   0.723   4.846   4.416 -0.5672 -0.7340 -0.6756
19608TIP3   OH280238   5.070   3.978   6.146 -0.1147  0.0493  0.3097
19608TIP3    H180239   5.147   4.034   6.139  0.4903 -0.2236  3.5425
19608TIP3    H280240   5.104   3.892   6.170 -1.3128 -0.5831 -0.1554
19609TIP3   OH280241   0.024   0.850  13.024  0.0469  0.4990 -0.0783
19609TIP3    H180242  -0.054   0.841  12.970 -1.5002 -0.3144  2.1587
19609TIP3    H280243   0.075   0.919  12.981  0.0322 -1.5289 -3.7443
19610TIP3   OH280244   3.489   4.014  13.916  0.0192  0.3465 -0.0393
19610TIP3    H180245   3.473   3.991  14.008  3.0965 -2.4806 -0.0159
19610TIP3    H280246   3.545   4.091  13.921 -0.2892  0.5489  0.4193
19611TIP3   OH280247   5.193   3.101  14.191 -0.4048 -0.9366  0.3969
19611TIP3    H180248   5.200   3.015  14.149 -0.0060 -0.2682 -0.9674
19611TIP3    H280249   5.175   3.162  14.119  0.4523  0.2876  1.1746
19612TIP3   OH280250   5.682   4.806   6.486 -0.4882  0.2184 -0.1309
19612TIP3    H180251   5.639   4.721   6.488 -1.6888  0.8109 -0.2282
19612TIP3    H280252   5.775   4.786   6.502 -0.6909 -1.1304 -0.5385
19613TIP3   OH280253   1.158   2.477   2.057 -0.1353 -0.1327  0.3451
19613TIP3    H180254   1.249   2.469   2.030 -0.2662  0.8531 -0.4606
19613TIP3    H280255   1.108   2.447   1.981 -0.4991 -2.1652  1.3285
19614TIP3   OH280256   4.836   5.268  12.073  0.8028 -0.4295 -0.2906
19614TIP3    H180257   4.855   5.343  12.131 -1.8954  0.5289 -0.4691
19614TIP3    H280258   4.821   5.308  11.987 -2.2268 -0.8500 -0.0698
19615TIP3   OH280259   4.449   3.550  13.509  0.2790 -0.1099 -0.7710
19615TIP3    H180260   4.444   3.644  13.495 -1.4180  0.0739  0.7088
19615TIP3    H280261   4.399   3.535  13.589  0.7098 -2.2434 -0.8473
19616TIP3   OH280262   3.192   4.710  15.724 -0.1074 -0.4829  0.0028
19616TIP3    H180263   3.236   4.762  15.791  1.3596 -1.5891 -0.0488
19616TIP3    H280264   3.134   4.652  15.773 -0.8879  0.3868  0.1312
19617TIP3   OH280265   2.889   5.887  11.088  0.3558 -0.1643  0.6396
19617TIP3    H180266   2.937   5.807  11.069 -1.3101 -0.7586 -1.3402
19617TIP3    H280267   2.957   5.953  11.102  1.7591 -1.9352  2.6768
19618TIP3   OH280268   4.439   4.226   2.801  0.1792 -0.3357 -0.2111
19618TIP3    H180269   4.392   4.147   2.774  0.8151 -1.3123  1.4063
19618TIP3    H280270   4.378   4.298   2.782 -1.5870 -1.4661  0.8676
19619TIP3   OH280271   3.485   6.187   3.019  0.4271 -0.1815 -0.2687
19619TIP3    H180272   3.434   6.200   3.099  3.2807  3.3713  1.2360
19619TIP3    H280273   3.449   6.251   2.957  0.2140 -0.7898 -0.7829
19620TIP3   OH280274   2.007   6.400   1.579  0.3027 -0.1241  0.0801
19620TIP3    H180275   1.998   6.417   1.485 -1.1752 -0.7310  0.0857
19620TIP3    H280276   1.953   6.467   1.620  0.2860 -0.3665  0.4540
19621TIP3   OH280277   2.243   4.521  13.751  0.2445 -0.3551 -1.1900
19621TIP3    H180278   2.257   4.590  13.686 -0.2239  0.2720 -0.6354
19621TIP3    H280279   2.214   4.567  13.829 -0.3878 -1.2092 -0.9064
19622TIP3   OH280280   5.110   0.166   5.856 -0.2064  0.0138  0.3292
19622TIP3    H180281   5.037   0.198   5.803 -1.0671  0.9481  2.0102
19622TIP3    H280282   5.099   0.071   5.855 -1.3733  0.1274  0.4342
19623TIP3   OH280283   6.175   2.128  10.526 -0.1612  0.1768 -0.1235
19623TIP3    H180284   6.175   2.196  10.458 -1.0196 -2.6043 -3.1623
19623TIP3    H280285   6.100   2.150  10.581  0.6111  2.5893  0.0897
19624TIP3   OH280286   2.105   6.154   1.235  0.1989  0.4266 -0.2043
19624TIP3    H180287   2.080   6.220   1.301  1.1663 -0.9889  1.6858
19624TIP3    H280288   2.023   6.109   1.214 -0.0262  0.4478  0.5787
19625TIP3   OH280289   3.635   0.341  14.233 -0.6131  0.6081 -0.7758
19625TIP3    H180290   3.677   0.269  14.281 -2.1308 -1.3675 -2.2454
19625TIP3    H280291   3.706   0.378  14.180  0.1857  0.1205 -0.0898
19626TIP3   OH280292   3.073   3.066   2.242 -0.2515 -0.3268  0.1552
19626TIP3    H180293   3.017   3.143   2.232  1.4101  0.8142 -0.7447
19626TIP3    H280294   3.060   3.017   2.160 -0.5075 -0.4651  0.2771
19627TIP3   OH280295   2.715   2.124  14.881 -0.0206  0.4734  0.2142
19627TIP3    H180296   2.745   2.188  14.817  0.1588  1.6198  1.4042
19627TIP3    H280297   2.685   2.177  14.955  1.9644 -0.8161  2.0516
19628TIP3   OH280298   0.639   1.894  10.525  0.3964  0.0799  0.1338
19628TIP3    H180299   0.596   1.951  10.462 -2.9013 -4.1630 -2.0027
19628TIP3    H280300   0.592   1.908  10.607 -1.0258 -0.1276 -0.6134
19629TIP3   OH280301   5.721   2.594   1.804 -0.2612  0.0834  0.4705
19629TIP3    H180302   5.744   2.511   1.846  0.4583  0.4179  0.7598
19629TIP3    H280303   5.731   2.577   1.711 -0.7820 -0.3478  0.4895
19630TIP3   OH280304   5.321   5.115  14.141 -0.3246 -0.6320 -0.2675
19630TIP3    H180305   5.228   5.140  14.138 -0.3709 -0.8341 -0.5849
19630TIP3    H280306   5.348   5.135  14.230 -0.4333  0.3033 -0.4267
19631TIP3   OH280307   5.666   5.219  11.998 -0.2885  0.3042  0.4562
19631TIP3    H180308   5.702   5.307  12.016 -1.1694  0.8519 -0.3804
19631TIP3    H280309   5.637   5.187  12.083 -0.4595  1.0595  0.6888
19632TIP3   OH280310   2.462   0.253   3.957  0.0947  0.1733  0.0675
19632TIP3    H180311   2.457   0.311   3.880  0.0748 -0.4416 -0.4017
19632TIP3    H280312   2.411   0.299   4.024 -0.7636  0.2418 -0.6056
19633TIP3   OH280313   4.471   3.493  15.968 -0.3302 -0.4682 -0.0604
19633TIP3    H180314   4.478   3.398  15.972 -2.0056 -0.6441 -0.5803
19633TIP3    H280315   4.377   3.510  15.958 -0.0531  1.2343 -0.0704
19634TIP3   OH280316   2.650   1.033   5.267  0.2419  0.2575 -0.6117
19634TIP3    H180317   2.612   0.958   5.312 -0.5773 -0.4073 -2.2877
19634TIP3    H280318   2.668   1.096   5.336  0.5749 -1.3058  0.8099
19635TIP3   OH280319   5.363   1.018   3.370 -0.2428  0.0656 -0.0422
19635TIP3    H180320   5.318   1.102   3.363  0.0129  0.1443 -0.8009
19635TIP3    H280321   5.355   0.979   3.283  0.1237 -0.4497  0.1499
19636TIP3   OH280322   3.837   5.381   4.251  0.2857 -0.3653  0.1129
19636TIP3    H180323   3.756   5.362   4.298  0.1305  1.6422  0.7816
19636TIP3    H280324   3.831   5.474   4.230  1.2372 -0.7804 -2.2326
19637TIP3   OH280325   0.318   3.210   6.009  0.4574  0.2391 -0.4027
19637TIP3    H180326   0.390   3.152   5.982 -0.8711 -0.0992 -3.8117
19637TIP3    H280327   0.268   3.159   6.073  1.3013 -0.9517 -0.6607
19638TIP3   OH280328   3.757   1.873   3.036 -0.0949 -0.4011 -0.3755
19638TIP3    H180329   3.674   1.920   3.031 -0.3521 -0.2907  2.6090
19638TIP3    H280330   3.818   1.925   2.984 -0.9338  1.9730  0.8573
19639TIP3   OH280331   5.889   0.791  13.307  0.3355  0.4538 -0.5656
19639TIP3    H180332   5.909   0.813  13.216  0.8581 -0.3299 -0.6503
19639TIP3    H280333   5.828   0.717  13.301 -0.7419  1.2935 -0.2811
19640TIP3   OH280334   1.333   6.602  11.496 -0.0255  0.2699 -0.5520
19640TIP3    H180335   1.347   6.525  11.440  0.3358 -0.7430  0.8975
19640TIP3    H280336   1.415   6.651  11.489 -0.8113  1.4179 -2.7300
19641TIP3   OH280337   4.494   1.077  11.108  0.1545 -0.8233 -0.3466
19641TIP3    H180338   4.500   1.059  11.202 -1.6976  0.8497  0.1537
19641TIP3    H280339   4.464   1.168  11.103  1.5768 -0.3928 -2.6040
19642TIP3   OH280340   4.190   6.461  11.995 -0.1089  0.8852  0.5179
19642TIP3    H180341   4.149   6.503  11.919  0.0208 -1.0709 -0.6838
19642TIP3    H280342   4.118   6.453  12.058 -0.1886  2.6516  0.7162
19643TIP3   OH280343   6.044   4.802  15.455  0.5613  0.3524 -0.4463
19643TIP3    H180344   6.123   4.767  15.415  0.1181 -1.4254  0.1407
19643TIP3    H280345   6.065   4.809  15.548  0.4240  1.0662 -0.4614
19644TIP3   OH280346   1.803   5.921  11.173  0.1017  0.0050  0.1575
19644TIP3    H180347   1.776   5.833  11.146 -1.5640 -0.5531  3.1999
19644TIP3    H280348   1.766   5.979  11.106 -0.9214 -1.4194 -0.5790
19645TIP3   OH280349   2.495   2.532   2.947 -0.4089 -0.2374 -0.0411
19645TIP3    H180350   2.464   2.569   3.030  1.1225 -1.6466  1.2166
19645TIP3    H280351   2.557   2.598   2.914 -1.6482  0.7158 -0.5246
19646TIP3   OH280352   1.388   1.459  16.697 -0.3614  0.7043  0.2152
19646TIP3    H180353   1.305   1.444  16.653 -0.6865  1.2895  0.6156
19646TIP3    H280354   1.441   1.508  16.634 -0.4968  0.7514  0.1411
19647TIP3   OH280355   6.645   1.681  12.322  0.0101  0.1509 -0.0900
19647TIP3    H180356   6.603   1.751  12.271 -0.4160  0.5576  0.8040
19647TIP3    H280357   6.590   1.605  12.307 -0.7247  0.5377  0.6086
19648TIP3   OH280358   0.833   6.309  15.881 -0.6833 -0.1017 -0.1900
19648TIP3    H180359   0.910   6.266  15.845 -0.5660 -0.5779  0.6057
19648TIP3    H280360   0.760   6.278  15.827 -0.5037 -0.7657 -0.0550
19649TIP3   OH280361   6.546   6.035   1.513  0.2242  0.1344 -0.2366
19649TIP3    H180362   6.564   5.972   1.583  1.6805 -0.1709 -0.8632
19649TIP3    H280363   6.594   6.114   1.538 -2.0005  1.2424  0.8074
19650TIP3   OH280364   0.729   5.146  11.080  0.0831  0.2335 -0.6549
19650TIP3    H180365   0.822   5.146  11.099 -0.4055  1.1155  2.2038
19650TIP3    H280366   0.705   5.053  11.077  0.7342  0.0228  0.4688
19651TIP3   OH280367   6.774   6.689  16.661  0.2163 -0.8882 -0.3256
19651TIP3    H180368   6.784   6.771  16.710  0.0951  0.2715 -2.1316
19651TIP3    H280369   6.850   6.637  16.686  0.3536 -0.1785  0.7945
19652TIP3   OH280370   5.652   3.913  13.372 -0.3932  0.0584 -0.6064
19652TIP3    H180371   5.747   3.902  13.380 -0.6482 -1.2181  1.3014
19652TIP3    H280372   5.632   3.987  13.430 -0.7483 -0.8547  0.4663
19653TIP3   OH280373   1.687   4.588   0.523  0.1162 -0.0496 -0.1681
19653TIP3    H180374   1.647   4.568   0.607  0.7589  1.8042  0.6331
19653TIP3    H280375   1.767   4.637   0.545  0.1091  0.7908 -1.8342
19654TIP3   OH280376   1.846   4.729   4.483 -0.3292 -0.4308  0.3033
19654TIP3    H180377   1.763   4.729   4.436  0.3491  0.2530 -0.9421
19654TIP3    H280378   1.826   4.765   4.569 -1.4453 -0.9444  0.2666
19655TIP3   OH280379   2.932   0.169   3.283 -0.4044  0.3900 -0.2353
19655TIP3    H180380   2.875   0.108   3.237 -0.0068 -0.5629  0.5088
19655TIP3    H280381   3.013   0.170   3.232 -0.8829  1.3723 -1.0177
19656TIP3   OH280382   5.889   2.357  12.587  0.1666  0.7118 -0.5427
19656TIP3    H180383   5.977   2.361  12.551  0.6915 -0.3919  0.5522
19656TIP3    H280384   5.896   2.300  12.663 -1.4859  0.6385 -0.3957
19657TIP3   OH280385   2.361   6.564   2.108 -0.0979 -0.5837 -0.2923
19657TIP3    H180386   2.349   6.487   2.052  1.4371 -1.4877  0.5537
19657TIP3    H280387   2.417   6.622   2.056 -0.5298 -0.4157 -0.5779
19658TIP3   OH280388   0.162   2.262   5.178  0.2384 -0.0980 -0.6407
19658TIP3    H180389   0.095   2.297   5.119 -1.5196 -0.3902  1.0717
19658TIP3    H280390   0.133   2.173   5.197  0.8119 -0.0569  0.5391
19659TIP3   OH280391   3.062   5.452   3.539 -0.1744 -0.5451  0.1009
19659TIP3    H180392   3.004   5.513   3.494  0.8869  0.0166 -0.5131
19659TIP3    H280393   3.096   5.395   3.470 -0.3879 -1.2056  0.5313
19660TIP3   OH280394   0.370   0.064  16.909  0.4983  0.3824 -0.3611
19660TIP3    H180395   0.379   0.113  16.827 -1.4845  0.8861 -0.3344
19660TIP3    H280396   0.453   0.078  16.954  0.6781  2.2442 -1.1698
19661TIP3   OH280397   5.870   1.925   3.732  0.3545  0.8894  0.0230
19661TIP3    H180398   5.929   1.880   3.791 -0.1691 -0.4031 -0.4072
19661TIP3    H280399   5.871   1.873   3.652 -0.8215  1.2290 -0.2354
19662TIP3   OH280400   3.967   2.004  16.067  0.1955  0.3270  0.1659
19662TIP3    H180401   3.962   2.047  16.153  1.7659  1.2924 -0.1888
19662TIP3    H280402   4.012   1.922  16.084  1.9760  1.2455  0.0496
19663TIP3   OH280403   3.474   0.563  14.487 -0.0425  0.4422  0.5239
19663TIP3    H180404   3.544   0.560  14.422 -0.0152  2.5289  0.3748
19663TIP3    H280405   3.439   0.652  14.480 -1.6865 -0.0663  1.6686
19664TIP3   OH280406   2.461   5.215   5.345 -0.5617  0.4205 -0.3776
19664TIP3    H180407   2.397   5.221   5.273 -0.6804 -2.1659 -0.5774
19664TIP3    H280408   2.545   5.232   5.304 -0.8070  0.7144 -0.7655
19665TIP3   OH280409   5.426   3.899  14.531  0.5191 -0.0691 -0.1558
19665TIP3    H180410   5.460   3.890  14.442 -0.1367  2.3033 -0.7214
19665TIP3    H280411   5.347   3.844  14.532  1.9203 -2.2215 -0.1382
19666TIP3   OH280412   3.319   6.117  14.966 -0.0801 -0.8767  0.3233
19666TIP3    H180413   3.382   6.105  14.895 -0.8856  2.0183 -1.0420
19666TIP3    H280414   3.344   6.200  15.006 -1.4635 -0.9757  1.4588
19667TIP3   OH280415   1.201   2.019   0.781 -0.0604 -0.0149 -0.5287
19667TIP3    H180416   1.134   1.965   0.738 -0.8917  1.5336 -1.2461
19667TIP3    H280417   1.257   2.049   0.709 -1.4465  2.5825 -0.6467
19668TIP3   OH280418   5.587   3.912   0.524  0.6788 -0.0234  0.4408
19668TIP3    H180419   5.601   3.995   0.479 -1.3872 -0.5959 -1.4547
19668TIP3    H280420   5.628   3.846   0.468  0.4440 -0.4864  0.7999
19669TIP3   OH280421   4.726   4.113  12.508  0.2191 -0.4138  0.1331
19669TIP3    H180422   4.653   4.170  12.486  0.0326 -1.3415 -1.9024
19669TIP3    H280423   4.711   4.088  12.600 -1.7870 -0.2405 -0.0996
19670TIP3   OH280424   0.590   3.294   5.535 -0.6245 -1.0070  0.9298
19670TIP3    H180425   0.671   3.281   5.583 -0.0536 -0.6280  0.0908
19670TIP3    H280426   0.528   3.326   5.601  0.3166  0.1206  1.3036
19671TIP3   OH280427   2.480   6.090  14.187 -0.2396 -0.3416  0.4957
19671TIP3    H180428   2.467   6.004  14.229 -0.0144 -0.1229  1.0257
19671TIP3    H280429   2.500   6.149  14.259 -0.8285  0.2582  0.1781
19672TIP3   OH280430   4.110   3.149  13.578 -0.4195  0.4713  0.2982
19672TIP3    H180431   4.078   3.094  13.650  0.5288  0.2589  0.5698
19672TIP3    H280432   4.195   3.112  13.555 -1.4755 -0.5877 -2.1661
19673TIP3   OH280433   5.429   6.718  12.074  0.0412  0.4005  0.0345
19673TIP3    H180434   5.507   6.769  12.052 -0.2429  0.5587 -0.6299
19673TIP3    H280435   5.360   6.757  12.021 -0.2538 -0.4542 -0.2174
19674TIP3   OH280436   3.721   0.733   0.128  0.2441 -0.6335 -0.4738
19674TIP3    H180437   3.781   0.794   0.169 -1.5652  0.1065  1.2428
19674TIP3    H280438   3.685   0.780   0.053  1.9106 -1.1700 -1.6533
19675TIP3   OH280439   3.704   0.483  11.842 -0.5876  0.2711  0.1518
19675TIP3    H180440   3.697   0.392  11.873  1.7887 -0.7068 -1.8229
19675TIP3    H280441   3.632   0.493  11.780 -2.7412  0.8464  2.5700
19676TIP3   OH280442   2.564   4.165  14.027 -0.0119 -0.5998 -0.2443
19676TIP3    H180443   2.517   4.215  13.960  0.9488 -1.0315 -1.2600
19676TIP3    H280444   2.582   4.229  14.096 -1.2096 -0.2004 -0.2740
19677TIP3   OH280445   3.981   2.174  16.843  0.0238  0.5760 -0.2417
19677TIP3    H180446   3.979   2.089  16.797 -0.0246  1.1258 -1.2980
19677TIP3    H280447   3.892   2.208  16.835 -0.0267  0.6066  0.4195
19678TIP3   OH280448   6.688   1.612  16.790  0.0616 -0.9052 -0.3580
19678TIP3    H180449   6.626   1.685  16.782 -2.5280 -2.9213  0.1540
19678TIP3    H280450   6.694   1.576  16.701  0.1948 -0.9450 -0.3319
19679TIP3   OH280451   0.499   0.200  16.155 -0.4900  0.1194 -0.6156
19679TIP3    H180452   0.496   0.229  16.246  1.5461 -0.4234 -0.3203
19679TIP3    H280453   0.420   0.236  16.115 -1.0601  0.9648  1.1859
19680TIP3   OH280454   3.863   5.385  12.797  0.0361 -0.6442  0.0904
19680TIP3    H180455   3.788   5.353  12.847 -0.4035  2.0854  1.3943
19680TIP3    H280456   3.939   5.360  12.850 -0.1465 -1.1023  0.1422
19681TIP3   OH280457   4.254   3.790   5.780 -0.5777 -0.3165  0.0176
19681TIP3    H180458   4.318   3.784   5.709 -0.6901 -0.2590 -0.0912
19681TIP3    H280459   4.258   3.705   5.824  0.8284  0.2702  1.1120
19682TIP3   OH280460   1.801   0.026  12.138  0.1179  0.0786 -0.1645
19682TIP3    H180461   1.767   0.023  12.049  2.7189 -1.3144 -1.2342
19682TIP3    H280462   1.785   0.115  12.167  1.1221  1.2742 -2.9154
19683TIP3   OH280463   1.085   4.771  13.317  0.9687 -0.0860  0.5371
19683TIP3    H180464   1.089   4.748  13.410 -1.3302  0.3405  0.8114
19683TIP3    H280465   1.056   4.862  13.316  3.2400  0.6930 -0.6185
19684TIP3   OH280466   6.641   1.197  12.516 -0.3826 -0.4817  0.0452
19684TIP3    H180467   6.612   1.111  12.546 -1.0010 -0.0118  0.8260
19684TIP3    H280468   6.683   1.180  12.431 -1.4798 -1.3971 -0.3422
19685TIP3   OH280469   1.461   1.078   1.267 -0.3476 -0.3695  0.4374
19685TIP3    H180470   1.374   1.089   1.304 -0.1061  0.2011  0.8361
19685TIP3    H280471   1.485   1.164   1.233  0.4492 -0.2788  1.1823
19686TIP3   OH280472   2.632   3.333   1.655 -0.7093  0.5353  0.0182
19686TIP3    H180473   2.632   3.319   1.561 -1.6554 -0.5496  0.1594
19686TIP3    H280474   2.610   3.426   1.665  0.8228  1.0138 -0.8428
19687TIP3   OH280475   3.936   5.879  12.903 -0.4522  0.6392 -0.1608
19687TIP3    H180476   4.002   5.852  12.839 -1.6712 -0.2501 -1.0636
19687TIP3    H280477   3.854   5.843  12.871 -1.4556  1.9777  0.7910
19688TIP3   OH280478   2.921   4.769   6.150 -0.0690 -0.4850  1.0979
19688TIP3    H180479   2.877   4.730   6.075 -1.3327 -0.9685  2.0466
19688TIP3    H280480   2.939   4.695   6.208  2.2178 -0.3363  0.6849
19689TIP3   OH280481   2.883   5.245   4.430  0.1875  0.2305  0.0731
19689TIP3    H180482   2.788   5.245   4.441  0.0787 -1.0768 -0.6986
19689TIP3    H280483   2.902   5.164   4.384  1.7026  0.4039  0.3368
19690TIP3   OH280484   1.689   2.760  14.043  0.0442 -0.5065  0.0226
19690TIP3    H180485   1.708   2.735  13.952  0.6655  1.0104 -0.2896
19690TIP3    H280486   1.646   2.845  14.036  2.5313  0.9502  1.2427
19691TIP3   OH280487   6.280   1.829   0.547  0.3941 -0.3719 -0.1285
19691TIP3    H180488   6.370   1.810   0.576 -0.0167 -0.2548  1.3107
19691TIP3    H280489   6.265   1.768   0.475  1.7280 -0.1868 -0.5928
19692TIP3   OH280490   4.609   1.746   2.213  0.2406  0.0327 -0.3257
19692TIP3    H180491   4.705   1.741   2.213  0.2122 -0.5936 -0.2709
19692TIP3    H280492   4.589   1.812   2.280  0.6044 -0.7653  0.6045
19693TIP3   OH280493   1.337   5.346   0.321  0.1641  0.2398  0.1853
19693TIP3    H180494   1.266   5.326   0.383  0.3282  1.2404  0.7313
19693TIP3    H280495   1.329   5.441   0.306  0.2546  0.0555 -1.1832
19694TIP3   OH280496   5.579   0.564  11.183  0.0195  0.5554 -0.2072
19694TIP3    H180497   5.627   0.610  11.252  0.1509  0.2684 -0.1089
19694TIP3    H280498   5.559   0.478  11.219  0.8107  0.0991 -0.8163
19695TIP3   OH280499   0.988   2.792   3.795 -0.0719 -0.0680 -0.3568
19695TIP3    H180500   1.000   2.707   3.836  0.3098  0.1059 -0.1049
19695TIP3    H280501   0.972   2.852   3.867  0.8596  0.2832 -0.4344
19696TIP3   OH280502   5.033   3.772   3.513  0.5925  0.4728  0.3936
19696TIP3    H180503   5.049   3.744   3.423  0.0434  1.3731  0.0051
19696TIP3    H280504   5.085   3.852   3.523  0.9685  0.1645  1.0162
19697TIP3   OH280505   6.805   1.207   5.131  0.2493 -0.2814 -0.1379
19697TIP3    H180506   6.857   1.282   5.161  0.6502 -0.6785  0.1842
19697TIP3    H280507   6.785   1.226   5.040  1.8688 -0.6038 -0.5973
19698TIP3   OH280508   5.908   4.719   0.383  0.2174 -0.1593  0.0870
19698TIP3    H180509   5.884   4.641   0.434 -1.1298 -0.4299 -0.9248
19698TIP3    H280510   5.944   4.684   0.301  0.1124  0.2772 -0.1481
19699TIP3   OH280511   5.515   1.218   1.378  0.0333 -0.0248  0.4528
19699TIP3    H180512   5.586   1.281   1.392  1.0392 -1.2209  0.9023
19699TIP3    H280513   5.540   1.142   1.430 -2.4824  0.1587  2.0912
19700TIP3   OH280514   3.353   5.172  15.381 -0.1830  0.3229  0.1606
19700TIP3    H180515   3.284   5.195  15.444 -0.4086  2.5693 -0.8158
19700TIP3    H280516   3.433   5.211  15.418  0.1298 -0.2567  0.1185
19701TIP3   OH280517   0.347   4.733  11.151 -0.2079 -0.8439  0.1396
19701TIP3    H180518   0.344   4.757  11.244  0.2633 -2.8152  0.6962
19701TIP3    H280519   0.412   4.793  11.114  0.6733 -0.9848  1.3861
19702TIP3   OH280520   3.077   4.134  11.332  0.9473 -0.1938 -0.5509
19702TIP3    H180521   3.106   4.219  11.300 -1.9796  1.5497  0.9764
19702TIP3    H280522   2.982   4.142  11.337  0.7610 -2.5399  2.3008
19703TIP3   OH280523   2.575   2.614   1.054 -0.1567  0.4595 -0.0170
19703TIP3    H180524   2.520   2.542   1.023 -1.5254  0.9656  1.1482
19703TIP3    H280525   2.662   2.574   1.066 -0.3335 -0.4435 -1.5015
19704TIP3   OH280526   6.250   6.684  15.005  0.3242 -1.0331  0.1200
19704TIP3    H180527   6.303   6.648  14.934  1.3084  0.1560  0.1999
19704TIP3    H280528   6.238   6.776  14.981  0.9046 -0.5380  1.6007
19705TIP3   OH280529   2.570   3.319   1.949  0.3210 -0.0548  0.6791
19705TIP3    H180530   2.631   3.331   1.877  0.6667  1.5119  1.1861
19705TIP3    H280531   2.622   3.276   2.017  0.2404 -0.7227  0.3240
19706TIP3   OH280532   5.553   0.320  13.100  0.6638 -0.0980 -0.0833
19706TIP3    H180533   5.565   0.245  13.159  1.7242 -1.7686 -2.2624
19706TIP3    H280534   5.475   0.298  13.049 -0.0945  1.2061  0.4544
19707TIP3   OH280535   2.775   2.540  15.536 -0.2947 -0.0558 -0.4652
19707TIP3    H180536   2.767   2.571  15.446  2.0065 -0.4394 -0.8655
19707TIP3    H280537   2.828   2.607  15.579 -2.2456  0.6697  0.9473
19708TIP3   OH280538   2.276   0.123  15.333  0.0905 -0.3286  0.1785
19708TIP3    H180539   2.290   0.053  15.397 -1.0209 -2.2125 -1.4999
19708TIP3    H280540   2.310   0.087  15.250 -0.3758  1.1766 -0.7071
19709TIP3   OH280541   1.289   4.434   1.791  0.4488  0.1135  0.7693
19709TIP3    H180542   1.359   4.457   1.853 -0.9238  0.6124  2.2131
19709TIP3    H280543   1.219   4.497   1.811  0.5332  1.3859 -2.4466
19710TIP3   OH280544   0.600   0.223   3.295 -0.0213  0.7924  0.1322
19710TIP3    H180545   0.582   0.193   3.206  0.2944  1.2446 -0.0877
19710TIP3    H280546   0.569   0.152   3.351  0.9933 -0.0777 -0.3771
19711TIP3   OH280547   2.810   3.719  13.577 -0.1139  0.0192 -0.2288
19711TIP3    H180548   2.819   3.639  13.629  0.8707 -0.4516 -1.0703
19711TIP3    H280549   2.891   3.767  13.594 -0.2230  0.3223 -0.5672
19712TIP3   OH280550   5.796   3.895  12.734 -0.6079  0.5159  0.3488
19712TIP3    H180551   5.717   3.882  12.681 -1.5726  2.1002  1.2872
19712TIP3    H280552   5.812   3.810  12.775 -2.5306  0.4096  0.9943
19713TIP3   OH280553   3.156   2.096   1.838 -0.1734  0.4539  0.6260
19713TIP3    H180554   3.092   2.127   1.773 -0.1172 -0.4512  0.1307
19713TIP3    H280555   3.187   2.177   1.880 -1.0650  0.9685  0.3419
19714TIP3   OH280556   2.903   3.806   5.081 -0.7516 -0.2351  0.0277
19714TIP3    H180557   2.871   3.809   4.991 -1.1315  0.8496  0.1789
19714TIP3    H280558   2.937   3.894   5.097  1.1956 -0.9808  0.2929
19715TIP3   OH280559   1.173   0.069   4.103 -0.1552 -0.3695 -0.0422
19715TIP3    H180560   1.189  -0.019   4.138 -0.0540  0.0153  0.9272
19715TIP3    H280561   1.258   0.098   4.069 -0.2993 -0.8272 -0.8083
19716TIP3   OH280562   1.876   5.334   3.144 -0.5177  0.1583  0.3177
19716TIP3    H180563   1.903   5.252   3.102  1.8213  1.3857 -0.7996
19716TIP3    H280564   1.952   5.360   3.195 -0.9905  1.9117  0.1874
19717TIP3   OH280565   1.613   4.689   4.347 -0.0835  0.1233  0.3865
19717TIP3    H180566   1.586   4.659   4.260  0.9443 -1.6295  0.6361
19717TIP3    H280567   1.534   4.729   4.384 -1.1393 -1.0675 -0.5013
19718TIP3   OH280568   5.554   5.519  12.571  0.5321  0.4759  0.2836
19718TIP3    H180569   5.467   5.521  12.531  0.6687 -1.4908 -0.2405
19718TIP3    H280570   5.554   5.591  12.634 -2.1380 -0.5786  1.6120
19719TIP3   OH280571   1.366   3.726   5.493  0.3799  0.1049  0.3896
19719TIP3    H180572   1.368   3.637   5.458  0.2834 -0.1447  1.0004
19719TIP3    H280573   1.275   3.754   5.481  0.4671  0.2083 -0.0201
19720TIP3   OH280574   4.635   3.006  16.714  0.4432  0.0687 -0.3540
19720TIP3    H180575   4.673   2.957  16.641  0.3710  1.0022 -1.0494
19720TIP3    H280576   4.608   3.089  16.674  0.7358  0.7398  0.8144
19721TIP3   OH280577   4.930   4.821  10.540 -0.2021 -0.2613 -0.1354
19721TIP3    H180578   4.841   4.796  10.564 -0.6479  1.0592 -0.3483
19721TIP3    H280579   4.967   4.859  10.620  0.1698 -0.7666 -0.0594
19722TIP3   OH280580   4.830   2.289   5.622 -0.2006  0.0718  0.2646
19722TIP3    H180581   4.913   2.324   5.654 -0.4693 -0.7830  2.0076
19722TIP3    H280582   4.773   2.366   5.616  0.3936  0.5051  0.1032
19723TIP3   OH280583   1.643   5.582   3.465 -0.4925  0.1743 -0.4855
19723TIP3    H180584   1.675   5.558   3.552 -1.6109  0.4650  0.0237
19723TIP3    H280585   1.688   5.664   3.444 -2.5934  1.9031  1.2665
19724TIP3   OH280586   2.214   2.940   3.385 -0.0806 -0.0242  0.3617
19724TIP3    H180587   2.197   3.032   3.365  3.1440  1.0939  2.0747
19724TIP3    H280588   2.248   2.903   3.304  0.7729  0.9517  0.2548
19725TIP3   OH280589   2.740   3.945  15.206  0.1225  0.2211 -0.1664
19725TIP3    H180590   2.818   3.906  15.247 -0.1798  0.2917  0.4951
19725TIP3    H280591   2.735   3.904  15.120  1.0423  0.4141 -0.3238
19726TIP3   OH280592   2.501   5.158  11.948  0.2610  0.1135  0.1250
19726TIP3    H180593   2.479   5.084  11.893 -1.5624  2.3378 -2.4051
19726TIP3    H280594   2.499   5.124  12.037  1.5917 -3.2604 -0.9985
19727TIP3   OH280595   1.702   1.910   4.490 -0.2370  0.1851 -0.5430
19727TIP3    H180596   1.715   1.925   4.584  0.4101  1.6573 -0.8524
19727TIP3    H280597   1.706   1.815   4.481  1.9873  0.1156  0.6109
19728TIP3   OH280598   5.346   1.116  13.925 -0.1909  0.2802  0.3224
19728TIP3    H180599   5.368   1.082  14.012  0.4466  0.9866  0.4518
19728TIP3    H280600   5.407   1.188  13.912  0.4631 -0.5065 -1.1779
19729TIP3   OH280601   2.614   5.551   3.752  0.1460 -0.2489  0.3368
19729TIP3    H180602   2.621   5.626   3.694  2.1070  0.3839  1.3139
19729TIP3    H280603   2.603   5.588   3.840 -0.6256 -1.1391  0.6345
19730TIP3   OH280604   6.100   6.785   1.102  0.3021 -0.7528 -0.6851
19730TIP3    H180605   6.138   6.699   1.120  1.8473 -0.1723 -1.0732
19730TIP3    H280606   6.059   6.775   1.016  1.4355 -0.8165 -1.2351
19731TIP3   OH280607   3.299   6.257  14.038 -0.2147 -0.2487  0.4229
19731TIP3    H180608   3.319   6.172  14.076 -2.3996 -0.2043  1.8136
19731TIP3    H280609   3.204   6.265  14.045 -0.4837  0.8528 -2.8460
19732TIP3   OH280610   2.514   4.793   1.578 -0.1694  0.9081  0.2578
19732TIP3    H180611   2.466   4.734   1.519  0.5066  1.1547 -0.5485
19732TIP3    H280612   2.465   4.788   1.660  0.4479 -1.6294  0.5821
19733TIP3   OH280613   5.466   1.802   1.191  0.6339  0.3360  0.3210
19733TIP3    H180614   5.503   1.888   1.170 -1.1097  1.5792  2.0471
19733TIP3    H280615   5.433   1.811   1.280  0.4835 -2.1867  0.5931
19734TIP3   OH280616   5.736   5.513   0.051 -0.0406  0.0066  0.3825
19734TIP3    H180617   5.817   5.542   0.094 -1.3591 -1.8303  4.6048
19734TIP3    H280618   5.681   5.591   0.049  0.5781  0.4634  0.7015
19735TIP3   OH280619   1.275   0.735   4.503  0.0216 -0.3113  0.1442
19735TIP3    H180620   1.256   0.655   4.553  1.5154 -0.2238  0.9200
19735TIP3    H280621   1.226   0.804   4.548  1.8237 -0.1171  1.9742
19736TIP3   OH280622   2.808   1.399   4.724  1.0196 -0.3856  0.2306
19736TIP3    H180623   2.819   1.382   4.630  2.2993 -0.9073  0.4485
19736TIP3    H280624   2.804   1.495   4.731 -0.0040 -0.3681 -0.4278
19737TIP3   OH280625   6.451   5.366  16.230 -0.6160  0.0764 -0.0665
19737TIP3    H180626   6.406   5.282  16.242 -1.1807 -0.2096 -3.3722
19737TIP3    H280627   6.384   5.423  16.191  0.3395  1.4356  0.2395
19738TIP3   OH280628   0.948   3.760   5.023  0.4176  0.2187 -0.2647
19738TIP3    H180629   0.932   3.674   4.984 -0.4220  0.9463 -1.5871
19738TIP3    H280630   0.966   3.742   5.116  2.7110 -1.5940 -0.9763
19739TIP3   OH280631   6.786   1.213   4.493  0.5004  0.5738  0.3462
19739TIP3    H180632   6.707   1.242   4.447  0.6646 -0.4030 -0.5817
19739TIP3    H280633   6.780   1.118   4.494  2.4478  0.3873 -1.2051
19740TIP3   OH280634   0.977   3.962  14.737  0.2340  0.0836  0.2670
19740TIP3    H180635   0.905   3.900  14.745 -1.1666  1.4418 -1.0838
19740TIP3    H280636   0.981   3.983  14.643  2.2755  0.2004  0.3334
19741TIP3   OH280637   4.367   2.626   4.699  0.0094 -0.3551 -0.6020
19741TIP3    H180638   4.461   2.638   4.683 -0.0131  0.5801 -0.1112
19741TIP3    H280639   4.326   2.644   4.615  0.1807  0.4864 -0.5102
19742TIP3   OH280640   0.070   0.874  15.464  0.3581 -0.0408 -0.6632
19742TIP3    H180641   0.119   0.936  15.517  0.4362  0.2540 -1.0714
19742TIP3    H280642   0.126   0.858  15.388  0.5000 -0.8963 -0.3812
19743TIP3   OH280643   6.484   0.150   0.039 -0.8567 -0.3944 -0.3450
19743TIP3    H180644   6.456   0.064   0.069 -0.3948 -0.3146  0.3617
19743TIP3    H280645   6.487   0.143  -0.056 -2.4420 -0.6443 -0.4007
19744TIP3   OH280646   4.704   2.009  13.203  0.1332  0.2003  0.0744
19744TIP3    H180647   4.639   1.953  13.246 -0.3110  0.5838 -0.0896
19744TIP3    H280648   4.788   1.976  13.235 -0.0119 -1.6286 -1.2755
19745TIP3   OH280649   3.013   4.704  10.525 -0.4370 -0.2352  0.5798
19745TIP3    H180650   3.037   4.705  10.617 -1.4201  0.8716  0.8507
19745TIP3    H280651   3.045   4.788  10.491  2.2515 -1.6718 -0.7633
19746TIP3   OH280652   6.354   1.982   3.186  0.4615  0.3917  0.6478
19746TIP3    H180653   6.425   2.046   3.193 -0.4110  1.3224  1.2296
19746TIP3    H280654   6.369   1.921   3.258  1.0059  0.2290  0.4009
19747TIP3   OH280655   4.507   1.532  14.190 -0.3279 -0.0418 -0.0525
19747TIP3    H180656   4.576   1.472  14.161  0.1493  0.4251  0.0856
19747TIP3    H280657   4.543   1.574  14.269 -0.1318  1.3129 -0.8208
19748TIP3   OH280658   1.039   5.089  10.438 -0.1109  0.8268 -0.1102
19748TIP3    H180659   1.106   5.027  10.466 -2.4400 -1.4165  0.9532
19748TIP3    H280660   1.074   5.174  10.462  1.5763 -0.3909  2.1410
19749TIP3   OH280661   6.259   6.190  15.105 -0.0993  0.2480  0.1122
19749TIP3    H180662   6.269   6.164  15.014 -0.5569  0.8451 -0.1136
19749TIP3    H280663   6.346   6.221  15.131  0.1968 -0.5250  0.0823
19750TIP3   OH280664   5.476   0.561  11.807 -0.4315 -0.3267  0.1054
19750TIP3    H180665   5.412   0.510  11.758 -1.3215 -0.0513  0.9349
19750TIP3    H280666   5.519   0.616  11.741  1.3486 -2.8600 -0.9983
19751TIP3   OH280667   0.908   5.334  14.296 -0.1030 -0.5484  0.6985
19751TIP3    H180668   1.000   5.326  14.273 -0.2312 -0.0795  0.0093
19751TIP3    H280669   0.906   5.401  14.364  0.1387 -1.0758  1.2363
19752TIP3   OH280670   2.477   6.130   6.303 -0.0792 -0.0494  0.4708
19752TIP3    H180671   2.471   6.199   6.369 -3.0480  1.9609 -1.6533
19752TIP3    H280672   2.570   6.128   6.281  0.3664  2.1985  1.7514
19753TIP3   OH280673   6.153   0.942   2.306  0.4558 -0.1732 -0.1746
19753TIP3    H180674   6.170   0.863   2.254  0.3032  0.2882 -0.9341
19753TIP3    H280675   6.194   0.924   2.390  0.7217 -0.9287 -0.4547
19754TIP3   OH280676   3.758   4.599  14.287 -0.0844 -0.3779 -0.4761
19754TIP3    H180677   3.843   4.614  14.246 -0.3647 -0.7327 -1.2216
19754TIP3    H280678   3.758   4.506  14.309  0.2482 -0.0879  0.7903
19755TIP3   OH280679   0.544   6.387   1.778  0.9350  0.0223  0.4653
19755TIP3    H180680   0.621   6.404   1.832  2.5078  0.9727 -1.8706
19755TIP3    H280681   0.567   6.423   1.692 -1.8207 -0.4189 -0.5669
19756TIP3   OH280682   2.742   0.696  14.557  0.5501 -0.3056 -0.5306
19756TIP3    H180683   2.822   0.669  14.602  0.5185 -2.0159 -1.4258
19756TIP3    H280684   2.762   0.688  14.464 -0.4348 -0.0962 -0.7707
19757TIP3   OH280685   3.318   0.023   5.866  0.1066 -0.0656 -0.6187
19757TIP3    H180686   3.291  -0.057   5.820  0.8119 -2.2510  2.4665
19757TIP3    H280687   3.248   0.038   5.930  0.6430  1.0178 -0.2704
19758TIP3   OH280688   6.285   2.183  13.439  0.0393  0.1746 -0.1880
19758TIP3    H180689   6.212   2.136  13.478  0.3916 -0.0411  0.2234
19758TIP3    H280690   6.357   2.170  13.500  0.4033  0.4419 -0.5531
19759TIP3   OH280691   3.312   3.020   2.382  0.0497  0.2637 -0.2626
19759TIP3    H180692   3.374   3.037   2.310  0.2487  0.9951  0.0709
19759TIP3    H280693   3.226   3.026   2.341  0.1484  1.1736 -0.3510
19760TIP3   OH280694   6.354   2.479   1.655 -0.4371  0.1591  0.2383
19760TIP3    H180695   6.443   2.508   1.674 -0.6378  0.4581  0.7126
19760TIP3    H280696   6.327   2.531   1.579 -0.9325  1.4959  1.3059
19761TIP3   OH280697   1.753   0.559  16.112 -0.0670 -0.2515 -0.7728
19761TIP3    H180698   1.847   0.538  16.112  0.7372  2.8590 -0.0967
19761TIP3    H280699   1.738   0.600  16.197 -1.5777  1.1171 -1.6545
19762TIP3   OH280700   6.251   5.181   0.180 -0.2147  0.1212 -0.4034
19762TIP3    H180701   6.315   5.111   0.167  0.9476  0.3469  3.1758
19762TIP3    H280702   6.167   5.141   0.155  0.9211 -1.0105 -2.6910
19763TIP3   OH280703   0.153   1.272  11.182  0.1922  0.3544 -0.3239
19763TIP3    H180704   0.234   1.231  11.151 -0.9367 -2.1132 -0.2642
19763TIP3    H280705   0.107   1.297  11.102  0.2643  0.1776 -0.4227
19764TIP3   OH280706   1.652   0.254  11.555  0.0494  0.4089 -0.2351
19764TIP3    H180707   1.677   0.346  11.551  0.3704  0.2747 -2.0906
19764TIP3    H280708   1.569   0.254  11.603 -0.9622  1.9094 -1.8739
19765TIP3   OH280709   3.897   6.616  13.345  0.1282  0.8231 -0.1536
19765TIP3    H180710   3.871   6.685  13.284 -0.5983  1.9151  1.3113
19765TIP3    H280711   3.815   6.576  13.373  0.4609  0.2217 -0.0098
19766TIP3   OH280712   2.026   5.082  11.637 -0.4898 -0.2157  0.0641
19766TIP3    H180713   2.099   5.090  11.576 -0.0679  0.7561  0.6709
19766TIP3    H280714   1.953   5.127  11.595 -0.2616  0.2640  0.1805
19767TIP3   OH280715   4.303   0.986   5.692 -0.3055 -0.5087 -0.1185
19767TIP3    H180716   4.394   0.976   5.719  0.5906  3.2592 -1.1430
19767TIP3    H280717   4.253   0.982   5.774  0.8510 -1.6302  0.5718
19768TIP3   OH280718   2.748   3.352  15.993  0.1600 -0.4106 -0.0774
19768TIP3    H180719   2.725   3.270  16.037  1.5447 -0.6736  0.2032
19768TIP3    H280720   2.809   3.395  16.054  0.0236  0.4822 -0.5572
19769TIP3   OH280721   2.331   6.800   6.641  0.1695 -0.6518 -0.1484
19769TIP3    H180722   2.362   6.772   6.727 -4.4744 -2.4468  1.2905
19769TIP3    H280723   2.343   6.723   6.585  2.2925  0.1948 -0.9484
19770TIP3   OH280724   2.358   0.392  15.908 -0.2335  0.0751 -0.1703
19770TIP3    H180725   2.425   0.425  15.968  0.1232  1.1278 -1.1236
19770TIP3    H280726   2.405   0.331  15.851 -0.5333 -0.7774  0.4696
19771TIP3   OH280727   5.034   0.646   3.671 -0.0156 -0.3055  0.3392
19771TIP3    H180728   5.024   0.566   3.723 -1.6258  0.0123  0.5901
19771TIP3    H280729   4.956   0.698   3.692  1.5152  1.8693  1.0650
19772TIP3   OH280730   1.478   3.014  14.648 -0.3368  0.0246 -0.2061
19772TIP3    H180731   1.388   3.017  14.614 -0.2100  0.9958 -0.5047
19772TIP3    H280732   1.533   3.012  14.570 -0.0967 -1.0501 -0.0205
19773TIP3   OH280733   3.709   3.820   3.983  0.0361  0.4818 -0.1573
19773TIP3    H180734   3.747   3.734   4.001 -1.9298 -0.3569  0.2552
19773TIP3    H280735   3.656   3.840   4.060 -1.2653  1.0293 -1.1453
19774TIP3   OH280736   2.734   1.666   0.505  0.3749 -0.4332 -0.0312
19774TIP3    H180737   2.798   1.724   0.546  0.3091 -0.8404  0.6679
19774TIP3    H280738   2.701   1.613   0.577 -0.0951 -0.8391 -0.5407
19775TIP3   OH280739   4.936   4.082  13.221  0.4187  0.4186  0.1271
19775TIP3    H180740   5.021   4.115  13.193  1.1811 -0.2258  1.5523
19775TIP3    H280741   4.892   4.158  13.260  0.6431  0.5965  0.0343
19776TIP3   OH280742   2.402   3.551  13.528  0.4524  0.0406 -0.4036
19776TIP3    H180743   2.350   3.522  13.453 -0.3500 -0.2294  0.2427
19776TIP3    H280744   2.387   3.645  13.533 -1.4151 -0.2666  0.8119
19777TIP3   OH280745   5.623   1.926  14.523  0.3203 -0.1983  0.0757
19777TIP3    H180746   5.577   1.846  14.550  0.0392  0.6514  2.2578
19777TIP3    H280747   5.582   1.950  14.440 -1.9559 -0.4739  1.0608
19778TIP3   OH280748   6.696   6.268   1.564 -0.2245 -0.0935  0.0434
19778TIP3    H180749   6.615   6.293   1.609 -0.5204 -0.4940 -0.2640
19778TIP3    H280750   6.737   6.351   1.541 -0.5696  0.1117  0.1630
19779TIP3   OH280751   5.101   0.498  15.343 -0.1002  0.0108 -0.4433
19779TIP3    H180752   5.075   0.409  15.322 -2.0624  0.5190 -0.4049
19779TIP3    H280753   5.104   0.500  15.439  2.9903 -0.7610 -0.4400
19780TIP3   OH280754   0.834   5.953   1.085  0.1880  0.7184 -0.0606
19780TIP3    H180755   0.762   5.952   1.148  1.9354 -0.6945  2.0871
19780TIP3    H280756   0.825   5.871   1.036 -0.1246  0.9470 -0.3920
19781TIP3   OH280757   3.798   3.818   2.654 -0.0522 -0.0789  0.6826
19781TIP3    H180758   3.885   3.848   2.681  0.0000 -0.6775  1.2228
19781TIP3    H280759   3.787   3.735   2.700 -1.3564  0.5046  1.4867
19782TIP3   OH280760   3.076   2.224  11.098  0.1727 -0.2627  0.4589
19782TIP3    H180761   3.117   2.237  11.012  2.9735  0.9556  1.8310
19782TIP3    H280762   3.106   2.138  11.126 -1.3039 -0.9608 -0.0042
19783TIP3   OH280763   2.242   2.803  11.880 -1.0777 -0.5589 -0.3728
19783TIP3    H180764   2.293   2.867  11.930 -0.1064 -2.5461  1.2747
19783TIP3    H280765   2.249   2.722  11.929  1.4603 -3.2382 -4.4883
19784TIP3   OH280766   2.662   1.885   5.777 -0.3040 -0.0080 -0.1331
19784TIP3    H180767   2.607   1.829   5.831  0.6201  1.1328  2.1696
19784TIP3    H280768   2.629   1.974   5.793  1.1683  0.5366  0.0349
19785TIP3   OH280769   0.125   1.300   5.717  0.1510 -0.0090  0.0050
19785TIP3    H180770   0.052   1.334   5.665 -1.1020 -0.0702  1.6366
19785TIP3    H280771   0.085   1.234   5.773  1.8489 -1.4491 -0.3968
19786TIP3   OH280772   1.461   4.439   0.704 -0.2683  0.4251  0.2915
19786TIP3    H180773   1.481   4.528   0.732  1.3874  0.9869 -2.3596
19786TIP3    H280774   1.400   4.450   0.631 -1.0563 -0.7089  0.7485
19787TIP3   OH280775   3.718   6.092   3.744  0.6662  0.3800  0.3025
19787TIP3    H180776   3.798   6.142   3.762  0.1271  0.8925  1.4423
19787TIP3    H280777   3.718   6.024   3.812  1.5728 -1.4550 -1.4469
19788TIP3   OH280778   5.606   6.495   5.038  0.0947 -0.3705  0.2933
19788TIP3    H180779   5.698   6.505   5.063 -0.1629  1.2012  0.7550
19788TIP3    H280780   5.582   6.580   5.001 -1.4192 -0.4189  1.0692
19789TIP3   OH280781   3.871   5.623   6.459  0.4427  0.2348 -0.3097
19789TIP3    H180782   3.944   5.596   6.515  0.2225 -0.8346 -0.5226
19789TIP3    H280783   3.826   5.691   6.510  1.1389  0.3639  0.1447
19790TIP3   OH280784   0.803   5.216  16.578  0.0313  0.2016 -0.5838
19790TIP3    H180785   0.710   5.238  16.570 -0.1543 -0.4471 -0.2922
19790TIP3    H280786   0.829   5.191  16.490 -0.0148  0.5864 -0.7086
19791TIP3   OH280787   0.926   3.731   4.288 -0.4793 -0.2690 -0.1189
19791TIP3    H180788   0.997   3.792   4.307 -1.8304  1.7692 -1.2191
19791TIP3    H280789   0.920   3.675   4.365  1.5591  0.2237  0.4454
19792TIP3   OH280790   2.087   1.560  11.405  0.3086 -0.5118 -0.4714
19792TIP3    H180791   2.027   1.613  11.353 -1.4910 -1.6613  0.2795
19792TIP3    H280792   2.031   1.524  11.475  1.7685 -2.0927 -0.0443
19793TIP3   OH280793   4.819   0.953   4.187 -0.2826 -0.4318 -0.2906
19793TIP3    H180794   4.882   0.914   4.126 -0.9029 -1.2607 -0.4119
19793TIP3    H280795   4.874   0.988   4.258  0.3000 -1.6362 -0.1172
19794TIP3   OH280796   0.711   4.123  15.191 -0.1210 -0.4874  0.6130
19794TIP3    H180797   0.652   4.079  15.130  1.0035  1.0630 -1.7600
19794TIP3    H280798   0.654   4.178  15.245 -1.0595 -1.0499  0.2102
19795TIP3   OH280799   0.790   4.584  13.189 -0.2719  0.1186  0.2621
19795TIP3    H180800   0.798   4.587  13.094  1.8059  3.6242  0.3963
19795TIP3    H280801   0.880   4.594  13.221 -0.8639 -1.3674  2.6619
19796TIP3   OH280802   0.550   5.920   4.812  0.4085 -0.1330  0.2716
19796TIP3    H180803   0.574   5.838   4.855 -1.5467 -0.6510  0.4675
19796TIP3    H280804   0.460   5.906   4.783 -0.6587  2.5795  1.9342
19797TIP3   OH280805   0.130   0.120  15.613  0.0251  1.2465  0.4244
19797TIP3    H180806   0.166   0.181  15.678  1.4433  0.6972  0.1794
19797TIP3    H280807   0.154   0.158  15.529  0.0076  0.8844  0.2562
19798TIP3   OH280808   0.059   4.245   0.483  0.0301  0.1380  0.3477
19798TIP3    H180809  -0.023   4.233   0.532  0.1403  0.4066  0.5931
19798TIP3    H280810   0.126   4.208   0.539 -0.3876 -4.3814 -1.6713
19799TIP3   OH280811   5.817   3.458   4.852 -0.0149  0.2008 -0.1167
19799TIP3    H180812   5.841   3.544   4.888 -0.7635  0.9012 -1.2394
19799TIP3    H280813   5.788   3.408   4.929 -0.4104  1.2494  0.4434
19800TIP3   OH280814   1.786   3.686  11.260  0.3906  0.2570  0.1677
19800TIP3    H180815   1.779   3.772  11.301  1.2393  0.3239  0.1873
19800TIP3    H280816   1.791   3.625  11.334 -0.3366  0.1621  0.1551
19801TIP3   OH280817   2.014   6.237  11.748 -0.4838  0.3721  0.3524
19801TIP3    H180818   1.926   6.218  11.716 -0.8820 -0.1929  1.7043
19801TIP3    H280819   2.071   6.216  11.674 -1.4788  0.8238 -0.5716
19802TIP3   OH280820   2.423   0.712  17.063 -0.0067 -0.3031  0.3367
19802TIP3    H180821   2.477   0.635  17.044 -0.3426 -0.3875 -0.3326
19802TIP3    H280822   2.421   0.760  16.980 -2.1015 -1.0256 -0.0922
19803TIP3   OH280823   4.098   2.490   4.425  0.2039 -0.2569  0.1607
19803TIP3    H180824   4.015   2.535   4.414  1.0395  1.5439  0.8490
19803TIP3    H280825   4.164   2.557   4.407  1.6186 -2.3008 -3.2330
19804TIP3   OH280826   6.376   4.064  10.701  0.0978 -0.1027 -0.2245
19804TIP3    H180827   6.380   4.140  10.643 -0.0907 -1.8503 -2.6536
19804TIP3    H280828   6.458   4.067  10.751  0.1666  1.5656 -0.3848
19805TIP3   OH280829   6.800   1.741   3.884 -0.4134 -0.4452  0.0541
19805TIP3    H180830   6.760   1.725   3.799  0.1165  1.5956 -0.6446
19805TIP3    H280831   6.854   1.664   3.901  1.0515 -0.0655 -2.4311
19806TIP3   OH280832   6.198   3.302  16.152  0.2319  0.0074 -0.2645
19806TIP3    H180833   6.115   3.290  16.105  0.5355 -3.2470 -0.1867
19806TIP3    H280834   6.265   3.304  16.083  0.5078 -2.9572 -0.1978
19807TIP3   OH280835   1.135   4.059   4.856 -0.0524  0.5227  0.0250
19807TIP3    H180836   1.221   4.082   4.891  0.3381  0.9211 -1.1420
19807TIP3    H280837   1.153   4.018   4.771 -0.9228 -1.1240  0.5738
19808TIP3   OH280838   3.685   5.975  11.149 -0.0635  0.4799 -0.3125
19808TIP3    H180839   3.736   5.894  11.155 -1.5051 -0.3781  0.8311
19808TIP3    H280840   3.701   6.006  11.059  0.9578 -0.7529 -0.5864
19809TIP3   OH280841   6.776   6.236  12.242  0.3835 -0.1407 -0.1617
19809TIP3    H180842   6.684   6.213  12.259  0.7650  0.2393  3.1568
19809TIP3    H280843   6.823   6.154  12.252  0.6670  0.1595  1.1436
19810TIP3   OH280844   2.169   3.585   4.616  0.4194 -0.3312  0.1348
19810TIP3    H180845   2.194   3.669   4.655  0.9505 -0.2122 -0.4279
19810TIP3    H280846   2.130   3.535   4.687  0.2161  0.3501  0.5063
19811TIP3   OH280847   6.269   2.268   0.698 -0.2250  0.8558  0.2797
19811TIP3    H180848   6.264   2.204   0.627  0.0182  0.5692  0.5195
19811TIP3    H280849   6.360   2.299   0.696 -0.1816  0.7489  0.5496
19812TIP3   OH280850   5.067   0.963   0.085  0.9531  0.0736 -0.8184
19812TIP3    H180851   5.073   0.990   0.177  0.8864  2.1409 -1.3768
19812TIP3    H280852   5.156   0.973   0.052  0.7627  0.3658 -1.2455
19813TIP3   OH280853   2.721   4.159   3.479  0.5540  0.0178 -0.3593
19813TIP3    H180854   2.724   4.190   3.570 -0.2497 -0.0239 -0.3101
19813TIP3    H280855   2.632   4.177   3.450  0.6215 -0.5329 -0.9461
19814TIP3   OH280856   4.181   2.161   5.758 -0.6788  0.2719 -0.4816
19814TIP3    H180857   4.257   2.218   5.746 -0.6569  0.6894  1.3414
19814TIP3    H280858   4.106   2.221   5.758 -0.7948  0.1323 -0.0929
19815TIP3   OH280859   0.325   0.150  14.986  0.3813  0.5478 -0.2108
19815TIP3    H180860   0.392   0.205  14.947  0.3759  0.7115  0.0068
19815TIP3    H280861   0.249   0.207  14.994  0.7559  0.8831  1.1758
19816TIP3   OH280862   5.348   2.358   0.602 -0.7928 -0.1703  0.0574
19816TIP3    H180863   5.415   2.418   0.636 -2.1551  0.6970  1.3237
19816TIP3    H280864   5.279   2.359   0.668 -1.7541 -1.6016 -0.8707
19817TIP3   OH280865   4.141   2.853  15.222 -0.0685 -0.4624  0.1833
19817TIP3    H180866   4.147   2.759  15.204 -2.1041 -0.8077  0.9938
19817TIP3    H280867   4.053   2.877  15.194  0.9042  1.5571 -1.3379
19818TIP3   OH280868   5.787   1.253  12.880  0.2615 -0.5029 -0.5399
19818TIP3    H180869   5.779   1.160  12.859  0.5151 -0.3031 -1.5457
19818TIP3    H280870   5.881   1.268  12.887  0.2193 -0.3275 -0.3261
19819TIP3   OH280871   3.601   6.408  12.060 -0.0992 -0.2724  0.0783
19819TIP3    H180872   3.670   6.463  12.023  0.0340 -0.9073 -0.6405
19819TIP3    H280873   3.534   6.469  12.089  0.3113  0.2967 -0.1558
19820TIP3   OH280874   0.693   6.131  13.524  0.4022 -0.0631  0.0819
19820TIP3    H180875   0.703   6.225  13.510  0.3325 -0.1988 -0.9770
19820TIP3    H280876   0.619   6.106  13.468  0.2136 -0.6929  0.5961
19821TIP3   OH280877   3.658   2.928  16.146  0.4253  0.0432  0.0154
19821TIP3    H180878   3.570   2.909  16.177  0.2484  0.3064 -0.3058
19821TIP3    H280879   3.671   3.021  16.165 -0.1319  0.5185 -1.6889
19822TIP3   OH280880   6.549   1.802   0.657 -0.7723  0.1820  0.5286
19822TIP3    H180881   6.643   1.782   0.651 -1.1138 -1.2132 -1.3952
19822TIP3    H280882   6.512   1.731   0.709 -0.9161  0.0285  0.2235
19823TIP3   OH280883   2.554   5.085   2.357  0.2498 -0.6527 -0.6887
19823TIP3    H180884   2.511   5.017   2.409 -1.9864  0.4295 -1.0106
19823TIP3    H280885   2.498   5.097   2.281  2.0211 -0.2783 -2.0122
19824TIP3   OH280886   0.855   5.390  13.851  0.1596 -0.2159  0.1331
19824TIP3    H180887   0.843   5.332  13.926  0.0518  1.3739  1.3885
19824TIP3    H280888   0.790   5.459  13.863 -0.6721 -0.5530 -2.0868
19825TIP3   OH280889   4.029   2.958  11.499  0.2868 -0.5294  0.1223
19825TIP3    H180890   3.971   2.883  11.485 -1.9605  1.2427 -0.6527
19825TIP3    H280891   4.088   2.958  11.423  0.3180 -1.4786  0.1359
19826TIP3   OH280892   6.455   4.827   1.655  0.0116 -0.2999 -0.1390
19826TIP3    H180893   6.514   4.874   1.596  2.2014 -1.7570  0.7433
19826TIP3    H280894   6.431   4.891   1.721  1.6347  0.0667  0.1475
19827TIP3   OH280895   2.082   1.220  15.915 -0.6610 -0.0277  0.0815
19827TIP3    H180896   2.083   1.141  15.969 -1.9144  0.0396  0.2471
19827TIP3    H280897   2.056   1.189  15.828 -0.7383  0.1373  0.0447
19828TIP3   OH280898   4.898   3.630  17.038 -0.1457  0.2083 -0.1193
19828TIP3    H180899   4.976   3.575  17.042  0.3817  0.9207 -0.4379
19828TIP3    H280900   4.861   3.614  16.951 -0.2748 -0.0130 -0.0252
19829TIP3   OH280901   1.065   5.496  14.480  0.4833 -0.0622 -0.2294
19829TIP3    H180902   1.094   5.518  14.391  1.8579 -1.1996 -0.1089
19829TIP3    H280903   1.121   5.550  14.536  1.4878 -1.2764 -0.0220
19830TIP3   OH280904   1.217   5.882  11.132 -0.1185 -0.2734 -0.0377
19830TIP3    H180905   1.197   5.882  11.038 -0.9470 -0.6077  0.1373
19830TIP3    H280906   1.152   5.824  11.171 -1.7628  2.1890  1.1707
19831TIP3   OH280907   0.033   6.023  13.186  0.1267 -0.2068 -0.2757
19831TIP3    H180908  -0.044   5.985  13.229 -0.6563  1.5247 -0.0996
19831TIP3    H280909   0.001   6.054  13.102  0.3799  1.4276  0.2090
19832TIP3   OH280910   5.026   3.107   1.254  0.1172  0.4829 -0.4862
19832TIP3    H180911   4.994   3.099   1.344 -0.3907 -0.5056 -0.7382
19832TIP3    H280912   5.115   3.142   1.263  0.3806 -0.3637  0.4646
19833TIP3   OH280913   4.140   0.065  12.026 -0.3159  0.5283  0.1062
19833TIP3    H180914   4.179  -0.014  12.065 -3.3016 -2.0786 -1.6804
19833TIP3    H280915   4.212   0.126  12.018  2.7028 -2.7291 -0.1490
19834TIP3   OH280916   4.901   3.247   0.077 -1.2851 -0.5357 -0.2049
19834TIP3    H180917   4.901   3.280  -0.013 -1.3034 -1.5949 -0.6135
19834TIP3    H280918   4.948   3.163   0.071  1.7218  0.8921  1.3790
19835TIP3   OH280919   4.913   3.499   4.572 -0.1843  0.1883  0.1819
19835TIP3    H180920   4.874   3.559   4.509  0.3364  1.8591  1.3771
19835TIP3    H280921   4.946   3.427   4.519  0.0169  1.4104 -1.4323
19836TIP3   OH280922   4.379   1.197  10.686  0.4398  0.6640 -0.2190
19836TIP3    H180923   4.424   1.146  10.619  0.1191  2.5519 -1.9582
19836TIP3    H280924   4.448   1.247  10.729  0.5554 -0.0031  0.3846
19837TIP3   OH280925   0.005   1.288  11.400 -0.3557 -0.3799  0.0529
19837TIP3    H180926   0.087   1.297  11.352 -1.3213 -0.8466 -1.8133
19837TIP3    H280927  -0.060   1.273  11.332 -2.0866  0.5121  1.4298
19838TIP3   OH280928   1.293   4.467  12.596 -0.1155 -0.6228  0.3642
19838TIP3    H180929   1.341   4.513  12.528 -0.6757 -1.6421 -0.7612
19838TIP3    H280930   1.359   4.413  12.639 -0.1027 -1.5195 -0.7400
19839TIP3   OH280931   0.312   4.083   3.919  0.7393  0.0781  0.0050
19839TIP3    H180932   0.261   4.149   3.966  1.0609  0.4369 -0.1402
19839TIP3    H280933   0.369   4.046   3.986  0.4912 -0.1217  0.1072
19840TIP3   OH280934   6.653   2.348  14.285  0.2658  0.3133  0.2145
19840TIP3    H180935   6.598   2.316  14.213 -0.1819  0.6201  0.4103
19840TIP3    H280936   6.742   2.328  14.258  0.0200 -0.7768  0.1751
19841TIP3   OH280937   4.266   6.780  16.685 -0.0063  0.0067 -0.0295
19841TIP3    H180938   4.308   6.714  16.740 -0.9074 -0.2152  0.4193
19841TIP3    H280939   4.328   6.853  16.684 -0.1201  0.1706  1.6317
19842TIP3   OH280940   5.725   4.772   3.286 -0.2592 -0.4319 -0.1480
19842TIP3    H180941   5.634   4.795   3.268 -1.0740 -2.0141  1.5313
19842TIP3    H280942   5.749   4.825   3.362  0.1592 -0.1514 -0.4738
19843TIP3   OH280943   3.076   1.572  12.975 -0.2673 -0.5108 -0.7042
19843TIP3    H180944   2.986   1.546  12.994 -0.2613 -1.5902 -1.9953
19843TIP3    H280945   3.110   1.502  12.919  1.3661 -0.1099 -0.2859
19844TIP3   OH280946   0.689   3.892   2.788  0.0399  0.0110 -0.1240
19844TIP3    H180947   0.675   3.968   2.731 -2.3419  1.1257  1.7791
19844TIP3    H280948   0.678   3.817   2.730 -2.4038  1.0841 -1.2150
19845TIP3   OH280949   5.876   4.038  11.254  0.2159  0.2737 -0.2275
19845TIP3    H180950   5.929   3.998  11.185  1.9799  2.4598 -0.2428
19845TIP3    H280951   5.894   3.986  11.332 -1.1077 -1.6751 -1.1251
19846TIP3   OH280952   0.931   6.084  14.141  0.0957 -0.2217  0.0999
19846TIP3    H180953   0.856   6.144  14.138  0.2654 -0.0331 -0.3796
19846TIP3    H280954   1.001   6.130  14.094  0.2995 -0.6933 -0.0654
19847TIP3   OH280955   1.272   6.066  15.268  0.0127  0.3147 -0.3925
19847TIP3    H180956   1.325   5.987  15.253  0.1978 -0.0030  1.6124
19847TIP3    H280957   1.189   6.048  15.225  0.8000 -0.0333 -1.8417
19848TIP3   OH280958   2.448   1.678  10.343  0.1339  0.3286 -0.2602
19848TIP3    H180959   2.431   1.600  10.396  0.9544 -0.0544 -0.5408
19848TIP3    H280960   2.543   1.683  10.337  0.0615  0.4240 -1.6122
19849TIP3   OH280961   4.468   5.392  12.724 -0.2629  0.3029  0.5543
19849TIP3    H180962   4.529   5.349  12.784  2.2451  0.0916 -1.9526
19849TIP3    H280963   4.412   5.445  12.781  1.1457 -0.7994  3.1463
19850TIP3   OH280964   1.606   5.241   0.619  0.2402 -0.1059  0.0626
19850TIP3    H180965   1.522   5.245   0.666 -1.2056 -0.0422 -2.3545
19850TIP3    H280966   1.583   5.213   0.531  2.6946  0.6401 -0.9136
19851TIP3   OH280967   2.414   1.057   4.028  0.5265  0.1797 -0.5156
19851TIP3    H180968   2.320   1.070   4.015  0.8021  1.8222 -1.0904
19851TIP3    H280969   2.440   1.126   4.089  1.1308 -1.1613  0.8203
19852TIP3   OH280970   4.970   3.500  16.466  0.0212 -0.4639 -0.0088
19852TIP3    H180971   5.018   3.429  16.423  1.7522  0.2175  0.7371
19852TIP3    H280972   4.986   3.577  16.411 -1.3735 -0.4848 -0.4925
19853TIP3   OH280973   5.116   3.860  14.477 -0.2411 -0.0655 -0.5671
19853TIP3    H180974   5.133   3.768  14.497  1.2192  0.2624 -0.2237
19853TIP3    H280975   5.153   3.873  14.389  1.3819  0.6592  0.1866
19854TIP3   OH280976   5.087   5.038  12.255  0.0432 -0.9129  0.5610
19854TIP3    H180977   5.037   5.087  12.190  0.6485  2.5463  2.4724
19854TIP3    H280978   5.153   4.991  12.204 -1.0408 -0.3522 -1.4663
19855TIP3   OH280979   0.822   5.975  11.503  0.2273  0.6884 -0.7214
19855TIP3    H180980   0.791   5.964  11.414 -1.7745 -0.1323  0.0128
19855TIP3    H280981   0.842   5.887  11.533 -1.5020  0.6244  0.3917
19856TIP3   OH280982   6.414   0.478   0.763  0.1798  0.1656 -0.2148
19856TIP3    H180983   6.397   0.395   0.807 -0.5351  0.9565  1.0607
19856TIP3    H280984   6.469   0.527   0.824  1.0470  0.4464 -1.1854
19857TIP3   OH280985   3.312   3.688   0.221  0.0857  0.0860 -0.3418
19857TIP3    H180986   3.229   3.704   0.266  0.3622  0.1153  0.1637
19857TIP3    H280987   3.356   3.773   0.222  0.4119 -0.0851 -0.0086
19858TIP3   OH280988   5.283   4.240  12.142  0.5317 -0.1610 -0.0343
19858TIP3    H180989   5.307   4.151  12.120 -0.1380 -1.0621  2.4916
19858TIP3    H280990   5.188   4.238  12.153  0.3707  1.1286 -0.8686
19859TIP3   OH280991   4.603   2.348  11.381 -0.0875 -0.0948 -0.0150
19859TIP3    H180992   4.509   2.369  11.389  0.3485  1.9527  0.3091
19859TIP3    H280993   4.622   2.361  11.289 -0.1849 -0.9384 -0.1658
19860TIP3   OH280994   3.199   5.751  14.551  0.0572 -0.0632 -0.4123
19860TIP3    H180995   3.195   5.681  14.485  1.5964  0.8142 -1.5110
19860TIP3    H280996   3.289   5.784  14.544  0.3626 -0.1081  2.3572
19861TIP3   OH280997   6.053   4.913  15.731  0.0076  0.6718 -0.0349
19861TIP3    H180998   5.981   4.933  15.791  0.4860  3.5350 -0.2707
19861TIP3    H280999   6.131   4.909  15.788  0.1743  1.4160 -0.1954
19862TIP3   OH281000   0.246   4.354   1.742  0.2589 -0.4678 -0.2468
19862TIP3    H181001   0.272   4.423   1.681  1.4830 -1.4461 -0.8785
19862TIP3    H281002   0.225   4.400   1.823  1.4456  0.6143 -0.5210
19863TIP3   OH281003   6.047   0.285   0.284  0.8332 -0.0098 -0.4358
19863TIP3    H181004   6.010   0.197   0.276  0.6942 -0.0844  0.8600
19863TIP3    H281005   6.118   0.287   0.220  1.1396 -1.2335 -0.1606
19864TIP3   OH281006   2.436   0.803  16.790 -0.2526  0.1816 -0.1038
19864TIP3    H181007   2.489   0.724  16.778 -1.4424 -0.8397  1.0250
19864TIP3    H281008   2.364   0.793  16.728  0.1997  0.9657 -0.7729
19865TIP3   OH281009   1.638   1.842  15.890 -0.1255  0.3109 -0.2327
19865TIP3    H181010   1.648   1.937  15.893 -1.6908  0.4995  0.4382
19865TIP3    H281011   1.544   1.828  15.906  0.2184 -1.3729  0.5461
19866TIP3   OH281012   6.649   4.649  16.011  0.6286 -0.0732  0.0191
19866TIP3    H181013   6.662   4.652  16.106 -0.1607 -0.8935  0.1637
19866TIP3    H281014   6.643   4.556  15.991 -0.8209  0.1318 -0.5947
19867TIP3   OH281015   5.535   4.797  16.041  0.1198  0.6641  0.2004
19867TIP3    H181016   5.594   4.738  16.089 -1.4296 -1.0645  0.0699
19867TIP3    H281017   5.528   4.758  15.954 -0.5014  1.3721 -0.0766
19868TIP3   OH281018   3.504   5.826  13.289 -0.2400  0.0361 -0.3009
19868TIP3    H181019   3.599   5.815  13.296 -0.4890 -2.9799 -0.3292
19868TIP3    H281020   3.491   5.920  13.283  2.6273  0.6360  1.2968
19869TIP3   OH281021   2.651   1.744  11.165 -0.6789  0.3658 -0.2322
19869TIP3    H181022   2.690   1.830  11.151 -0.1874  0.0758 -0.6734
19869TIP3    H281023   2.662   1.699  11.081 -3.3176  0.7903 -0.9321
19870TIP3   OH281024   6.464   1.555  12.930  0.3329 -0.1955  0.3353
19870TIP3    H181025   6.438   1.481  12.985  2.9949  0.3118  2.5680
19870TIP3    H281026   6.553   1.576  12.961  0.8876  1.9391 -2.3804
19871TIP3   OH281027   2.481   2.026   2.500  0.0078  0.4487  0.2920
19871TIP3    H181028   2.531   2.020   2.582 -0.9984  0.8639  0.9709
19871TIP3    H281029   2.421   1.952   2.504  0.6337 -0.1218 -0.5762
19872TIP3   OH281030   4.410   6.464   4.652 -0.2165  0.0528 -0.0001
19872TIP3    H181031   4.476   6.491   4.715 -0.4652  0.1931  0.1983
19872TIP3    H281032   4.356   6.401   4.699 -1.0866  1.0020  0.2784
19873TIP3   OH281033   0.949   3.421   0.101 -0.5397  0.2430 -0.0864
19873TIP3    H181034   0.980   3.335   0.128 -1.0125  0.2529  0.5022
19873TIP3    H281035   0.862   3.428   0.139 -1.0743  0.4182 -1.2990
19874TIP3   OH281036   5.755   4.903  14.699 -0.0963 -0.0545 -0.4413
19874TIP3    H181037   5.764   4.845  14.775  0.4710 -0.5900 -0.9035
19874TIP3    H281038   5.795   4.855  14.627 -0.3527  0.5753 -1.0202
19875TIP3   OH281039   5.345   2.959  16.142 -0.0462  0.0468  0.3986
19875TIP3    H181040   5.363   2.870  16.112  1.7100  1.8582 -5.3246
19875TIP3    H281041   5.430   3.003  16.141 -1.2711  2.6378 -0.9893
19876TIP3   OH281042   1.651   4.221   2.937  0.5150 -0.1132 -0.1690
19876TIP3    H181043   1.571   4.256   2.976  0.4461  2.3537 -2.2467
19876TIP3    H281044   1.645   4.127   2.949 -1.8640  0.1418  1.2261
19877TIP3   OH281045   4.935   0.342   4.343 -0.0413  0.0358 -0.8107
19877TIP3    H181046   4.848   0.375   4.323 -0.2162  0.3472  0.4206
19877TIP3    H281047   4.929   0.247   4.328 -0.2591  0.1971 -1.8161
19878TIP3   OH281048   2.909   3.375   1.481 -0.0232  0.3185  0.4477
19878TIP3    H181049   2.889   3.287   1.511  0.6295  0.0495  0.1056
19878TIP3    H281050   2.856   3.386   1.401 -0.2167  0.2912  0.5730
19879TIP3   OH281051   5.703   0.143  16.121  0.4266 -0.2090 -0.3941
19879TIP3    H181052   5.686   0.227  16.079 -1.5670  0.7585  2.0739
19879TIP3    H281053   5.783   0.158  16.172  0.2376  0.1276 -0.1887
19880TIP3   OH281054   4.775   0.259   5.094  0.1111 -0.0890  0.1681
19880TIP3    H181055   4.862   0.275   5.056  0.3611  1.1068  1.1475
19880TIP3    H281056   4.766   0.328   5.160  0.3951 -2.9229  3.4516
19881TIP3   OH281057   2.882   0.301  14.644 -0.5990 -0.5658 -0.1001
19881TIP3    H181058   2.959   0.315  14.699 -1.1848  2.0994  0.1598
19881TIP3    H281059   2.913   0.248  14.571  1.0680 -0.9802  0.8758
19882TIP3   OH281060   4.557   6.300   5.884  0.1759 -0.5645 -0.0362
19882TIP3    H181061   4.652   6.307   5.875 -0.0253  3.7275 -0.9551
19882TIP3    H281062   4.524   6.301   5.794 -0.7553 -0.5704  0.2920
19883TIP3   OH281063   3.502   2.957   3.479  0.0686 -0.1731 -0.4341
19883TIP3    H181064   3.542   3.044   3.480  1.0026 -0.5560  2.0221
19883TIP3    H281065   3.564   2.903   3.430  0.6097  0.0840 -0.0400
19884TIP3   OH281066   5.551   1.327  13.910 -0.3478 -0.4914  0.4683
19884TIP3    H181067   5.601   1.285  13.840 -0.6853  0.5885 -0.4567
19884TIP3    H281068   5.519   1.409  13.871 -0.1731  0.3571  2.0226
19885TIP3   OH281069   2.362   6.773  12.108  0.2004 -0.7748 -0.1070
19885TIP3    H181070   2.368   6.822  12.026  0.1182  0.8597  0.8308
19885TIP3    H281071   2.275   6.796  12.143 -0.7479 -3.2561 -0.6344
19886TIP3   OH281072   3.466   2.920  14.812 -0.9228 -0.2319  0.1041
19886TIP3    H181073   3.501   3.008  14.827 -0.4011 -0.5555  0.8284
19886TIP3    H281074   3.528   2.879  14.752 -1.6232  0.1695 -0.9311
19887TIP3   OH281075   6.776   1.499  17.015  0.6254  0.0117 -0.9876
19887TIP3    H181076   6.752   1.515  16.924  0.8541 -0.8631 -1.2029
19887TIP3    H281077   6.776   1.404  17.024 -1.5674  0.0632  0.4963
19888TIP3   OH281078   4.326   6.757   0.082  0.0338 -0.1106  0.0951
19888TIP3    H181079   4.370   6.672   0.085 -0.1429 -0.2544 -1.0180
19888TIP3    H281080   4.233   6.736   0.077 -0.2743  0.2002  2.9348
19889TIP3   OH281081   2.839   4.109  16.319 -0.0559  0.1398 -0.2822
19889TIP3    H181082   2.766   4.050  16.340  0.8549 -0.4647  1.3823
19889TIP3    H281083   2.837   4.175  16.388  1.0327  0.0542 -0.1551
19890TIP3   OH281084   1.776   0.294   3.987  0.1447 -0.4546 -0.0939
19890TIP3    H181085   1.757   0.361   3.921  2.3915 -0.5920 -0.9504
19890TIP3    H281086   1.737   0.329   4.067  0.8015  1.6650 -0.6335
19891TIP3   OH281087   6.413   0.715  16.789  0.5797  0.5477 -0.0414
19891TIP3    H181088   6.349   0.784  16.768  0.5649  0.3241 -0.7677
19891TIP3    H281089   6.412   0.658  16.713  2.3931  1.0893 -0.5285
19892TIP3   OH281090   6.650   6.491  17.055 -0.5037  0.2747  0.3087
19892TIP3    H181091   6.604   6.525  17.132  0.7228  1.3023  0.6263
19892TIP3    H281092   6.632   6.555  16.986  0.0097  0.4051  0.2912
19893TIP3   OH281093   3.528   3.829   2.777 -0.1546 -0.2889  0.0087
19893TIP3    H181094   3.472   3.903   2.800 -0.7626 -0.0034 -2.1625
19893TIP3    H281095   3.582   3.861   2.705  1.4624 -1.1790  0.7697
19894TIP3   OH281096   4.301   5.055   4.717 -0.2938 -0.3927 -0.2343
19894TIP3    H181097   4.327   5.067   4.626  1.6555 -0.4042  0.2811
19894TIP3    H281098   4.227   5.115   4.729 -1.0353 -0.8942 -1.9785
19895TIP3   OH281099   5.605   2.416   1.279 -0.0469 -0.2249 -0.8003
19895TIP3    H181100   5.668   2.356   1.238  0.0952 -1.7137  1.3927
19895TIP3    H281101   5.536   2.358   1.311 -1.6765  1.2015 -1.6061
19896TIP3   OH281102   5.608   1.904  13.507 -0.2652 -1.0518  0.4531
19896TIP3    H181103   5.591   1.978  13.448 -0.8668 -1.4728  0.0931
19896TIP3    H281104   5.528   1.897  13.559  0.2212 -0.7442  1.2711
19897TIP3   OH281105   6.525   4.347  13.917  0.2807 -0.0473  0.3577
19897TIP3    H181106   6.610   4.368  13.956  0.3224  2.6003 -0.9290
19897TIP3    H281107   6.544   4.283  13.849  1.5163  1.4197 -0.7581
19898TIP3   OH281108   3.144   1.302   4.325  0.6701 -0.5214 -0.2141
19898TIP3    H181109   3.224   1.354   4.317  0.5148 -0.1444  0.5574
19898TIP3    H281110   3.092   1.324   4.248  0.8122  0.1197 -0.1272
19899TIP3   OH281111   5.215   0.318   1.691 -0.5207 -0.1137 -0.5616
19899TIP3    H181112   5.291   0.353   1.645  0.6556 -2.4955 -0.5350
19899TIP3    H281113   5.209   0.227   1.664 -1.4651 -0.8537  1.8673
19900TIP3   OH281114   3.941   3.062   3.544  0.6357  0.5402 -0.5183
19900TIP3    H181115   3.989   2.984   3.515  0.3969  0.6957 -1.3746
19900TIP3    H281116   3.862   3.062   3.490  0.8496  1.6198 -0.8431
19901TIP3   OH281117   2.482   4.515  14.653 -0.4166  1.0775  0.2711
19901TIP3    H181118   2.404   4.463  14.635  0.2740  0.2282 -0.3961
19901TIP3    H281119   2.538   4.458  14.705 -0.3884  1.8131  1.0596
19902TIP3   OH281120   2.440   5.620  15.580 -0.3891 -0.6471  0.4222
19902TIP3    H181121   2.425   5.705  15.622  1.4462  0.4288 -0.9587
19902TIP3    H281122   2.470   5.563  15.651  0.4154  0.4849  1.0309
19903TIP3   OH281123   3.774   1.922   4.233  1.0672 -0.8965 -0.3474
19903TIP3    H181124   3.702   1.976   4.202  0.2732 -1.5247  0.3505
19903TIP3    H281125   3.841   1.985   4.261  0.4945 -0.2952 -0.3078
19904TIP3   OH281126   4.721   0.909   1.915 -0.3899 -0.1661 -0.5687
19904TIP3    H181127   4.739   0.832   1.970 -0.4421 -0.2703 -0.6978
19904TIP3    H281128   4.626   0.916   1.915 -0.4685 -0.9258 -1.6832
19905TIP3   OH281129   6.652   0.768   0.572  0.6082  0.0203 -0.5531
19905TIP3    H181130   6.579   0.751   0.631  1.2703  0.7619  0.5248
19905TIP3    H281131   6.612   0.811   0.496 -0.3214 -1.3968 -0.9003
19906TIP3   OH281132   0.329   4.822   2.190  0.6482  0.4836  0.8744
19906TIP3    H181133   0.296   4.906   2.157  1.4273 -0.0233 -1.4064
19906TIP3    H281134   0.407   4.844   2.241  0.1194  1.2221  1.3772
19907TIP3   OH281135   1.039   4.030  14.459  0.3970 -0.3646 -0.3419
19907TIP3    H181136   0.945   4.049  14.465  0.3549 -0.9615  1.3547
19907TIP3    H281137   1.078   4.112  14.430 -0.1712  1.4336  3.4232
19908TIP3   OH281138   0.861   3.791   0.637  0.3316  0.0751 -0.2166
19908TIP3    H181139   0.886   3.871   0.592  0.9370 -0.7052 -1.3127
19908TIP3    H281140   0.940   3.737   0.636 -0.5286 -1.2224 -1.0351
19909TIP3   OH281141   5.841   4.193   2.959  0.1957  0.2542  0.2262
19909TIP3    H181142   5.923   4.174   2.913  1.9993  2.1579  2.4019
19909TIP3    H281143   5.820   4.112   3.005  1.7020  0.1443  0.7803
19910TIP3   OH281144   4.989   0.864  16.812 -0.4242 -0.0790 -0.0540
19910TIP3    H181145   5.047   0.928  16.770 -0.8107  1.1832  1.2591
19910TIP3    H281146   4.959   0.908  16.892  0.5710 -2.4761  1.7829
19911TIP3   OH281147   1.877   4.230  14.588  0.7181 -0.1484  0.2793
19911TIP3    H181148   1.861   4.254  14.679 -0.6776  1.9864 -0.4508
19911TIP3    H281149   1.841   4.303  14.537 -0.6620 -2.2917 -2.0654
19912TIP3   OH281150   4.751   4.189   1.537  0.0403 -0.4035  0.4779
19912TIP3    H181151   4.767   4.247   1.611  0.6821 -0.3534  0.3002
19912TIP3    H281152   4.741   4.249   1.462 -2.9587 -0.2540  0.8545
19913TIP3   OH281153   4.278   6.032  13.148 -0.2858  0.2843  0.1224
19913TIP3    H181154   4.334   6.067  13.217  0.2885  0.4922 -0.4360
19913TIP3    H281155   4.320   5.951  13.121  0.3307  0.9443 -0.9941
19914TIP3   OH281156   0.191   4.433  12.396  0.0102  0.3374  0.5425
19914TIP3    H181157   0.196   4.443  12.491 -0.1914 -0.4113  0.6373
19914TIP3    H281158   0.262   4.488  12.362  1.3930 -0.9791  1.2348
19915TIP3   OH281159   0.515   5.236  11.867  0.0854  0.2280 -0.5380
19915TIP3    H181160   0.598   5.280  11.883  1.8376 -3.1233  0.6426
19915TIP3    H281161   0.449   5.295  11.902  2.4206  0.8193  3.5184
19916TIP3   OH281162   6.014   2.137   1.664  0.2530 -0.3356 -0.7403
19916TIP3    H181163   5.937   2.097   1.623  2.2279 -3.7256 -1.5391
19916TIP3    H281164   6.088   2.108   1.610  2.3285  1.0763  1.1467
19917TIP3   OH281165   1.053   0.375   2.824  0.6585 -0.1031 -0.0523
19917TIP3    H181166   0.964   0.374   2.860 -0.4505 -0.4766 -2.5808
19917TIP3    H281167   1.110   0.369   2.901 -1.4452  1.1056  1.7278
19918TIP3   OH281168   3.505   5.823   1.643 -0.3630 -0.2036 -0.0784
19918TIP3    H181169   3.439   5.890   1.626 -1.4077 -1.4584 -1.2646
19918TIP3    H281170   3.478   5.749   1.588  3.2392 -0.0448 -2.4428
19919TIP3   OH281171   2.132   5.776   3.868 -0.0041  0.1726  0.0947
19919TIP3    H181172   2.125   5.870   3.856 -1.4041  0.2103  0.9210
19919TIP3    H281173   2.105   5.738   3.784  0.0669  0.4987 -0.0756
19920TIP3   OH281174   1.113   3.107  14.262  0.2673  0.3003 -0.3481
19920TIP3    H181175   1.055   3.040  14.299  0.7136 -0.2396 -0.6157
19920TIP3    H281176   1.190   3.106  14.319  0.9814 -0.5725 -1.2967
19921TIP3   OH281177   3.358   3.217   4.066  0.4774 -0.0041 -0.0979
19921TIP3    H181178   3.353   3.140   4.009  1.6714  0.9938 -1.6452
19921TIP3    H281179   3.445   3.255   4.048 -0.9615  3.0797 -1.3065
19922TIP3   OH281180   0.498   2.471  15.133 -0.1546 -0.6082  0.9914
19922TIP3    H181181   0.426   2.423  15.175 -0.2232 -0.2147  1.3175
19922TIP3    H281182   0.522   2.539  15.195  1.0907 -1.2619  1.2672
19923TIP3   OH281183   2.158   6.560   2.490  0.2385 -1.0343  0.4453
19923TIP3    H181184   2.074   6.576   2.447  0.7295 -2.2828 -1.0559
19923TIP3    H281185   2.182   6.644   2.528 -1.7360 -0.6818  1.0177
19924TIP3   OH281186   2.680   2.000  15.214 -0.5270 -0.5131 -0.8054
19924TIP3    H181187   2.645   1.917  15.184 -1.1869 -0.8474  0.8168
19924TIP3    H281188   2.700   1.987  15.306  0.1798  0.8683 -0.7250
19925TIP3   OH281189   1.303   5.259  15.503  0.2554 -0.0229 -0.0849
19925TIP3    H181190   1.309   5.353  15.522  1.4717 -0.3131  1.0936
19925TIP3    H281191   1.238   5.254  15.433  0.5011  1.7386 -0.5034
19926TIP3   OH281192   5.802   3.501  13.052  0.1662 -0.4049  0.4066
19926TIP3    H181193   5.727   3.458  13.010  4.0598 -5.2013 -2.8569
19926TIP3    H281194   5.822   3.446  13.128  1.1276 -0.0641  0.4170
19927TIP3   OH281195   3.101   3.576   1.399 -0.2213 -0.0897  0.2276
19927TIP3    H181196   3.183   3.527   1.400 -1.7530 -3.0502 -2.1422
19927TIP3    H281197   3.034   3.512   1.424 -1.9021  2.1442  1.8698
19928TIP3   OH281198   6.567   5.623  16.429  0.1547  0.2697  0.0092
19928TIP3    H181199   6.658   5.609  16.403 -0.4821  0.4224 -2.6165
19928TIP3    H281200   6.522   5.642  16.347 -2.0850  1.1808  1.3650
19929TIP3   OH281201   2.938   2.884  15.464 -0.5591  0.4527 -0.3079
19929TIP3    H181202   2.971   2.955  15.519  0.2128 -1.1454  1.4364
19929TIP3    H281203   2.957   2.912  15.374  0.0151  2.2673  0.3373
19930TIP3   OH281204   6.568   0.981   2.647 -0.1112  0.3342 -0.1888
19930TIP3    H181205   6.510   1.056   2.662  1.1048  1.4457 -0.8311
19930TIP3    H281206   6.553   0.957   2.556  0.3413  0.5666 -0.3307
19931TIP3   OH281207   1.002   2.495  15.845  0.3943 -0.5860  0.0011
19931TIP3    H181208   1.048   2.411  15.852 -0.0965 -0.8222  0.4084
19931TIP3    H281209   1.061   2.557  15.887  1.0355 -0.6131 -0.8359
19932TIP3   OH281210   0.367   3.997   1.472 -0.3580 -0.3273  0.5653
19932TIP3    H181211   0.288   4.049   1.481 -0.3863 -0.3763  0.5975
19932TIP3    H281212   0.390   4.005   1.379 -1.3628 -1.6996  0.1616
19933TIP3   OH281213   5.427   0.191  11.671 -0.1828  0.2693 -0.0263
19933TIP3    H181214   5.388   0.277  11.684  2.9167  2.1339 -1.8313
19933TIP3    H281215   5.402   0.166  11.582  0.3380  0.1227 -0.1356
19934TIP3   OH281216   4.226   1.199   0.664  0.6803 -0.7175  0.5103
19934TIP3    H181217   4.139   1.173   0.636  0.4770  1.0694 -0.7182
19934TIP3    H281218   4.215   1.226   0.755 -0.4205  0.9225 -0.0643
19935TIP3   OH281219   3.615   6.260   4.317  0.2137  0.3469  0.0793
19935TIP3    H181220   3.630   6.187   4.257 -0.4833 -1.6631  2.2245
19935TIP3    H281221   3.670   6.331   4.283  1.7702 -1.5119 -1.4700
19936TIP3   OH281222   5.085   3.276  14.013  0.1138 -0.7927  0.3481
19936TIP3    H181223   5.147   3.348  14.020  1.3399 -1.8024  0.2671
19936TIP3    H281224   5.029   3.299  13.939  0.8724 -0.2062 -0.0510
19937TIP3   OH281225   1.535   4.051  11.286 -0.1095 -0.3648  0.0797
19937TIP3    H181226   1.531   4.064  11.192 -0.9536 -0.1503  0.1429
19937TIP3    H281227   1.514   4.137  11.324 -0.7285 -0.6837  0.4673
19938TIP3   OH281228   4.352   1.987  11.598  0.0863 -0.3983  0.4055
19938TIP3    H181229   4.385   1.898  11.585  1.3404  0.0540  0.3478
19938TIP3    H281230   4.417   2.029  11.655 -1.5513 -0.1224  2.1886
19939TIP3   OH281231   1.904   4.752  15.669  0.1510  0.3784  0.1483
19939TIP3    H181232   1.812   4.757  15.642 -0.1766  0.2995  1.1949
19939TIP3    H281233   1.948   4.819  15.616 -1.1321  2.8486  1.9793
19940TIP3   OH281234   4.464   6.710   5.110  0.5442  0.2556  0.3937
19940TIP3    H181235   4.556   6.711   5.087  0.1706  1.6137 -1.2592
19940TIP3    H281236   4.421   6.758   5.039 -1.4565 -0.5057  1.0209
19941TIP3   OH281237   0.649   0.596   1.966 -0.1847  0.0405  0.0099
19941TIP3    H181238   0.615   0.592   1.876  0.0880  1.4391 -0.1929
19941TIP3    H281239   0.689   0.683   1.971  0.1131 -0.1647  1.3879
19942TIP3   OH281240   4.411   5.147  10.610  0.4039  0.1287  0.4526
19942TIP3    H181241   4.322   5.161  10.577  0.5809  0.1396 -0.0264
19942TIP3    H281242   4.467   5.154  10.533  0.7429 -0.7408  0.6008
19943TIP3   OH281243   3.973   1.147   2.633  0.6304  0.3292  0.1016
19943TIP3    H181244   3.954   1.236   2.663  0.5974  0.0999  0.7917
19943TIP3    H281245   4.007   1.103   2.711  4.7403  0.8841 -1.1355
19944TIP3   OH281246   5.214   5.457  11.710 -0.5190 -0.4478  0.0037
19944TIP3    H181247   5.237   5.451  11.618 -0.1087  0.4742  0.0418
19944TIP3    H281248   5.293   5.429  11.757 -0.8551 -1.3012  0.0814
19945TIP3   OH281249   5.981   5.162  11.753 -0.7821  0.7709  0.0882
19945TIP3    H181250   5.959   5.104  11.827  1.4625  0.0053  0.2253
19945TIP3    H281251   5.955   5.113  11.675  0.4708 -0.1652  0.2344
19946TIP3   OH281252   6.478   6.544  15.787  0.3474  0.5604 -0.4793
19946TIP3    H181253   6.391   6.582  15.776 -0.2584 -0.6443  0.0189
19946TIP3    H281254   6.532   6.588  15.720 -0.7137  1.0572 -1.0284
19947TIP3   OH281255   3.133   6.325   2.046 -0.7854 -0.6406 -0.6646
19947TIP3    H181256   3.143   6.294   2.136 -2.2879  0.9478  0.1201
19947TIP3    H281257   3.038   6.332   2.034 -0.5674  0.9088 -1.7489
19948TIP3   OH281258   2.768   4.348  10.752  0.2268  0.1494 -0.0255
19948TIP3    H181259   2.796   4.370  10.840 -0.2761  1.4097 -0.1605
19948TIP3    H281260   2.738   4.257  10.758  0.6233  0.0781  0.9834
19949TIP3   OH281261   5.093   3.188   2.360  0.1207 -0.5190  0.5694
19949TIP3    H181262   5.071   3.133   2.435 -0.5143  1.5537  1.9650
19949TIP3    H281263   5.073   3.277   2.388 -1.4401  0.2410 -2.5196
19950TIP3   OH281264   5.594   6.009  14.939 -0.3088  0.2213 -0.0898
19950TIP3    H181265   5.645   6.084  14.909  0.2985  1.0958  2.7810
19950TIP3    H281266   5.630   5.989  15.026 -2.9918 -0.9124  0.8714
19951TIP3   OH281267   3.455   1.216   0.405  0.2270 -0.0928 -0.0151
19951TIP3    H181268   3.534   1.181   0.364 -1.7775 -0.7318 -3.8065
19951TIP3    H281269   3.475   1.308   0.423  1.8874 -0.2757 -0.7820
19952TIP3   OH281270   1.373   0.455  13.138  0.1402  0.2886 -0.2951
19952TIP3    H181271   1.314   0.423  13.070  0.9835 -1.4211 -0.2892
19952TIP3    H281272   1.454   0.406  13.124  0.8546  1.0565  0.9693
19953TIP3   OH281273   2.199   0.881   5.750 -0.1195  0.3205 -0.3087
19953TIP3    H181274   2.192   0.929   5.667  2.6779 -1.1030 -1.4986
19953TIP3    H281275   2.117   0.831   5.756  0.0975 -0.4569 -2.8495
19954TIP3   OH281276   0.905   1.353  11.769 -0.6882 -0.4987  0.1326
19954TIP3    H181277   0.880   1.311  11.851  0.9747 -0.2004  0.8272
19954TIP3    H281278   0.891   1.285  11.702 -1.7321 -0.8524  0.6936
19955TIP3   OH281279   0.801   1.182  10.680  0.2956  0.0046 -0.2347
19955TIP3    H181280   0.796   1.241  10.756 -1.5069  0.7945 -0.8940
19955TIP3    H281281   0.880   1.210  10.634  1.1209 -0.1236  1.0401
19956TIP3   OH281282   3.486   1.371  14.616 -0.4185 -0.7302 -0.3009
19956TIP3    H181283   3.529   1.306  14.672 -2.4565 -0.6775  1.4506
19956TIP3    H281284   3.394   1.365  14.638 -0.7617  2.5784 -0.2497
19957TIP3   OH281285   5.677   6.524   3.546  0.5194 -0.0720  0.0681
19957TIP3    H181286   5.637   6.609   3.526  0.8016  0.3097  1.0654
19957TIP3    H281287   5.620   6.460   3.503  1.0924  0.6769 -1.9153
19958TIP3   OH281288   5.934   0.389   4.452 -0.2734  0.5533  0.0916
19958TIP3    H181289   5.990   0.438   4.512  0.5437  0.3567 -0.4894
19958TIP3    H281290   5.859   0.447   4.436 -1.3472 -0.0273  2.5294
19959TIP3   OH281291   3.070   1.333   1.326 -0.2063 -0.2696 -0.4325
19959TIP3    H181292   3.148   1.386   1.343 -1.0065  1.2656 -1.3215
19959TIP3    H281293   3.102   1.243   1.325  1.3783  0.2529  0.1664
19960TIP3   OH281294   4.562   4.139  15.882 -0.3296  0.2407 -0.2026
19960TIP3    H181295   4.569   4.100  15.795 -2.2441  1.5327 -0.9955
19960TIP3    H281296   4.478   4.107  15.916 -0.6548  1.4965  0.2270
19961TIP3   OH281297   1.422   6.638   5.312  0.6255  0.2407  0.0145
19961TIP3    H181298   1.397   6.729   5.296 -1.2697  0.4631  3.3538
19961TIP3    H281299   1.516   6.642   5.330  1.2170  0.9777 -2.7743
19962TIP3   OH281300   4.625   0.676  13.653  0.2849 -0.5388 -0.7464
19962TIP3    H181301   4.610   0.582  13.644  0.1050 -0.6039  0.1145
19962TIP3    H281302   4.594   0.714  13.571 -2.0387 -0.9687 -0.1262
19963TIP3   OH281303   1.618   2.761   2.646  0.1367  0.6930  0.5149
19963TIP3    H181304   1.664   2.683   2.679  0.9879  1.8008  2.1465
19963TIP3    H281305   1.546   2.773   2.707  0.4850  1.6049  0.7643
19964TIP3   OH281306   5.696   5.158  14.949 -0.2321 -0.4469 -0.4182
19964TIP3    H181307   5.768   5.095  14.947 -0.7979 -1.1050 -1.6476
19964TIP3    H281308   5.725   5.230  14.893  0.3551  0.3710  0.8740
19965TIP3   OH281309   3.344   0.184  16.651  0.5546 -0.0590  0.3433
19965TIP3    H181310   3.346   0.093  16.681  3.8246  0.1856  1.2938
19965TIP3    H281311   3.375   0.180  16.561 -1.4012 -0.0013 -0.3913
19966TIP3   OH281312   1.018   1.031  14.630  0.3683 -0.4311  0.2983
19966TIP3    H181313   0.945   0.998  14.577 -0.2759  1.0766  0.1918
19966TIP3    H281314   1.082   1.062  14.566  0.6824 -0.8439  0.4047
19967TIP3   OH281315   0.199   1.674  13.729  0.3100 -0.0515 -1.1478
19967TIP3    H181316   0.186   1.739  13.798 -0.6546 -0.3603 -1.0255
19967TIP3    H281317   0.221   1.726  13.652 -0.7959  0.4627 -1.1342
19968TIP3   OH281318   2.979   1.786  11.457 -0.2436  0.1263 -0.2255
19968TIP3    H181319   2.975   1.822  11.546 -2.4332 -1.5507  0.4584
19968TIP3    H281320   3.072   1.768  11.442  0.3484  1.8584  1.0969
19969TIP3   OH281321   2.880   4.266  14.977  0.0518  0.3149  0.4207
19969TIP3    H181322   2.861   4.181  14.937  1.6324 -0.8003  1.8616
19969TIP3    H281323   2.795   4.297  15.009 -0.7928  0.0299 -1.4479
19970TIP3   OH281324   5.432   2.233   3.614 -0.3563  0.1705 -1.0034
19970TIP3    H181325   5.361   2.180   3.577 -1.0602  0.2867  0.1541
19970TIP3    H281326   5.511   2.183   3.596 -1.0011 -1.2830  0.0527
19971TIP3   OH281327   6.032   4.995  12.022  0.0954 -0.7202 -0.0786
19971TIP3    H181328   6.099   4.948  11.971  1.2038  1.6417 -0.9499
19971TIP3    H281329   6.069   5.000  12.110  0.6964 -0.1587 -0.3554
19972TIP3   OH281330   6.359   3.614  12.579 -0.3812 -0.2944 -0.3546
19972TIP3    H181331   6.369   3.564  12.661 -1.4507 -0.2935 -0.2188
19972TIP3    H281332   6.284   3.574  12.536  1.4345 -1.7527 -2.4060
19973TIP3   OH281333   1.970   2.425  16.001 -0.4437 -0.4347 -0.4285
19973TIP3    H181334   1.915   2.456  15.930 -0.4796 -0.8202 -0.5749
19973TIP3    H281335   1.942   2.475  16.077  0.4258  0.8566 -0.9262
19974TIP3   OH281336   3.231   4.058   4.881  0.3318  0.0448  0.3677
19974TIP3    H181337   3.272   3.981   4.842  0.5017  0.2047  0.2259
19974TIP3    H281338   3.139   4.034   4.891  0.9092 -1.2691  3.1178
19975TIP3   OH281339   2.600   6.483   1.618 -0.7907  0.0851 -0.8651
19975TIP3    H181340   2.595   6.393   1.585  2.0325  0.3867 -2.4917
19975TIP3    H281341   2.551   6.534   1.554 -0.5172 -0.0588 -1.1963
19976TIP3   OH281342   5.189   4.313  15.614  0.1199  0.3369 -0.0756
19976TIP3    H181343   5.247   4.286  15.543 -1.5803  0.0921 -1.4277
19976TIP3    H281344   5.216   4.402  15.634  0.6519  0.3971 -1.0006
19977TIP3   OH281345   0.632   2.233  14.926 -0.4979 -0.2117  0.3752
19977TIP3    H181346   0.716   2.248  14.968 -1.0258 -0.6562  1.6228
19977TIP3    H281347   0.641   2.273  14.839  1.8244 -2.3348 -0.4771
19978TIP3   OH281348   0.965   0.146  14.220  0.7791 -0.0404 -0.0299
19978TIP3    H181349   0.908   0.214  14.185 -2.5330 -3.0743 -1.2181
19978TIP3    H281350   1.038   0.193  14.258 -1.5747  4.1681 -0.0840
19979TIP3   OH281351   3.876   0.613   3.071  0.4487  0.6497 -0.4058
19979TIP3    H181352   3.945   0.649   3.126  0.1417  1.1420 -0.3350
19979TIP3    H281353   3.917   0.603   2.985 -0.0420  3.2720 -1.0172
19980TIP3   OH281354   5.605   4.962   1.455 -0.1954  0.1857  0.4880
19980TIP3    H181355   5.695   4.983   1.430  0.1114 -2.7154 -1.2544
19980TIP3    H281356   5.613   4.897   1.525 -0.8823 -0.6597 -0.1906
19981TIP3   OH281357   5.005   2.086  16.672  0.1174 -0.6273 -0.0360
19981TIP3    H181358   5.045   2.130  16.597 -1.3558  0.6867 -0.1210
19981TIP3    H281359   4.954   2.155  16.715 -2.1040 -2.1672 -0.0075
19982TIP3   OH281360   1.791   1.983  11.101 -0.0871  0.0269 -0.5389
19982TIP3    H181361   1.775   2.073  11.127 -1.6866 -0.2737 -0.3640
19982TIP3    H281362   1.884   1.980  11.079  0.2808  1.4036  0.6796
19983TIP3   OH281363   1.193   1.309  14.140  0.6643 -0.2765 -0.1527
19983TIP3    H181364   1.136   1.348  14.074  0.8777  0.7912  0.2695
19983TIP3    H281365   1.242   1.383  14.176 -0.7579 -0.4921  2.4821
19984TIP3   OH281366   6.777   0.415   2.837 -0.3308  0.3761 -0.1980
19984TIP3    H181367   6.783   0.473   2.761  1.4515 -0.4866 -0.7720
19984TIP3    H281368   6.852   0.439   2.891  0.3963 -1.3137 -0.4136
19985TIP3   OH281369   5.329   1.145   4.772  0.0194  0.1630 -0.1835
19985TIP3    H181370   5.260   1.111   4.829  0.9953 -1.7237 -0.0600
19985TIP3    H281371   5.383   1.069   4.751  1.5489  1.4190 -1.0235
19986TIP3   OH281372   1.261   4.410  14.861  0.7680  0.0151  0.1790
19986TIP3    H181373   1.195   4.465  14.904  1.1176  1.8475 -1.4985
19986TIP3    H281374   1.221   4.386  14.777  0.8193 -1.9884  0.6714
19987TIP3   OH281375   0.420   5.751   2.254  0.4766 -0.0555  0.2989
19987TIP3    H181376   0.431   5.695   2.330 -0.6051 -1.2035 -0.3557
19987TIP3    H281377   0.455   5.836   2.281  1.6321 -0.8729  1.5055
19988TIP3   OH281378   3.179   2.041  13.125  0.6942 -0.1123 -0.8955
19988TIP3    H181379   3.132   2.078  13.050  1.7734 -0.5440 -1.8070
19988TIP3    H281380   3.212   1.957  13.094  0.9193 -0.4305  0.1662
19989LIG      O81381   3.322   3.126  15.362 -0.2119 -0.5686 -0.4850
19989LIG     C181382   3.389   3.245  15.325 -0.6451 -0.7200 -0.7403
19989LIG     C281383   3.535   3.226  15.360 -0.6506  0.0475 -0.5130
19989LIG     C381384   3.379   3.252  15.172  0.4578 -0.3077  0.4396
19989LIG     H181385   3.341   3.328  15.381  0.1619 -1.4690  1.1454
19989LIG     H281386   3.596   3.286  15.290  2.1428 -1.2761  0.6419
19989LIG     H381387   3.573   3.122  15.363 -0.3403  0.1730  0.3066
19989LIG     H481388   3.536   3.257  15.467 -0.3224  0.1590 -0.5497
19989LIG     H581389   3.277   3.280  15.137  0.7677 -0.6429 -0.7915
19989LIG     H681390   3.404   3.154  15.127 -0.5343  0.1034 -1.0855
19989LIG     H781391   3.448   3.321  15.120 -1.6773  0.6499 -1.3107
19989LIG     H881392   3.348   3.112  15.454  1.3915  0.8235 -0.6817
   6.81187   6.81187  17.08008
