Title
43181
    1CHL1    C3    1   1.379   6.061   6.680 -1.0375 -0.1090  0.0787
    1CHL1    H3    2   1.283   6.030   6.727  0.8779 -0.6674  3.9634
    1CHL1    O3    3   1.464   6.110   6.792  0.1646 -1.0470  0.3817
    1CHL1   H3'    4   1.422   6.194   6.811 -1.8471 -1.9350  0.0677
    1CHL1    C4    5   1.450   5.939   6.621  0.1993 -0.1954  0.2678
    1CHL1   H4A    6   1.553   5.973   6.598 -0.1246  0.0022 -1.0067
    1CHL1   H4B    7   1.471   5.863   6.699  1.2081 -1.0662 -0.8077
    1CHL1    C5    8   1.385   5.886   6.494  0.1411  0.2102 -0.0358
    1CHL1    C6    9   1.346   5.758   6.475  0.3873  0.0473 -0.3329
    1CHL1    H6   10   1.370   5.683   6.552 -2.4218 -0.7769 -0.1388
    1CHL1    C7   11   1.276   5.702   6.352 -0.8853  0.2053 -0.3728
    1CHL1   H7A   12   1.322   5.604   6.327  0.5499 -0.1232  3.0564
    1CHL1   H7B   13   1.169   5.676   6.369 -0.4158 -0.2425  2.2632
    1CHL1    C8   14   1.294   5.799   6.231  0.2729  0.5847  0.0441
    1CHL1    H8   15   1.395   5.779   6.190 -0.5134  0.9673 -2.2315
    1CHL1   C14   16   1.196   5.758   6.118  0.6358  0.7237  0.4789
    1CHL1   H14   17   1.097   5.787   6.158 -0.4920  0.2902 -1.7969
    1CHL1   C15   18   1.184   5.611   6.075 -0.7943  0.6441  0.4921
    1CHL1  H15A   19   1.283   5.567   6.051 -0.9055  1.6098 -2.0631
    1CHL1  H15B   20   1.142   5.546   6.155  1.2880 -0.5353  0.6943
    1CHL1   C16   21   1.108   5.612   5.947  0.5662  0.1116  0.3416
    1CHL1  H16A   22   1.156   5.558   5.862 -2.2418 -0.7754 -0.7997
    1CHL1  H16B   23   1.008   5.567   5.962  0.7301 -0.3720  0.0067
    1CHL1   C17   24   1.100   5.768   5.903 -0.6021 -0.4331  0.0183
    1CHL1   H17   25   1.007   5.807   5.949 -0.1832  2.7132 -1.5541
    1CHL1   C13   26   1.213   5.837   5.985  0.2824  0.3356  0.2533
    1CHL1   C18   27   1.353   5.825   5.925  0.5275 -0.1585  0.0246
    1CHL1  H18A   28   1.386   5.720   5.911  1.0043  0.0690 -0.6033
    1CHL1  H18B   29   1.358   5.877   5.827  2.1263 -1.9997 -0.9352
    1CHL1  H18C   30   1.432   5.878   5.983  0.4412  0.6985 -0.6111
    1CHL1   C12   31   1.182   5.988   6.025 -0.0284 -0.0294 -0.0639
    1CHL1  H12A   32   1.187   6.048   5.931 -0.2519 -1.2375 -0.8779
    1CHL1  H12B   33   1.078   5.991   6.064  0.2684  1.0914  0.6986
    1CHL1   C11   34   1.271   6.039   6.141  0.5016  0.2232  0.1138
    1CHL1  H11A   35   1.366   6.066   6.090 -0.1919 -0.2364 -1.4977
    1CHL1  H11B   36   1.221   6.133   6.175 -2.0587 -0.5777 -1.1391
    1CHL1    C9   37   1.268   5.950   6.266 -0.4488  0.7236 -0.9653
    1CHL1    H9   38   1.167   5.954   6.311  0.6499  0.1844  1.7874
    1CHL1   C10   39   1.358   5.994   6.386 -0.8195 -0.3683  0.3511
    1CHL1   C19   40   1.500   6.024   6.316 -0.3648  0.0446 -0.0137
    1CHL1  H19A   41   1.573   6.049   6.396 -1.3486  3.0479  0.0919
    1CHL1  H19B   42   1.540   5.950   6.244  0.6054  1.7398 -1.2834
    1CHL1  H19C   43   1.482   6.122   6.266 -2.4400 -0.1080  0.3196
    1CHL1    C1   44   1.291   6.115   6.449 -0.3321 -0.6570 -0.4960
    1CHL1   H1A   45   1.289   6.191   6.367  2.8781 -0.9144 -0.9578
    1CHL1   H1B   46   1.188   6.094   6.482 -1.0987  0.5678 -1.9713
    1CHL1    C2   47   1.363   6.170   6.573 -0.2098  0.7080  0.7229
    1CHL1   H2A   48   1.318   6.266   6.606  0.2442  1.3402 -0.4498
    1CHL1   H2B   49   1.470   6.188   6.549  0.2288 -2.8198 -0.5299
    1CHL1   C20   50   1.103   5.793   5.749  0.6982  0.4561 -0.2248
    1CHL1   H20   51   1.209   5.809   5.721  0.0049  2.6089 -1.9288
    1CHL1   C21   52   1.020   5.924   5.736  0.5214  0.2187 -0.0512
    1CHL1  H21A   53   1.026   5.970   5.635 -0.2042  1.8570  0.6018
    1CHL1  H21B   54   1.058   6.006   5.800  0.4887  0.1891  0.0057
    1CHL1  H21C   55   0.916   5.912   5.774  1.5864  0.3581  3.1443
    1CHL1   C22   56   1.041   5.677   5.661 -0.5159 -0.0781 -0.1021
    1CHL1  H22A   57   1.029   5.583   5.718 -0.1091 -0.1632 -0.1500
    1CHL1  H22B   58   0.936   5.712   5.650  0.0524  1.0513 -2.5532
    1CHL1   C23   59   1.108   5.659   5.525 -0.1718  0.2968 -0.3285
    1CHL1  H23A   60   1.126   5.760   5.483 -2.6647  1.0838  0.3436
    1CHL1  H23B   61   1.200   5.600   5.544  0.0710  0.7822 -0.0140
    1CHL1   C24   62   1.029   5.570   5.427  0.0682 -0.0849  0.4232
    1CHL1  H24A   63   0.986   5.489   5.490 -1.9112  1.3838  1.0825
    1CHL1  H24B   64   0.948   5.639   5.395 -1.0617  0.0477  3.2486
    1CHL1   C25   65   1.111   5.522   5.312 -0.3100  0.4467  0.4039
    1CHL1   H25   66   1.198   5.463   5.348 -0.6114  0.7951  1.7641
    1CHL1   C26   67   1.041   5.439   5.205 -0.5341 -0.1690 -0.5034
    1CHL1  H26A   68   0.959   5.506   5.169  0.7455  1.3134 -0.7330
    1CHL1  H26B   69   1.105   5.419   5.116  1.1664  0.8782  0.4419
    1CHL1  H26C   70   1.010   5.344   5.253  0.7748 -1.2902 -1.7857
    1CHL1   C27   71   1.162   5.641   5.236 -0.2805 -0.4911 -0.6055
    1CHL1  H27A   72   1.206   5.715   5.305 -0.5636  0.1134 -1.0703
    1CHL1  H27B   73   1.230   5.629   5.150 -2.1901 -0.5431 -2.1840
    1CHL1  H27C   74   1.072   5.693   5.196  0.1214  0.5941 -0.1134
    2CHL1    C3   75   1.995   0.353   6.874 -0.2447 -0.5535 -0.7561
    2CHL1    H3   76   1.919   0.279   6.841 -2.1284  0.9053  0.1643
    2CHL1    O3   77   2.036   0.320   7.008 -0.6587  0.3435 -0.3927
    2CHL1   H3'   78   2.092   0.385   7.049 -1.0623  0.6815 -0.3706
    2CHL1    C4   79   2.130   0.356   6.792 -0.0098  1.0046  0.9756
    2CHL1   H4A   80   2.202   0.421   6.846  0.5584  2.3309 -1.2676
    2CHL1   H4B   81   2.173   0.253   6.797 -0.8634  0.5911  0.1480
    2CHL1    C5   82   2.098   0.382   6.648 -0.5699  0.2873 -0.2446
    2CHL1    C6   83   2.132   0.300   6.553 -0.0510  0.4640 -0.0940
    2CHL1    H6   84   2.173   0.202   6.584 -1.0741 -0.1089 -0.4617
    2CHL1    C7   85   2.105   0.335   6.402 -0.3573 -0.2602  0.2363
    2CHL1   H7A   86   2.190   0.297   6.340 -0.6973 -1.6661  0.6047
    2CHL1   H7B   87   2.012   0.297   6.356 -1.4402  2.6605 -0.2376
    2CHL1    C8   88   2.092   0.489   6.382 -0.3529 -1.4514  0.2840
    2CHL1    H8   89   2.192   0.534   6.398 -0.6242 -1.5760  2.5916
    2CHL1   C14   90   2.045   0.515   6.240 -0.1730  0.1110  0.0445
    2CHL1   H14   91   1.942   0.472   6.240  0.1732 -0.8493 -2.4779
    2CHL1   C15   92   2.104   0.453   6.111 -0.1818 -0.5448 -0.2441
    2CHL1  H15A   93   2.215   0.452   6.112 -0.1708  0.2839  0.2787
    2CHL1  H15B   94   2.084   0.344   6.105  0.5960 -0.7060 -0.0597
    2CHL1   C16   95   2.057   0.538   5.998  0.6287 -0.1575 -0.4990
    2CHL1  H16A   96   2.151   0.583   5.959  0.9097 -0.3980 -0.1131
    2CHL1  H16B   97   2.010   0.488   5.911 -1.8465  1.2630 -0.0938
    2CHL1   C17   98   1.979   0.656   6.057  0.3705 -0.2834  0.0053
    2CHL1   H17   99   1.875   0.618   6.059  0.3374 -0.1741  0.7714
    2CHL1   C13  100   2.026   0.664   6.213 -0.0279 -0.1608 -0.3839
    2CHL1   C18  101   2.160   0.738   6.214  0.6211 -0.1474  0.3757
    2CHL1  H18A  102   2.148   0.848   6.217 -0.8779 -0.2618 -0.4343
    2CHL1  H18B  103   2.228   0.696   6.292  0.0256 -0.0795  0.9459
    2CHL1  H18C  104   2.209   0.705   6.120 -0.7686 -0.3923 -0.2887
    2CHL1   C12  105   1.925   0.716   6.312  0.1194 -0.1223  0.6316
    2CHL1  H12A  106   1.907   0.821   6.280 -1.2322 -0.4789  0.1545
    2CHL1  H12B  107   1.839   0.649   6.293  1.2496 -1.4387 -0.0088
    2CHL1   C11  108   1.976   0.707   6.453  0.5723 -0.4774 -0.4083
    2CHL1  H11A  109   2.072   0.761   6.471 -0.5166  1.9625 -1.5414
    2CHL1  H11B  110   1.904   0.753   6.524  1.3385  2.5934 -1.4702
    2CHL1    C9  111   1.994   0.553   6.485 -0.5495 -0.1385 -0.4627
    2CHL1    H9  112   1.896   0.505   6.465 -2.5897  2.0092  3.1534
    2CHL1   C10  113   2.040   0.525   6.632  0.6468 -0.1037  0.6012
    2CHL1   C19  114   2.148   0.627   6.674  0.2231 -0.9494  0.3180
    2CHL1  H19A  115   2.114   0.732   6.689  2.5587  0.0689 -0.9599
    2CHL1  H19B  116   2.192   0.615   6.775  1.2118  2.2682  0.3913
    2CHL1  H19C  117   2.231   0.640   6.602  0.2100 -2.6077 -0.0355
    2CHL1    C1  118   1.913   0.540   6.727  0.2144  0.0481 -0.4260
    2CHL1   H1A  119   1.876   0.644   6.738 -3.0149 -1.1805  2.0091
    2CHL1   H1B  120   1.830   0.484   6.679 -0.6158  0.7897  0.0935
    2CHL1    C2  121   1.936   0.491   6.872 -0.0820 -0.4910 -0.4933
    2CHL1   H2A  122   1.840   0.491   6.929 -2.2871  1.1412 -3.8597
    2CHL1   H2B  123   2.003   0.555   6.932 -0.5639 -1.5364  1.2349
    2CHL1   C20  124   1.989   0.789   5.971 -0.0466  0.2709  0.3955
    2CHL1   H20  125   2.086   0.839   5.994  1.2554 -0.3535 -3.0551
    2CHL1   C21  126   1.873   0.883   5.997  0.3349  0.7906  0.1563
    2CHL1  H21A  127   1.874   0.923   6.100  0.9296 -0.4242  0.6369
    2CHL1  H21B  128   1.777   0.830   5.982  1.1106 -0.7227  0.2678
    2CHL1  H21C  129   1.881   0.982   5.948 -0.9936  1.4904  1.2966
    2CHL1   C22  130   1.998   0.753   5.812 -0.2301  0.1446  0.0829
    2CHL1  H22A  131   1.933   0.664   5.792 -2.8063  1.7129  0.9360
    2CHL1  H22B  132   1.943   0.838   5.767 -1.3978 -0.2362  0.7388
    2CHL1   C23  133   2.136   0.746   5.748 -0.7404  1.0031  0.2979
    2CHL1  H23A  134   2.194   0.837   5.774  1.4580 -0.2958  0.2096
    2CHL1  H23B  135   2.200   0.667   5.792 -1.8978  0.1986  0.5732
    2CHL1   C24  136   2.142   0.718   5.601 -0.6228  0.6561  0.1993
    2CHL1  H24A  137   2.095   0.619   5.584  2.7347 -0.6942 -2.3742
    2CHL1  H24B  138   2.082   0.795   5.548 -1.1773 -0.6487 -1.1598
    2CHL1   C25  139   2.283   0.713   5.549  0.1542  0.0132  0.0900
    2CHL1   H25  140   2.347   0.648   5.613  0.5764 -0.4473 -0.7790
    2CHL1   C26  141   2.288   0.660   5.412  0.2037  0.0244  0.4061
    2CHL1  H26A  142   2.229   0.568   5.392  1.2584 -0.1251 -2.6361
    2CHL1  H26B  143   2.241   0.740   5.350  0.7608  1.4694  1.7608
    2CHL1  H26C  144   2.394   0.642   5.381 -0.2560 -0.6392 -0.8402
    2CHL1   C27  145   2.347   0.857   5.550  0.2223 -0.4646 -0.2148
    2CHL1  H27A  146   2.457   0.849   5.543  0.3137  0.6372 -0.0967
    2CHL1  H27B  147   2.306   0.914   5.464  0.3227 -1.7282 -1.1288
    2CHL1  H27C  148   2.331   0.911   5.645  1.6615  1.4442 -1.0133
    3CHL1    C3  149   1.600   6.585   6.657  0.7470  0.1300 -0.3018
    3CHL1    H3  150   1.690   6.543   6.607 -1.1072 -1.2569 -2.7147
    3CHL1    O3  151   1.609   6.586   6.795 -0.7390  0.2323 -0.9166
    3CHL1   H3'  152   1.684   6.533   6.823 -0.1590  0.6029 -1.7419
    3CHL1    C4  153   1.574   6.729   6.599 -0.2410  0.2997 -0.0521
    3CHL1   H4A  154   1.491   6.780   6.653 -0.0378 -0.4855  1.0163
    3CHL1   H4B  155   1.668   6.786   6.618 -0.5451  1.2377 -1.1615
    3CHL1    C5  156   1.540   6.735   6.454 -1.2842  0.4459 -0.0569
    3CHL1    C6  157   1.616   6.812   6.370  0.4676  0.0673 -0.7917
    3CHL1    H6  158   1.704   6.866   6.408 -0.1086  0.9913 -0.7296
    3CHL1    C7  159   1.598   6.813   6.221  0.2828 -0.2089  0.3148
    3CHL1   H7A  160   1.599   6.913   6.172 -2.7511 -0.1352  0.2100
    3CHL1   H7B  161   1.678   6.758   6.168 -1.3636 -0.4581 -2.0447
    3CHL1    C8  162   1.465   6.750   6.174  0.6706  0.2401 -0.5785
    3CHL1    H8  163   1.384   6.824   6.191 -0.5762 -1.1948 -0.1017
    3CHL1   C14  164   1.472   6.730   6.023 -0.1210 -0.3071  0.8831
    3CHL1   H14  165   1.545   6.648   6.007 -0.2584  0.0527 -1.9255
    3CHL1   C15  166   1.515   6.847   5.927  0.0305  0.1728  0.7848
    3CHL1  H15A  167   1.464   6.939   5.961 -0.0696  0.8216 -1.0015
    3CHL1  H15B  168   1.625   6.846   5.934  0.2624 -0.4929 -1.8219
    3CHL1   C16  169   1.461   6.798   5.786 -0.1515  0.1953 -0.7633
    3CHL1  H16A  170   1.401   6.880   5.740 -4.6177 -2.6515 -0.6253
    3CHL1  H16B  171   1.551   6.761   5.732  0.3502  0.2604  0.0125
    3CHL1   C17  172   1.374   6.672   5.815  0.4642 -0.0347  0.4970
    3CHL1   H17  173   1.445   6.590   5.792  0.9115  0.6554 -0.6779
    3CHL1   C13  174   1.337   6.677   5.965 -0.3596  0.1250  0.5105
    3CHL1   C18  175   1.226   6.782   5.983  0.7198 -0.1823 -0.4167
    3CHL1  H18A  176   1.208   6.806   6.090 -1.7859  3.7742 -1.4835
    3CHL1  H18B  177   1.256   6.876   5.932 -2.2832  1.0624 -0.1268
    3CHL1  H18C  178   1.129   6.741   5.944  1.0300  0.0358 -1.4561
    3CHL1   C12  179   1.315   6.543   6.043  0.8930  0.1011 -0.3584
    3CHL1  H12A  180   1.224   6.494   6.001  1.1375 -0.1520 -0.5907
    3CHL1  H12B  181   1.398   6.472   6.026  0.3646 -0.7909  0.6832
    3CHL1   C11  182   1.302   6.561   6.194 -0.2901 -0.5375 -0.7155
    3CHL1  H11A  183   1.208   6.610   6.225 -0.6308  0.0917 -2.6264
    3CHL1  H11B  184   1.292   6.460   6.241  1.6581  0.5390  2.3539
    3CHL1    C9  185   1.421   6.627   6.254 -0.2819  0.6210  0.0509
    3CHL1    H9  186   1.512   6.565   6.235 -0.5537  0.3831 -0.4871
    3CHL1   C10  187   1.422   6.643   6.411  0.7755  0.1059  0.0163
    3CHL1   C19  188   1.282   6.700   6.463 -0.4836  0.2433  0.0434
    3CHL1  H19A  189   1.282   6.702   6.574 -0.1264 -3.0666  0.1888
    3CHL1  H19B  190   1.273   6.806   6.430 -0.4375  0.5106  0.8579
    3CHL1  H19C  191   1.205   6.633   6.420  1.9473 -1.5443 -1.7894
    3CHL1    C1  192   1.433   6.502   6.473 -0.1260 -0.5563  0.3407
    3CHL1   H1A  193   1.332   6.456   6.464 -0.4461  0.3180 -0.6429
    3CHL1   H1B  194   1.504   6.441   6.413 -0.0667  0.7989 -1.0072
    3CHL1    C2  195   1.477   6.499   6.624  0.5594 -0.1986 -0.1595
    3CHL1   H2A  196   1.501   6.395   6.655  0.1628 -0.4403 -0.6509
    3CHL1   H2B  197   1.389   6.533   6.683  0.5837  2.3560 -1.4761
    3CHL1   C20  198   1.262   6.663   5.702 -0.2300  0.6307 -0.3209
    3CHL1   H20  199   1.207   6.758   5.717  0.9508  1.2490  0.2970
    3CHL1   C21  200   1.172   6.538   5.731  0.0440  0.4340  0.9663
    3CHL1  H21A  201   1.222   6.441   5.716 -0.3951  0.4344 -0.7791
    3CHL1  H21B  202   1.087   6.536   5.659  0.2679  0.1696  0.7117
    3CHL1  H21C  203   1.121   6.544   5.829 -0.4060 -0.3370  0.7839
    3CHL1   C22  204   1.327   6.650   5.564 -0.4067 -0.2502  0.7275
    3CHL1  H22A  205   1.394   6.736   5.543 -0.1707 -0.7492 -0.6677
    3CHL1  H22B  206   1.383   6.554   5.571 -2.0986 -1.2431  1.2921
    3CHL1   C23  207   1.227   6.658   5.444 -0.1189  0.2057  0.2460
    3CHL1  H23A  208   1.154   6.576   5.458  0.6139 -0.6784 -0.9528
    3CHL1  H23B  209   1.157   6.744   5.447  0.8114  0.9618  1.7864
    3CHL1   C24  210   1.296   6.635   5.306 -0.2906  0.3109 -0.5760
    3CHL1  H24A  211   1.364   6.721   5.294 -0.6309  0.5941 -0.5009
    3CHL1  H24B  212   1.344   6.535   5.293  0.8605  1.1249 -3.2644
    3CHL1   C25  213   1.191   6.637   5.190 -0.1992 -0.4434 -0.4244
    3CHL1   H25  214   1.134   6.729   5.215  1.1470  0.2911 -0.0088
    3CHL1   C26  215   1.261   6.655   5.054 -0.4069  0.0904  0.5604
    3CHL1  H26A  216   1.196   6.665   4.965  0.1577 -1.7362 -0.1090
    3CHL1  H26B  217   1.326   6.745   5.056 -0.7278  0.3175  1.1277
    3CHL1  H26C  218   1.324   6.568   5.025  0.2672  1.4334 -2.3179
    3CHL1   C27  219   1.101   6.511   5.196 -0.6517 -0.3810  0.2923
    3CHL1  H27A  220   1.019   6.528   5.123  0.2109  0.5980 -0.4934
    3CHL1  H27B  221   1.167   6.425   5.173 -0.3918 -0.7828  2.3691
    3CHL1  H27C  222   1.066   6.502   5.301  1.0736 -0.2974  0.9134
    4CHL1    C3  223   1.207   1.076   6.546 -0.1931  0.0522 -0.1185
    4CHL1    H3  224   1.267   0.991   6.507  0.2648  0.3540 -0.0726
    4CHL1    O3  225   1.121   1.031   6.649 -0.1099  0.0198  0.3498
    4CHL1   H3'  226   1.089   1.103   6.704 -1.9818  0.7568 -1.6009
    4CHL1    C4  227   1.296   1.198   6.593  0.1089 -0.1033  0.8421
    4CHL1   H4A  228   1.228   1.260   6.654  1.1729  2.0852 -0.0855
    4CHL1   H4B  229   1.362   1.143   6.664 -1.8137 -2.9059  0.6530
    4CHL1    C5  230   1.362   1.269   6.476  0.6279 -0.4731 -0.6745
    4CHL1    C6  231   1.494   1.286   6.492 -0.5388  0.5445  0.9124
    4CHL1    H6  232   1.541   1.262   6.588 -0.2849  0.0829  0.6787
    4CHL1    C7  233   1.574   1.366   6.394  0.4488 -0.0314  0.0945
    4CHL1   H7A  234   1.644   1.435   6.446 -1.6774  1.3014  1.3853
    4CHL1   H7B  235   1.631   1.287   6.341  1.6987 -1.1683  2.9299
    4CHL1    C8  236   1.480   1.444   6.296  1.0219  0.2271  0.1332
    4CHL1    H8  237   1.439   1.525   6.360 -1.8767 -0.4996 -0.6460
    4CHL1   C14  238   1.560   1.503   6.171 -0.2556  0.2312 -0.1546
    4CHL1   H14  239   1.590   1.411   6.116 -1.3010 -0.8186  0.9717
    4CHL1   C15  240   1.695   1.573   6.208 -0.6918 -0.2931  0.2884
    4CHL1  H15A  241   1.680   1.648   6.289 -1.0237  0.3035 -0.3106
    4CHL1  H15B  242   1.774   1.507   6.249  2.4357  2.5961 -0.5732
    4CHL1   C16  243   1.718   1.651   6.078  0.0303 -0.2238 -0.4412
    4CHL1  H16A  244   1.731   1.758   6.107  0.2459 -0.7160  1.4322
    4CHL1  H16B  245   1.812   1.621   6.027 -0.4755  0.7036 -1.9737
    4CHL1   C17  246   1.605   1.627   5.981  0.0683 -0.0110 -0.3348
    4CHL1   H17  247   1.628   1.539   5.917 -2.4980  0.0477 -1.4534
    4CHL1   C13  248   1.485   1.588   6.074 -0.3082 -0.6702  0.8367
    4CHL1   C18  249   1.442   1.715   6.162 -0.1751  0.2189 -0.3045
    4CHL1  H18A  250   1.333   1.714   6.182 -0.2762  3.9026  0.1448
    4CHL1  H18B  251   1.486   1.711   6.264 -2.1519 -0.2128  0.5690
    4CHL1  H18C  252   1.473   1.812   6.117 -0.4738  0.0785 -0.8194
    4CHL1   C12  253   1.375   1.507   6.020  0.1327 -0.8315  0.1956
    4CHL1  H12A  254   1.307   1.571   5.960 -1.4959 -2.7947 -0.1318
    4CHL1  H12B  255   1.428   1.445   5.945  0.2526  0.2773 -0.6677
    4CHL1   C11  256   1.280   1.445   6.128  0.1182  0.9430  0.3208
    4CHL1  H11A  257   1.219   1.525   6.175 -2.2388 -0.8010  0.3969
    4CHL1  H11B  258   1.199   1.389   6.076 -1.8251  1.5579  2.5303
    4CHL1    C9  259   1.361   1.368   6.241 -0.4527 -0.2465 -0.3474
    4CHL1    H9  260   1.389   1.277   6.184  0.4695 -0.9292  1.1318
    4CHL1   C10  261   1.273   1.316   6.358  0.1687  0.1293 -0.1582
    4CHL1   C19  262   1.175   1.428   6.413 -0.3097 -0.2773  0.1085
    4CHL1  H19A  263   1.247   1.510   6.436  0.1835 -0.6454 -0.1075
    4CHL1  H19B  264   1.104   1.467   6.337  0.1531  0.8285  0.2182
    4CHL1  H19C  265   1.132   1.410   6.514  2.5411  3.1929  2.1850
    4CHL1    C1  266   1.190   1.188   6.315  0.4917  0.2589  0.0459
    4CHL1   H1A  267   1.109   1.218   6.245 -1.0701 -1.5079  1.0036
    4CHL1   H1B  268   1.253   1.114   6.262 -0.8136 -0.0728 -1.1040
    4CHL1    C2  269   1.112   1.119   6.430 -0.1058 -0.0487  0.6708
    4CHL1   H2A  270   1.073   1.023   6.391 -1.1510  0.7663 -0.3612
    4CHL1   H2B  271   1.032   1.182   6.473 -0.1139  0.2203  0.2747
    4CHL1   C20  272   1.588   1.740   5.883 -0.3010  0.9326 -0.2510
    4CHL1   H20  273   1.555   1.831   5.938 -1.8315 -0.8440  1.9398
    4CHL1   C21  274   1.469   1.704   5.786  0.1220 -0.5788  0.1207
    4CHL1  H21A  275   1.477   1.772   5.699  0.1863 -1.2395 -0.3987
    4CHL1  H21B  276   1.379   1.740   5.840 -0.1633  0.0926 -0.7897
    4CHL1  H21C  277   1.461   1.599   5.751 -2.4813 -0.7262  0.9280
    4CHL1   C22  278   1.720   1.773   5.811 -0.1289  0.1791  0.4634
    4CHL1  H22A  279   1.679   1.849   5.741  0.7162 -0.5756 -0.9004
    4CHL1  H22B  280   1.797   1.811   5.882 -1.3952 -1.5704  2.8956
    4CHL1   C23  281   1.776   1.664   5.713 -0.0208  0.5052 -0.7836
    4CHL1  H23A  282   1.811   1.578   5.774 -0.1006  1.9228  1.3856
    4CHL1  H23B  283   1.691   1.635   5.648  0.9558 -0.8062 -1.5055
    4CHL1   C24  284   1.891   1.712   5.627  0.6104  0.5229 -0.1620
    4CHL1  H24A  285   1.841   1.778   5.552 -0.8959 -0.9805 -0.5335
    4CHL1  H24B  286   1.966   1.764   5.690  0.4434  1.4833 -0.7328
    4CHL1   C25  287   1.970   1.610   5.544  0.1674 -0.4913  0.2425
    4CHL1   H25  288   2.012   1.540   5.620  0.8709 -0.9058 -0.5223
    4CHL1   C26  289   1.885   1.519   5.451  0.5184  0.7511 -1.0244
    4CHL1  H26A  290   1.781   1.509   5.489  1.3116 -2.2728  0.6154
    4CHL1  H26B  291   1.872   1.573   5.355  1.1968  1.2620 -0.8349
    4CHL1  H26C  292   1.933   1.421   5.432 -2.5044 -0.9284 -0.5510
    4CHL1   C27  293   2.081   1.668   5.465 -0.2974 -0.3938  0.2728
    4CHL1  H27A  294   2.146   1.584   5.430  1.1303  0.0422  1.7290
    4CHL1  H27B  295   2.038   1.736   5.389 -0.4448 -0.4102  0.3409
    4CHL1  H27C  296   2.145   1.739   5.522  0.3188  0.1661 -1.0697
    5CHL1    C3  297   4.589   3.249   7.059 -0.3869  0.1544  0.7100
    5CHL1    H3  298   4.544   3.349   7.038 -1.6931 -0.0319  2.3760
    5CHL1    O3  299   4.604   3.243   7.198  0.0187  0.1941  0.1958
    5CHL1   H3'  300   4.666   3.174   7.224 -1.4430 -0.8173  1.1757
    5CHL1    C4  301   4.511   3.132   7.000  0.7425  0.1877  0.2855
    5CHL1   H4A  302   4.557   3.038   7.038 -0.1213 -0.1961  0.4089
    5CHL1   H4B  303   4.410   3.137   7.045 -0.6661 -3.3769 -2.0398
    5CHL1    C5  304   4.514   3.131   6.848 -0.1111  0.2282 -0.0035
    5CHL1    C6  305   4.397   3.139   6.785 -0.9293  0.0064  1.1675
    5CHL1    H6  306   4.303   3.135   6.842 -1.2447  2.5336  0.9201
    5CHL1    C7  307   4.378   3.122   6.636  0.9407 -0.2759  0.3409
    5CHL1   H7A  308   4.309   3.037   6.618  0.3424  0.1767  0.4675
    5CHL1   H7B  309   4.339   3.217   6.592  2.1278 -0.6599 -1.7036
    5CHL1    C8  310   4.512   3.085   6.567 -0.5371 -0.3073  0.8079
    5CHL1    H8  311   4.530   2.976   6.581  1.2451 -0.1554 -0.0423
    5CHL1   C14  312   4.504   3.121   6.422 -0.0834  0.2949 -0.1036
    5CHL1   H14  313   4.492   3.230   6.408  0.0219  0.1942 -1.0896
    5CHL1   C15  314   4.384   3.045   6.351 -0.2288  0.3320  0.4891
    5CHL1  H15A  315   4.376   2.939   6.385  2.5394 -0.4289 -0.9566
    5CHL1  H15B  316   4.290   3.102   6.366 -0.6475 -0.1830 -0.1433
    5CHL1   C16  317   4.422   3.055   6.201 -0.7758  0.0148  0.5147
    5CHL1  H16A  318   4.431   2.952   6.160 -0.9645 -0.7987  2.4350
    5CHL1  H16B  319   4.352   3.110   6.135 -0.5810  4.0246  3.2929
    5CHL1   C17  320   4.564   3.125   6.195  0.0481  0.3835 -0.4454
    5CHL1   H17  321   4.545   3.235   6.191  2.6332  0.8386 -2.6399
    5CHL1   C13  322   4.627   3.093   6.335 -0.3772 -0.1890 -0.5043
    5CHL1   C18  323   4.672   2.947   6.335 -0.7431 -0.5620 -0.1635
    5CHL1  H18A  324   4.600   2.875   6.291 -4.6462  0.1506  4.3017
    5CHL1  H18B  325   4.768   2.938   6.280 -0.2058 -0.5839  0.7548
    5CHL1  H18C  326   4.696   2.906   6.435  1.0561 -2.7174 -1.3814
    5CHL1   C12  327   4.737   3.186   6.387 -0.1899 -0.5777  0.4525
    5CHL1  H12A  328   4.830   3.165   6.330 -0.6478 -0.7161 -0.2539
    5CHL1  H12B  329   4.717   3.294   6.371 -0.7024 -0.8038 -0.5122
    5CHL1   C11  330   4.769   3.167   6.541  0.0430  0.3323 -0.2090
    5CHL1  H11A  331   4.812   3.065   6.551 -1.8790 -0.6405 -1.3756
    5CHL1  H11B  332   4.837   3.251   6.568 -2.0055  1.5420  1.4064
    5CHL1    C9  333   4.630   3.170   6.622  0.0864  0.0963 -0.6929
    5CHL1    H9  334   4.597   3.276   6.615  1.1345  0.4799 -0.0857
    5CHL1   C10  335   4.649   3.134   6.781  0.4147 -0.3830  0.1100
    5CHL1   C19  336   4.719   2.995   6.799 -0.1188 -1.0520 -0.5918
    5CHL1  H19A  337   4.717   2.958   6.904  0.4088  0.7682  0.0887
    5CHL1  H19B  338   4.670   2.921   6.732  2.2084 -1.6046 -1.7842
    5CHL1  H19C  339   4.825   3.013   6.772 -0.1042 -1.4078 -0.7787
    5CHL1    C1  340   4.733   3.255   6.850  0.3462  0.4671  0.6230
    5CHL1   H1A  341   4.834   3.235   6.809  0.6424  1.9807  0.5765
    5CHL1   H1B  342   4.704   3.359   6.826 -0.2189  0.4736  1.2865
    5CHL1    C2  343   4.729   3.252   6.999 -0.8218  0.0509 -0.3414
    5CHL1   H2A  344   4.776   3.342   7.044  0.0461 -1.6523  2.4108
    5CHL1   H2B  345   4.791   3.168   7.035  0.8825  1.0666 -0.7912
    5CHL1   C20  346   4.640   3.085   6.069  0.0634 -0.1787  0.4298
    5CHL1   H20  347   4.669   2.978   6.076  2.0796  0.3879  1.4493
    5CHL1   C21  348   4.772   3.164   6.068 -0.4987 -0.1184  0.1035
    5CHL1  H21A  349   4.848   3.128   6.140  0.4943 -2.2775 -1.8938
    5CHL1  H21B  350   4.742   3.271   6.079 -2.1996 -0.6223  0.6112
    5CHL1  H21C  351   4.829   3.150   5.974  2.3208  0.7830  1.5668
    5CHL1   C22  352   4.553   3.098   5.937 -0.4880  0.4593  0.2541
    5CHL1  H22A  353   4.474   3.020   5.950  0.6611 -0.8620 -0.4507
    5CHL1  H22B  354   4.497   3.194   5.938 -0.3308  0.6351 -2.3396
    5CHL1   C23  355   4.614   3.080   5.801 -0.4388 -0.5281 -0.6917
    5CHL1  H23A  356   4.665   3.174   5.774 -0.9644 -0.6208 -2.0723
    5CHL1  H23B  357   4.700   3.009   5.805  1.9605  2.2149 -0.4044
    5CHL1   C24  358   4.522   3.048   5.682 -0.2637  0.0606  0.2512
    5CHL1  H24A  359   4.485   2.945   5.694 -0.3203 -0.0447 -0.7252
    5CHL1  H24B  360   4.429   3.109   5.679  0.1955  0.8020  0.7355
    5CHL1   C25  361   4.600   3.060   5.546  0.0943  0.1647  0.5182
    5CHL1   H25  362   4.658   3.154   5.550 -1.7833  1.3269  2.3837
    5CHL1   C26  363   4.705   2.950   5.535  0.4897 -0.0640  0.0543
    5CHL1  H26A  364   4.765   2.982   5.448 -0.3041  0.4724 -0.3104
    5CHL1  H26B  365   4.785   2.940   5.611  1.2806 -1.4059 -0.9216
    5CHL1  H26C  366   4.650   2.857   5.510 -0.3741  0.2649  0.6627
    5CHL1   C27  367   4.496   3.059   5.429  0.1620 -0.8497 -0.2692
    5CHL1  H27A  368   4.421   2.978   5.436  1.0948 -1.7879 -0.7689
    5CHL1  H27B  369   4.449   3.158   5.447  0.0417 -0.5753 -1.9160
    5CHL1  H27C  370   4.534   3.073   5.325 -2.4904  1.4622 -1.0423
    6CHL1    C3  371   0.952   5.146   7.158 -0.0982 -0.4396  0.2848
    6CHL1    H3  372   0.855   5.093   7.153 -0.8653  0.6196  2.4583
    6CHL1    O3  373   0.976   5.148   7.299  0.0667 -0.7288  0.2452
    6CHL1   H3'  374   1.065   5.177   7.321 -0.1084 -0.4590  0.5970
    6CHL1    C4  375   1.076   5.092   7.081  0.3217 -0.2420  0.4888
    6CHL1   H4A  376   1.163   5.159   7.095 -0.3683  0.4133  1.7853
    6CHL1   H4B  377   1.097   4.991   7.123  0.0682  0.0703  1.3816
    6CHL1    C5  378   1.045   5.075   6.935  0.4577  0.2039  0.2839
    6CHL1    C6  379   1.045   4.961   6.864  0.2059  0.6960  0.1759
    6CHL1    H6  380   1.057   4.865   6.915  1.6706  0.4805 -0.5325
    6CHL1    C7  381   1.022   4.951   6.716 -0.4237 -0.4870  0.5184
    6CHL1   H7A  382   1.111   4.900   6.674 -0.2232 -0.3810  0.8110
    6CHL1   H7B  383   0.929   4.896   6.689  0.6009 -2.7611  1.3852
    6CHL1    C8  384   1.040   5.090   6.645  0.6278 -0.1404  0.0421
    6CHL1    H8  385   1.147   5.121   6.650  0.4188  0.5437  0.5766
    6CHL1   C14  386   0.995   5.087   6.501  0.0031 -0.2010 -0.2217
    6CHL1   H14  387   0.886   5.066   6.517  0.3531 -1.0067  1.3843
    6CHL1   C15  388   1.057   4.982   6.414 -0.0034  0.3701  0.4574
    6CHL1  H15A  389   1.162   4.968   6.447  0.0122 -0.1959  0.1653
    6CHL1  H15B  390   1.001   4.887   6.425  0.4236 -0.0760 -1.0101
    6CHL1   C16  391   1.039   5.032   6.270 -0.2109 -0.4271 -0.3115
    6CHL1  H16A  392   1.136   5.046   6.217  0.4248  1.5422  1.2564
    6CHL1  H16B  393   0.981   4.963   6.204  0.9916 -0.4854 -1.3469
    6CHL1   C17  394   0.961   5.163   6.289 -0.1380 -0.5891 -0.0186
    6CHL1   H17  395   0.853   5.141   6.295 -0.2937  0.3884  1.0372
    6CHL1   C13  396   0.995   5.218   6.428  0.0315  0.1293  0.0005
    6CHL1   C18  397   1.134   5.279   6.422  0.2783  0.7866 -0.1958
    6CHL1  H18A  398   1.188   5.279   6.520 -1.8553  0.9227  1.0399
    6CHL1  H18B  399   1.197   5.222   6.350 -0.1875 -1.6114  1.1741
    6CHL1  H18C  400   1.123   5.384   6.388  0.5657  0.8539 -0.0896
    6CHL1   C12  401   0.891   5.305   6.501 -0.0015  0.8218 -0.1471
    6CHL1  H12A  402   0.891   5.411   6.468 -1.6901  0.7239 -0.5704
    6CHL1  H12B  403   0.788   5.264   6.503 -0.0824  0.9264  3.5341
    6CHL1   C11  404   0.929   5.322   6.654  0.3406 -0.3908 -0.5307
    6CHL1  H11A  405   1.020   5.385   6.651 -0.2933  0.5128 -2.2533
    6CHL1  H11B  406   0.862   5.389   6.712  1.2770  0.6675 -0.6536
    6CHL1    C9  407   0.966   5.192   6.726  0.5948 -0.3173  0.4891
    6CHL1    H9  408   0.866   5.144   6.738  1.3045 -1.1753  3.7851
    6CHL1   C10  409   1.015   5.212   6.868 -0.7394  0.0932  0.0778
    6CHL1   C19  410   1.149   5.286   6.866  0.0429  0.4513  0.0385
    6CHL1  H19A  411   1.233   5.227   6.823 -0.8389 -0.6747 -0.2111
    6CHL1  H19B  412   1.148   5.377   6.802 -0.4127 -0.4900 -1.3396
    6CHL1  H19C  413   1.190   5.307   6.967  0.8059  1.4287 -0.4662
    6CHL1    C1  414   0.910   5.283   6.957 -0.1053 -0.1975 -0.3198
    6CHL1   H1A  415   0.894   5.388   6.924 -1.3945  0.0675  1.0112
    6CHL1   H1B  416   0.810   5.241   6.931 -0.3876 -0.8827  1.6903
    6CHL1    C2  417   0.913   5.288   7.109  0.0727  0.2302  0.8451
    6CHL1   H2A  418   0.820   5.341   7.138 -1.0624  0.6180 -2.9416
    6CHL1   H2B  419   0.995   5.358   7.138  0.6832 -0.3730  0.6112
    6CHL1   C20  420   0.975   5.260   6.172  0.6157  0.3607 -0.0445
    6CHL1   H20  421   1.078   5.299   6.156  0.6993  0.3327  0.4278
    6CHL1   C21  422   0.884   5.383   6.204  0.3203 -0.0260  1.3947
    6CHL1  H21A  423   0.926   5.454   6.278  1.7119  1.1892 -0.4534
    6CHL1  H21B  424   0.780   5.350   6.223 -0.1760  0.8924  0.4151
    6CHL1  H21C  425   0.875   5.441   6.110  1.3796  0.6196  1.6816
    6CHL1   C22  426   0.934   5.184   6.037 -0.4754 -0.1623  0.1443
    6CHL1  H22A  427   1.006   5.100   6.021  2.4621  2.2633 -0.2856
    6CHL1  H22B  428   0.833   5.140   6.052 -0.6134 -0.6770 -2.0479
    6CHL1   C23  429   0.956   5.268   5.913  0.7442  0.1328 -0.2770
    6CHL1  H23A  430   0.884   5.352   5.918  1.3644  0.7901 -1.6506
    6CHL1  H23B  431   1.059   5.306   5.897  0.6164  0.1749 -1.0653
    6CHL1   C24  432   0.927   5.197   5.777 -0.9264  0.1939 -0.0937
    6CHL1  H24A  433   0.967   5.093   5.781 -2.4973 -0.4450 -0.2398
    6CHL1  H24B  434   0.818   5.179   5.764 -1.0294  1.1266 -0.6057
    6CHL1   C25  435   0.988   5.272   5.657 -0.2662 -0.4565 -0.0093
    6CHL1   H25  436   0.962   5.378   5.678  0.4848 -0.5068  1.3148
    6CHL1   C26  437   1.138   5.253   5.650 -0.0824 -0.1101 -0.0941
    6CHL1  H26A  438   1.197   5.282   5.740  2.2587  1.2363 -1.9399
    6CHL1  H26B  439   1.161   5.145   5.634 -2.6195 -0.6548 -0.3708
    6CHL1  H26C  440   1.180   5.315   5.568  0.0986 -0.4745 -0.2781
    6CHL1   C27  441   0.926   5.213   5.530  0.2673  0.2593 -0.6625
    6CHL1  H27A  442   0.818   5.242   5.527 -0.2447 -1.3728  0.7553
    6CHL1  H27B  443   0.970   5.248   5.434  1.5795 -0.4306 -0.3285
    6CHL1  H27C  444   0.935   5.102   5.527 -1.8421 -0.0067  0.6556
    7CHL1    C3  445   2.968   6.496   6.856  0.7091  0.6577 -0.1422
    7CHL1    H3  446   2.951   6.388   6.877 -1.2156  0.3534 -2.7017
    7CHL1    O3  447   3.003   6.591   6.962  0.1547  0.2423 -0.4390
    7CHL1   H3'  448   2.985   6.679   6.927 -3.7682  0.3188  1.2534
    7CHL1    C4  449   3.078   6.516   6.755  0.8171  0.8384  0.2384
    7CHL1   H4A  450   3.117   6.619   6.742 -0.0817  1.0102 -1.2643
    7CHL1   H4B  451   3.165   6.456   6.791 -0.4814 -0.9898  0.4828
    7CHL1    C5  452   3.042   6.455   6.626  0.4385  0.0362  0.4746
    7CHL1    C6  453   3.123   6.358   6.562 -0.2662  0.2858  0.2099
    7CHL1    H6  454   3.221   6.322   6.595 -0.1149  1.1547  0.7501
    7CHL1    C7  455   3.081   6.295   6.436  0.2189 -0.1685  0.2216
    7CHL1   H7A  456   3.164   6.277   6.365 -1.0220  0.2893 -1.4220
    7CHL1   H7B  457   3.026   6.200   6.456  1.1710 -1.4384 -2.6302
    7CHL1    C8  458   2.979   6.381   6.346  0.6015 -0.1908 -0.9057
    7CHL1    H8  459   3.030   6.473   6.311  0.5627  0.2809  0.2326
    7CHL1   C14  460   2.930   6.303   6.226 -0.1093  0.2005  0.0007
    7CHL1   H14  461   2.875   6.213   6.262 -0.6888 -0.1058 -1.5693
    7CHL1   C15  462   3.030   6.244   6.118  0.5034 -0.7146  0.2302
    7CHL1  H15A  463   3.109   6.317   6.090  0.6285 -0.9208  0.0414
    7CHL1  H15B  464   3.076   6.157   6.169 -0.3004  0.5380  3.3470
    7CHL1   C16  465   2.946   6.208   5.994 -0.3353 -0.0032 -0.2224
    7CHL1  H16A  466   3.006   6.247   5.909  0.8271  0.8948  0.9498
    7CHL1  H16B  467   2.925   6.100   5.982  1.6902 -0.3962 -0.6063
    7CHL1   C17  468   2.807   6.277   6.017 -1.3228  0.4120  0.1929
    7CHL1   H17  469   2.745   6.189   6.045  0.3084 -1.4401 -1.6942
    7CHL1   C13  470   2.817   6.368   6.143 -0.1481 -0.8991 -0.1194
    7CHL1   C18  471   2.878   6.499   6.083  0.7145 -0.3071 -0.3801
    7CHL1  H18A  472   2.795   6.553   6.032  0.7008  1.4064  1.3034
    7CHL1  H18B  473   2.925   6.560   6.164  2.2126  1.4385 -2.4659
    7CHL1  H18C  474   2.955   6.474   6.008  0.4425 -2.0190 -0.1242
    7CHL1   C12  475   2.697   6.397   6.237  0.4293  0.1369  0.8096
    7CHL1  H12A  476   2.613   6.444   6.181 -0.4000 -0.4749  1.5117
    7CHL1  H12B  477   2.667   6.297   6.273  2.3302 -0.4189  0.9540
    7CHL1   C11  478   2.739   6.485   6.358 -0.7232 -0.3614  0.6021
    7CHL1  H11A  479   2.775   6.581   6.314  0.3660 -0.3319  1.5060
    7CHL1  H11B  480   2.646   6.507   6.415  0.0201  0.2250  1.6144
    7CHL1    C9  481   2.858   6.419   6.438  0.0546 -0.5809 -0.4490
    7CHL1    H9  482   2.799   6.331   6.470 -0.4263 -1.9888 -4.5802
    7CHL1   C10  483   2.904   6.503   6.560  0.8080 -0.0692  0.1529
    7CHL1   C19  484   2.921   6.649   6.514  0.4361  0.0174  0.2982
    7CHL1  H19A  485   2.994   6.650   6.431 -0.4875 -1.4781 -0.5939
    7CHL1  H19B  486   2.823   6.693   6.485  0.6412  0.7580  0.7155
    7CHL1  H19C  487   2.962   6.697   6.605  3.6919 -0.6515 -0.6696
    7CHL1    C1  488   2.800   6.485   6.675  0.6742 -0.0595 -0.6134
    7CHL1   H1A  489   2.697   6.512   6.644  0.3262 -1.0935 -0.4146
    7CHL1   H1B  490   2.795   6.376   6.696 -1.6074  0.0715 -0.2842
    7CHL1    C2  491   2.833   6.550   6.808  0.5658 -0.4638  0.3732
    7CHL1   H2A  492   2.759   6.514   6.882  0.5568 -0.9446  0.1308
    7CHL1   H2B  493   2.843   6.659   6.785 -1.3954 -0.4140 -0.4266
    7CHL1   C20  494   2.746   6.321   5.882 -0.2897 -0.2590 -0.3307
    7CHL1   H20  495   2.804   6.409   5.846  0.6833 -0.7271  0.0620
    7CHL1   C21  496   2.600   6.369   5.902  0.0914 -0.0177  0.2137
    7CHL1  H21A  497   2.546   6.275   5.927 -2.8990  1.7120  0.6994
    7CHL1  H21B  498   2.549   6.418   5.817 -0.0329  1.0590  0.8990
    7CHL1  H21C  499   2.587   6.440   5.986  2.4300 -2.0997  2.5676
    7CHL1   C22  500   2.744   6.214   5.771  0.1210 -1.0572 -0.2005
    7CHL1  H22A  501   2.843   6.180   5.734  0.5880  0.0649 -0.0240
    7CHL1  H22B  502   2.692   6.123   5.808  0.9987 -0.9899  1.2729
    7CHL1   C23  503   2.660   6.254   5.646 -0.5550  0.0404  0.0979
    7CHL1  H23A  504   2.554   6.251   5.679 -0.8808 -0.2209 -0.9485
    7CHL1  H23B  505   2.689   6.358   5.618  0.5871 -0.4648 -0.6651
    7CHL1   C24  506   2.675   6.161   5.529 -0.0172  0.4663  0.6716
    7CHL1  H24A  507   2.786   6.160   5.517 -0.1454  2.7017 -1.5036
    7CHL1  H24B  508   2.632   6.059   5.542 -1.5578  0.6866 -1.8549
    7CHL1   C25  509   2.621   6.228   5.400 -0.6181  0.0513 -0.0340
    7CHL1   H25  510   2.653   6.333   5.387  0.3406 -0.4738 -2.4834
    7CHL1   C26  511   2.676   6.150   5.275  0.3132  0.0978  0.1676
    7CHL1  H26A  512   2.632   6.048   5.269  0.6219 -0.0944  1.0989
    7CHL1  H26B  513   2.639   6.202   5.183 -3.2817  2.2358  2.5601
    7CHL1  H26C  514   2.787   6.147   5.282  0.3188 -0.2030 -0.0560
    7CHL1   C27  515   2.468   6.225   5.387  0.3158 -0.4418  0.4012
    7CHL1  H27A  516   2.440   6.302   5.312  0.8686  0.0781  0.7148
    7CHL1  H27B  517   2.439   6.119   5.370 -2.4489  0.2676  0.2757
    7CHL1  H27C  518   2.420   6.254   5.482  1.6168  0.7734  0.7282
    8CHL1    C3  519   0.476   5.692   7.099  0.1758  0.1593 -0.5067
    8CHL1    H3  520   0.410   5.771   7.056 -1.9227 -0.2810  1.6740
    8CHL1    O3  521   0.509   5.730   7.229  1.1539  0.7809  0.0201
    8CHL1   H3'  522   0.541   5.819   7.213  0.2813  1.0617 -0.2089
    8CHL1    C4  523   0.394   5.561   7.104  0.2190 -0.5690  0.3680
    8CHL1   H4A  524   0.449   5.480   7.156  0.2940 -0.6302  0.1941
    8CHL1   H4B  525   0.304   5.585   7.165  0.5751 -1.2749  1.1855
    8CHL1    C5  526   0.360   5.525   6.961 -0.3552  0.4299 -0.9577
    8CHL1    C6  527   0.232   5.494   6.928  0.3551 -0.7111  0.1989
    8CHL1    H6  528   0.153   5.502   7.004  0.9637 -0.8017  0.8419
    8CHL1    C7  529   0.183   5.445   6.795 -0.1042  0.0109  0.1374
    8CHL1   H7A  530   0.118   5.356   6.810 -0.4375 -0.2095 -2.1822
    8CHL1   H7B  531   0.121   5.521   6.744  0.3214 -0.2769 -0.8312
    8CHL1    C8  532   0.296   5.411   6.693 -1.0919 -0.6553  0.1538
    8CHL1    H8  533   0.336   5.310   6.716  1.3689  0.5179  1.4753
    8CHL1   C14  534   0.250   5.409   6.538  0.3904  0.2758 -0.2310
    8CHL1   H14  535   0.240   5.515   6.507  0.3166  0.6641  1.0524
    8CHL1   C15  536   0.107   5.347   6.498 -0.6710 -0.1834  1.0752
    8CHL1  H15A  537   0.089   5.246   6.543  1.1500 -0.1400  2.0272
    8CHL1  H15B  538   0.030   5.419   6.534  0.0340  1.0740  0.1350
    8CHL1   C16  539   0.121   5.331   6.343 -0.8995  0.3963 -0.1987
    8CHL1  H16A  540   0.112   5.221   6.335 -0.5517  0.2429  1.2812
    8CHL1  H16B  541   0.046   5.379   6.276  1.0932  2.2609 -1.2302
    8CHL1   C17  542   0.272   5.372   6.306  0.2895  0.9937 -0.6670
    8CHL1   H17  543   0.269   5.478   6.273  2.3791  0.6339 -2.2416
    8CHL1   C13  544   0.357   5.363   6.438 -0.1517  0.4615 -0.4146
    8CHL1   C18  545   0.392   5.208   6.468  0.3848  0.2804 -0.0609
    8CHL1  H18A  546   0.423   5.197   6.574 -1.0496 -0.0626  0.3390
    8CHL1  H18B  547   0.308   5.138   6.446 -0.8455  1.6721  0.0860
    8CHL1  H18C  548   0.480   5.188   6.403 -0.3970 -3.5372 -0.1647
    8CHL1   C12  549   0.467   5.467   6.455 -0.1066 -0.0260  0.1767
    8CHL1  H12A  550   0.550   5.436   6.388  0.7625  3.1922 -0.3902
    8CHL1  H12B  551   0.442   5.567   6.414  0.2841 -0.0105 -0.0230
    8CHL1   C11  552   0.523   5.492   6.595 -0.1084 -0.2886  0.1739
    8CHL1  H11A  553   0.575   5.395   6.606  1.3235  0.4239 -0.1269
    8CHL1  H11B  554   0.592   5.579   6.593 -1.6437  0.9518 -1.5838
    8CHL1    C9  555   0.414   5.508   6.712 -0.3116 -0.2041 -0.3185
    8CHL1    H9  556   0.360   5.603   6.690  1.6727  1.0492  0.0486
    8CHL1   C10  557   0.469   5.511   6.856 -0.1299 -0.6699 -0.3023
    8CHL1   C19  558   0.555   5.385   6.883 -0.3011  0.1500 -0.1731
    8CHL1  H19A  559   0.494   5.301   6.844 -2.5143  1.2556  0.7341
    8CHL1  H19B  560   0.654   5.385   6.834 -0.0766 -1.4849  0.2298
    8CHL1  H19C  561   0.569   5.376   6.993 -0.7857  0.6122 -0.0673
    8CHL1    C1  562   0.558   5.632   6.868  0.4056 -0.0825  0.1151
    8CHL1   H1A  563   0.650   5.625   6.807  0.7475 -0.7035  0.6977
    8CHL1   H1B  564   0.501   5.722   6.834  0.8079  1.0783  2.2736
    8CHL1    C2  565   0.597   5.674   7.012 -1.2562 -0.3098  0.6461
    8CHL1   H2A  566   0.652   5.770   7.001  0.8879 -1.6869 -1.6543
    8CHL1   H2B  567   0.671   5.603   7.052 -0.9377 -0.2040  0.2533
    8CHL1   C20  568   0.333   5.301   6.192 -0.3850 -0.0408 -0.2115
    8CHL1   H20  569   0.349   5.197   6.226  0.7663  0.6818  1.5879
    8CHL1   C21  570   0.468   5.364   6.152  0.2429  0.0635  0.5356
    8CHL1  H21A  571   0.548   5.329   6.220  0.6343 -0.4719 -0.1819
    8CHL1  H21B  572   0.470   5.473   6.169  2.0844  0.0530  0.5462
    8CHL1  H21C  573   0.496   5.337   6.048  2.3639 -0.7820  1.2773
    8CHL1   C22  574   0.242   5.306   6.068  0.0795  0.2874 -0.6330
    8CHL1  H22A  575   0.298   5.255   5.987 -0.9439 -0.3709 -0.9459
    8CHL1  H22B  576   0.150   5.244   6.068  1.5164 -2.0711 -2.7371
    8CHL1   C23  577   0.201   5.444   6.016 -0.3792  0.2352  0.0964
    8CHL1  H23A  578   0.137   5.491   6.093 -1.2843  0.6454 -0.8848
    8CHL1  H23B  579   0.289   5.512   6.008 -2.3244  3.1384  1.5616
    8CHL1   C24  580   0.138   5.431   5.876  0.3162  0.2196  0.1346
    8CHL1  H24A  581   0.206   5.375   5.808  1.1421  2.3661 -0.8901
    8CHL1  H24B  582   0.043   5.376   5.895  0.9135 -1.6909 -1.9878
    8CHL1   C25  583   0.108   5.569   5.808 -0.1729  0.1006 -0.4503
    8CHL1   H25  584   0.061   5.541   5.711  1.8132  1.6268 -1.9313
    8CHL1   C26  585   0.006   5.652   5.890  0.2592 -0.0952 -0.0509
    8CHL1  H26A  586  -0.093   5.605   5.904  0.1966 -0.5838 -1.8487
    8CHL1  H26B  587   0.049   5.681   5.988  1.4602  0.2033 -0.6421
    8CHL1  H26C  588  -0.009   5.753   5.845  0.2434 -0.5159 -1.0133
    8CHL1   C27  589   0.241   5.643   5.780 -0.2401  0.9756 -0.5180
    8CHL1  H27A  590   0.297   5.663   5.874  0.7925 -0.7835 -0.7026
    8CHL1  H27B  591   0.295   5.565   5.722 -1.3275 -1.3867  1.4864
    8CHL1  H27C  592   0.226   5.735   5.720  0.2825  1.8595  0.6485
    9CHL1    C3  593   3.552   6.320   6.867  0.9961  0.3229  0.1494
    9CHL1    H3  594   3.512   6.219   6.846  2.5384 -0.7134  1.9365
    9CHL1    O3  595   3.519   6.351   7.002  0.2500  0.4220  0.1803
    9CHL1   H3'  596   3.585   6.418   7.019  1.0989  0.4695 -2.8123
    9CHL1    C4  597   3.704   6.321   6.851 -0.3730  0.3737  0.6382
    9CHL1   H4A  598   3.742   6.423   6.868  0.0249  0.9289 -2.8665
    9CHL1   H4B  599   3.733   6.251   6.933  0.6120  0.2597  0.2039
    9CHL1    C5  600   3.735   6.288   6.711 -0.3936  0.6214 -0.2660
    9CHL1    C6  601   3.813   6.190   6.675  0.4544 -0.9096 -0.0698
    9CHL1    H6  602   3.851   6.123   6.753  0.8281 -2.0254 -1.1751
    9CHL1    C7  603   3.859   6.165   6.535 -0.3861  0.7078  0.6832
    9CHL1   H7A  604   3.968   6.144   6.539 -0.6918 -1.3853 -0.4183
    9CHL1   H7B  605   3.810   6.069   6.507  1.1932  0.2841 -0.7464
    9CHL1    C8  606   3.834   6.283   6.439  0.5422 -0.0087  0.1725
    9CHL1    H8  607   3.911   6.359   6.461 -0.0511  1.0667 -1.2502
    9CHL1   C14  608   3.831   6.223   6.296 -0.4105 -0.2045 -0.5311
    9CHL1   H14  609   3.747   6.150   6.286 -0.4950 -0.1594 -0.1604
    9CHL1   C15  610   3.946   6.131   6.254  0.0860 -0.6718 -0.2784
    9CHL1  H15A  611   4.045   6.174   6.280  0.5224 -3.5641  3.7896
    9CHL1  H15B  612   3.939   6.031   6.303 -1.5418  0.3823  1.8210
    9CHL1   C16  613   3.937   6.140   6.100 -0.3978 -0.5398  0.1146
    9CHL1  H16A  614   4.038   6.163   6.060 -1.0571  3.3811  0.3559
    9CHL1  H16B  615   3.914   6.047   6.043 -1.3984 -0.7255  0.8121
    9CHL1   C17  616   3.829   6.239   6.054 -0.2893  0.6888 -0.2053
    9CHL1   H17  617   3.731   6.190   6.038  0.4948 -1.3604  0.8935
    9CHL1   C13  618   3.818   6.326   6.185 -0.0695 -0.1309 -0.3413
    9CHL1   C18  619   3.931   6.435   6.188  0.3091  0.1006 -0.1888
    9CHL1  H18A  620   4.032   6.388   6.179 -0.2053 -0.9526 -0.6302
    9CHL1  H18B  621   3.920   6.507   6.104 -0.0741  0.3333  0.0584
    9CHL1  H18C  622   3.934   6.500   6.278 -0.3388  0.0981 -0.1615
    9CHL1   C12  623   3.670   6.389   6.215 -0.7805  0.8649 -0.0445
    9CHL1  H12A  624   3.643   6.465   6.139 -3.3854  0.9218  0.8562
    9CHL1  H12B  625   3.601   6.303   6.205  0.9290 -0.6191  0.2246
    9CHL1   C11  626   3.664   6.447   6.356  0.1164 -0.0557 -0.4329
    9CHL1  H11A  627   3.732   6.535   6.360  0.7578 -0.3617 -2.8446
    9CHL1  H11B  628   3.557   6.473   6.370 -0.3080  0.1676 -3.3677
    9CHL1    C9  629   3.698   6.343   6.463  0.1608 -0.1965 -0.2071
    9CHL1    H9  630   3.628   6.260   6.439  1.5486 -1.0259 -1.5730
    9CHL1   C10  631   3.673   6.386   6.610  0.5712 -0.1852  0.8688
    9CHL1   C19  632   3.731   6.529   6.619  0.2818  0.3992 -0.5445
    9CHL1  H19A  633   3.734   6.559   6.726  2.2716 -1.7817  0.0934
    9CHL1  H19B  634   3.838   6.527   6.589  0.7685  0.3222  1.1204
    9CHL1  H19C  635   3.679   6.607   6.559 -1.2212 -0.8564 -0.9406
    9CHL1    C1  636   3.519   6.399   6.635 -0.1275  0.0381  0.6814
    9CHL1   H1A  637   3.479   6.487   6.580 -0.5429 -0.9402 -0.6224
    9CHL1   H1B  638   3.466   6.306   6.605  0.2249 -0.4640  1.5805
    9CHL1    C2  639   3.484   6.427   6.777  0.6425  0.5721 -0.5242
    9CHL1   H2A  640   3.375   6.427   6.801  0.9094 -1.0629  0.8832
    9CHL1   H2B  641   3.514   6.533   6.794  0.4331  0.3992  1.1133
    9CHL1   C20  642   3.860   6.304   5.918 -0.2859 -1.1125  0.4123
    9CHL1   H20  643   3.955   6.356   5.945  0.3902 -0.9688 -2.0205
    9CHL1   C21  644   3.754   6.405   5.869  0.2842 -0.6826 -0.5071
    9CHL1  H21A  645   3.656   6.358   5.844 -0.4170 -0.9048  2.2896
    9CHL1  H21B  646   3.793   6.471   5.789 -0.8791  0.1644 -0.4045
    9CHL1  H21C  647   3.740   6.482   5.948  2.0279 -0.1983 -0.6212
    9CHL1   C22  648   3.887   6.205   5.802 -0.1946 -0.4016  0.6941
    9CHL1  H22A  649   3.946   6.117   5.835  1.9484 -1.2279 -4.4330
    9CHL1  H22B  650   3.791   6.169   5.758  0.2801  2.1823 -2.9258
    9CHL1   C23  651   3.972   6.271   5.686  0.4019  0.7014  0.1188
    9CHL1  H23A  652   3.976   6.191   5.609 -2.6515  0.0562  0.5038
    9CHL1  H23B  653   3.928   6.364   5.645  0.5438  1.3746  1.4322
    9CHL1   C24  654   4.117   6.301   5.721  0.1177  0.0741 -0.7001
    9CHL1  H24A  655   4.117   6.360   5.814 -0.2572  2.2368 -2.0018
    9CHL1  H24B  656   4.183   6.216   5.749 -1.5575  0.0909  4.1134
    9CHL1   C25  657   4.196   6.381   5.618  0.6170  0.4210 -0.1895
    9CHL1   H25  658   4.149   6.480   5.604 -3.7119 -1.5115 -1.1411
    9CHL1   C26  659   4.341   6.391   5.668  0.2806  0.6932 -0.2351
    9CHL1  H26A  660   4.395   6.428   5.578 -1.2282  0.8476 -1.1015
    9CHL1  H26B  661   4.365   6.462   5.750 -0.2841  0.4406  0.1579
    9CHL1  H26C  662   4.380   6.288   5.686 -4.7662 -1.3594  0.4739
    9CHL1   C27  663   4.195   6.323   5.472  0.1442 -0.0541  0.2357
    9CHL1  H27A  664   4.273   6.244   5.467 -0.9313 -1.1047 -0.3562
    9CHL1  H27B  665   4.098   6.292   5.429 -0.8851  1.4073  1.3879
    9CHL1  H27C  666   4.227   6.401   5.400  0.4324 -2.6102 -2.5803
   10CHL1    C3  667   3.874   0.898   6.810  0.2935  0.0383  0.3181
   10CHL1    H3  668   3.771   0.893   6.769 -0.1180 -0.2016  1.3541
   10CHL1    O3  669   3.880   0.953   6.938 -0.4360  0.4061 -0.2546
   10CHL1   H3'  670   3.918   0.885   6.992 -0.9722  0.2032 -0.1285
   10CHL1    C4  671   3.933   0.754   6.794  0.4805 -0.0664 -0.3986
   10CHL1   H4A  672   4.032   0.766   6.841 -0.6493 -0.0371  2.0998
   10CHL1   H4B  673   3.860   0.694   6.852  1.6079 -0.1266  0.9854
   10CHL1    C5  674   3.934   0.712   6.646  0.5124  0.3800 -0.0047
   10CHL1    C6  675   3.880   0.596   6.612  0.0224  0.4415  0.3041
   10CHL1    H6  676   3.856   0.520   6.688  0.7019 -2.4230 -2.1271
   10CHL1    C7  677   3.871   0.545   6.466  0.7647  0.0808  0.0519
   10CHL1   H7A  678   3.911   0.442   6.455  1.6991  0.4317 -0.0142
   10CHL1   H7B  679   3.771   0.545   6.418 -0.6399 -0.0417  2.7956
   10CHL1    C8  680   3.973   0.622   6.378 -0.3154  0.1459  0.4965
   10CHL1    H8  681   4.077   0.588   6.399  0.0575 -0.2464 -1.7434
   10CHL1   C14  682   3.944   0.597   6.229  0.1928  0.1961  0.2264
   10CHL1   H14  683   3.843   0.634   6.203  0.3187 -0.5983 -1.5235
   10CHL1   C15  684   3.949   0.447   6.181 -0.2044 -0.2808 -0.9076
   10CHL1  H15A  685   4.036   0.402   6.233  0.6333 -0.1602 -2.1634
   10CHL1  H15B  686   3.854   0.393   6.202 -0.2624 -0.4584 -1.5829
   10CHL1   C16  687   3.972   0.456   6.037  0.0504 -0.3183  0.7656
   10CHL1  H16A  688   4.068   0.409   6.007 -1.4164 -2.4096 -1.0093
   10CHL1  H16B  689   3.889   0.408   5.982 -0.3860  0.2730  0.9026
   10CHL1   C17  690   3.985   0.608   5.999 -0.2297 -0.1614 -0.1233
   10CHL1   H17  691   3.883   0.650   5.983 -0.1803  0.9196  2.0431
   10CHL1   C13  692   4.033   0.669   6.131 -0.7001  0.1062 -0.0828
   10CHL1   C18  693   4.182   0.626   6.150 -0.1688 -1.2790  1.0291
   10CHL1  H18A  694   4.223   0.661   6.247  1.5241 -0.3944  0.0334
   10CHL1  H18B  695   4.211   0.520   6.135  2.6690 -0.3433 -1.1430
   10CHL1  H18C  696   4.237   0.679   6.069 -1.1398 -1.0477  0.5079
   10CHL1   C12  697   4.013   0.822   6.152 -0.1055 -0.2068  0.9823
   10CHL1  H12A  698   4.086   0.877   6.090  0.2283 -2.1724 -0.4524
   10CHL1  H12B  699   3.907   0.853   6.136  0.6863  1.8008 -0.9070
   10CHL1   C11  700   4.047   0.858   6.298  0.0914  0.4768 -0.3956
   10CHL1  H11A  701   4.157   0.852   6.308  0.1148  1.6143  0.1949
   10CHL1  H11B  702   4.014   0.964   6.305  2.0657  1.0587  1.1568
   10CHL1    C9  703   3.964   0.771   6.401 -0.2386  0.0221 -0.3070
   10CHL1    H9  704   3.854   0.787   6.389 -0.1993 -1.3778 -3.6103
   10CHL1   C10  705   3.998   0.810   6.546  0.1290  0.9985  0.9024
   10CHL1   C19  706   4.158   0.807   6.564  0.0600 -0.2543 -0.0021
   10CHL1  H19A  707   4.213   0.719   6.525 -0.7317 -0.1483 -1.4383
   10CHL1  H19B  708   4.204   0.894   6.512  0.0248 -1.1124 -1.5413
   10CHL1  H19C  709   4.185   0.820   6.671 -1.1564  0.4568  0.2416
   10CHL1    C1  710   3.935   0.944   6.579  0.5079 -0.5108  0.5806
   10CHL1   H1A  711   3.993   1.013   6.513  0.8152 -2.5044 -1.3712
   10CHL1   H1B  712   3.831   0.957   6.544  0.4427  1.7659  1.4639
   10CHL1    C2  713   3.944   0.999   6.717  0.4741 -0.3469 -0.0568
   10CHL1   H2A  714   3.905   1.103   6.720  1.9116  0.2565 -1.0698
   10CHL1   H2B  715   4.050   1.004   6.752  0.4810  0.0208 -0.1276
   10CHL1   C20  716   4.064   0.625   5.870  0.1281  0.2127  0.2385
   10CHL1   H20  717   4.166   0.584   5.883  0.5900  0.9785 -0.8332
   10CHL1   C21  718   4.077   0.773   5.822  0.2706  0.4774  0.9607
   10CHL1  H21A  719   4.142   0.828   5.894  1.5495  0.1161  0.1061
   10CHL1  H21B  720   3.977   0.822   5.814  1.1868  2.2248 -0.7196
   10CHL1  H21C  721   4.141   0.762   5.733  0.5612 -1.5081  1.3843
   10CHL1   C22  722   4.010   0.539   5.749 -0.2731  0.1696  0.7298
   10CHL1  H22A  723   4.097   0.524   5.681 -0.2867 -2.9982  1.2319
   10CHL1  H22B  724   3.978   0.436   5.777  2.2020 -0.6856  0.7231
   10CHL1   C23  725   3.892   0.586   5.670  0.1134  0.0542  0.2893
   10CHL1  H23A  726   3.803   0.598   5.735 -0.3008  1.2747 -0.4771
   10CHL1  H23B  727   3.920   0.684   5.625  3.4747 -1.5518 -1.4392
   10CHL1   C24  728   3.835   0.499   5.563 -0.1283 -0.3046  0.6364
   10CHL1  H24A  729   3.815   0.394   5.592  0.6445 -1.3783 -2.3554
   10CHL1  H24B  730   3.740   0.546   5.529  1.0051  0.8638 -1.0979
   10CHL1   C25  731   3.922   0.492   5.430 -0.4439 -0.3364  0.5364
   10CHL1   H25  732   4.028   0.471   5.455  0.0530  1.3586 -0.0389
   10CHL1   C26  733   3.869   0.373   5.347  0.4261 -0.1235 -0.6223
   10CHL1  H26A  734   3.930   0.357   5.255  0.6949 -1.5343 -0.2108
   10CHL1  H26B  735   3.887   0.281   5.406  0.9344 -0.7371 -1.6844
   10CHL1  H26C  736   3.759   0.381   5.336  0.4870 -1.2072 -2.5517
   10CHL1   C27  737   3.909   0.626   5.348  0.0358  0.3565 -0.0265
   10CHL1  H27A  738   3.809   0.643   5.304  0.3867 -0.4966 -1.1875
   10CHL1  H27B  739   3.948   0.717   5.400 -1.7652  0.6599  0.8700
   10CHL1  H27C  740   3.976   0.618   5.260  1.8073  1.6275  1.1400
   11CHL1    C3  741   1.899   3.942   7.008 -0.0636  0.3529 -0.3365
   11CHL1    H3  742   1.820   4.002   7.059  1.3059  1.7587  0.2032
   11CHL1    O3  743   1.961   3.856   7.105 -0.0980  0.3603 -0.3320
   11CHL1   H3'  744   1.971   3.908   7.185 -0.6511  0.3278 -0.2392
   11CHL1    C4  745   1.839   3.847   6.899  0.3487  0.1010 -0.2728
   11CHL1   H4A  746   1.916   3.771   6.875 -1.6860 -1.6650 -1.5645
   11CHL1   H4B  747   1.759   3.790   6.950 -1.0792  0.4367 -2.0524
   11CHL1    C5  748   1.787   3.913   6.777  0.1121  0.1174  0.5377
   11CHL1    C6  749   1.663   3.891   6.726  0.4107  0.4402 -0.6277
   11CHL1    H6  750   1.595   3.819   6.772  0.4576 -1.1242 -2.8155
   11CHL1    C7  751   1.619   3.934   6.589 -0.0042  0.5928 -0.4489
   11CHL1   H7A  752   1.585   3.846   6.530  1.2611 -1.4011  1.6203
   11CHL1   H7B  753   1.543   4.009   6.617 -0.0331 -0.2296  1.9155
   11CHL1    C8  754   1.731   4.009   6.507  0.5308  0.3061  0.0485
   11CHL1    H8  755   1.799   3.933   6.464  2.8373  3.1753 -1.7124
   11CHL1   C14  756   1.664   4.100   6.405 -0.3930 -0.7644  0.3740
   11CHL1   H14  757   1.600   4.169   6.465  0.7659  1.9061 -1.2935
   11CHL1   C15  758   1.570   4.042   6.300 -0.1665 -0.3627  0.7916
   11CHL1  H15A  759   1.598   3.940   6.267 -2.5371 -2.0769  3.5712
   11CHL1  H15B  760   1.469   4.028   6.344 -0.7497  0.0836 -0.3734
   11CHL1   C16  761   1.562   4.144   6.184 -0.0231  0.4579  0.1006
   11CHL1  H16A  762   1.579   4.093   6.087  2.8430  2.0762 -0.3521
   11CHL1  H16B  763   1.456   4.178   6.188 -0.7030 -1.6124  1.3604
   11CHL1   C17  764   1.663   4.257   6.218 -0.1074 -0.5168 -0.6563
   11CHL1   H17  765   1.612   4.337   6.276 -1.3563 -0.6483 -1.5197
   11CHL1   C13  766   1.759   4.191   6.325 -0.0534  0.3132 -0.2230
   11CHL1   C18  767   1.854   4.095   6.240 -0.8543 -0.1589 -0.0865
   11CHL1  H18A  768   1.808   4.045   6.152  2.5565 -2.8030 -0.5766
   11CHL1  H18B  769   1.940   4.152   6.200  0.0591 -1.3972  0.0633
   11CHL1  H18C  770   1.893   4.015   6.308 -0.3821 -0.0511 -0.2265
   11CHL1   C12  771   1.838   4.281   6.419 -0.5082 -0.2758  0.5477
   11CHL1  H12A  772   1.915   4.334   6.359  0.5637  1.0303  2.9265
   11CHL1  H12B  773   1.768   4.355   6.463 -1.3485  1.1753 -2.9015
   11CHL1   C11  774   1.910   4.201   6.533 -0.6792 -0.5496 -0.1549
   11CHL1  H11A  775   2.008   4.157   6.504  0.1475  0.7109  0.6327
   11CHL1  H11B  776   1.923   4.282   6.608 -0.5189  0.0644 -0.8484
   11CHL1    C9  777   1.813   4.095   6.606 -0.0530  0.4121 -0.1867
   11CHL1    H9  778   1.737   4.152   6.664 -1.0874 -1.3861  0.3438
   11CHL1   C10  779   1.884   4.006   6.709 -0.2948  0.0165  0.0071
   11CHL1   C19  780   1.986   3.910   6.638  0.1193 -0.1317 -0.0918
   11CHL1  H19A  781   2.068   3.976   6.602  0.0039  0.2087  0.2740
   11CHL1  H19B  782   2.029   3.844   6.716 -0.0358 -0.2357 -0.0959
   11CHL1  H19C  783   1.962   3.837   6.558  0.6433  0.5016 -0.8423
   11CHL1    C1  784   1.945   4.092   6.819 -0.2866 -0.3813  0.2598
   11CHL1   H1A  785   2.031   4.154   6.786 -1.0637  1.6913  1.9640
   11CHL1   H1B  786   1.877   4.167   6.862 -0.3483  1.2462 -2.4303
   11CHL1    C2  787   2.007   4.023   6.941  0.6864  0.1543 -0.6546
   11CHL1   H2A  788   2.044   4.101   7.010 -0.1914  1.1572 -1.2897
   11CHL1   H2B  789   2.090   3.957   6.909  0.8376  0.0048  0.0296
   11CHL1   C20  790   1.723   4.324   6.091  0.0088  0.2611 -0.3172
   11CHL1   H20  791   1.771   4.240   6.037 -0.5855  0.8332 -1.7870
   11CHL1   C21  792   1.824   4.438   6.119 -0.4553  0.0113  0.5538
   11CHL1  H21A  793   1.825   4.506   6.031  0.1588 -0.2920  0.3203
   11CHL1  H21B  794   1.929   4.400   6.114 -0.5213 -0.0295 -1.3865
   11CHL1  H21C  795   1.810   4.497   6.212 -1.0730 -0.3784  0.7129
   11CHL1   C22  796   1.607   4.381   5.995 -0.2672 -0.2651  0.3128
   11CHL1  H22A  797   1.529   4.302   5.989  0.5079 -1.1429  1.3258
   11CHL1  H22B  798   1.558   4.475   6.026  0.0702 -0.8428  2.8108
   11CHL1   C23  799   1.660   4.398   5.851  1.1394 -0.0312 -0.4313
   11CHL1  H23A  800   1.742   4.473   5.853  0.0631  1.1903 -0.7342
   11CHL1  H23B  801   1.681   4.297   5.810  0.2397 -0.0118 -0.9759
   11CHL1   C24  802   1.548   4.471   5.771 -0.0999  0.5952  0.5834
   11CHL1  H24A  803   1.465   4.399   5.755  0.1320  0.0855  1.5556
   11CHL1  H24B  804   1.506   4.549   5.838 -0.0544  0.3296  0.9295
   11CHL1   C25  805   1.585   4.524   5.635 -0.2239  0.7043  0.4201
   11CHL1   H25  806   1.647   4.452   5.577  1.8848  2.9086 -0.2776
   11CHL1   C26  807   1.457   4.550   5.554 -0.6129 -0.6792 -0.1570
   11CHL1  H26A  808   1.382   4.600   5.619 -1.2042  0.3493 -1.6050
   11CHL1  H26B  809   1.472   4.633   5.483 -1.3114 -0.3967  0.0195
   11CHL1  H26C  810   1.431   4.450   5.512 -0.6067  0.4151 -2.9564
   11CHL1   C27  811   1.678   4.642   5.643 -0.6339 -0.0916 -0.5629
   11CHL1  H27A  812   1.689   4.688   5.543  1.4334  1.9397  0.4929
   11CHL1  H27B  813   1.633   4.728   5.696 -1.4000 -0.6114 -0.3526
   11CHL1  H27C  814   1.776   4.621   5.692  0.0868  1.3400 -1.3358
   12CHL1    C3  815   3.922   5.105   6.689  0.5968 -0.4892 -0.2626
   12CHL1    H3  816   4.032   5.090   6.698  0.6890  0.8376  1.3875
   12CHL1    O3  817   3.864   5.155   6.815 -0.3860  0.0402  0.0920
   12CHL1   H3'  818   3.787   5.099   6.824 -0.4335  0.0102 -0.4285
   12CHL1    C4  819   3.907   5.209   6.576 -0.0631  0.3509  0.2507
   12CHL1   H4A  820   3.804   5.250   6.583 -0.8180 -1.4227  0.0516
   12CHL1   H4B  821   3.963   5.300   6.605 -1.0672  1.1860 -0.3381
   12CHL1    C5  822   3.934   5.161   6.432 -0.0888 -0.5375  0.0787
   12CHL1    C6  823   4.016   5.230   6.344  0.5407  0.1794  0.4203
   12CHL1    H6  824   4.057   5.329   6.370 -3.4886  2.0250  0.5287
   12CHL1    C7  825   4.031   5.186   6.205  0.4209 -0.3664  0.1914
   12CHL1   H7A  826   4.022   5.262   6.124 -2.8143 -0.8821 -0.0797
   12CHL1   H7B  827   4.136   5.149   6.206  0.3054 -0.9035  3.4987
   12CHL1    C8  828   3.937   5.079   6.159 -0.2564 -0.2024 -0.4515
   12CHL1    H8  829   3.836   5.122   6.142 -1.1564 -2.7051 -1.9365
   12CHL1   C14  830   3.985   5.016   6.026 -0.0411  0.1030  0.5482
   12CHL1   H14  831   4.090   4.978   6.032  0.8664  2.6012  1.7811
   12CHL1   C15  832   3.997   5.115   5.904 -0.6131  0.1375  0.2845
   12CHL1  H15A  833   3.910   5.183   5.897  0.0291  0.9261 -0.1946
   12CHL1  H15B  834   4.088   5.178   5.893 -0.2729 -0.4728 -0.4945
   12CHL1   C16  835   3.994   5.015   5.779  0.7965 -0.4464 -0.3903
   12CHL1  H16A  836   3.908   5.034   5.711  0.9983 -2.5288 -1.3127
   12CHL1  H16B  837   4.091   5.014   5.725  0.7203  0.1726 -0.5376
   12CHL1   C17  838   3.968   4.876   5.845 -0.0234 -0.4125  0.0538
   12CHL1   H17  839   4.068   4.832   5.868  0.0297 -0.9483 -1.1350
   12CHL1   C13  840   3.901   4.900   5.985  0.0837 -0.5253 -0.2286
   12CHL1   C18  841   3.755   4.947   5.970 -0.5683 -0.0140  0.4220
   12CHL1  H18A  842   3.703   4.981   6.062 -0.3491 -0.9853  0.9130
   12CHL1  H18B  843   3.749   5.028   5.893  1.4903 -0.6512 -0.4805
   12CHL1  H18C  844   3.693   4.857   5.948  0.9164 -0.7293 -1.0249
   12CHL1   C12  845   3.921   4.788   6.088  0.0837  0.4639  0.6224
   12CHL1  H12A  846   3.873   4.695   6.050  0.8861  0.1237  0.4190
   12CHL1  H12B  847   4.025   4.763   6.116 -0.5532 -2.0240  1.0352
   12CHL1   C11  848   3.855   4.835   6.219 -0.7165  0.1298 -0.8160
   12CHL1  H11A  849   3.745   4.850   6.218 -0.5644  1.4020 -0.5669
   12CHL1  H11B  850   3.870   4.748   6.286  0.6089  0.5075 -0.6004
   12CHL1    C9  851   3.925   4.968   6.266 -0.1690  0.5977  0.2267
   12CHL1    H9  852   4.029   4.930   6.280 -1.0371 -1.6509  1.2125
   12CHL1   C10  853   3.872   5.032   6.399  0.0916 -0.6280 -0.3440
   12CHL1   C19  854   3.713   5.053   6.392 -0.6744  0.3952 -0.3541
   12CHL1  H19A  855   3.686   5.141   6.455 -0.1233 -0.7209  1.5408
   12CHL1  H19B  856   3.682   5.050   6.286 -0.9569  0.1833 -0.2658
   12CHL1  H19C  857   3.651   4.972   6.437 -0.7088  0.9160  0.5614
   12CHL1    C1  858   3.900   4.935   6.518 -0.0339 -0.0158  0.5419
   12CHL1   H1A  859   3.855   4.838   6.488  2.6502 -0.7167 -1.6139
   12CHL1   H1B  860   4.009   4.913   6.525  0.5630  1.9715 -1.4382
   12CHL1    C2  861   3.848   4.977   6.651  0.4121 -0.3804 -0.2581
   12CHL1   H2A  862   3.850   4.906   6.736 -0.4007  0.3430  0.3889
   12CHL1   H2B  863   3.740   4.986   6.624  0.4659 -0.8209 -0.6351
   12CHL1   C20  864   3.904   4.768   5.749 -0.8338 -0.4719 -0.4410
   12CHL1   H20  865   3.845   4.705   5.819  0.2759 -0.8392  0.1907
   12CHL1   C21  866   4.012   4.683   5.683 -0.1703  0.3004  0.4764
   12CHL1  H21A  867   4.085   4.656   5.761 -1.5691 -0.5961  1.5291
   12CHL1  H21B  868   4.063   4.748   5.609 -0.7177 -0.4034 -0.5418
   12CHL1  H21C  869   3.966   4.593   5.636 -1.6270  0.8616  0.7545
   12CHL1   C22  870   3.798   4.818   5.651 -0.7918 -0.2264 -0.1942
   12CHL1  H22A  871   3.730   4.879   5.714  2.5762  2.8841  0.7392
   12CHL1  H22B  872   3.845   4.890   5.581 -1.2538  1.3737  1.0806
   12CHL1   C23  873   3.722   4.718   5.565 -1.1751 -0.3464 -0.5759
   12CHL1  H23A  874   3.671   4.765   5.478  1.7204 -2.4302 -3.6507
   12CHL1  H23B  875   3.805   4.656   5.523 -0.2729  0.4878 -0.0669
   12CHL1   C24  876   3.619   4.629   5.644  0.0029  0.3473 -0.3875
   12CHL1  H24A  877   3.667   4.548   5.703 -1.4057 -0.4483 -0.2952
   12CHL1  H24B  878   3.558   4.694   5.710 -2.1774  0.9422 -2.8257
   12CHL1   C25  879   3.509   4.566   5.554 -0.0443  0.4063 -0.0595
   12CHL1   H25  880   3.442   4.652   5.530 -1.3090 -0.0638  1.5547
   12CHL1   C26  881   3.555   4.518   5.418 -0.0399 -0.8316  0.4881
   12CHL1  H26A  882   3.611   4.422   5.421  0.1103 -0.7776 -0.3680
   12CHL1  H26B  883   3.463   4.496   5.360  0.4191 -1.3147 -0.0670
   12CHL1  H26C  884   3.629   4.585   5.368 -0.7111  1.1139  1.9630
   12CHL1   C27  885   3.408   4.472   5.620  0.0184  0.3158 -0.0493
   12CHL1  H27A  886   3.463   4.383   5.657 -2.0388 -0.5507  1.1274
   12CHL1  H27B  887   3.368   4.527   5.708  1.6917  2.4223 -0.5348
   12CHL1  H27C  888   3.328   4.434   5.553  0.2557 -0.5225  0.1229
   13CHL1    C3  889   3.048   4.986   6.810 -0.8640 -0.0370 -0.4021
   13CHL1    H3  890   3.134   4.917   6.826 -0.5732  0.6528  1.2235
   13CHL1    O3  891   2.998   5.025   6.940 -0.0223  0.0256 -0.2434
   13CHL1   H3'  892   2.929   5.088   6.922  1.8438  1.4223 -3.2522
   13CHL1    C4  893   3.091   5.102   6.728 -0.3198  0.6673 -0.5416
   13CHL1   H4A  894   3.004   5.172   6.727 -0.4300  0.5399 -2.1095
   13CHL1   H4B  895   3.169   5.156   6.786 -1.5210  2.7177 -0.7267
   13CHL1    C5  896   3.145   5.065   6.591 -0.0601  0.4273  0.0229
   13CHL1    C6  897   3.269   5.099   6.549  0.1871  0.7797 -0.0671
   13CHL1    H6  898   3.333   5.167   6.607  1.6133  0.5741 -1.3502
   13CHL1    C7  899   3.335   5.070   6.411 -0.0120  0.2991 -0.7980
   13CHL1   H7A  900   3.371   5.167   6.372  1.8779  0.6275  1.4711
   13CHL1   H7B  901   3.416   4.994   6.417  0.5572  0.9782  1.1865
   13CHL1    C8  902   3.215   5.013   6.319 -0.5326  0.0748  0.1029
   13CHL1    H8  903   3.153   5.099   6.286  0.4573  1.0831  0.7863
   13CHL1   C14  904   3.276   4.938   6.198  0.5276  0.7016  0.2911
   13CHL1   H14  905   3.330   4.851   6.241 -0.6112  0.0473  0.4365
   13CHL1   C15  906   3.372   5.016   6.110 -0.1086 -0.2107  0.0690
   13CHL1  H15A  907   3.321   5.115   6.108  1.0858  0.4878  2.1693
   13CHL1  H15B  908   3.475   5.035   6.146  0.1945 -1.8781  0.1583
   13CHL1   C16  909   3.384   4.943   5.974  0.5416  0.5015 -0.8242
   13CHL1  H16A  910   3.359   5.018   5.895 -1.2890  0.5346 -0.2544
   13CHL1  H16B  911   3.481   4.893   5.954 -0.2417 -0.1215 -3.4132
   13CHL1   C17  912   3.278   4.838   5.985  0.6821  0.5094  1.1450
   13CHL1   H17  913   3.324   4.747   6.029  1.5786  1.0410  1.3196
   13CHL1   C13  914   3.180   4.884   6.095  0.4988  0.5226  0.3642
   13CHL1   C18  915   3.092   5.002   6.041  0.7283 -0.1506 -0.5326
   13CHL1  H18A  916   3.152   5.075   5.983 -1.3962  1.9411 -0.2786
   13CHL1  H18B  917   3.013   4.953   5.980 -0.1413  0.9719 -0.3449
   13CHL1  H18C  918   3.027   5.055   6.114  1.4742 -2.4900  2.0190
   13CHL1   C12  919   3.096   4.776   6.164 -0.2242 -0.7329 -0.4126
   13CHL1  H12A  920   3.023   4.743   6.087  0.6192 -0.6399 -1.2688
   13CHL1  H12B  921   3.163   4.693   6.193  0.1473 -0.5032 -0.6120
   13CHL1   C11  922   3.021   4.838   6.289 -0.2368  0.5753 -0.3743
   13CHL1  H11A  923   2.957   4.924   6.260  1.1394  1.4619 -0.8322
   13CHL1  H11B  924   2.958   4.767   6.348 -0.4256  1.6447  0.7716
   13CHL1    C9  925   3.120   4.913   6.387  0.3476  0.1002  0.2128
   13CHL1    H9  926   3.189   4.832   6.420  0.7843 -0.0994 -1.1195
   13CHL1   C10  927   3.048   4.978   6.515  0.0890  0.7790 -0.6143
   13CHL1   C19  928   2.934   5.065   6.467 -0.2208  0.1624 -0.0099
   13CHL1  H19A  929   2.880   5.108   6.554 -1.0340 -0.8573  0.0035
   13CHL1  H19B  930   2.957   5.146   6.394 -3.3063  3.0058  1.8905
   13CHL1  H19C  931   2.857   5.004   6.416 -1.2578  0.3183  1.3001
   13CHL1    C1  932   2.990   4.859   6.608  0.0467 -0.4538  0.1875
   13CHL1   H1A  933   2.908   4.808   6.553 -0.1477 -2.2661  2.0333
   13CHL1   H1B  934   3.071   4.786   6.633  0.9017  0.6757  0.8067
   13CHL1    C2  935   2.929   4.913   6.739 -0.5243 -0.0130 -0.0595
   13CHL1   H2A  936   2.896   4.824   6.797  0.5173  0.3010  1.0458
   13CHL1   H2B  937   2.843   4.984   6.742 -0.5564 -0.0827  2.0866
   13CHL1   C20  938   3.204   4.790   5.849  0.4128 -0.0098 -0.5309
   13CHL1   H20  939   3.106   4.844   5.843  1.2219  1.6733  0.4117
   13CHL1   C21  940   3.188   4.639   5.868 -0.1669 -0.2787 -0.2647
   13CHL1  H21A  941   3.144   4.591   5.778  1.0162 -0.1037 -0.9449
   13CHL1  H21B  942   3.124   4.598   5.949 -1.2686  1.5614 -0.1599
   13CHL1  H21C  943   3.288   4.591   5.873 -0.3193 -0.8231 -1.8311
   13CHL1   C22  944   3.276   4.829   5.717 -0.2294  0.3913 -0.2662
   13CHL1  H22A  945   3.384   4.833   5.742 -0.8499  2.3593  2.6229
   13CHL1  H22B  946   3.253   4.749   5.644 -0.1083  0.4193 -0.3375
   13CHL1   C23  947   3.234   4.967   5.656  0.8262  0.0474  0.0536
   13CHL1  H23A  948   3.128   4.945   5.631  0.8689  1.1299 -1.1954
   13CHL1  H23B  949   3.241   5.051   5.729  0.4183 -1.7108  2.2187
   13CHL1   C24  950   3.304   5.008   5.528 -0.7321 -0.0543 -0.3549
   13CHL1  H24A  951   3.302   5.117   5.506  1.1159  0.4104  1.4683
   13CHL1  H24B  952   3.411   4.980   5.541 -1.0369 -0.9115  0.3993
   13CHL1   C25  953   3.250   4.938   5.400  0.3710  0.2721  0.3174
   13CHL1   H25  954   3.233   4.835   5.437 -1.0311  0.4159  0.0984
   13CHL1   C26  955   3.125   5.000   5.350  0.0149 -0.7062  0.2473
   13CHL1  H26A  956   3.088   4.967   5.250 -0.9948  0.6673  0.1280
   13CHL1  H26B  957   3.044   4.963   5.417 -0.7722  0.4351 -0.0330
   13CHL1  H26C  958   3.121   5.111   5.355 -0.0365 -0.6831 -0.2651
   13CHL1   C27  959   3.367   4.958   5.296  0.1397  0.1771 -0.5284
   13CHL1  H27A  960   3.346   4.886   5.214 -1.3905 -0.8126  0.6627
   13CHL1  H27B  961   3.384   5.064   5.271  4.1393  0.7020  3.1779
   13CHL1  H27C  962   3.468   4.927   5.332 -0.0192  2.0047  1.7240
   14CHL1    C3  963   1.880   2.341   6.840  0.0503 -0.3843  0.8416
   14CHL1    H3  964   1.776   2.314   6.810  0.3188 -1.2677  0.6707
   14CHL1    O3  965   1.889   2.378   6.973 -0.3104  0.4085  0.5550
   14CHL1   H3'  966   1.827   2.317   7.014 -1.6382  1.0899 -0.3775
   14CHL1    C4  967   1.986   2.228   6.801 -0.2084 -0.4679  0.0846
   14CHL1   H4A  968   2.089   2.256   6.833 -1.1769  0.3946  2.7557
   14CHL1   H4B  969   1.958   2.136   6.858 -2.9190 -0.8682 -1.7035
   14CHL1    C5  970   1.982   2.192   6.653  0.8039  0.1333 -0.2635
   14CHL1    C6  971   1.949   2.061   6.620 -0.2862  0.2653  0.1157
   14CHL1    H6  972   1.929   1.984   6.696  4.5071 -1.1774  0.2710
   14CHL1    C7  973   1.951   2.019   6.479 -1.0914 -0.1033 -0.5288
   14CHL1   H7A  974   1.989   1.915   6.468 -1.9697 -0.4087 -0.7244
   14CHL1   H7B  975   1.846   2.011   6.446 -1.4190  2.3317 -0.2090
   14CHL1    C8  976   2.019   2.114   6.384  0.0303  0.1080 -1.0231
   14CHL1    H8  977   2.127   2.105   6.407 -0.4717 -0.2170  1.4708
   14CHL1   C14  978   1.985   2.079   6.239 -0.6213 -0.3836 -0.5559
   14CHL1   H14  979   1.875   2.087   6.225 -0.7820 -1.4504 -0.0183
   14CHL1   C15  980   2.020   1.932   6.197 -0.3722  0.4993  0.1093
   14CHL1  H15A  981   2.116   1.895   6.239 -1.8694 -1.7443  1.7893
   14CHL1  H15B  982   1.942   1.860   6.231  0.5553  0.0484  1.3713
   14CHL1   C16  983   2.021   1.948   6.041 -0.0476  0.5493 -0.3668
   14CHL1  H16A  984   2.109   1.903   5.991  0.2592  1.9064 -1.1141
   14CHL1  H16B  985   1.935   1.885   6.010  0.0213 -0.2408  1.0089
   14CHL1   C17  986   1.999   2.100   6.010 -0.4287  0.9559 -0.2688
   14CHL1   H17  987   1.890   2.109   5.993 -0.9543 -2.5343  0.3659
   14CHL1   C13  988   2.042   2.176   6.139 -0.3963 -0.3529 -0.2137
   14CHL1   C18  989   2.195   2.174   6.151  0.3777  0.1109  0.2437
   14CHL1  H18A  990   2.250   2.239   6.079  2.4588 -1.7503  0.0488
   14CHL1  H18B  991   2.229   2.205   6.252  2.2312 -1.7134  0.2417
   14CHL1  H18C  992   2.229   2.070   6.135 -1.6139 -0.7018  1.0348
   14CHL1   C12  993   1.981   2.322   6.156 -0.0910  0.3105 -0.4270
   14CHL1  H12A  994   2.044   2.384   6.089  1.6724 -2.6801 -1.7578
   14CHL1  H12B  995   1.874   2.322   6.123  0.3370 -2.6108 -2.2068
   14CHL1   C11  996   2.009   2.362   6.298  0.4041  0.0976  0.7123
   14CHL1  H11A  997   2.115   2.394   6.304 -0.1163  1.7330  1.9358
   14CHL1  H11B  998   1.948   2.454   6.309 -1.6010 -0.8319 -1.5973
   14CHL1    C9  999   1.977   2.258   6.409  0.0690  0.3625 -0.7750
   14CHL1    H9 1000   1.866   2.253   6.407 -0.0451 -1.6903  2.8821
   14CHL1   C10 1001   2.011   2.305   6.556  0.1253 -0.5088 -0.0292
   14CHL1   C19 1002   2.165   2.350   6.557  0.3509 -0.1668  0.2365
   14CHL1  H19A 1003   2.184   2.448   6.508 -1.5487 -0.3501 -0.9856
   14CHL1  H19B 1004   2.198   2.372   6.661 -0.7001  2.7949  0.0417
   14CHL1  H19C 1005   2.234   2.271   6.523  2.6803  0.9710  2.0447
   14CHL1    C1 1006   1.912   2.421   6.595  0.4359 -0.2936  0.3057
   14CHL1   H1A 1007   1.934   2.513   6.537  0.1135  0.5016  1.4160
   14CHL1   H1B 1008   1.810   2.394   6.559  0.1652 -0.8444  1.4267
   14CHL1    C2 1009   1.909   2.463   6.745 -0.5561  0.4529 -0.3277
   14CHL1   H2A 1010   1.825   2.533   6.764 -1.4330 -0.3780 -1.0016
   14CHL1   H2B 1011   2.012   2.497   6.772  0.3464 -2.0396 -0.3534
   14CHL1   C20 1012   2.068   2.133   5.877 -0.2356  0.6035  0.3097
   14CHL1   H20 1013   2.177   2.109   5.878 -0.0979 -0.1196 -4.5942
   14CHL1   C21 1014   2.057   2.285   5.847  0.1763 -0.0458 -0.5336
   14CHL1  H21A 1015   2.094   2.359   5.922 -2.1797 -1.7966  2.5767
   14CHL1  H21B 1016   1.950   2.311   5.832  0.5681  4.2180  2.2228
   14CHL1  H21C 1017   2.111   2.318   5.755  2.0748  1.1984  0.9330
   14CHL1   C22 1018   2.005   2.050   5.756 -0.0007 -0.0487  0.1160
   14CHL1  H22A 1019   2.048   1.948   5.768 -0.4775 -0.3808 -0.8864
   14CHL1  H22B 1020   1.894   2.046   5.769  0.1155 -3.0630  1.1588
   14CHL1   C23 1021   2.046   2.083   5.619 -0.6190  0.6355  0.0456
   14CHL1  H23A 1022   2.007   2.004   5.551  0.5150  0.8356 -0.8679
   14CHL1  H23B 1023   2.001   2.181   5.595  0.6993  0.9637 -1.2893
   14CHL1   C24 1024   2.195   2.101   5.600  0.0528  0.6321 -0.6273
   14CHL1  H24A 1025   2.254   2.161   5.672 -0.2721  1.7016 -1.2374
   14CHL1  H24B 1026   2.236   1.999   5.616 -0.1778  0.5034 -0.8570
   14CHL1   C25 1027   2.225   2.154   5.461 -0.1213  0.1727 -0.2725
   14CHL1   H25 1028   2.183   2.256   5.467 -2.7470 -0.9310  2.7640
   14CHL1   C26 1029   2.380   2.164   5.454 -0.4067  0.2577 -0.1381
   14CHL1  H26A 1030   2.414   2.223   5.542 -3.3823 -1.2408  2.2158
   14CHL1  H26B 1031   2.425   2.063   5.450 -0.7192  0.1641 -2.3738
   14CHL1  H26C 1032   2.409   2.215   5.360 -0.9719 -2.1922 -1.7357
   14CHL1   C27 1033   2.170   2.066   5.345  0.1454 -0.5058 -0.1484
   14CHL1  H27A 1034   2.205   1.961   5.355  2.0691 -0.0596 -1.5610
   14CHL1  H27B 1035   2.060   2.068   5.330 -0.1094 -0.0021  1.6111
   14CHL1  H27C 1036   2.221   2.098   5.251 -0.1123  0.6949  0.1056
   15CHL1    C3 1037   2.394   1.138   6.813  0.3761 -0.2231  0.2198
   15CHL1    H3 1038   2.450   1.234   6.817 -0.9465  0.6768 -1.3799
   15CHL1    O3 1039   2.330   1.126   6.943 -0.1810 -0.1650 -0.0014
   15CHL1   H3' 1040   2.269   1.053   6.930 -1.8518  1.2644 -0.5572
   15CHL1    C4 1041   2.289   1.147   6.703 -0.4097 -0.1803 -0.3118
   15CHL1   H4A 1042   2.228   1.055   6.718  1.8993 -1.6243  0.7291
   15CHL1   H4B 1043   2.227   1.238   6.718 -0.5351 -0.2355 -0.4868
   15CHL1    C5 1044   2.353   1.145   6.564  0.0226  0.0577  0.2504
   15CHL1    C6 1045   2.337   1.254   6.482 -0.8552  0.1582 -0.1582
   15CHL1    H6 1046   2.285   1.344   6.519 -1.0412 -0.3267  0.8077
   15CHL1    C7 1047   2.384   1.253   6.335  0.2334 -0.2048 -0.6860
   15CHL1   H7A 1048   2.311   1.286   6.258  0.8553 -1.1593 -1.7121
   15CHL1   H7B 1049   2.473   1.319   6.338 -0.7238  1.1208  2.3466
   15CHL1    C8 1050   2.426   1.114   6.296  0.1537 -0.6536 -0.6084
   15CHL1    H8 1051   2.339   1.047   6.278  0.6052 -1.0599 -1.3246
   15CHL1   C14 1052   2.506   1.120   6.165 -0.1421 -0.0590 -0.4985
   15CHL1   H14 1053   2.590   1.189   6.191 -1.4765  0.7797  1.8859
   15CHL1   C15 1054   2.436   1.199   6.050  0.2623  0.2026 -0.0458
   15CHL1  H15A 1055   2.329   1.171   6.051  0.3883 -0.2731  0.2028
   15CHL1  H15B 1056   2.442   1.307   6.076 -1.2161 -0.4895  3.9039
   15CHL1   C16 1057   2.502   1.148   5.924  0.3546 -0.0781 -0.3395
   15CHL1  H16A 1058   2.425   1.104   5.857  1.9817  0.8180 -2.9263
   15CHL1  H16B 1059   2.556   1.232   5.875  1.2885 -0.4396  0.0321
   15CHL1   C17 1060   2.608   1.039   5.971 -0.2594 -0.3867  0.2080
   15CHL1   H17 1061   2.698   1.100   5.995 -0.6218 -0.2312  1.2231
   15CHL1   C13 1062   2.559   0.990   6.112  0.4067  0.3646  0.1553
   15CHL1   C18 1063   2.436   0.903   6.076  0.0864 -0.4333  1.4019
   15CHL1  H18A 1064   2.472   0.816   6.016 -1.3052 -0.3192  0.3322
   15CHL1  H18B 1065   2.390   0.855   6.165 -2.0061 -1.2855 -0.0664
   15CHL1  H18C 1066   2.355   0.960   6.026  1.0827 -0.3452 -0.1825
   15CHL1   C12 1067   2.660   0.934   6.207  0.2151  0.0468 -0.2910
   15CHL1  H12A 1068   2.683   0.832   6.167 -1.9627 -0.2469 -0.9628
   15CHL1  H12B 1069   2.746   1.004   6.205 -0.9184  1.6103  1.9426
   15CHL1   C11 1070   2.596   0.928   6.352 -0.1755 -0.3736  0.0490
   15CHL1  H11A 1071   2.529   0.840   6.340  0.0282 -0.5903  0.4560
   15CHL1  H11B 1072   2.673   0.908   6.430  0.2668  1.2457  0.0657
   15CHL1    C9 1073   2.512   1.047   6.396 -0.2618 -0.5214 -0.4629
   15CHL1    H9 1074   2.594   1.116   6.424 -0.5842  0.1277 -1.1005
   15CHL1   C10 1075   2.430   1.021   6.524 -0.5483 -0.5025 -0.1992
   15CHL1   C19 1076   2.339   0.894   6.519 -0.8676 -0.2363 -0.7668
   15CHL1  H19A 1077   2.276   0.913   6.430 -0.1093  3.1972 -0.7063
   15CHL1  H19B 1078   2.405   0.806   6.506  1.7941  1.7864 -1.8386
   15CHL1  H19C 1079   2.278   0.883   6.611 -0.5225 -0.4024 -0.5554
   15CHL1    C1 1080   2.529   1.000   6.641 -0.9820  0.0217 -0.0410
   15CHL1   H1A 1081   2.565   0.895   6.627 -0.3968  0.3902 -1.3996
   15CHL1   H1B 1082   2.624   1.058   6.632  0.9461 -3.0899 -1.4375
   15CHL1    C2 1083   2.476   1.010   6.782  0.4356  0.3186 -0.4449
   15CHL1   H2A 1084   2.568   1.014   6.844 -1.8568  2.8698  3.1571
   15CHL1   H2B 1085   2.416   0.925   6.821  1.3469  0.3741  1.1571
   15CHL1   C20 1086   2.637   0.925   5.855 -0.1916 -0.2545 -0.5186
   15CHL1   H20 1087   2.541   0.882   5.818  0.4042 -1.3514 -0.8497
   15CHL1   C21 1088   2.726   0.811   5.899 -0.1090 -0.0747 -0.0777
   15CHL1  H21A 1089   2.820   0.846   5.945 -2.3615  2.2626  3.2208
   15CHL1  H21B 1090   2.762   0.745   5.817  2.6784 -1.8510  2.3971
   15CHL1  H21C 1091   2.661   0.751   5.967 -0.2710 -0.0017 -0.1669
   15CHL1   C22 1092   2.699   1.005   5.738 -0.5312  0.4230 -0.0420
   15CHL1  H22A 1093   2.622   1.077   5.704  0.1371  0.4050 -1.6578
   15CHL1  H22B 1094   2.786   1.067   5.765 -0.5319  0.7283 -0.7515
   15CHL1   C23 1095   2.743   0.917   5.618 -0.2942 -0.2390 -0.6204
   15CHL1  H23A 1096   2.844   0.881   5.645 -0.0326 -0.2907 -1.6409
   15CHL1  H23B 1097   2.683   0.823   5.621 -0.5799 -0.0418  0.3856
   15CHL1   C24 1098   2.753   0.979   5.481  0.2100  0.2305  0.3359
   15CHL1  H24A 1099   2.648   0.991   5.446  0.1522  1.2469  0.8195
   15CHL1  H24B 1100   2.802   1.078   5.469  2.4031 -0.7003  1.2720
   15CHL1   C25 1101   2.812   0.880   5.379  0.4993  0.1015  0.5611
   15CHL1   H25 1102   2.912   0.843   5.413  1.9667  2.3590 -0.9996
   15CHL1   C26 1103   2.724   0.762   5.361  0.3206  0.5793 -0.3101
   15CHL1  H26A 1104   2.784   0.684   5.308  0.3707 -0.5711  1.3732
   15CHL1  H26B 1105   2.695   0.714   5.457 -0.8755 -0.3921 -1.1209
   15CHL1  H26C 1106   2.632   0.790   5.306 -0.1195 -0.3034 -0.0386
   15CHL1   C27 1107   2.835   0.960   5.243  0.1191  0.9416  0.7348
   15CHL1  H27A 1108   2.891   0.894   5.173  1.1232  2.4744  0.0472
   15CHL1  H27B 1109   2.738   0.983   5.194  0.7858  2.4680  0.0621
   15CHL1  H27C 1110   2.892   1.054   5.255  0.3033  1.1236 -1.1631
   16CHL1    C3 1111   6.225   6.698   6.946 -0.1133 -0.2306 -0.4947
   16CHL1    H3 1112   6.225   6.606   6.884 -3.0729 -0.0112 -0.9533
   16CHL1    O3 1113   6.186   6.672   7.081 -0.0244  0.3218 -0.0121
   16CHL1   H3' 1114   6.204   6.753   7.129 -2.4038  2.1015 -1.8931
   16CHL1    C4 1115   6.367   6.765   6.945  0.5913 -0.5915  0.1231
   16CHL1   H4A 1116   6.367   6.847   7.020  1.1618 -2.6508  2.5140
   16CHL1   H4B 1117   6.430   6.694   7.003  0.9134  0.3305  0.9210
   16CHL1    C5 1118   6.401   6.802   6.798  0.0323 -0.0454 -0.3485
   16CHL1    C6 1119   6.510   6.754   6.740 -0.2973  0.0755  0.2334
   16CHL1    H6 1120   6.583   6.686   6.786 -0.8871 -1.9111 -1.6236
   16CHL1    C7 1121   6.559   6.805   6.605 -0.6144 -0.2100 -0.2224
   16CHL1   H7A 1122   6.665   6.837   6.607 -0.4344 -0.7461 -0.8205
   16CHL1   H7B 1123   6.556   6.716   6.539 -3.0518 -0.8962  0.7106
   16CHL1    C8 1124   6.476   6.907   6.530 -0.3534  0.5950  0.1668
   16CHL1    H8 1125   6.503   7.013   6.552 -2.0928  1.4647 -1.5448
   16CHL1   C14 1126   6.495   6.895   6.377  0.9066 -0.6485  1.5249
   16CHL1   H14 1127   6.470   6.795   6.335  3.3842 -0.8892  0.4830
   16CHL1   C15 1128   6.647   6.912   6.327 -0.0170 -0.0168 -1.0032
   16CHL1  H15A 1129   6.701   6.986   6.390  0.9386 -1.2721 -0.2961
   16CHL1  H15B 1130   6.701   6.819   6.354 -0.4044 -0.1037 -0.5163
   16CHL1   C16 1131   6.633   6.926   6.178 -0.7598 -0.4802 -0.2261
   16CHL1  H16A 1132   6.709   6.993   6.134  0.3907 -1.2429  0.5331
   16CHL1  H16B 1133   6.655   6.823   6.143  2.9709  0.1888 -0.2132
   16CHL1   C17 1134   6.485   6.966   6.151  0.1309  0.4565 -0.5326
   16CHL1   H17 1135   6.438   6.872   6.115  0.0449  0.9893 -1.8750
   16CHL1   C13 1136   6.418   6.993   6.291 -0.2361 -0.0881 -0.7188
   16CHL1   C18 1137   6.460   7.135   6.331  0.1070  0.1876  0.2015
   16CHL1  H18A 1138   6.396   7.204   6.270 -0.9371  1.1656  2.3052
   16CHL1  H18B 1139   6.441   7.151   6.439  0.3984  0.1556  0.2575
   16CHL1  H18C 1140   6.567   7.151   6.305 -0.1913  0.8310 -0.6794
   16CHL1   C12 1141   6.267   6.974   6.317  0.1548  0.0289 -0.3021
   16CHL1  H12A 1142   6.207   7.054   6.269 -0.6142  0.0650  0.6721
   16CHL1  H12B 1143   6.240   6.877   6.271  0.4274  1.0157 -2.6743
   16CHL1   C11 1144   6.244   6.978   6.474  0.7761 -0.1586 -0.1420
   16CHL1  H11A 1145   6.256   7.082   6.511 -1.3093  0.2094 -0.3516
   16CHL1  H11B 1146   6.136   6.957   6.490  0.4947  0.7080 -0.7867
   16CHL1    C9 1147   6.329   6.892   6.560 -0.7961  0.6787 -0.2755
   16CHL1    H9 1148   6.302   6.788   6.535  1.9960 -0.5766  1.4544
   16CHL1   C10 1149   6.302   6.891   6.714 -0.1516 -0.0558 -0.4341
   16CHL1   C19 1150   6.318   7.032   6.773 -0.5044 -0.2358 -0.3029
   16CHL1  H19A 1151   6.238   7.097   6.733  0.6098  1.3253 -0.0678
   16CHL1  H19B 1152   6.320   7.046   6.884  0.5121 -0.0172 -0.3441
   16CHL1  H19C 1153   6.405   7.090   6.736 -1.1705  1.8045  1.1219
   16CHL1    C1 1154   6.162   6.826   6.741  0.0202  0.1061  0.1716
   16CHL1   H1A 1155   6.086   6.898   6.705  1.3428  1.7883  0.6201
   16CHL1   H1B 1156   6.147   6.729   6.689  2.0735 -0.6807  0.9329
   16CHL1    C2 1157   6.126   6.800   6.885 -0.2759 -0.0190  0.0791
   16CHL1   H2A 1158   6.021   6.763   6.886 -0.6302  0.9779  0.9736
   16CHL1   H2B 1159   6.130   6.893   6.946  0.4077  0.8877 -1.3078
   16CHL1   C20 1160   6.468   7.066   6.038  0.2825 -0.0670  0.6693
   16CHL1   H20 1161   6.523   7.158   6.069  2.0689 -0.1348 -1.9416
   16CHL1   C21 1162   6.311   7.093   6.020 -0.8381  0.3350 -0.0050
   16CHL1  H21A 1163   6.268   7.170   6.086 -0.5799  0.5749 -0.1138
   16CHL1  H21B 1164   6.261   6.994   6.031  2.7992 -1.9224 -1.6198
   16CHL1  H21C 1165   6.301   7.126   5.914 -2.3620 -3.3154 -1.1829
   16CHL1   C22 1166   6.528   7.021   5.903  0.7516 -0.9516  0.2890
   16CHL1  H22A 1167   6.634   7.000   5.928  1.4201  2.5565  0.9720
   16CHL1  H22B 1168   6.494   6.924   5.861 -0.2350  0.4245 -2.3187
   16CHL1   C23 1169   6.550   7.132   5.794  1.0053 -0.1361 -0.3760
   16CHL1  H23A 1170   6.446   7.142   5.756  1.2740  1.7897 -0.7276
   16CHL1  H23B 1171   6.573   7.228   5.846 -3.4161 -0.3752  2.5394
   16CHL1   C24 1172   6.646   7.088   5.685 -0.3700  0.3078 -0.1607
   16CHL1  H24A 1173   6.736   7.047   5.735 -0.4190 -0.0899 -0.3981
   16CHL1  H24B 1174   6.597   7.004   5.631 -0.3391 -0.3943  0.8683
   16CHL1   C25 1175   6.686   7.193   5.579  0.7601  0.5774  0.0475
   16CHL1   H25 1176   6.740   7.270   5.638  0.3821 -0.4055  1.7759
   16CHL1   C26 1177   6.763   7.133   5.467 -0.4432  0.1097  1.1317
   16CHL1  H26A 1178   6.867   7.107   5.494 -1.1307 -1.7451  2.1904
   16CHL1  H26B 1179   6.712   7.039   5.437 -0.3066 -0.3741  2.3709
   16CHL1  H26C 1180   6.760   7.202   5.380  2.5596 -0.6860  0.2804
   16CHL1   C27 1181   6.561   7.263   5.512 -0.1734 -0.0071  0.0446
   16CHL1  H27A 1182   6.530   7.200   5.426  1.9515 -1.7016  0.4395
   16CHL1  H27B 1183   6.482   7.274   5.590  0.5259  2.9451  0.4709
   16CHL1  H27C 1184   6.579   7.359   5.459 -0.4525 -0.9704 -1.8710
   17CHL1    C3 1185   3.914   3.568   7.217  0.1699 -0.3313  0.4085
   17CHL1    H3 1186   3.822   3.619   7.182  1.2908  1.0607 -0.6210
   17CHL1    O3 1187   3.938   3.586   7.353 -0.4300  0.5770 -0.4699
   17CHL1   H3' 1188   4.029   3.613   7.356  0.4311 -1.7585 -2.3093
   17CHL1    C4 1189   3.909   3.422   7.196  0.1406 -0.1920 -0.1566
   17CHL1   H4A 1190   4.011   3.386   7.221  0.9734  2.1185 -0.0473
   17CHL1   H4B 1191   3.834   3.370   7.259  1.3515 -3.0210 -0.8869
   17CHL1    C5 1192   3.875   3.391   7.050  0.3442  0.4542  0.5901
   17CHL1    C6 1193   3.765   3.325   7.017  0.2001 -0.7897  0.0304
   17CHL1    H6 1194   3.705   3.274   7.093  1.2617  0.9558  2.1605
   17CHL1    C7 1195   3.722   3.293   6.870  0.6601 -0.2834 -0.6195
   17CHL1   H7A 1196   3.682   3.190   6.860 -2.6127  0.9097 -1.2246
   17CHL1   H7B 1197   3.634   3.354   6.837  1.0831 -0.6053 -2.4645
   17CHL1    C8 1198   3.840   3.325   6.766 -0.0974  0.2112 -0.3870
   17CHL1    H8 1199   3.907   3.236   6.767 -1.3143 -0.7538  1.8977
   17CHL1   C14 1200   3.789   3.342   6.621 -0.2721  0.3699 -0.3199
   17CHL1   H14 1201   3.734   3.439   6.622  0.3757  0.7867  1.9636
   17CHL1   C15 1202   3.704   3.224   6.574 -0.3149 -0.1874 -0.0355
   17CHL1  H15A 1203   3.761   3.147   6.631  0.7641  0.4180 -0.2664
   17CHL1  H15B 1204   3.601   3.250   6.603 -0.1704  2.4493 -1.5662
   17CHL1   C16 1205   3.713   3.229   6.418  0.0751 -0.1581 -0.3107
   17CHL1  H16A 1206   3.760   3.133   6.388 -1.9845 -1.9832  1.8704
   17CHL1  H16B 1207   3.616   3.245   6.365 -0.0653  1.1861  0.3112
   17CHL1   C17 1208   3.816   3.343   6.387 -0.2995  0.3109  0.3601
   17CHL1   H17 1209   3.761   3.439   6.384 -0.4986  0.1691 -0.8116
   17CHL1   C13 1210   3.900   3.356   6.512  0.4304  0.9266 -0.4482
   17CHL1   C18 1211   4.006   3.238   6.524 -0.0885 -0.5793 -0.2008
   17CHL1  H18A 1212   3.972   3.132   6.523 -0.1344 -0.5726 -1.7099
   17CHL1  H18B 1213   4.074   3.255   6.438  1.2817  0.2377  1.0083
   17CHL1  H18C 1214   4.071   3.248   6.613 -0.3930 -0.2180 -0.0138
   17CHL1   C12 1215   3.971   3.494   6.541 -0.4360  0.3244 -0.2751
   17CHL1  H12A 1216   4.052   3.522   6.471  0.2077 -0.7264  0.0119
   17CHL1  H12B 1217   3.891   3.570   6.535 -1.7490 -1.0331 -0.6677
   17CHL1   C11 1218   4.019   3.500   6.686 -0.7779 -0.1513  0.2161
   17CHL1  H11A 1219   4.115   3.445   6.684 -0.7103 -0.0577 -1.9929
   17CHL1  H11B 1220   4.055   3.603   6.706 -1.4180 -0.1671  1.5552
   17CHL1    C9 1221   3.923   3.456   6.800  0.3582  0.5702 -0.0171
   17CHL1    H9 1222   3.846   3.536   6.790 -0.3240 -0.0689  0.0077
   17CHL1   C10 1223   3.970   3.462   6.947 -0.6062  0.4931  0.3220
   17CHL1   C19 1224   4.107   3.388   6.943 -0.5082  0.1897 -0.5013
   17CHL1  H19A 1225   4.091   3.278   6.950  0.3711  0.1424  1.3290
   17CHL1  H19B 1226   4.174   3.417   6.860 -3.9307  1.3163 -3.0762
   17CHL1  H19C 1227   4.158   3.403   7.041  1.2371 -2.1435 -0.9575
   17CHL1    C1 1228   4.001   3.608   6.983 -0.4330 -0.1503 -0.2023
   17CHL1   H1A 1229   4.088   3.645   6.925  0.3234 -1.7669 -0.1470
   17CHL1   H1B 1230   3.915   3.674   6.959  1.4425  1.7540 -2.0680
   17CHL1    C2 1231   4.026   3.631   7.136  0.1190  0.3169  0.3685
   17CHL1   H2A 1232   4.025   3.740   7.158  2.2436  0.7232 -1.2295
   17CHL1   H2B 1233   4.119   3.587   7.177 -0.3571 -2.1072 -0.9963
   17CHL1   C20 1234   3.892   3.327   6.252 -0.2682 -0.6661 -0.4272
   17CHL1   H20 1235   3.976   3.258   6.273 -0.3063 -0.4715  0.3813
   17CHL1   C21 1236   3.966   3.465   6.206  0.7262  0.0349  0.1844
   17CHL1  H21A 1237   4.007   3.449   6.104  1.3157 -1.5524  0.6449
   17CHL1  H21B 1238   4.042   3.485   6.284  1.5793  0.2219 -0.6872
   17CHL1  H21C 1239   3.896   3.552   6.200  0.8130  0.0373 -1.0868
   17CHL1   C22 1240   3.804   3.278   6.135 -0.8221  0.0538  0.2327
   17CHL1  H22A 1241   3.740   3.192   6.163  0.6806 -1.1914  0.0167
   17CHL1  H22B 1242   3.736   3.358   6.100 -1.5966 -0.3260  0.8375
   17CHL1   C23 1243   3.871   3.229   6.004 -0.2918 -0.7554  0.8147
   17CHL1  H23A 1244   3.784   3.219   5.936  1.0292 -0.7947 -0.9342
   17CHL1  H23B 1245   3.943   3.308   5.973  1.3668 -1.3700  2.8440
   17CHL1   C24 1246   3.942   3.094   6.016  0.3570 -0.0654 -0.1859
   17CHL1  H24A 1247   4.003   3.093   6.110  0.5554  1.5669 -0.2848
   17CHL1  H24B 1248   3.869   3.016   6.048 -1.3550  1.1702 -0.9279
   17CHL1   C25 1249   4.012   3.044   5.887 -0.0397 -0.1346 -0.2495
   17CHL1   H25 1250   3.953   3.051   5.793  0.7035 -0.6640 -0.7728
   17CHL1   C26 1251   4.140   3.125   5.867  0.5058 -0.3008 -0.0671
   17CHL1  H26A 1252   4.107   3.230   5.853 -3.3900 -1.0012  2.3570
   17CHL1  H26B 1253   4.191   3.135   5.965 -2.0538  2.8436  1.1409
   17CHL1  H26C 1254   4.204   3.085   5.786 -0.2770  0.3336 -1.0269
   17CHL1   C27 1255   4.038   2.897   5.891 -0.3006  1.1467  0.2012
   17CHL1  H27A 1256   3.942   2.843   5.900 -0.0379  0.6052 -0.1818
   17CHL1  H27B 1257   4.087   2.867   5.796 -0.9186 -2.6160  0.9096
   17CHL1  H27C 1258   4.106   2.862   5.972  0.3225 -0.3480 -0.9287
   18CHL1    C3 1259   2.889   4.535   7.037  0.2301 -0.2278  0.1061
   18CHL1    H3 1260   2.869   4.642   7.015  1.6450 -0.2126 -1.2852
   18CHL1    O3 1261   2.899   4.513   7.175 -1.2474 -0.5197 -0.7010
   18CHL1   H3' 1262   2.994   4.519   7.191 -1.3198  1.5427 -0.8579
   18CHL1    C4 1263   2.777   4.448   6.988  0.1623  0.1919 -0.0085
   18CHL1   H4A 1264   2.780   4.341   7.018  1.7771  0.1418 -0.2668
   18CHL1   H4B 1265   2.686   4.487   7.038 -0.1709  1.2073 -1.3509
   18CHL1    C5 1266   2.752   4.456   6.843  0.1493  0.4952  0.0189
   18CHL1    C6 1267   2.634   4.502   6.791  0.6632 -0.1459  0.2020
   18CHL1    H6 1268   2.548   4.517   6.857  0.7535 -0.2468  0.3422
   18CHL1    C7 1269   2.602   4.501   6.646 -0.0460  0.4414 -0.0991
   18CHL1   H7A 1270   2.508   4.444   6.633 -1.1729  1.8768  1.3550
   18CHL1   H7B 1271   2.583   4.602   6.605  0.0749  0.2706 -0.5837
   18CHL1    C8 1272   2.708   4.408   6.570 -0.2595  0.0987  0.4599
   18CHL1    H8 1273   2.672   4.306   6.594 -1.3427  0.3273 -0.1115
   18CHL1   C14 1274   2.691   4.429   6.426  0.1425 -0.1484  0.6486
   18CHL1   H14 1275   2.722   4.533   6.403  0.7064 -0.2707  0.8456
   18CHL1   C15 1276   2.549   4.436   6.365 -0.5504 -0.5527  0.1659
   18CHL1  H15A 1277   2.487   4.360   6.417 -0.4301 -0.8132 -0.0683
   18CHL1  H15B 1278   2.520   4.542   6.382  0.4597 -0.0735 -0.9709
   18CHL1   C16 1279   2.567   4.388   6.223  0.4169  0.4751  0.0637
   18CHL1  H16A 1280   2.516   4.289   6.218  0.1883  0.3381  3.1231
   18CHL1  H16B 1281   2.536   4.463   6.147  0.2894 -1.6492 -2.1100
   18CHL1   C17 1282   2.718   4.373   6.199  0.3007  0.5413 -0.2611
   18CHL1   H17 1283   2.757   4.474   6.176 -1.2861  1.0147 -1.0722
   18CHL1   C13 1284   2.772   4.332   6.337  0.9338 -0.2817  0.4554
   18CHL1   C18 1285   2.739   4.181   6.365  0.2906 -0.0834 -0.9836
   18CHL1  H18A 1286   2.644   4.143   6.320  0.3824  0.7507 -1.9177
   18CHL1  H18B 1287   2.825   4.115   6.339  0.1001 -0.3601 -0.9212
   18CHL1  H18C 1288   2.737   4.161   6.474 -1.5109  0.3261 -0.9107
   18CHL1   C12 1289   2.918   4.374   6.367  0.0357 -0.0442 -0.3461
   18CHL1  H12A 1290   2.990   4.313   6.307 -1.6374  0.1350 -2.6863
   18CHL1  H12B 1291   2.933   4.474   6.321 -1.8046 -1.4194 -4.4896
   18CHL1   C11 1292   2.955   4.366   6.517  0.2337 -0.1898  0.1435
   18CHL1  H11A 1293   2.959   4.255   6.525 -0.1708 -0.2215 -0.0799
   18CHL1  H11B 1294   3.056   4.408   6.539  1.7207 -2.4035 -1.9257
   18CHL1    C9 1295   2.851   4.445   6.612 -0.3607  1.0569  0.4384
   18CHL1    H9 1296   2.871   4.552   6.594 -0.5716  0.7702 -1.7839
   18CHL1   C10 1297   2.871   4.418   6.755 -0.2598  0.2598  0.7459
   18CHL1   C19 1298   2.901   4.266   6.775  0.0298 -0.1701 -0.1855
   18CHL1  H19A 1299   2.829   4.197   6.725  0.8733 -1.2950  0.0988
   18CHL1  H19B 1300   2.992   4.246   6.714  1.4079  1.8576  1.1033
   18CHL1  H19C 1301   2.922   4.232   6.878  2.1592  2.3384  0.3039
   18CHL1    C1 1302   2.999   4.492   6.803  0.3627  0.2877  0.2069
   18CHL1   H1A 1303   3.092   4.458   6.753  1.5482  2.9314  0.4807
   18CHL1   H1B 1304   2.993   4.599   6.774  2.1449  0.5404  0.6538
   18CHL1    C2 1305   3.017   4.499   6.956 -0.0340  0.0638 -0.1789
   18CHL1   H2A 1306   3.095   4.576   6.976 -0.7150  0.7350 -0.0476
   18CHL1   H2B 1307   3.055   4.398   6.981 -0.2054 -0.3399 -1.4632
   18CHL1   C20 1308   2.739   4.283   6.077  0.4211 -0.5772 -0.5176
   18CHL1   H20 1309   2.699   4.181   6.094 -1.6461 -0.1668 -2.3956
   18CHL1   C21 1310   2.890   4.282   6.057 -0.9869  0.3251  0.1039
   18CHL1  H21A 1311   2.936   4.216   6.134  1.2844  1.1255 -0.4864
   18CHL1  H21B 1312   2.943   4.379   6.064 -0.1977 -0.1680  1.2656
   18CHL1  H21C 1313   2.925   4.235   5.962 -0.6185  1.4395 -0.3324
   18CHL1   C22 1314   2.673   4.325   5.942 -0.5417 -0.5636 -0.7578
   18CHL1  H22A 1315   2.569   4.347   5.976  0.0232  1.8917 -0.4944
   18CHL1  H22B 1316   2.724   4.416   5.906 -1.0748 -0.5969 -1.6379
   18CHL1   C23 1317   2.688   4.223   5.824  0.0809  0.1510  0.0425
   18CHL1  H23A 1318   2.787   4.237   5.776  0.5033 -2.1719  0.1060
   18CHL1  H23B 1319   2.666   4.124   5.870 -4.3927  2.2673  3.1682
   18CHL1   C24 1320   2.580   4.247   5.727  0.2260 -0.3161  0.1329
   18CHL1  H24A 1321   2.485   4.208   5.772  0.3839 -0.0347  0.7185
   18CHL1  H24B 1322   2.567   4.354   5.702 -2.0318 -0.0363  2.1105
   18CHL1   C25 1323   2.598   4.174   5.597  1.0765  0.0587  0.6570
   18CHL1   H25 1324   2.628   4.071   5.625 -1.3747 -0.8363  0.2092
   18CHL1   C26 1325   2.458   4.167   5.532  0.5292  0.3199  0.9853
   18CHL1  H26A 1326   2.432   4.269   5.498  1.7455  0.8931  1.7046
   18CHL1  H26B 1327   2.462   4.106   5.438  2.8600  1.2097  0.4228
   18CHL1  H26C 1328   2.383   4.121   5.599 -1.8679 -0.2345 -1.8966
   18CHL1   C27 1329   2.698   4.242   5.498 -0.1988  0.7504 -0.8156
   18CHL1  H27A 1330   2.685   4.193   5.399  0.5026  2.0748 -1.6051
   18CHL1  H27B 1331   2.688   4.352   5.481  1.5958  0.9893 -0.4813
   18CHL1  H27C 1332   2.802   4.229   5.533 -0.0585 -0.3687 -1.6059
   19CHL1    C3 1333   2.069   5.268   6.980 -1.0575  0.8297  0.0070
   19CHL1    H3 1334   1.959   5.283   6.972 -1.0425  0.6196 -0.6576
   19CHL1    O3 1335   2.104   5.234   7.110  0.2600  0.2082  0.5534
   19CHL1   H3' 1336   2.199   5.223   7.113  0.0072 -3.2949 -0.1594
   19CHL1    C4 1337   2.116   5.156   6.881  1.0916  0.2416  0.6177
   19CHL1   H4A 1338   2.225   5.138   6.898  1.3743 -0.0502 -1.2836
   19CHL1   H4B 1339   2.062   5.062   6.906 -3.2846  2.0894 -0.9729
   19CHL1    C5 1340   2.099   5.179   6.730 -0.5579 -0.0207  0.0906
   19CHL1    C6 1341   2.036   5.097   6.645 -0.2107  0.0094  0.4844
   19CHL1    H6 1342   1.995   5.008   6.695  2.0688 -1.3566  0.0747
   19CHL1    C7 1343   2.030   5.122   6.499  0.3277  0.4170 -0.1531
   19CHL1   H7A 1344   2.045   5.033   6.434  1.8418  0.2277  0.4001
   19CHL1   H7B 1345   1.931   5.165   6.476 -0.3629 -0.7909  0.4601
   19CHL1    C8 1346   2.143   5.213   6.451 -0.9575  0.0647 -0.5024
   19CHL1    H8 1347   2.238   5.155   6.452 -0.9941 -0.0123 -0.9274
   19CHL1   C14 1348   2.105   5.251   6.306 -0.4699  1.7335  0.4581
   19CHL1   H14 1349   2.012   5.312   6.313 -2.0497 -0.5344  0.1454
   19CHL1   C15 1350   2.069   5.138   6.206 -0.3030  0.6812  0.8101
   19CHL1  H15A 1351   2.150   5.063   6.218  0.4033  1.4451  0.8714
   19CHL1  H15B 1352   1.969   5.089   6.215  0.0576 -0.1213  0.5391
   19CHL1   C16 1353   2.077   5.214   6.076  0.2172 -0.0357 -0.0129
   19CHL1  H16A 1354   2.115   5.145   5.998 -1.1692  0.1366 -0.8717
   19CHL1  H16B 1355   1.977   5.239   6.035  0.5896  0.2256 -0.7946
   19CHL1   C17 1356   2.156   5.345   6.094  0.2721 -0.2246  0.1638
   19CHL1   H17 1357   2.086   5.431   6.094 -0.2495 -0.6336 -1.2875
   19CHL1   C13 1358   2.208   5.346   6.240  0.0397  0.0409 -0.2569
   19CHL1   C18 1359   2.351   5.278   6.242 -0.3908 -0.0300 -0.2862
   19CHL1  H18A 1360   2.346   5.189   6.176 -0.2620  1.5659 -2.5667
   19CHL1  H18B 1361   2.425   5.344   6.191  0.1415 -0.5099 -0.1467
   19CHL1  H18C 1362   2.377   5.261   6.349  0.6466 -0.8118 -0.6447
   19CHL1   C12 1363   2.207   5.473   6.331  0.9472 -0.3097 -0.0295
   19CHL1  H12A 1364   2.273   5.559   6.307 -0.3488  1.2213  1.5911
   19CHL1  H12B 1365   2.104   5.516   6.337  0.8687 -0.3614 -0.9018
   19CHL1   C11 1366   2.243   5.444   6.480 -0.6649  0.2167  0.3801
   19CHL1  H11A 1367   2.351   5.420   6.484 -0.5924  0.4390 -0.2121
   19CHL1  H11B 1368   2.223   5.535   6.540  0.0551  0.3906  0.3604
   19CHL1    C9 1369   2.150   5.341   6.534 -0.2677 -0.0669 -0.4014
   19CHL1    H9 1370   2.049   5.388   6.528 -0.8886 -1.1380  1.0147
   19CHL1   C10 1371   2.176   5.304   6.685  0.2376 -0.6778  0.3345
   19CHL1   C19 1372   2.329   5.291   6.704 -0.3597  0.1231 -0.0187
   19CHL1  H19A 1373   2.363   5.254   6.804  2.8284 -0.8231 -1.3031
   19CHL1  H19B 1374   2.356   5.218   6.625 -2.2123  0.1560 -0.7269
   19CHL1  H19C 1375   2.380   5.387   6.681 -0.7348  0.3438  0.0664
   19CHL1    C1 1376   2.127   5.416   6.780  0.3083  0.6850 -0.5019
   19CHL1   H1A 1377   2.179   5.509   6.747  2.6071  0.2147  1.4684
   19CHL1   H1B 1378   2.018   5.430   6.764  0.2074 -0.0980 -0.5371
   19CHL1    C2 1379   2.139   5.395   6.932  0.5937  0.0927 -0.3970
   19CHL1   H2A 1380   2.102   5.487   6.981 -0.3600  0.6798 -2.1181
   19CHL1   H2B 1381   2.245   5.391   6.967 -0.0982 -2.8226  1.8109
   19CHL1   C20 1382   2.253   5.382   5.976  1.0652  0.1673 -0.5028
   19CHL1   H20 1383   2.344   5.321   5.996  0.9436  0.4572  0.9904
   19CHL1   C21 1384   2.284   5.539   5.993  0.5084  0.5903  0.2481
   19CHL1  H21A 1385   2.361   5.565   5.917  1.6080 -2.5600  0.1152
   19CHL1  H21B 1386   2.319   5.555   6.097  0.6239 -1.7609  0.6375
   19CHL1  H21C 1387   2.192   5.600   5.983 -1.7337 -2.5306  0.3115
   19CHL1   C22 1388   2.197   5.349   5.839 -0.5788 -0.4853  0.0046
   19CHL1  H22A 1389   2.185   5.238   5.843 -1.5325 -0.4229 -0.6186
   19CHL1  H22B 1390   2.092   5.383   5.821 -0.6254 -1.9569 -3.3720
   19CHL1   C23 1391   2.289   5.390   5.725  0.0793  0.2119  0.1634
   19CHL1  H23A 1392   2.312   5.499   5.727  3.7261 -0.4256  2.8821
   19CHL1  H23B 1393   2.385   5.336   5.742 -0.9208 -1.2758  1.2646
   19CHL1   C24 1394   2.238   5.339   5.584 -0.5347  0.5542  0.2251
   19CHL1  H24A 1395   2.257   5.229   5.589 -0.7980  0.3282 -2.6203
   19CHL1  H24B 1396   2.128   5.350   5.572 -0.7081 -2.0563 -1.3500
   19CHL1   C25 1397   2.303   5.387   5.463 -0.3825 -0.2521  0.5438
   19CHL1   H25 1398   2.291   5.497   5.464  0.3271 -0.1694  1.7316
   19CHL1   C26 1399   2.450   5.340   5.456 -0.3802 -0.5542 -0.5331
   19CHL1  H26A 1400   2.502   5.379   5.367 -0.0027 -0.6311 -0.3464
   19CHL1  H26B 1401   2.498   5.379   5.548  1.9030 -3.2218 -0.4660
   19CHL1  H26C 1402   2.446   5.229   5.457 -0.0692 -0.5678  0.8170
   19CHL1   C27 1403   2.229   5.332   5.342  0.7669 -0.0045 -0.6993
   19CHL1  H27A 1404   2.119   5.350   5.345  0.9242  1.0061  2.5460
   19CHL1  H27B 1405   2.268   5.361   5.242 -0.3409 -0.3151 -1.2472
   19CHL1  H27C 1406   2.231   5.221   5.348 -1.3173 -0.0625 -0.1262
   20CHL1    C3 1407   6.571   5.050   7.264 -0.0114 -1.0616  0.2405
   20CHL1    H3 1408   6.641   4.994   7.199 -0.4176 -1.6440  0.2920
   20CHL1    O3 1409   6.588   5.013   7.401 -0.5224 -0.5592  0.1056
   20CHL1   H3' 1410   6.507   5.008   7.452  0.4779 -0.7270  1.7285
   20CHL1    C4 1411   6.607   5.199   7.244  0.2891  0.2811 -0.4383
   20CHL1   H4A 1412   6.544   5.258   7.313  2.1162  1.8318 -0.0102
   20CHL1   H4B 1413   6.709   5.209   7.287  0.0010 -3.0189  1.3749
   20CHL1    C5 1414   6.585   5.259   7.111  0.3738  0.3502 -0.2609
   20CHL1    C6 1415   6.686   5.317   7.045 -0.6321 -0.0640 -0.2994
   20CHL1    H6 1416   6.782   5.324   7.097 -0.5401  0.4225 -0.5278
   20CHL1    C7 1417   6.685   5.370   6.903  0.5794  0.4208  0.6886
   20CHL1   H7A 1418   6.726   5.473   6.892  2.5550 -0.3806  0.0354
   20CHL1   H7B 1419   6.744   5.296   6.845 -0.6633 -0.6405  0.7567
   20CHL1    C8 1420   6.537   5.371   6.842 -0.0206  0.4487  0.6612
   20CHL1    H8 1421   6.475   5.454   6.884 -0.3146 -0.3995  1.9568
   20CHL1   C14 1422   6.533   5.384   6.691  0.2491 -0.0819 -0.0626
   20CHL1   H14 1423   6.583   5.293   6.653 -1.2676 -0.6930 -0.6704
   20CHL1   C15 1424   6.592   5.503   6.628  0.7605  0.3582 -0.2479
   20CHL1  H15A 1425   6.565   5.598   6.677  2.4045  1.3932 -1.2421
   20CHL1  H15B 1426   6.703   5.497   6.626  0.7021 -0.8832 -1.8582
   20CHL1   C16 1427   6.544   5.498   6.482 -0.3631 -0.8727  0.4865
   20CHL1  H16A 1428   6.504   5.601   6.467 -1.0387 -1.3793 -1.5113
   20CHL1  H16B 1429   6.628   5.466   6.417  0.5028  2.5349 -0.3077
   20CHL1   C17 1430   6.420   5.397   6.480 -0.1882 -0.0675  0.2025
   20CHL1   H17 1431   6.462   5.297   6.455 -0.9814 -0.2730 -0.3384
   20CHL1   C13 1432   6.393   5.371   6.630  0.0761  0.3067 -0.2223
   20CHL1   C18 1433   6.304   5.493   6.669 -0.8153 -0.4574 -0.4241
   20CHL1  H18A 1434   6.279   5.499   6.777 -0.5847 -3.3214 -0.1467
   20CHL1  H18B 1435   6.356   5.587   6.640  1.4219 -2.5388 -3.7116
   20CHL1  H18C 1436   6.207   5.492   6.614 -1.4795  2.7897  0.4313
   20CHL1   C12 1437   6.324   5.236   6.664  0.5703  0.4100 -0.1157
   20CHL1  H12A 1438   6.217   5.232   6.636 -0.1965 -3.4204  2.6074
   20CHL1  H12B 1439   6.376   5.157   6.606 -0.2497 -0.6836  0.5892
   20CHL1   C11 1440   6.333   5.207   6.814  0.7467  0.0648  0.3189
   20CHL1  H11A 1441   6.253   5.276   6.851 -0.0330 -0.6923  0.0751
   20CHL1  H11B 1442   6.291   5.106   6.829  0.3162  0.3691  1.2325
   20CHL1    C9 1443   6.465   5.240   6.881 -0.1401  0.5175 -0.5221
   20CHL1    H9 1444   6.538   5.161   6.853  1.7008  2.5118 -1.6096
   20CHL1   C10 1445   6.455   5.218   7.035  0.0032 -0.0261 -0.7338
   20CHL1   C19 1446   6.340   5.315   7.090  0.2577 -0.4304 -0.2324
   20CHL1  H19A 1447   6.344   5.315   7.201 -1.0039 -1.4068 -0.1627
   20CHL1  H19B 1448   6.348   5.412   7.036 -1.1972  1.2243  2.3671
   20CHL1  H19C 1449   6.241   5.272   7.066  0.5989  0.1357 -3.0832
   20CHL1    C1 1450   6.409   5.070   7.061 -0.0024  0.0093 -0.0740
   20CHL1   H1A 1451   6.304   5.053   7.029 -0.4452 -1.1370  1.8363
   20CHL1   H1B 1452   6.474   5.010   6.994  0.2692 -1.0391  1.0914
   20CHL1    C2 1453   6.431   5.027   7.203  0.5440 -0.5099 -0.0557
   20CHL1   H2A 1454   6.398   4.920   7.204  0.3242 -0.5094 -2.3664
   20CHL1   H2B 1455   6.358   5.078   7.268 -0.1219  1.2033 -2.0394
   20CHL1   C20 1456   6.322   5.429   6.371  0.1210  0.7039 -0.3852
   20CHL1   H20 1457   6.255   5.513   6.400 -1.0315  0.1864 -1.4703
   20CHL1   C21 1458   6.235   5.307   6.366  0.1487 -0.2456  0.6592
   20CHL1  H21A 1459   6.159   5.319   6.286  2.1643  1.1101 -1.1943
   20CHL1  H21B 1460   6.174   5.306   6.459 -1.0105 -0.8650 -0.0920
   20CHL1  H21C 1461   6.292   5.212   6.354 -0.2057 -0.6957  2.2319
   20CHL1   C22 1462   6.391   5.467   6.235 -1.1314 -0.8236  0.0246
   20CHL1  H22A 1463   6.454   5.558   6.241 -1.8978 -0.1714 -1.4161
   20CHL1  H22B 1464   6.459   5.385   6.202  1.6567  0.7788  1.3833
   20CHL1   C23 1465   6.296   5.503   6.122 -0.0144 -0.5223 -0.1579
   20CHL1  H23A 1466   6.236   5.414   6.091 -1.4466  0.9947 -2.0409
   20CHL1  H23B 1467   6.218   5.578   6.147  0.9688  0.8729 -1.1019
   20CHL1   C24 1468   6.375   5.556   6.001  0.4561  0.0049 -0.3193
   20CHL1  H24A 1469   6.466   5.608   6.036  0.4151  0.3535 -0.7197
   20CHL1  H24B 1470   6.411   5.477   5.932 -0.6675  1.3858 -2.6096
   20CHL1   C25 1471   6.284   5.652   5.912 -0.0312 -0.5638  0.8031
   20CHL1   H25 1472   6.234   5.725   5.980  0.3729  2.0039 -1.5026
   20CHL1   C26 1473   6.359   5.734   5.807 -0.0883  0.7918  1.1777
   20CHL1  H26A 1474   6.290   5.798   5.748 -0.5831 -2.1101 -1.6612
   20CHL1  H26B 1475   6.436   5.800   5.852 -0.2353  2.0634 -0.3732
   20CHL1  H26C 1476   6.399   5.662   5.733  1.6827  2.3390  0.5552
   20CHL1   C27 1477   6.185   5.564   5.832  0.5692  0.0689  0.3367
   20CHL1  H27A 1478   6.133   5.497   5.903  0.6713  0.4810  0.8047
   20CHL1  H27B 1479   6.102   5.618   5.782 -0.3079  0.3377  2.0028
   20CHL1  H27C 1480   6.238   5.500   5.758 -2.5707 -0.7601 -1.3462
   21CHL1    C3 1481   5.931   5.195   7.244  0.2941  0.2416  0.4724
   21CHL1    H3 1482   6.029   5.243   7.224 -0.5198  1.6819 -0.2635
   21CHL1    O3 1483   5.927   5.155   7.382 -0.2812 -0.0582 -0.2030
   21CHL1   H3' 1484   5.835   5.142   7.403 -0.0066  2.2625  3.3010
   21CHL1    C4 1485   5.828   5.305   7.227 -0.0975 -0.1073  0.2631
   21CHL1   H4A 1486   5.731   5.263   7.263  0.7435  0.9408  4.2748
   21CHL1   H4B 1487   5.842   5.391   7.296  0.7843  1.1109 -1.3820
   21CHL1    C5 1488   5.819   5.350   7.077 -0.9150 -0.3942 -0.4518
   21CHL1    C6 1489   5.837   5.478   7.050 -0.4087 -0.0236 -0.1602
   21CHL1    H6 1490   5.854   5.550   7.132  0.2238  0.4416 -0.6925
   21CHL1    C7 1491   5.833   5.527   6.911 -0.3865  0.1627 -0.4481
   21CHL1   H7A 1492   5.784   5.626   6.910  3.3849  2.2320 -1.0796
   21CHL1   H7B 1493   5.938   5.540   6.876  0.6458 -0.0350  2.3084
   21CHL1    C8 1494   5.784   5.426   6.802 -0.1812 -0.5234 -0.5143
   21CHL1    H8 1495   5.673   5.416   6.799 -0.1530 -0.7641 -0.8234
   21CHL1   C14 1496   5.829   5.474   6.670  0.5750 -0.1140 -0.2447
   21CHL1   H14 1497   5.939   5.479   6.676  0.5805 -0.6336  0.1615
   21CHL1   C15 1498   5.783   5.616   6.627 -0.4343 -0.0032 -0.4875
   21CHL1  H15A 1499   5.676   5.633   6.652 -0.4289  0.0114 -0.4761
   21CHL1  H15B 1500   5.845   5.695   6.674  1.3582 -1.2800 -0.6121
   21CHL1   C16 1501   5.816   5.617   6.480 -0.1894  0.0030 -0.0414
   21CHL1  H16A 1502   5.730   5.658   6.423  0.6505  1.3312 -0.4113
   21CHL1  H16B 1503   5.900   5.688   6.460 -0.8280  0.0987 -2.7909
   21CHL1   C17 1504   5.854   5.469   6.437  0.6439 -0.7891  0.1383
   21CHL1   H17 1505   5.964   5.460   6.452  0.7837 -0.5985 -0.6844
   21CHL1   C13 1506   5.796   5.383   6.548 -0.1153 -0.0297 -0.7359
   21CHL1   C18 1507   5.644   5.378   6.532 -0.5953 -0.4323 -0.0918
   21CHL1  H18A 1508   5.589   5.327   6.613  1.4667 -0.4508  1.3642
   21CHL1  H18B 1509   5.591   5.474   6.512  0.2291  0.0915  0.1671
   21CHL1  H18C 1510   5.602   5.323   6.445 -1.3639 -0.1456  0.0866
   21CHL1   C12 1511   5.863   5.245   6.575 -0.1169 -0.1256  0.0680
   21CHL1  H12A 1512   5.818   5.176   6.500  0.3026 -0.1336 -0.1779
   21CHL1  H12B 1513   5.974   5.247   6.570  0.2143 -2.4172  3.0645
   21CHL1   C11 1514   5.814   5.186   6.710 -0.1096  0.4607  0.4114
   21CHL1  H11A 1515   5.704   5.173   6.701 -0.1498  1.3234 -0.4066
   21CHL1  H11B 1516   5.871   5.096   6.741  0.0764  0.5090  0.2059
   21CHL1    C9 1517   5.839   5.289   6.821  0.4174 -0.2233  0.3554
   21CHL1    H9 1518   5.950   5.291   6.822  0.5397  0.6378 -2.8690
   21CHL1   C10 1519   5.813   5.241   6.962  1.0392  0.4407  0.0140
   21CHL1   C19 1520   5.666   5.201   6.981  0.4118 -0.3198 -0.8847
   21CHL1  H19A 1521   5.600   5.288   7.003 -0.9116 -1.4853 -0.0299
   21CHL1  H19B 1522   5.626   5.148   6.892 -1.2029 -0.2658 -0.2286
   21CHL1  H19C 1523   5.641   5.128   7.061 -0.6373  0.0216 -0.8772
   21CHL1    C1 1524   5.916   5.128   6.998 -0.6553  1.0775  0.4144
   21CHL1   H1A 1525   5.908   5.035   6.937  1.0963  0.5278  0.9730
   21CHL1   H1B 1526   6.022   5.157   6.988 -0.6061  0.8242  0.1825
   21CHL1    C2 1527   5.915   5.079   7.144 -0.7251 -0.0958 -0.0361
   21CHL1   H2A 1528   5.999   5.008   7.154 -0.1686  0.3793 -1.1836
   21CHL1   H2B 1529   5.815   5.034   7.162 -0.2830 -1.1833 -0.2660
   21CHL1   C20 1530   5.816   5.440   6.290 -0.5070 -0.3236 -0.6290
   21CHL1   H20 1531   5.705   5.444   6.281 -0.5552 -0.9403 -0.3656
   21CHL1   C21 1532   5.870   5.300   6.244  0.2224 -0.4453  0.0291
   21CHL1  H21A 1533   5.815   5.228   6.309 -2.4160  1.3800 -0.0293
   21CHL1  H21B 1534   5.980   5.286   6.257  0.7247  1.3948 -1.7741
   21CHL1  H21C 1535   5.845   5.279   6.138  0.3949  2.3132 -0.6196
   21CHL1   C22 1536   5.863   5.542   6.191 -0.1769 -0.4409 -0.4777
   21CHL1  H22A 1537   5.871   5.641   6.241  2.3369 -0.7923 -0.0398
   21CHL1  H22B 1538   5.967   5.514   6.163 -0.0486 -2.6892  1.8829
   21CHL1   C23 1539   5.775   5.559   6.066 -0.1144 -0.2008  0.7497
   21CHL1  H23A 1540   5.780   5.457   6.022  2.6813  0.7239 -1.3442
   21CHL1  H23B 1541   5.672   5.591   6.092  0.2967  1.7179  0.1376
   21CHL1   C24 1542   5.837   5.657   5.966 -0.3201  0.2508  0.0978
   21CHL1  H24A 1543   5.834   5.762   6.002 -3.4552  0.7919 -1.3751
   21CHL1  H24B 1544   5.941   5.623   5.946 -0.6983 -0.2257 -1.1188
   21CHL1   C25 1545   5.760   5.650   5.837  0.2940  0.9677  0.0213
   21CHL1   H25 1546   5.653   5.631   5.862  0.8136 -1.8879  0.4018
   21CHL1   C26 1547   5.752   5.792   5.776  0.4850 -0.7063 -0.0582
   21CHL1  H26A 1548   5.844   5.819   5.721  0.3532  0.7966  0.4165
   21CHL1  H26B 1549   5.660   5.797   5.714  1.1093  2.9822 -0.9127
   21CHL1  H26C 1550   5.744   5.872   5.853 -1.5891 -1.3045  0.4262
   21CHL1   C27 1551   5.813   5.553   5.736  0.0388 -0.3153  0.3373
   21CHL1  H27A 1552   5.911   5.579   5.691  0.3457 -1.1535  0.4916
   21CHL1  H27B 1553   5.828   5.450   5.776  2.9420 -0.0136  0.2241
   21CHL1  H27C 1554   5.743   5.534   5.652 -1.9275  0.7161  1.6615
   22CHL1    C3 1555   0.149   2.234   6.695  0.0113 -0.2963 -0.5062
   22CHL1    H3 1556   0.094   2.146   6.656  0.5498 -1.1786  0.6640
   22CHL1    O3 1557   0.212   2.202   6.819  0.3834  0.3705  0.8220
   22CHL1   H3' 1558   0.148   2.200   6.890  1.0852 -2.1680  1.4923
   22CHL1    C4 1559   0.251   2.281   6.585 -0.1675  0.5705 -0.4198
   22CHL1   H4A 1560   0.328   2.348   6.629 -0.4433  0.1499  0.7219
   22CHL1   H4B 1561   0.310   2.194   6.549  1.3611  1.2909  0.2927
   22CHL1    C5 1562   0.184   2.339   6.461  1.0099 -0.3489 -0.7200
   22CHL1    C6 1563   0.199   2.284   6.337 -0.2856 -0.1678 -0.3306
   22CHL1    H6 1564   0.266   2.197   6.327 -1.8675 -1.5219  0.5133
   22CHL1    C7 1565   0.147   2.346   6.211  0.7957  0.4719 -0.1787
   22CHL1   H7A 1566   0.223   2.353   6.130 -0.3433  1.6606 -1.1964
   22CHL1   H7B 1567   0.065   2.284   6.168 -0.3973  2.6773 -1.2586
   22CHL1    C8 1568   0.102   2.494   6.226 -0.5655 -0.9097  0.4195
   22CHL1    H8 1569   0.189   2.562   6.243  1.1232 -2.2107 -2.2668
   22CHL1   C14 1570   0.021   2.549   6.104  0.5846 -0.0606 -0.2168
   22CHL1   H14 1571  -0.053   2.466   6.098  1.3537 -1.0903  2.8403
   22CHL1   C15 1572   0.089   2.558   5.965  0.3525  0.7366  0.1751
   22CHL1  H15A 1573   0.193   2.598   5.964  1.1627 -1.2043 -1.5713
   22CHL1  H15B 1574   0.102   2.457   5.921  1.5909  0.6785  0.6181
   22CHL1   C16 1575  -0.012   2.638   5.875  0.0204  0.2324 -0.4379
   22CHL1  H16A 1576   0.056   2.716   5.836 -1.0327  1.0874 -0.6032
   22CHL1  H16B 1577  -0.056   2.590   5.785 -3.2256  1.8646  0.1367
   22CHL1   C17 1578  -0.123   2.694   5.979 -0.1890 -0.3270  0.2289
   22CHL1   H17 1579  -0.206   2.620   5.984 -0.5473  0.0793  0.3311
   22CHL1   C13 1580  -0.051   2.680   6.121 -0.5528  0.0488  0.4960
   22CHL1   C18 1581   0.061   2.785   6.146  0.8250  0.2464  0.3453
   22CHL1  H18A 1582   0.119   2.757   6.236  0.9031  0.0817  0.2436
   22CHL1  H18B 1583   0.139   2.798   6.067  0.2418 -1.4839 -0.5590
   22CHL1  H18C 1584   0.015   2.884   6.167 -0.6073 -0.2514 -0.3449
   22CHL1   C12 1585  -0.153   2.668   6.240  0.6182  0.7516  0.0298
   22CHL1  H12A 1586  -0.201   2.767   6.257 -0.8569 -0.0094  0.4843
   22CHL1  H12B 1587  -0.225   2.589   6.209  0.9415  0.7674 -0.7921
   22CHL1   C11 1588  -0.076   2.634   6.370  0.0731  0.5082 -0.0882
   22CHL1  H11A 1589  -0.009   2.720   6.390 -2.7009  3.0061 -0.9396
   22CHL1  H11B 1590  -0.157   2.620   6.445 -0.3817 -2.0211 -0.9446
   22CHL1    C9 1591   0.011   2.505   6.350  0.1865  0.4571 -0.5626
   22CHL1    H9 1592  -0.058   2.421   6.331  2.0212 -0.6877 -2.6617
   22CHL1   C10 1593   0.097   2.465   6.482  0.4059 -0.2321  0.3484
   22CHL1   C19 1594   0.182   2.579   6.525  0.1140  0.5379 -1.0210
   22CHL1  H19A 1595   0.126   2.673   6.543  1.6825  1.2349  0.5723
   22CHL1  H19B 1596   0.217   2.556   6.628 -1.7765 -0.0300 -0.4571
   22CHL1  H19C 1597   0.268   2.608   6.463  1.0931  0.8491  0.4288
   22CHL1    C1 1598  -0.005   2.427   6.597 -0.6498 -0.0133 -0.4011
   22CHL1   H1A 1599  -0.054   2.521   6.631  2.2199  1.1128  1.0168
   22CHL1   H1B 1600  -0.069   2.347   6.555 -0.0891 -0.6372 -0.0735
   22CHL1    C2 1601   0.056   2.350   6.720  0.0503 -0.6915  0.3280
   22CHL1   H2A 1602  -0.023   2.323   6.794  1.9847 -1.7751  2.1115
   22CHL1   H2B 1603   0.115   2.429   6.772 -0.1573 -0.5660  0.3734
   22CHL1   C20 1604  -0.176   2.834   5.938 -0.2562 -0.4858 -0.2808
   22CHL1   H20 1605  -0.086   2.899   5.942  0.8139 -1.9751  1.4616
   22CHL1   C21 1606  -0.277   2.879   6.049 -0.4433 -0.0703  0.0744
   22CHL1  H21A 1607  -0.345   2.796   6.076  0.2999 -0.2940  1.3078
   22CHL1  H21B 1608  -0.334   2.962   6.002  1.2787  0.8872 -0.4451
   22CHL1  H21C 1609  -0.224   2.928   6.134 -0.6381 -2.6981  1.7942
   22CHL1   C22 1610  -0.237   2.833   5.796 -0.2917 -0.9667 -0.6009
   22CHL1  H22A 1611  -0.277   2.935   5.775 -0.9732 -0.9519  0.6833
   22CHL1  H22B 1612  -0.163   2.802   5.719 -0.2402 -1.9649 -0.1635
   22CHL1   C23 1613  -0.354   2.736   5.768  0.0440 -0.4627 -0.8495
   22CHL1  H23A 1614  -0.328   2.633   5.800  0.3454 -0.3857 -0.8375
   22CHL1  H23B 1615  -0.438   2.766   5.834  1.2996  0.8938  0.2112
   22CHL1   C24 1616  -0.384   2.731   5.616 -0.4104 -0.4208  0.0576
   22CHL1  H24A 1617  -0.381   2.837   5.585 -3.4613 -0.0074  0.8020
   22CHL1  H24B 1618  -0.302   2.670   5.572  0.5636 -0.4333  1.8085
   22CHL1   C25 1619  -0.528   2.672   5.588  0.0358  0.4200  0.0218
   22CHL1   H25 1620  -0.609   2.730   5.636 -0.0476  2.3791 -2.3013
   22CHL1   C26 1621  -0.538   2.686   5.443 -0.1939  0.1560  0.8079
   22CHL1  H26A 1622  -0.468   2.620   5.387 -0.7567  0.6977 -0.5803
   22CHL1  H26B 1623  -0.639   2.646   5.422  0.0821 -0.7065  1.0618
   22CHL1  H26C 1624  -0.545   2.791   5.407  0.2572 -0.1766 -0.3154
   22CHL1   C27 1625  -0.515   2.529   5.637 -0.0172  0.6755 -0.3808
   22CHL1  H27A 1626  -0.409   2.499   5.622 -0.3709 -0.8027 -0.1103
   22CHL1  H27B 1627  -0.537   2.516   5.745  1.4263 -0.3708 -0.1867
   22CHL1  H27C 1628  -0.582   2.464   5.576 -0.3961 -0.1438  0.8730
   23CHL1    C3 1629   5.287   6.337   7.079 -0.3867 -0.1927 -1.0345
   23CHL1    H3 1630   5.177   6.334   7.069 -0.4972 -0.3961  0.1611
   23CHL1    O3 1631   5.312   6.311   7.217 -0.5723  0.3541 -0.1268
   23CHL1   H3' 1632   5.408   6.310   7.222 -0.6218  0.9741  3.0909
   23CHL1    C4 1633   5.352   6.228   6.994 -0.8023 -0.2772  0.6029
   23CHL1   H4A 1634   5.459   6.229   7.025 -0.6142 -3.7168  0.4816
   23CHL1   H4B 1635   5.307   6.129   7.019  0.2763 -1.0691 -0.4515
   23CHL1    C5 1636   5.355   6.257   6.842  0.1114 -0.0871 -0.4893
   23CHL1    C6 1637   5.318   6.171   6.748  1.1637  0.9560 -0.6533
   23CHL1    H6 1638   5.287   6.072   6.786  1.4567  1.3684  0.7385
   23CHL1    C7 1639   5.314   6.204   6.593 -0.5486  1.1253 -0.2287
   23CHL1   H7A 1640   5.355   6.112   6.546 -2.2695  1.3284 -2.2629
   23CHL1   H7B 1641   5.211   6.215   6.553 -0.3304 -0.4885 -1.3528
   23CHL1    C8 1642   5.394   6.330   6.554 -0.1245 -0.1579  0.0106
   23CHL1    H8 1643   5.502   6.307   6.565  0.0819 -0.2723 -1.9598
   23CHL1   C14 1644   5.362   6.375   6.414 -0.0645 -0.5764 -0.2352
   23CHL1   H14 1645   5.254   6.399   6.406 -0.1243 -1.0806 -0.9910
   23CHL1   C15 1646   5.378   6.270   6.306 -0.0071 -0.3108 -0.1589
   23CHL1  H15A 1647   5.481   6.229   6.315  0.3633  0.7128  0.4813
   23CHL1  H15B 1648   5.291   6.201   6.303 -0.9816  0.9232 -0.6099
   23CHL1   C16 1649   5.391   6.371   6.187  0.8149  1.0083 -0.1903
   23CHL1  H16A 1650   5.484   6.345   6.131  0.9089  0.1463  0.3347
   23CHL1  H16B 1651   5.311   6.366   6.111  0.9516 -0.1307 -0.2844
   23CHL1   C17 1652   5.392   6.516   6.234 -0.0877 -0.1530 -0.4563
   23CHL1   H17 1653   5.292   6.562   6.246  0.0807 -0.1296  1.1741
   23CHL1   C13 1654   5.441   6.500   6.380 -0.2217 -0.0125 -0.2272
   23CHL1   C18 1655   5.592   6.476   6.379 -0.1373  0.5676 -0.1622
   23CHL1  H18A 1656   5.615   6.387   6.316 -0.6757  0.3244 -0.0225
   23CHL1  H18B 1657   5.642   6.567   6.340 -2.8022  2.2580  0.1785
   23CHL1  H18C 1658   5.634   6.458   6.481  1.8597  0.6654 -0.9320
   23CHL1   C12 1659   5.412   6.614   6.481 -0.8040 -0.0590  0.0665
   23CHL1  H12A 1660   5.473   6.701   6.446  1.3936 -1.2205  0.8333
   23CHL1  H12B 1661   5.304   6.637   6.469 -0.7845  0.3126  0.5905
   23CHL1   C11 1662   5.443   6.573   6.615 -0.0705  0.1550 -0.0184
   23CHL1  H11A 1663   5.553   6.562   6.624 -0.1354  0.1927  0.9749
   23CHL1  H11B 1664   5.402   6.655   6.679  1.4075 -0.0387  1.2379
   23CHL1    C9 1665   5.364   6.445   6.656 -0.7989 -0.3386 -1.5535
   23CHL1    H9 1666   5.256   6.464   6.637 -0.6487  2.0818 -0.3586
   23CHL1   C10 1667   5.387   6.405   6.809 -0.1444 -0.2800 -0.7606
   23CHL1   C19 1668   5.544   6.417   6.829  0.3514 -0.4087  0.4237
   23CHL1  H19A 1669   5.590   6.349   6.904  0.0731 -2.1892 -0.9437
   23CHL1  H19B 1670   5.586   6.393   6.729 -1.1358 -1.1525 -0.0455
   23CHL1  H19C 1671   5.571   6.521   6.855  1.0734 -0.8647  1.5904
   23CHL1    C1 1672   5.329   6.510   6.905 -0.4597  0.4217 -0.3243
   23CHL1   H1A 1673   5.378   6.605   6.875  0.2735 -0.2177 -1.2205
   23CHL1   H1B 1674   5.220   6.520   6.886 -0.1311  0.6154 -2.3658
   23CHL1    C2 1675   5.341   6.479   7.055  0.4814 -0.3188  0.2455
   23CHL1   H2A 1676   5.288   6.562   7.107  1.5913  0.1563  0.6339
   23CHL1   H2B 1677   5.449   6.482   7.082  0.1376  1.2420  1.6311
   23CHL1   C20 1678   5.464   6.602   6.128 -0.4067 -0.3266 -0.5798
   23CHL1   H20 1679   5.562   6.552   6.116  0.4564  0.8179  1.1375
   23CHL1   C21 1680   5.486   6.750   6.183 -0.1261 -1.1459  0.1727
   23CHL1  H21A 1681   5.394   6.799   6.224 -1.3243 -0.3657 -3.0827
   23CHL1  H21B 1682   5.515   6.812   6.095  1.9348 -0.8856  1.0017
   23CHL1  H21C 1683   5.566   6.757   6.259  0.4908 -1.8938 -0.3886
   23CHL1   C22 1684   5.375   6.627   6.000 -0.2543  0.2290 -0.0194
   23CHL1  H22A 1685   5.312   6.538   5.976  0.7008 -0.8445  1.3101
   23CHL1  H22B 1686   5.302   6.706   6.027  2.6652  2.2050  2.9397
   23CHL1   C23 1687   5.437   6.688   5.868  0.0060  0.3090  0.3115
   23CHL1  H23A 1688   5.484   6.785   5.894 -1.9997  1.5066 -0.3572
   23CHL1  H23B 1689   5.516   6.619   5.831 -0.6547 -0.1526 -0.2575
   23CHL1   C24 1690   5.335   6.717   5.755  0.0937 -0.3487 -0.6884
   23CHL1  H24A 1691   5.267   6.631   5.737 -2.0968  1.2774 -0.6015
   23CHL1  H24B 1692   5.262   6.798   5.778 -0.5888 -1.4401  1.1302
   23CHL1   C25 1693   5.412   6.768   5.631 -0.0818  0.1954 -0.4855
   23CHL1   H25 1694   5.485   6.691   5.598  0.9665  0.8957  0.1434
   23CHL1   C26 1695   5.309   6.792   5.524 -0.1708  0.9052  0.4643
   23CHL1  H26A 1696   5.355   6.827   5.429 -0.8774 -3.3348 -1.6641
   23CHL1  H26B 1697   5.274   6.691   5.493 -0.6700  1.4718 -0.8936
   23CHL1  H26C 1698   5.229   6.861   5.558  0.1816  1.3128  0.4666
   23CHL1   C27 1699   5.500   6.893   5.660  0.1700  0.4707  0.7425
   23CHL1  H27A 1700   5.519   6.938   5.561  0.7981 -0.4389  0.4441
   23CHL1  H27B 1701   5.444   6.949   5.738 -0.9563  0.5021 -0.0796
   23CHL1  H27C 1702   5.600   6.882   5.707  0.1075  0.1326  0.7999
   24CHL1    C3 1703   2.214   3.076   6.949 -0.2508 -0.5997 -0.0567
   24CHL1    H3 1704   2.119   3.124   6.917  0.5174 -0.1287 -1.7990
   24CHL1    O3 1705   2.247   3.111   7.079  0.1727 -0.6335 -0.2165
   24CHL1   H3' 1706   2.292   3.195   7.076 -1.2989  0.2579  1.0165
   24CHL1    C4 1707   2.200   2.927   6.918  0.5256  0.1661 -0.7378
   24CHL1   H4A 1708   2.295   2.877   6.946  0.4628  0.5073  0.1303
   24CHL1   H4B 1709   2.115   2.889   6.979 -1.7290  0.9198 -3.1994
   24CHL1    C5 1710   2.162   2.903   6.773 -0.8408 -0.3893  0.7967
   24CHL1    C6 1711   2.050   2.848   6.728 -0.1675 -0.2297 -0.6889
   24CHL1    H6 1712   1.986   2.803   6.806 -0.5403 -0.8139 -1.3266
   24CHL1    C7 1713   2.015   2.824   6.584 -0.3749  0.1209 -0.8460
   24CHL1   H7A 1714   1.966   2.725   6.575 -2.1979  0.8610  0.3902
   24CHL1   H7B 1715   1.937   2.899   6.559  0.2323  1.4273  0.9933
   24CHL1    C8 1716   2.137   2.839   6.482 -0.0164  0.2339  0.0536
   24CHL1    H8 1717   2.197   2.750   6.509 -0.9252 -0.1896  0.7455
   24CHL1   C14 1718   2.101   2.845   6.338  0.0006 -0.8148  0.1194
   24CHL1   H14 1719   2.041   2.938   6.330  0.4993 -0.3078  1.7004
   24CHL1   C15 1720   2.013   2.741   6.288  0.1788  0.5642 -0.1972
   24CHL1  H15A 1721   2.052   2.637   6.297 -0.8711 -0.0087 -1.7655
   24CHL1  H15B 1722   1.917   2.755   6.341  0.4127  0.4754  0.2497
   24CHL1   C16 1723   2.007   2.761   6.139 -0.0020 -0.1004  0.8499
   24CHL1  H16A 1724   2.013   2.668   6.078  0.2164  1.1083 -1.0928
   24CHL1  H16B 1725   1.920   2.821   6.106  0.6535 -0.5685 -2.0439
   24CHL1   C17 1726   2.123   2.865   6.105 -0.0739  0.1225  0.2561
   24CHL1   H17 1727   2.071   2.963   6.101 -1.7345 -0.6858  0.9758
   24CHL1   C13 1728   2.213   2.870   6.233 -0.1801  0.6085 -0.0175
   24CHL1   C18 1729   2.301   2.746   6.239 -0.2369  0.0177  0.5988
   24CHL1  H18A 1730   2.345   2.736   6.341  0.6911  0.7630  0.2921
   24CHL1  H18B 1731   2.255   2.649   6.208  1.7674 -0.0830 -2.4992
   24CHL1  H18C 1732   2.391   2.755   6.175 -0.0088  1.3957  1.0769
   24CHL1   C12 1733   2.281   3.006   6.272  0.3154 -0.4303  0.8820
   24CHL1  H12A 1734   2.373   3.022   6.212  0.5917 -1.0495  1.1348
   24CHL1  H12B 1735   2.203   3.081   6.248  0.6223 -0.3767 -0.0045
   24CHL1   C11 1736   2.329   3.007   6.414  0.0868  0.0707  0.3552
   24CHL1  H11A 1737   2.411   2.932   6.409  0.2816  0.3242 -0.4726
   24CHL1  H11B 1738   2.372   3.106   6.438 -0.4278  0.1090  1.1394
   24CHL1    C9 1739   2.219   2.959   6.520 -0.1046  0.3578 -0.7342
   24CHL1    H9 1740   2.140   3.036   6.513 -1.0750 -0.2302  2.2350
   24CHL1   C10 1741   2.268   2.962   6.669  0.0016  0.4787  0.3035
   24CHL1   C19 1742   2.401   2.871   6.681  0.3593 -0.0176  0.0108
   24CHL1  H19A 1743   2.446   2.875   6.783 -1.1657  0.3823  0.7079
   24CHL1  H19B 1744   2.373   2.766   6.659 -2.3956  0.4706  0.7739
   24CHL1  H19C 1745   2.476   2.909   6.609  0.2278  0.2621  0.0203
   24CHL1    C1 1746   2.307   3.107   6.714  0.6755 -0.1882  0.1734
   24CHL1   H1A 1747   2.398   3.129   6.654 -0.1357 -2.0155 -1.8772
   24CHL1   H1B 1748   2.229   3.178   6.679  0.6455  0.5911  1.7147
   24CHL1    C2 1749   2.326   3.138   6.865  0.5446 -0.3537 -0.0988
   24CHL1   H2A 1750   2.341   3.248   6.869 -0.5423 -0.1354 -1.2453
   24CHL1   H2B 1751   2.416   3.088   6.907  2.5303 -0.0840 -3.5969
   24CHL1   C20 1752   2.188   2.832   5.970  0.1800 -0.5336  0.1263
   24CHL1   H20 1753   2.228   2.728   5.967  4.3625  0.8841  0.6262
   24CHL1   C21 1754   2.311   2.928   5.943  0.6933 -0.0778 -0.2953
   24CHL1  H21A 1755   2.395   2.923   6.015 -0.3715 -0.3071  0.9573
   24CHL1  H21B 1756   2.272   3.032   5.950 -0.9294 -0.5333 -1.7200
   24CHL1  H21C 1757   2.340   2.915   5.836  0.1821  0.6803 -0.5400
   24CHL1   C22 1758   2.079   2.826   5.860  0.5641 -0.0925  0.1174
   24CHL1  H22A 1759   2.012   2.738   5.872 -2.2340  1.9243  0.3547
   24CHL1  H22B 1760   2.006   2.909   5.878  1.8837  0.6828  2.3747
   24CHL1   C23 1761   2.109   2.835   5.709 -0.5095  0.0755 -0.2393
   24CHL1  H23A 1762   2.006   2.836   5.666 -1.2399 -1.9246  1.3084
   24CHL1  H23B 1763   2.157   2.932   5.686 -0.0547 -0.1926 -0.4209
   24CHL1   C24 1764   2.178   2.708   5.654 -1.2469  0.1138 -0.2381
   24CHL1  H24A 1765   2.281   2.699   5.694 -1.2861  0.6707 -0.0031
   24CHL1  H24B 1766   2.143   2.616   5.707 -1.9103  0.5693  0.1335
   24CHL1   C25 1767   2.192   2.699   5.499  0.4751 -0.8770  0.0564
   24CHL1   H25 1768   2.097   2.721   5.445  2.4614  3.7977 -2.1041
   24CHL1   C26 1769   2.289   2.806   5.443 -0.2516 -0.0244  0.4905
   24CHL1  H26A 1770   2.267   2.905   5.488  0.9849  0.5885 -0.1956
   24CHL1  H26B 1771   2.396   2.779   5.457 -0.0980  0.8103  0.9817
   24CHL1  H26C 1772   2.274   2.816   5.333  0.2191 -0.7161  0.3555
   24CHL1   C27 1773   2.250   2.564   5.454 -0.2956  0.3776 -0.0546
   24CHL1  H27A 1774   2.183   2.488   5.497  1.9857 -1.8009 -0.1225
   24CHL1  H27B 1775   2.251   2.555   5.343 -0.3290  3.4352 -0.3951
   24CHL1  H27C 1776   2.351   2.540   5.493 -0.6685  0.6482  1.1034
   25CHL1    C3 1777   5.548   4.673   7.201 -0.1250  0.1788 -0.4890
   25CHL1    H3 1778   5.452   4.729   7.204  0.1286  0.6925 -1.4204
   25CHL1    O3 1779   5.563   4.633   7.332  0.9539  0.0771 -0.4200
   25CHL1   H3' 1780   5.634   4.569   7.338  1.4334  0.6886  1.3314
   25CHL1    C4 1781   5.538   4.555   7.105 -0.0308  0.9027  0.6746
   25CHL1   H4A 1782   5.631   4.496   7.120  0.5889  0.6942 -3.0167
   25CHL1   H4B 1783   5.457   4.490   7.142  0.6348 -1.1542 -1.2546
   25CHL1    C5 1784   5.524   4.604   6.963  0.2957 -0.1619 -0.3965
   25CHL1    C6 1785   5.416   4.566   6.894  0.3615 -0.8484 -0.3311
   25CHL1    H6 1786   5.337   4.505   6.941  1.2298 -1.4587  0.3538
   25CHL1    C7 1787   5.391   4.597   6.751  0.0472 -0.0616  0.3365
   25CHL1   H7A 1788   5.358   4.511   6.689  0.2587 -1.1216  1.6346
   25CHL1   H7B 1789   5.308   4.670   6.738 -0.4771 -0.9843 -1.9022
   25CHL1    C8 1790   5.519   4.655   6.681 -0.2589 -0.0725 -0.5172
   25CHL1    H8 1791   5.588   4.569   6.666  0.2619  0.4052 -0.8889
   25CHL1   C14 1792   5.485   4.712   6.547 -0.3506  0.1859  0.5183
   25CHL1   H14 1793   5.433   4.809   6.561  1.5174  1.2298  0.5324
   25CHL1   C15 1794   5.390   4.641   6.451 -0.7919 -0.3662  0.3795
   25CHL1  H15A 1795   5.384   4.531   6.448  0.9076 -0.4720 -0.7140
   25CHL1  H15B 1796   5.293   4.677   6.492  0.0908  0.7361  1.5693
   25CHL1   C16 1797   5.419   4.701   6.318  0.4002  0.0614 -0.0570
   25CHL1  H16A 1798   5.460   4.615   6.260  1.0740 -1.1503  2.0937
   25CHL1  H16B 1799   5.326   4.735   6.269 -0.9777 -0.1145  2.2946
   25CHL1   C17 1800   5.535   4.808   6.327  0.6925  0.3448  0.0253
   25CHL1   H17 1801   5.495   4.909   6.353  1.4318  0.5349  0.4404
   25CHL1   C13 1802   5.610   4.756   6.462 -0.5766  0.4947  1.2169
   25CHL1   C18 1803   5.694   4.630   6.425 -0.0402 -0.7472  0.0910
   25CHL1  H18A 1804   5.757   4.604   6.513  1.0674  2.1475  0.2364
   25CHL1  H18B 1805   5.631   4.538   6.420 -0.7552 -0.2573  0.0661
   25CHL1  H18C 1806   5.750   4.645   6.331  0.5556  3.0770  0.8842
   25CHL1   C12 1807   5.681   4.858   6.548 -0.2351  0.1705 -0.2658
   25CHL1  H12A 1808   5.768   4.907   6.499  0.8216 -1.1223  0.2487
   25CHL1  H12B 1809   5.610   4.942   6.561 -1.2093 -0.2908 -2.1731
   25CHL1   C11 1810   5.719   4.811   6.690  0.1220  0.7860 -0.0048
   25CHL1  H11A 1811   5.790   4.730   6.664 -0.1018  1.2213 -2.1055
   25CHL1  H11B 1812   5.777   4.888   6.745  1.8552  0.5492 -1.4493
   25CHL1    C9 1813   5.605   4.754   6.773 -0.2643 -0.7010  0.6431
   25CHL1    H9 1814   5.534   4.838   6.791  0.0301 -0.1527 -0.6828
   25CHL1   C10 1815   5.644   4.694   6.912  0.0262  0.2646 -0.7421
   25CHL1   C19 1816   5.783   4.619   6.899 -0.3232 -0.0091 -0.0248
   25CHL1  H19A 1817   5.828   4.617   7.001  0.7522  0.3289 -0.4786
   25CHL1  H19B 1818   5.769   4.514   6.865  1.2969 -1.2926  2.8559
   25CHL1  H19C 1819   5.855   4.680   6.841 -2.5479  2.0294 -0.7838
   25CHL1    C1 1820   5.660   4.805   7.020 -0.2504  0.7274  1.0861
   25CHL1   H1A 1821   5.757   4.856   7.001 -0.0003 -0.6349 -1.7742
   25CHL1   H1B 1822   5.576   4.877   7.005  0.8571  1.6773 -1.0352
   25CHL1    C2 1823   5.665   4.752   7.163  0.0660  0.1445 -0.0449
   25CHL1   H2A 1824   5.670   4.834   7.237 -0.4242 -0.8577  1.1271
   25CHL1   H2B 1825   5.760   4.697   7.178  0.1068  0.2495  0.0858
   25CHL1   C20 1826   5.602   4.817   6.190  0.4189  0.1036 -0.2886
   25CHL1   H20 1827   5.639   4.717   6.160  2.0994 -0.0106  1.8818
   25CHL1   C21 1828   5.725   4.906   6.220 -0.3544  0.4607 -0.0125
   25CHL1  H21A 1829   5.801   4.855   6.284 -0.5812  1.2288  0.8885
   25CHL1  H21B 1830   5.687   5.007   6.247 -0.3576 -0.0742  2.1719
   25CHL1  H21C 1831   5.771   4.923   6.120  1.6133  0.8292  0.8883
   25CHL1   C22 1832   5.517   4.879   6.073 -0.2041  0.0709 -0.8722
   25CHL1  H22A 1833   5.412   4.848   6.088 -0.2001 -1.0888 -2.8851
   25CHL1  H22B 1834   5.527   4.989   6.060  0.4280  0.0181 -0.8560
   25CHL1   C23 1835   5.542   4.806   5.943  0.3582  0.1097  0.2382
   25CHL1  H23A 1836   5.650   4.786   5.931  0.2203 -1.0557  0.7201
   25CHL1  H23B 1837   5.511   4.699   5.943  0.0437  0.1766 -1.3418
   25CHL1   C24 1838   5.479   4.870   5.823  0.0905 -0.3730 -0.3074
   25CHL1  H24A 1839   5.369   4.879   5.840 -0.0351 -0.7527 -0.9048
   25CHL1  H24B 1840   5.497   4.980   5.826 -2.5684  0.1914 -1.9364
   25CHL1   C25 1841   5.511   4.832   5.674 -0.9361  0.5319 -0.5311
   25CHL1   H25 1842   5.619   4.806   5.667 -0.6898  1.6397 -0.9983
   25CHL1   C26 1843   5.431   4.716   5.620  0.3787 -0.3300 -0.1080
   25CHL1  H26A 1844   5.325   4.724   5.652  0.8683 -1.5223  1.9980
   25CHL1  H26B 1845   5.426   4.698   5.510 -1.6032 -2.3441  0.2394
   25CHL1  H26C 1846   5.462   4.617   5.659 -0.8299 -0.4543  0.5913
   25CHL1   C27 1847   5.501   4.950   5.583 -0.5792  0.5600  0.3386
   25CHL1  H27A 1848   5.543   4.933   5.482 -2.3620 -0.8298 -0.2296
   25CHL1  H27B 1849   5.395   4.972   5.556 -0.5097 -0.0872 -0.5338
   25CHL1  H27C 1850   5.544   5.041   5.629  1.0318 -0.1857  0.3725
   26CHL1    C3 1851   3.448   3.468   7.201  0.3842 -0.0143  0.1547
   26CHL1    H3 1852   3.546   3.425   7.168  0.4090  1.0589 -1.2879
   26CHL1    O3 1853   3.443   3.487   7.340  0.0295 -0.3005 -0.0027
   26CHL1   H3' 1854   3.352   3.516   7.350  0.4591  1.2538 -0.4756
   26CHL1    C4 1855   3.430   3.599   7.126 -0.4008 -0.6053 -0.4333
   26CHL1   H4A 1856   3.332   3.642   7.158  0.1645 -0.1633  0.7487
   26CHL1   H4B 1857   3.505   3.668   7.170 -1.1356  0.6608 -1.0972
   26CHL1    C5 1858   3.428   3.584   6.976 -0.3701  0.2023 -0.4354
   26CHL1    C6 1859   3.519   3.657   6.902 -0.2676  0.7015 -0.6986
   26CHL1    H6 1860   3.598   3.712   6.953 -0.2866 -1.6148  2.1178
   26CHL1    C7 1861   3.516   3.640   6.755 -0.7121  0.1088 -0.1437
   26CHL1   H7A 1862   3.523   3.739   6.706 -0.7951 -0.4635 -1.3522
   26CHL1   H7B 1863   3.615   3.595   6.729 -0.0402  2.3993 -1.9063
   26CHL1    C8 1864   3.397   3.575   6.691  0.2165  0.2054 -1.0237
   26CHL1    H8 1865   3.309   3.640   6.707 -2.3963 -2.5451 -2.8878
   26CHL1   C14 1866   3.431   3.534   6.548  1.1044  0.2609  0.6464
   26CHL1   H14 1867   3.510   3.456   6.549  0.5365 -0.3235  1.7494
   26CHL1   C15 1868   3.483   3.646   6.453  0.7821 -0.8074  0.4276
   26CHL1  H15A 1869   3.428   3.736   6.490  0.0180 -1.0225 -0.1730
   26CHL1  H15B 1870   3.592   3.665   6.449  0.4946  0.8889 -0.4937
   26CHL1   C16 1871   3.436   3.604   6.310  0.1634  0.7967 -0.6513
   26CHL1  H16A 1872   3.361   3.670   6.262  1.4787  1.8656 -1.3124
   26CHL1  H16B 1873   3.523   3.607   6.241 -0.1136 -0.4582 -1.0853
   26CHL1   C17 1874   3.371   3.459   6.329 -0.2699  0.4147 -0.1578
   26CHL1   H17 1875   3.460   3.393   6.322 -0.1645  0.4639  0.6604
   26CHL1   C13 1876   3.312   3.465   6.476 -0.8414  0.1223  0.3339
   26CHL1   C18 1877   3.184   3.542   6.471 -0.2579  0.5181 -0.0852
   26CHL1  H18A 1878   3.110   3.475   6.422  1.1228 -0.6058 -0.7003
   26CHL1  H18B 1879   3.150   3.576   6.571  0.1898 -0.8382  0.5474
   26CHL1  H18C 1880   3.194   3.628   6.402  1.5090 -0.7491 -1.5127
   26CHL1   C12 1881   3.282   3.332   6.557 -0.6454  0.9166  0.2426
   26CHL1  H12A 1882   3.192   3.281   6.515 -0.8566  1.6227 -0.1840
   26CHL1  H12B 1883   3.364   3.259   6.543 -0.3919  1.0716  0.8580
   26CHL1   C11 1884   3.256   3.358   6.703  0.2632  0.1708 -0.0709
   26CHL1  H11A 1885   3.155   3.402   6.718 -0.3012 -1.2501  0.5139
   26CHL1  H11B 1886   3.261   3.257   6.749 -2.8323 -0.9179 -1.8207
   26CHL1    C9 1887   3.360   3.449   6.769 -0.2053  0.1136 -0.3951
   26CHL1    H9 1888   3.451   3.386   6.770  0.3229  0.8022 -1.6218
   26CHL1   C10 1889   3.325   3.479   6.919  0.7182  0.4786  0.6796
   26CHL1   C19 1890   3.182   3.550   6.932  0.1746 -0.3066 -0.6894
   26CHL1  H19A 1891   3.170   3.646   6.878 -1.3063 -0.4136 -0.5902
   26CHL1  H19B 1892   3.103   3.481   6.895  0.1968  0.1900 -1.6978
   26CHL1  H19C 1893   3.150   3.553   7.038  2.3053 -1.9782  0.0824
   26CHL1    C1 1894   3.332   3.348   7.006 -0.5194  0.4647 -0.2813
   26CHL1   H1A 1895   3.248   3.275   6.999  2.1298 -2.8904  0.5137
   26CHL1   H1B 1896   3.423   3.290   6.984 -1.5628 -1.4141  0.1445
   26CHL1    C2 1897   3.335   3.379   7.160  0.0843 -0.0721  0.5484
   26CHL1   H2A 1898   3.338   3.280   7.209  0.8052 -0.1653  0.3213
   26CHL1   H2B 1899   3.230   3.402   7.187 -0.2116 -0.9680  0.1932
   26CHL1   C20 1900   3.274   3.421   6.217 -0.1688 -0.1806  0.2657
   26CHL1   H20 1901   3.192   3.495   6.204  0.4021  0.1815 -1.6621
   26CHL1   C21 1902   3.228   3.274   6.232 -0.0254 -0.0373  0.3434
   26CHL1  H21A 1903   3.180   3.245   6.329 -0.3390  0.2045  0.2619
   26CHL1  H21B 1904   3.321   3.216   6.219 -0.8678 -1.2400 -0.4614
   26CHL1  H21C 1905   3.159   3.243   6.151 -2.1959  1.9971  1.2921
   26CHL1   C22 1906   3.343   3.423   6.075  0.4660  0.7750 -0.0553
   26CHL1  H22A 1907   3.372   3.530   6.063  3.3381  0.2840  1.6197
   26CHL1  H22B 1908   3.442   3.374   6.076  0.1564  0.1322  1.0106
   26CHL1   C23 1909   3.252   3.392   5.953  0.2910  0.6392  0.3216
   26CHL1  H23A 1910   3.242   3.284   5.931 -0.4289  0.3742  1.8257
   26CHL1  H23B 1911   3.148   3.427   5.974  0.3885  0.1517  1.6918
   26CHL1   C24 1912   3.290   3.473   5.826  0.3463  0.6396  0.2339
   26CHL1  H24A 1913   3.286   3.579   5.862  1.7829  0.3353  1.3774
   26CHL1  H24B 1914   3.397   3.453   5.804 -0.2150 -1.8015 -0.5715
   26CHL1   C25 1915   3.193   3.472   5.710 -0.4194 -0.1727  0.3295
   26CHL1   H25 1916   3.092   3.496   5.750 -0.7870 -0.0689 -0.6183
   26CHL1   C26 1917   3.223   3.590   5.615  0.0830 -0.3482  0.2319
   26CHL1  H26A 1918   3.324   3.572   5.574  0.3353 -0.9263  1.0844
   26CHL1  H26B 1919   3.153   3.575   5.530  0.4581 -0.3237 -0.0802
   26CHL1  H26C 1920   3.201   3.690   5.658 -1.0086 -0.4811  0.0316
   26CHL1   C27 1921   3.184   3.337   5.646  1.2655  0.2128 -0.0570
   26CHL1  H27A 1922   3.093   3.288   5.687 -0.0025  2.3681 -0.1754
   26CHL1  H27B 1923   3.168   3.338   5.537 -2.3669 -0.6361  0.3578
   26CHL1  H27C 1924   3.274   3.274   5.664  1.1732  0.2061  0.4020
   27CHL1    C3 1925   3.220   2.815   6.921 -0.3540 -0.7662 -0.3444
   27CHL1    H3 1926   3.125   2.792   6.868  0.2186 -2.0647 -0.8297
   27CHL1    O3 1927   3.201   2.808   7.057  0.2154 -0.7342 -0.0933
   27CHL1   H3' 1928   3.287   2.829   7.093  0.9563 -1.6341 -1.2563
   27CHL1    C4 1929   3.322   2.710   6.881  0.3872 -0.1297 -0.2937
   27CHL1   H4A 1930   3.421   2.724   6.928  1.0839 -1.9593 -1.0982
   27CHL1   H4B 1931   3.297   2.615   6.933 -2.1651  1.3082  1.2884
   27CHL1    C5 1932   3.342   2.693   6.735  0.0356 -0.1173 -0.1543
   27CHL1    C6 1933   3.326   2.574   6.671 -0.0244 -0.4100 -0.1748
   27CHL1    H6 1934   3.293   2.494   6.737 -1.1050 -0.7680 -1.1129
   27CHL1    C7 1935   3.360   2.556   6.527  0.2096 -0.2820  0.0025
   27CHL1   H7A 1936   3.387   2.456   6.489 -0.1309  0.2291 -1.6417
   27CHL1   H7B 1937   3.259   2.559   6.482 -0.8422  0.1912  2.2617
   27CHL1    C8 1938   3.443   2.670   6.464 -0.4742 -0.1920 -0.1123
   27CHL1    H8 1939   3.550   2.666   6.494 -0.2216  2.2951 -0.5109
   27CHL1   C14 1940   3.443   2.668   6.316 -0.2949  0.4537  0.1387
   27CHL1   H14 1941   3.337   2.658   6.284 -0.3151  0.0326  0.3179
   27CHL1   C15 1942   3.510   2.543   6.254 -0.2092 -0.2099  1.0117
   27CHL1  H15A 1943   3.589   2.522   6.330 -1.7230 -1.8652  2.2355
   27CHL1  H15B 1944   3.433   2.463   6.252  0.8012 -1.2201  1.1517
   27CHL1   C16 1945   3.556   2.593   6.110  0.1636 -1.0186 -0.8858
   27CHL1  H16A 1946   3.666   2.591   6.102  0.5532  2.0199  1.6725
   27CHL1  H16B 1947   3.511   2.535   6.026  1.1554 -1.4828 -1.1077
   27CHL1   C17 1948   3.506   2.744   6.096 -0.2442  0.5957  0.8829
   27CHL1   H17 1949   3.400   2.734   6.065 -0.2020 -0.2774  1.0060
   27CHL1   C13 1950   3.504   2.784   6.248  0.1885  0.1088  0.6742
   27CHL1   C18 1951   3.650   2.801   6.290 -0.0722 -0.3953  0.1202
   27CHL1  H18A 1952   3.717   2.713   6.277  0.1463 -0.6541  2.5497
   27CHL1  H18B 1953   3.701   2.885   6.237 -1.1747  0.1111 -0.1520
   27CHL1  H18C 1954   3.655   2.833   6.396 -2.3195  0.4537  0.0128
   27CHL1   C12 1955   3.422   2.914   6.283  0.5793 -0.2035 -0.5210
   27CHL1  H12A 1956   3.463   3.011   6.248 -1.3515  1.1441  0.7143
   27CHL1  H12B 1957   3.321   2.894   6.241  0.3764 -0.1625 -0.0565
   27CHL1   C11 1958   3.416   2.932   6.437  0.2326 -0.1003 -0.1753
   27CHL1  H11A 1959   3.513   2.975   6.469  0.3612 -0.6310  0.1626
   27CHL1  H11B 1960   3.334   3.000   6.470 -0.3400 -1.1047  0.5161
   27CHL1    C9 1961   3.381   2.803   6.517 -0.1305 -0.2285 -0.1987
   27CHL1    H9 1962   3.273   2.788   6.496  0.0476  0.8711 -2.1007
   27CHL1   C10 1963   3.381   2.827   6.671 -0.8445 -0.3865  0.3770
   27CHL1   C19 1964   3.524   2.847   6.711 -0.4202 -0.4211 -0.6155
   27CHL1  H19A 1965   3.560   2.946   6.674  1.5402 -0.9896 -0.3339
   27CHL1  H19B 1966   3.533   2.858   6.821 -1.3772 -3.5714 -0.1318
   27CHL1  H19C 1967   3.599   2.775   6.670 -0.0696  0.3785 -1.4308
   27CHL1    C1 1968   3.295   2.948   6.724  0.4778 -0.0005  0.1814
   27CHL1   H1A 1969   3.348   3.042   6.695  0.0451 -0.0805 -0.9080
   27CHL1   H1B 1970   3.193   2.939   6.681 -0.5766 -0.4544  2.5852
   27CHL1    C2 1971   3.272   2.950   6.881 -0.4736 -0.9609  0.2959
   27CHL1   H2A 1972   3.194   3.027   6.894  0.8504  0.0388  3.0876
   27CHL1   H2B 1973   3.364   2.980   6.937  0.1791 -0.9746 -0.7357
   27CHL1   C20 1974   3.588   2.836   5.997  0.5899 -0.1062 -0.2727
   27CHL1   H20 1975   3.684   2.872   6.041 -0.2946  0.6719  1.1208
   27CHL1   C21 1976   3.508   2.970   5.968  0.1606  0.1588  0.8953
   27CHL1  H21A 1977   3.580   3.033   5.912 -0.0931 -0.5597 -0.2604
   27CHL1  H21B 1978   3.487   3.015   6.067 -0.5772  0.7866  0.4616
   27CHL1  H21C 1979   3.412   2.969   5.911  0.4615  0.6259  0.3695
   27CHL1   C22 1980   3.630   2.748   5.870  0.4247 -0.1162 -0.0834
   27CHL1  H22A 1981   3.710   2.675   5.897 -0.2896 -0.9186 -0.1031
   27CHL1  H22B 1982   3.540   2.698   5.829 -0.9441  2.0565  0.1081
   27CHL1   C23 1983   3.677   2.832   5.753 -0.0732  0.1961  0.7615
   27CHL1  H23A 1984   3.591   2.882   5.703  1.3588 -0.5868 -2.7988
   27CHL1  H23B 1985   3.751   2.904   5.794  0.6467 -0.7034  1.0833
   27CHL1   C24 1986   3.742   2.741   5.647  0.0787 -0.4061  0.0095
   27CHL1  H24A 1987   3.819   2.685   5.705  0.6716  0.3193 -0.0725
   27CHL1  H24B 1988   3.661   2.676   5.607 -0.3616 -0.7578  1.4138
   27CHL1   C25 1989   3.805   2.822   5.531  0.3805  0.1941  0.5553
   27CHL1   H25 1990   3.861   2.912   5.565  2.0515 -0.2599 -0.8824
   27CHL1   C26 1991   3.905   2.732   5.454 -0.8793 -0.4067 -0.1747
   27CHL1  H26A 1992   3.985   2.785   5.398 -1.1673 -1.8176 -2.0248
   27CHL1  H26B 1993   3.968   2.674   5.525 -0.5645  0.1316 -0.0117
   27CHL1  H26C 1994   3.860   2.656   5.386  2.5304 -1.0048 -1.9649
   27CHL1   C27 1995   3.686   2.862   5.446 -0.1880 -0.4547  0.1490
   27CHL1  H27A 1996   3.634   2.948   5.492 -1.4688 -0.3864 -1.3937
   27CHL1  H27B 1997   3.721   2.907   5.351  0.6708  0.0350  0.6813
   27CHL1  H27C 1998   3.617   2.779   5.423 -1.6476  1.2798 -2.0835
   28CHL1    C3 1999   0.454   3.861   7.279  0.0517  0.4829  0.0680
   28CHL1    H3 2000   0.487   3.757   7.262 -1.3233  0.3225 -2.0176
   28CHL1    O3 2001   0.418   3.867   7.419  0.1473 -1.2178  0.0176
   28CHL1   H3' 2002   0.422   3.775   7.446  0.2238 -1.0412  0.6112
   28CHL1    C4 2003   0.564   3.966   7.243  0.3571  0.1284  0.2632
   28CHL1   H4A 2004   0.525   4.068   7.266 -0.4933  0.2914 -1.6546
   28CHL1   H4B 2005   0.660   3.945   7.295  0.4798 -1.7622 -0.6288
   28CHL1    C5 2006   0.586   3.973   7.093 -0.4611 -0.1190 -0.3297
   28CHL1    C6 2007   0.712   3.971   7.043 -0.6052  0.4117  0.2994
   28CHL1    H6 2008   0.803   3.960   7.103 -0.2099 -2.0809 -0.6357
   28CHL1    C7 2009   0.742   3.984   6.895  0.1533 -0.8280 -0.2327
   28CHL1   H7A 2010   0.823   4.056   6.872  1.1165 -1.2789  1.5108
   28CHL1   H7B 2011   0.774   3.886   6.852 -2.3585 -2.3609  1.1553
   28CHL1    C8 2012   0.622   4.043   6.813 -1.0113  0.4054 -0.8485
   28CHL1    H8 2013   0.619   4.151   6.840  2.4498  0.6181 -0.8641
   28CHL1   C14 2014   0.643   4.021   6.663 -0.6470 -0.2493 -0.3523
   28CHL1   H14 2015   0.655   3.911   6.648  0.5081  0.0603 -1.9257
   28CHL1   C15 2016   0.771   4.079   6.600  0.2330 -0.3780 -0.7081
   28CHL1  H15A 2017   0.783   4.186   6.624  2.2657 -0.9733  1.2179
   28CHL1  H15B 2018   0.860   4.026   6.640  1.3886  1.7656 -0.2944
   28CHL1   C16 2019   0.749   4.059   6.446 -0.3639 -0.3086  0.6346
   28CHL1  H16A 2020   0.799   4.140   6.389 -1.6256  0.5954  0.7895
   28CHL1  H16B 2021   0.792   3.961   6.415 -0.6449  0.4133 -2.2710
   28CHL1   C17 2022   0.595   4.050   6.428  0.3493  0.4233 -0.3412
   28CHL1   H17 2023   0.564   3.946   6.405 -1.5789  0.4786  1.6455
   28CHL1   C13 2024   0.529   4.074   6.571  0.2702 -0.0338 -0.1214
   28CHL1   C18 2025   0.520   4.224   6.596  0.5982 -0.4376 -0.2072
   28CHL1  H18A 2026   0.612   4.274   6.559  1.7488 -0.3127  2.5327
   28CHL1  H18B 2027   0.435   4.275   6.545  1.3968 -1.3739 -2.5935
   28CHL1  H18C 2028   0.507   4.253   6.703  0.0791 -3.9438  0.7936
   28CHL1   C12 2029   0.393   3.998   6.608 -0.0748  0.2693  0.1224
   28CHL1  H12A 2030   0.315   4.051   6.548 -0.0372  2.1520  1.6514
   28CHL1  H12B 2031   0.404   3.888   6.598 -0.1855  0.3258 -0.6995
   28CHL1   C11 2032   0.365   4.008   6.760 -0.7133 -0.0113  0.2370
   28CHL1  H11A 2033   0.339   4.116   6.767 -0.4430 -0.0220  1.5876
   28CHL1  H11B 2034   0.273   3.954   6.791 -0.5745  0.6293  1.8515
   28CHL1    C9 2035   0.491   3.972   6.857  0.0285 -0.1188 -0.0177
   28CHL1    H9 2036   0.507   3.862   6.848  0.7695 -0.1575  1.4134
   28CHL1   C10 2037   0.458   3.992   7.004 -0.5322  0.0116 -0.5352
   28CHL1   C19 2038   0.415   4.140   7.027 -0.0172 -0.4540  0.6863
   28CHL1  H19A 2039   0.501   4.208   7.007 -1.2048  0.8141 -0.2852
   28CHL1  H19B 2040   0.330   4.170   6.963 -1.9126 -2.1456  2.2698
   28CHL1  H19C 2041   0.368   4.160   7.125 -2.2584 -0.1782 -0.3941
   28CHL1    C1 2042   0.343   3.895   7.048 -0.1885 -0.3411 -0.6514
   28CHL1   H1A 2043   0.253   3.931   6.994 -0.8918 -0.8678  0.1641
   28CHL1   H1B 2044   0.373   3.797   7.006  0.1407  0.1895 -1.7198
   28CHL1    C2 2045   0.323   3.881   7.197 -0.2255 -0.0982 -0.3455
   28CHL1   H2A 2046   0.262   3.790   7.217  2.7301 -2.3761 -0.8442
   28CHL1   H2B 2047   0.259   3.964   7.235  1.8398  0.8485  1.2681
   28CHL1   C20 2048   0.541   4.123   6.308 -0.7651 -0.3903  0.0816
   28CHL1   H20 2049   0.575   4.228   6.318  2.5480 -1.2994 -0.3635
   28CHL1   C21 2050   0.390   4.118   6.296 -0.0026  0.6113  0.1760
   28CHL1  H21A 2051   0.367   4.159   6.195  1.3122  0.6226 -0.1363
   28CHL1  H21B 2052   0.338   4.182   6.371 -2.4571  0.4117 -1.2291
   28CHL1  H21C 2053   0.361   4.012   6.310 -0.4760  0.6887 -0.1687
   28CHL1   C22 2054   0.614   4.071   6.182  0.0378 -0.3744  0.0069
   28CHL1  H22A 2055   0.724   4.084   6.188  0.1205  0.0878 -1.9013
   28CHL1  H22B 2056   0.597   3.963   6.164  0.7763 -0.4616 -0.1891
   28CHL1   C23 2057   0.562   4.126   6.048  0.9393  0.2098  0.3447
   28CHL1  H23A 2058   0.476   4.064   6.015 -1.6295  2.6671  2.0046
   28CHL1  H23B 2059   0.535   4.233   6.046  0.2867  0.0521  0.7092
   28CHL1   C24 2060   0.669   4.106   5.933  0.1431  0.5447 -0.3576
   28CHL1  H24A 2061   0.766   4.144   5.970 -0.9011  5.2874 -1.8026
   28CHL1  H24B 2062   0.681   3.999   5.906  2.4759  0.6536  0.0315
   28CHL1   C25 2063   0.635   4.186   5.805 -0.0787  0.0473  0.5606
   28CHL1   H25 2064   0.629   4.294   5.829  2.0731  0.8661 -2.1016
   28CHL1   C26 2065   0.743   4.182   5.696 -0.6962 -0.5955 -0.3261
   28CHL1  H26A 2066   0.720   4.249   5.610  3.2195  2.2613  0.5796
   28CHL1  H26B 2067   0.836   4.226   5.735 -0.8485 -0.4100 -0.1701
   28CHL1  H26C 2068   0.764   4.078   5.662 -1.1117 -0.3691 -1.3277
   28CHL1   C27 2069   0.498   4.138   5.739  0.4272  0.5913 -0.2007
   28CHL1  H27A 2070   0.502   4.028   5.727  0.9508  0.5298  0.4598
   28CHL1  H27B 2071   0.410   4.155   5.804 -0.2177 -0.7102 -0.7153
   28CHL1  H27C 2072   0.471   4.185   5.642 -0.5178 -0.3710 -0.4133
   29CHL1    C3 2073   1.622   6.052   3.561 -0.3805  0.2961 -0.8585
   29CHL1    H3 2074   1.522   6.076   3.602  0.1362  1.3260 -0.1512
   29CHL1    O3 2075   1.606   6.038   3.422 -0.1719  0.1399 -0.2409
   29CHL1   H3' 2076   1.688   5.999   3.392  0.5722  0.6653  1.0288
   29CHL1    C4 2077   1.718   6.156   3.597 -0.1395  0.2413  0.1189
   29CHL1   H4A 2078   1.817   6.126   3.557  0.3865 -0.0634  1.5711
   29CHL1   H4B 2079   1.689   6.251   3.548 -1.3081  0.1409  0.5813
   29CHL1    C5 2080   1.728   6.165   3.745  0.4143  0.8673 -0.1060
   29CHL1    C6 2081   1.699   6.278   3.814 -0.3769  0.0177  0.2489
   29CHL1    H6 2082   1.658   6.358   3.752 -1.8334 -1.5179 -0.8447
   29CHL1    C7 2083   1.705   6.294   3.965  0.2552 -0.1544 -0.7993
   29CHL1   H7A 2084   1.732   6.392   4.009 -1.4518 -0.4215  1.0142
   29CHL1   H7B 2085   1.604   6.286   4.010  0.2374  3.7622  0.1573
   29CHL1    C8 2086   1.788   6.180   4.028  0.2923  0.6997 -0.2210
   29CHL1    H8 2087   1.898   6.176   4.010  0.4585 -0.7807  0.8855
   29CHL1   C14 2088   1.761   6.174   4.184 -0.4439  0.0726  0.3965
   29CHL1   H14 2089   1.650   6.163   4.191 -0.6208  2.0386  1.7664
   29CHL1   C15 2090   1.783   6.312   4.253 -0.2649  1.0260  0.6667
   29CHL1  H15A 2091   1.870   6.373   4.222  0.5954 -0.5758 -0.2134
   29CHL1  H15B 2092   1.688   6.369   4.252 -1.2781 -0.5948 -0.7058
   29CHL1   C16 2093   1.801   6.272   4.400  0.6760  1.0348 -0.3868
   29CHL1  H16A 2094   1.906   6.285   4.432  1.4208 -2.3940 -1.0373
   29CHL1  H16B 2095   1.733   6.329   4.466  0.6686  2.0579 -1.2539
   29CHL1   C17 2096   1.763   6.118   4.416 -0.3184  0.0935 -0.1186
   29CHL1   H17 2097   1.653   6.107   4.412 -0.4131  1.0735 -0.7816
   29CHL1   C13 2098   1.816   6.061   4.273 -0.2518 -0.4389  0.0783
   29CHL1   C18 2099   1.969   6.071   4.270 -0.0040 -0.3390  0.0368
   29CHL1  H18A 2100   2.005   6.058   4.166  0.1099  0.8874 -0.0949
   29CHL1  H18B 2101   2.003   6.173   4.299  0.3820 -0.8363  1.4159
   29CHL1  H18C 2102   2.021   6.000   4.338 -0.0543  0.9156  1.4501
   29CHL1   C12 2103   1.752   5.936   4.218  0.6749 -0.0452  0.6738
   29CHL1  H12A 2104   1.800   5.846   4.262 -1.0530 -0.4565  1.8510
   29CHL1  H12B 2105   1.642   5.932   4.236  0.5002 -1.2771 -0.4587
   29CHL1   C11 2106   1.776   5.918   4.065 -0.6014  0.2073  0.0331
   29CHL1  H11A 2107   1.875   5.880   4.030 -1.0370 -0.6514 -0.2909
   29CHL1  H11B 2108   1.712   5.834   4.031  0.4763 -0.9094  0.6600
   29CHL1    C9 2109   1.732   6.047   3.980  0.1447  0.3105  0.0074
   29CHL1    H9 2110   1.622   6.064   3.984  0.2825  1.1236  0.5492
   29CHL1   C10 2111   1.771   6.035   3.822  0.1252 -0.5026 -0.3404
   29CHL1   C19 2112   1.917   6.020   3.796 -0.9481 -0.4091 -0.2120
   29CHL1  H19A 2113   1.959   5.946   3.868  0.1973  1.5447  1.2229
   29CHL1  H19B 2114   1.944   5.976   3.698  1.3391 -0.5619  0.4376
   29CHL1  H19C 2115   1.971   6.116   3.811  0.6190 -1.2450 -0.2722
   29CHL1    C1 2116   1.697   5.916   3.761  0.5035 -0.3440 -0.0904
   29CHL1   H1A 2117   1.749   5.820   3.785  3.2535  0.9681 -0.3728
   29CHL1   H1B 2118   1.593   5.905   3.799  0.4806 -0.8488 -0.2912
   29CHL1    C2 2119   1.673   5.917   3.615  0.4713 -0.0237  0.3803
   29CHL1   H2A 2120   1.605   5.833   3.589 -0.5196  0.7648  0.3642
   29CHL1   H2B 2121   1.766   5.889   3.560  0.0898 -0.2698 -0.1407
   29CHL1   C20 2122   1.822   6.073   4.540 -0.7576 -0.1781  0.4660
   29CHL1   H20 2123   1.932   6.089   4.538 -0.7243 -0.4591  0.0002
   29CHL1   C21 2124   1.803   5.924   4.557 -0.0846 -0.3285 -0.3991
   29CHL1  H21A 2125   1.854   5.890   4.650  2.3806 -0.6041 -1.7567
   29CHL1  H21B 2126   1.840   5.863   4.471 -1.3877 -1.0051 -0.5112
   29CHL1  H21C 2127   1.693   5.911   4.564  0.1251 -1.7329  0.8112
   29CHL1   C22 2128   1.773   6.146   4.674 -0.0638 -0.3328  0.0745
   29CHL1  H22A 2129   1.834   6.127   4.765  0.4773 -0.8638 -0.3962
   29CHL1  H22B 2130   1.786   6.256   4.660 -2.8686  0.1193  0.3880
   29CHL1   C23 2131   1.621   6.132   4.698  0.0875 -0.1933  0.5588
   29CHL1  H23A 2132   1.569   6.174   4.609  0.7688  0.7900  0.6033
   29CHL1  H23B 2133   1.589   6.026   4.698 -0.7791  0.0636  0.9246
   29CHL1   C24 2134   1.568   6.194   4.828 -0.3965 -0.2358 -0.3837
   29CHL1  H24A 2135   1.621   6.145   4.912  0.3672 -0.8698 -1.2091
   29CHL1  H24B 2136   1.601   6.300   4.829  0.8045 -0.5932 -0.7981
   29CHL1   C25 2137   1.415   6.195   4.861 -0.1804 -0.3474  0.8470
   29CHL1   H25 2138   1.368   6.252   4.779  1.5566  1.4634  1.0411
   29CHL1   C26 2139   1.359   6.050   4.880 -0.1100 -0.4434  0.4078
   29CHL1  H26A 2140   1.252   6.041   4.908 -0.7869 -2.5200 -2.4014
   29CHL1  H26B 2141   1.386   5.989   4.791  2.2104 -1.5116  1.7485
   29CHL1  H26C 2142   1.406   6.013   4.973 -2.0910 -0.0845  1.5833
   29CHL1   C27 2143   1.389   6.279   4.980  0.7311 -0.6140 -0.1001
   29CHL1  H27A 2144   1.445   6.374   4.964  0.6150 -0.5498 -0.1348
   29CHL1  H27B 2145   1.286   6.317   5.000  1.0486  0.5998 -0.6397
   29CHL1  H27C 2146   1.423   6.250   5.081 -2.4035  2.0506  1.9236
   30CHL1    C3 2147   3.549   3.744   3.790 -0.3605 -0.2688 -0.2165
   30CHL1    H3 2148   3.637   3.792   3.839  0.5865 -2.0439 -0.1018
   30CHL1    O3 2149   3.584   3.716   3.661  0.2096  0.6960 -0.0993
   30CHL1   H3' 2150   3.498   3.701   3.622 -0.0204 -1.8054  1.1741
   30CHL1    C4 2151   3.514   3.608   3.858  0.1643 -0.2914 -0.1892
   30CHL1   H4A 2152   3.437   3.556   3.797  0.8606 -0.8036 -0.6330
   30CHL1   H4B 2153   3.605   3.546   3.855  1.1855  1.0038  1.6865
   30CHL1    C5 2154   3.463   3.641   4.000  0.4302  0.6945 -1.1014
   30CHL1    C6 2155   3.519   3.576   4.103  0.0585  0.2300  0.0660
   30CHL1    H6 2156   3.598   3.501   4.090 -0.6807 -0.4764 -0.4799
   30CHL1    C7 2157   3.488   3.599   4.248 -0.2582  0.2524  0.0046
   30CHL1   H7A 2158   3.493   3.502   4.303 -0.0829  1.0633  1.4536
   30CHL1   H7B 2159   3.568   3.668   4.282  0.3795  1.0152 -2.7649
   30CHL1    C8 2160   3.360   3.683   4.272 -0.3060  0.3910  0.4781
   30CHL1    H8 2161   3.274   3.612   4.262 -0.4505  0.4813  1.0200
   30CHL1   C14 2162   3.366   3.749   4.410  0.0751  0.2547  0.4100
   30CHL1   H14 2163   3.448   3.823   4.395  2.6317 -3.0022 -4.2516
   30CHL1   C15 2164   3.393   3.649   4.529 -0.1529  0.0119 -1.0674
   30CHL1  H15A 2165   3.342   3.554   4.506  0.8984 -0.8398 -0.0226
   30CHL1  H15B 2166   3.504   3.645   4.538 -0.3447 -0.4814  2.9736
   30CHL1   C16 2167   3.321   3.723   4.650 -0.2939  0.4886 -0.9933
   30CHL1  H16A 2168   3.275   3.645   4.715  1.9985 -0.0806  0.0605
   30CHL1  H16B 2169   3.399   3.758   4.721  2.0072 -3.9138 -0.9820
   30CHL1   C17 2170   3.234   3.842   4.596  0.1654 -0.5521  0.4240
   30CHL1   H17 2171   3.302   3.928   4.613  0.1348 -0.5198  0.3843
   30CHL1   C13 2172   3.228   3.813   4.440  0.2997  0.9779  0.2561
   30CHL1   C18 2173   3.114   3.709   4.420  0.2400  0.0698  0.1097
   30CHL1  H18A 2174   3.140   3.619   4.480  2.2651  0.6641  0.1939
   30CHL1  H18B 2175   3.013   3.745   4.450 -0.0132  0.4941 -1.2029
   30CHL1  H18C 2176   3.093   3.674   4.317 -2.7394 -1.2182  1.0464
   30CHL1   C12 2177   3.220   3.932   4.345 -0.0363 -0.1349 -0.0023
   30CHL1  H12A 2178   3.135   4.004   4.350  0.8335  1.0207 -0.9816
   30CHL1  H12B 2179   3.307   3.997   4.368 -2.0370  2.1023  1.7907
   30CHL1   C11 2180   3.227   3.886   4.204 -0.0553 -0.3597  0.2910
   30CHL1  H11A 2181   3.135   3.839   4.165  1.1320 -2.1734 -0.4571
   30CHL1  H11B 2182   3.243   3.975   4.139 -0.8850  0.2899  0.9467
   30CHL1    C9 2183   3.352   3.795   4.170  0.6918  0.3362 -0.0809
   30CHL1    H9 2184   3.444   3.857   4.186  0.3282  0.5760  1.1452
   30CHL1   C10 2185   3.357   3.753   4.020 -0.0885  0.7967  0.0837
   30CHL1   C19 2186   3.215   3.685   3.981  0.0929 -0.5193  1.0209
   30CHL1  H19A 2187   3.216   3.608   3.902  1.5873  0.1351  0.3704
   30CHL1  H19B 2188   3.159   3.632   4.061 -0.8214  0.5552  1.1271
   30CHL1  H19C 2189   3.142   3.763   3.951  1.3824  0.1991 -0.3871
   30CHL1    C1 2190   3.381   3.869   3.930  0.5494 -0.2863  0.2175
   30CHL1   H1A 2191   3.283   3.920   3.941  0.9208  0.3285  0.6665
   30CHL1   H1B 2192   3.455   3.937   3.976  0.2040 -0.4162  0.9905
   30CHL1    C2 2193   3.424   3.839   3.786  0.3308 -0.6254  0.5566
   30CHL1   H2A 2194   3.436   3.936   3.734 -0.9992 -0.1213  1.1456
   30CHL1   H2B 2195   3.339   3.777   3.750  0.6444  0.0475 -1.4502
   30CHL1   C20 2196   3.106   3.869   4.686  0.1189 -0.6778  1.1389
   30CHL1   H20 2197   3.039   3.780   4.683 -0.6180 -0.1630  2.0570
   30CHL1   C21 2198   3.029   3.978   4.624  0.2886 -0.2997  0.1981
   30CHL1  H21A 2199   3.090   4.065   4.592 -2.3402  2.4610  2.1554
   30CHL1  H21B 2200   2.954   4.024   4.691  0.3436  0.7205 -0.4221
   30CHL1  H21C 2201   2.976   3.944   4.533 -0.3413  0.3190  0.3241
   30CHL1   C22 2202   3.154   3.907   4.830  0.0512  0.2254 -0.0289
   30CHL1  H22A 2203   3.244   3.848   4.858 -0.8079 -1.0240  0.1758
   30CHL1  H22B 2204   3.180   4.013   4.811 -2.4303  0.7781 -0.7881
   30CHL1   C23 2205   3.048   3.906   4.941  0.7551 -0.3510 -0.1480
   30CHL1  H23A 2206   2.957   3.964   4.915  1.0771  1.2750  2.0351
   30CHL1  H23B 2207   3.020   3.801   4.963  0.0465  0.3047  2.3560
   30CHL1   C24 2208   3.092   3.974   5.076 -0.4836 -0.1305 -0.2881
   30CHL1  H24A 2209   3.173   3.913   5.121 -1.6502 -1.6978 -0.2025
   30CHL1  H24B 2210   3.128   4.077   5.058  1.0687 -0.8308 -1.4846
   30CHL1   C25 2211   2.982   3.993   5.187  0.0330  0.3177 -0.3321
   30CHL1   H25 2212   2.920   3.902   5.196 -0.7678  0.9754  1.3848
   30CHL1   C26 2213   3.048   4.005   5.331 -0.0622 -0.6452  0.8549
   30CHL1  H26A 2214   3.111   4.094   5.348 -2.0813  0.8404  0.9967
   30CHL1  H26B 2215   2.968   4.018   5.407 -1.2142 -2.3413  0.0184
   30CHL1  H26C 2216   3.111   3.915   5.345  1.1912 -0.3673 -2.1824
   30CHL1   C27 2217   2.883   4.108   5.158 -0.8664 -0.4233  0.0148
   30CHL1  H27A 2218   2.944   4.199   5.144 -0.0602 -1.0196 -0.4575
   30CHL1  H27B 2219   2.827   4.082   5.065 -0.7015  0.6103 -0.3787
   30CHL1  H27C 2220   2.816   4.124   5.245  1.7101 -1.2494  2.2695
   31CHL1    C3 2221   3.789   2.943   3.756 -0.7602 -0.4474  0.5074
   31CHL1    H3 2222   3.794   3.052   3.778  1.8088 -0.3085 -0.4140
   31CHL1    O3 2223   3.786   2.919   3.625 -0.5613  0.1420  0.2304
   31CHL1   H3' 2224   3.698   2.937   3.589 -0.3984 -0.2530 -0.3798
   31CHL1    C4 2225   3.928   2.905   3.816  0.1144  0.4603 -0.7073
   31CHL1   H4A 2226   3.942   2.799   3.786  1.3904  0.7520 -1.1636
   31CHL1   H4B 2227   4.010   2.969   3.778  0.0232  0.6564 -0.5742
   31CHL1    C5 2228   3.927   2.907   3.965 -0.1509 -0.0853 -0.0273
   31CHL1    C6 2229   4.031   2.957   4.036 -0.0755 -0.5439 -0.3977
   31CHL1    H6 2230   4.115   3.001   3.980  0.1674 -2.4490 -1.6008
   31CHL1    C7 2231   4.048   2.955   4.192  0.4762 -0.3943  0.4518
   31CHL1   H7A 2232   4.151   2.949   4.233  0.5340 -3.9669  0.1156
   31CHL1   H7B 2233   4.004   3.050   4.227  0.9153 -0.2689  0.6696
   31CHL1    C8 2234   3.949   2.850   4.256 -0.3851  0.5356 -0.4763
   31CHL1    H8 2235   3.992   2.749   4.239  0.5233  0.6975  0.6715
   31CHL1   C14 2236   3.924   2.876   4.400 -0.4092 -0.7241 -0.2918
   31CHL1   H14 2237   3.872   2.974   4.408  1.5671  0.2746  1.0573
   31CHL1   C15 2238   4.041   2.902   4.491  0.4385  0.1137 -0.5780
   31CHL1  H15A 2239   4.122   2.830   4.466  2.6672  2.5933 -0.9758
   31CHL1  H15B 2240   4.079   3.006   4.485 -1.7990  0.9284 -1.8006
   31CHL1   C16 2241   3.975   2.880   4.631  0.5214  0.0905  0.2082
   31CHL1  H16A 2242   4.035   2.804   4.686 -2.6335 -0.6970  2.8275
   31CHL1  H16B 2243   3.978   2.971   4.695  1.5339 -0.6884  1.3095
   31CHL1   C17 2244   3.827   2.848   4.613 -0.1000  0.5410 -0.7216
   31CHL1   H17 2245   3.764   2.939   4.602 -0.4954  0.3136 -0.3968
   31CHL1   C13 2246   3.822   2.787   4.476  0.6115  1.2346 -0.6898
   31CHL1   C18 2247   3.879   2.640   4.480 -0.3203 -0.0118  0.4313
   31CHL1  H18A 2248   3.894   2.609   4.374  2.8883  1.8216  0.2026
   31CHL1  H18B 2249   3.979   2.637   4.528  0.1939 -0.0070 -0.6034
   31CHL1  H18C 2250   3.810   2.575   4.537 -1.1380 -0.5825 -1.1267
   31CHL1   C12 2251   3.680   2.794   4.408 -0.2628  0.0392 -0.6181
   31CHL1  H12A 2252   3.615   2.716   4.453 -0.6716  0.7757  0.1019
   31CHL1  H12B 2253   3.641   2.897   4.421  1.1938  0.4409  0.9998
   31CHL1   C11 2254   3.696   2.772   4.261 -0.8122  0.1067 -0.0413
   31CHL1  H11A 2255   3.700   2.661   4.254 -1.3626  0.0015  1.0349
   31CHL1  H11B 2256   3.596   2.802   4.225  0.1698  2.0000 -1.3733
   31CHL1    C9 2257   3.807   2.855   4.192 -0.0182  0.2424 -0.8716
   31CHL1    H9 2258   3.764   2.957   4.208 -1.4419 -0.6613  1.6934
   31CHL1   C10 2259   3.810   2.833   4.033  0.0452 -0.3399 -0.2256
   31CHL1   C19 2260   3.811   2.680   4.019  0.1915  0.1856  0.6234
   31CHL1  H19A 2261   3.834   2.644   3.917 -1.6158 -0.6113  0.4631
   31CHL1  H19B 2262   3.889   2.638   4.087 -0.1314 -0.1767  0.7728
   31CHL1  H19C 2263   3.713   2.640   4.052 -0.7059  1.7042 -0.1356
   31CHL1    C1 2264   3.670   2.871   3.973 -0.2042 -0.4904  0.5068
   31CHL1   H1A 2265   3.584   2.808   4.004  0.8847 -1.4603  1.6278
   31CHL1   H1B 2266   3.652   2.978   3.999 -0.7096 -0.5756  0.5244
   31CHL1    C2 2267   3.671   2.872   3.817 -0.3312  0.4677 -0.4673
   31CHL1   H2A 2268   3.581   2.931   3.788 -2.0034 -0.9571  1.5225
   31CHL1   H2B 2269   3.657   2.770   3.775  0.5617  0.6973 -1.3714
   31CHL1   C20 2270   3.767   2.765   4.732  0.6579  0.3239  0.1403
   31CHL1   H20 2271   3.676   2.714   4.695  1.1840 -1.1520  0.8128
   31CHL1   C21 2272   3.717   2.870   4.844 -0.9900 -0.0739  0.1680
   31CHL1  H21A 2273   3.642   2.937   4.797 -2.1363 -0.5866  1.2063
   31CHL1  H21B 2274   3.802   2.931   4.881 -0.4384  1.6690 -3.5264
   31CHL1  H21C 2275   3.665   2.813   4.925  0.6696 -3.5809 -1.0371
   31CHL1   C22 2276   3.858   2.663   4.798 -0.2301  0.2951 -1.0279
   31CHL1  H22A 2277   3.923   2.603   4.730 -0.5632 -0.5922 -0.5815
   31CHL1  H22B 2278   3.932   2.713   4.864 -0.3438  0.3003 -0.9046
   31CHL1   C23 2279   3.786   2.551   4.880  0.0087 -0.1193 -0.8241
   31CHL1  H23A 2280   3.728   2.605   4.958  1.2190 -1.7278  1.3005
   31CHL1  H23B 2281   3.706   2.505   4.819 -0.6374  0.4585 -0.4235
   31CHL1   C24 2282   3.876   2.446   4.949 -0.3877 -0.1564  0.3712
   31CHL1  H24A 2283   3.806   2.370   4.988  0.8061 -0.3590  2.2533
   31CHL1  H24B 2284   3.933   2.393   4.869 -1.7099 -1.3981  0.2156
   31CHL1   C25 2285   4.002   2.493   5.025 -0.0993  0.6059 -0.7490
   31CHL1   H25 2286   4.044   2.567   4.954 -0.4691  0.9165 -0.6462
   31CHL1   C26 2287   3.974   2.554   5.166  0.1658 -0.2697  0.0129
   31CHL1  H26A 2288   3.907   2.643   5.162  0.5113 -0.0056  0.1031
   31CHL1  H26B 2289   3.933   2.484   5.242 -1.4256  0.8420  0.2434
   31CHL1  H26C 2290   4.068   2.599   5.203 -1.2227  0.5425  2.8651
   31CHL1   C27 2291   4.114   2.390   5.043 -0.5362 -0.0944  0.7035
   31CHL1  H27A 2292   4.162   2.367   4.945  3.1070 -0.0912  2.3415
   31CHL1  H27B 2293   4.193   2.420   5.115 -1.8118 -0.6212  2.3843
   31CHL1  H27C 2294   4.070   2.295   5.079  0.0231 -1.0876 -1.1067
   32CHL1    C3 2295   2.955   0.828   3.466 -0.0290  0.0338  0.6784
   32CHL1    H3 2296   3.047   0.875   3.506 -0.0614  1.2470 -0.5872
   32CHL1    O3 2297   2.950   0.834   3.322  0.4146  0.9488  0.2935
   32CHL1   H3' 2298   2.867   0.807   3.282  0.8074  2.7093 -1.9598
   32CHL1    C4 2299   2.943   0.678   3.499  0.3853 -0.2132  1.0724
   32CHL1   H4A 2300   2.848   0.639   3.456  0.5802  0.0358  0.3957
   32CHL1   H4B 2301   3.020   0.631   3.433  0.2797  5.2002 -3.7041
   32CHL1    C5 2302   2.959   0.656   3.650 -0.3238  0.3683 -0.2616
   32CHL1    C6 2303   3.067   0.589   3.702 -0.0291  0.2562 -0.1917
   32CHL1    H6 2304   3.137   0.535   3.636  0.7451  0.3778  0.5051
   32CHL1    C7 2305   3.085   0.568   3.845  0.1080 -0.7512  0.4782
   32CHL1   H7A 2306   3.101   0.459   3.858  1.4288 -0.3919  2.1903
   32CHL1   H7B 2307   3.178   0.617   3.879 -0.6862  0.7708  0.5635
   32CHL1    C8 2308   2.973   0.625   3.928  0.2813  0.4914  0.2962
   32CHL1    H8 2309   2.891   0.550   3.934 -0.5281  1.1937 -1.3461
   32CHL1   C14 2310   3.029   0.647   4.076 -0.1856  0.2507  0.2003
   32CHL1   H14 2311   3.103   0.729   4.066 -0.3520  0.4560  0.6266
   32CHL1   C15 2312   3.093   0.527   4.143  0.5096  0.3474  0.5292
   32CHL1  H15A 2313   3.028   0.437   4.146  1.7785 -0.6170  3.7046
   32CHL1  H15B 2314   3.185   0.499   4.087  0.8781  0.8376  0.8847
   32CHL1   C16 2315   3.113   0.574   4.288  0.2417 -0.2193  0.4029
   32CHL1  H16A 2316   3.086   0.496   4.362  3.7687 -0.1935  1.9454
   32CHL1  H16B 2317   3.218   0.600   4.318 -0.1040  0.7994  0.7808
   32CHL1   C17 2318   3.018   0.695   4.300 -0.8717  0.1537 -0.1688
   32CHL1   H17 2319   3.086   0.781   4.281 -1.4811  0.4510 -1.0433
   32CHL1   C13 2320   2.929   0.702   4.176 -0.7276 -0.0060 -1.1071
   32CHL1   C18 2321   2.818   0.604   4.200 -0.1353 -0.4340  0.7486
   32CHL1  H18A 2322   2.852   0.509   4.247  0.8665  0.0439  1.0088
   32CHL1  H18B 2323   2.743   0.653   4.266 -1.3781  0.0538 -0.9513
   32CHL1  H18C 2324   2.764   0.586   4.105  0.8439  0.4770  0.0093
   32CHL1   C12 2325   2.873   0.837   4.127  0.3939 -0.1007 -0.0352
   32CHL1  H12A 2326   2.792   0.863   4.198 -1.1164 -0.2215 -1.6497
   32CHL1  H12B 2327   2.957   0.910   4.135  1.8410 -1.3553 -2.5029
   32CHL1   C11 2328   2.817   0.827   3.975 -0.4223 -0.1898 -1.3554
   32CHL1  H11A 2329   2.726   0.768   3.997  0.3364  0.0140  3.2132
   32CHL1  H11B 2330   2.788   0.927   3.936  1.4349  1.4341  1.1169
   32CHL1    C9 2331   2.914   0.755   3.877  0.3205  0.0936 -0.9484
   32CHL1    H9 2332   2.997   0.828   3.868 -1.2863  2.0613 -0.7725
   32CHL1   C10 2333   2.857   0.730   3.741  0.5602  0.8860 -0.2705
   32CHL1   C19 2334   2.723   0.652   3.749 -0.1144 -0.4102  0.3653
   32CHL1  H19A 2335   2.679   0.647   3.647 -1.3797  2.6166  0.6585
   32CHL1  H19B 2336   2.747   0.555   3.796 -2.2357 -0.8342  0.6726
   32CHL1  H19C 2337   2.643   0.700   3.810  2.2692  4.3051  0.2017
   32CHL1    C1 2338   2.829   0.872   3.686 -0.0279 -0.3007  0.6259
   32CHL1   H1A 2339   2.728   0.909   3.710  0.1679  0.1310  0.7989
   32CHL1   H1B 2340   2.910   0.935   3.728  0.0036 -0.8333  1.3935
   32CHL1    C2 2341   2.825   0.883   3.531 -0.7090 -0.5182  0.4404
   32CHL1   H2A 2342   2.829   0.992   3.512  0.6600 -0.5172  0.6802
   32CHL1   H2B 2343   2.737   0.824   3.495 -0.2659  0.0154 -1.6334
   32CHL1   C20 2344   2.955   0.720   4.435  0.1497 -0.0249  0.5434
   32CHL1   H20 2345   2.864   0.783   4.424 -1.2352 -1.5328  2.7163
   32CHL1   C21 2346   3.053   0.804   4.520  1.2274 -0.2603  0.4819
   32CHL1  H21A 2347   3.149   0.758   4.549  2.4638  0.7658 -1.7790
   32CHL1  H21B 2348   3.014   0.820   4.623  0.7591 -0.2485  0.3095
   32CHL1  H21C 2349   3.069   0.895   4.459  1.9214 -0.0142  1.0266
   32CHL1   C22 2350   2.908   0.595   4.520 -0.2952 -0.2913  0.3341
   32CHL1  H22A 2351   2.876   0.505   4.464 -0.9940 -0.5397  1.1110
   32CHL1  H22B 2352   2.988   0.560   4.588 -1.2658 -1.8264  0.7367
   32CHL1   C23 2353   2.782   0.634   4.612  0.7465  0.1528 -0.3116
   32CHL1  H23A 2354   2.808   0.728   4.665 -1.0112  1.5524 -1.7865
   32CHL1  H23B 2355   2.690   0.658   4.554 -1.0302  0.1551  2.3371
   32CHL1   C24 2356   2.761   0.520   4.717 -0.9955  0.3192 -0.2580
   32CHL1  H24A 2357   2.712   0.436   4.664 -0.4277 -0.1669 -0.0207
   32CHL1  H24B 2358   2.860   0.485   4.753 -1.5570 -1.0510  0.0275
   32CHL1   C25 2359   2.676   0.556   4.843 -0.2790  0.3739  0.0191
   32CHL1   H25 2360   2.582   0.600   4.805  1.4510  3.2433 -1.2598
   32CHL1   C26 2361   2.642   0.426   4.918  0.1162 -0.2073  0.1761
   32CHL1  H26A 2362   2.584   0.371   4.842  1.1949  0.2346 -0.9988
   32CHL1  H26B 2363   2.735   0.371   4.945  1.6605  3.4061  3.0760
   32CHL1  H26C 2364   2.582   0.450   5.008  0.2225  1.6213 -0.2067
   32CHL1   C27 2365   2.744   0.653   4.935 -0.0822 -0.3221 -0.0957
   32CHL1  H27A 2366   2.699   0.654   5.036  1.4107  0.1762  0.5932
   32CHL1  H27B 2367   2.849   0.620   4.952 -0.1209  0.5949  2.2258
   32CHL1  H27C 2368   2.757   0.758   4.902  0.7762 -0.5098 -0.3993
   33CHL1    C3 2369   0.071   1.349   3.588  0.3542 -0.0914 -0.1172
   33CHL1    H3 2370   0.177   1.381   3.604  0.1100  1.4784 -1.4522
   33CHL1    O3 2371   0.070   1.323   3.449  0.3539  0.3099  0.5011
   33CHL1   H3' 2372  -0.016   1.284   3.432  1.7424 -2.3448 -1.1124
   33CHL1    C4 2373   0.034   1.231   3.678 -0.1765  0.1400 -0.2022
   33CHL1   H4A 2374  -0.069   1.201   3.652 -1.1798  0.4759  2.9250
   33CHL1   H4B 2375   0.108   1.148   3.679 -0.9622 -0.5902  1.2811
   33CHL1    C5 2376   0.020   1.278   3.828 -0.6449 -0.0287  0.4985
   33CHL1    C6 2377   0.086   1.214   3.929 -0.5216  0.7718  0.7679
   33CHL1    H6 2378   0.137   1.118   3.918  2.1625  2.0601  1.1601
   33CHL1    C7 2379   0.082   1.259   4.070 -0.1185 -0.2639 -0.6367
   33CHL1   H7A 2380   0.058   1.177   4.142  0.0311  1.2599  1.2466
   33CHL1   H7B 2381   0.184   1.298   4.093 -0.6547  0.7817  0.0476
   33CHL1    C8 2382  -0.019   1.366   4.096  0.1375  0.7414 -0.3906
   33CHL1    H8 2383  -0.120   1.319   4.101  0.4252  0.2587  1.6776
   33CHL1   C14 2384  -0.001   1.438   4.232 -0.7414  0.2590  0.0293
   33CHL1   H14 2385   0.100   1.481   4.219 -0.0927 -1.6845 -2.0482
   33CHL1   C15 2386   0.010   1.350   4.347 -0.7568  0.0248 -0.1858
   33CHL1  H15A 2387  -0.080   1.289   4.367 -0.1995 -0.9367 -0.4967
   33CHL1  H15B 2388   0.101   1.286   4.348 -0.9760 -0.2853 -0.1537
   33CHL1   C16 2389   0.003   1.451   4.463  0.1052 -0.4183  0.3144
   33CHL1  H16A 2390  -0.084   1.433   4.530 -0.3838  1.9492  0.4242
   33CHL1  H16B 2391   0.097   1.454   4.523  1.4487  2.2238 -1.6940
   33CHL1   C17 2392  -0.025   1.593   4.407 -0.1544 -0.3485 -0.4278
   33CHL1   H17 2393   0.078   1.633   4.397 -0.8090  1.1725 -1.4160
   33CHL1   C13 2394  -0.090   1.552   4.273 -0.4905 -0.3430  0.9934
   33CHL1   C18 2395  -0.245   1.510   4.281 -0.0092 -0.6126  0.2107
   33CHL1  H18A 2396  -0.261   1.446   4.370 -0.1809 -0.1322  0.5304
   33CHL1  H18B 2397  -0.321   1.591   4.288  1.6462  0.8534  2.1441
   33CHL1  H18C 2398  -0.273   1.441   4.198  0.6817 -2.6820  1.6227
   33CHL1   C12 2399  -0.070   1.657   4.154 -0.4124 -0.5961 -0.2782
   33CHL1  H12A 2400  -0.146   1.731   4.186 -0.2006 -0.7367  0.5916
   33CHL1  H12B 2401   0.032   1.702   4.155 -0.4953 -0.2985 -2.0768
   33CHL1   C11 2402  -0.107   1.599   4.020  0.2352  0.6110  0.1429
   33CHL1  H11A 2403  -0.215   1.570   4.020  0.1184  0.9190 -1.8845
   33CHL1  H11B 2404  -0.090   1.678   3.944 -2.0333  1.6534  0.6289
   33CHL1    C9 2405  -0.021   1.470   3.984  0.1785 -0.1382 -0.7965
   33CHL1    H9 2406   0.085   1.503   3.979  0.0313  1.1644  2.2468
   33CHL1   C10 2407  -0.055   1.413   3.848 -0.1014  0.3375  0.5915
   33CHL1   C19 2408  -0.209   1.386   3.846  0.0737  0.1916  0.8094
   33CHL1  H19A 2409  -0.249   1.342   3.752  0.6805  0.8154  0.2411
   33CHL1  H19B 2410  -0.234   1.317   3.929  0.5464 -1.8248 -0.6517
   33CHL1  H19C 2411  -0.271   1.479   3.853 -1.1000 -0.6723  2.5805
   33CHL1    C1 2412  -0.030   1.530   3.737 -0.9079  0.2177  0.3320
   33CHL1   H1A 2413  -0.114   1.602   3.749 -0.4519  1.5662 -3.3258
   33CHL1   H1B 2414   0.066   1.584   3.755  0.2236 -1.4534 -0.4503
   33CHL1    C2 2415  -0.029   1.467   3.598  0.7350 -0.9245 -0.3871
   33CHL1   H2A 2416   0.003   1.534   3.515  1.3951 -1.6221 -0.7054
   33CHL1   H2B 2417  -0.131   1.433   3.570  0.0180  2.4574 -2.4425
   33CHL1   C20 2418  -0.107   1.689   4.494 -0.0781  1.2069  0.3419
   33CHL1   H20 2419  -0.208   1.645   4.509  0.8340 -1.1039  0.1661
   33CHL1   C21 2420  -0.098   1.830   4.435  0.1272  0.6252 -0.1533
   33CHL1  H21A 2421  -0.115   1.906   4.514 -2.3360 -0.4291  0.4158
   33CHL1  H21B 2422  -0.180   1.838   4.361  0.1000  3.0748  0.0620
   33CHL1  H21C 2423  -0.001   1.832   4.380 -0.0729 -2.1984 -0.7151
   33CHL1   C22 2424  -0.052   1.689   4.638  0.4336  0.0076 -0.3511
   33CHL1  H22A 2425  -0.068   1.595   4.694 -0.6740  1.8202  2.6071
   33CHL1  H22B 2426   0.055   1.718   4.646  0.1651  0.5795  1.8384
   33CHL1   C23 2427  -0.116   1.779   4.750  0.3117 -0.1373 -0.3961
   33CHL1  H23A 2428  -0.106   1.890   4.739 -0.0876  0.3510  2.9771
   33CHL1  H23B 2429  -0.220   1.740   4.761  0.8531 -1.6592 -0.4900
   33CHL1   C24 2430  -0.045   1.755   4.879 -0.5836  0.0140 -0.4107
   33CHL1  H24A 2431  -0.026   1.647   4.896 -1.2700 -0.1428 -0.6010
   33CHL1  H24B 2432   0.055   1.798   4.857 -0.6120 -0.0762 -0.7239
   33CHL1   C25 2433  -0.102   1.819   5.004  0.2834  0.4496 -0.7483
   33CHL1   H25 2434  -0.109   1.930   4.992 -1.3099  0.3464 -1.0202
   33CHL1   C26 2435  -0.248   1.768   5.029  0.3099 -0.0593 -0.0535
   33CHL1  H26A 2436  -0.316   1.767   4.941  0.5330 -0.9350 -0.2284
   33CHL1  H26B 2437  -0.229   1.662   5.054 -0.5932 -1.0455 -3.0619
   33CHL1  H26C 2438  -0.298   1.814   5.117  0.8526 -1.4656  1.0210
   33CHL1   C27 2439  -0.017   1.794   5.128 -0.2196  0.1748 -1.0834
   33CHL1  H27A 2440  -0.074   1.807   5.222  0.2376  0.8328 -0.8855
   33CHL1  H27B 2441   0.047   1.703   5.125  0.6999  0.8224 -2.5105
   33CHL1  H27C 2442   0.065   1.870   5.137  1.5133 -1.8926  2.4272
   34CHL1    C3 2443   5.517   2.332   3.701  0.4945  0.0344  0.3939
   34CHL1    H3 2444   5.441   2.251   3.697 -0.9037  1.3198  0.2202
   34CHL1    O3 2445   5.560   2.364   3.568  0.0850 -0.0634  0.3776
   34CHL1   H3' 2446   5.581   2.457   3.565  1.2631 -0.3290 -0.5093
   34CHL1    C4 2447   5.448   2.448   3.771  0.2207 -0.8130  0.3304
   34CHL1   H4A 2448   5.511   2.540   3.771 -3.4158  1.9441  1.1198
   34CHL1   H4B 2449   5.365   2.477   3.702 -0.0109  0.0527  0.9475
   34CHL1    C5 2450   5.398   2.412   3.907  0.2900  0.9048  0.0212
   34CHL1    C6 2451   5.268   2.434   3.947  0.0599 -0.0352 -0.0164
   34CHL1    H6 2452   5.195   2.471   3.873 -1.2427 -2.5500 -0.1050
   34CHL1    C7 2453   5.221   2.412   4.088  0.2083 -0.8043  0.4401
   34CHL1   H7A 2454   5.166   2.497   4.134 -0.1825 -0.9029  0.1646
   34CHL1   H7B 2455   5.140   2.336   4.098 -1.7066  0.6494 -2.4040
   34CHL1    C8 2456   5.340   2.386   4.189  0.2012 -0.5732  0.1092
   34CHL1    H8 2457   5.385   2.487   4.195  1.4046 -0.6368 -4.5292
   34CHL1   C14 2458   5.279   2.321   4.317 -0.5903 -0.1344  0.5955
   34CHL1   H14 2459   5.240   2.224   4.281 -2.8778  0.7542  0.5327
   34CHL1   C15 2460   5.147   2.380   4.385  0.1847 -0.2315 -0.3833
   34CHL1  H15A 2461   5.152   2.491   4.387  0.4271 -0.1382  3.8260
   34CHL1  H15B 2462   5.065   2.339   4.323  1.9121 -1.1098 -2.2211
   34CHL1   C16 2463   5.164   2.345   4.536  0.4670 -0.2885  0.9446
   34CHL1  H16A 2464   5.172   2.433   4.602  1.4216 -0.4754  1.0840
   34CHL1  H16B 2465   5.065   2.302   4.565  0.9339 -0.5336  2.2356
   34CHL1   C17 2466   5.285   2.253   4.548 -0.0278  0.6405 -0.0689
   34CHL1   H17 2467   5.255   2.148   4.527  3.0602 -0.3494 -0.0168
   34CHL1   C13 2468   5.378   2.298   4.430  0.2533 -0.8465 -0.8436
   34CHL1   C18 2469   5.436   2.442   4.459  0.1391  0.8116 -0.4993
   34CHL1  H18A 2470   5.490   2.486   4.372  1.7675 -0.8369 -0.3939
   34CHL1  H18B 2471   5.359   2.517   4.484 -0.5199  0.0026 -0.0573
   34CHL1  H18C 2472   5.511   2.430   4.540  2.9127 -1.6904 -3.1309
   34CHL1   C12 2473   5.489   2.205   4.380 -0.4530 -0.0516  0.8844
   34CHL1  H12A 2474   5.574   2.215   4.451 -0.0257  3.5343  0.0616
   34CHL1  H12B 2475   5.450   2.102   4.368 -2.4508  0.5349  1.8488
   34CHL1   C11 2476   5.552   2.258   4.244  0.0971  0.0804  0.0850
   34CHL1  H11A 2477   5.607   2.351   4.269 -2.2350  1.1231  1.6315
   34CHL1  H11B 2478   5.617   2.177   4.204 -0.7612 -1.8255  2.3076
   34CHL1    C9 2479   5.445   2.297   4.134 -0.0392 -0.3141  0.3411
   34CHL1    H9 2480   5.398   2.203   4.097  2.7762 -1.2049 -1.2793
   34CHL1   C10 2481   5.503   2.358   4.003  0.2264 -0.1561 -0.6202
   34CHL1   C19 2482   5.600   2.478   4.028 -0.4685  0.5765 -0.3094
   34CHL1  H19A 2483   5.624   2.541   3.940 -0.8844 -0.7691 -1.4388
   34CHL1  H19B 2484   5.576   2.553   4.105  1.5539  0.8602  0.1059
   34CHL1  H19C 2485   5.691   2.427   4.067 -2.1724 -0.6318  2.3801
   34CHL1    C1 2486   5.595   2.255   3.933  0.6926 -0.4159 -0.3803
   34CHL1   H1A 2487   5.687   2.239   3.993  0.7291 -2.3602 -0.8797
   34CHL1   H1B 2488   5.539   2.160   3.927 -0.3551  0.2493 -1.5493
   34CHL1    C2 2489   5.636   2.292   3.785 -0.0541  0.0530  0.3340
   34CHL1   H2A 2490   5.690   2.204   3.745 -0.7997  0.0586 -0.7229
   34CHL1   H2B 2491   5.714   2.367   3.810  2.7554 -3.2145  2.0797
   34CHL1   C20 2492   5.327   2.252   4.699 -0.1321 -0.1663  0.8914
   34CHL1   H20 2493   5.362   2.354   4.726  1.5588 -0.9686  1.8537
   34CHL1   C21 2494   5.437   2.147   4.717 -0.1308 -0.5942 -0.3533
   34CHL1  H21A 2495   5.408   2.050   4.673  2.1825 -2.3563  1.7419
   34CHL1  H21B 2496   5.442   2.123   4.826 -1.9618  0.2748 -0.0373
   34CHL1  H21C 2497   5.533   2.168   4.665 -1.1329 -1.5636 -2.7319
   34CHL1   C22 2498   5.212   2.223   4.800 -0.7087  0.2435  0.1307
   34CHL1  H22A 2499   5.255   2.259   4.896 -0.6569 -0.2880  0.3087
   34CHL1  H22B 2500   5.123   2.289   4.788 -0.8304  0.0023 -0.2886
   34CHL1   C23 2501   5.164   2.079   4.801 -0.0798 -0.5886  0.2204
   34CHL1  H23A 2502   5.110   2.067   4.705  1.4462 -0.6613 -0.6466
   34CHL1  H23B 2503   5.242   2.001   4.809 -0.7198 -1.1312  1.4930
   34CHL1   C24 2504   5.055   2.056   4.912 -0.3363  0.5313 -1.0193
   34CHL1  H24A 2505   5.117   2.051   5.004  0.5359 -0.3547 -1.6444
   34CHL1  H24B 2506   4.990   2.146   4.921 -0.1074  0.8722 -2.5385
   34CHL1   C25 2507   4.966   1.933   4.898  0.0322 -0.2456  0.5912
   34CHL1   H25 2508   5.026   1.842   4.922 -1.6719 -1.8455 -0.9083
   34CHL1   C26 2509   4.858   1.949   5.003  0.1497 -0.1840  0.0572
   34CHL1  H26A 2510   4.896   1.962   5.106 -1.3166  1.1907  0.4612
   34CHL1  H26B 2511   4.790   2.035   4.988 -2.1121 -1.4779  2.1283
   34CHL1  H26C 2512   4.799   1.856   4.993  1.2424 -0.7805 -1.1885
   34CHL1   C27 2513   4.896   1.912   4.765 -0.6841 -0.0355  0.4367
   34CHL1  H27A 2514   4.827   1.997   4.742  1.3841  2.1268  1.7238
   34CHL1  H27B 2515   4.972   1.905   4.684 -1.0257  1.5104 -0.0555
   34CHL1  H27C 2516   4.851   1.811   4.768  0.9384 -0.8604 -1.0089
   35CHL1    C3 2517   1.236   2.087   3.530 -0.5584  0.0747 -0.4671
   35CHL1    H3 2518   1.244   1.977   3.543  0.6110  0.2039  0.0837
   35CHL1    O3 2519   1.179   2.107   3.400  0.1303  0.1686  0.3573
   35CHL1   H3' 2520   1.109   2.171   3.412 -0.1000 -0.0291  0.0785
   35CHL1    C4 2521   1.140   2.155   3.632  0.1521 -0.8996 -0.8059
   35CHL1   H4A 2522   1.117   2.260   3.601 -1.3107 -0.6529  0.9271
   35CHL1   H4B 2523   1.048   2.094   3.637 -0.3200 -0.1393  0.4329
   35CHL1    C5 2524   1.192   2.167   3.776  0.0368 -0.7795  0.7303
   35CHL1    C6 2525   1.122   2.119   3.885 -0.1656  0.1185  0.4938
   35CHL1    H6 2526   1.019   2.081   3.879  0.3923 -1.4880  0.7579
   35CHL1    C7 2527   1.172   2.120   4.029  0.5035 -0.3342 -0.3642
   35CHL1   H7A 2528   1.096   2.157   4.101  1.9319 -1.7802  2.0143
   35CHL1   H7B 2529   1.194   2.015   4.058 -0.4400  0.1742  2.4534
   35CHL1    C8 2530   1.283   2.222   4.057  0.4699 -0.5723 -0.1521
   35CHL1    H8 2531   1.242   2.324   4.045  0.0883 -0.9321 -2.2406
   35CHL1   C14 2532   1.345   2.208   4.194  0.2787  0.4526  0.2169
   35CHL1   H14 2533   1.391   2.107   4.190 -0.3221  0.0798  1.9798
   35CHL1   C15 2534   1.258   2.213   4.317  0.9585 -0.7257  0.1620
   35CHL1  H15A 2535   1.191   2.301   4.311  2.1247  0.1978  0.2969
   35CHL1  H15B 2536   1.203   2.117   4.327  1.3230 -1.0467 -0.7827
   35CHL1   C16 2537   1.361   2.225   4.430 -0.8233 -0.5508 -0.6221
   35CHL1  H16A 2538   1.346   2.312   4.497  0.1130 -1.1035  0.3389
   35CHL1  H16B 2539   1.362   2.129   4.488  1.6184  0.5376  1.3107
   35CHL1   C17 2540   1.495   2.264   4.368  0.4995 -0.3528  0.0699
   35CHL1   H17 2541   1.549   2.167   4.360 -1.2292 -1.6058  2.2583
   35CHL1   C13 2542   1.466   2.302   4.220 -0.0778 -0.5991  0.1915
   35CHL1   C18 2543   1.430   2.449   4.222 -0.1696 -0.6625  0.1787
   35CHL1  H18A 2544   1.340   2.475   4.163  1.2093  2.1476 -0.8420
   35CHL1  H18B 2545   1.402   2.475   4.327  1.6170 -0.2044  0.5641
   35CHL1  H18C 2546   1.509   2.525   4.210 -0.1975 -0.7890 -0.8894
   35CHL1   C12 2547   1.571   2.273   4.115  0.2964  0.1967  0.3935
   35CHL1  H12A 2548   1.671   2.323   4.119  1.0637 -1.2544 -0.0073
   35CHL1  H12B 2549   1.599   2.166   4.122 -1.6706 -0.4382 -0.8011
   35CHL1   C11 2550   1.517   2.295   3.971 -0.2923 -0.0510 -0.3601
   35CHL1  H11A 2551   1.483   2.401   3.961  0.2844  0.1432 -0.2844
   35CHL1  H11B 2552   1.591   2.271   3.891 -1.0501 -0.3190 -0.9935
   35CHL1    C9 2553   1.391   2.208   3.943 -0.1472 -0.2446 -0.6801
   35CHL1    H9 2554   1.427   2.103   3.944 -1.4259 -0.6985  0.1058
   35CHL1   C10 2555   1.337   2.226   3.796  1.1396 -0.1621  0.0015
   35CHL1   C19 2556   1.337   2.376   3.755 -0.0599 -0.4340 -0.2039
   35CHL1  H19A 2557   1.296   2.398   3.654 -0.4257  1.6900  0.3699
   35CHL1  H19B 2558   1.264   2.431   3.816  2.4495 -0.5897  3.2027
   35CHL1  H19C 2559   1.437   2.424   3.751  0.7101 -1.9639 -0.3155
   35CHL1    C1 2560   1.425   2.149   3.692  0.2647 -0.5554 -0.2973
   35CHL1   H1A 2561   1.526   2.195   3.703  0.3000 -0.7257  0.1099
   35CHL1   H1B 2562   1.437   2.048   3.737 -0.0073  0.6615  2.7038
   35CHL1    C2 2563   1.378   2.138   3.536 -0.3743  0.5965  0.4387
   35CHL1   H2A 2564   1.446   2.066   3.486 -0.7182 -0.7080  1.7809
   35CHL1   H2B 2565   1.369   2.239   3.490 -1.6275  0.2931 -0.0089
   35CHL1   C20 2566   1.590   2.344   4.462  0.1522 -0.5116  0.0981
   35CHL1   H20 2567   1.550   2.445   4.484 -0.4417 -1.2282  2.7236
   35CHL1   C21 2568   1.715   2.366   4.382 -0.2299  0.2644 -0.1822
   35CHL1  H21A 2569   1.797   2.414   4.440 -1.0470 -0.8327  2.0252
   35CHL1  H21B 2570   1.694   2.431   4.295 -0.5403  2.7185  1.5941
   35CHL1  H21C 2571   1.755   2.266   4.357  2.1903  0.5644  2.0530
   35CHL1   C22 2572   1.601   2.271   4.600 -0.2057  0.5493 -0.3231
   35CHL1  H22A 2573   1.504   2.275   4.653  1.0019 -1.4544  2.2193
   35CHL1  H22B 2574   1.622   2.163   4.583 -1.2347  0.4620 -1.1989
   35CHL1   C23 2575   1.705   2.330   4.691  0.1361 -0.3980 -0.8423
   35CHL1  H23A 2576   1.801   2.344   4.636  0.2893  0.5291 -0.3562
   35CHL1  H23B 2577   1.666   2.430   4.719  2.0576  0.5284 -1.3168
   35CHL1   C24 2578   1.741   2.245   4.809 -0.5848 -0.0614 -0.7031
   35CHL1  H24A 2579   1.648   2.237   4.869  0.2516 -1.5017  0.4824
   35CHL1  H24B 2580   1.776   2.147   4.770  1.8370  0.7068 -0.6230
   35CHL1   C25 2581   1.863   2.305   4.881 -0.0865  0.4990  0.2133
   35CHL1   H25 2582   1.942   2.316   4.803 -0.9688  0.2120 -0.7355
   35CHL1   C26 2583   1.831   2.442   4.938  0.1941 -0.4214  0.3565
   35CHL1  H26A 2584   1.912   2.487   4.998 -0.4062  1.9243 -0.5041
   35CHL1  H26B 2585   1.825   2.517   4.856  2.8593  1.0856  1.4158
   35CHL1  H26C 2586   1.743   2.426   5.003  2.4799 -2.3563  3.2541
   35CHL1   C27 2587   1.902   2.212   4.994 -0.2154 -0.3601 -0.2968
   35CHL1  H27A 2588   1.810   2.185   5.051 -1.0491  2.8389  0.0739
   35CHL1  H27B 2589   1.931   2.112   4.954  0.5766 -0.1017 -0.3881
   35CHL1  H27C 2590   1.976   2.256   5.064 -0.9704  0.5827 -0.0783
   36CHL1    C3 2591   4.442   6.366   3.742  0.0995 -0.5518 -1.1980
   36CHL1    H3 2592   4.489   6.451   3.798 -1.1449 -2.1843  2.6775
   36CHL1    O3 2593   4.488   6.340   3.615  0.2521 -0.2333 -0.2361
   36CHL1   H3' 2594   4.409   6.315   3.566  1.9862 -0.7551 -2.9983
   36CHL1    C4 2595   4.455   6.243   3.831 -0.4888  0.8986  0.3186
   36CHL1   H4A 2596   4.427   6.159   3.765  0.7812  1.0689 -0.4572
   36CHL1   H4B 2597   4.562   6.224   3.851 -0.7331  0.4077  1.2295
   36CHL1    C5 2598   4.377   6.250   3.963 -0.1661  0.8160  0.1202
   36CHL1    C6 2599   4.438   6.240   4.078  0.0944  0.0226 -0.5304
   36CHL1    H6 2600   4.547   6.228   4.079  0.0583 -0.5259 -1.6884
   36CHL1    C7 2601   4.365   6.256   4.218  0.8707 -0.2213  0.9578
   36CHL1   H7A 2602   4.403   6.181   4.290  0.2359  1.0902  2.7125
   36CHL1   H7B 2603   4.387   6.360   4.252 -0.2244  0.5530 -0.5483
   36CHL1    C8 2604   4.209   6.248   4.214  0.5482 -0.1325 -0.5475
   36CHL1    H8 2605   4.180   6.142   4.195  0.1983 -0.2591  0.5990
   36CHL1   C14 2606   4.144   6.294   4.339  0.0155  0.0122 -1.3027
   36CHL1   H14 2607   4.150   6.404   4.349 -0.8337  0.1724 -2.3599
   36CHL1   C15 2608   4.181   6.230   4.476  0.0828 -0.4429 -0.1291
   36CHL1  H15A 2609   4.199   6.120   4.474 -1.0135 -0.6538  0.6133
   36CHL1  H15B 2610   4.262   6.294   4.516 -1.4583  1.0627  0.7306
   36CHL1   C16 2611   4.056   6.250   4.570 -0.8228  0.4898  0.7263
   36CHL1  H16A 2612   4.021   6.149   4.601  1.4903 -1.1778 -1.6436
   36CHL1  H16B 2613   4.094   6.311   4.655 -0.2592 -1.3020  1.8213
   36CHL1   C17 2614   3.959   6.325   4.483  0.6895  0.0671  0.5538
   36CHL1   H17 2615   3.973   6.434   4.501  3.5179 -0.2033  0.4807
   36CHL1   C13 2616   3.994   6.285   4.338  0.0243 -0.3041 -0.7339
   36CHL1   C18 2617   3.938   6.139   4.324  0.4915 -0.4445 -0.8640
   36CHL1  H18A 2618   3.971   6.070   4.404  0.8517  0.8019  0.0800
   36CHL1  H18B 2619   3.829   6.118   4.322  0.7005 -1.6165 -0.9514
   36CHL1  H18C 2620   3.980   6.086   4.236  1.4731 -0.8955 -0.1413
   36CHL1   C12 2621   3.938   6.379   4.229 -0.8136 -0.2512  0.5122
   36CHL1  H12A 2622   3.827   6.378   4.216 -0.7188  0.4359 -0.4627
   36CHL1  H12B 2623   3.965   6.484   4.254 -1.5542  0.3076 -0.8990
   36CHL1   C11 2624   4.004   6.337   4.091 -0.1474 -0.2066 -0.0465
   36CHL1  H11A 2625   3.958   6.241   4.059 -0.2964 -0.9483  2.1671
   36CHL1  H11B 2626   3.963   6.421   4.031  0.0093 -1.5282 -2.0850
   36CHL1    C9 2627   4.160   6.329   4.090 -0.0249  0.2644 -0.0751
   36CHL1    H9 2628   4.193   6.431   4.120  0.2822 -0.0933  0.8356
   36CHL1   C10 2629   4.225   6.291   3.951  0.5338 -0.1032 -0.2849
   36CHL1   C19 2630   4.138   6.180   3.886  0.1134  0.1138  0.7752
   36CHL1  H19A 2631   4.169   6.129   3.792 -2.3869 -0.2849  0.0899
   36CHL1  H19B 2632   4.128   6.088   3.946  0.3108  0.5032  1.4125
   36CHL1  H19C 2633   4.036   6.222   3.870  0.6551  0.9416 -0.7913
   36CHL1    C1 2634   4.218   6.415   3.864  0.0776  0.4832  0.3207
   36CHL1   H1A 2635   4.109   6.425   3.848  0.1322 -0.8287 -0.9659
   36CHL1   H1B 2636   4.251   6.503   3.924 -0.7455 -0.0497  1.5953
   36CHL1    C2 2637   4.293   6.402   3.726  0.6758 -0.2373 -0.6644
   36CHL1   H2A 2638   4.292   6.499   3.671  0.1140 -0.3262 -0.8132
   36CHL1   H2B 2639   4.232   6.337   3.660  1.6196 -0.7243 -1.0733
   36CHL1   C20 2640   3.810   6.313   4.543 -0.0425  0.1346  0.4201
   36CHL1   H20 2641   3.776   6.207   4.536  0.2664 -0.0535  1.5880
   36CHL1   C21 2642   3.715   6.412   4.466  0.2056  0.3675  0.0762
   36CHL1  H21A 2643   3.756   6.515   4.457 -2.3551  1.4018 -0.7037
   36CHL1  H21B 2644   3.620   6.406   4.523  0.2032 -0.7977 -0.0311
   36CHL1  H21C 2645   3.710   6.352   4.373  0.4541  0.3447  0.0771
   36CHL1   C22 2646   3.813   6.334   4.698 -0.3024  0.0898  0.2128
   36CHL1  H22A 2647   3.889   6.264   4.738 -0.1521  0.3572  0.3990
   36CHL1  H22B 2648   3.857   6.428   4.739  0.2571  0.7768 -1.8562
   36CHL1   C23 2649   3.681   6.316   4.768 -0.1191  0.3944  0.3229
   36CHL1  H23A 2650   3.600   6.386   4.739  0.0167  0.0034 -1.0512
   36CHL1  H23B 2651   3.635   6.218   4.745 -0.3589 -0.3407  3.4861
   36CHL1   C24 2652   3.696   6.329   4.926 -0.3975  0.3886  0.2845
   36CHL1  H24A 2653   3.746   6.428   4.924  2.2017 -0.8330  0.5990
   36CHL1  H24B 2654   3.602   6.342   4.984  0.1950  0.3495  1.2720
   36CHL1   C25 2655   3.776   6.220   5.000  0.0074 -0.2931  0.1175
   36CHL1   H25 2656   3.830   6.155   4.927  0.3851  1.3113 -1.0839
   36CHL1   C26 2657   3.896   6.276   5.083  0.3824 -0.7762  0.0284
   36CHL1  H26A 2658   3.857   6.349   5.157 -2.2828  0.1219 -2.1285
   36CHL1  H26B 2659   3.952   6.197   5.138  1.0489 -1.1124 -1.0884
   36CHL1  H26C 2660   3.973   6.336   5.029  0.6335 -0.4138  0.7736
   36CHL1   C27 2661   3.688   6.114   5.080 -0.0350  0.5359  1.2270
   36CHL1  H27A 2662   3.615   6.066   5.011  0.5261  0.7090  0.4982
   36CHL1  H27B 2663   3.758   6.032   5.109  0.3186  0.5026  0.3227
   36CHL1  H27C 2664   3.638   6.147   5.173 -0.8474  1.2509  0.5498
   37CHL1    C3 2665   5.932   2.869   4.012 -0.3776 -0.1247  0.4276
   37CHL1    H3 2666   5.940   2.980   4.019  3.1736  0.2466 -4.1046
   37CHL1    O3 2667   5.984   2.844   3.879  0.1153  0.2467 -0.1261
   37CHL1   H3' 2668   5.970   2.751   3.858  0.5275  0.5621 -1.9538
   37CHL1    C4 2669   6.038   2.813   4.108  0.0312 -0.6476 -0.0273
   37CHL1   H4A 2670   6.059   2.706   4.087 -0.9645 -0.5995 -1.4072
   37CHL1   H4B 2671   6.130   2.872   4.088 -0.9754  0.2978 -2.2610
   37CHL1    C5 2672   5.992   2.835   4.253  0.5496  0.1528 -0.1750
   37CHL1    C6 2673   6.063   2.908   4.335  0.3139  0.6306 -0.6977
   37CHL1    H6 2674   6.154   2.958   4.300  1.2740  0.2399  1.1280
   37CHL1    C7 2675   6.023   2.936   4.476  0.0049 -0.2067 -0.0908
   37CHL1   H7A 2676   6.111   2.927   4.542  0.3721  2.2679 -0.1281
   37CHL1   H7B 2677   5.984   3.040   4.481 -0.7234 -0.2889 -2.5644
   37CHL1    C8 2678   5.905   2.837   4.521 -0.2114 -0.5980 -0.4443
   37CHL1    H8 2679   5.946   2.736   4.542  2.8182  0.7388  0.6621
   37CHL1   C14 2680   5.848   2.898   4.650 -0.2616 -0.2119 -0.5798
   37CHL1   H14 2681   5.796   2.993   4.625  1.6005  0.9558 -0.1524
   37CHL1   C15 2682   5.939   2.940   4.761 -0.0697  0.1158 -0.5616
   37CHL1  H15A 2683   6.010   2.860   4.794 -1.4268 -0.0704  2.2408
   37CHL1  H15B 2684   5.993   3.034   4.736 -1.3356  0.9531 -0.2373
   37CHL1   C16 2685   5.843   2.970   4.881  0.7793 -0.2124  0.4797
   37CHL1  H16A 2686   5.887   2.949   4.981  0.2677 -1.1453  0.5233
   37CHL1  H16B 2687   5.821   3.078   4.870  0.0189 -0.4130 -0.0516
   37CHL1   C17 2688   5.706   2.897   4.847 -0.2702 -0.3312 -0.2286
   37CHL1   H17 2689   5.641   2.982   4.815  0.0172  0.2118  0.6284
   37CHL1   C13 2690   5.737   2.810   4.717  0.1350 -0.5139 -0.1488
   37CHL1   C18 2691   5.792   2.675   4.759  0.1347 -0.2664 -0.4974
   37CHL1  H18A 2692   5.872   2.688   4.835 -1.8559  2.2852  1.3284
   37CHL1  H18B 2693   5.713   2.611   4.805  0.1586 -0.1901 -0.3492
   37CHL1  H18C 2694   5.834   2.615   4.675  0.4136  0.1409 -0.6480
   37CHL1   C12 2695   5.624   2.799   4.611 -0.6381  0.4738 -0.4052
   37CHL1  H12A 2696   5.552   2.726   4.653 -0.6860 -0.0835 -1.4186
   37CHL1  H12B 2697   5.567   2.894   4.609 -1.0247  0.2640  0.2541
   37CHL1   C11 2698   5.682   2.746   4.477  0.6737 -0.3394 -0.2987
   37CHL1  H11A 2699   5.697   2.641   4.511 -2.4847  0.0858  2.8720
   37CHL1  H11B 2700   5.600   2.740   4.403  0.9337 -2.6861 -0.4784
   37CHL1    C9 2701   5.802   2.828   4.417 -0.0967  0.1077 -0.4122
   37CHL1    H9 2702   5.762   2.927   4.389 -0.6533 -0.6023 -2.3193
   37CHL1   C10 2703   5.861   2.769   4.281  0.8149 -0.0536  0.1006
   37CHL1   C19 2704   5.861   2.607   4.291 -0.5694  0.2003  0.6206
   37CHL1  H19A 2705   5.762   2.558   4.300 -1.9846  2.6369 -0.6463
   37CHL1  H19B 2706   5.915   2.560   4.207 -2.1626  1.0256 -0.9491
   37CHL1  H19C 2707   5.904   2.576   4.389  0.5219  0.5322  0.2626
   37CHL1    C1 2708   5.751   2.814   4.174 -0.0015  0.2336 -0.0488
   37CHL1   H1A 2709   5.657   2.758   4.194  0.4449 -0.7891 -0.7306
   37CHL1   H1B 2710   5.735   2.924   4.181 -0.1024  0.2461 -0.4487
   37CHL1    C2 2711   5.799   2.796   4.027  0.2289 -0.0743  0.7424
   37CHL1   H2A 2712   5.721   2.817   3.951  0.9112 -0.8323 -0.1933
   37CHL1   H2B 2713   5.819   2.689   4.008 -0.6126  0.1609 -1.7868
   37CHL1   C20 2714   5.626   2.826   4.961  0.1934 -0.2103  0.2901
   37CHL1   H20 2715   5.676   2.729   4.981  0.3280 -0.3280 -0.5727
   37CHL1   C21 2716   5.481   2.780   4.911  0.6911 -1.1841 -0.6046
   37CHL1  H21A 2717   5.412   2.776   4.998  2.1142 -0.1505  0.6340
   37CHL1  H21B 2718   5.500   2.673   4.887  3.2709 -0.3638 -2.7282
   37CHL1  H21C 2719   5.446   2.834   4.821 -0.1921 -0.4429  0.1673
   37CHL1   C22 2720   5.622   2.906   5.095  0.4127  0.1132  0.6506
   37CHL1  H22A 2721   5.725   2.932   5.127  0.3313 -1.4760  2.3913
   37CHL1  H22B 2722   5.564   2.998   5.071 -2.4440 -2.0648 -1.6215
   37CHL1   C23 2723   5.553   2.833   5.208  0.3997  0.3633  0.4316
   37CHL1  H23A 2724   5.443   2.837   5.193  0.2766 -1.3920  0.6491
   37CHL1  H23B 2725   5.597   2.732   5.202  1.6357  0.9499 -1.0790
   37CHL1   C24 2726   5.607   2.908   5.331 -0.2082 -0.0854  0.1507
   37CHL1  H24A 2727   5.716   2.886   5.335 -0.4898 -2.0919 -1.6681
   37CHL1  H24B 2728   5.603   3.017   5.308  1.4874 -0.0874 -0.2938
   37CHL1   C25 2729   5.529   2.867   5.461 -0.0804 -0.2523  0.1960
   37CHL1   H25 2730   5.422   2.889   5.445  0.3330  0.7361 -1.4257
   37CHL1   C26 2731   5.563   2.720   5.495 -0.8348  0.5171 -0.2043
   37CHL1  H26A 2732   5.666   2.682   5.509 -1.3309 -0.8389 -0.0715
   37CHL1  H26B 2733   5.514   2.705   5.593  1.5706 -2.1320  0.7404
   37CHL1  H26C 2734   5.529   2.656   5.410  1.0520 -0.6215 -0.1547
   37CHL1   C27 2735   5.577   2.958   5.576 -0.3773  0.0148  0.6991
   37CHL1  H27A 2736   5.566   3.065   5.546  2.4981  0.2632  0.2367
   37CHL1  H27B 2737   5.524   2.934   5.670 -1.4406  0.3977  0.2196
   37CHL1  H27C 2738   5.682   2.946   5.608 -0.2813 -1.1563 -0.0016
   38CHL1    C3 2739   2.360   0.727   3.433  0.0780  0.4133 -0.2877
   38CHL1    H3 2740   2.468   0.703   3.445  0.0233  0.5815  0.5855
   38CHL1    O3 2741   2.323   0.730   3.296  0.0092 -0.5129  0.5602
   38CHL1   H3' 2742   2.356   0.817   3.273 -1.3501  0.4183  1.8982
   38CHL1    C4 2743   2.278   0.619   3.508 -0.6773  0.0668 -0.0811
   38CHL1   H4A 2744   2.168   0.613   3.496 -0.9468  1.5606  1.2443
   38CHL1   H4B 2745   2.314   0.527   3.459 -1.7391 -1.2610  1.5402
   38CHL1    C5 2746   2.312   0.620   3.655  0.0504 -0.1540  0.2924
   38CHL1    C6 2747   2.383   0.525   3.712 -0.0364  0.0669  0.6706
   38CHL1    H6 2748   2.397   0.432   3.655 -0.1025 -0.8625  2.0966
   38CHL1    C7 2749   2.425   0.515   3.856 -0.5764  0.6555  0.5444
   38CHL1   H7A 2750   2.400   0.410   3.886  3.0275 -0.8326 -1.0608
   38CHL1   H7B 2751   2.532   0.526   3.881 -0.4594  1.6568 -0.3207
   38CHL1    C8 2752   2.342   0.614   3.940  0.4282  0.1259 -0.0811
   38CHL1    H8 2753   2.244   0.562   3.943  1.6690 -2.3988 -0.4455
   38CHL1   C14 2754   2.394   0.626   4.079  0.3077  0.5795  0.0478
   38CHL1   H14 2755   2.496   0.671   4.074  0.3933  0.3934  0.0895
   38CHL1   C15 2756   2.416   0.492   4.160  0.0622 -0.1630 -0.1619
   38CHL1  H15A 2757   2.326   0.427   4.148  0.0279  0.0530 -1.1214
   38CHL1  H15B 2758   2.514   0.447   4.134  0.2881  1.4122 -2.3398
   38CHL1   C16 2759   2.416   0.541   4.308 -0.7582  0.1613 -0.3531
   38CHL1  H16A 2760   2.329   0.494   4.358  0.0024 -1.1196 -0.1970
   38CHL1  H16B 2761   2.510   0.520   4.363 -0.3389  0.1602 -1.0578
   38CHL1   C17 2762   2.381   0.693   4.312 -0.0457 -0.1042 -0.5108
   38CHL1   H17 2763   2.481   0.739   4.305  0.8581 -1.7515  0.8691
   38CHL1   C13 2764   2.317   0.718   4.171 -0.5647  0.0567 -0.2761
   38CHL1   C18 2765   2.171   0.673   4.176 -0.0952 -0.0578  0.5891
   38CHL1  H18A 2766   2.155   0.577   4.229 -1.4620 -0.3681 -0.3344
   38CHL1  H18B 2767   2.117   0.752   4.233 -1.5243  0.7215 -1.6978
   38CHL1  H18C 2768   2.119   0.661   4.078  0.5768 -3.2947  0.5404
   38CHL1   C12 2769   2.330   0.860   4.110 -0.2337 -0.1613 -0.4718
   38CHL1  H12A 2770   2.282   0.944   4.164  2.8442  0.6682  1.1765
   38CHL1  H12B 2771   2.438   0.882   4.102 -0.1011 -1.3709 -2.9204
   38CHL1   C11 2772   2.284   0.862   3.961  0.7561 -0.7182  0.2858
   38CHL1  H11A 2773   2.174   0.857   3.971  0.7632  0.4848  1.1840
   38CHL1  H11B 2774   2.301   0.968   3.930 -1.1348 -0.3593  0.3958
   38CHL1    C9 2775   2.338   0.750   3.870  0.6959 -0.1955  0.0963
   38CHL1    H9 2776   2.446   0.774   3.866  1.2589 -2.4503  0.5953
   38CHL1   C10 2777   2.293   0.755   3.723  0.4060  0.7888  0.3154
   38CHL1   C19 2778   2.140   0.773   3.734  0.2487 -0.5603  0.4831
   38CHL1  H19A 2779   2.120   0.878   3.763 -2.2259 -0.7900 -0.1985
   38CHL1  H19B 2780   2.083   0.768   3.638 -2.3437  0.5822  1.8815
   38CHL1  H19C 2781   2.097   0.695   3.800  3.1005 -2.8202 -0.1397
   38CHL1    C1 2782   2.358   0.869   3.643 -0.2093  0.0999  0.4964
   38CHL1   H1A 2783   2.325   0.966   3.684  0.4230  0.5295  0.0093
   38CHL1   H1B 2784   2.467   0.857   3.663 -0.2657  1.4793  1.7579
   38CHL1    C2 2785   2.330   0.862   3.497 -0.3685  0.1584  0.3907
   38CHL1   H2A 2786   2.380   0.946   3.444 -0.9734  0.2871  0.0108
   38CHL1   H2B 2787   2.224   0.894   3.488 -0.1495  1.5760  2.3637
   38CHL1   C20 2788   2.295   0.736   4.437 -0.1211 -0.3259  0.0825
   38CHL1   H20 2789   2.201   0.678   4.430  0.0167 -0.7245  1.2847
   38CHL1   C21 2790   2.274   0.889   4.432 -0.2469  0.3132  0.2580
   38CHL1  H21A 2791   2.216   0.913   4.340 -0.5729  0.3796  0.4780
   38CHL1  H21B 2792   2.367   0.949   4.441 -1.1157  1.7653 -0.0487
   38CHL1  H21C 2793   2.205   0.927   4.510  0.8788  3.5707 -0.1620
   38CHL1   C22 2794   2.357   0.698   4.583  0.0641  0.1471  0.2653
   38CHL1  H22A 2795   2.423   0.609   4.585 -3.0186 -2.2920  0.6769
   38CHL1  H22B 2796   2.433   0.774   4.611  1.9331 -0.5567 -2.5762
   38CHL1   C23 2797   2.241   0.693   4.690 -0.7480 -0.5046 -0.2838
   38CHL1  H23A 2798   2.278   0.675   4.793 -0.2870  0.3796 -0.2803
   38CHL1  H23B 2799   2.200   0.796   4.686  0.3092 -0.0986 -1.9199
   38CHL1   C24 2800   2.133   0.592   4.672  0.9191 -0.0494 -0.1893
   38CHL1  H24A 2801   2.072   0.622   4.584  0.6779  0.9882  0.3169
   38CHL1  H24B 2802   2.174   0.491   4.653  2.9955  0.7379 -0.1447
   38CHL1   C25 2803   2.033   0.598   4.793  0.1577 -0.4077  0.0448
   38CHL1   H25 2804   2.006   0.703   4.815 -0.7176 -0.3982 -0.9875
   38CHL1   C26 2805   1.905   0.540   4.756  0.3095  0.0914  0.1949
   38CHL1  H26A 2806   1.856   0.608   4.683 -0.4171 -0.3663  0.2416
   38CHL1  H26B 2807   1.919   0.442   4.704 -1.4595  0.6984 -1.5628
   38CHL1  H26C 2808   1.847   0.514   4.847  0.1973 -1.5683 -0.3137
   38CHL1   C27 2809   2.091   0.525   4.909  0.4311  0.6001 -1.0772
   38CHL1  H27A 2810   2.037   0.575   4.992 -0.7866  0.0110 -1.4951
   38CHL1  H27B 2811   2.059   0.419   4.917 -0.8466  1.0578  0.2844
   38CHL1  H27C 2812   2.202   0.534   4.912  0.4468  0.3826 -0.8844
   39CHL1    C3 2813   2.926   3.271   3.622  0.5933  0.2223  0.4116
   39CHL1    H3 2814   3.028   3.305   3.650  1.3169 -2.6613  1.6727
   39CHL1    O3 2815   2.907   3.342   3.498 -0.0823 -0.4704  0.0737
   39CHL1   H3' 2816   2.814   3.337   3.474 -0.7022  2.6858  1.3290
   39CHL1    C4 2817   2.929   3.121   3.593 -0.8480  0.5526  0.4402
   39CHL1   H4A 2818   2.834   3.092   3.542  1.1728  0.2341 -3.5336
   39CHL1   H4B 2819   3.011   3.106   3.520 -1.8111  0.5376 -0.6685
   39CHL1    C5 2820   2.939   3.041   3.718  0.3714  0.8325  0.2442
   39CHL1    C6 2821   3.029   2.950   3.724  0.8450 -0.0491  0.2134
   39CHL1    H6 2822   3.078   2.925   3.629  2.0161 -1.1688  1.0795
   39CHL1    C7 2823   3.066   2.879   3.847 -0.3653 -0.2442 -0.4123
   39CHL1   H7A 2824   3.067   2.769   3.828 -0.4907 -0.4899  0.9052
   39CHL1   H7B 2825   3.167   2.904   3.887 -1.2365 -1.0239  2.5146
   39CHL1    C8 2826   2.974   2.893   3.969 -0.1620  0.1051 -0.7696
   39CHL1    H8 2827   2.886   2.829   3.947  0.5739 -0.7774 -1.2386
   39CHL1   C14 2828   3.034   2.851   4.105 -0.4853 -0.1159 -0.5281
   39CHL1   H14 2829   3.109   2.931   4.126 -2.7909  2.3427 -1.0546
   39CHL1   C15 2830   3.127   2.721   4.112  0.2495 -0.0854  0.0799
   39CHL1  H15A 2831   3.072   2.638   4.061 -3.0737  1.0775  1.4926
   39CHL1  H15B 2832   3.233   2.731   4.080  1.0539  0.1924  2.6159
   39CHL1   C16 2833   3.126   2.689   4.268  0.0235  0.3007 -0.4618
   39CHL1  H16A 2834   3.081   2.588   4.276 -1.9364  1.1112 -0.6718
   39CHL1  H16B 2835   3.229   2.697   4.310 -1.1148  2.0603  2.2093
   39CHL1   C17 2836   3.036   2.800   4.333 -0.1301 -0.1505 -0.0876
   39CHL1   H17 2837   3.093   2.892   4.356 -0.9116 -0.1611  2.1923
   39CHL1   C13 2838   2.941   2.853   4.225  0.2124 -0.3160  0.9890
   39CHL1   C18 2839   2.819   2.755   4.212  0.5568 -0.7980 -0.2401
   39CHL1  H18A 2840   2.751   2.765   4.300  1.0638 -0.1276  0.0861
   39CHL1  H18B 2841   2.775   2.787   4.116  0.4817  1.1746  0.4060
   39CHL1  H18C 2842   2.859   2.652   4.201  1.4081 -0.4046 -0.9352
   39CHL1   C12 2843   2.879   2.992   4.235 -0.0472  0.4500 -0.1905
   39CHL1  H12A 2844   2.806   2.984   4.318  1.8389 -0.5677  1.4609
   39CHL1  H12B 2845   2.964   3.058   4.265  1.0023 -1.4488  1.2235
   39CHL1   C11 2846   2.820   3.044   4.100 -0.3994  0.5312  0.0880
   39CHL1  H11A 2847   2.735   2.975   4.078  0.9129 -0.4057 -2.4285
   39CHL1  H11B 2848   2.780   3.147   4.110 -0.7789  0.4096 -0.1719
   39CHL1    C9 2849   2.918   3.034   3.979  0.0647  0.3743 -0.5022
   39CHL1    H9 2850   3.004   3.101   4.001  0.0352  0.2291  0.0723
   39CHL1   C10 2851   2.856   3.090   3.845 -1.0130  0.6959 -0.0081
   39CHL1   C19 2852   2.715   3.044   3.832  0.3642  0.4816  0.5356
   39CHL1  H19A 2853   2.670   3.049   3.730  0.4868 -1.2074  0.3709
   39CHL1  H19B 2854   2.710   2.937   3.860 -1.9171  0.3144 -0.3302
   39CHL1  H19C 2855   2.646   3.106   3.892 -0.2156  1.9503 -1.5200
   39CHL1    C1 2856   2.870   3.245   3.847  0.1157 -0.0002 -0.0143
   39CHL1   H1A 2857   2.795   3.274   3.924 -0.3839 -1.2490 -0.0032
   39CHL1   H1B 2858   2.961   3.289   3.892 -1.2405  1.7409  1.1731
   39CHL1    C2 2859   2.825   3.317   3.722 -0.6934  0.2839  0.3480
   39CHL1   H2A 2860   2.828   3.427   3.736  0.5152  0.2908  0.1299
   39CHL1   H2B 2861   2.720   3.294   3.694 -0.6329 -0.7455  0.9339
   39CHL1   C20 2862   2.972   2.745   4.471  0.1288  0.1426  0.1910
   39CHL1   H20 2863   2.896   2.671   4.437  1.7947 -1.7283  0.3484
   39CHL1   C21 2864   2.901   2.855   4.544  0.5384 -0.3562  0.2962
   39CHL1  H21A 2865   2.963   2.947   4.551 -0.3346  0.3578 -1.0205
   39CHL1  H21B 2866   2.864   2.822   4.644  1.6660 -1.1095  0.4964
   39CHL1  H21C 2867   2.810   2.888   4.490  1.3240  0.4142 -0.6032
   39CHL1   C22 2868   3.069   2.679   4.565 -0.3669  0.9716  0.4016
   39CHL1  H22A 2869   3.004   2.636   4.645  0.6341 -0.6807  0.3623
   39CHL1  H22B 2870   3.116   2.601   4.502 -0.2549 -0.3614  2.0588
   39CHL1   C23 2871   3.178   2.775   4.619  0.1699  0.2047  0.5102
   39CHL1  H23A 2872   3.238   2.812   4.532  0.4996 -0.0019  0.6495
   39CHL1  H23B 2873   3.129   2.865   4.663 -0.1805  1.7368 -2.6937
   39CHL1   C24 2874   3.280   2.703   4.710  0.1038  0.0712  0.3284
   39CHL1  H24A 2875   3.323   2.609   4.669  0.6450  0.1033  0.8091
   39CHL1  H24B 2876   3.369   2.765   4.731  1.8548 -2.1579 -0.1015
   39CHL1   C25 2877   3.223   2.664   4.846 -0.3793  0.5257 -0.5681
   39CHL1   H25 2878   3.131   2.604   4.829  0.2238 -0.6019  0.0133
   39CHL1   C26 2879   3.315   2.573   4.927  0.6807 -0.4139  0.2215
   39CHL1  H26A 2880   3.347   2.480   4.876  0.7988  0.4337 -1.3239
   39CHL1  H26B 2881   3.412   2.619   4.956  0.1526 -1.4445  4.0821
   39CHL1  H26C 2882   3.265   2.554   5.024 -1.2230  0.4080 -0.5405
   39CHL1   C27 2883   3.190   2.786   4.928  0.1943 -0.7353 -0.2299
   39CHL1  H27A 2884   3.154   2.763   5.031 -1.4320 -0.7677 -0.7689
   39CHL1  H27B 2885   3.280   2.851   4.931 -1.0214  1.0272 -0.5062
   39CHL1  H27C 2886   3.108   2.842   4.878 -0.3612 -0.0217  1.4025
   40CHL1    C3 2887   5.650   5.271   4.008 -0.0259  0.1579  1.2996
   40CHL1    H3 2888   5.618   5.367   3.961 -1.3060 -1.0119 -0.3202
   40CHL1    O3 2889   5.685   5.180   3.907  0.5590  0.2385  0.1239
   40CHL1   H3' 2890   5.714   5.235   3.834 -3.3887  1.3071 -0.8911
   40CHL1    C4 2891   5.763   5.318   4.099 -0.3011  0.1438 -0.2861
   40CHL1   H4A 2892   5.813   5.226   4.136 -0.5576 -0.5825 -1.6738
   40CHL1   H4B 2893   5.843   5.362   4.037  0.1098 -0.2763 -0.0578
   40CHL1    C5 2894   5.709   5.410   4.205 -0.3639 -0.0411 -0.2408
   40CHL1    C6 2895   5.760   5.537   4.222  0.5424 -0.1644  0.0413
   40CHL1    H6 2896   5.843   5.581   4.164  0.1830  2.3563  1.3059
   40CHL1    C7 2897   5.735   5.620   4.349  0.5753  0.3005  0.1407
   40CHL1   H7A 2898   5.832   5.660   4.387  0.0907  1.6922 -0.0192
   40CHL1   H7B 2899   5.665   5.704   4.328 -0.4462 -0.7034 -0.6057
   40CHL1    C8 2900   5.667   5.545   4.460 -0.1901  0.3948  0.3113
   40CHL1    H8 2901   5.741   5.478   4.510  0.1320  0.1269 -0.5001
   40CHL1   C14 2902   5.614   5.646   4.566  0.1543  0.5498 -0.5224
   40CHL1   H14 2903   5.541   5.704   4.506 -1.2745 -0.5494  0.0746
   40CHL1   C15 2904   5.699   5.756   4.623 -0.9798 -0.1874 -0.8162
   40CHL1  H15A 2905   5.804   5.724   4.638 -0.7425 -0.1778 -2.2986
   40CHL1  H15B 2906   5.701   5.847   4.560 -0.4348 -0.0240 -0.5659
   40CHL1   C16 2907   5.633   5.799   4.755  0.2061  0.3529 -0.8024
   40CHL1  H16A 2908   5.697   5.783   4.845 -0.1566  0.9459 -0.4288
   40CHL1  H16B 2909   5.599   5.902   4.732 -0.7980 -0.0352 -1.0837
   40CHL1   C17 2910   5.506   5.707   4.764 -1.0396  0.1451  0.3391
   40CHL1   H17 2911   5.431   5.760   4.701 -1.5125 -0.4264  0.4129
   40CHL1   C13 2912   5.537   5.583   4.671 -0.4453 -0.4822 -0.9069
   40CHL1   C18 2913   5.631   5.495   4.759 -0.1770  0.4746  0.1197
   40CHL1  H18A 2914   5.590   5.440   4.846  1.0791 -1.4686 -0.4473
   40CHL1  H18B 2915   5.683   5.413   4.704 -0.4424  0.0291  0.5249
   40CHL1  H18C 2916   5.718   5.548   4.805 -1.5004  1.4354  1.6041
   40CHL1   C12 2917   5.414   5.508   4.611 -0.0731  0.2601 -0.1031
   40CHL1  H12A 2918   5.363   5.458   4.696  0.1485 -0.9525 -0.6571
   40CHL1  H12B 2919   5.338   5.568   4.556 -0.7468  1.3747  1.9602
   40CHL1   C11 2920   5.464   5.403   4.512  0.5339 -0.0275  0.1095
   40CHL1  H11A 2921   5.518   5.328   4.574 -0.2917 -0.2600  0.5664
   40CHL1  H11B 2922   5.378   5.342   4.477 -0.2711  0.7976  0.6180
   40CHL1    C9 2923   5.549   5.459   4.400  0.2384 -0.1449 -0.0681
   40CHL1    H9 2924   5.480   5.529   4.349 -1.9716 -0.5170  2.1739
   40CHL1   C10 2925   5.597   5.355   4.292  0.2326  0.1269 -0.0440
   40CHL1   C19 2926   5.661   5.243   4.366  0.3558 -0.2111 -1.0634
   40CHL1  H19A 2927   5.704   5.161   4.305 -0.3868 -1.5162  0.0820
   40CHL1  H19B 2928   5.739   5.266   4.442  0.3704 -3.7524  0.1782
   40CHL1  H19C 2929   5.581   5.198   4.430  2.0052 -1.4874  0.1823
   40CHL1    C1 2930   5.481   5.311   4.197  0.5516  0.7954  0.1466
   40CHL1   H1A 2931   5.399   5.273   4.263  1.5188  1.5153  1.8242
   40CHL1   H1B 2932   5.441   5.403   4.151  0.9214 -0.2726 -2.4935
   40CHL1    C2 2933   5.533   5.207   4.083 -0.0724  0.1932 -0.1245
   40CHL1   H2A 2934   5.442   5.194   4.021 -2.0705  0.8621  2.4931
   40CHL1   H2B 2935   5.564   5.111   4.130 -0.5490  0.8821  1.7029
   40CHL1   C20 2936   5.447   5.697   4.901  0.1852 -0.3786  0.4859
   40CHL1   H20 2937   5.521   5.636   4.957 -0.4740 -0.8189  0.8784
   40CHL1   C21 2938   5.316   5.634   4.901  0.1903  0.5147 -0.6718
   40CHL1  H21A 2939   5.321   5.524   4.887 -1.3535  0.3042  0.2146
   40CHL1  H21B 2940   5.237   5.679   4.837 -1.8229 -1.1566  0.5389
   40CHL1  H21C 2941   5.278   5.644   5.005 -2.6018 -2.1177 -1.3181
   40CHL1   C22 2942   5.429   5.839   4.970 -0.6230  0.3537  0.2386
   40CHL1  H22A 2943   5.515   5.903   4.942 -0.3964 -0.0014  0.1160
   40CHL1  H22B 2944   5.339   5.894   4.937 -1.4221  0.0934  1.8467
   40CHL1   C23 2945   5.435   5.828   5.127  0.1584  0.1827 -0.0498
   40CHL1  H23A 2946   5.368   5.755   5.176  2.5918 -1.1546  1.5309
   40CHL1  H23B 2947   5.539   5.797   5.150  0.8794  1.6208 -1.1664
   40CHL1   C24 2948   5.415   5.962   5.202 -0.8148  0.0689 -0.3740
   40CHL1  H24A 2949   5.495   6.038   5.192 -1.3194  0.5270 -0.9452
   40CHL1  H24B 2950   5.323   6.013   5.169 -0.9124  0.0854 -0.0822
   40CHL1   C25 2951   5.414   5.946   5.349 -0.2485 -0.6561 -0.5427
   40CHL1   H25 2952   5.338   5.869   5.378  0.8512 -1.5022  0.1651
   40CHL1   C26 2953   5.539   5.902   5.425 -0.0424  0.0817  0.1613
   40CHL1  H26A 2954   5.580   5.809   5.381  0.7011  0.9527 -1.0598
   40CHL1  H26B 2955   5.617   5.981   5.431  0.0538 -0.0491  0.7245
   40CHL1  H26C 2956   5.505   5.884   5.530 -2.6949 -0.1830 -0.6690
   40CHL1   C27 2957   5.367   6.076   5.402 -0.7101 -0.6969  0.6384
   40CHL1  H27A 2958   5.265   6.089   5.360 -0.2210  0.4204 -0.2794
   40CHL1  H27B 2959   5.361   6.080   5.513 -1.3531 -0.6543  0.6082
   40CHL1  H27C 2960   5.442   6.156   5.382  0.1325 -1.6032  0.0615
   41CHL1    C3 2961   3.998   3.330   3.837 -0.3845 -1.0220  0.4817
   41CHL1    H3 2962   4.058   3.238   3.854 -0.5114 -1.1712  0.1104
   41CHL1    O3 2963   3.977   3.336   3.699  0.6835 -0.0662 -0.0239
   41CHL1   H3' 2964   3.909   3.403   3.684  1.4899  0.8662  0.3239
   41CHL1    C4 2965   3.870   3.337   3.918 -0.3527 -1.4549 -0.4632
   41CHL1   H4A 2966   3.809   3.422   3.881 -0.9703 -1.2446  0.9811
   41CHL1   H4B 2967   3.801   3.253   3.899  0.6653 -2.9222  1.8581
   41CHL1    C5 2968   3.886   3.346   4.071 -0.5218  0.1876  0.6149
   41CHL1    C6 2969   3.831   3.253   4.148 -0.2094 -0.4553 -0.3150
   41CHL1    H6 2970   3.770   3.173   4.105  0.9693 -1.2230 -0.6028
   41CHL1    C7 2971   3.840   3.256   4.298  0.6244 -0.4024 -0.2345
   41CHL1   H7A 2972   3.740   3.232   4.341  1.4675  0.1130  2.1783
   41CHL1   H7B 2973   3.898   3.166   4.328  0.8190 -0.8758 -1.9715
   41CHL1    C8 2974   3.916   3.377   4.358 -0.4207  0.1875  0.8637
   41CHL1    H8 2975   3.840   3.457   4.367 -0.7169 -0.0547  0.5039
   41CHL1   C14 2976   3.972   3.347   4.496  0.4096 -0.9614 -0.1585
   41CHL1   H14 2977   4.042   3.262   4.485  0.0424 -1.1383 -1.2951
   41CHL1   C15 2978   3.879   3.285   4.604  0.4019 -0.2171  0.5699
   41CHL1  H15A 2979   3.791   3.352   4.615  0.9988  1.0171 -1.7062
   41CHL1  H15B 2980   3.834   3.186   4.581 -2.7444  0.9542  1.2134
   41CHL1   C16 2981   3.950   3.311   4.739  0.2123 -0.1008 -0.3871
   41CHL1  H16A 2982   3.892   3.378   4.806  0.8233 -0.2499  0.3046
   41CHL1  H16B 2983   3.970   3.211   4.783 -1.4292 -0.4118 -0.2833
   41CHL1   C17 2984   4.090   3.379   4.706  0.8119  0.5960 -0.1682
   41CHL1   H17 2985   4.167   3.301   4.690  0.8123  0.7928 -1.1626
   41CHL1   C13 2986   4.059   3.450   4.569  0.0584  0.3670 -0.1127
   41CHL1   C18 2987   3.974   3.582   4.588 -0.0204 -0.1711 -0.2479
   41CHL1  H18A 2988   4.036   3.659   4.639 -0.2949 -0.7253  0.9502
   41CHL1  H18B 2989   3.942   3.616   4.487 -0.3285  0.5290  0.0768
   41CHL1  H18C 2990   3.887   3.562   4.654  1.6518 -0.8357  1.8705
   41CHL1   C12 2991   4.177   3.485   4.474 -0.3142 -0.3304  0.2979
   41CHL1  H12A 2992   4.234   3.571   4.515 -0.0222 -0.5459  0.3487
   41CHL1  H12B 2993   4.243   3.396   4.468  2.1208  1.3496  0.9014
   41CHL1   C11 2994   4.119   3.524   4.333  0.4715  0.4226 -0.3437
   41CHL1  H11A 2995   4.066   3.621   4.339 -4.6356 -2.0705 -0.3790
   41CHL1  H11B 2996   4.208   3.534   4.267  0.0043 -1.0690 -1.2548
   41CHL1    C9 2997   4.025   3.422   4.266  0.2861 -0.5873 -0.1620
   41CHL1    H9 2998   4.088   3.332   4.250 -0.1986 -0.8948 -0.3661
   41CHL1   C10 2999   3.978   3.455   4.125  0.0457 -0.3370  0.1071
   41CHL1   C19 3000   3.898   3.594   4.108  0.0706 -0.2515 -0.2362
   41CHL1  H19A 3001   3.965   3.671   4.151  0.6162  0.1038 -1.6706
   41CHL1  H19B 3002   3.866   3.632   4.008 -1.7343  0.3172  0.5078
   41CHL1  H19C 3003   3.804   3.596   4.166 -0.8879  0.4046 -1.7416
   41CHL1    C1 3004   4.106   3.462   4.030  0.1088 -0.0082  0.6063
   41CHL1   H1A 3005   4.154   3.559   4.054 -1.1310  0.4390  1.3613
   41CHL1   H1B 3006   4.165   3.374   4.065 -1.0922 -0.4662  1.5462
   41CHL1    C2 3007   4.087   3.451   3.882  0.2214 -0.1152  0.3488
   41CHL1   H2A 3008   4.186   3.446   3.831 -0.6539 -2.2416 -1.2753
   41CHL1   H2B 3009   4.032   3.545   3.859 -0.5866 -1.1998 -2.5211
   41CHL1   C20 3010   4.146   3.466   4.816 -0.0822  0.2056 -0.3962
   41CHL1   H20 3011   4.084   3.557   4.830  1.6460  1.2977  0.4948
   41CHL1   C21 3012   4.298   3.519   4.786  0.5867  0.9421  0.3477
   41CHL1  H21A 3013   4.335   3.561   4.882  0.7309  0.2620  0.5998
   41CHL1  H21B 3014   4.297   3.588   4.699  0.9329  1.4485  0.7391
   41CHL1  H21C 3015   4.368   3.434   4.772  0.1172  0.2666  1.8969
   41CHL1   C22 3016   4.147   3.394   4.951  0.0006  0.0346  1.0102
   41CHL1  H22A 3017   4.190   3.456   5.032 -1.4967  2.0097  0.3660
   41CHL1  H22B 3018   4.044   3.378   4.989  0.0508  0.6752  1.4311
   41CHL1   C23 3019   4.216   3.258   4.968  0.7121  0.2470  0.1076
   41CHL1  H23A 3020   4.156   3.183   4.912 -1.1301  0.7772  1.2756
   41CHL1  H23B 3021   4.312   3.265   4.913 -0.2037  0.3355 -1.5522
   41CHL1   C24 3022   4.223   3.214   5.115 -0.2121 -0.2340  0.3036
   41CHL1  H24A 3023   4.296   3.130   5.124  2.0889  1.7170  0.8284
   41CHL1  H24B 3024   4.280   3.286   5.178  1.4235 -0.7628 -0.5147
   41CHL1   C25 3025   4.100   3.149   5.184 -0.2399 -0.0112 -0.4250
   41CHL1   H25 3026   4.014   3.220   5.179 -1.1793 -1.1550 -0.8974
   41CHL1   C26 3027   4.053   3.021   5.116 -0.7258 -0.0187 -0.2337
   41CHL1  H26A 3028   4.007   3.054   5.020 -1.3126 -0.2707 -0.0435
   41CHL1  H26B 3029   4.137   2.955   5.085  0.1059  0.5738  0.6970
   41CHL1  H26C 3030   3.987   2.961   5.182 -0.3529 -0.8193 -0.5840
   41CHL1   C27 3031   4.128   3.123   5.331 -0.1341 -0.4407 -0.2646
   41CHL1  H27A 3032   4.226   3.073   5.349 -1.1838 -2.2817  0.6690
   41CHL1  H27B 3033   4.124   3.213   5.395  1.7233  1.0830 -2.1652
   41CHL1  H27C 3034   4.055   3.064   5.391 -0.7544  1.1914  0.6542
   42CHL1    C3 3035   5.323   1.744   3.733  0.3948  0.3793 -0.0845
   42CHL1    H3 3036   5.296   1.818   3.812 -2.0968 -1.1051  0.5672
   42CHL1    O3 3037   5.397   1.802   3.633  0.1366 -0.5965 -0.3584
   42CHL1   H3' 3038   5.399   1.751   3.552  0.5674 -0.3474 -0.5102
   42CHL1    C4 3039   5.409   1.646   3.812  0.2033  0.9101 -0.1528
   42CHL1   H4A 3040   5.459   1.577   3.740 -3.3156 -0.5421 -1.4492
   42CHL1   H4B 3041   5.490   1.712   3.849  1.5064 -1.5818  1.7922
   42CHL1    C5 3042   5.333   1.571   3.920 -0.4930  0.1547 -0.8141
   42CHL1    C6 3043   5.364   1.594   4.049  0.1432 -0.0963  0.5629
   42CHL1    H6 3044   5.445   1.664   4.077 -0.1403  0.1032  0.8906
   42CHL1    C7 3045   5.290   1.532   4.160 -0.4849 -0.6645 -0.0630
   42CHL1   H7A 3046   5.365   1.508   4.238 -0.9211  1.5114  1.1043
   42CHL1   H7B 3047   5.242   1.617   4.213  1.0355 -0.2792  0.7230
   42CHL1    C8 3048   5.189   1.425   4.122 -0.1001  0.4160 -0.1088
   42CHL1    H8 3049   5.242   1.332   4.091 -0.1263  0.8546 -1.5835
   42CHL1   C14 3050   5.099   1.394   4.244  0.1875 -0.2018  0.0658
   42CHL1   H14 3051   5.039   1.483   4.273 -1.0034 -1.1938  0.7799
   42CHL1   C15 3052   5.177   1.351   4.369 -0.1181 -0.4865  0.1864
   42CHL1  H15A 3053   5.273   1.298   4.347  0.4605  0.4189  0.4597
   42CHL1  H15B 3054   5.201   1.447   4.419 -0.6300 -0.6255  0.7053
   42CHL1   C16 3055   5.069   1.272   4.447  0.2568  0.1273  0.1652
   42CHL1  H16A 3056   5.089   1.163   4.448 -0.5288 -0.0294  1.1268
   42CHL1  H16B 3057   5.063   1.314   4.550 -0.7818 -2.1161  1.0826
   42CHL1   C17 3058   4.939   1.271   4.356  0.2524  0.0852 -0.2998
   42CHL1   H17 3059   4.903   1.368   4.397  1.4507 -0.0343  1.1315
   42CHL1   C13 3060   4.999   1.290   4.205  0.4783  0.1739 -0.7923
   42CHL1   C18 3061   5.052   1.159   4.168  0.4570  0.8160 -0.4903
   42CHL1  H18A 3062   5.100   1.156   4.068 -0.5971  0.7980 -1.0017
   42CHL1  H18B 3063   5.125   1.127   4.246 -0.2030  2.0066  0.6586
   42CHL1  H18C 3064   4.976   1.078   4.162  0.8532  0.4308 -0.3970
   42CHL1   C12 3065   4.903   1.346   4.096 -0.3157  0.1485  0.5360
   42CHL1  H12A 3066   4.819   1.279   4.068 -0.6437  1.1721 -1.0686
   42CHL1  H12B 3067   4.851   1.440   4.124  1.0622  0.6336  1.5612
   42CHL1   C11 3068   4.984   1.383   3.968 -0.4741 -0.1792  0.3187
   42CHL1  H11A 3069   5.021   1.291   3.918 -2.5888 -0.1299 -1.5194
   42CHL1  H11B 3070   4.924   1.425   3.884  1.2680 -0.8905 -1.3675
   42CHL1    C9 3071   5.107   1.474   4.002  0.1468 -0.7179 -0.4286
   42CHL1    H9 3072   5.051   1.567   4.024 -1.8549 -1.0529 -3.5624
   42CHL1   C10 3073   5.202   1.509   3.876 -0.2030  0.5596  0.0759
   42CHL1   C19 3074   5.233   1.372   3.801 -0.7764 -0.1527 -1.0948
   42CHL1  H19A 3075   5.331   1.380   3.748  0.0846 -0.5269  0.3907
   42CHL1  H19B 3076   5.250   1.296   3.880  0.3663 -1.3853 -2.4488
   42CHL1  H19C 3077   5.150   1.331   3.740 -2.6274  2.1939 -0.3152
   42CHL1    C1 3078   5.119   1.608   3.793  0.6964  0.4922 -0.3220
   42CHL1   H1A 3079   5.024   1.566   3.756  1.2837 -1.2509  0.0769
   42CHL1   H1B 3080   5.088   1.692   3.859 -1.0353 -1.1796  1.0658
   42CHL1    C2 3081   5.198   1.671   3.675  0.8114 -0.0854  0.1135
   42CHL1   H2A 3082   5.129   1.732   3.613  1.2049  0.2318 -0.0137
   42CHL1   H2B 3083   5.220   1.580   3.614 -0.0648 -0.5784  0.5133
   42CHL1   C20 3084   4.825   1.169   4.383 -0.4365 -0.4402  0.0265
   42CHL1   H20 3085   4.861   1.067   4.356  1.7215 -0.0379  1.1563
   42CHL1   C21 3086   4.691   1.207   4.308  0.1986  0.0917 -0.0149
   42CHL1  H21A 3087   4.602   1.159   4.354 -0.7405 -0.6005 -2.3779
   42CHL1  H21B 3088   4.696   1.175   4.201  2.1914  0.1063  0.0397
   42CHL1  H21C 3089   4.681   1.318   4.308 -1.3998 -0.0153 -0.8747
   42CHL1   C22 3090   4.791   1.159   4.535 -1.0764 -0.2074  0.1154
   42CHL1  H22A 3091   4.710   1.083   4.533 -0.9012 -0.4190 -3.0088
   42CHL1  H22B 3092   4.877   1.113   4.588 -0.8577  0.4991  0.3910
   42CHL1   C23 3093   4.745   1.283   4.615  0.0483 -0.3425  0.5456
   42CHL1  H23A 3094   4.812   1.370   4.599 -0.9031  0.2629 -0.2922
   42CHL1  H23B 3095   4.645   1.314   4.579  0.6079  0.9809  0.0974
   42CHL1   C24 3096   4.738   1.267   4.766  0.0546 -0.4399  0.4129
   42CHL1  H24A 3097   4.672   1.184   4.797 -0.7143  0.3250  0.8741
   42CHL1  H24B 3098   4.840   1.245   4.805  0.0143  2.5617  2.6021
   42CHL1   C25 3099   4.687   1.390   4.831  0.3042 -0.0435  0.3761
   42CHL1   H25 3100   4.589   1.407   4.780  0.2957 -1.2989 -0.0506
   42CHL1   C26 3101   4.666   1.371   4.982  0.0656 -0.0319  0.2946
   42CHL1  H26A 3102   4.651   1.472   5.025  0.8984  0.5114 -0.6583
   42CHL1  H26B 3103   4.581   1.307   5.013 -0.3278  0.7313  0.8234
   42CHL1  H26C 3104   4.758   1.325   5.027  0.3271 -0.4556 -0.6465
   42CHL1   C27 3105   4.787   1.509   4.807  0.1807 -0.6274  0.4607
   42CHL1  H27A 3106   4.795   1.542   4.701 -1.1813 -1.1216  0.1821
   42CHL1  H27B 3107   4.766   1.598   4.870  1.3485 -0.6190  0.8541
   42CHL1  H27C 3108   4.885   1.468   4.839  0.4275 -1.1185 -0.8389
   43CHL1    C3 3109   2.564   4.682   3.646  0.6158  0.6685  0.0635
   43CHL1    H3 3110   2.646   4.741   3.691 -0.4812  2.9936 -0.8218
   43CHL1    O3 3111   2.531   4.739   3.520  0.1375  0.1345 -0.3296
   43CHL1   H3' 3112   2.588   4.695   3.457 -0.2840 -0.8235 -0.0610
   43CHL1    C4 3113   2.618   4.543   3.603  0.2725 -0.0148 -0.6465
   43CHL1   H4A 3114   2.546   4.492   3.536  0.4378 -0.2360 -0.6533
   43CHL1   H4B 3115   2.710   4.567   3.545  0.3190 -0.3160 -0.6959
   43CHL1    C5 3116   2.641   4.455   3.724 -0.0257  0.5177 -0.6295
   43CHL1    C6 3117   2.765   4.407   3.761  0.2635  0.0020  0.4964
   43CHL1    H6 3118   2.851   4.434   3.699 -0.8102  0.1837 -0.9582
   43CHL1    C7 3119   2.788   4.318   3.883 -0.4169  0.3184  0.3236
   43CHL1   H7A 3120   2.850   4.235   3.843 -0.0026  0.1982  1.1935
   43CHL1   H7B 3121   2.833   4.378   3.965  1.1025 -0.5453  0.1554
   43CHL1    C8 3122   2.655   4.269   3.944  0.6801  0.6300 -0.6807
   43CHL1    H8 3123   2.612   4.195   3.873 -0.6184  2.5773 -2.0396
   43CHL1   C14 3124   2.680   4.202   4.081 -0.2747  0.0794 -0.3360
   43CHL1   H14 3125   2.721   4.285   4.142  0.9931 -0.5817 -0.2556
   43CHL1   C15 3126   2.784   4.089   4.091  0.1224 -0.0171 -0.1828
   43CHL1  H15A 3127   2.754   4.015   4.014  0.1048 -1.0834  0.8281
   43CHL1  H15B 3128   2.888   4.124   4.080  0.0718  0.7704  1.4845
   43CHL1   C16 3129   2.747   4.024   4.222 -0.0718 -0.3346  0.3283
   43CHL1  H16A 3130   2.743   3.914   4.203 -0.6118 -0.4883  1.2436
   43CHL1  H16B 3131   2.825   4.062   4.292  0.3503  1.6904 -1.1583
   43CHL1   C17 3132   2.621   4.090   4.275  0.5407  0.3259 -0.4141
   43CHL1   H17 3133   2.643   4.181   4.334 -1.2094  0.9675 -0.6901
   43CHL1   C13 3134   2.553   4.150   4.149  0.2572  0.0158  0.1578
   43CHL1   C18 3135   2.481   4.032   4.076  0.1864  0.6819 -0.1996
   43CHL1  H18A 3136   2.499   4.042   3.967  2.5026  2.9111  0.3023
   43CHL1  H18B 3137   2.528   3.938   4.110 -0.6375 -0.0608 -1.0528
   43CHL1  H18C 3138   2.375   4.025   4.110  0.1661  0.4905 -0.3037
   43CHL1   C12 3139   2.465   4.284   4.170 -0.5305  0.4495  0.2137
   43CHL1  H12A 3140   2.380   4.263   4.240 -2.9120 -0.2215 -2.6721
   43CHL1  H12B 3141   2.537   4.357   4.212  0.5963 -0.4824 -0.0725
   43CHL1   C11 3142   2.432   4.347   4.041 -0.4224 -0.5922 -0.2984
   43CHL1  H11A 3143   2.362   4.272   3.998 -2.0774  0.8029 -0.1836
   43CHL1  H11B 3144   2.360   4.431   4.056  0.4215  0.1885 -0.4814
   43CHL1    C9 3145   2.554   4.385   3.952 -0.2670  0.1185  0.1600
   43CHL1    H9 3146   2.609   4.459   4.014 -0.4776 -0.6053  1.2471
   43CHL1   C10 3147   2.521   4.444   3.818  0.2780  0.2959  0.1290
   43CHL1   C19 3148   2.410   4.360   3.748 -0.3900  0.4573 -0.4906
   43CHL1  H19A 3149   2.436   4.252   3.754  0.1572  0.6029 -0.1838
   43CHL1  H19B 3150   2.314   4.371   3.805  1.2507  0.0648  2.5979
   43CHL1  H19C 3151   2.393   4.377   3.640 -1.2818  2.8093 -0.0378
   43CHL1    C1 3152   2.466   4.585   3.853 -0.2415 -0.2835 -0.4470
   43CHL1   H1A 3153   2.370   4.577   3.909 -1.2383  1.0224 -1.8869
   43CHL1   H1B 3154   2.547   4.642   3.904 -1.0131  0.0413  0.4425
   43CHL1    C2 3155   2.438   4.669   3.726  0.3389 -0.2200  0.0533
   43CHL1   H2A 3156   2.403   4.774   3.739  3.7830  1.0180  0.2402
   43CHL1   H2B 3157   2.355   4.619   3.671 -0.0608  1.3112 -0.7781
   43CHL1   C20 3158   2.544   3.986   4.372 -0.8964 -0.4517  0.3640
   43CHL1   H20 3159   2.531   3.890   4.318  4.5857 -2.2449  1.5677
   43CHL1   C21 3160   2.410   4.051   4.419 -0.1293 -0.2132 -0.3048
   43CHL1  H21A 3161   2.425   4.148   4.471 -1.1392  0.4756 -1.2630
   43CHL1  H21B 3162   2.364   3.980   4.492  0.2901  0.7434  0.9275
   43CHL1  H21C 3163   2.343   4.067   4.331  1.4976  1.9432 -1.2246
   43CHL1   C22 3164   2.649   3.955   4.485  0.3485 -0.3279  0.0859
   43CHL1  H22A 3165   2.748   3.926   4.444 -0.2877 -0.9953 -1.0096
   43CHL1  H22B 3166   2.663   4.047   4.546  0.6464 -0.7706  0.6895
   43CHL1   C23 3167   2.603   3.843   4.582 -0.3162 -0.2590  0.0639
   43CHL1  H23A 3168   2.503   3.866   4.625 -0.8078 -1.4480 -0.4141
   43CHL1  H23B 3169   2.608   3.747   4.527  2.4566 -0.9870  1.4113
   43CHL1   C24 3170   2.693   3.829   4.707 -0.0272 -0.1331 -0.1651
   43CHL1  H24A 3171   2.791   3.790   4.674  0.0317 -1.7894  1.8203
   43CHL1  H24B 3172   2.704   3.928   4.756 -1.6497  0.3791 -0.7691
   43CHL1   C25 3173   2.635   3.740   4.817  0.7195  0.2493  0.3328
   43CHL1   H25 3174   2.538   3.789   4.839  1.4670  1.5462  0.8083
   43CHL1   C26 3175   2.600   3.602   4.764  0.0813  0.6903 -0.1831
   43CHL1  H26A 3176   2.520   3.601   4.687  0.6426 -0.1907 -0.7699
   43CHL1  H26B 3177   2.689   3.548   4.726  1.0369  1.4948  0.8684
   43CHL1  H26C 3178   2.561   3.543   4.849  0.4991  3.7979  2.3620
   43CHL1   C27 3179   2.739   3.731   4.927 -0.5457 -0.1406  0.6018
   43CHL1  H27A 3180   2.758   3.835   4.960 -1.7437 -0.0271  0.9960
   43CHL1  H27B 3181   2.700   3.670   5.012  1.5619 -0.5793  1.3113
   43CHL1  H27C 3182   2.841   3.703   4.895 -0.4215  0.4329  0.4818
   44CHL1    C3 3183   6.061   3.359   3.841 -0.6418  0.2797 -0.1559
   44CHL1    H3 3184   6.155   3.415   3.860  0.1144 -0.3696 -1.7918
   44CHL1    O3 3185   6.048   3.343   3.705  0.0873 -0.5542 -0.2256
   44CHL1   H3' 3186   5.954   3.323   3.710  0.4387 -3.1273 -2.0292
   44CHL1    C4 3187   6.072   3.231   3.922 -0.9036 -0.1576  0.0417
   44CHL1   H4A 3188   5.986   3.163   3.903 -1.0573  0.3655 -1.2494
   44CHL1   H4B 3189   6.158   3.177   3.876 -0.6344  2.0706 -2.2854
   44CHL1    C5 3190   6.096   3.264   4.072  1.0017 -0.1132 -0.0869
   44CHL1    C6 3191   6.200   3.208   4.142  0.0738 -0.5395 -0.1893
   44CHL1    H6 3192   6.286   3.155   4.097  0.4040 -1.7150  1.7138
   44CHL1    C7 3193   6.229   3.241   4.282 -0.2693 -0.5543 -0.1102
   44CHL1   H7A 3194   6.256   3.147   4.336 -0.9689 -0.6361  0.1088
   44CHL1   H7B 3195   6.302   3.322   4.301 -0.4875 -0.8598  2.4160
   44CHL1    C8 3196   6.110   3.297   4.353  0.8186 -0.6024  0.5971
   44CHL1    H8 3197   6.038   3.214   4.368 -0.1455 -0.2759 -1.6631
   44CHL1   C14 3198   6.143   3.355   4.492 -0.5579 -0.0542 -0.5637
   44CHL1   H14 3199   6.212   3.441   4.481 -1.7860  1.3997  1.9496
   44CHL1   C15 3200   6.218   3.261   4.592  0.5236  0.3332  0.1773
   44CHL1  H15A 3201   6.164   3.164   4.597 -0.4593  0.8966  0.8803
   44CHL1  H15B 3202   6.321   3.242   4.555  0.1949  3.1275 -2.6064
   44CHL1   C16 3203   6.201   3.314   4.729 -0.0749  0.2425 -0.4125
   44CHL1  H16A 3204   6.173   3.238   4.805  2.9265  0.6508  1.2567
   44CHL1  H16B 3205   6.303   3.353   4.753  0.1661 -0.3978 -0.3668
   44CHL1   C17 3206   6.105   3.438   4.714 -0.2662  0.7506  0.2437
   44CHL1   H17 3207   6.171   3.522   4.684 -1.1363  1.9688  1.6230
   44CHL1   C13 3208   6.028   3.418   4.577 -0.4962  0.0113  0.6777
   44CHL1   C18 3209   5.922   3.312   4.607 -0.4435 -0.5079  0.0153
   44CHL1  H18A 3210   5.894   3.254   4.517 -0.9169  0.5650 -0.5584
   44CHL1  H18B 3211   5.953   3.230   4.676 -0.8337 -3.0526 -2.6604
   44CHL1  H18C 3212   5.828   3.358   4.645  1.0186  0.9826  2.0504
   44CHL1   C12 3213   5.969   3.538   4.494 -0.3901 -0.0096 -0.2033
   44CHL1  H12A 3214   5.883   3.576   4.554 -1.9114 -3.0076 -0.3030
   44CHL1  H12B 3215   6.044   3.618   4.478 -0.6865  0.4554  0.6180
   44CHL1   C11 3216   5.932   3.485   4.354  0.8131 -0.0470 -0.4492
   44CHL1  H11A 3217   5.848   3.418   4.381 -0.7013  0.9094 -2.4958
   44CHL1  H11B 3218   5.903   3.577   4.299  0.0223 -0.1316 -0.1747
   44CHL1    C9 3219   6.041   3.405   4.272  0.5370 -0.5089  0.1078
   44CHL1    H9 3220   6.117   3.480   4.242  2.7293 -3.6719 -3.1546
   44CHL1   C10 3221   5.983   3.355   4.133 -1.0232  0.0495 -0.1626
   44CHL1   C19 3222   5.863   3.262   4.141 -0.0853  0.4209 -0.1218
   44CHL1  H19A 3223   5.772   3.320   4.167 -0.6446 -0.5317  0.0804
   44CHL1  H19B 3224   5.842   3.210   4.045 -0.0086 -0.3318  0.2645
   44CHL1  H19C 3225   5.878   3.187   4.221 -2.5730  0.5273  0.5174
   44CHL1    C1 3226   5.958   3.478   4.040  0.3408 -0.3462 -0.0524
   44CHL1   H1A 3227   5.870   3.531   4.083  0.4545 -0.8600  0.8366
   44CHL1   H1B 3228   6.045   3.547   4.038 -0.0697  0.1692 -1.3829
   44CHL1    C2 3229   5.938   3.425   3.891 -0.2894 -1.1190 -0.1882
   44CHL1   H2A 3230   5.921   3.516   3.829 -0.2633  0.8378  2.4769
   44CHL1   H2B 3231   5.842   3.370   3.885 -0.1782 -1.3237 -0.1116
   44CHL1   C20 3232   6.031   3.472   4.845 -0.0963 -0.4322 -0.5211
   44CHL1   H20 3233   5.959   3.388   4.833  0.9996 -1.3425 -0.9116
   44CHL1   C21 3234   5.951   3.612   4.838 -0.0955 -0.0725  0.4066
   44CHL1  H21A 3235   6.029   3.690   4.826  1.4413 -1.7922 -1.5311
   44CHL1  H21B 3236   5.891   3.625   4.930 -1.0064  1.4376 -0.3732
   44CHL1  H21C 3237   5.888   3.621   4.746 -0.5441 -0.1140  0.7077
   44CHL1   C22 3238   6.108   3.449   4.981  0.4480 -0.2545  0.1351
   44CHL1  H22A 3239   6.194   3.379   4.972  0.3337 -0.4389  0.4727
   44CHL1  H22B 3240   6.140   3.549   5.016  1.5920 -0.4809 -0.2320
   44CHL1   C23 3241   6.004   3.385   5.068  0.0668  0.7097 -0.9184
   44CHL1  H23A 3242   5.907   3.436   5.087  0.1418  0.4739  0.1992
   44CHL1  H23B 3243   5.980   3.284   5.031 -1.8761  1.2668 -1.2533
   44CHL1   C24 3244   6.071   3.369   5.207 -0.1403  0.2665  0.3955
   44CHL1  H24A 3245   6.149   3.290   5.206 -3.3417 -3.1659 -0.0260
   44CHL1  H24B 3246   6.119   3.463   5.240  0.9893 -0.7705  1.8464
   44CHL1   C25 3247   5.976   3.316   5.319  0.1866 -0.4507 -0.4509
   44CHL1   H25 3248   5.885   3.379   5.314  1.0442  0.8799  0.1299
   44CHL1   C26 3249   5.926   3.177   5.284  0.4999  0.4159 -0.7569
   44CHL1  H26A 3250   6.005   3.101   5.266 -0.3800 -0.6246 -0.4076
   44CHL1  H26B 3251   5.862   3.136   5.365  1.6371 -2.2434 -1.0716
   44CHL1  H26C 3252   5.865   3.184   5.191  1.0616  0.9707 -1.0892
   44CHL1   C27 3253   6.034   3.325   5.463 -0.0011  0.2223 -0.3264
   44CHL1  H27A 3254   6.064   3.430   5.481 -0.9472  0.1176  2.3631
   44CHL1  H27B 3255   5.966   3.289   5.543  0.0115  3.2674  1.1962
   44CHL1  H27C 3256   6.124   3.261   5.471 -0.0786  0.1810  0.2609
   45CHL1    C3 3257   0.666   2.426   3.568  0.0070  0.8700 -0.1796
   45CHL1    H3 3258   0.740   2.508   3.579  1.5852 -0.5408  0.0815
   45CHL1    O3 3259   0.652   2.392   3.432  0.0897 -0.3220  0.2250
   45CHL1   H3' 3260   0.579   2.330   3.430  0.4180 -0.7108 -1.2858
   45CHL1    C4 3261   0.718   2.305   3.652 -0.2615 -0.1647 -0.7647
   45CHL1   H4A 3262   0.662   2.211   3.636 -1.9696  0.0954  2.6599
   45CHL1   H4B 3263   0.821   2.286   3.615  0.0947 -1.8986  0.9440
   45CHL1    C5 3264   0.719   2.326   3.800 -0.1128  0.0277  0.3482
   45CHL1    C6 3265   0.839   2.315   3.864  0.4664 -0.1805  0.4057
   45CHL1    H6 3266   0.926   2.281   3.805  1.1225  0.4976  0.9684
   45CHL1    C7 3267   0.859   2.326   4.007  0.0509 -0.5183 -0.3197
   45CHL1   H7A 3268   0.935   2.251   4.038 -0.3922 -1.8460 -2.2153
   45CHL1   H7B 3269   0.893   2.429   4.029 -2.0286  1.1470 -3.9141
   45CHL1    C8 3270   0.720   2.331   4.088  0.2181 -0.1680  0.8959
   45CHL1    H8 3271   0.685   2.228   4.111  0.9902 -0.5823  0.2853
   45CHL1   C14 3272   0.728   2.391   4.230 -0.7073  0.2408 -0.1875
   45CHL1   H14 3273   0.769   2.494   4.222  0.4878 -0.1127  1.0421
   45CHL1   C15 3274   0.830   2.326   4.323  0.2366 -0.5741 -0.0585
   45CHL1  H15A 3275   0.829   2.215   4.322  0.2848 -0.5730 -0.2521
   45CHL1  H15B 3276   0.932   2.358   4.290  0.2587 -0.4995  0.0807
   45CHL1   C16 3277   0.799   2.379   4.467  0.3934 -0.0738  0.1598
   45CHL1  H16A 3278   0.808   2.300   4.545 -1.6352 -0.2597  0.2577
   45CHL1  H16B 3279   0.869   2.457   4.506 -1.4958  1.2637  1.0189
   45CHL1   C17 3280   0.656   2.442   4.456 -1.3087 -0.3551  0.5046
   45CHL1   H17 3281   0.671   2.552   4.451 -3.3383 -0.0817 -0.7507
   45CHL1   C13 3282   0.602   2.391   4.320  0.1121 -0.7243  0.1639
   45CHL1   C18 3283   0.542   2.243   4.339 -0.4845 -0.1512 -0.1035
   45CHL1  H18A 3284   0.439   2.254   4.379 -0.7263  1.4179 -1.0801
   45CHL1  H18B 3285   0.526   2.205   4.236  1.5131 -2.4162  0.3491
   45CHL1  H18C 3286   0.602   2.170   4.397  0.6221  0.3120 -0.6436
   45CHL1   C12 3287   0.506   2.485   4.245 -0.5260 -0.6204 -0.1000
   45CHL1  H12A 3288   0.404   2.492   4.289 -0.8016  2.3504 -0.9940
   45CHL1  H12B 3289   0.559   2.583   4.244  0.1918 -0.9392  1.8321
   45CHL1   C11 3290   0.485   2.443   4.096 -0.2774  0.2322 -0.2643
   45CHL1  H11A 3291   0.431   2.346   4.091  4.4173 -2.7209  0.2874
   45CHL1  H11B 3292   0.430   2.524   4.044 -0.5389  0.9326  1.0584
   45CHL1    C9 3293   0.618   2.411   4.011  0.5854 -0.4831  0.3203
   45CHL1    H9 3294   0.662   2.513   4.013 -0.1443 -0.1610  0.5934
   45CHL1   C10 3295   0.586   2.382   3.859  0.6613  0.0071  0.0156
   45CHL1   C19 3296   0.489   2.265   3.848  0.4653  0.2775  0.9519
   45CHL1  H19A 3297   0.534   2.181   3.905  0.7476  1.3714  2.4217
   45CHL1  H19B 3298   0.391   2.290   3.895  0.2082  1.4138 -0.1429
   45CHL1  H19C 3299   0.463   2.241   3.743 -1.0612 -0.8341  1.5382
   45CHL1    C1 3300   0.547   2.506   3.769 -0.1691 -0.4006 -0.6716
   45CHL1   H1A 3301   0.456   2.546   3.819 -0.9166 -0.5563 -1.8613
   45CHL1   H1B 3302   0.617   2.589   3.791 -0.9758 -0.3846  2.2645
   45CHL1    C2 3303   0.529   2.477   3.618  0.1877  0.0688 -0.4046
   45CHL1   H2A 3304   0.516   2.570   3.559 -1.3755 -0.3217 -0.7064
   45CHL1   H2B 3305   0.442   2.409   3.610  1.3965 -1.5152 -0.6624
   45CHL1   C20 3306   0.572   2.435   4.583  0.4134 -0.5385  0.5506
   45CHL1   H20 3307   0.546   2.332   4.616  0.2028 -0.2812  1.2156
   45CHL1   C21 3308   0.434   2.505   4.569  0.0380 -0.0470 -0.3066
   45CHL1  H21A 3309   0.427   2.605   4.521 -0.7750 -0.0324 -0.1725
   45CHL1  H21B 3310   0.388   2.496   4.670  0.7146 -3.7186 -0.2088
   45CHL1  H21C 3311   0.364   2.440   4.513  0.7526 -0.9307 -0.1932
   45CHL1   C22 3312   0.644   2.491   4.700 -0.3461 -0.1237 -0.2162
   45CHL1  H22A 3313   0.748   2.452   4.708 -0.0080  0.6367 -0.7676
   45CHL1  H22B 3314   0.653   2.601   4.684 -0.4228  0.1464  1.4190
   45CHL1   C23 3315   0.584   2.462   4.835  0.1662  0.0089  0.2688
   45CHL1  H23A 3316   0.510   2.543   4.852 -0.4420 -0.2200 -1.1258
   45CHL1  H23B 3317   0.525   2.369   4.848 -1.5155  0.8427 -1.0061
   45CHL1   C24 3318   0.689   2.476   4.943 -0.7710  0.4755  0.3944
   45CHL1  H24A 3319   0.783   2.429   4.907 -0.2920  0.4012  1.7061
   45CHL1  H24B 3320   0.716   2.581   4.965 -0.9045  0.9845 -1.6978
   45CHL1   C25 3321   0.638   2.407   5.076  0.4895 -0.3130  0.0091
   45CHL1   H25 3322   0.601   2.305   5.051 -0.7933  0.3001 -0.7204
   45CHL1   C26 3323   0.754   2.407   5.171 -0.4087  0.5686  0.0386
   45CHL1  H26A 3324   0.733   2.344   5.260 -0.8131  0.0208 -0.4391
   45CHL1  H26B 3325   0.852   2.375   5.130  0.0138  0.7561  0.8813
   45CHL1  H26C 3326   0.775   2.512   5.200 -1.9700  0.2877  2.4788
   45CHL1   C27 3327   0.519   2.474   5.142  0.6547 -0.7304 -0.0795
   45CHL1  H27A 3328   0.498   2.423   5.238 -2.3488 -0.4493 -0.4873
   45CHL1  H27B 3329   0.544   2.580   5.163 -2.0422 -0.2850  1.3749
   45CHL1  H27C 3330   0.427   2.477   5.079  0.5356 -1.9198  0.0095
   46CHL1    C3 3331   2.648   6.014   3.515  0.3012 -0.6631  0.2032
   46CHL1    H3 3332   2.749   6.013   3.561  0.1490  1.6001  0.7119
   46CHL1    O3 3333   2.653   6.036   3.380  0.1382  0.2283  0.0969
   46CHL1   H3' 3334   2.566   6.005   3.354  1.1852 -2.2083 -0.8114
   46CHL1    C4 3335   2.567   5.885   3.552  0.3781  0.1171  0.5376
   46CHL1   H4A 3336   2.471   5.892   3.497  0.6890  0.3724  0.0184
   46CHL1   H4B 3337   2.599   5.793   3.498 -1.1778 -1.9556  2.8792
   46CHL1    C5 3338   2.548   5.864   3.697  0.1214  0.6258 -0.4520
   46CHL1    C6 3339   2.591   5.748   3.756 -0.0667 -0.0240  0.1296
   46CHL1    H6 3340   2.629   5.666   3.694 -2.2272  0.1681 -1.5505
   46CHL1    C7 3341   2.572   5.715   3.905  0.1294  0.4053  0.4851
   46CHL1   H7A 3342   2.530   5.612   3.917  1.7048 -0.4113 -0.6193
   46CHL1   H7B 3343   2.674   5.714   3.948 -0.3163 -0.4187  1.5828
   46CHL1    C8 3344   2.478   5.821   3.977 -0.1798 -0.1481  0.3649
   46CHL1    H8 3345   2.369   5.801   3.964 -0.1787  0.5389 -0.8777
   46CHL1   C14 3346   2.514   5.810   4.123 -0.5337  0.5642 -0.3640
   46CHL1   H14 3347   2.621   5.837   4.133 -0.7780  1.1801  0.8245
   46CHL1   C15 3348   2.513   5.677   4.197  0.3948  0.4063 -0.2156
   46CHL1  H15A 3349   2.432   5.603   4.179 -0.4543  1.1934  0.3176
   46CHL1  H15B 3350   2.592   5.613   4.151  1.3733  2.2053 -1.1604
   46CHL1   C16 3351   2.524   5.717   4.345 -0.5518 -0.6939  0.1707
   46CHL1  H16A 3352   2.435   5.676   4.398  1.5384 -2.5136  2.5887
   46CHL1  H16B 3353   2.620   5.684   4.392  0.8189  2.6479 -0.0360
   46CHL1   C17 3354   2.521   5.870   4.348  0.2520 -0.2113  1.3099
   46CHL1   H17 3355   2.626   5.906   4.336  0.1643  0.3130  2.0605
   46CHL1   C13 3356   2.450   5.912   4.219  0.6425 -0.6823  0.2341
   46CHL1   C18 3357   2.297   5.880   4.234  0.7357  0.4990  0.5306
   46CHL1  H18A 3358   2.277   5.772   4.246  2.4338  0.3365  2.5614
   46CHL1  H18B 3359   2.250   5.935   4.319  1.2408  1.1092  0.4266
   46CHL1  H18C 3360   2.240   5.904   4.142 -2.2049 -1.5938  1.6639
   46CHL1   C12 3361   2.472   6.053   4.164  0.0703  0.6126 -0.1354
   46CHL1  H12A 3362   2.412   6.117   4.232  0.6688 -2.3345  3.4717
   46CHL1  H12B 3363   2.577   6.087   4.177  0.1541  0.2448  0.1789
   46CHL1   C11 3364   2.432   6.074   4.019 -0.7903  0.7408  0.0654
   46CHL1  H11A 3365   2.326   6.042   4.013 -0.4101 -0.4550 -0.6139
   46CHL1  H11B 3366   2.440   6.182   3.996 -0.2085  0.5567 -0.6129
   46CHL1    C9 3367   2.512   5.965   3.929 -0.0602  0.6531 -0.7784
   46CHL1    H9 3368   2.621   5.970   3.947  0.3990 -4.7082 -0.6007
   46CHL1   C10 3369   2.487   5.990   3.774 -0.4492  0.3587  0.2634
   46CHL1   C19 3370   2.337   5.984   3.739  0.0773  0.6881  0.0182
   46CHL1  H19A 3371   2.304   5.965   3.635 -0.0224  0.5365  0.0764
   46CHL1  H19B 3372   2.293   5.902   3.800  1.2939 -0.0281 -0.0328
   46CHL1  H19C 3373   2.278   6.072   3.772 -2.2636 -0.1669 -1.6239
   46CHL1    C1 3374   2.551   6.122   3.737 -0.1790 -0.4818 -0.1432
   46CHL1   H1A 3375   2.489   6.208   3.770  0.4744 -0.7560  1.9361
   46CHL1   H1B 3376   2.645   6.127   3.796 -0.8833  1.8057  0.8933
   46CHL1    C2 3377   2.580   6.138   3.582 -0.6080 -0.4144  0.2048
   46CHL1   H2A 3378   2.645   6.226   3.562  0.2135 -1.3215 -1.3429
   46CHL1   H2B 3379   2.481   6.164   3.539 -0.1537 -0.4083 -0.8765
   46CHL1   C20 3380   2.482   5.922   4.491 -0.1836 -0.3234 -0.3130
   46CHL1   H20 3381   2.371   5.929   4.493 -0.1826 -0.0724 -1.0182
   46CHL1   C21 3382   2.518   6.073   4.494 -0.0868 -0.4669 -0.1524
   46CHL1  H21A 3383   2.448   6.140   4.439 -0.1156 -0.6735 -0.3718
   46CHL1  H21B 3384   2.623   6.092   4.464  0.1388 -0.9222  0.3358
   46CHL1  H21C 3385   2.519   6.099   4.602 -1.5004  0.8012 -0.4141
   46CHL1   C22 3386   2.518   5.842   4.623  0.1655 -0.0294  0.1984
   46CHL1  H22A 3387   2.487   5.738   4.603  2.3494 -0.3871 -1.7067
   46CHL1  H22B 3388   2.629   5.834   4.622  0.1888  0.2890  0.0334
   46CHL1   C23 3389   2.466   5.889   4.763  0.4289  1.2902  0.2389
   46CHL1  H23A 3390   2.541   5.968   4.786  0.2173  1.7015 -0.4461
   46CHL1  H23B 3391   2.367   5.939   4.758  0.7586  1.8871 -0.5353
   46CHL1   C24 3392   2.469   5.772   4.873  0.4800 -0.2319  0.2048
   46CHL1  H24A 3393   2.419   5.677   4.844  0.5236 -0.0719 -0.4190
   46CHL1  H24B 3394   2.579   5.761   4.865  0.7290  0.3101  2.3004
   46CHL1   C25 3395   2.438   5.814   5.020  0.3167  0.1816 -0.9740
   46CHL1   H25 3396   2.344   5.872   5.019 -1.6047 -2.7268 -1.0496
   46CHL1   C26 3397   2.431   5.686   5.114  0.0502  0.3210  0.2917
   46CHL1  H26A 3398   2.343   5.628   5.081  2.1407 -1.9658 -1.7049
   46CHL1  H26B 3399   2.507   5.609   5.088 -0.6086 -0.2244 -0.0650
   46CHL1  H26C 3400   2.423   5.721   5.219  0.7765  0.0747  0.4330
   46CHL1   C27 3401   2.546   5.897   5.093  0.2411  0.5240  0.0821
   46CHL1  H27A 3402   2.523   5.903   5.201 -0.1457  0.1949  0.0186
   46CHL1  H27B 3403   2.638   5.834   5.095 -1.4982 -2.1725  1.9156
   46CHL1  H27C 3404   2.560   6.003   5.061 -1.9955  0.8738  0.0741
   47CHL1    C3 3405   0.931   5.313   3.623  0.0052  0.1704 -0.0628
   47CHL1    H3 3406   0.853   5.237   3.647 -0.7719  0.7852 -0.5844
   47CHL1    O3 3407   0.925   5.349   3.487 -0.4580  0.5700 -0.6464
   47CHL1   H3' 3408   0.984   5.423   3.476  2.5233 -1.2134  1.6335
   47CHL1    C4 3409   0.894   5.434   3.708  0.0558 -0.4229 -0.0859
   47CHL1   H4A 3410   0.959   5.519   3.678 -1.2014 -0.0148 -1.8371
   47CHL1   H4B 3411   0.790   5.460   3.679  0.3733 -1.7321 -2.6193
   47CHL1    C5 3412   0.901   5.399   3.858  0.1250  1.0558  0.1849
   47CHL1    C6 3413   0.787   5.408   3.932  0.1205  0.0231 -0.2315
   47CHL1    H6 3414   0.687   5.434   3.894 -0.2785  0.3486  0.9787
   47CHL1    C7 3415   0.793   5.391   4.082  0.3455 -0.1762 -0.4429
   47CHL1   H7A 3416   0.732   5.473   4.125  0.4752 -0.7329  0.8244
   47CHL1   H7B 3417   0.738   5.297   4.105  0.1870  0.0897  0.2693
   47CHL1    C8 3418   0.935   5.389   4.136 -0.1509  0.1937  0.0000
   47CHL1    H8 3419   0.984   5.489   4.136 -0.2710  0.2885 -1.9176
   47CHL1   C14 3420   0.926   5.336   4.282 -0.8350  0.2346 -0.0699
   47CHL1   H14 3421   0.871   5.240   4.272  1.3925 -1.1374  0.4053
   47CHL1   C15 3422   0.844   5.423   4.385 -0.0691  0.4409  0.4611
   47CHL1  H15A 3423   0.856   5.533   4.372  2.1681  0.0504 -1.5014
   47CHL1  H15B 3424   0.737   5.399   4.372 -0.4700  1.9198  0.8140
   47CHL1   C16 3425   0.898   5.375   4.521 -0.0124 -0.2976 -0.0937
   47CHL1  H16A 3426   0.933   5.460   4.583  3.1453 -2.6249  1.6661
   47CHL1  H16B 3427   0.820   5.320   4.579 -0.6678  0.4916 -0.2124
   47CHL1   C17 3428   1.023   5.284   4.496  0.8339  0.0932  0.0370
   47CHL1   H17 3429   0.976   5.184   4.497  2.7844 -0.9314 -2.2172
   47CHL1   C13 3430   1.061   5.310   4.348 -0.5220  0.2033  0.0292
   47CHL1   C18 3431   1.150   5.437   4.338 -0.3444 -0.1389  0.2256
   47CHL1  H18A 3432   1.249   5.413   4.382  0.2225 -2.1382 -1.9554
   47CHL1  H18B 3433   1.171   5.478   4.237 -0.9870  0.5921  0.3758
   47CHL1  H18C 3434   1.118   5.529   4.393  0.6631 -0.6864  1.8139
   47CHL1   C12 3435   1.125   5.194   4.276  0.3747 -0.2252 -0.0537
   47CHL1  H12A 3436   1.223   5.166   4.319  0.9492  1.0355 -0.4989
   47CHL1  H12B 3437   1.070   5.098   4.282 -0.0320 -0.0802 -1.2158
   47CHL1   C11 3438   1.135   5.226   4.123 -0.3005 -0.4625 -0.3941
   47CHL1  H11A 3439   1.219   5.298   4.116 -1.1449  0.5514 -0.3320
   47CHL1  H11B 3440   1.178   5.135   4.075 -0.1462  0.1279 -1.3913
   47CHL1    C9 3441   1.013   5.289   4.051  0.8510 -0.1835  0.7119
   47CHL1    H9 3442   0.940   5.205   4.050 -1.1709  1.5013  1.2114
   47CHL1   C10 3443   1.036   5.347   3.905 -0.7392  0.3538 -1.2321
   47CHL1   C19 3444   1.146   5.455   3.914  0.7040 -0.3195 -0.5649
   47CHL1  H19A 3445   1.168   5.498   3.813 -1.5298 -0.4493 -1.1508
   47CHL1  H19B 3446   1.107   5.541   3.972  1.2196  1.7176 -3.0600
   47CHL1  H19C 3447   1.237   5.412   3.960 -0.5237 -1.6070  0.7337
   47CHL1    C1 3448   1.086   5.234   3.804  0.3153  0.2786  0.4354
   47CHL1   H1A 3449   1.193   5.219   3.830  0.3483 -0.8110 -0.2918
   47CHL1   H1B 3450   1.024   5.145   3.825  0.6601 -0.2109 -0.5908
   47CHL1    C2 3451   1.073   5.257   3.655 -0.2969  0.1214  0.4107
   47CHL1   H2A 3452   1.089   5.160   3.603  1.7154 -0.0441  1.2321
   47CHL1   H2B 3453   1.153   5.317   3.607  1.0544 -2.3773 -0.6479
   47CHL1   C20 3454   1.135   5.289   4.603 -0.1764  0.0737 -0.0996
   47CHL1   H20 3455   1.182   5.390   4.603  1.6398 -0.7032  1.6916
   47CHL1   C21 3456   1.242   5.182   4.587  0.5024 -0.0606 -0.4816
   47CHL1  H21A 3457   1.304   5.196   4.495 -0.0231  1.8392 -0.5862
   47CHL1  H21B 3458   1.202   5.079   4.578 -0.9177  0.5575 -1.4966
   47CHL1  H21C 3459   1.297   5.179   4.684 -1.3271 -0.5971  0.5824
   47CHL1   C22 3460   1.074   5.291   4.746  0.2912  1.0332 -0.5233
   47CHL1  H22A 3461   1.156   5.297   4.820  1.4135 -0.1029 -1.6237
   47CHL1  H22B 3462   1.004   5.373   4.772 -3.4037 -1.7690 -0.8967
   47CHL1   C23 3463   0.980   5.172   4.788  0.1580  0.2211  0.3101
   47CHL1  H23A 3464   0.889   5.166   4.725  0.6058 -0.1043 -0.3246
   47CHL1  H23B 3465   1.038   5.079   4.771  0.8966  0.7264 -0.0462
   47CHL1   C24 3466   0.936   5.196   4.934 -0.4277 -0.0263  0.1445
   47CHL1  H24A 3467   1.027   5.205   4.998  0.1758  0.5330 -0.7737
   47CHL1  H24B 3468   0.889   5.296   4.944 -0.3623  0.0148  0.0410
   47CHL1   C25 3469   0.839   5.100   5.002  0.0278 -0.3812  0.2004
   47CHL1   H25 3470   0.748   5.118   4.940  0.9135  1.9916 -0.5026
   47CHL1   C26 3471   0.891   4.952   4.979  0.1115 -0.2529  0.1496
   47CHL1  H26A 3472   0.824   4.871   5.015 -0.5485  0.5500  0.7508
   47CHL1  H26B 3473   0.880   4.939   4.869  0.9408 -0.5165  0.0850
   47CHL1  H26C 3474   0.996   4.928   5.009  0.0843 -1.4672 -0.6291
   47CHL1   C27 3475   0.802   5.139   5.150 -0.3432  0.0556 -0.3105
   47CHL1  H27A 3476   0.894   5.111   5.205  0.0966 -1.0561 -1.5672
   47CHL1  H27B 3477   0.778   5.243   5.182 -1.1084 -0.7515  1.8914
   47CHL1  H27C 3478   0.721   5.073   5.186  0.3568 -1.0195 -0.6784
   48CHL1    C3 3479   5.907   0.286   3.694  0.5835  0.5202  0.6841
   48CHL1    H3 3480   6.014   0.273   3.665  1.2637  4.7630  0.6901
   48CHL1    O3 3481   5.838   0.341   3.584  0.4623 -0.2816 -0.4949
   48CHL1   H3' 3482   5.755   0.371   3.621  0.7148  1.2728 -1.1099
   48CHL1    C4 3483   5.837   0.156   3.723  0.0395  0.1559 -1.0424
   48CHL1   H4A 3484   5.727   0.166   3.740  0.1803  0.1514 -0.0739
   48CHL1   H4B 3485   5.866   0.092   3.637  0.0136  0.3252 -1.1778
   48CHL1    C5 3486   5.880   0.092   3.849  0.1333 -0.3269  0.1282
   48CHL1    C6 3487   5.934  -0.033   3.852  0.0175 -0.3735  0.4174
   48CHL1    H6 3488   5.937  -0.091   3.759  1.5559  1.2772 -0.6198
   48CHL1    C7 3489   5.984  -0.095   3.984 -0.3598  0.5784  0.3832
   48CHL1   H7A 3490   5.959  -0.203   3.993 -1.1298  0.6570 -0.5845
   48CHL1   H7B 3491   6.092  -0.087   4.007 -0.1365 -2.2851  0.7485
   48CHL1    C8 3492   5.916  -0.025   4.116  0.3844  0.6741  0.2630
   48CHL1    H8 3493   5.807  -0.049   4.119  0.3563  0.8410  1.9376
   48CHL1   C14 3494   5.988  -0.082   4.232  0.4673  0.0918  0.1443
   48CHL1   H14 3495   6.095  -0.053   4.223  1.8771 -4.2048  0.7350
   48CHL1   C15 3496   5.986  -0.241   4.248  0.0735  0.1559 -0.2869
   48CHL1  H15A 3497   5.880  -0.273   4.239 -0.7272  2.4516  0.2702
   48CHL1  H15B 3498   6.040  -0.307   4.176 -1.5277 -1.4284 -0.1114
   48CHL1   C16 3499   6.023  -0.259   4.396 -0.1878 -0.1433 -0.0102
   48CHL1  H16A 3500   5.940  -0.321   4.437  0.3216 -0.9109 -0.1231
   48CHL1  H16B 3501   6.117  -0.317   4.408  0.9385  1.9999  2.2945
   48CHL1   C17 3502   6.029  -0.116   4.460  0.8529 -0.8759  0.9057
   48CHL1   H17 3503   6.132  -0.073   4.467  0.2730  0.7662 -0.0866
   48CHL1   C13 3504   5.941  -0.033   4.369  0.1298  0.2828 -0.2125
   48CHL1   C18 3505   5.794  -0.066   4.393  0.0723  0.5845 -0.2551
   48CHL1  H18A 3506   5.740  -0.007   4.315 -0.4862  1.3138  0.6626
   48CHL1  H18B 3507   5.765  -0.173   4.390  0.9328  0.2577  1.5638
   48CHL1  H18C 3508   5.754  -0.031   4.491  0.9837 -1.7250  1.0114
   48CHL1   C12 3509   5.974   0.117   4.366 -0.0362 -0.0134 -0.5641
   48CHL1  H12A 3510   5.927   0.181   4.443 -2.1071  0.8282 -2.3988
   48CHL1  H12B 3511   6.081   0.137   4.385 -0.2416 -0.0941  0.7746
   48CHL1   C11 3512   5.911   0.182   4.247  0.5805 -0.1218  1.1115
   48CHL1  H11A 3513   5.800   0.185   4.252  0.5431  2.9445  0.4695
   48CHL1  H11B 3514   5.927   0.292   4.238 -0.4466  0.0613  1.2944
   48CHL1    C9 3515   5.935   0.125   4.106 -0.5728  0.1960 -0.5550
   48CHL1    H9 3516   6.044   0.136   4.092 -0.5583  0.0721 -0.5455
   48CHL1   C10 3517   5.863   0.179   3.977  0.2939 -0.6778 -0.7364
   48CHL1   C19 3518   5.711   0.207   3.998  0.1570  0.0925  0.9084
   48CHL1  H19A 3519   5.684   0.283   4.074  1.5244  1.6949 -0.1381
   48CHL1  H19B 3520   5.666   0.267   3.916  0.6875 -0.8488 -0.1097
   48CHL1  H19C 3521   5.650   0.114   4.009 -1.9534  1.5894  2.8025
   48CHL1    C1 3522   5.931   0.316   3.946 -0.0224  0.1522  0.1362
   48CHL1   H1A 3523   5.900   0.389   4.025  1.0868  0.2947  0.4513
   48CHL1   H1B 3524   6.040   0.309   3.964 -0.0761  0.6013  0.6955
   48CHL1    C2 3525   5.891   0.385   3.814  0.4538  0.6653 -0.4962
   48CHL1   H2A 3526   5.934   0.485   3.791  0.1427  0.7170 -0.8606
   48CHL1   H2B 3527   5.782   0.404   3.813  0.2926 -0.2202 -1.1855
   48CHL1   C20 3528   5.996  -0.128   4.612 -0.1578 -0.6148  0.5067
   48CHL1   H20 3529   5.898  -0.180   4.618 -0.6125  0.2440  0.6369
   48CHL1   C21 3530   5.987   0.012   4.674 -0.0323  0.0150  0.3393
   48CHL1  H21A 3531   5.966   0.022   4.782  0.7644  1.5235  0.3749
   48CHL1  H21B 3532   5.915   0.078   4.620  1.8773  1.3648 -0.6976
   48CHL1  H21C 3533   6.084   0.062   4.659  0.1488  0.3540  2.4078
   48CHL1   C22 3534   6.099  -0.205   4.692  0.0525  0.3573 -0.0005
   48CHL1  H22A 3535   6.132  -0.292   4.631 -3.0498 -1.3185  0.5072
   48CHL1  H22B 3536   6.186  -0.136   4.698  0.6888 -0.4253 -0.0517
   48CHL1   C23 3537   6.069  -0.247   4.837  0.0953 -0.3805  0.3001
   48CHL1  H23A 3538   6.039  -0.161   4.901  0.5857  0.1618 -0.1883
   48CHL1  H23B 3539   5.994  -0.329   4.837 -1.2888  0.8285 -0.3283
   48CHL1   C24 3540   6.204  -0.293   4.903 -0.0069  0.6778 -0.1102
   48CHL1  H24A 3541   6.253  -0.362   4.831  0.4382  1.4221 -0.5274
   48CHL1  H24B 3542   6.272  -0.207   4.921 -1.1348  1.0296  3.1577
   48CHL1   C25 3543   6.182  -0.369   5.037 -0.7526  0.1382  0.1972
   48CHL1   H25 3544   6.085  -0.424   5.031 -0.3886 -0.7213  1.5690
   48CHL1   C26 3545   6.296  -0.477   5.027  0.4823  0.2595 -0.4813
   48CHL1  H26A 3546   6.287  -0.547   4.941 -0.0653  1.3857 -1.3710
   48CHL1  H26B 3547   6.386  -0.415   5.009 -0.2851  0.8532 -2.5659
   48CHL1  H26C 3548   6.305  -0.536   5.120  0.5606  2.4394  0.9646
   48CHL1   C27 3549   6.191  -0.284   5.167  0.0972 -0.5478 -0.2214
   48CHL1  H27A 3550   6.270  -0.206   5.155 -1.0574  0.3688 -2.1304
   48CHL1  H27B 3551   6.091  -0.237   5.168 -0.7288 -2.2276  0.8557
   48CHL1  H27C 3552   6.208  -0.348   5.257  0.5745 -0.3959 -0.1983
   49CHL1    C3 3553   0.531   4.182   3.528 -0.3695  0.4904  0.0418
   49CHL1    H3 3554   0.521   4.083   3.577 -1.6816 -0.0671 -1.2631
   49CHL1    O3 3555   0.550   4.165   3.389 -0.3001 -0.2452 -0.0954
   49CHL1   H3' 3556   0.614   4.231   3.362  1.4123 -2.6251 -2.2870
   49CHL1    C4 3557   0.398   4.263   3.551 -0.3158  0.3674  0.6009
   49CHL1   H4A 3558   0.411   4.356   3.492  0.2262 -0.7715 -1.1440
   49CHL1   H4B 3559   0.318   4.199   3.509 -0.5774  1.8647 -1.2674
   49CHL1    C5 3560   0.374   4.299   3.698  0.8052  0.6420  0.1933
   49CHL1    C6 3561   0.262   4.264   3.765  0.5231  0.1730  0.5700
   49CHL1    H6 3562   0.184   4.220   3.701 -0.7524  1.4552  1.1919
   49CHL1    C7 3563   0.217   4.292   3.906  0.2636 -0.4850 -0.1479
   49CHL1   H7A 3564   0.119   4.344   3.897  1.2480  1.3656 -0.7558
   49CHL1   H7B 3565   0.214   4.206   3.976 -0.1262  0.2611  0.7668
   49CHL1    C8 3566   0.314   4.396   3.977 -0.4618  0.0799 -0.6133
   49CHL1    H8 3567   0.287   4.502   3.957  0.8540  0.4848 -0.3010
   49CHL1   C14 3568   0.329   4.388   4.129 -0.0959 -0.3157  0.8923
   49CHL1   H14 3569   0.361   4.287   4.162 -0.9344 -0.8740  0.0629
   49CHL1   C15 3570   0.198   4.424   4.195  0.0963  0.1144 -0.2082
   49CHL1  H15A 3571   0.134   4.495   4.138  0.3845 -0.1900 -0.9313
   49CHL1  H15B 3572   0.144   4.328   4.208  0.5811 -0.1081  0.1862
   49CHL1   C16 3573   0.229   4.495   4.335 -0.0406  0.4525  0.3750
   49CHL1  H16A 3574   0.200   4.603   4.333 -1.1171  0.2193  1.4751
   49CHL1  H16B 3575   0.179   4.453   4.426  0.8148 -1.8619 -0.1654
   49CHL1   C17 3576   0.388   4.481   4.344  0.0342  0.1020 -0.4242
   49CHL1   H17 3577   0.403   4.376   4.378 -0.8554 -0.8177 -2.6690
   49CHL1   C13 3578   0.428   4.485   4.196  0.0688  0.0433  0.1703
   49CHL1   C18 3579   0.417   4.635   4.155 -1.0538 -0.5202  0.5069
   49CHL1  H18A 3580   0.326   4.685   4.194 -1.3948 -0.5557 -0.2311
   49CHL1  H18B 3581   0.507   4.697   4.178 -2.5170  2.0154 -0.2140
   49CHL1  H18C 3582   0.412   4.636   4.044 -2.1454  0.6411  0.5414
   49CHL1   C12 3583   0.569   4.449   4.149 -0.6313  0.1606 -0.2707
   49CHL1  H12A 3584   0.640   4.526   4.185 -3.0638  1.7492  1.4604
   49CHL1  H12B 3585   0.605   4.349   4.181 -2.0127 -0.7888 -1.5159
   49CHL1   C11 3586   0.580   4.447   3.998 -1.4230  0.1824 -0.1559
   49CHL1  H11A 3587   0.589   4.554   3.970  1.8525  0.1762  0.5093
   49CHL1  H11B 3588   0.668   4.383   3.978 -1.8341 -0.7078  0.7797
   49CHL1    C9 3589   0.467   4.371   3.928  0.1686 -0.4386 -0.2239
   49CHL1    H9 3590   0.472   4.266   3.964 -0.2762  0.2197  1.8600
   49CHL1   C10 3591   0.482   4.369   3.774 -0.4929  0.7560 -0.1208
   49CHL1   C19 3592   0.504   4.513   3.729 -0.4228  0.2110 -1.0800
   49CHL1  H19A 3593   0.608   4.552   3.736 -0.8786  1.5201 -1.3192
   49CHL1  H19B 3594   0.465   4.528   3.626 -1.9357 -2.1295 -0.9160
   49CHL1  H19C 3595   0.451   4.586   3.795 -1.1100  0.7459 -2.1983
   49CHL1    C1 3596   0.620   4.302   3.732  0.0557  0.1286  0.1969
   49CHL1   H1A 3597   0.709   4.358   3.767  1.6265 -1.5733 -0.8517
   49CHL1   H1B 3598   0.615   4.216   3.802 -1.9878 -0.2817 -0.3832
   49CHL1    C2 3599   0.650   4.256   3.587  0.3944  0.1144  0.4428
   49CHL1   H2A 3600   0.753   4.217   3.573  1.4717  2.6270  0.8082
   49CHL1   H2B 3601   0.666   4.354   3.538  0.3305 -0.8306 -1.5954
   49CHL1   C20 3602   0.453   4.577   4.440  0.4464 -0.1323  0.3407
   49CHL1   H20 3603   0.490   4.670   4.393 -0.6016  1.4042  2.3843
   49CHL1   C21 3604   0.578   4.508   4.489  0.0754  0.9795  0.2900
   49CHL1  H21A 3605   0.560   4.427   4.564  1.0185  0.2070 -0.2926
   49CHL1  H21B 3606   0.641   4.579   4.546 -0.3916  2.0484 -0.4988
   49CHL1  H21C 3607   0.643   4.469   4.408  1.1831  1.1829  1.0542
   49CHL1   C22 3608   0.353   4.615   4.547 -0.2540  0.1748 -0.5048
   49CHL1  H22A 3609   0.281   4.677   4.489  1.4545 -0.3195 -3.4060
   49CHL1  H22B 3610   0.287   4.542   4.598 -0.0842  1.5958  1.8598
   49CHL1   C23 3611   0.418   4.693   4.663 -0.8899 -0.2355 -0.0528
   49CHL1  H23A 3612   0.477   4.620   4.722  0.8917 -0.2959 -1.7972
   49CHL1  H23B 3613   0.484   4.772   4.622 -0.3415 -1.0663 -0.8299
   49CHL1   C24 3614   0.306   4.730   4.759  0.5934 -0.6126  0.6685
   49CHL1  H24A 3615   0.263   4.829   4.732 -1.3785 -1.2794  1.1860
   49CHL1  H24B 3616   0.225   4.654   4.758 -1.2455  1.1284 -3.1434
   49CHL1   C25 3617   0.344   4.726   4.905 -0.7324  0.1650 -0.6673
   49CHL1   H25 3618   0.398   4.631   4.925 -0.4769  0.7663  1.7101
   49CHL1   C26 3619   0.431   4.844   4.941 -0.8274 -0.2807  0.4005
   49CHL1  H26A 3620   0.508   4.846   4.861  1.0476  0.1616  2.1333
   49CHL1  H26B 3621   0.382   4.944   4.940 -0.3988  0.0157  2.9088
   49CHL1  H26C 3622   0.493   4.835   5.033  0.2849 -0.4856 -0.3533
   49CHL1   C27 3623   0.218   4.732   4.988 -0.6984 -0.6322 -0.0437
   49CHL1  H27A 3624   0.247   4.692   5.087 -2.6103 -1.8414  0.0834
   49CHL1  H27B 3625   0.175   4.834   4.992 -1.3419 -0.8214 -1.5743
   49CHL1  H27C 3626   0.140   4.665   4.946 -2.5057  1.2133  0.1771
   50CHL1    C3 3627   4.971   3.724   3.847  0.5020  0.1505 -0.0320
   50CHL1    H3 3628   4.914   3.818   3.834 -1.7590 -1.2722 -1.1304
   50CHL1    O3 3629   4.963   3.641   3.733 -0.1840 -0.7422  0.6148
   50CHL1   H3' 3630   5.044   3.655   3.684 -0.1837  0.8888  1.0423
   50CHL1    C4 3631   5.117   3.740   3.895 -0.4854 -0.1318  0.0716
   50CHL1   H4A 3632   5.158   3.637   3.908  1.1789  0.6005  0.9560
   50CHL1   H4B 3633   5.188   3.795   3.829  1.4945  1.1482  3.0395
   50CHL1    C5 3634   5.120   3.801   4.035 -0.6046  0.4573  0.6010
   50CHL1    C6 3635   5.200   3.907   4.054 -0.1793 -0.0494  1.1131
   50CHL1    H6 3636   5.260   3.941   3.969 -1.8223 -0.5073 -0.2917
   50CHL1    C7 3637   5.217   3.988   4.177 -0.6136 -0.0355 -0.2834
   50CHL1   H7A 3638   5.326   4.005   4.190 -0.7564 -0.0441  1.0096
   50CHL1   H7B 3639   5.159   4.082   4.168 -0.5466  0.1508  1.0532
   50CHL1    C8 3640   5.158   3.913   4.308 -0.1212  0.1953  0.2899
   50CHL1    H8 3641   5.218   3.826   4.339 -0.6723  1.1379  4.6251
   50CHL1   C14 3642   5.141   4.006   4.422  0.0485  0.7172 -0.7442
   50CHL1   H14 3643   5.079   4.095   4.397 -1.6679  0.3955  1.8853
   50CHL1   C15 3644   5.269   4.073   4.470  0.1845 -0.1865 -0.4301
   50CHL1  H15A 3645   5.344   3.992   4.482  0.5241  0.4709  3.0073
   50CHL1  H15B 3646   5.301   4.155   4.403 -0.7140 -0.3985 -1.1347
   50CHL1   C16 3647   5.219   4.136   4.606 -0.3939  0.0388  0.0482
   50CHL1  H16A 3648   5.294   4.099   4.680  1.4300 -1.4018 -2.3843
   50CHL1  H16B 3649   5.215   4.247   4.602 -1.0952 -0.0183 -2.5887
   50CHL1   C17 3650   5.078   4.068   4.639  0.0594  0.7551  0.2931
   50CHL1   H17 3651   5.004   4.142   4.601  1.5972  2.1721 -0.0640
   50CHL1   C13 3652   5.069   3.940   4.543 -0.1075 -0.3619  0.3393
   50CHL1   C18 3653   5.147   3.820   4.600 -0.1410 -0.5194  0.3679
   50CHL1  H18A 3654   5.167   3.746   4.520  0.4139  1.0534 -1.0162
   50CHL1  H18B 3655   5.244   3.858   4.640 -2.2193  3.1823  2.4759
   50CHL1  H18C 3656   5.091   3.770   4.681  0.6671 -0.8798  0.7179
   50CHL1   C12 3657   4.928   3.905   4.488 -0.0260 -0.5078 -0.0763
   50CHL1  H12A 3658   4.859   3.876   4.570  0.3926  0.2493  0.5617
   50CHL1  H12B 3659   4.895   3.997   4.435  0.4342  0.6520  1.5675
   50CHL1   C11 3660   4.940   3.795   4.380  0.2344  0.6891  0.0914
   50CHL1  H11A 3661   4.972   3.697   4.420  0.5587  0.9729  0.5293
   50CHL1  H11B 3662   4.837   3.781   4.340  0.6050 -0.0811 -0.6388
   50CHL1    C9 3663   5.026   3.846   4.263  0.0553 -0.6869  0.0613
   50CHL1    H9 3664   4.974   3.933   4.218  3.8959  1.2846 -1.0075
   50CHL1   C10 3665   5.039   3.744   4.153  0.2293  0.9953  0.5936
   50CHL1   C19 3666   5.116   3.617   4.205  0.0275  0.1031  0.0152
   50CHL1  H19A 3667   5.052   3.569   4.282 -2.7375  1.6787 -1.1720
   50CHL1  H19B 3668   5.140   3.534   4.135 -0.5633  0.0569 -0.1311
   50CHL1  H19C 3669   5.213   3.651   4.248  0.5539 -1.8246  0.4614
   50CHL1    C1 3670   4.895   3.711   4.092  0.3578 -0.9918 -0.7220
   50CHL1   H1A 3671   4.848   3.646   4.168  2.4079 -1.5298  0.1672
   50CHL1   H1B 3672   4.840   3.807   4.101  2.5946  0.3450 -0.4422
   50CHL1    C2 3673   4.891   3.646   3.958  0.2150 -0.1172  0.3650
   50CHL1   H2A 3674   4.785   3.645   3.923  0.4677  2.4182 -0.6645
   50CHL1   H2B 3675   4.933   3.544   3.969  0.8029  0.0371 -0.3883
   50CHL1   C20 3676   5.045   4.057   4.787 -0.1365 -0.2337  0.6390
   50CHL1   H20 3677   5.118   3.995   4.842 -1.9229 -0.4857  2.8970
   50CHL1   C21 3678   4.902   4.005   4.798 -0.6137 -0.4764  0.1975
   50CHL1  H21A 3679   4.833   4.057   4.728 -2.8217  2.1213  3.9278
   50CHL1  H21B 3680   4.865   4.025   4.901  1.7161 -0.1981  1.0343
   50CHL1  H21C 3681   4.903   3.895   4.778 -1.1908 -0.8658  2.1485
   50CHL1   C22 3682   5.055   4.196   4.847  0.6544 -0.3298  0.3968
   50CHL1  H22A 3683   5.142   4.261   4.823  0.3856  0.6955  2.0301
   50CHL1  H22B 3684   4.961   4.250   4.823  1.4806  0.1752 -1.9814
   50CHL1   C23 3685   5.071   4.186   5.002 -0.1164  0.1764  0.0255
   50CHL1  H23A 3686   4.988   4.130   5.050  0.5339 -0.7313  0.1130
   50CHL1  H23B 3687   5.160   4.126   5.029  0.5841  2.3680  3.0197
   50CHL1   C24 3688   5.081   4.327   5.060 -0.5830  0.1671  0.2512
   50CHL1  H24A 3689   5.159   4.390   5.012 -2.1890  1.3449 -0.9128
   50CHL1  H24B 3690   4.993   4.391   5.041 -0.0539  0.5069 -1.1648
   50CHL1   C25 3691   5.109   4.329   5.212  0.1194  0.1146  0.1794
   50CHL1   H25 3692   5.176   4.242   5.232  0.0119  0.3955  1.9899
   50CHL1   C26 3693   5.179   4.457   5.263 -1.0370 -0.6062  0.4080
   50CHL1  H26A 3694   5.278   4.463   5.213  0.6994 -1.6623  3.4695
   50CHL1  H26B 3695   5.121   4.549   5.242 -0.8734 -0.2449  1.4700
   50CHL1  H26C 3696   5.203   4.449   5.371 -0.5010  0.5837  0.3939
   50CHL1   C27 3697   4.975   4.312   5.299  0.1869  0.1549 -0.5600
   50CHL1  H27A 3698   5.015   4.308   5.402  0.3890  0.4429 -0.6245
   50CHL1  H27B 3699   4.901   4.395   5.294 -1.3838 -1.0933  1.0833
   50CHL1  H27C 3700   4.936   4.209   5.283  2.1438 -0.9947  1.5679
   51CHL1    C3 3701   0.005   3.522   4.003 -1.2794 -0.2632  0.0701
   51CHL1    H3 3702  -0.105   3.539   3.995 -1.0498  0.5745 -1.7886
   51CHL1    O3 3703   0.053   3.555   3.873  0.2098 -0.2618 -0.1755
   51CHL1   H3' 3704   0.000   3.628   3.841  0.5433  0.4951  0.9370
   51CHL1    C4 3705   0.086   3.620   4.093 -0.2185  0.0887 -0.9259
   51CHL1   H4A 3706   0.191   3.611   4.058  0.5842 -0.5003  1.4193
   51CHL1   H4B 3707   0.047   3.723   4.078 -0.6539  0.1523  0.4610
   51CHL1    C5 3708   0.078   3.589   4.246 -0.0131  0.1824 -0.4201
   51CHL1    C6 3709   0.048   3.688   4.329 -0.4604  0.1280  0.3947
   51CHL1    H6 3710   0.039   3.792   4.293 -2.1650  0.6298  2.0706
   51CHL1    C7 3711   0.059   3.680   4.481  0.4651  0.1785  0.1346
   51CHL1   H7A 3712   0.137   3.749   4.518  1.1054  0.7748 -2.1508
   51CHL1   H7B 3713  -0.044   3.695   4.520  1.0859 -0.2810  2.0324
   51CHL1    C8 3714   0.107   3.541   4.526  0.0748 -0.1451  0.3411
   51CHL1    H8 3715   0.216   3.533   4.507 -0.3888 -2.5429 -2.1078
   51CHL1   C14 3716   0.064   3.513   4.671  0.8424  0.1913  0.1456
   51CHL1   H14 3717  -0.047   3.523   4.670  0.8921  0.7161 -1.0517
   51CHL1   C15 3718   0.104   3.612   4.786 -0.1862 -0.4054 -0.3290
   51CHL1  H15A 3719   0.212   3.631   4.766  0.2797 -1.0150  1.4499
   51CHL1  H15B 3720   0.055   3.712   4.788  0.4412 -0.0899  1.5562
   51CHL1   C16 3721   0.071   3.535   4.914  0.9206  0.1952 -0.6243
   51CHL1  H16A 3722   0.155   3.531   4.987 -0.7516  2.3038  1.5838
   51CHL1  H16B 3723  -0.022   3.581   4.954  0.7992 -0.3180 -0.3080
   51CHL1   C17 3724   0.036   3.391   4.868 -0.0835 -0.0098  0.2430
   51CHL1   H17 3725  -0.075   3.384   4.859  0.0886 -1.9875 -0.9640
   51CHL1   C13 3726   0.100   3.374   4.725  0.1082 -0.3087  0.0973
   51CHL1   C18 3727   0.256   3.356   4.739 -0.1945 -0.0823  0.1231
   51CHL1  H18A 3728   0.263   3.251   4.774  0.7587  0.2615  1.0034
   51CHL1  H18B 3729   0.308   3.365   4.641 -2.7030  2.2639 -1.1257
   51CHL1  H18C 3730   0.297   3.425   4.815  2.4895 -0.3733 -0.9446
   51CHL1   C12 3731   0.034   3.270   4.636 -0.2316 -0.1736  0.0831
   51CHL1  H12A 3732   0.055   3.170   4.680  1.8851  0.5698  0.9042
   51CHL1  H12B 3733  -0.077   3.271   4.628 -0.2600 -0.0610  0.4556
   51CHL1   C11 3734   0.093   3.284   4.488 -0.2018  0.3948 -1.1364
   51CHL1  H11A 3735   0.203   3.270   4.497 -0.1259  0.2673 -2.1537
   51CHL1  H11B 3736   0.047   3.207   4.422 -2.5323  1.3735 -0.7321
   51CHL1    C9 3737   0.055   3.423   4.435  0.0326  0.5597  0.4499
   51CHL1    H9 3738  -0.056   3.423   4.435 -0.1211 -2.6429 -2.3284
   51CHL1   C10 3739   0.094   3.444   4.286  0.1807 -0.0212  0.0048
   51CHL1   C19 3740   0.249   3.425   4.270 -0.8634 -0.1022  0.9709
   51CHL1  H19A 3741   0.287   3.452   4.170  0.4068 -0.3663  1.3686
   51CHL1  H19B 3742   0.309   3.494   4.333 -1.8192  0.5431  1.1956
   51CHL1  H19C 3743   0.288   3.324   4.296  0.9747  0.4983  0.6818
   51CHL1    C1 3744   0.014   3.354   4.182  0.1274 -0.6994 -0.0033
   51CHL1   H1A 3745   0.053   3.253   4.206  0.9877 -0.3475  0.1115
   51CHL1   H1B 3746  -0.093   3.365   4.213  0.7215 -3.0203  3.4435
   51CHL1    C2 3747   0.040   3.376   4.036  0.3081 -1.1676  0.4553
   51CHL1   H2A 3748  -0.019   3.302   3.977  2.2354 -2.4565  0.0779
   51CHL1   H2B 3749   0.148   3.358   4.022  0.2299 -0.7569 -0.8716
   51CHL1   C20 3750   0.076   3.278   4.971 -0.6241  0.1144 -0.0492
   51CHL1   H20 3751   0.187   3.278   4.971 -0.5953  1.6218  0.5656
   51CHL1   C21 3752   0.037   3.137   4.930  0.0197  0.6316  0.0126
   51CHL1  H21A 3753   0.123   3.088   4.879  0.3830  1.6224 -0.3516
   51CHL1  H21B 3754  -0.057   3.132   4.870 -0.3584 -0.9493  0.6874
   51CHL1  H21C 3755   0.015   3.074   5.019 -3.2161  0.7393 -0.5762
   51CHL1   C22 3756   0.031   3.302   5.117 -0.2789  0.3934 -0.3920
   51CHL1  H22A 3757   0.058   3.407   5.142 -0.9613  0.4618  0.0691
   51CHL1  H22B 3758  -0.080   3.299   5.117 -0.3339  1.0122 -2.3772
   51CHL1   C23 3759   0.094   3.215   5.226 -0.1523 -0.0836 -0.6088
   51CHL1  H23A 3760   0.052   3.112   5.230 -2.3487  0.7903  0.9196
   51CHL1  H23B 3761   0.200   3.209   5.192  0.1147  0.4599  0.0915
   51CHL1   C24 3762   0.085   3.268   5.376 -0.0274  0.4597  0.1828
   51CHL1  H24A 3763   0.128   3.370   5.381 -3.3188  2.0704 -0.7803
   51CHL1  H24B 3764  -0.020   3.300   5.392  1.0758  4.0697  0.9903
   51CHL1   C25 3765   0.142   3.173   5.476  0.5642 -0.0231 -0.0916
   51CHL1   H25 3766   0.076   3.083   5.474 -0.0006  0.3752  0.3028
   51CHL1   C26 3767   0.284   3.123   5.454 -0.3696 -0.4336 -1.5125
   51CHL1  H26A 3768   0.314   3.033   5.511  3.0817 -0.2880 -2.8145
   51CHL1  H26B 3769   0.298   3.095   5.347  0.7204 -1.5425 -1.0973
   51CHL1  H26C 3770   0.365   3.195   5.480  0.0089 -1.6604  0.9546
   51CHL1   C27 3771   0.119   3.238   5.617  0.1326 -0.3813 -0.1292
   51CHL1  H27A 3772   0.170   3.336   5.610 -0.0557 -0.3820 -2.0495
   51CHL1  H27B 3773   0.011   3.250   5.641  0.4264  2.1178  0.1702
   51CHL1  H27C 3774   0.158   3.174   5.699  0.8117 -0.4933 -0.5411
   52CHL1    C3 3775   6.453   5.816   3.799 -0.1500  0.3495 -0.3300
   52CHL1    H3 3776   6.368   5.874   3.838 -0.1822  0.4863 -0.5971
   52CHL1    O3 3777   6.431   5.767   3.667  0.1308  0.3284  0.3637
   52CHL1   H3' 3778   6.420   5.672   3.675  1.3732  0.2668  1.7356
   52CHL1    C4 3779   6.580   5.899   3.784  0.2160 -0.3355  0.7859
   52CHL1   H4A 3780   6.658   5.846   3.725  1.7530  1.0747  1.4649
   52CHL1   H4B 3781   6.555   5.989   3.724  1.0883  0.2872  1.3328
   52CHL1    C5 3782   6.642   5.944   3.910  0.0861 -0.4759 -0.9079
   52CHL1    C6 3783   6.665   6.080   3.920  0.0429 -0.5933 -0.4257
   52CHL1    H6 3784   6.643   6.158   3.847  0.7475  1.2348  1.2280
   52CHL1    C7 3785   6.722   6.140   4.051  0.4580 -0.5596 -0.5137
   52CHL1   H7A 3786   6.781   6.230   4.024 -0.1899  0.4553  1.3481
   52CHL1   H7B 3787   6.643   6.203   4.098  0.7356 -0.2925 -0.4019
   52CHL1    C8 3788   6.777   6.037   4.152  0.3651  0.3709 -0.5866
   52CHL1    H8 3789   6.882   6.015   4.121  0.3402 -0.7340  0.0719
   52CHL1   C14 3790   6.771   6.100   4.291  0.0374 -0.5388  0.1195
   52CHL1   H14 3791   6.662   6.095   4.312 -0.7233  1.8184 -2.6492
   52CHL1   C15 3792   6.824   6.244   4.313  0.8444  0.0531 -0.3956
   52CHL1  H15A 3793   6.921   6.255   4.262  0.7480  1.4831 -0.3133
   52CHL1  H15B 3794   6.766   6.332   4.278  0.2571 -0.6191 -1.1381
   52CHL1   C16 3795   6.849   6.249   4.470 -0.4153  1.1511 -0.1584
   52CHL1  H16A 3796   6.954   6.266   4.501 -0.0358  1.2387 -1.4272
   52CHL1  H16B 3797   6.783   6.332   4.503 -0.7400  1.1292 -0.7416
   52CHL1   C17 3798   6.801   6.104   4.523 -0.2935 -0.0991  0.4828
   52CHL1   H17 3799   6.690   6.111   4.532 -0.3959 -0.9584 -0.0988
   52CHL1   C13 3800   6.835   6.016   4.396  0.4404  0.1971 -0.7507
   52CHL1   C18 3801   6.993   6.005   4.383 -0.8361 -0.3964  0.3237
   52CHL1  H18A 3802   7.048   6.071   4.453 -1.9525  0.6206  0.2741
   52CHL1  H18B 3803   7.020   5.901   4.412  2.6885 -0.0577 -1.2361
   52CHL1  H18C 3804   7.022   6.029   4.279  0.3910  3.0481  1.3138
   52CHL1   C12 3805   6.772   5.877   4.396 -0.0313 -0.5728 -0.0165
   52CHL1  H12A 3806   6.821   5.814   4.474  1.5169 -1.1446 -1.4011
   52CHL1  H12B 3807   6.667   5.894   4.429  0.4780  0.0232  1.3692
   52CHL1   C11 3808   6.769   5.807   4.263  0.4682  0.5399 -0.0871
   52CHL1  H11A 3809   6.861   5.757   4.227  0.5298 -0.8331  1.8107
   52CHL1  H11B 3810   6.698   5.725   4.285  0.2142  1.6189  3.9717
   52CHL1    C9 3811   6.704   5.901   4.155  1.1115 -0.0811  0.6193
   52CHL1    H9 3812   6.603   5.924   4.197 -0.1214 -1.3124 -1.4705
   52CHL1   C10 3813   6.678   5.836   4.015 -0.0645  0.4755 -0.0332
   52CHL1   C19 3814   6.805   5.763   3.960  0.0727  0.3401  0.1535
   52CHL1  H19A 3815   6.893   5.831   3.964 -1.6848  2.7166  0.9757
   52CHL1  H19B 3816   6.824   5.669   4.016  1.1035  0.5201  0.1353
   52CHL1  H19C 3817   6.791   5.724   3.857  1.3214 -0.0958  0.1318
   52CHL1    C1 3818   6.556   5.738   4.024 -0.1556  0.2531 -0.3812
   52CHL1   H1A 3819   6.585   5.647   4.080 -2.5285 -0.3977 -0.0735
   52CHL1   H1B 3820   6.471   5.789   4.076  0.0327  0.0346  0.1406
   52CHL1    C2 3821   6.494   5.688   3.887  0.2589  0.0718 -0.1879
   52CHL1   H2A 3822   6.403   5.626   3.905 -0.0813  0.7039  0.3101
   52CHL1   H2B 3823   6.569   5.630   3.829  2.1653  0.6778  1.5462
   52CHL1   C20 3824   6.842   6.065   4.659 -0.0541 -0.1330  0.0968
   52CHL1   H20 3825   6.938   6.011   4.656  0.2377  0.3904 -0.1082
   52CHL1   C21 3826   6.746   5.956   4.699 -0.1584  0.5983  0.1140
   52CHL1  H21A 3827   6.745   5.860   4.643  0.7598  1.3915 -1.3282
   52CHL1  H21B 3828   6.641   5.990   4.690 -0.3703 -0.3567 -1.2969
   52CHL1  H21C 3829   6.763   5.933   4.806  3.6722 -1.5250 -0.7399
   52CHL1   C22 3830   6.838   6.180   4.765 -0.7413 -0.3105  0.1901
   52CHL1  H22A 3831   6.891   6.269   4.726  0.7216 -1.4714 -0.6282
   52CHL1  H22B 3832   6.731   6.205   4.781 -1.0850 -1.3585 -0.3510
   52CHL1   C23 3833   6.891   6.144   4.905 -0.0542  0.2961  0.2085
   52CHL1  H23A 3834   6.842   6.047   4.929 -0.0129  0.2809  0.2312
   52CHL1  H23B 3835   6.999   6.121   4.895 -0.5275 -1.6080 -1.5200
   52CHL1   C24 3836   6.853   6.251   5.016 -0.6022 -0.3954 -0.0928
   52CHL1  H24A 3837   6.878   6.353   4.980  1.4737 -0.6532  0.5015
   52CHL1  H24B 3838   6.742   6.243   5.016 -0.7072  0.8249 -0.9995
   52CHL1   C25 3839   6.927   6.220   5.153  0.0743 -0.4684  0.4910
   52CHL1   H25 3840   6.909   6.112   5.174  0.3706 -0.4410  0.8845
   52CHL1   C26 3841   7.078   6.250   5.150 -0.1098  0.6235  0.6852
   52CHL1  H26A 3842   7.124   6.249   5.250  1.9971  0.1293 -0.2401
   52CHL1  H26B 3843   7.132   6.164   5.104  0.3286  2.0146 -1.5410
   52CHL1  H26C 3844   7.103   6.345   5.098  0.6839  0.5148  0.8611
   52CHL1   C27 3845   6.851   6.300   5.262 -0.4593  0.3636 -0.4445
   52CHL1  H27A 3846   6.749   6.266   5.290  1.2471 -1.6952  4.4407
   52CHL1  H27B 3847   6.904   6.285   5.359 -1.4830 -0.5855 -0.0243
   52CHL1  H27C 3848   6.847   6.407   5.231 -0.7101  0.7817  0.9402
   53CHL1    C3 3849   1.066   3.820   3.678  0.2102 -0.0489  0.0710
   53CHL1    H3 3850   1.146   3.896   3.679  0.9058 -0.7618 -0.3279
   53CHL1    O3 3851   1.023   3.792   3.548  0.1080 -0.0705  0.4232
   53CHL1   H3' 3852   0.936   3.752   3.555  0.3499 -0.5394  0.8336
   53CHL1    C4 3853   1.113   3.692   3.747  0.0693 -0.4212  0.0008
   53CHL1   H4A 3854   1.039   3.611   3.729 -2.1956  1.7527 -1.1065
   53CHL1   H4B 3855   1.200   3.664   3.685  1.7335  0.6776  1.7277
   53CHL1    C5 3856   1.136   3.711   3.895  0.6655 -0.2851  0.0087
   53CHL1    C6 3857   1.258   3.683   3.940  0.9472 -0.0824  0.2758
   53CHL1    H6 3858   1.344   3.652   3.879  1.9297  0.4794  1.3263
   53CHL1    C7 3859   1.286   3.695   4.090  0.3354  0.0018 -0.3396
   53CHL1   H7A 3860   1.352   3.612   4.122 -0.1586  0.4754  2.1101
   53CHL1   H7B 3861   1.340   3.790   4.110 -2.6942  1.5850  0.9896
   53CHL1    C8 3862   1.160   3.704   4.181 -0.1246 -0.5960 -0.3176
   53CHL1    H8 3863   1.113   3.604   4.176 -0.0977 -0.7312  1.4501
   53CHL1   C14 3864   1.202   3.727   4.332  0.2448 -0.6502  0.3526
   53CHL1   H14 3865   1.256   3.823   4.338  1.1441 -0.8907 -2.4016
   53CHL1   C15 3866   1.296   3.621   4.396  0.4840  0.1376 -0.0153
   53CHL1  H15A 3867   1.269   3.520   4.359  1.3457 -0.1331  0.0554
   53CHL1  H15B 3868   1.404   3.640   4.376  1.5512 -1.7005  3.2270
   53CHL1   C16 3869   1.269   3.648   4.550 -0.3867 -0.0526 -0.9969
   53CHL1  H16A 3870   1.251   3.552   4.604  0.8949 -0.4654 -1.2877
   53CHL1  H16B 3871   1.358   3.701   4.589  0.3378 -1.1309 -1.1465
   53CHL1   C17 3872   1.142   3.743   4.557 -0.1712 -0.4905 -0.4070
   53CHL1   H17 3873   1.184   3.846   4.562  0.8353 -0.8060 -1.6531
   53CHL1   C13 3874   1.083   3.735   4.417 -0.1729  0.3989  0.3995
   53CHL1   C18 3875   0.996   3.613   4.405  0.2245 -0.1325 -0.6195
   53CHL1  H18A 3876   0.958   3.604   4.301 -1.3334 -0.8039 -0.0209
   53CHL1  H18B 3877   1.036   3.511   4.426  1.2271  0.7153  2.0684
   53CHL1  H18C 3878   0.905   3.620   4.469  0.4306  1.7920 -0.4784
   53CHL1   C12 3879   0.997   3.858   4.369 -0.3658 -0.3404  0.4402
   53CHL1  H12A 3880   0.904   3.862   4.429 -2.8266  0.6664 -3.0781
   53CHL1  H12B 3881   1.052   3.952   4.388 -1.0658  0.5509 -1.5722
   53CHL1   C11 3882   0.943   3.848   4.227 -0.4827  0.0276  0.3960
   53CHL1  H11A 3883   0.861   3.772   4.228  1.1657 -1.8344  0.9279
   53CHL1  H11B 3884   0.898   3.945   4.197 -0.8607  0.2507  1.6398
   53CHL1    C9 3885   1.060   3.813   4.120 -0.3367 -0.3342 -0.0234
   53CHL1    H9 3886   1.125   3.903   4.109  1.1039 -1.6144 -3.0014
   53CHL1   C10 3887   1.023   3.775   3.974 -0.1478 -0.0118 -0.1191
   53CHL1   C19 3888   0.896   3.684   3.985  0.0478  0.3716 -0.1449
   53CHL1  H19A 3889   0.858   3.638   3.891 -1.1808  1.3468 -0.1577
   53CHL1  H19B 3890   0.910   3.605   4.062  3.6510 -0.4817 -1.4529
   53CHL1  H19C 3891   0.817   3.750   4.026 -0.3090 -1.2097  1.8563
   53CHL1    C1 3892   0.978   3.906   3.900 -0.3391  0.0467  0.4787
   53CHL1   H1A 3893   0.888   3.950   3.948 -1.9487 -1.3372 -1.1321
   53CHL1   H1B 3894   1.057   3.984   3.915  0.0154 -0.4018  0.9873
   53CHL1    C2 3895   0.948   3.881   3.750  0.8623 -0.2702  0.3562
   53CHL1   H2A 3896   0.936   3.980   3.700  1.0237  0.4985  1.8040
   53CHL1   H2B 3897   0.854   3.821   3.745 -0.3963  1.6842 -1.3257
   53CHL1   C20 3898   1.065   3.725   4.692 -0.6956  0.4960 -0.0482
   53CHL1   H20 3899   1.041   3.617   4.685 -0.7850  0.5421 -0.5137
   53CHL1   C21 3900   0.943   3.822   4.686 -0.3091 -0.5778 -0.6475
   53CHL1  H21A 3901   0.906   3.850   4.787  1.1155  2.0192 -0.7491
   53CHL1  H21B 3902   0.862   3.789   4.618 -0.7573 -0.0010 -0.3986
   53CHL1  H21C 3903   0.976   3.918   4.638 -0.5810  0.2054  0.6863
   53CHL1   C22 3904   1.156   3.739   4.817  0.0379 -0.4814 -0.5838
   53CHL1  H22A 3905   1.252   3.683   4.816 -0.0775 -0.6772 -0.9867
   53CHL1  H22B 3906   1.194   3.843   4.818  2.9927 -1.4392  1.1342
   53CHL1   C23 3907   1.092   3.701   4.951  0.1969  0.3603  0.1474
   53CHL1  H23A 3908   0.992   3.751   4.954  0.1569  0.3537 -0.7521
   53CHL1  H23B 3909   1.073   3.592   4.950  1.4827  0.1156 -1.5770
   53CHL1   C24 3910   1.184   3.730   5.072  0.0012  0.2530  0.5869
   53CHL1  H24A 3911   1.280   3.686   5.036 -2.1416 -2.8566 -1.8316
   53CHL1  H24B 3912   1.175   3.840   5.088 -1.6691  0.2496 -0.1528
   53CHL1   C25 3913   1.148   3.657   5.202  0.3802  0.7002 -0.3488
   53CHL1   H25 3914   1.040   3.637   5.186 -0.0944  1.7400  1.3026
   53CHL1   C26 3915   1.213   3.518   5.219 -0.6078 -0.2352  0.2885
   53CHL1  H26A 3916   1.174   3.448   5.143  0.0340  0.5483 -0.7978
   53CHL1  H26B 3917   1.321   3.519   5.190 -0.6282 -0.9000  0.1686
   53CHL1  H26C 3918   1.188   3.474   5.318  0.8370 -0.2398  0.6824
   53CHL1   C27 3919   1.167   3.739   5.324 -0.1032 -0.0969 -0.1449
   53CHL1  H27A 3920   1.158   3.674   5.414 -0.6215  2.0687  1.4475
   53CHL1  H27B 3921   1.259   3.800   5.329 -0.6229  0.6573  0.5136
   53CHL1  H27C 3922   1.077   3.803   5.337  0.0979  0.0199  0.7411
   54CHL1    C3 3923   0.564   3.793   3.800  0.2026  0.0638  0.1342
   54CHL1    H3 3924   0.669   3.760   3.814  0.4969  0.5160 -0.8754
   54CHL1    O3 3925   0.515   3.769   3.667  0.1016  0.1394 -0.2540
   54CHL1   H3' 3926   0.435   3.822   3.673 -0.3982 -0.4486 -1.3147
   54CHL1    C4 3927   0.473   3.710   3.893 -0.3396  0.2063 -0.8160
   54CHL1   H4A 3928   0.366   3.731   3.871 -0.6743 -0.5557  0.0241
   54CHL1   H4B 3929   0.483   3.601   3.875 -1.6797 -0.1387  0.3698
   54CHL1    C5 3930   0.509   3.738   4.039  0.3150 -0.2174  0.2293
   54CHL1    C6 3931   0.554   3.647   4.122  0.3165  0.3380 -0.2416
   54CHL1    H6 3932   0.573   3.550   4.074  0.0744  1.4764 -2.7949
   54CHL1    C7 3933   0.564   3.660   4.275  0.4140  0.4412 -0.2259
   54CHL1   H7A 3934   0.511   3.572   4.317 -0.1901  0.4422 -0.9685
   54CHL1   H7B 3935   0.664   3.654   4.323 -0.9907  0.1675  2.9282
   54CHL1    C8 3936   0.500   3.790   4.316 -0.5122 -0.6363  0.7022
   54CHL1    H8 3937   0.391   3.767   4.312 -0.3416 -1.7705  2.0007
   54CHL1   C14 3938   0.538   3.820   4.461 -0.3147  0.4446  0.8744
   54CHL1   H14 3939   0.648   3.837   4.462 -0.2168 -0.1455  1.9138
   54CHL1   C15 3940   0.511   3.713   4.574  0.2545  0.1050  0.5145
   54CHL1  H15A 3941   0.412   3.663   4.567  1.4232 -2.2123 -0.3575
   54CHL1  H15B 3942   0.582   3.632   4.551  0.7772  0.4903  0.7545
   54CHL1   C16 3943   0.521   3.798   4.698 -0.5977  0.3324  0.3076
   54CHL1  H16A 3944   0.434   3.769   4.762 -0.3123 -1.6323 -0.1163
   54CHL1  H16B 3945   0.612   3.778   4.759 -0.2542  0.1221 -0.2639
   54CHL1   C17 3946   0.531   3.951   4.657 -0.5018  0.2189  0.1051
   54CHL1   H17 3947   0.639   3.973   4.643 -0.3364 -0.9204 -0.6043
   54CHL1   C13 3948   0.478   3.950   4.514 -0.0001 -0.8579 -0.4848
   54CHL1   C18 3949   0.324   3.949   4.524  0.2595 -0.3946  0.0612
   54CHL1  H18A 3950   0.288   3.956   4.419  0.1460 -0.9837  0.0553
   54CHL1  H18B 3951   0.285   3.853   4.564  0.0121  0.2455  1.3991
   54CHL1  H18C 3952   0.280   4.032   4.583  2.8931  0.5258  0.8493
   54CHL1   C12 3953   0.532   4.061   4.424  0.1732 -0.0678 -0.3824
   54CHL1  H12A 3954   0.483   4.155   4.460  0.3275 -0.5904  1.2902
   54CHL1  H12B 3955   0.642   4.074   4.438 -0.0669 -0.3356  2.4708
   54CHL1   C11 3956   0.493   4.048   4.278 -0.1077 -0.3148 -0.3199
   54CHL1  H11A 3957   0.383   4.063   4.272 -0.0576  0.0562 -0.3081
   54CHL1  H11B 3958   0.549   4.115   4.209  2.6511 -2.8194 -0.7113
   54CHL1    C9 3959   0.530   3.911   4.220 -0.5579 -0.2066 -0.2600
   54CHL1    H9 3960   0.641   3.919   4.219 -0.5560  2.6996  3.0103
   54CHL1   C10 3961   0.485   3.885   4.077 -0.4933 -0.0429 -0.6669
   54CHL1   C19 3962   0.337   3.916   4.071  0.3101 -0.1000 -0.1536
   54CHL1  H19A 3963   0.283   3.878   3.982 -2.2118 -0.4444  1.4293
   54CHL1  H19B 3964   0.287   3.855   4.150  0.5652 -1.4706 -1.0239
   54CHL1  H19C 3965   0.314   4.023   4.089  1.9212  0.1092  0.8455
   54CHL1    C1 3966   0.569   3.970   3.978  0.3399  0.2844  0.3953
   54CHL1   H1A 3967   0.570   4.080   3.993  2.7858  0.0673  2.6693
   54CHL1   H1B 3968   0.673   3.934   3.994 -0.1052 -0.4319  1.9184
   54CHL1    C2 3969   0.545   3.943   3.834  0.4329  0.1257 -0.4796
   54CHL1   H2A 3970   0.607   3.999   3.761  0.6477  3.0843  1.8175
   54CHL1   H2B 3971   0.444   3.982   3.810  0.1256 -0.1981  0.2682
   54CHL1   C20 3972   0.473   4.047   4.759  0.3134  0.5470  0.8866
   54CHL1   H20 3973   0.367   4.024   4.781  0.2717  0.3088  0.4304
   54CHL1   C21 3974   0.483   4.194   4.711 -0.7196 -0.6907  0.2850
   54CHL1  H21A 3975   0.398   4.231   4.650  1.3241  0.6487 -1.8971
   54CHL1  H21B 3976   0.576   4.225   4.659 -1.3853  1.7354  0.4428
   54CHL1  H21C 3977   0.473   4.256   4.803  1.4556  0.6700 -0.3287
   54CHL1   C22 3978   0.551   4.039   4.894  0.9023  0.3011 -0.4568
   54CHL1  H22A 3979   0.659   4.029   4.869  1.0327 -0.6064  0.4063
   54CHL1  H22B 3980   0.545   4.134   4.951 -2.7199  1.0655 -1.8364
   54CHL1   C23 3981   0.505   3.923   4.988 -0.2040  0.8409  0.1922
   54CHL1  H23A 3982   0.397   3.906   4.969  0.2941 -0.6163 -1.6348
   54CHL1  H23B 3983   0.557   3.835   4.945  0.7268  1.4302  0.0632
   54CHL1   C24 3984   0.535   3.936   5.139 -0.2688  0.6345  0.4897
   54CHL1  H24A 3985   0.471   4.009   5.194 -0.2080  0.8059  0.3367
   54CHL1  H24B 3986   0.521   3.840   5.192  0.8512  1.0221  1.5323
   54CHL1   C25 3987   0.678   3.985   5.178  0.0938  0.4807 -0.1729
   54CHL1   H25 3988   0.696   4.083   5.129 -0.5730  1.3512  1.2770
   54CHL1   C26 3989   0.695   4.013   5.333  0.0784  0.6093 -0.5628
   54CHL1  H26A 3990   0.635   4.103   5.359 -0.4324 -0.0527  0.6460
   54CHL1  H26B 3991   0.660   3.929   5.397 -1.3176  2.2665  0.9716
   54CHL1  H26C 3992   0.797   4.046   5.362 -0.1470  0.9271 -0.1087
   54CHL1   C27 3993   0.786   3.883   5.128 -0.0181 -0.1369  0.1706
   54CHL1  H27A 3994   0.790   3.874   5.017 -2.9541  1.2651 -0.1268
   54CHL1  H27B 3995   0.887   3.924   5.148 -0.0235  0.8978 -1.6627
   54CHL1  H27C 3996   0.767   3.780   5.166  0.6168  0.0744  1.0791
   55CHL1    C3 3997   5.085   5.197   3.872 -0.3485  0.1775 -0.2967
   55CHL1    H3 3998   5.115   5.096   3.907  0.2427  0.5917  0.4090
   55CHL1    O3 3999   5.114   5.197   3.734  0.2497 -0.1210  0.2026
   55CHL1   H3' 4000   5.205   5.168   3.727 -0.4449 -2.0096 -2.7688
   55CHL1    C4 4001   4.938   5.223   3.905  0.2452 -0.0074 -0.4459
   55CHL1   H4A 4002   4.907   5.310   3.843  0.5418  2.1462  2.2573
   55CHL1   H4B 4003   4.886   5.134   3.865  1.7315 -0.7481 -0.8316
   55CHL1    C5 4004   4.916   5.233   4.058 -0.1382  0.4813 -0.4190
   55CHL1    C6 4005   4.829   5.145   4.116 -0.7461  0.6381 -0.0202
   55CHL1    H6 4006   4.767   5.075   4.058 -1.2940  0.9417  0.1810
   55CHL1    C7 4007   4.806   5.130   4.260 -0.5767 -0.3863 -0.5992
   55CHL1   H7A 4008   4.698   5.113   4.278 -0.4895 -0.7184 -0.3685
   55CHL1   H7B 4009   4.861   5.046   4.307  1.2283  0.5893 -0.8770
   55CHL1    C8 4010   4.844   5.263   4.334 -0.5839 -0.0879 -0.8510
   55CHL1    H8 4011   4.774   5.345   4.308 -0.4918  0.7241  1.3111
   55CHL1   C14 4012   4.829   5.240   4.485 -0.8786 -0.4811 -0.4982
   55CHL1   H14 4013   4.896   5.154   4.508 -0.3667 -0.0794 -0.4801
   55CHL1   C15 4014   4.699   5.198   4.552  0.4761  0.1935 -0.9705
   55CHL1  H15A 4015   4.620   5.250   4.494  0.4461 -1.2734 -2.3154
   55CHL1  H15B 4016   4.684   5.088   4.542  0.6741  0.0683  0.0390
   55CHL1   C16 4017   4.728   5.226   4.699 -0.4263  0.4366 -0.1627
   55CHL1  H16A 4018   4.639   5.268   4.752  0.8292  0.7458  1.8417
   55CHL1  H16B 4019   4.751   5.135   4.758 -0.7826  0.9223  0.7626
   55CHL1   C17 4020   4.855   5.306   4.707  0.2266 -0.3726  0.1173
   55CHL1   H17 4021   4.940   5.237   4.729  0.5668 -0.5019 -1.5318
   55CHL1   C13 4022   4.878   5.361   4.569 -0.0348 -0.4862 -0.0499
   55CHL1   C18 4023   4.788   5.490   4.549 -0.1660 -0.1338 -0.2197
   55CHL1  H18A 4024   4.825   5.579   4.604 -1.2255 -0.1211  0.5155
   55CHL1  H18B 4025   4.787   5.518   4.442  0.7867  0.7159 -0.0179
   55CHL1  H18C 4026   4.684   5.474   4.586 -0.6966 -0.9562 -1.9952
   55CHL1   C12 4027   5.028   5.385   4.531  0.2890  0.2016  0.0533
   55CHL1  H12A 4028   5.079   5.472   4.579 -0.9117  0.6594  0.5398
   55CHL1  H12B 4029   5.089   5.293   4.545 -2.1434 -1.2144  2.3978
   55CHL1   C11 4030   5.038   5.421   4.377  0.0622  0.0149  0.7215
   55CHL1  H11A 4031   4.984   5.517   4.373 -1.8406 -1.0367  0.2110
   55CHL1  H11B 4032   5.139   5.456   4.347 -0.0056 -0.5305 -0.1729
   55CHL1    C9 4033   4.978   5.312   4.293  0.1077  0.5259 -0.7583
   55CHL1    H9 4034   5.041   5.222   4.313 -1.1247 -0.5061 -1.3480
   55CHL1   C10 4035   5.000   5.332   4.149 -0.7084  0.7906  0.6484
   55CHL1   C19 4036   4.951   5.471   4.114  0.1327  0.5193 -0.6496
   55CHL1  H19A 4037   4.848   5.480   4.154  0.1886 -0.3558 -0.2969
   55CHL1  H19B 4038   5.018   5.548   4.159  0.8297 -0.0184 -0.7489
   55CHL1  H19C 4039   4.934   5.487   4.005 -5.0738  0.7622 -0.0402
   55CHL1    C1 4040   5.147   5.316   4.101 -0.6268 -0.6785  0.3290
   55CHL1   H1A 4041   5.211   5.388   4.156  0.3282 -0.8220 -0.5711
   55CHL1   H1B 4042   5.180   5.214   4.132  1.4712 -0.4692 -1.0602
   55CHL1    C2 4043   5.164   5.311   3.948 -0.2577  0.3156  0.5370
   55CHL1   H2A 4044   5.270   5.295   3.920 -0.6366 -0.6282 -0.4075
   55CHL1   H2B 4045   5.131   5.406   3.901 -1.0520  0.0425  0.5258
   55CHL1   C20 4046   4.840   5.400   4.837 -0.1129 -0.6849 -0.0933
   55CHL1   H20 4047   4.748   5.463   4.836 -0.0370 -0.5692  0.1350
   55CHL1   C21 4048   4.962   5.489   4.838 -0.3771  0.6682  0.0248
   55CHL1  H21A 4049   5.054   5.427   4.840 -0.4933  0.4063  3.5258
   55CHL1  H21B 4050   4.955   5.560   4.924  1.9728 -0.1799  0.9995
   55CHL1  H21C 4051   4.977   5.553   4.749  1.0879 -1.4755 -1.3397
   55CHL1   C22 4052   4.819   5.329   4.975  0.8252  0.3878 -0.2688
   55CHL1  H22A 4053   4.793   5.403   5.053  0.3024  0.6224 -0.6647
   55CHL1  H22B 4054   4.721   5.278   4.969  1.2759 -0.5215 -0.1088
   55CHL1   C23 4055   4.936   5.249   5.025 -0.5615 -0.2610 -0.3092
   55CHL1  H23A 4056   4.980   5.184   4.947 -0.1742 -1.6435  1.0132
   55CHL1  H23B 4057   5.007   5.331   5.047 -1.6753  1.1126 -1.5544
   55CHL1   C24 4058   4.910   5.171   5.158 -0.4782  0.3506 -0.1690
   55CHL1  H24A 4059   4.999   5.117   5.196 -0.3608 -0.7164 -1.8956
   55CHL1  H24B 4060   4.878   5.245   5.235 -0.9759  3.4352 -3.1158
   55CHL1   C25 4061   4.798   5.067   5.148 -0.0589 -0.3695 -0.6731
   55CHL1   H25 4062   4.701   5.121   5.143 -0.2805 -0.4839  1.3317
   55CHL1   C26 4063   4.807   4.975   5.025 -0.2201  0.0783  0.3032
   55CHL1  H26A 4064   4.792   5.031   4.930 -1.3418 -0.5899  0.0693
   55CHL1  H26B 4065   4.908   4.928   5.027  0.5402  1.6631 -0.0259
   55CHL1  H26C 4066   4.734   4.891   5.027  1.5517 -1.6037 -1.0253
   55CHL1   C27 4067   4.807   4.985   5.283  0.3106 -0.9696  0.3690
   55CHL1  H27A 4068   4.799   5.055   5.369 -3.0346  1.9115 -1.9607
   55CHL1  H27B 4069   4.722   4.914   5.295 -0.0221 -1.0990 -2.1875
   55CHL1  H27C 4070   4.899   4.924   5.281 -0.0501 -1.5881  1.6254
   56CHL1    C3 4071   5.565   4.132   3.971 -0.0790 -0.3326 -1.1310
   56CHL1    H3 4072   5.465   4.095   4.001  0.8678  0.5884  4.2359
   56CHL1    O3 4073   5.593   4.104   3.837  0.3058 -0.0030  0.2201
   56CHL1   H3' 4074   5.681   4.136   3.814  0.7495 -1.2635  0.1284
   56CHL1    C4 4075   5.577   4.277   3.989  0.2123 -0.1321 -0.2021
   56CHL1   H4A 4076   5.676   4.313   3.953  0.4381  0.8253  1.2654
   56CHL1   H4B 4077   5.506   4.330   3.922  1.5908  0.4279 -1.2853
   56CHL1    C5 4078   5.552   4.311   4.138 -0.2180 -0.9843 -0.0301
   56CHL1    C6 4079   5.459   4.403   4.184  0.6770 -0.4439  0.4719
   56CHL1    H6 4080   5.403   4.456   4.106 -1.9987 -1.3480  1.6335
   56CHL1    C7 4081   5.430   4.432   4.330 -0.7653 -0.0042  0.4418
   56CHL1   H7A 4082   5.400   4.539   4.339  2.7903  1.0315  1.3606
   56CHL1   H7B 4083   5.347   4.369   4.369 -1.6793  1.7066  1.4338
   56CHL1    C8 4084   5.553   4.401   4.416  0.1712 -0.1724  0.0786
   56CHL1    H8 4085   5.630   4.480   4.402 -0.5141  0.8403  1.7221
   56CHL1   C14 4086   5.512   4.401   4.563  0.5000  0.9168  0.2607
   56CHL1   H14 4087   5.435   4.320   4.563  1.1706  0.2548 -0.2234
   56CHL1   C15 4088   5.453   4.530   4.624  0.4524  0.0194  0.8196
   56CHL1  H15A 4089   5.523   4.616   4.616 -0.2049  0.4827 -0.2330
   56CHL1  H15B 4090   5.348   4.541   4.590  0.3590 -1.0557  0.7105
   56CHL1   C16 4091   5.446   4.491   4.777 -0.5938 -0.5710  1.5797
   56CHL1  H16A 4092   5.477   4.571   4.847  1.9990  0.4278 -0.5305
   56CHL1  H16B 4093   5.338   4.482   4.800 -1.5271  3.5178 -0.2418
   56CHL1   C17 4094   5.532   4.360   4.796  0.1221  0.1832 -0.4981
   56CHL1   H17 4095   5.456   4.280   4.795  0.0513  0.1905 -3.2040
   56CHL1   C13 4096   5.618   4.351   4.671 -1.3201 -0.7312 -0.1359
   56CHL1   C18 4097   5.740   4.447   4.680 -0.3093  0.0625  0.1503
   56CHL1  H18A 4098   5.760   4.484   4.577 -1.6830 -0.0956 -0.1909
   56CHL1  H18B 4099   5.722   4.541   4.737 -2.9223  0.7453 -1.5983
   56CHL1  H18C 4100   5.828   4.396   4.724  0.0896 -0.7482 -1.5019
   56CHL1   C12 4101   5.658   4.211   4.638  0.3338 -0.3954  0.4291
   56CHL1  H12A 4102   5.733   4.164   4.704  0.5226  0.2742  0.6896
   56CHL1  H12B 4103   5.563   4.153   4.646  0.6649 -0.8769  0.9328
   56CHL1   C11 4104   5.706   4.203   4.492  0.2005  0.3462  0.3514
   56CHL1  H11A 4105   5.795   4.268   4.480  2.0844 -2.0437  0.6623
   56CHL1  H11B 4106   5.744   4.102   4.464  1.6817  0.9738  0.0251
   56CHL1    C9 4107   5.604   4.257   4.383 -0.1208  0.1214  0.7117
   56CHL1    H9 4108   5.522   4.182   4.389  1.3835 -1.6242  0.4723
   56CHL1   C10 4109   5.647   4.240   4.234  0.1336 -0.1984  0.3293
   56CHL1   C19 4110   5.782   4.310   4.217  0.1613  0.1097 -0.0516
   56CHL1  H19A 4111   5.768   4.410   4.264  0.2397  0.0624  0.0747
   56CHL1  H19B 4112   5.867   4.267   4.274  0.7326 -0.6815 -1.4569
   56CHL1  H19C 4113   5.817   4.307   4.112 -1.2849  0.2088 -0.5603
   56CHL1    C1 4114   5.645   4.095   4.193  0.0016  0.0529  0.1782
   56CHL1   H1A 4115   5.711   4.034   4.258  1.3101 -0.9400 -1.9657
   56CHL1   H1B 4116   5.548   4.050   4.225 -0.5906  1.2024  0.0882
   56CHL1    C2 4117   5.675   4.063   4.050 -0.2539  0.0878 -0.2745
   56CHL1   H2A 4118   5.678   3.952   4.038  0.0048  0.1079 -0.3962
   56CHL1   H2B 4119   5.778   4.097   4.028 -0.1224  0.5992  1.0347
   56CHL1   C20 4120   5.595   4.337   4.939  1.6314  0.4224  0.2930
   56CHL1   H20 4121   5.654   4.243   4.930  1.9495  0.8200 -4.1285
   56CHL1   C21 4122   5.471   4.327   5.030 -0.1050 -0.1802 -0.1607
   56CHL1  H21A 4123   5.508   4.279   5.123  2.0069  3.1852  0.9138
   56CHL1  H21B 4124   5.398   4.256   4.987  0.3123 -1.5834  1.3109
   56CHL1  H21C 4125   5.433   4.429   5.052 -2.1630 -1.1361  1.0395
   56CHL1   C22 4126   5.686   4.449   4.996  0.5668  0.4602  0.3720
   56CHL1  H22A 4127   5.773   4.435   4.928 -0.3228  1.2563 -0.9715
   56CHL1  H22B 4128   5.636   4.545   4.974  1.2099  0.7591  0.1805
   56CHL1   C23 4129   5.732   4.437   5.145  0.3956  0.1626 -0.2844
   56CHL1  H23A 4130   5.652   4.408   5.216  1.4402 -2.2889 -0.0274
   56CHL1  H23B 4131   5.809   4.357   5.151  0.9284  0.7624  3.1163
   56CHL1   C24 4132   5.801   4.566   5.193  0.4889  0.7094 -0.1059
   56CHL1  H24A 4133   5.889   4.572   5.126  0.8430 -0.7145  0.2016
   56CHL1  H24B 4134   5.752   4.664   5.178  0.1115  0.3262 -1.4998
   56CHL1   C25 4135   5.851   4.561   5.341 -0.1584 -0.5082  0.3221
   56CHL1   H25 4136   5.871   4.666   5.371  1.2544 -0.5460 -0.3782
   56CHL1   C26 4137   5.750   4.505   5.444  0.5580 -0.2856  0.2196
   56CHL1  H26A 4138   5.649   4.551   5.433  0.4615 -0.8543 -1.5361
   56CHL1  H26B 4139   5.744   4.394   5.449  0.7859 -0.2748  0.8181
   56CHL1  H26C 4140   5.773   4.536   5.548 -2.7511  0.8161  0.7339
   56CHL1   C27 4141   5.983   4.482   5.360  0.3831 -0.4653  0.2067
   56CHL1  H27A 4142   6.066   4.526   5.300 -0.0238 -0.8774 -0.6609
   56CHL1  H27B 4143   6.013   4.488   5.467 -0.4864  0.2336  0.4316
   56CHL1  H27C 4144   5.967   4.374   5.344 -0.4774 -0.3715  0.3826
   57SAPC     N 4145   3.906   6.083   7.843 -0.6507  0.2827  0.3135
   57SAPC   C12 4146   4.054   6.092   7.864 -0.1218  0.2658 -0.2955
   57SAPC  H12A 4147   4.086   5.990   7.844  0.4786  0.3300  0.3142
   57SAPC  H12B 4148   4.080   6.122   7.964  3.0233  1.9945 -1.5140
   57SAPC   C13 4149   3.837   6.022   7.951 -1.2731  0.6983 -0.6488
   57SAPC  H13A 4150   3.865   5.918   7.952  2.7758  1.6070 -0.1679
   57SAPC  H13B 4151   3.867   6.067   8.044 -0.8963  1.6770 -1.2208
   57SAPC  H13C 4152   3.731   6.036   7.938 -1.4349  1.3568  1.1381
   57SAPC   C14 4153   3.848   6.219   7.820 -0.0168  0.6886 -0.1560
   57SAPC  H14A 4154   3.922   6.271   7.762  0.1785  2.6972  1.7629
   57SAPC  H14B 4155   3.759   6.229   7.759  0.7880  0.3724 -1.4060
   57SAPC  H14C 4156   3.823   6.282   7.904 -0.7969  0.8994 -0.5281
   57SAPC   C15 4157   3.880   6.003   7.718 -0.2804  0.6585  0.0063
   57SAPC  H15A 4158   3.946   6.035   7.639  0.6825 -0.5304  0.3114
   57SAPC  H15B 4159   3.906   5.899   7.725 -0.4472  0.0908 -4.6043
   57SAPC  H15C 4160   3.774   6.009   7.696 -0.0170  0.9247 -1.2582
   57SAPC   C11 4161   4.150   6.181   7.782  0.0559  0.4807 -1.0610
   57SAPC  H11A 4162   4.257   6.159   7.805 -0.2954 -1.0068 -0.7327
   57SAPC  H11B 4163   4.142   6.290   7.800  0.4606  0.6742 -2.0130
   57SAPC     P 4164   4.098   6.252   7.520  0.4454 -0.4168 -0.2018
   57SAPC   O13 4165   3.991   6.340   7.569  0.4476  0.1428  0.0927
   57SAPC   O14 4166   4.224   6.323   7.479 -0.2421 -0.7938 -0.0819
   57SAPC   O12 4167   4.143   6.153   7.642 -0.5249  1.0139  0.1791
   57SAPC   O11 4168   4.048   6.161   7.405  0.3284 -0.1768  0.0445
   57SAPC    C1 4169   4.120   6.088   7.311 -0.0158  0.3241 -0.7789
   57SAPC    HA 4170   4.216   6.142   7.292  0.2439 -0.0950 -0.6612
   57SAPC    HB 4171   4.145   5.988   7.352 -2.7059 -0.5865 -1.1895
   57SAPC    C2 4172   4.046   6.082   7.173 -0.3772  0.5371  0.4633
   57SAPC    HS 4173   4.108   6.028   7.098  1.0158  3.6637 -0.8333
   57SAPC   O21 4174   4.000   6.205   7.125 -0.2250  0.2048  0.0347
   57SAPC   C21 4175   4.098   6.281   7.077  0.5315  0.8733  0.0993
   57SAPC   O22 4176   4.210   6.242   7.055 -0.3391 -0.1360  0.1354
   57SAPC   C22 4177   4.049   6.416   7.025 -0.0305 -0.5715 -0.1681
   57SAPC   H2R 4178   3.938   6.417   7.036 -0.0153 -2.0837  0.4140
   57SAPC   H2S 4179   4.081   6.490   7.101  2.2227 -1.9604  0.3219
   57SAPC    C3 4180   3.914   6.000   7.184  0.6131  0.1890 -0.0075
   57SAPC    HX 4181   3.854   6.034   7.272 -0.2708  0.3553 -0.6614
   57SAPC    HY 4182   3.937   5.894   7.210 -0.3855 -0.3143 -1.1122
   57SAPC   O31 4183   3.845   5.994   7.056  0.7415 -0.6008  0.2698
   57SAPC   C31 4184   3.718   5.968   7.063 -0.2542  0.1045 -0.8663
   57SAPC   O32 4185   3.653   5.953   7.162  0.1357 -0.0721 -0.0534
   57SAPC   C32 4186   3.656   5.949   6.923 -0.0520 -0.5397  0.4704
   57SAPC   H2X 4187   3.707   5.852   6.903 -0.4163 -0.4899 -0.8499
   57SAPC   H2Y 4188   3.693   6.038   6.867  0.0710  0.5272  2.2046
   57SAPC   C23 4189   4.077   6.435   6.880 -0.3965  0.1946 -0.1177
   57SAPC   H3R 4190   4.028   6.355   6.820  1.0617 -1.0582  0.2972
   57SAPC   H3S 4191   4.187   6.420   6.873 -0.0864  1.8971  0.5750
   57SAPC   C24 4192   4.040   6.571   6.816  0.2322 -0.0619 -0.5169
   57SAPC   H4R 4193   3.929   6.573   6.820  0.2210  0.2441 -0.9561
   57SAPC   H4S 4194   4.062   6.561   6.708  3.2345 -0.1278  0.0037
   57SAPC   C25 4195   4.096   6.700   6.870  0.7358 -1.1044 -0.4380
   57SAPC   H5R 4196   4.044   6.737   6.959  4.1783 -1.0516  1.7550
   57SAPC   C26 4197   4.203   6.773   6.833  0.2070  0.0684  0.3728
   57SAPC   H6R 4198   4.222   6.868   6.884 -0.3505 -0.6101  1.9200
   57SAPC   C27 4199   4.300   6.748   6.714  0.5874  0.3469  0.0330
   57SAPC   H7R 4200   4.305   6.637   6.702 -1.3922  0.2391 -0.0779
   57SAPC   H7S 4201   4.398   6.792   6.745  0.1519 -0.0230  2.0942
   57SAPC   C28 4202   4.239   6.809   6.587  0.8262  0.5369 -0.5415
   57SAPC   H8R 4203   4.129   6.816   6.585  0.8760  1.1989 -1.3735
   57SAPC   C29 4204   4.315   6.831   6.479 -0.3679 -0.3459  0.0482
   57SAPC   H9R 4205   4.259   6.879   6.397 -0.5183 -1.8503 -0.7739
   57SAPC  C210 4206   4.458   6.805   6.464  0.4561  0.3163  0.5395
   57SAPC  H10R 4207   4.487   6.708   6.509  1.1806 -0.9018 -2.3152
   57SAPC  H10S 4208   4.524   6.879   6.513  0.0246 -0.2709  2.0538
   57SAPC  C211 4209   4.499   6.808   6.312  0.3779  0.1400  0.4996
   57SAPC  H11R 4210   4.411   6.796   6.247  0.7944 -0.3289  0.0135
   57SAPC  C212 4211   4.626   6.814   6.261 -0.3564 -0.0130 -0.0913
   57SAPC  H12R 4212   4.641   6.802   6.153 -1.4843 -2.2314 -0.0605
   57SAPC  C213 4213   4.745   6.796   6.358  0.1137 -0.5540 -0.2579
   57SAPC  H13R 4214   4.815   6.722   6.314  1.4669  0.9473 -0.7162
   57SAPC  H13S 4215   4.713   6.735   6.445  2.2103  1.6923  2.2644
   57SAPC  C214 4216   4.809   6.924   6.404 -0.1208 -0.0700  0.8179
   57SAPC  H14R 4217   4.760   6.966   6.493  1.4984 -0.5904  2.0169
   57SAPC  C215 4218   4.903   7.002   6.344 -0.2194 -0.0609 -0.1299
   57SAPC  H15R 4219   4.957   7.086   6.389 -0.2140  0.7682 -1.6260
   57SAPC  C216 4220   4.971   6.955   6.216  0.4018 -0.7504  0.0561
   57SAPC  H16R 4221   4.949   6.848   6.196 -1.5294 -0.0814 -1.7752
   57SAPC  H16S 4222   5.079   6.979   6.207  0.3776 -0.7952 -0.3575
   57SAPC  C217 4223   4.890   7.039   6.109  0.0120 -0.3156  0.3045
   57SAPC  H17R 4224   4.918   7.145   6.123 -0.6185  0.0595 -1.1227
   57SAPC  H17S 4225   4.782   7.016   6.121 -0.1272 -0.0332 -0.3591
   57SAPC  C218 4226   4.928   7.007   5.967 -0.2997  0.6003 -0.3161
   57SAPC  H18R 4227   4.904   6.901   5.946  2.3000 -0.2465  0.5752
   57SAPC  H18S 4228   5.037   7.026   5.956 -0.6762  3.9086  0.3864
   57SAPC  C219 4229   4.857   7.105   5.878  0.3574  0.0207 -0.4657
   57SAPC  H19R 4230   4.873   7.212   5.902  2.1638 -0.2666 -0.2351
   57SAPC  H19S 4231   4.750   7.077   5.885 -0.0071  0.9859 -1.7582
   57SAPC  C220 4232   4.885   7.092   5.728 -0.7573  0.1784  0.4745
   57SAPC  H20R 4233   4.989   7.058   5.709 -0.1473  1.8839  0.6913
   57SAPC  H20S 4234   4.864   7.192   5.685 -0.7396 -0.5623 -1.3663
   57SAPC  H20T 4235   4.824   7.014   5.676 -0.4506  1.0801 -1.2916
   57SAPC   C33 4236   3.502   5.929   6.906  0.5373 -0.0644 -0.3850
   57SAPC   H3X 4237   3.446   6.025   6.908 -0.3561 -0.5398  2.5081
   57SAPC   H3Y 4238   3.465   5.875   6.996  0.7866 -0.5757 -0.5920
   57SAPC   C34 4239   3.463   5.849   6.779  0.4274 -0.8829 -0.1673
   57SAPC   H4X 4240   3.352   5.844   6.771  0.4850  0.1813 -2.5360
   57SAPC   H4Y 4241   3.509   5.748   6.777 -0.1324 -1.1651  0.6853
   57SAPC   C35 4242   3.508   5.931   6.653  0.4009  0.4571 -0.1612
   57SAPC   H5X 4243   3.619   5.937   6.665  0.4378 -2.0938  1.4655
   57SAPC   H5Y 4244   3.457   6.029   6.666 -1.1173 -0.4265  0.7590
   57SAPC   C36 4245   3.479   5.853   6.525 -0.2090  0.2199  0.6963
   57SAPC   H6X 4246   3.374   5.816   6.531 -0.2143  0.1744  0.2900
   57SAPC   H6Y 4247   3.539   5.761   6.517 -0.4007 -0.0642  2.2388
   57SAPC   C37 4248   3.501   5.950   6.408 -0.5006 -0.3429  0.3522
   57SAPC   H7X 4249   3.605   5.986   6.412 -1.4604  2.7163  0.2676
   57SAPC   H7Y 4250   3.440   6.042   6.421  0.8548  0.7352 -0.5962
   57SAPC   C38 4251   3.489   5.873   6.272  0.4444  0.0816  0.9336
   57SAPC   H8X 4252   3.385   5.835   6.256  0.2744  1.4008 -1.5775
   57SAPC   H8Y 4253   3.569   5.797   6.267 -1.8187 -2.4521  0.5070
   57SAPC   C39 4254   3.507   5.968   6.156  1.1360 -0.4908  0.7819
   57SAPC   H9X 4255   3.530   5.917   6.060  1.7905  0.6389  0.3270
   57SAPC   H9Y 4256   3.607   6.013   6.172  0.1387  1.7639  1.0524
   57SAPC  C310 4257   3.392   6.066   6.140  0.8913 -0.1278 -0.6626
   57SAPC  H10X 4258   3.395   6.123   6.235  2.3485 -2.1225  0.5668
   57SAPC  H10Y 4259   3.297   6.008   6.133 -0.0585  1.5332 -2.3496
   57SAPC  C311 4260   3.391   6.153   6.009  0.0751 -0.3331  0.1045
   57SAPC  H11X 4261   3.482   6.217   6.010  1.1740 -1.7944 -0.8923
   57SAPC  H11Y 4262   3.298   6.213   6.001  0.6730  0.4780 -1.0999
   57SAPC  C312 4263   3.395   6.075   5.878  0.0348  0.3396 -0.5226
   57SAPC  H12X 4264   3.311   6.004   5.862  0.3012  0.1327 -1.0131
   57SAPC  H12Y 4265   3.488   6.014   5.886 -1.3263 -1.8582 -0.5511
   57SAPC  C313 4266   3.388   6.155   5.746  0.1646 -0.0607 -0.5263
   57SAPC  H13X 4267   3.469   6.230   5.737  0.5469 -0.3980  0.0565
   57SAPC  H13Y 4268   3.284   6.195   5.737 -0.2094 -1.3912 -4.4060
   57SAPC  C314 4269   3.404   6.060   5.626 -0.2040  0.0674 -0.7656
   57SAPC  H14X 4270   3.397   6.125   5.536  0.7686  3.0038  1.1386
   57SAPC  H14Y 4271   3.325   5.982   5.627 -0.4135  0.2027  2.1332
   57SAPC  C315 4272   3.542   5.995   5.613 -0.5267  0.3094 -0.1312
   57SAPC  H15X 4273   3.547   5.896   5.664 -0.0224  0.2661 -0.2611
   57SAPC  H15Y 4274   3.623   6.059   5.653 -1.4893  0.6103  1.4078
   57SAPC  C316 4275   3.579   5.964   5.464 -0.0566  0.3419  0.3470
   57SAPC  H16X 4276   3.555   6.057   5.409  0.4926 -1.2059 -2.7528
   57SAPC  H16Y 4277   3.501   5.891   5.431  0.0088  0.2474  0.4020
   57SAPC  C317 4278   3.724   5.939   5.439  0.4948  0.2249  0.1699
   57SAPC  H17X 4279   3.783   6.025   5.478 -0.0197  0.0736  1.3292
   57SAPC  H17Y 4280   3.745   5.927   5.331  1.0675 -0.8414  0.3781
   57SAPC  C318 4281   3.786   5.805   5.497 -0.3738 -0.1484 -0.5708
   57SAPC  H18X 4282   3.896   5.805   5.485 -0.5477 -0.0374 -2.4773
   57SAPC  H18Y 4283   3.741   5.718   5.446 -0.2304 -1.5176  1.5103
   57SAPC  H18Z 4284   3.766   5.792   5.605  3.5653  1.2278  0.4979
   58SAPC     N 4285   1.475   4.627   8.237  0.1968 -0.1196 -0.0456
   58SAPC   C12 4286   1.460   4.532   8.117  0.0294 -0.0623  0.2970
   58SAPC  H12A 4287   1.372   4.553   8.058 -1.1374 -5.5408 -0.4263
   58SAPC  H12B 4288   1.435   4.436   8.159 -0.0890 -0.2785 -0.2556
   58SAPC   C13 4289   1.601   4.587   8.312  0.0607 -0.3451 -0.4368
   58SAPC  H13A 4290   1.688   4.578   8.249  1.2976 -1.8161  1.3852
   58SAPC  H13B 4291   1.616   4.661   8.389 -0.0717  0.2113 -0.9283
   58SAPC  H13C 4292   1.589   4.490   8.357 -3.2899  1.0504  2.0914
   58SAPC   C14 4293   1.495   4.768   8.189  0.2940 -0.0786 -0.0147
   58SAPC  H14A 4294   1.560   4.775   8.103  0.3447  1.5255  0.1229
   58SAPC  H14B 4295   1.403   4.813   8.155 -0.1563 -0.8055  0.2114
   58SAPC  H14C 4296   1.540   4.825   8.268  0.6223 -0.3098 -0.0328
   58SAPC   C15 4297   1.351   4.628   8.325 -0.1488  0.3292  0.5798
   58SAPC  H15A 4298   1.266   4.675   8.279 -0.2389 -0.1992  0.1895
   58SAPC  H15B 4299   1.323   4.530   8.361  0.0802 -0.5528 -1.4987
   58SAPC  H15C 4300   1.359   4.683   8.418  2.0963 -0.2759  0.7905
   58SAPC   C11 4301   1.576   4.512   8.027 -0.4747 -0.4621  0.2866
   58SAPC  H11A 4302   1.553   4.431   7.955 -0.9362 -0.4302  0.3985
   58SAPC  H11B 4303   1.662   4.468   8.082  1.2592 -0.3363 -2.1649
   58SAPC     P 4304   1.553   4.676   7.818  0.0256  0.1258  0.1791
   58SAPC   O13 4305   1.414   4.629   7.796 -0.3185  0.5085 -0.5225
   58SAPC   O14 4306   1.559   4.824   7.808 -0.6782  0.3489 -0.2325
   58SAPC   O12 4307   1.616   4.632   7.958  0.1005  0.2532  0.0556
   58SAPC   O11 4308   1.652   4.618   7.710  0.3478 -0.0190 -0.5016
   58SAPC    C1 4309   1.652   4.482   7.691 -0.1735  0.6276 -0.6630
   58SAPC    HA 4310   1.746   4.451   7.741  1.0504  2.0070 -1.9969
   58SAPC    HB 4311   1.562   4.437   7.738 -1.5832  2.4210 -1.5591
   58SAPC    C2 4312   1.647   4.455   7.539 -0.1882 -0.3742 -0.2651
   58SAPC    HS 4313   1.738   4.507   7.501 -0.2378 -1.5086 -2.0787
   58SAPC   O21 4314   1.521   4.510   7.501  0.5205  0.0868 -0.0012
   58SAPC   C21 4315   1.524   4.598   7.406 -0.6231  0.3750 -0.1231
   58SAPC   O22 4316   1.624   4.638   7.352  0.2076 -0.1642 -1.1533
   58SAPC   C22 4317   1.384   4.639   7.369  0.1911 -0.4207 -0.4910
   58SAPC   H2R 4318   1.336   4.556   7.314 -1.2565 -0.1013  0.2533
   58SAPC   H2S 4319   1.329   4.662   7.463 -0.3746  1.5205 -1.2620
   58SAPC    C3 4320   1.658   4.305   7.510  0.2000  0.1040  0.2953
   58SAPC    HX 4321   1.574   4.252   7.560 -0.0869 -1.0744 -1.3711
   58SAPC    HY 4322   1.751   4.265   7.554 -0.1143  0.7067  1.5802
   58SAPC   O31 4323   1.668   4.292   7.365  0.3047  0.2562  0.0809
   58SAPC   C31 4324   1.619   4.185   7.321  0.1724  0.1812  0.0699
   58SAPC   O32 4325   1.582   4.087   7.386 -0.0538 -0.7564 -0.6138
   58SAPC   C32 4326   1.627   4.189   7.166  0.5471  0.2061 -0.1498
   58SAPC   H2X 4327   1.612   4.087   7.125 -0.4783 -0.1076  0.9556
   58SAPC   H2Y 4328   1.722   4.235   7.130  1.0081 -0.8635 -0.3439
   58SAPC   C23 4329   1.375   4.772   7.293 -0.3644  0.5670 -0.2137
   58SAPC   H3R 4330   1.432   4.848   7.351 -0.0975 -1.5803  2.5688
   58SAPC   H3S 4331   1.274   4.816   7.308 -0.5002 -0.7665  4.5200
   58SAPC   C24 4332   1.419   4.771   7.151  0.3311 -0.4792  0.5017
   58SAPC   H4R 4333   1.366   4.685   7.105 -1.3308  0.3317  0.8192
   58SAPC   H4S 4334   1.527   4.747   7.137  0.0413 -1.7839  0.3633
   58SAPC   C25 4335   1.380   4.883   7.061  0.9189 -0.5826  1.0177
   58SAPC   H5R 4336   1.328   4.964   7.114 -1.6648 -1.1034 -0.5503
   58SAPC   C26 4337   1.420   4.903   6.934 -0.0799 -0.1392 -0.5739
   58SAPC   H6R 4338   1.373   4.981   6.872 -2.3218  0.1155  1.2941
   58SAPC   C27 4339   1.516   4.804   6.859 -0.3625 -0.0001 -0.3314
   58SAPC   H7R 4340   1.453   4.763   6.777  0.1670 -2.4648  0.3892
   58SAPC   H7S 4341   1.536   4.714   6.922  4.7165 -0.3713 -2.0618
   58SAPC   C28 4342   1.653   4.856   6.818  0.5375  0.6978  0.6820
   58SAPC   H8R 4343   1.718   4.890   6.899  2.0635  2.9405 -1.3435
   58SAPC   C29 4344   1.705   4.860   6.690  1.1730  0.3806  0.3853
   58SAPC   H9R 4345   1.805   4.904   6.682  0.0818  2.5818 -3.6791
   58SAPC  C210 4346   1.628   4.807   6.566  0.3792  0.6125  0.6773
   58SAPC  H10R 4347   1.588   4.891   6.506 -1.9241 -1.3810 -0.7980
   58SAPC  H10S 4348   1.538   4.747   6.592 -0.0882  0.5376 -0.9724
   58SAPC  C211 4349   1.714   4.716   6.480  0.8638 -0.3247 -0.0875
   58SAPC  H11R 4350   1.745   4.623   6.530 -0.4562  1.0960  3.7387
   58SAPC  C212 4351   1.772   4.745   6.361 -0.2668  0.1023 -0.2644
   58SAPC  H12R 4352   1.846   4.670   6.332 -0.8718 -0.5436 -0.1566
   58SAPC  C213 4353   1.757   4.877   6.283  0.4010  0.4326  0.0546
   58SAPC  H13R 4354   1.858   4.897   6.242 -0.4195 -1.0087 -2.9450
   58SAPC  H13S 4355   1.730   4.968   6.342 -1.3314 -0.2719  0.4256
   58SAPC  C214 4356   1.657   4.848   6.173 -0.4331 -0.1524 -0.5069
   58SAPC  H14R 4357   1.554   4.852   6.209  0.1565 -0.0047  1.2600
   58SAPC  C215 4358   1.687   4.821   6.044 -0.7956 -0.3535 -0.4808
   58SAPC  H15R 4359   1.602   4.807   5.976 -2.4709  2.5337  0.8101
   58SAPC  C216 4360   1.824   4.807   5.981 -0.7171  0.1909  0.1280
   58SAPC  H16R 4361   1.826   4.701   5.947 -0.0934 -0.7419  2.8686
   58SAPC  H16S 4362   1.905   4.811   6.056 -1.7315  1.9874  1.1899
   58SAPC  C217 4363   1.859   4.909   5.871 -0.5557 -0.1893  0.3096
   58SAPC  H17R 4364   1.865   5.013   5.910  0.4805 -0.8268  1.9423
   58SAPC  H17S 4365   1.780   4.897   5.793  1.7048  2.1750 -2.5772
   58SAPC  C218 4366   1.989   4.863   5.797  0.2434  0.0822 -0.8116
   58SAPC  H18R 4367   1.976   4.753   5.790  1.2319  0.0036 -1.7375
   58SAPC  H18S 4368   2.072   4.879   5.870 -0.0957 -0.4061 -0.3122
   58SAPC  C219 4369   2.006   4.930   5.662  0.5742 -0.3088  0.7967
   58SAPC  H19R 4370   2.112   4.923   5.629  0.9022  3.7212  0.5587
   58SAPC  H19S 4371   1.987   5.039   5.668 -1.6444 -0.6445  0.6563
   58SAPC  C220 4372   1.925   4.879   5.545 -0.5022  0.5095  0.3690
   58SAPC  H20R 4373   1.820   4.869   5.577 -1.0802  1.3400 -1.1598
   58SAPC  H20S 4374   1.975   4.786   5.510  0.6016  0.8287  1.0344
   58SAPC  H20T 4375   1.934   4.948   5.458  1.5074  0.9980  0.8995
   58SAPC   C33 4376   1.519   4.273   7.103  0.2509  0.1906  0.1096
   58SAPC   H3X 4377   1.528   4.379   7.132 -3.2924  0.6266  0.0721
   58SAPC   H3Y 4378   1.427   4.242   7.157  0.4720  0.3945  0.6135
   58SAPC   C34 4379   1.509   4.253   6.950 -0.0370 -0.2629 -1.1944
   58SAPC   H4X 4380   1.525   4.148   6.921 -1.6196 -1.0518  0.5772
   58SAPC   H4Y 4381   1.589   4.315   6.905 -0.1091 -0.2727 -1.3345
   58SAPC   C35 4382   1.375   4.293   6.888  0.4970 -0.1900 -0.8360
   58SAPC   H5X 4383   1.342   4.395   6.917  1.1457 -0.5141  1.2034
   58SAPC   H5Y 4384   1.308   4.228   6.948  0.6906  0.4240  0.0817
   58SAPC   C36 4385   1.359   4.268   6.740  0.0592  0.7176  0.0199
   58SAPC   H6X 4386   1.251   4.261   6.716 -0.1716  0.4250  1.0728
   58SAPC   H6Y 4387   1.410   4.170   6.726 -1.1021 -0.0227  0.7876
   58SAPC   C37 4388   1.421   4.364   6.644  0.0917  0.2861  1.0192
   58SAPC   H7X 4389   1.524   4.335   6.612 -0.2052  0.8352 -0.5509
   58SAPC   H7Y 4390   1.425   4.468   6.683  0.6065  0.4139  0.6472
   58SAPC   C38 4391   1.333   4.387   6.513  0.0304 -0.4396 -0.0486
   58SAPC   H8X 4392   1.231   4.413   6.548 -1.1579 -1.7341 -2.3146
   58SAPC   H8Y 4393   1.317   4.298   6.449 -3.6767  1.4118 -2.0224
   58SAPC   C39 4394   1.384   4.503   6.425  0.7645 -0.8457  0.5088
   58SAPC   H9X 4395   1.494   4.497   6.414  0.7726 -1.9828  1.0294
   58SAPC   H9Y 4396   1.356   4.603   6.465 -2.4490 -1.2598 -0.3698
   58SAPC  C310 4397   1.315   4.506   6.289  0.7520  0.0122  0.2919
   58SAPC  H10X 4398   1.206   4.500   6.310  0.9942  2.2945  2.7222
   58SAPC  H10Y 4399   1.352   4.419   6.230 -1.4305 -0.0026 -1.1629
   58SAPC  C311 4400   1.340   4.637   6.217  0.4400  0.2056 -0.0678
   58SAPC  H11X 4401   1.446   4.646   6.185  1.4335  0.6358  2.9779
   58SAPC  H11Y 4402   1.318   4.720   6.287  2.0422 -0.3698  1.1931
   58SAPC  C312 4403   1.252   4.655   6.097 -0.6042 -0.1207 -0.4158
   58SAPC  H12X 4404   1.144   4.637   6.117 -0.5123 -0.6226 -0.3651
   58SAPC  H12Y 4405   1.287   4.591   6.014  0.3920  0.5065 -0.4929
   58SAPC  C313 4406   1.275   4.797   6.036 -0.0134  0.0077 -0.7180
   58SAPC  H13X 4407   1.378   4.826   6.065  0.1215  1.0564 -2.1549
   58SAPC  H13Y 4408   1.203   4.866   6.086 -1.5470 -0.2537 -2.4321
   58SAPC  C314 4409   1.247   4.811   5.884 -0.2551  0.2873  0.5217
   58SAPC  H14X 4410   1.149   4.767   5.853  0.5036 -0.1720 -1.3533
   58SAPC  H14Y 4411   1.334   4.768   5.830  1.3065  2.2425  1.3806
   58SAPC  C315 4412   1.241   4.957   5.844 -0.0845 -0.2718  0.3259
   58SAPC  H15X 4413   1.182   5.007   5.924 -2.0275  0.3978 -1.4337
   58SAPC  H15Y 4414   1.172   4.968   5.757  0.3276 -1.0602 -0.1060
   58SAPC  C316 4415   1.379   5.020   5.811  0.0853  0.2957  0.8764
   58SAPC  H16X 4416   1.448   4.995   5.894 -1.1864 -1.5208  1.4503
   58SAPC  H16Y 4417   1.377   5.130   5.797  1.3445  0.2961  0.6432
   58SAPC  C317 4418   1.438   4.966   5.676 -0.3194 -0.4578 -0.1818
   58SAPC  H17X 4419   1.361   4.979   5.596  0.6648  1.4539 -0.8896
   58SAPC  H17Y 4420   1.462   4.859   5.690 -1.2110 -0.5157  1.0604
   58SAPC  C318 4421   1.560   5.043   5.618  0.3774 -0.6972  0.4669
   58SAPC  H18X 4422   1.540   5.151   5.603  0.5159 -0.9973 -2.4612
   58SAPC  H18Y 4423   1.588   4.995   5.522  0.9902 -2.0338  1.2847
   58SAPC  H18Z 4424   1.647   5.052   5.687 -0.2057  0.4439  1.0952
   59SAPC     N 4425   1.533   2.182   7.788  0.4391 -0.4480  0.4179
   59SAPC   C12 4426   1.609   2.253   7.676 -0.0645 -0.6659  0.4626
   59SAPC  H12A 4427   1.709   2.216   7.657 -0.4136 -1.1051 -0.5818
   59SAPC  H12B 4428   1.627   2.355   7.706  0.8925 -0.6435 -0.1436
   59SAPC   C13 4429   1.396   2.243   7.805 -0.1485  0.4523 -0.5202
   59SAPC  H13A 4430   1.352   2.267   7.710 -2.3480  0.9105  0.5486
   59SAPC  H13B 4431   1.331   2.173   7.855 -1.3250  1.2515 -0.9028
   59SAPC  H13C 4432   1.397   2.330   7.869 -0.9047  0.8324 -1.0138
   59SAPC   C14 4433   1.517   2.039   7.755  0.1089 -0.0342  0.1612
   59SAPC  H14A 4434   1.464   2.026   7.661  0.3620  0.4231 -0.0517
   59SAPC  H14B 4435   1.607   1.980   7.745 -1.0637 -1.6910 -1.2795
   59SAPC  H14C 4436   1.469   1.987   7.837 -0.3988 -1.1816 -0.8225
   59SAPC   C15 4437   1.606   2.199   7.916 -0.5356 -0.7311 -0.4116
   59SAPC  H15A 4438   1.604   2.301   7.950 -1.7376 -0.4676 -1.2021
   59SAPC  H15B 4439   1.579   2.126   7.991  1.8677  0.7337  2.0546
   59SAPC  H15C 4440   1.710   2.183   7.893  0.2616  1.6391  1.2378
   59SAPC   C11 4441   1.533   2.256   7.533 -0.2121  0.5551 -0.4879
   59SAPC  H11A 4442   1.601   2.318   7.470 -0.1699 -0.0537 -1.0424
   59SAPC  H11B 4443   1.444   2.319   7.552  0.0509  0.4450  1.2781
   59SAPC     P 4444   1.627   2.040   7.415 -0.1421 -0.3912 -0.0237
   59SAPC   O13 4445   1.756   2.109   7.439  0.1388 -0.2689  0.0893
   59SAPC   O14 4446   1.620   1.902   7.454  0.3234 -0.1468  0.0100
   59SAPC   O12 4447   1.504   2.123   7.477  0.1532 -0.5638 -0.2994
   59SAPC   O11 4448   1.598   2.054   7.262 -0.8127  0.6952  0.2356
   59SAPC    C1 4449   1.469   2.050   7.196 -0.2450  0.7316 -0.8024
   59SAPC    HA 4450   1.411   2.139   7.229 -1.2051 -0.3928  0.6990
   59SAPC    HB 4451   1.479   2.064   7.086 -1.6201  2.0884 -0.7787
   59SAPC    C2 4452   1.384   1.921   7.224  0.2770  0.5226  0.4450
   59SAPC    HS 4453   1.384   1.898   7.332 -1.5097  0.2326  0.4135
   59SAPC   O21 4454   1.438   1.799   7.161 -0.3795  0.3520  0.6895
   59SAPC   C21 4455   1.396   1.683   7.208  0.1530  0.2177 -0.1900
   59SAPC   O22 4456   1.303   1.663   7.287  0.0309  0.2537  0.6289
   59SAPC   C22 4457   1.504   1.580   7.165 -0.3787 -0.0040  0.0771
   59SAPC   H2R 4458   1.554   1.611   7.070  1.5381 -2.4860  0.1883
   59SAPC   H2S 4459   1.583   1.590   7.243  0.0356 -0.2021 -0.3133
   59SAPC    C3 4460   1.239   1.947   7.195 -0.2236 -0.6315  0.1559
   59SAPC    HX 4461   1.187   2.012   7.268 -0.4127  1.2881 -1.5830
   59SAPC    HY 4462   1.188   1.850   7.208 -0.6422 -0.4910 -0.3905
   59SAPC   O31 4463   1.225   2.000   7.061 -0.4612 -0.2541 -0.3336
   59SAPC   C31 4464   1.114   2.053   7.021  0.3744  0.6915 -0.2832
   59SAPC   O32 4465   1.007   2.053   7.082 -0.3921 -0.2068 -0.9394
   59SAPC   C32 4466   1.141   2.109   6.881 -0.0228  0.0920 -0.4054
   59SAPC   H2X 4467   1.233   2.070   6.832  0.2594  0.6841 -0.3544
   59SAPC   H2Y 4468   1.153   2.216   6.908  1.5379 -0.2887  0.5567
   59SAPC   C23 4469   1.449   1.441   7.155  0.0781  0.2596 -0.1334
   59SAPC   H3R 4470   1.381   1.431   7.243 -1.5983  0.8305 -1.3182
   59SAPC   H3S 4471   1.520   1.355   7.149 -0.7502 -0.3886 -0.8438
   59SAPC   C24 4472   1.361   1.428   7.029  0.6689 -0.2094 -0.2884
   59SAPC   H4R 4473   1.298   1.518   7.011  0.5663 -0.2087  0.0766
   59SAPC   H4S 4474   1.294   1.343   7.053 -0.2993  0.8792  1.0423
   59SAPC   C25 4475   1.428   1.389   6.905 -0.5001  0.6701  0.2829
   59SAPC   H5R 4476   1.446   1.281   6.898  1.0897  0.9736 -1.0643
   59SAPC   C26 4477   1.476   1.476   6.806 -0.0344 -0.5802  0.3648
   59SAPC   H6R 4478   1.509   1.427   6.713  0.8821 -1.3214  1.0605
   59SAPC   C27 4479   1.443   1.624   6.791 -0.3289  0.5609  0.2472
   59SAPC   H7R 4480   1.533   1.677   6.829  0.2215 -0.9261  1.0828
   59SAPC   H7S 4481   1.359   1.661   6.855 -1.9148 -0.2424 -1.2746
   59SAPC   C28 4482   1.426   1.672   6.653  0.6572 -0.2721  0.7455
   59SAPC   H8R 4483   1.439   1.596   6.574  0.4262  1.8678 -1.4400
   59SAPC   C29 4484   1.415   1.801   6.611  0.0381  0.7160 -0.3500
   59SAPC   H9R 4485   1.410   1.811   6.502  0.2192 -1.6309 -0.6280
   59SAPC  C210 4486   1.412   1.924   6.697 -0.3238 -0.5227 -0.0009
   59SAPC  H10R 4487   1.390   1.897   6.802  2.3762 -0.4068  0.6622
   59SAPC  H10S 4488   1.337   1.991   6.649  2.4056  2.4486 -0.5032
   59SAPC  C211 4489   1.547   1.986   6.687 -0.5612  0.2879 -0.1147
   59SAPC  H11R 4490   1.616   1.976   6.772 -1.0650  0.2640  0.2970
   59SAPC  C212 4491   1.585   2.066   6.583  0.3682  0.2742  0.3810
   59SAPC  H12R 4492   1.692   2.092   6.582  0.4644 -0.1383 -0.9487
   59SAPC  C213 4493   1.500   2.083   6.455  0.6225 -0.3256 -0.4177
   59SAPC  H13R 4494   1.501   2.191   6.429 -1.2907 -0.1946 -0.1057
   59SAPC  H13S 4495   1.393   2.057   6.472  0.0565  1.1148 -1.5596
   59SAPC  C214 4496   1.569   2.011   6.344 -0.0343 -0.4672  0.1159
   59SAPC  H14R 4497   1.613   1.916   6.379 -1.4537 -0.8211  1.0834
   59SAPC  C215 4498   1.597   2.056   6.220  0.6657 -0.1724  0.3095
   59SAPC  H15R 4499   1.639   1.984   6.148 -0.3382 -0.6766  0.2087
   59SAPC  C216 4500   1.547   2.186   6.165 -0.2597 -0.5029  0.8364
   59SAPC  H16R 4501   1.632   2.257   6.153 -0.9751  0.1879 -0.3093
   59SAPC  H16S 4502   1.472   2.246   6.221  1.0528  2.3062 -0.2234
   59SAPC  C217 4503   1.477   2.179   6.028 -0.3324  0.2136  0.1441
   59SAPC  H17R 4504   1.400   2.253   5.997 -1.2766 -1.6599 -2.2979
   59SAPC  H17S 4505   1.412   2.089   6.035  3.2343 -2.4716  1.9758
   59SAPC  C218 4506   1.572   2.162   5.916  0.0978 -0.3651  0.4874
   59SAPC  H18R 4507   1.631   2.068   5.919  2.6226  1.1551  1.4380
   59SAPC  H18S 4508   1.645   2.245   5.927 -1.3665  1.2044 -1.0188
   59SAPC  C219 4509   1.515   2.170   5.780 -0.5915  0.0590 -0.2791
   59SAPC  H19R 4510   1.459   2.266   5.778  0.1838  0.5454 -3.3299
   59SAPC  H19S 4511   1.440   2.089   5.774  0.3025 -0.9516  1.3302
   59SAPC  C220 4512   1.621   2.157   5.675 -0.4388  0.0335 -0.3630
   59SAPC  H20R 4513   1.683   2.249   5.669 -0.3618 -0.1292 -3.5501
   59SAPC  H20S 4514   1.564   2.151   5.579 -1.7989  2.1936  0.2323
   59SAPC  H20T 4515   1.691   2.073   5.695  0.9883  1.0510 -0.9296
   59SAPC   C33 4516   1.023   2.108   6.777  0.2161  0.2300 -0.7980
   59SAPC   H3X 4517   0.926   2.118   6.831  1.2700  0.3279  1.1644
   59SAPC   H3Y 4518   1.041   2.012   6.724  0.3797 -1.1459  1.6183
   59SAPC   C34 4519   1.028   2.226   6.683 -0.2132  0.4779 -0.5849
   59SAPC   H4X 4520   1.016   2.319   6.742 -0.1494  0.3775 -0.4124
   59SAPC   H4Y 4521   0.939   2.217   6.618  0.4228 -1.3436 -1.2737
   59SAPC   C35 4522   1.151   2.241   6.598 -0.1513 -0.0087 -0.2543
   59SAPC   H5X 4523   1.150   2.153   6.530 -0.7862 -0.2648  0.0807
   59SAPC   H5Y 4524   1.249   2.244   6.651  0.3727 -0.3884 -1.1739
   59SAPC   C36 4525   1.136   2.371   6.525 -0.3153  0.0479  0.5228
   59SAPC   H6X 4526   1.192   2.448   6.582 -1.0901 -0.8903  2.6464
   59SAPC   H6Y 4527   1.030   2.403   6.527 -0.5956 -0.4141 -2.4310
   59SAPC   C37 4528   1.194   2.353   6.381  0.0099  0.0810  0.4440
   59SAPC   H7X 4529   1.143   2.272   6.325 -0.6034  0.2982  0.6776
   59SAPC   H7Y 4530   1.302   2.325   6.381  0.7051  2.2023 -2.5967
   59SAPC   C38 4531   1.187   2.483   6.301 -0.8871  0.0314 -0.1424
   59SAPC   H8X 4532   1.247   2.459   6.210  0.6425 -2.2706  1.3586
   59SAPC   H8Y 4533   1.242   2.569   6.344  0.4906 -1.1528  0.5724
   59SAPC   C39 4534   1.043   2.522   6.264 -0.1022  0.5169  0.3750
   59SAPC   H9X 4535   0.996   2.531   6.365 -1.3545 -0.1794 -0.1151
   59SAPC   H9Y 4536   1.005   2.431   6.212  1.6746 -0.8398  1.3539
   59SAPC  C310 4537   1.019   2.644   6.177  1.6202 -0.0774 -0.2460
   59SAPC  H10X 4538   1.051   2.726   6.244  1.7198  0.4585 -0.9402
   59SAPC  H10Y 4539   0.910   2.654   6.154  1.7408  2.1643 -0.0552
   59SAPC  C311 4540   1.085   2.628   6.040  0.8753 -0.2355 -0.0125
   59SAPC  H11X 4541   1.064   2.523   6.014  0.4786 -0.1662  0.0175
   59SAPC  H11Y 4542   1.193   2.630   6.068  1.0667 -3.1614 -0.2235
   59SAPC  C312 4543   1.044   2.732   5.937 -1.0084 -0.3074 -0.0121
   59SAPC  H12X 4544   1.067   2.833   5.978 -0.3311  0.2280 -1.6298
   59SAPC  H12Y 4545   0.934   2.722   5.925 -1.5407  0.8727  2.9553
   59SAPC  C313 4546   1.125   2.712   5.812  0.6645  0.2768  0.1610
   59SAPC  H13X 4547   1.112   2.604   5.791  3.8710 -0.2804  0.5542
   59SAPC  H13Y 4548   1.229   2.751   5.820  0.6927  1.1212 -2.9095
   59SAPC  C314 4549   1.060   2.790   5.701  0.2492 -0.3503  0.2202
   59SAPC  H14X 4550   1.129   2.830   5.624 -0.4324  1.1264  0.3510
   59SAPC  H14Y 4551   1.033   2.892   5.736  1.5822  0.1449 -0.1304
   59SAPC  C315 4552   0.955   2.708   5.625 -0.9517  0.4786  0.6894
   59SAPC  H15X 4553   0.917   2.638   5.703  2.4537 -2.0404  0.3474
   59SAPC  H15Y 4554   0.998   2.646   5.543 -1.5193 -0.3943  1.0337
   59SAPC  C316 4555   0.840   2.795   5.576  0.5872  0.2991 -0.3474
   59SAPC  H16X 4556   0.867   2.849   5.483  0.8248  0.7879  0.0002
   59SAPC  H16Y 4557   0.822   2.869   5.657 -1.1507  1.5837 -1.8401
   59SAPC  C317 4558   0.708   2.713   5.538 -0.3527 -0.9480 -0.3934
   59SAPC  H17X 4559   0.629   2.741   5.612  1.3243 -1.0989  1.5319
   59SAPC  H17Y 4560   0.726   2.604   5.532  1.1849 -0.7838  0.7162
   59SAPC  C318 4561   0.669   2.766   5.397  0.0969 -0.1611 -0.1123
   59SAPC  H18X 4562   0.572   2.726   5.360 -0.0952  0.4237 -0.2670
   59SAPC  H18Y 4563   0.754   2.738   5.330 -0.3207 -3.7469  0.6556
   59SAPC  H18Z 4564   0.651   2.875   5.410  1.0591 -0.1339  1.2116
   60SAPC     N 4565   1.818   0.623   7.550  0.3206 -0.0549  0.6811
   60SAPC   C12 4566   1.766   0.748   7.481 -0.1770 -0.5282 -0.5251
   60SAPC  H12A 4567   1.807   0.777   7.385 -1.6484 -1.6435 -1.5182
   60SAPC  H12B 4568   1.774   0.830   7.552  4.2919  0.0928 -1.4396
   60SAPC   C13 4569   1.970   0.626   7.558  0.2343 -0.8333 -0.0959
   60SAPC  H13A 4570   2.009   0.577   7.646 -0.9560 -0.0485  0.8990
   60SAPC  H13B 4571   2.010   0.592   7.464  0.1266  0.5946 -0.6862
   60SAPC  H13C 4572   2.014   0.723   7.574  0.3072 -0.9193  0.2288
   60SAPC   C14 4573   1.766   0.610   7.690  0.1957  0.0903 -0.1754
   60SAPC  H14A 4574   1.807   0.691   7.749 -1.4775  0.6625  0.2435
   60SAPC  H14B 4575   1.659   0.603   7.700  0.0761  2.6619  0.9610
   60SAPC  H14C 4576   1.812   0.526   7.740 -1.3550 -0.2128  0.7883
   60SAPC   C15 4577   1.767   0.496   7.481 -0.1347 -0.2651 -0.0083
   60SAPC  H15A 4578   1.836   0.415   7.503 -0.8190 -1.6125 -2.3821
   60SAPC  H15B 4579   1.667   0.476   7.516 -0.2930 -0.7026 -0.6808
   60SAPC  H15C 4580   1.760   0.507   7.374  0.1608 -2.3958 -0.2974
   60SAPC   C11 4581   1.617   0.749   7.451  0.2695  0.0547 -0.1534
   60SAPC  H11A 4582   1.588   0.855   7.436 -0.1208  0.0173  0.3156
   60SAPC  H11B 4583   1.556   0.727   7.541 -1.0617  0.4823 -0.9218
   60SAPC     P 4584   1.636   0.681   7.190  0.1143 -0.1407 -0.1895
   60SAPC   O13 4585   1.753   0.593   7.185 -0.2135 -0.5632 -0.8568
   60SAPC   O14 4586   1.530   0.638   7.100  0.6690 -0.1535 -0.2106
   60SAPC   O12 4587   1.570   0.672   7.337  0.1515 -0.2648 -0.2719
   60SAPC   O11 4588   1.680   0.834   7.180  0.4535 -0.1945 -0.2463
   60SAPC    C1 4589   1.603   0.923   7.096  0.8542  0.3706 -0.3653
   60SAPC    HA 4590   1.494   0.921   7.120  0.9016 -1.2324 -0.1767
   60SAPC    HB 4591   1.623   1.029   7.120 -1.3376  0.4705  1.3849
   60SAPC    C2 4592   1.642   0.901   6.947 -0.5030  0.5045  0.4273
   60SAPC    HS 4593   1.709   0.813   6.946  1.8900  2.1998  1.7411
   60SAPC   O21 4594   1.722   1.015   6.909 -0.5303 -0.3500 -0.0850
   60SAPC   C21 4595   1.844   1.033   6.968  0.5265 -0.4116 -0.1202
   60SAPC   O22 4596   1.895   0.943   7.038  0.6112  0.1730 -0.1143
   60SAPC   C22 4597   1.911   1.165   6.927 -0.6162  0.3570 -0.5097
   60SAPC   H2R 4598   1.869   1.237   7.000 -3.3550  0.4572 -2.0128
   60SAPC   H2S 4599   2.019   1.156   6.948 -1.1321 -0.6598  2.1881
   60SAPC    C3 4600   1.510   0.900   6.869 -0.1312  0.4762  0.3842
   60SAPC    HX 4601   1.447   0.990   6.889  1.6527  1.9550 -0.3640
   60SAPC    HY 4602   1.447   0.815   6.904  0.9688 -0.8671 -0.7760
   60SAPC   O31 4603   1.525   0.905   6.728  0.1103 -0.7761  0.1755
   60SAPC   C31 4604   1.539   0.794   6.660  0.2292 -0.0847 -0.0496
   60SAPC   O32 4605   1.547   0.686   6.715 -0.6891 -0.7322  0.4473
   60SAPC   C32 4606   1.535   0.833   6.510  0.5964 -0.3625 -0.4104
   60SAPC   H2X 4607   1.616   0.908   6.501 -0.5345  1.2249  1.7289
   60SAPC   H2Y 4608   1.431   0.870   6.492  1.2072  0.2344 -3.1111
   60SAPC   C23 4609   1.879   1.210   6.785 -0.4397  0.9536  0.4214
   60SAPC   H3R 4610   1.935   1.304   6.769 -0.0081  0.6740  0.2777
   60SAPC   H3S 4611   1.773   1.240   6.776  0.0398  2.6093 -0.1141
   60SAPC   C24 4612   1.920   1.104   6.674 -0.6442  0.7311 -0.3759
   60SAPC   H4R 4613   1.925   0.996   6.701 -1.8958  0.6383 -0.4457
   60SAPC   H4S 4614   2.023   1.124   6.636 -0.9300  0.3612 -1.3777
   60SAPC   C25 4615   1.824   1.111   6.561 -0.0076 -0.3846  0.5396
   60SAPC   H5R 4616   1.722   1.071   6.575 -0.2829  1.1359  3.8315
   60SAPC   C26 4617   1.845   1.155   6.434 -0.3182  0.0887 -0.0863
   60SAPC   H6R 4618   1.759   1.147   6.365 -0.0560 -2.5963 -0.1915
   60SAPC   C27 4619   1.974   1.213   6.388  0.5081 -0.1800  0.5952
   60SAPC   H7R 4620   2.050   1.226   6.468 -0.0376  1.0035  0.9386
   60SAPC   H7S 4621   1.965   1.318   6.353 -0.0501 -0.4563 -0.1245
   60SAPC   C28 4622   2.041   1.126   6.280  0.1142 -0.1516  0.2810
   60SAPC   H8R 4623   2.090   1.034   6.316  2.0279 -0.5855 -3.0977
   60SAPC   C29 4624   2.058   1.155   6.147 -0.4384  0.2327  0.8394
   60SAPC   H9R 4625   2.121   1.086   6.088 -0.5527  0.8913 -0.0652
   60SAPC  C210 4626   1.999   1.281   6.092 -0.5239 -0.9884  0.6618
   60SAPC  H10R 4627   2.066   1.315   6.010 -2.7330  1.9102 -0.1015
   60SAPC  H10S 4628   2.019   1.371   6.156 -0.4522 -0.1677 -0.4898
   60SAPC  C211 4629   1.858   1.282   6.038 -0.5783 -0.3155 -1.2727
   60SAPC  H11R 4630   1.782   1.272   6.116 -1.0504 -0.7109 -1.7791
   60SAPC  C212 4631   1.817   1.284   5.909 -0.1845  0.2665  0.6988
   60SAPC  H12R 4632   1.709   1.273   5.893 -0.2296 -2.1119  2.1628
   60SAPC  C213 4633   1.895   1.293   5.787  0.2159  0.0408  0.1354
   60SAPC  H13R 4634   1.998   1.333   5.799  0.9514 -1.9989  1.0331
   60SAPC  H13S 4635   1.846   1.362   5.714 -0.3151  0.7018  1.1003
   60SAPC  C214 4636   1.915   1.160   5.721 -0.5371 -0.2121 -1.2349
   60SAPC  H14R 4637   1.990   1.095   5.769  1.4845  2.1623 -1.0010
   60SAPC  C215 4638   1.825   1.089   5.649 -0.0081  0.4087  0.3671
   60SAPC  H15R 4639   1.842   0.987   5.612 -2.9594 -0.4691  1.0901
   60SAPC  C216 4640   1.702   1.151   5.586  0.3882 -0.1583 -0.7711
   60SAPC  H16R 4641   1.687   1.258   5.609 -1.1584 -0.6267  0.5741
   60SAPC  H16S 4642   1.611   1.096   5.619 -0.7111  1.9465 -0.1758
   60SAPC  C217 4643   1.710   1.130   5.439  0.8783  0.0422  0.4681
   60SAPC  H17R 4644   1.684   1.025   5.412 -0.8423  0.8296 -1.2608
   60SAPC  H17S 4645   1.808   1.151   5.391  0.8698  0.8421  0.7868
   60SAPC  C218 4646   1.598   1.221   5.375 -0.4617 -0.4224  0.4253
   60SAPC  H18R 4647   1.608   1.325   5.413  0.3754 -0.6440  0.8353
   60SAPC  H18S 4648   1.501   1.182   5.412 -1.5356  3.5098  2.2918
   60SAPC  C219 4649   1.605   1.221   5.216 -0.4654 -0.0626  0.2430
   60SAPC  H19R 4650   1.558   1.121   5.202  1.1976 -1.5194  3.7814
   60SAPC  H19S 4651   1.713   1.223   5.188 -0.2100 -2.7915  0.7315
   60SAPC  C220 4652   1.538   1.338   5.144  0.2295  0.4413  0.6038
   60SAPC  H20R 4653   1.587   1.432   5.177 -0.4270  0.8254  0.5135
   60SAPC  H20S 4654   1.433   1.342   5.180 -0.5714  1.4436 -1.6512
   60SAPC  H20T 4655   1.527   1.333   5.034  1.4113  0.6658  0.4654
   60SAPC   C33 4656   1.577   0.712   6.428  0.0283 -0.4049 -0.0792
   60SAPC   H3X 4657   1.496   0.639   6.452 -2.3880  2.0954 -0.1784
   60SAPC   H3Y 4658   1.678   0.667   6.444 -0.9119 -3.3835 -1.6310
   60SAPC   C34 4659   1.559   0.762   6.283 -0.2238  0.9305 -0.1775
   60SAPC   H4X 4660   1.598   0.687   6.212  1.3999  0.8523  0.7580
   60SAPC   H4Y 4661   1.625   0.852   6.288  2.2697 -0.8671  2.1058
   60SAPC   C35 4662   1.412   0.786   6.243  0.0657  0.5498  0.4933
   60SAPC   H5X 4663   1.353   0.857   6.305 -0.5165 -0.9441  1.7127
   60SAPC   H5Y 4664   1.355   0.692   6.258 -0.2784  0.6914  0.1163
   60SAPC   C36 4665   1.395   0.826   6.098  0.4683 -0.2897 -0.4993
   60SAPC   H6X 4666   1.288   0.828   6.065 -0.4032 -0.5704  2.0730
   60SAPC   H6Y 4667   1.448   0.752   6.035 -0.4228  0.7880 -2.6527
   60SAPC   C37 4668   1.469   0.964   6.076  0.0095 -0.0073 -0.1535
   60SAPC   H7X 4669   1.575   0.945   6.102 -0.0148 -1.2426 -0.8959
   60SAPC   H7Y 4670   1.451   1.053   6.140 -0.4831 -0.6751  0.6609
   60SAPC   C38 4671   1.472   0.994   5.930 -0.3108  0.0778 -0.1980
   60SAPC   H8X 4672   1.519   0.909   5.878  2.1512  0.7823  0.7364
   60SAPC   H8Y 4673   1.529   1.089   5.921 -3.7714  2.3362 -0.1909
   60SAPC   C39 4674   1.337   1.014   5.875  0.5900  0.6273 -0.0642
   60SAPC   H9X 4675   1.285   1.091   5.935 -1.0775  0.5936 -1.3996
   60SAPC   H9Y 4676   1.276   0.921   5.873  0.2243  0.8684 -0.2949
   60SAPC  C310 4677   1.338   1.056   5.723 -0.2258  0.4718  0.5191
   60SAPC  H10X 4678   1.385   0.974   5.666  0.1266 -0.7535  2.4700
   60SAPC  H10Y 4679   1.397   1.150   5.709  2.3748 -0.8026  2.1421
   60SAPC  C311 4680   1.196   1.082   5.678  1.1470  0.0137 -0.0576
   60SAPC  H11X 4681   1.151   1.165   5.738  2.0035  0.1876  0.3481
   60SAPC  H11Y 4682   1.126   0.998   5.699  1.1961 -0.0495 -0.1485
   60SAPC  C312 4683   1.183   1.128   5.530  0.0038 -0.2252 -0.5858
   60SAPC  H12X 4684   1.184   1.035   5.469 -1.0247 -0.1121 -0.7902
   60SAPC  H12Y 4685   1.279   1.174   5.499  0.1852  1.3132  1.9440
   60SAPC  C313 4686   1.068   1.227   5.507 -0.0344  0.4713  0.2176
   60SAPC  H13X 4687   1.100   1.328   5.539 -0.4162  0.8967 -0.7015
   60SAPC  H13Y 4688   0.979   1.206   5.570 -1.9652 -0.8663 -2.7373
   60SAPC  C314 4689   1.018   1.228   5.361 -0.0150 -0.4684 -0.1757
   60SAPC  H14X 4690   1.048   1.138   5.304 -2.0825 -0.2392 -1.7943
   60SAPC  H14Y 4691   1.087   1.298   5.309  0.0608 -0.2707  0.1926
   60SAPC  C315 4692   0.872   1.278   5.351  0.0675 -0.7241  0.2532
   60SAPC  H15X 4693   0.853   1.375   5.402 -1.7099 -2.0342  2.2915
   60SAPC  H15Y 4694   0.789   1.218   5.393 -1.5952  0.8022 -0.6862
   60SAPC  C316 4695   0.818   1.278   5.205 -0.2104  0.4335 -0.1211
   60SAPC  H16X 4696   0.843   1.374   5.156 -2.4333  0.3081 -1.6874
   60SAPC  H16Y 4697   0.707   1.276   5.213 -0.4575  0.7786 -2.6847
   60SAPC  C317 4698   0.878   1.173   5.111  0.0595 -0.5027  0.7986
   60SAPC  H17X 4699   0.865   1.084   5.175 -3.4226  0.0092  1.0013
   60SAPC  H17Y 4700   0.986   1.196   5.095 -0.6167  3.1668  0.4630
   60SAPC  C318 4701   0.802   1.161   4.975 -0.0735  0.5698  0.3827
   60SAPC  H18X 4702   0.694   1.180   4.993 -0.4563 -0.1432 -1.0302
   60SAPC  H18Y 4703   0.808   1.055   4.942  0.6636  1.0755 -1.2446
   60SAPC  H18Z 4704   0.834   1.229   4.893  1.3174 -0.8607 -0.3408
   61SAPC     N 4705   4.828   2.512   7.831 -0.6517  0.2801 -0.1326
   61SAPC   C12 4706   4.870   2.490   7.685  0.2613  0.3850 -0.3960
   61SAPC  H12A 4707   4.911   2.392   7.666 -0.1281  0.2403 -0.4950
   61SAPC  H12B 4708   4.949   2.559   7.658  1.5682 -0.7752  0.3345
   61SAPC   C13 4709   4.786   2.655   7.846  0.1922 -0.1399 -0.0439
   61SAPC  H13A 4710   4.700   2.677   7.784  1.7799  2.8073 -1.4258
   61SAPC  H13B 4711   4.774   2.676   7.952 -0.7496 -1.7188  0.1834
   61SAPC  H13C 4712   4.869   2.716   7.815  0.4786 -1.1041 -1.2091
   61SAPC   C14 4713   4.720   2.418   7.867  0.0502 -0.3900  0.1885
   61SAPC  H14A 4714   4.768   2.323   7.884  0.4812 -0.0839  0.6950
   61SAPC  H14B 4715   4.666   2.441   7.957  0.9338 -0.1371  0.6584
   61SAPC  H14C 4716   4.649   2.405   7.786  0.0450 -0.0250  0.1325
   61SAPC   C15 4717   4.940   2.489   7.924  0.9900 -0.4309  0.2970
   61SAPC  H15A 4718   4.898   2.497   8.023  1.6760  1.1467  0.5033
   61SAPC  H15B 4719   4.985   2.393   7.905  1.2135 -0.1836 -0.4612
   61SAPC  H15C 4720   5.014   2.565   7.907 -0.3996  0.9479  0.1547
   61SAPC   C11 4721   4.762   2.505   7.578  1.0376 -0.4169 -0.0561
   61SAPC  H11A 4722   4.790   2.538   7.476 -2.5634 -2.7723 -2.0186
   61SAPC  H11B 4723   4.696   2.585   7.617  1.4229 -0.0518 -0.1513
   61SAPC     P 4724   4.742   2.268   7.495  0.1357  0.0405  0.3029
   61SAPC   O13 4725   4.886   2.246   7.520 -0.5664  0.2634  0.3830
   61SAPC   O14 4726   4.643   2.159   7.524 -0.2321  0.0974 -0.5264
   61SAPC   O12 4727   4.688   2.388   7.571 -0.3337 -0.0023  0.3274
   61SAPC   O11 4728   4.723   2.310   7.342  0.6725  0.1393 -0.5884
   61SAPC    C1 4729   4.597   2.345   7.282  0.0736  0.1613 -0.6855
   61SAPC    HA 4730   4.534   2.255   7.263 -1.7955  0.6331  2.4861
   61SAPC    HB 4731   4.530   2.405   7.347  0.5903 -0.7173  0.7099
   61SAPC    C2 4732   4.619   2.419   7.148  0.5018 -0.2061 -0.0939
   61SAPC    HS 4733   4.529   2.482   7.129  1.6579  1.2338 -1.0410
   61SAPC   O21 4734   4.651   2.322   7.049 -0.2428 -0.1349 -0.0080
   61SAPC   C21 4735   4.540   2.261   6.995  0.3515  0.5448  0.0272
   61SAPC   O22 4736   4.425   2.289   7.030  0.2618 -0.5494 -0.1790
   61SAPC   C22 4737   4.572   2.167   6.885  0.7693  0.2588  0.9663
   61SAPC   H2R 4738   4.563   2.061   6.916 -1.8606 -0.7988 -2.8050
   61SAPC   H2S 4739   4.496   2.189   6.807 -1.2188 -1.9714  2.1527
   61SAPC    C3 4740   4.738   2.517   7.150 -0.8026 -0.7374 -0.2812
   61SAPC    HX 4741   4.835   2.478   7.188 -0.3317 -0.0662 -0.7749
   61SAPC    HY 4742   4.709   2.597   7.221  3.6329  1.9165 -1.0539
   61SAPC   O31 4743   4.752   2.591   7.024  0.3625  0.0151 -1.1631
   61SAPC   C31 4744   4.853   2.553   6.943  0.6197  0.3940  0.1749
   61SAPC   O32 4745   4.923   2.454   6.960 -0.0008 -0.1943 -0.3892
   61SAPC   C32 4746   4.854   2.654   6.830  0.1090  0.0918  0.4608
   61SAPC   H2X 4747   4.920   2.738   6.859 -0.5875  0.6824  0.3438
   61SAPC   H2Y 4748   4.754   2.684   6.794  1.1438  0.7053 -2.2144
   61SAPC   C23 4749   4.711   2.181   6.822 -0.1685 -0.2506  0.2792
   61SAPC   H3R 4750   4.783   2.226   6.894 -1.1739  1.2230  0.4074
   61SAPC   H3S 4751   4.707   2.251   6.736 -0.4888 -0.6304 -0.0190
   61SAPC   C24 4752   4.770   2.044   6.769 -0.0131 -0.3216  0.0658
   61SAPC   H4R 4753   4.757   1.969   6.850  2.5348 -1.1331 -0.1841
   61SAPC   H4S 4754   4.879   2.055   6.751  0.5084 -4.9173 -0.8109
   61SAPC   C25 4755   4.694   1.994   6.653  0.1162 -0.1806  0.4948
   61SAPC   H5R 4756   4.608   1.934   6.685  0.3654 -1.5083 -1.2059
   61SAPC   C26 4757   4.719   2.016   6.524  0.2754 -0.4791 -0.2227
   61SAPC   H6R 4758   4.639   1.977   6.460 -0.5574 -1.2414  1.2233
   61SAPC   C27 4759   4.841   2.086   6.470  0.4838 -0.4434  0.1027
   61SAPC   H7R 4760   4.865   2.052   6.367 -1.0237  0.8504 -0.7139
   61SAPC   H7S 4761   4.931   2.059   6.529 -0.9732  1.0874  3.2277
   61SAPC   C28 4762   4.834   2.237   6.476  0.1804  1.1842 -0.1878
   61SAPC   H8R 4763   4.881   2.287   6.562  4.5423 -2.8518  0.1684
   61SAPC   C29 4764   4.780   2.306   6.374 -0.1257 -0.3044 -0.7310
   61SAPC   H9R 4765   4.761   2.414   6.380 -0.2556 -0.2499 -1.8898
   61SAPC  C210 4766   4.734   2.234   6.242  0.0511  0.1855 -0.6591
   61SAPC  H10R 4767   4.637   2.274   6.206  0.1465  0.6877 -0.3739
   61SAPC  H10S 4768   4.715   2.125   6.252  1.3499  0.0332  0.4374
   61SAPC  C211 4769   4.834   2.264   6.137 -0.4268  0.0943 -0.0677
   61SAPC  H11R 4770   4.940   2.275   6.164 -0.1046 -2.7481  0.1845
   61SAPC  C212 4771   4.807   2.259   6.005  0.2780  0.6013  0.6536
   61SAPC  H12R 4772   4.885   2.283   5.930 -0.8983 -2.9054 -1.9276
   61SAPC  C213 4773   4.676   2.220   5.938 -0.0617 -0.0577 -0.1646
   61SAPC  H13R 4774   4.584   2.254   5.991 -0.8342 -1.9405 -0.2350
   61SAPC  H13S 4775   4.660   2.110   5.936 -0.4516 -0.0379  0.9557
   61SAPC  C214 4776   4.659   2.278   5.798  0.4642  0.1804 -0.3757
   61SAPC  H14R 4777   4.600   2.371   5.787 -1.2454 -0.2220  3.7134
   61SAPC  C215 4778   4.703   2.227   5.680  0.1930 -0.5187  0.8546
   61SAPC  H15R 4779   4.697   2.279   5.584 -0.8873  0.2042  1.2951
   61SAPC  C216 4780   4.775   2.096   5.668 -0.9504 -0.3266  0.4540
   61SAPC  H16R 4781   4.832   2.076   5.761 -0.4608 -2.5046 -0.2304
   61SAPC  H16S 4782   4.854   2.105   5.590 -1.2251  2.6318  0.4085
   61SAPC  C217 4783   4.682   1.977   5.636 -0.4771  0.6249  0.2311
   61SAPC  H17R 4784   4.625   1.993   5.542 -0.4399  2.6695  0.5037
   61SAPC  H17S 4785   4.614   1.979   5.724 -0.9538 -0.1349 -0.1146
   61SAPC  C218 4786   4.768   1.848   5.623  0.0772 -0.3561  0.2109
   61SAPC  H18R 4787   4.842   1.855   5.706  0.1893  2.6656 -0.0055
   61SAPC  H18S 4788   4.832   1.852   5.532  0.4715  2.9338  0.4816
   61SAPC  C219 4789   4.693   1.721   5.612  0.0845  0.3108 -0.2610
   61SAPC  H19R 4790   4.613   1.715   5.689  1.1590  3.2935  1.2286
   61SAPC  H19S 4791   4.760   1.634   5.630  0.2441 -0.1446 -2.6816
   61SAPC  C220 4792   4.625   1.711   5.466  0.2346 -0.5005 -0.6248
   61SAPC  H20R 4793   4.581   1.611   5.450 -1.1230 -0.1924  0.8243
   61SAPC  H20S 4794   4.706   1.728   5.392  0.6675 -0.6104 -0.1868
   61SAPC  H20T 4795   4.547   1.790   5.459 -1.3912 -1.9751  0.0378
   61SAPC   C33 4796   4.927   2.599   6.704  0.3326 -0.3741  0.0663
   61SAPC   H3X 4797   4.873   2.509   6.668  1.8687 -0.9614 -0.8793
   61SAPC   H3Y 4798   5.032   2.571   6.728  0.2140  0.0259  1.1217
   61SAPC   C34 4799   4.915   2.701   6.591  0.3448 -0.1329 -0.4889
   61SAPC   H4X 4800   4.952   2.797   6.633 -0.5678  0.7027 -1.5160
   61SAPC   H4Y 4801   4.809   2.719   6.561 -0.2181  1.7606  2.2424
   61SAPC   C35 4802   4.993   2.647   6.471 -0.7949 -0.1801  0.0516
   61SAPC   H5X 4803   4.980   2.537   6.471  1.8658 -0.5602 -0.0169
   61SAPC   H5Y 4804   5.102   2.662   6.488 -1.0098  0.2675  1.1386
   61SAPC   C36 4805   4.940   2.715   6.345  0.4996  0.2758 -0.5922
   61SAPC   H6X 4806   4.963   2.823   6.339 -0.4438  0.6785  1.7555
   61SAPC   H6Y 4807   4.829   2.705   6.340  0.7650 -4.0148 -2.2961
   61SAPC   C37 4808   4.994   2.645   6.223  0.4320 -0.5588  0.2721
   61SAPC   H7X 4809   4.939   2.548   6.212 -1.1339  0.3170  0.0817
   61SAPC   H7Y 4810   5.100   2.613   6.236  0.0526 -1.4017  1.4896
   61SAPC   C38 4811   4.977   2.723   6.094 -0.0342  0.9008  0.3779
   61SAPC   H8X 4812   5.067   2.787   6.096  1.1683 -0.6839 -0.9069
   61SAPC   H8Y 4813   4.888   2.790   6.093 -0.3214  0.5621  1.3416
   61SAPC   C39 4814   4.964   2.624   5.976 -0.2289  0.0346 -0.7779
   61SAPC   H9X 4815   4.892   2.540   5.993  0.5335 -0.9835 -2.2921
   61SAPC   H9Y 4816   5.069   2.593   5.957 -1.0773 -2.4828 -1.8749
   61SAPC  C310 4817   4.924   2.701   5.850  0.1138 -0.6020 -0.0335
   61SAPC  H10X 4818   5.008   2.771   5.827  0.7679 -1.8864 -1.7902
   61SAPC  H10Y 4819   4.838   2.769   5.871  0.9641 -0.6012  4.3132
   61SAPC  C311 4820   4.890   2.606   5.736 -0.4802 -0.2572  0.6859
   61SAPC  H11X 4821   4.783   2.612   5.708 -0.6176 -1.9318  0.7833
   61SAPC  H11Y 4822   4.923   2.501   5.752 -0.5154 -0.3493  0.1735
   61SAPC  C312 4823   4.954   2.648   5.602  0.1284 -0.3124 -0.0003
   61SAPC  H12X 4824   4.912   2.748   5.579  0.0176 -0.0947  1.0851
   61SAPC  H12Y 4825   4.910   2.584   5.523 -3.0297  0.7060  0.7902
   61SAPC  C313 4826   5.106   2.646   5.595  0.0350 -0.0864 -0.0898
   61SAPC  H13X 4827   5.162   2.556   5.629  1.5022  1.3896  1.6381
   61SAPC  H13Y 4828   5.146   2.724   5.663  3.1081 -2.4739  1.1234
   61SAPC  C314 4829   5.165   2.675   5.461 -0.7888 -0.1959  0.0130
   61SAPC  H14X 4830   5.272   2.704   5.471 -1.3775  2.3569 -0.2112
   61SAPC  H14Y 4831   5.125   2.778   5.446  0.1120  0.5538  2.3402
   61SAPC  C315 4832   5.141   2.573   5.347  0.0917  0.7223  0.5069
   61SAPC  H15X 4833   5.036   2.576   5.311  0.1783  0.0896  0.1890
   61SAPC  H15Y 4834   5.165   2.470   5.381 -0.7780  0.4677  0.3803
   61SAPC  C316 4835   5.235   2.594   5.228 -0.1619 -0.5249 -0.1343
   61SAPC  H16X 4836   5.341   2.600   5.260  0.1596  0.0992 -1.2863
   61SAPC  H16Y 4837   5.209   2.695   5.189 -0.1666  0.0241  1.2182
   61SAPC  C317 4838   5.226   2.496   5.106 -0.4565  0.0510 -0.4589
   61SAPC  H17X 4839   5.273   2.397   5.128  0.8882  1.0349  1.3773
   61SAPC  H17Y 4840   5.270   2.541   5.015 -0.3504 -1.5984 -1.2545
   61SAPC  C318 4841   5.079   2.478   5.061  0.4705  0.1444  0.8666
   61SAPC  H18X 4842   5.073   2.433   4.960 -0.1507  1.6254  0.2077
   61SAPC  H18Y 4843   5.024   2.574   5.052 -0.5105 -0.6082 -3.0089
   61SAPC  H18Z 4844   5.036   2.414   5.140 -0.1570  0.7889  1.0612
   62SAPC     N 4845   5.958   6.692   8.002 -0.0998  0.2023 -0.0988
   62SAPC   C12 4846   6.075   6.780   8.005 -0.6368  0.0399 -0.0640
   62SAPC  H12A 4847   6.128   6.763   8.097 -1.0469 -1.3811 -0.0709
   62SAPC  H12B 4848   6.043   6.883   8.003  2.4002  1.0960 -1.0904
   62SAPC   C13 4849   5.982   6.559   7.941 -0.1425  0.1464  0.8589
   62SAPC  H13A 4850   5.988   6.568   7.834 -1.4845  1.8838  0.8892
   62SAPC  H13B 4851   6.070   6.513   7.984 -0.1844  0.9151  1.8185
   62SAPC  H13C 4852   5.900   6.492   7.960  0.7521 -1.0364  0.6306
   62SAPC   C14 4853   5.911   6.666   8.143 -0.3493 -0.1846 -0.5798
   62SAPC  H14A 4854   5.887   6.748   8.209  1.2754 -0.3843  0.2917
   62SAPC  H14B 4855   5.813   6.620   8.136 -0.9138  1.0005 -0.7800
   62SAPC  H14C 4856   5.968   6.591   8.196 -2.5208 -0.3637  1.6648
   62SAPC   C15 4857   5.839   6.758   7.938 -0.2219  0.3947  0.5032
   62SAPC  H15A 4858   5.871   6.800   7.844  0.5088  0.3233  0.7138
   62SAPC  H15B 4859   5.757   6.689   7.924 -0.6669  1.3242 -2.0069
   62SAPC  H15C 4860   5.794   6.833   8.003  0.7325 -0.6781  2.5087
   62SAPC   C11 4861   6.174   6.778   7.891 -0.0263 -0.0264  0.3589
   62SAPC  H11A 4862   6.213   6.677   7.867  0.2026 -0.0910  1.0040
   62SAPC  H11B 4863   6.258   6.843   7.923 -0.2117  0.6774 -0.5280
   62SAPC     P 4864   6.092   6.990   7.746 -0.0929  0.1806  0.4944
   62SAPC   O13 4865   5.945   7.014   7.756  0.6466 -0.1549 -0.2492
   62SAPC   O14 4866   6.182   7.068   7.832 -0.4660  0.1620  0.2785
   62SAPC   O12 4867   6.121   6.831   7.771  0.0970 -1.1510  0.4041
   62SAPC   O11 4868   6.145   7.015   7.597 -0.1470 -0.7951 -0.8595
   62SAPC    C1 4869   6.119   6.920   7.489  0.3618 -0.2108 -0.7058
   62SAPC    HA 4870   6.208   6.864   7.454 -0.8324 -1.1552 -2.3767
   62SAPC    HB 4871   6.053   6.836   7.519 -1.1192  0.4076 -2.0719
   62SAPC    C2 4872   6.063   6.982   7.361  0.1983 -0.1773  0.0090
   62SAPC    HS 4873   6.050   6.895   7.293  2.1883 -2.2879  2.1498
   62SAPC   O21 4874   6.165   7.071   7.311 -0.3051 -0.3924 -0.4364
   62SAPC   C21 4875   6.260   7.010   7.247 -0.7987 -0.2107  0.1512
   62SAPC   O22 4876   6.255   6.894   7.213  0.0306  0.2168 -0.3390
   62SAPC   C22 4877   6.362   7.113   7.195 -0.1802  0.8872 -0.7329
   62SAPC   H2R 4878   6.405   7.158   7.286  2.8004 -2.3740 -0.3119
   62SAPC   H2S 4879   6.451   7.065   7.149 -0.1601  0.2431 -0.0489
   62SAPC    C3 4880   5.931   7.063   7.387  0.0540  0.3891 -0.0603
   62SAPC    HX 4881   5.962   7.128   7.472  1.1381  1.1584 -1.0058
   62SAPC    HY 4882   5.860   6.989   7.429  0.5005 -0.5300 -0.8798
   62SAPC   O31 4883   5.868   7.115   7.265 -0.0151  0.0488  0.1957
   62SAPC   C31 4884   5.882   7.244   7.251  1.3769  0.2074 -0.0427
   62SAPC   O32 4885   5.952   7.311   7.317  0.2018 -0.3627  0.5899
   62SAPC   C32 4886   5.786   7.305   7.152 -0.6620 -0.1878 -0.4257
   62SAPC   H2X 4887   5.794   7.415   7.140 -2.1893 -0.1716 -1.5277
   62SAPC   H2Y 4888   5.683   7.286   7.189 -0.7617 -1.9515 -1.4829
   62SAPC   C23 4889   6.301   7.219   7.102 -1.1290  0.1872 -0.6538
   62SAPC   H3R 4890   6.256   7.289   7.175  2.4046  0.4366  1.5191
   62SAPC   H3S 4891   6.220   7.186   7.033 -1.8599  1.6291 -0.5123
   62SAPC   C24 4892   6.414   7.291   7.034 -0.2250  0.1541 -0.5429
   62SAPC   H4R 4893   6.474   7.229   6.964  3.1145  1.9824  0.4620
   62SAPC   H4S 4894   6.500   7.312   7.102  1.2221 -0.3367 -2.1593
   62SAPC   C25 4895   6.372   7.419   6.968  0.4986  0.7162  0.3349
   62SAPC   H5R 4896   6.294   7.477   7.019  0.1215  0.9199 -0.4600
   62SAPC   C26 4897   6.400   7.472   6.847 -0.2472  0.1859  0.4711
   62SAPC   H6R 4898   6.337   7.554   6.811  1.0097  0.9161 -0.1198
   62SAPC   C27 4899   6.498   7.407   6.747 -0.2877  0.4613 -0.4342
   62SAPC   H7R 4900   6.534   7.308   6.781 -4.4982 -1.9561 -2.3035
   62SAPC   H7S 4901   6.596   7.459   6.737  0.4754 -0.8847 -0.2266
   62SAPC   C28 4902   6.444   7.392   6.613  0.2597  0.6190  0.6321
   62SAPC   H8R 4903   6.359   7.322   6.619  1.0660 -0.2840  2.1325
   62SAPC   C29 4904   6.463   7.463   6.497  0.7977 -0.6538  0.8394
   62SAPC   H9R 4905   6.406   7.431   6.409 -0.7012 -0.0184  1.5331
   62SAPC  C210 4906   6.567   7.572   6.481  0.9719  0.2541 -0.5267
   62SAPC  H10R 4907   6.668   7.526   6.481  1.9067  2.1745  0.2695
   62SAPC  H10S 4908   6.565   7.628   6.577 -1.0603  1.3436 -1.1375
   62SAPC  C211 4909   6.538   7.656   6.360  0.0699 -0.3432  0.3679
   62SAPC  H11R 4910   6.452   7.724   6.372  0.1406 -0.4237  1.4226
   62SAPC  C212 4911   6.610   7.665   6.244  0.2518 -0.5339  0.5060
   62SAPC  H12R 4912   6.563   7.727   6.167 -0.5061 -2.6795 -0.8432
   62SAPC  C213 4913   6.740   7.592   6.205 -0.2391 -0.4555 -1.3596
   62SAPC  H13R 4914   6.789   7.572   6.303 -0.8540 -0.1304 -0.9857
   62SAPC  H13S 4915   6.811   7.650   6.143  0.7798 -0.2419 -0.0392
   62SAPC  C214 4916   6.717   7.457   6.142  0.1604  0.0767 -0.8114
   62SAPC  H14R 4917   6.627   7.410   6.186 -0.5036  3.2197  1.4704
   62SAPC  C215 4918   6.785   7.392   6.042 -0.1520 -0.3912  0.3356
   62SAPC  H15R 4919   6.743   7.306   5.989  2.0618 -0.6411 -1.1015
   62SAPC  C216 4920   6.907   7.440   5.975  0.2539  0.0700  0.7516
   62SAPC  H16R 4921   6.979   7.356   5.983 -0.2157 -0.2839  1.3939
   62SAPC  H16S 4922   6.948   7.524   6.035 -0.7624  0.5037  0.8666
   62SAPC  C217 4923   6.884   7.470   5.822 -0.2437  0.6853 -0.1744
   62SAPC  H17R 4924   6.812   7.552   5.803 -1.0590 -0.2981 -1.5121
   62SAPC  H17S 4925   6.847   7.376   5.775 -2.8704  1.4806  0.1437
   62SAPC  C218 4926   7.016   7.510   5.743 -0.1565  0.2293  0.2995
   62SAPC  H18R 4927   7.078   7.419   5.737 -1.5064 -0.7722  1.0336
   62SAPC  H18S 4928   7.070   7.592   5.795 -1.0351 -0.2780  2.0734
   62SAPC  C219 4929   6.983   7.549   5.596 -0.2223 -0.2103  0.4414
   62SAPC  H19R 4930   6.897   7.620   5.589  1.2318  1.7691  1.4042
   62SAPC  H19S 4931   6.950   7.455   5.548 -0.4996  0.4455 -0.6859
   62SAPC  C220 4932   7.100   7.618   5.513  0.4578  0.4131  0.0152
   62SAPC  H20R 4933   7.073   7.649   5.411 -0.2907  1.7803  0.6033
   62SAPC  H20S 4934   7.185   7.546   5.511 -0.7489 -1.0261 -1.4743
   62SAPC  H20T 4935   7.128   7.718   5.552 -0.9086  2.3380 -3.5116
   62SAPC   C33 4936   5.786   7.232   7.015  0.2155 -0.2525  0.3292
   62SAPC   H3X 4937   5.712   7.283   6.950 -2.6335 -1.0503  2.6900
   62SAPC   H3Y 4938   5.768   7.123   7.017  0.7833 -0.3597 -0.3214
   62SAPC   C34 4939   5.925   7.245   6.953 -0.5182  0.3939 -0.0839
   62SAPC   H4X 4940   6.002   7.195   7.015  0.7822  0.7611 -1.3571
   62SAPC   H4Y 4941   5.953   7.352   6.966  2.2869 -0.3643  0.7283
   62SAPC   C35 4942   5.940   7.212   6.803  0.6923  0.6143 -0.0954
   62SAPC   H5X 4943   5.838   7.179   6.772  1.3209 -2.2026  0.5562
   62SAPC   H5Y 4944   6.004   7.123   6.788 -0.5179 -0.8033  2.3562
   62SAPC   C36 4945   5.970   7.326   6.715 -0.5344  0.4123 -0.2001
   62SAPC   H6X 4946   6.062   7.363   6.764 -0.3557 -0.0667 -0.1743
   62SAPC   H6Y 4947   5.892   7.406   6.715  0.4917  1.4471 -0.8273
   62SAPC   C37 4948   6.013   7.272   6.577  0.2934 -0.6314  0.1838
   62SAPC   H7X 4949   5.921   7.225   6.536  0.0571 -0.7347  0.8253
   62SAPC   H7Y 4950   6.098   7.201   6.584  0.5292 -0.3930 -0.1898
   62SAPC   C38 4951   6.056   7.386   6.488  0.0138  0.3134 -0.5989
   62SAPC   H8X 4952   6.133   7.449   6.537 -1.0499  0.1365  1.4092
   62SAPC   H8Y 4953   5.974   7.460   6.472 -0.6829 -0.5245 -1.0119
   62SAPC   C39 4954   6.103   7.344   6.347 -0.0875 -0.0979 -0.2413
   62SAPC   H9X 4955   6.033   7.267   6.308 -2.0211  0.8340  1.2308
   62SAPC   H9Y 4956   6.199   7.288   6.356  0.4943  1.2534  3.8908
   62SAPC  C310 4957   6.129   7.467   6.264  0.1272  0.3234 -0.0648
   62SAPC  H10X 4958   6.205   7.536   6.306  0.2570  0.4509 -0.5054
   62SAPC  H10Y 4959   6.035   7.521   6.240 -0.1403  0.1668  0.5915
   62SAPC  C311 4960   6.206   7.413   6.138  0.6124 -0.2930  0.8382
   62SAPC  H11X 4961   6.137   7.348   6.081 -2.1458  1.2666  2.1260
   62SAPC  H11Y 4962   6.295   7.353   6.164  0.7925  0.0641  1.0661
   62SAPC  C312 4963   6.254   7.528   6.045  1.1177 -0.2340 -0.9262
   62SAPC  H12X 4964   6.324   7.593   6.102 -0.1299 -1.2345  1.9286
   62SAPC  H12Y 4965   6.159   7.582   6.022  1.2477  0.8453  0.8767
   62SAPC  C313 4966   6.311   7.480   5.910 -0.2432  0.3059  0.3015
   62SAPC  H13X 4967   6.268   7.380   5.885  1.4466 -0.3659 -0.0301
   62SAPC  H13Y 4968   6.419   7.458   5.919 -0.4070 -0.3702  0.7062
   62SAPC  C314 4969   6.285   7.587   5.796  0.3232 -0.3091  0.3849
   62SAPC  H14X 4970   6.290   7.683   5.852  0.4839 -1.7456  3.0208
   62SAPC  H14Y 4971   6.179   7.566   5.770 -0.1160  1.2536  0.8170
   62SAPC  C315 4972   6.378   7.575   5.676  0.3331 -0.0500 -0.3250
   62SAPC  H15X 4973   6.350   7.500   5.599  1.8387 -1.9828  0.9090
   62SAPC  H15Y 4974   6.484   7.553   5.701  0.2288  1.3994  1.5683
   62SAPC  C316 4975   6.378   7.703   5.593 -0.7057  0.0576 -0.3227
   62SAPC  H16X 4976   6.388   7.788   5.665  0.3580 -0.3483  0.0306
   62SAPC  H16Y 4977   6.282   7.721   5.539 -0.8309  1.5656  0.3387
   62SAPC  C317 4978   6.493   7.716   5.488  0.5713 -0.3606 -0.5116
   62SAPC  H17X 4979   6.466   7.795   5.415 -2.3219 -1.0879 -0.3337
   62SAPC  H17Y 4980   6.505   7.616   5.442  3.6733 -1.6021  2.5199
   62SAPC  C318 4981   6.629   7.741   5.548  0.8847  0.0163 -0.2400
   62SAPC  H18X 4982   6.721   7.735   5.485  1.3817 -1.3658  0.5713
   62SAPC  H18Y 4983   6.648   7.685   5.642 -1.3536  2.2710  1.7091
   62SAPC  H18Z 4984   6.628   7.842   5.595 -0.0651 -0.4334  0.7300
   63SAPC     N 4985   2.657   2.543   7.733  1.1613  0.1098 -0.5637
   63SAPC   C12 4986   2.534   2.620   7.805 -0.6159  0.2906  0.0169
   63SAPC  H12A 4987   2.552   2.621   7.912  0.4608 -2.4720 -0.0579
   63SAPC  H12B 4988   2.447   2.561   7.781  0.8857 -1.3261 -1.7755
   63SAPC   C13 4989   2.779   2.629   7.754 -0.3278 -0.0539 -0.1116
   63SAPC  H13A 4990   2.857   2.570   7.708 -1.1977 -0.0132 -1.6956
   63SAPC  H13B 4991   2.781   2.726   7.707  0.9907 -0.4305 -0.8656
   63SAPC  H13C 4992   2.781   2.651   7.860 -3.5979  1.2900 -0.1851
   63SAPC   C14 4993   2.673   2.414   7.810  0.3212 -0.1445  0.3426
   63SAPC  H14A 4994   2.689   2.433   7.915 -0.0982 -0.3755  0.4518
   63SAPC  H14B 4995   2.585   2.353   7.798 -0.5446  0.8934  1.2994
   63SAPC  H14C 4996   2.755   2.359   7.765 -0.2115 -0.2507 -0.5236
   63SAPC   C15 4997   2.626   2.524   7.589 -0.1108 -0.1832  0.5983
   63SAPC  H15A 4998   2.697   2.464   7.535 -0.2514  1.9097 -2.1188
   63SAPC  H15B 4999   2.531   2.473   7.576 -0.6883  1.1848 -0.8542
   63SAPC  H15C 5000   2.630   2.619   7.538  0.6782  1.0430  2.7895
   63SAPC   C11 5001   2.503   2.766   7.768  0.0734  0.2113  0.5516
   63SAPC  H11A 5002   2.570   2.832   7.827  0.7912  1.7120 -1.8227
   63SAPC  H11B 5003   2.397   2.770   7.800 -0.3680 -0.8958 -0.6699
   63SAPC     P 5004   2.392   2.819   7.542 -0.2037  0.2370 -0.0958
   63SAPC   O13 5005   2.296   2.710   7.550  0.0624 -0.3126  0.0558
   63SAPC   O14 5006   2.343   2.957   7.569 -0.3061  0.2010  0.2288
   63SAPC   O12 5007   2.519   2.784   7.625  0.0908 -0.1469  0.5839
   63SAPC   O11 5008   2.447   2.823   7.392 -0.0249  0.9748 -0.2219
   63SAPC    C1 5009   2.587   2.843   7.364 -0.3360 -0.6689 -0.3428
   63SAPC    HA 5010   2.616   2.937   7.417  2.4702 -1.0186 -1.0714
   63SAPC    HB 5011   2.650   2.759   7.400 -0.6110 -1.0317 -0.7115
   63SAPC    C2 5012   2.631   2.867   7.222  0.6793  0.0987  0.2571
   63SAPC    HS 5013   2.741   2.856   7.229  0.5431 -0.4786  2.2289
   63SAPC   O21 5014   2.578   2.999   7.191 -0.0070 -0.1382  0.8453
   63SAPC   C21 5015   2.663   3.095   7.208  0.1425  0.9172 -0.2652
   63SAPC   O22 5016   2.777   3.083   7.248 -0.0364  0.1225 -0.1818
   63SAPC   C22 5017   2.600   3.226   7.164 -0.0563 -0.2601 -0.2632
   63SAPC   H2R 5018   2.529   3.204   7.081  0.4981  0.3952 -0.9250
   63SAPC   H2S 5019   2.538   3.253   7.252 -0.7292 -0.4032 -0.6847
   63SAPC    C3 5020   2.578   2.758   7.114 -0.3120 -0.6801 -0.4516
   63SAPC    HX 5021   2.468   2.759   7.125 -0.4285  0.8042 -1.3233
   63SAPC    HY 5022   2.630   2.662   7.130  0.8031 -0.1515 -0.7419
   63SAPC   O31 5023   2.597   2.811   6.977  0.4244  0.1092 -0.9769
   63SAPC   C31 5024   2.715   2.776   6.930  0.2142  0.3161 -0.0498
   63SAPC   O32 5025   2.808   2.733   6.999  0.3870 -0.5692 -0.0465
   63SAPC   C32 5026   2.713   2.783   6.782  0.1152  0.0698  0.2589
   63SAPC   H2X 5027   2.694   2.888   6.750  0.4414 -0.6667 -2.5572
   63SAPC   H2Y 5028   2.631   2.723   6.738  0.1410  0.5118 -0.4105
   63SAPC   C23 5029   2.710   3.326   7.118  0.1304 -0.7401 -0.3342
   63SAPC   H3R 5030   2.790   3.336   7.194  0.4888 -0.1723 -0.7753
   63SAPC   H3S 5031   2.649   3.417   7.133 -0.7925 -1.2318 -0.9620
   63SAPC   C24 5032   2.770   3.318   6.971  0.3386 -0.1744 -0.3493
   63SAPC   H4R 5033   2.833   3.407   6.950  0.6336 -0.0306  1.0587
   63SAPC   H4S 5034   2.691   3.335   6.895  0.2516 -0.8855 -0.4256
   63SAPC   C25 5035   2.858   3.195   6.954 -0.5510 -0.3856  0.1107
   63SAPC   H5R 5036   2.915   3.153   7.038 -0.6332 -0.3004  0.2106
   63SAPC   C26 5037   2.865   3.117   6.840  0.1072  0.0115  0.6255
   63SAPC   H6R 5038   2.936   3.033   6.839  1.3152  1.0116 -0.2778
   63SAPC   C27 5039   2.803   3.146   6.705  0.4692  0.5712  0.5570
   63SAPC   H7R 5040   2.698   3.182   6.719  0.4223  0.4117  0.6121
   63SAPC   H7S 5041   2.776   3.052   6.653  1.9410  0.7719 -0.6324
   63SAPC   C28 5042   2.872   3.243   6.611  0.2539  0.6119 -0.3550
   63SAPC   H8R 5043   2.957   3.294   6.659  0.7936 -1.0394  0.5320
   63SAPC   C29 5044   2.841   3.266   6.486 -0.8048 -0.2095  0.0250
   63SAPC   H9R 5045   2.917   3.319   6.427  0.2098 -0.8232  0.7305
   63SAPC  C210 5046   2.731   3.191   6.411  0.0008 -0.6026 -0.2316
   63SAPC  H10R 5047   2.660   3.136   6.476  0.5657 -1.6074 -0.4495
   63SAPC  H10S 5048   2.785   3.117   6.348  2.1454 -0.5006  1.3486
   63SAPC  C211 5049   2.651   3.294   6.321 -0.2957 -0.3387 -0.5143
   63SAPC  H11R 5050   2.613   3.380   6.379 -0.2652 -0.7886  0.1829
   63SAPC  C212 5051   2.633   3.293   6.189  0.8772  0.7667  0.3080
   63SAPC  H12R 5052   2.579   3.370   6.132  1.6659  0.7869 -0.4441
   63SAPC  C213 5053   2.673   3.173   6.108 -0.0835 -0.0686 -0.3864
   63SAPC  H13R 5054   2.656   3.083   6.171 -1.1428  0.3602 -0.0346
   63SAPC  H13S 5055   2.780   3.174   6.076  0.6249 -4.6467  1.1493
   63SAPC  C214 5056   2.595   3.164   5.984 -0.1997 -0.1525 -0.0975
   63SAPC  H14R 5057   2.499   3.116   6.009 -0.5992  1.2451  1.2192
   63SAPC  C215 5058   2.620   3.196   5.853  0.5052 -0.3218 -0.1232
   63SAPC  H15R 5059   2.540   3.177   5.780  1.1032 -0.7662 -0.6711
   63SAPC  C216 5060   2.725   3.284   5.792 -0.5457  0.5862 -0.1485
   63SAPC  H16R 5061   2.825   3.237   5.806 -1.0837 -0.5597 -0.0095
   63SAPC  H16S 5062   2.728   3.381   5.846 -2.6111 -0.0733  1.2942
   63SAPC  C217 5063   2.699   3.314   5.647  0.7040  0.3060 -0.7395
   63SAPC  H17R 5064   2.589   3.329   5.645 -0.0060 -3.6622  0.3653
   63SAPC  H17S 5065   2.719   3.230   5.577  0.0302  0.0207 -0.6018
   63SAPC  C218 5066   2.775   3.442   5.615 -0.0012  0.0372 -0.4029
   63SAPC  H18R 5067   2.874   3.431   5.664 -0.9049 -1.5136  1.1986
   63SAPC  H18S 5068   2.730   3.528   5.669  1.7307  0.0119  1.1581
   63SAPC  C219 5069   2.794   3.469   5.467 -0.0241 -1.4313  0.6089
   63SAPC  H19R 5070   2.854   3.562   5.456  0.1427 -1.6411 -0.4498
   63SAPC  H19S 5071   2.704   3.506   5.412  1.7295  2.2367 -0.0537
   63SAPC  C220 5072   2.864   3.357   5.397 -0.8667  0.1342  0.2023
   63SAPC  H20R 5073   2.818   3.258   5.416  0.1450 -0.5286 -0.6671
   63SAPC  H20S 5074   2.966   3.356   5.442 -0.8217 -0.0932  0.0988
   63SAPC  H20T 5075   2.865   3.366   5.286 -1.5765  0.0200  0.1818
   63SAPC   C33 5076   2.844   2.745   6.705  0.3844  0.2881 -0.0970
   63SAPC   H3X 5077   2.882   2.647   6.742 -4.2633 -0.6506  3.0473
   63SAPC   H3Y 5078   2.928   2.812   6.736  0.8053  0.5908 -1.7932
   63SAPC   C34 5079   2.851   2.743   6.554 -0.1979  0.3116 -0.9045
   63SAPC   H4X 5080   2.832   2.848   6.522  0.9432  0.1699 -2.1224
   63SAPC   H4Y 5081   2.772   2.684   6.503  1.1311 -0.8241 -1.7005
   63SAPC   C35 5082   2.975   2.676   6.501 -0.1281 -0.6501 -0.7760
   63SAPC   H5X 5083   2.985   2.572   6.538 -0.6514 -0.3003  0.4255
   63SAPC   H5Y 5084   3.056   2.733   6.551 -0.1356 -1.2956 -0.0066
   63SAPC   C36 5085   3.000   2.692   6.348 -0.5433  0.9776 -0.2666
   63SAPC   H6X 5086   2.908   2.660   6.295 -0.9282  0.0985  0.8912
   63SAPC   H6Y 5087   3.083   2.623   6.320 -1.3964  0.7499 -2.4649
   63SAPC   C37 5088   3.030   2.830   6.293 -0.1968 -0.6069  0.1958
   63SAPC   H7X 5089   3.123   2.866   6.341  1.5984 -2.3834 -1.7372
   63SAPC   H7Y 5090   2.945   2.898   6.318 -2.2699 -3.2413  0.6761
   63SAPC   C38 5091   3.050   2.824   6.142 -0.5303  0.0232  0.5589
   63SAPC   H8X 5092   2.980   2.743   6.110  0.0057 -0.7716  1.3468
   63SAPC   H8Y 5093   3.157   2.794   6.131 -0.2773  0.8251  0.8090
   63SAPC   C39 5094   3.016   2.955   6.070 -0.5335  0.1530 -0.1179
   63SAPC   H9X 5095   3.086   3.036   6.099 -0.4442 -0.1947  0.6582
   63SAPC   H9Y 5096   2.920   2.978   6.119  0.2563 -0.8356  2.0048
   63SAPC  C310 5097   2.994   2.937   5.916  0.7471  0.7245 -0.0264
   63SAPC  H10X 5098   2.991   3.039   5.872 -0.1601  0.4243 -0.6792
   63SAPC  H10Y 5099   2.889   2.902   5.904  0.6463  1.1431 -0.4031
   63SAPC  C311 5100   3.101   2.854   5.853 -0.2483  0.2144 -0.5822
   63SAPC  H11X 5101   3.076   2.752   5.891 -2.1393  0.9047  0.1487
   63SAPC  H11Y 5102   3.202   2.890   5.884 -0.1214 -0.4490 -0.1826
   63SAPC  C312 5103   3.094   2.850   5.703 -0.1424 -0.5976  0.5267
   63SAPC  H12X 5104   3.109   2.950   5.658  1.9608 -0.5642  1.1960
   63SAPC  H12Y 5105   2.998   2.802   5.674 -0.1819 -1.5899  2.1670
   63SAPC  C313 5106   3.215   2.773   5.651  0.6569 -0.3587 -0.3891
   63SAPC  H13X 5107   3.208   2.667   5.687  0.5919 -0.8327 -1.7560
   63SAPC  H13Y 5108   3.303   2.816   5.703 -0.1754 -1.7963  2.4942
   63SAPC  C314 5109   3.238   2.784   5.501  0.4040 -0.4017  0.3009
   63SAPC  H14X 5110   3.144   2.766   5.445  1.6443  0.1905 -2.1113
   63SAPC  H14Y 5111   3.305   2.699   5.474  0.3020 -1.0191  1.9023
   63SAPC  C315 5112   3.299   2.915   5.443  0.1270 -0.1536  0.4977
   63SAPC  H15X 5113   3.397   2.933   5.492 -0.3289 -1.6233  2.0396
   63SAPC  H15Y 5114   3.229   2.998   5.468 -0.2182  0.5701 -2.4935
   63SAPC  C316 5115   3.323   2.923   5.291 -0.2614  0.2525 -0.0158
   63SAPC  H16X 5116   3.235   2.897   5.229 -0.5416  0.4900  0.2761
   63SAPC  H16Y 5117   3.395   2.842   5.268 -0.1773  0.4836 -0.5837
   63SAPC  C317 5118   3.384   3.065   5.244  0.2479  0.0910  0.1406
   63SAPC  H17X 5119   3.451   3.052   5.157 -1.0285  1.4327 -1.0993
   63SAPC  H17Y 5120   3.428   3.111   5.335 -2.2949  0.4150  1.3036
   63SAPC  C318 5121   3.281   3.162   5.181  0.3417  0.1760 -0.2348
   63SAPC  H18X 5122   3.342   3.251   5.151  2.0031  0.0601  2.4093
   63SAPC  H18Y 5123   3.211   3.203   5.257  2.2856 -0.2469  1.9274
   63SAPC  H18Z 5124   3.231   3.109   5.097  1.7667 -1.0344 -0.3572
   64SAPC     N 5125   2.886   3.568   7.743  0.5208 -0.2251  0.8029
   64SAPC   C12 5126   2.849   3.467   7.637 -0.8306  0.0783  0.3450
   64SAPC  H12A 5127   2.829   3.369   7.679  0.6822  0.7585  2.8530
   64SAPC  H12B 5128   2.940   3.463   7.579 -1.7940  0.6295 -1.3056
   64SAPC   C13 5129   3.014   3.526   7.808  0.2196  0.2363  0.4409
   64SAPC  H13A 5130   3.017   3.421   7.830  2.0031  0.4599  1.4686
   64SAPC  H13B 5131   3.098   3.547   7.744  0.9198 -0.4322  1.1152
   64SAPC  H13C 5132   3.014   3.596   7.891 -1.6914 -1.3553  1.8722
   64SAPC   C14 5133   2.906   3.711   7.690  0.2688 -0.4814  0.2013
   64SAPC  H14A 5134   2.990   3.721   7.623  1.4277 -2.8552  1.1713
   64SAPC  H14B 5135   2.821   3.754   7.639  1.9072  1.6588 -0.8870
   64SAPC  H14C 5136   2.928   3.757   7.786 -1.3762  0.3418  0.2130
   64SAPC   C15 5137   2.773   3.573   7.849  0.6922  0.1688 -0.6962
   64SAPC  H15A 5138   2.761   3.477   7.897  1.1337  1.4886  2.2595
   64SAPC  H15B 5139   2.802   3.647   7.921  0.0464  0.4454 -0.7118
   64SAPC  H15C 5140   2.678   3.606   7.807 -0.7483  0.3415  2.4482
   64SAPC   C11 5141   2.736   3.500   7.538 -0.2020 -0.2313 -0.0025
   64SAPC  H11A 5142   2.723   3.407   7.478 -0.7468  0.2843 -0.7024
   64SAPC  H11B 5143   2.774   3.573   7.464  2.2017 -1.2301  0.1493
   64SAPC     P 5144   2.532   3.655   7.574  0.4733  0.0361  0.0208
   64SAPC   O13 5145   2.425   3.661   7.676  0.1271  0.5071  0.7251
   64SAPC   O14 5146   2.621   3.771   7.569 -0.1944 -0.5199  0.3312
   64SAPC   O12 5147   2.618   3.533   7.607  0.4341 -0.7257 -0.0447
   64SAPC   O11 5148   2.477   3.628   7.429  0.0937  0.1178 -0.4093
   64SAPC    C1 5149   2.397   3.512   7.398  0.0966  0.3681  0.2789
   64SAPC    HA 5150   2.457   3.422   7.371  0.9338  0.9697  0.0910
   64SAPC    HB 5151   2.328   3.487   7.482  0.0568 -0.7054 -0.0557
   64SAPC    C2 5152   2.289   3.526   7.283 -0.2928 -0.1465  1.0389
   64SAPC    HS 5153   2.244   3.426   7.264 -0.2572  0.1809 -0.9350
   64SAPC   O21 5154   2.345   3.590   7.169  0.4118  0.5571  0.0333
   64SAPC   C21 5155   2.366   3.511   7.068 -0.8169  0.0104  0.5911
   64SAPC   O22 5156   2.331   3.391   7.063 -0.3690 -0.4261 -0.0403
   64SAPC   C22 5157   2.455   3.589   6.963  0.0745  0.2120  0.4740
   64SAPC   H2R 5158   2.548   3.627   7.009 -0.3195  1.0509  0.5947
   64SAPC   H2S 5159   2.495   3.531   6.877  0.0402  2.1697 -0.9096
   64SAPC    C3 5160   2.171   3.621   7.325  0.0182 -0.5468  0.0787
   64SAPC    HX 5161   2.208   3.725   7.314 -0.7436 -0.0705  1.7509
   64SAPC    HY 5162   2.138   3.606   7.430 -0.7072  0.7717  0.0530
   64SAPC   O31 5163   2.059   3.602   7.231 -0.2724 -0.4986  0.4775
   64SAPC   C31 5164   1.981   3.498   7.244  0.4030  0.2277 -0.2963
   64SAPC   O32 5165   1.974   3.425   7.338 -1.0801 -0.1232 -0.6642
   64SAPC   C32 5166   1.895   3.484   7.119 -0.4290 -0.0517  0.2145
   64SAPC   H2X 5167   1.936   3.563   7.053  1.3635 -1.5561 -0.5794
   64SAPC   H2Y 5168   1.791   3.512   7.144 -0.0809 -0.1640  1.9429
   64SAPC   C23 5169   2.367   3.693   6.894  0.2590  0.7332  0.5558
   64SAPC   H3R 5170   2.417   3.737   6.805 -0.6958 -1.4939 -1.2024
   64SAPC   H3S 5171   2.357   3.777   6.965  0.6247  0.5593  0.8133
   64SAPC   C24 5172   2.231   3.630   6.825  0.2545 -0.7783 -0.4829
   64SAPC   H4R 5173   2.167   3.708   6.779  0.2858  0.7610  1.9460
   64SAPC   H4S 5174   2.166   3.606   6.912 -0.9960 -1.0752 -1.4688
   64SAPC   C25 5175   2.248   3.511   6.740 -0.1036 -0.1132 -0.2357
   64SAPC   H5R 5176   2.278   3.425   6.802 -1.7696 -0.3238  0.3410
   64SAPC   C26 5177   2.236   3.498   6.611  0.1202  0.1877  0.6375
   64SAPC   H6R 5178   2.253   3.396   6.572 -1.2340  0.2708 -0.2404
   64SAPC   C27 5179   2.206   3.606   6.506 -0.1825  0.1533  0.0422
   64SAPC   H7R 5180   2.233   3.704   6.549 -3.1347  0.2605  1.9539
   64SAPC   H7S 5181   2.095   3.616   6.497 -0.1680  0.8273  0.5156
   64SAPC   C28 5182   2.263   3.595   6.369  0.4865  0.1029 -0.2355
   64SAPC   H8R 5183   2.353   3.534   6.357  0.9688  0.8344 -0.3985
   64SAPC   C29 5184   2.206   3.645   6.258  0.2187 -1.4444  0.0038
   64SAPC   H9R 5185   2.253   3.616   6.163 -0.0870 -1.4391 -0.1504
   64SAPC  C210 5186   2.082   3.743   6.248  0.0781  0.3552 -0.5160
   64SAPC  H10R 5187   2.065   3.781   6.351  0.8073 -1.4012  0.2931
   64SAPC  H10S 5188   1.994   3.682   6.218  0.8301 -0.2594 -1.5198
   64SAPC  C211 5189   2.098   3.852   6.155  0.1346  0.1445 -0.3885
   64SAPC  H11R 5190   2.042   3.831   6.062  1.8551 -0.3978 -1.3598
   64SAPC  C212 5191   2.179   3.957   6.167 -0.2999  0.5253  0.0111
   64SAPC  H12R 5192   2.159   4.046   6.106  1.5800 -0.7374 -2.6224
   64SAPC  C213 5193   2.270   3.988   6.283 -0.4017 -0.0800 -0.1983
   64SAPC  H13R 5194   2.372   3.983   6.241 -1.3792 -0.6215 -2.6818
   64SAPC  H13S 5195   2.255   3.905   6.355  0.5483 -0.3099 -0.2626
   64SAPC  C214 5196   2.256   4.115   6.364 -0.5145  0.6732 -0.1524
   64SAPC  H14R 5197   2.196   4.193   6.314  0.1469  0.2764 -1.6255
   64SAPC  C215 5198   2.329   4.145   6.477 -0.3862  1.1133  0.3205
   64SAPC  H15R 5199   2.313   4.233   6.540  1.1817  0.6940  1.3662
   64SAPC  C216 5200   2.424   4.048   6.547 -0.0001  0.3282  0.2346
   64SAPC  H16R 5201   2.528   4.076   6.518 -0.5324  2.4869  0.2463
   64SAPC  H16S 5202   2.406   3.944   6.513 -0.6237  0.0466  1.3482
   64SAPC  C217 5203   2.415   4.054   6.698  0.2737  0.3306 -0.7102
   64SAPC  H17R 5204   2.493   3.985   6.736 -1.0254 -1.1510 -0.6050
   64SAPC  H17S 5205   2.315   4.020   6.734 -0.1426  2.4853  0.3081
   64SAPC  C218 5206   2.452   4.191   6.761  0.8210  0.7298  0.0468
   64SAPC  H18R 5207   2.386   4.272   6.724 -1.9513 -0.7399  1.3955
   64SAPC  H18S 5208   2.560   4.211   6.745  1.3448 -1.6494  0.2063
   64SAPC  C219 5209   2.443   4.186   6.916 -0.1721 -0.0820 -0.1197
   64SAPC  H19R 5210   2.346   4.146   6.951  0.1185 -0.9360 -0.2595
   64SAPC  H19S 5211   2.441   4.293   6.946 -0.9405  0.8070 -2.9598
   64SAPC  C220 5212   2.557   4.108   6.988 -0.3737  0.1001  0.6151
   64SAPC  H20R 5213   2.654   4.144   6.947 -0.8571  1.7503  0.8554
   64SAPC  H20S 5214   2.564   4.000   6.963 -0.8527  0.2404 -0.1820
   64SAPC  H20T 5215   2.557   4.111   7.099  0.6356 -0.1796  0.6278
   64SAPC   C33 5216   1.920   3.360   7.042  0.1741  0.6529 -0.5639
   64SAPC   H3X 5217   1.894   3.276   7.110 -4.9081  1.1067 -1.5285
   64SAPC   H3Y 5218   2.027   3.344   7.014 -0.0277 -0.8483 -0.5655
   64SAPC   C34 5219   1.825   3.348   6.921 -0.6989  0.2317  0.5194
   64SAPC   H4X 5220   1.724   3.383   6.950 -0.5632  0.3846  0.8199
   64SAPC   H4Y 5221   1.816   3.243   6.884  0.4145  0.7547 -1.3678
   64SAPC   C35 5222   1.875   3.433   6.796 -0.4919  0.0639  0.1581
   64SAPC   H5X 5223   1.971   3.388   6.764 -0.7453 -0.7897  0.5585
   64SAPC   H5Y 5224   1.886   3.539   6.825 -0.0707 -0.2866  1.3517
   64SAPC   C36 5225   1.773   3.429   6.679  0.3801 -0.1912 -0.0255
   64SAPC   H6X 5226   1.680   3.485   6.706  1.0401  1.0143 -0.1757
   64SAPC   H6Y 5227   1.747   3.328   6.641 -5.2461  1.2372 -0.9566
   64SAPC   C37 5228   1.817   3.524   6.561  0.1097 -1.0747  0.5389
   64SAPC   H7X 5229   1.901   3.475   6.507  1.0122  1.8302 -0.8573
   64SAPC   H7Y 5230   1.837   3.624   6.605 -2.7569 -0.8790  1.6373
   64SAPC   C38 5231   1.706   3.539   6.457  0.9396 -0.3085 -0.4557
   64SAPC   H8X 5232   1.617   3.592   6.497  1.0136 -0.2605 -0.3555
   64SAPC   H8Y 5233   1.674   3.434   6.440  0.4896 -0.4121  0.8883
   64SAPC   C39 5234   1.747   3.606   6.325  0.2207 -0.1348  0.0227
   64SAPC   H9X 5235   1.842   3.558   6.293  1.2294  1.0115  1.1908
   64SAPC   H9Y 5236   1.783   3.710   6.334 -0.3161  0.0516  0.0575
   64SAPC  C310 5237   1.642   3.582   6.210 -0.3880 -0.0664 -0.3502
   64SAPC  H10X 5238   1.561   3.650   6.244  0.8297  0.4482  1.7326
   64SAPC  H10Y 5239   1.613   3.475   6.207  0.1280 -0.2008 -0.7937
   64SAPC  C311 5240   1.699   3.622   6.072 -0.8293 -0.6557 -0.5078
   64SAPC  H11X 5241   1.646   3.574   5.986 -1.9042  0.1670 -0.3263
   64SAPC  H11Y 5242   1.797   3.571   6.061  0.4184  0.4714  3.6453
   64SAPC  C312 5243   1.724   3.774   6.058 -0.1098 -0.5646 -0.4368
   64SAPC  H12X 5244   1.792   3.814   6.136 -2.9395  1.8121  1.0380
   64SAPC  H12Y 5245   1.625   3.817   6.085  0.3147 -0.0202  0.2972
   64SAPC  C313 5246   1.763   3.808   5.910 -1.1159  0.0716  0.0612
   64SAPC  H13X 5247   1.805   3.910   5.895 -1.6223  0.2684 -0.0535
   64SAPC  H13Y 5248   1.662   3.812   5.862 -0.8206 -0.7853 -0.6493
   64SAPC  C314 5249   1.851   3.719   5.824 -0.7013  0.1154  0.1381
   64SAPC  H14X 5250   1.810   3.616   5.810 -2.0934  0.9863 -3.1296
   64SAPC  H14Y 5251   1.949   3.705   5.874 -0.7797 -2.0525 -0.1811
   64SAPC  C315 5252   1.870   3.776   5.682 -0.2281 -0.0556  0.2517
   64SAPC  H15X 5253   1.927   3.871   5.693 -1.9810  1.2092 -1.0504
   64SAPC  H15Y 5254   1.771   3.789   5.634 -0.8866 -2.9486  0.6064
   64SAPC  C316 5255   1.941   3.680   5.588  0.2797 -0.2946  0.5210
   64SAPC  H16X 5256   1.874   3.593   5.574 -0.0940  0.0653  0.0144
   64SAPC  H16Y 5257   2.032   3.645   5.642  1.6275  1.9606 -0.1353
   64SAPC  C317 5258   1.981   3.731   5.447 -0.1866 -0.1174  0.3025
   64SAPC  H17X 5259   1.901   3.804   5.423 -0.5508 -1.0133 -1.3757
   64SAPC  H17Y 5260   1.985   3.653   5.368  2.8510  0.2882 -0.0758
   64SAPC  C318 5261   2.116   3.800   5.443 -0.4363 -0.8920  0.3215
   64SAPC  H18X 5262   2.203   3.738   5.475 -0.1610  0.5956  2.7535
   64SAPC  H18Y 5263   2.132   3.891   5.506  1.8240 -1.5130  0.7300
   64SAPC  H18Z 5264   2.140   3.825   5.337  0.4138  3.2142  1.2817
   65SAPC     N 5265   1.176   5.008   2.739 -0.5289  0.2468 -0.0343
   65SAPC   C12 5266   1.162   5.080   2.608  0.3994 -0.4952  0.1271
   65SAPC  H12A 5267   1.059   5.103   2.582  0.5576 -0.9436 -0.9563
   65SAPC  H12B 5268   1.191   5.006   2.534 -2.4971 -1.1898 -0.4810
   65SAPC   C13 5269   1.133   5.083   2.860  0.0035 -0.6772 -0.1007
   65SAPC  H13A 5270   1.191   5.175   2.860  0.9904 -1.2437 -2.1176
   65SAPC  H13B 5271   1.031   5.115   2.877  0.8409  1.4378  1.5269
   65SAPC  H13C 5272   1.153   5.025   2.949  3.1797  1.5166  0.8022
   65SAPC   C14 5273   1.095   4.877   2.736  0.3060 -0.9930 -0.0906
   65SAPC  H14A 5274   0.989   4.898   2.738  0.6504  0.9895  0.4275
   65SAPC  H14B 5275   1.108   4.819   2.647 -1.4416 -1.5358 -0.0253
   65SAPC  H14C 5276   1.124   4.810   2.815  0.1973  0.4177  1.2108
   65SAPC   C15 5277   1.313   4.958   2.748 -1.8531 -0.4219 -0.4204
   65SAPC  H15A 5278   1.317   4.862   2.798  2.8789  0.3707  1.2995
   65SAPC  H15B 5279   1.364   4.956   2.653  0.9175 -0.2123  0.9625
   65SAPC  H15C 5280   1.364   5.027   2.814 -1.9116 -0.2646 -0.5396
   65SAPC   C11 5281   1.237   5.217   2.596  0.0306  0.2932 -0.3702
   65SAPC  H11A 5282   1.229   5.253   2.491  0.4184  1.0608 -0.1428
   65SAPC  H11B 5283   1.345   5.199   2.612 -0.3463 -1.1442  0.8574
   65SAPC     P 5284   1.063   5.399   2.643 -0.1900  0.4012 -0.1285
   65SAPC   O13 5285   1.118   5.536   2.606  0.3542  0.0558 -0.5573
   65SAPC   O14 5286   0.981   5.326   2.544  0.9325  0.2716  0.1778
   65SAPC   O12 5287   1.185   5.314   2.689  0.2849 -0.3229 -0.4686
   65SAPC   O11 5288   0.983   5.409   2.775 -0.1860 -0.1311  0.2176
   65SAPC    C1 5289   1.045   5.433   2.905 -1.0456 -0.1556  0.0246
   65SAPC    HA 5290   1.123   5.358   2.929 -2.0139 -1.2433 -0.1691
   65SAPC    HB 5291   1.084   5.537   2.912 -0.7531 -0.3608  2.4477
   65SAPC    C2 5292   0.940   5.431   3.023 -0.6117  0.1757  0.5135
   65SAPC    HS 5293   0.889   5.332   3.024 -0.5206  0.1317  0.9675
   65SAPC   O21 5294   0.836   5.524   3.000 -0.5309 -0.3486 -0.3648
   65SAPC   C21 5295   0.722   5.502   3.071  0.3249  0.1157 -0.4653
   65SAPC   O22 5296   0.693   5.402   3.140 -0.5414 -0.1676  0.7942
   65SAPC   C22 5297   0.625   5.615   3.060  0.0405  0.1647  0.0124
   65SAPC   H2R 5298   0.641   5.671   2.965  0.1045  1.7718  0.9265
   65SAPC   H2S 5299   0.530   5.561   3.041 -0.3725  1.7694 -3.0553
   65SAPC    C3 5300   1.002   5.458   3.167 -0.0597  0.5662  0.8658
   65SAPC    HX 5301   1.084   5.385   3.181  1.8629  2.4399 -0.0975
   65SAPC    HY 5302   0.917   5.431   3.233 -0.3547 -0.8398 -0.0539
   65SAPC   O31 5303   1.057   5.590   3.186  0.0215 -0.0598  0.3699
   65SAPC   C31 5304   1.086   5.617   3.309 -0.5859  0.3763 -0.5449
   65SAPC   O32 5305   1.083   5.538   3.404  0.4331  0.1483 -0.3969
   65SAPC   C32 5306   1.154   5.756   3.318 -0.3125  0.8604 -0.0862
   65SAPC   H2X 5307   1.083   5.832   3.278 -1.8459  0.3630  1.5820
   65SAPC   H2Y 5308   1.251   5.760   3.263  0.4506 -0.1432  1.1376
   65SAPC   C23 5309   0.620   5.714   3.176 -0.6382 -0.4235 -0.2746
   65SAPC   H3R 5310   0.611   5.653   3.269 -1.6086 -0.2425 -0.2393
   65SAPC   H3S 5311   0.529   5.775   3.160  1.3165  2.3223 -1.7863
   65SAPC   C24 5312   0.730   5.828   3.186  0.4740  1.5174 -0.0915
   65SAPC   H4R 5313   0.737   5.869   3.082 -1.9072 -0.9500 -1.3631
   65SAPC   H4S 5314   0.823   5.768   3.186 -0.3910  0.0300  2.5284
   65SAPC   C25 5315   0.732   5.933   3.289  0.2103 -0.3181 -0.3587
   65SAPC   H5R 5316   0.713   6.036   3.255  0.6339 -0.5333 -1.2848
   65SAPC   C26 5317   0.751   5.916   3.419  0.2606  0.2381 -0.6395
   65SAPC   H6R 5318   0.753   6.002   3.487  1.0296  0.4556 -0.9288
   65SAPC   C27 5319   0.779   5.784   3.483  0.1173  0.1328 -0.2279
   65SAPC   H7R 5320   0.851   5.806   3.564  0.2043  0.5706 -0.4244
   65SAPC   H7S 5321   0.835   5.714   3.418 -1.1457  1.3470 -2.7592
   65SAPC   C28 5322   0.658   5.728   3.551  1.4057  0.7537 -0.1754
   65SAPC   H8R 5323   0.589   5.671   3.487 -2.0203  2.3492  1.8286
   65SAPC   C29 5324   0.635   5.713   3.683  0.7019  0.1403 -0.2565
   65SAPC   H9R 5325   0.541   5.677   3.727  0.8494 -0.6903 -0.6131
   65SAPC  C210 5326   0.732   5.766   3.793  0.5902  0.6427  0.7330
   65SAPC  H10R 5327   0.839   5.757   3.763  0.7564  2.6045  0.5957
   65SAPC  H10S 5328   0.706   5.696   3.876  2.7505 -1.1563 -0.0151
   65SAPC  C211 5329   0.723   5.911   3.829 -0.3847 -0.0707 -0.3410
   65SAPC  H11R 5330   0.691   5.971   3.743 -1.9053 -1.6220 -0.9255
   65SAPC  C212 5331   0.740   5.955   3.953  0.7210 -0.8531  0.7376
   65SAPC  H12R 5332   0.741   6.064   3.964 -1.3320 -0.6502 -0.4315
   65SAPC  C213 5333   0.779   5.864   4.064 -0.1056  0.3473 -0.1141
   65SAPC  H13R 5334   0.844   5.783   4.025 -0.2774 -0.3814  1.0641
   65SAPC  H13S 5335   0.691   5.808   4.104 -0.5275 -0.6561 -2.3213
   65SAPC  C214 5336   0.853   5.934   4.180 -0.1507  0.3285 -0.5719
   65SAPC  H14R 5337   0.808   6.033   4.196  0.4195  0.4553  0.3545
   65SAPC  C215 5338   0.957   5.903   4.253 -0.0071 -0.6923 -0.9096
   65SAPC  H15R 5339   0.989   5.984   4.320  1.5275  0.6947 -3.1674
   65SAPC  C216 5340   1.037   5.774   4.259  0.0161 -0.0917 -0.0962
   65SAPC  H16R 5341   0.977   5.693   4.213 -0.7514 -0.1071  0.8936
   65SAPC  H16S 5342   1.032   5.740   4.365 -0.5471 -0.7420 -0.3230
   65SAPC  C217 5343   1.173   5.790   4.204  0.3516  0.1605  0.5751
   65SAPC  H17R 5344   1.172   5.848   4.109 -2.1829  2.1165  1.6870
   65SAPC  H17S 5345   1.200   5.685   4.182  2.2537  0.9549 -1.2713
   65SAPC  C218 5346   1.284   5.851   4.288 -0.4207  0.2687 -0.7768
   65SAPC  H18R 5347   1.264   5.960   4.289 -4.1558 -0.2716 -2.2537
   65SAPC  H18S 5348   1.378   5.838   4.229 -1.6425  0.0434 -2.7573
   65SAPC  C219 5349   1.297   5.801   4.435 -0.0935 -0.0005  0.0653
   65SAPC  H19R 5350   1.334   5.698   4.413 -0.4471 -0.0746 -0.1858
   65SAPC  H19S 5351   1.200   5.802   4.487  0.1042 -0.1708  0.4399
   65SAPC  C220 5352   1.411   5.875   4.508 -0.0857 -0.1314 -0.1631
   65SAPC  H20R 5353   1.407   5.858   4.618  0.9976  1.5500  0.1737
   65SAPC  H20S 5354   1.387   5.982   4.495 -0.6511 -0.5188 -2.7312
   65SAPC  H20T 5355   1.512   5.850   4.468 -0.5527 -1.4961 -0.5287
   65SAPC   C33 5356   1.186   5.800   3.466  0.3583  0.0817 -0.7759
   65SAPC   H3X 5357   1.084   5.801   3.512  0.4705  2.6388 -0.4119
   65SAPC   H3Y 5358   1.212   5.907   3.484 -2.8277  0.8698 -0.2345
   65SAPC   C34 5359   1.288   5.715   3.545  0.5048 -0.4543 -0.1495
   65SAPC   H4X 5360   1.387   5.719   3.496 -0.6071  1.3004 -2.4655
   65SAPC   H4Y 5361   1.261   5.608   3.534 -2.6430  0.3081 -1.0281
   65SAPC   C35 5362   1.311   5.752   3.686 -0.3929 -0.3738  0.0708
   65SAPC   H5X 5363   1.216   5.746   3.743 -0.5771  0.1432 -0.1733
   65SAPC   H5Y 5364   1.357   5.853   3.685  0.2735 -0.6440 -2.1138
   65SAPC   C36 5365   1.406   5.654   3.761 -0.3611  0.2092 -0.2889
   65SAPC   H6X 5366   1.507   5.666   3.716 -0.7524 -0.9606 -1.5308
   65SAPC   H6Y 5367   1.379   5.548   3.744  0.4136 -0.7251  3.3590
   65SAPC   C37 5368   1.417   5.669   3.910 -0.3536 -0.0759 -0.5383
   65SAPC   H7X 5369   1.326   5.662   3.973  0.3921  0.4246  0.6263
   65SAPC   H7Y 5370   1.448   5.773   3.934 -0.5923  0.1656 -1.2467
   65SAPC   C38 5371   1.527   5.583   3.960 -0.3423  0.3892 -0.4886
   65SAPC   H8X 5372   1.621   5.618   3.915  0.8349  0.3032  1.7390
   65SAPC   H8Y 5373   1.497   5.480   3.933  1.4597 -0.9414  2.0931
   65SAPC   C39 5374   1.553   5.589   4.112 -0.5399  0.2580  0.1720
   65SAPC   H9X 5375   1.473   5.538   4.168  0.0297  1.0526  1.7866
   65SAPC   H9Y 5376   1.545   5.696   4.140 -1.1457  0.6109 -1.2747
   65SAPC  C310 5377   1.687   5.522   4.158  0.3743  0.2260  0.2472
   65SAPC  H10X 5378   1.781   5.559   4.111  1.0127  1.5594  2.4037
   65SAPC  H10Y 5379   1.684   5.415   4.130 -0.3259  0.5048 -0.7889
   65SAPC  C311 5380   1.719   5.530   4.310 -0.3119  0.3231  0.4472
   65SAPC  H11X 5381   1.726   5.639   4.332  1.5478  0.5985 -1.2422
   65SAPC  H11Y 5382   1.818   5.482   4.329  0.7128  0.4240 -3.7564
   65SAPC  C312 5383   1.617   5.459   4.410  0.0678 -0.2655  0.5420
   65SAPC  H12X 5384   1.596   5.355   4.375  1.0349 -0.1546 -0.4152
   65SAPC  H12Y 5385   1.526   5.522   4.413  0.6917  0.5975  1.7160
   65SAPC  C313 5386   1.678   5.433   4.547  0.1948  0.1086 -0.2343
   65SAPC  H13X 5387   1.711   5.532   4.585 -0.8383  0.8335 -1.1575
   65SAPC  H13Y 5388   1.771   5.374   4.537  0.9365  1.4133 -1.3152
   65SAPC  C314 5389   1.578   5.362   4.639  0.3532  0.0006 -0.3268
   65SAPC  H14X 5390   1.634   5.318   4.724 -0.0586  1.1025  0.5330
   65SAPC  H14Y 5391   1.532   5.279   4.581  0.1848 -0.0331 -0.1468
   65SAPC  C315 5392   1.475   5.447   4.707  0.2839 -0.4083  0.0432
   65SAPC  H15X 5393   1.393   5.381   4.742 -0.3128 -0.1975 -0.9117
   65SAPC  H15Y 5394   1.443   5.515   4.624  2.3011  2.4032  1.4352
   65SAPC  C316 5395   1.525   5.534   4.825 -0.6036  0.0074  0.5157
   65SAPC  H16X 5396   1.625   5.569   4.793 -0.1788 -2.1435 -0.6942
   65SAPC  H16Y 5397   1.540   5.460   4.907 -1.9635 -2.8134 -1.5824
   65SAPC  C317 5398   1.439   5.647   4.887 -0.5921 -0.0316  0.0010
   65SAPC  H17X 5399   1.336   5.611   4.910  0.6887 -2.4694  2.5160
   65SAPC  H17Y 5400   1.416   5.735   4.823  0.3179  0.2697  0.0675
   65SAPC  C318 5401   1.494   5.708   5.014 -0.0380 -0.4908  0.0508
   65SAPC  H18X 5402   1.442   5.805   5.032  1.3369  0.7134 -2.0042
   65SAPC  H18Y 5403   1.602   5.734   5.006  0.0765 -0.3784  1.7107
   65SAPC  H18Z 5404   1.478   5.635   5.095  1.4895 -1.4448 -0.4592
   66SAPC     N 5405   3.523   1.725   2.581  0.0377  0.0614 -0.2823
   66SAPC   C12 5406   3.615   1.656   2.685 -0.1718  0.0311  0.0865
   66SAPC  H12A 5407   3.693   1.722   2.719 -0.6366  0.0894  1.0818
   66SAPC  H12B 5408   3.649   1.572   2.626  2.0071  1.1325 -0.3048
   66SAPC   C13 5409   3.429   1.620   2.520 -0.3963  0.4015  0.2302
   66SAPC  H13A 5410   3.374   1.656   2.434  2.8852  4.5421 -0.4414
   66SAPC  H13B 5411   3.486   1.532   2.495 -0.2965 -0.3307  2.7137
   66SAPC  H13C 5412   3.363   1.591   2.601 -0.1367  1.2540  0.7579
   66SAPC   C14 5413   3.458   1.844   2.643 -0.1255  0.5478 -0.1687
   66SAPC  H14A 5414   3.528   1.926   2.640  0.2348  0.2415 -2.4421
   66SAPC  H14B 5415   3.374   1.872   2.581 -0.3249 -0.4156 -0.3612
   66SAPC  H14C 5416   3.426   1.814   2.741 -0.9761 -0.2581 -0.6711
   66SAPC   C15 5417   3.619   1.774   2.475 -0.3805  0.5371 -0.7589
   66SAPC  H15A 5418   3.572   1.832   2.397 -1.5122 -2.3063 -2.3368
   66SAPC  H15B 5419   3.696   1.838   2.514  0.3434  0.2927 -1.7640
   66SAPC  H15C 5420   3.674   1.693   2.431  1.9389  0.7244  1.5302
   66SAPC   C11 5421   3.548   1.591   2.810  0.5103 -0.0386 -0.4820
   66SAPC  H11A 5422   3.637   1.543   2.856 -1.1073 -2.0110  0.7644
   66SAPC  H11B 5423   3.485   1.504   2.780  1.0485 -0.6511  0.1126
   66SAPC     P 5424   3.570   1.761   2.993  0.1660 -0.0070  0.3005
   66SAPC   O13 5425   3.683   1.823   2.923  0.3885  0.2875 -0.2565
   66SAPC   O14 5426   3.488   1.860   3.061 -0.5924  0.2798  0.1891
   66SAPC   O12 5427   3.478   1.683   2.894 -0.5509 -0.2283  0.2190
   66SAPC   O11 5428   3.627   1.652   3.092  0.1400 -0.5983 -0.1954
   66SAPC    C1 5429   3.551   1.537   3.137 -0.4858 -0.9701 -0.3609
   66SAPC    HA 5430   3.539   1.464   3.054 -0.7307 -0.0866 -1.1249
   66SAPC    HB 5431   3.622   1.487   3.206 -0.5585  0.8543  1.1333
   66SAPC    C2 5432   3.425   1.561   3.216 -0.0609 -0.2360  0.1813
   66SAPC    HS 5433   3.355   1.612   3.147 -0.3905  0.2772  0.8849
   66SAPC   O21 5434   3.471   1.651   3.326 -0.2618  0.5451 -0.3851
   66SAPC   C21 5435   3.365   1.719   3.379 -0.2650  0.5692  0.7935
   66SAPC   O22 5436   3.255   1.719   3.335  0.3592  0.6848 -0.0452
   66SAPC   C22 5437   3.403   1.792   3.503  0.2783 -0.1762 -0.5171
   66SAPC   H2R 5438   3.380   1.720   3.584 -0.9962  0.1764 -0.5424
   66SAPC   H2S 5439   3.511   1.821   3.502 -0.2556  2.1059  1.2339
   66SAPC    C3 5440   3.349   1.432   3.257  0.0006  0.3547  0.0120
   66SAPC    HX 5441   3.306   1.385   3.166 -1.0484  0.5918  0.3685
   66SAPC    HY 5442   3.261   1.459   3.319 -0.0429  0.2455 -0.0022
   66SAPC   O31 5443   3.440   1.339   3.325  0.3386  0.1516 -0.7803
   66SAPC   C31 5444   3.450   1.360   3.455 -0.0540 -0.4057  0.3630
   66SAPC   O32 5445   3.372   1.420   3.522  0.8707 -0.0408 -0.5664
   66SAPC   C32 5446   3.568   1.282   3.519 -0.4091 -0.7839 -0.5915
   66SAPC   H2X 5447   3.656   1.344   3.491 -1.6394  0.4990 -1.7523
   66SAPC   H2Y 5448   3.584   1.178   3.481 -1.2027 -1.3185  0.4957
   66SAPC   C23 5449   3.315   1.912   3.531 -0.7614  0.3632  0.1987
   66SAPC   H3R 5450   3.208   1.887   3.520 -0.2459 -3.3621  1.9887
   66SAPC   H3S 5451   3.342   1.994   3.460  0.2773  0.3155  0.5253
   66SAPC   C24 5452   3.350   1.966   3.667 -0.5313  0.2304  0.2900
   66SAPC   H4R 5453   3.341   1.876   3.732 -1.8931  1.0687  1.3001
   66SAPC   H4S 5454   3.273   2.042   3.690 -1.6969 -1.0808  0.9035
   66SAPC   C25 5455   3.489   2.018   3.693 -0.0168  0.3547  0.0359
   66SAPC   H5R 5456   3.534   2.064   3.604  0.2713  0.2052  0.1041
   66SAPC   C26 5457   3.547   2.014   3.817 -0.1124 -0.5335  0.4421
   66SAPC   H6R 5458   3.645   2.058   3.840 -0.9158  0.0284  3.2848
   66SAPC   C27 5459   3.494   1.948   3.943  0.1986  0.0993 -0.1814
   66SAPC   H7R 5460   3.571   1.956   4.023  0.3126 -1.5947 -0.0897
   66SAPC   H7S 5461   3.480   1.840   3.924  1.0210  0.0499 -0.5954
   66SAPC   C28 5462   3.383   2.021   4.014  0.1480  0.1853 -0.3288
   66SAPC   H8R 5463   3.285   1.974   4.034  0.7338 -0.6590  0.6466
   66SAPC   C29 5464   3.388   2.145   4.072 -0.0959 -0.3517  0.1780
   66SAPC   H9R 5465   3.299   2.182   4.124  0.6459  1.7644  0.0121
   66SAPC  C210 5466   3.502   2.237   4.094 -0.3344  0.4543 -0.9104
   66SAPC  H10R 5467   3.592   2.185   4.054  0.0423  0.5201 -0.1643
   66SAPC  H10S 5468   3.512   2.247   4.204  0.8510  1.4479 -1.0856
   66SAPC  C211 5469   3.489   2.375   4.032  0.0076  0.6241  0.0598
   66SAPC  H11R 5470   3.489   2.380   3.922 -0.0171 -0.2028  0.0181
   66SAPC  C212 5471   3.473   2.487   4.100  1.0823 -0.3332  0.0481
   66SAPC  H12R 5472   3.481   2.581   4.043  0.5231  1.2641  2.4745
   66SAPC  C213 5473   3.460   2.505   4.251  0.5540 -0.3334  0.1050
   66SAPC  H13R 5474   3.439   2.612   4.268  1.4676  0.0174 -0.8377
   66SAPC  H13S 5475   3.563   2.496   4.293 -0.1717 -0.7634  1.8821
   66SAPC  C214 5476   3.358   2.419   4.325 -0.1342 -0.4704  0.3800
   66SAPC  H14R 5477   3.267   2.391   4.269  0.5822 -0.3483 -0.8819
   66SAPC  C215 5478   3.371   2.374   4.452  0.1445 -0.3249  0.4883
   66SAPC  H15R 5479   3.293   2.311   4.496  1.6170 -0.3183  3.3617
   66SAPC  C216 5480   3.485   2.402   4.548 -0.0931  0.3835 -0.0539
   66SAPC  H16R 5481   3.450   2.423   4.651  0.2164 -3.0321  0.8764
   66SAPC  H16S 5482   3.554   2.485   4.521  2.3568 -1.4875  0.0107
   66SAPC  C217 5483   3.586   2.282   4.568  0.5361 -0.2145  0.2865
   66SAPC  H17R 5484   3.675   2.322   4.622  0.6085 -0.6098  0.4665
   66SAPC  H17S 5485   3.619   2.254   4.466  1.5323  0.5054  0.3925
   66SAPC  C218 5486   3.526   2.160   4.656  0.4753 -0.7461  0.1428
   66SAPC  H18R 5487   3.435   2.112   4.612  0.4212 -1.3115  0.8616
   66SAPC  H18S 5488   3.517   2.194   4.761 -2.0309 -0.2924 -0.1538
   66SAPC  C219 5489   3.628   2.043   4.658  0.3568 -0.0247  0.5078
   66SAPC  H19R 5490   3.600   1.979   4.745  0.1008 -1.6342 -0.7225
   66SAPC  H19S 5491   3.729   2.082   4.682  0.5302 -0.4357  0.4526
   66SAPC  C220 5492   3.633   1.946   4.539 -0.1438 -0.3606 -0.8414
   66SAPC  H20R 5493   3.533   1.898   4.527  0.3037 -1.8801  0.9147
   66SAPC  H20S 5494   3.708   1.865   4.553 -0.0106 -0.0529  0.3535
   66SAPC  H20T 5495   3.649   2.004   4.446 -0.4193 -1.0862 -1.3554
   66SAPC   C33 5496   3.557   1.289   3.676 -0.2918  0.4287  0.2439
   66SAPC   H3X 5497   3.469   1.232   3.710  0.0839  0.5860  1.5315
   66SAPC   H3Y 5498   3.540   1.397   3.699 -2.6668  0.1536 -0.0748
   66SAPC   C34 5499   3.687   1.237   3.741 -0.4625  0.0294 -0.4134
   66SAPC   H4X 5500   3.768   1.308   3.714 -1.1979  1.1290  0.1963
   66SAPC   H4Y 5501   3.730   1.145   3.697 -1.1312  0.2041 -1.4587
   66SAPC   C35 5502   3.673   1.234   3.896 -0.3285 -0.5187 -0.6282
   66SAPC   H5X 5503   3.574   1.197   3.929 -1.9463  1.0893 -3.2970
   66SAPC   H5Y 5504   3.681   1.332   3.946 -0.4571 -0.7953 -0.0626
   66SAPC   C36 5505   3.785   1.146   3.959  0.5867  0.0379  0.4549
   66SAPC   H6X 5506   3.888   1.181   3.935  0.5615 -1.0903 -1.4529
   66SAPC   H6Y 5507   3.784   1.039   3.929  0.3656  0.3049 -0.5126
   66SAPC   C37 5508   3.786   1.141   4.116  0.0022 -0.3974  0.4631
   66SAPC   H7X 5509   3.689   1.106   4.156  0.5444 -0.1468  2.0546
   66SAPC   H7Y 5510   3.789   1.250   4.135 -0.4938  0.4124 -3.2710
   66SAPC   C38 5511   3.896   1.067   4.188  0.7931 -0.5115  0.6453
   66SAPC   H8X 5512   3.988   1.078   4.127 -0.8243  0.4820 -1.7402
   66SAPC   H8Y 5513   3.867   0.960   4.190  1.8583 -0.8681 -0.8930
   66SAPC   C39 5514   3.934   1.120   4.327 -0.0018  0.0476 -0.0452
   66SAPC   H9X 5515   3.996   1.213   4.325 -1.4557  1.0664  0.3825
   66SAPC   H9Y 5516   3.997   1.038   4.367  1.6899 -1.1330 -4.5610
   66SAPC  C310 5517   3.808   1.139   4.412  0.3930  0.4990 -0.0962
   66SAPC  H10X 5518   3.749   1.047   4.396  0.5319  0.3758  0.0991
   66SAPC  H10Y 5519   3.751   1.230   4.383 -0.3694  0.7272  1.9280
   66SAPC  C311 5520   3.828   1.149   4.567 -0.3272  0.1078  0.6149
   66SAPC  H11X 5521   3.906   1.226   4.589  1.0351 -0.8450 -0.6541
   66SAPC  H11Y 5522   3.871   1.051   4.595 -0.3301 -0.1029 -0.0965
   66SAPC  C312 5523   3.700   1.182   4.646 -0.1716  0.3885  0.2831
   66SAPC  H12X 5524   3.648   1.267   4.598  0.2070  0.9118  0.7886
   66SAPC  H12Y 5525   3.729   1.203   4.751 -0.1688  1.0472  0.1493
   66SAPC  C313 5526   3.599   1.065   4.655 -0.8189  0.0175  0.7570
   66SAPC  H13X 5527   3.655   0.995   4.720 -0.4885 -1.7563 -1.3065
   66SAPC  H13Y 5528   3.568   1.019   4.559  0.9363 -0.0448  0.1863
   66SAPC  C314 5529   3.475   1.119   4.723  0.0257  1.1353 -0.1997
   66SAPC  H14X 5530   3.396   1.147   4.650 -0.6319  0.2368  0.1478
   66SAPC  H14Y 5531   3.495   1.205   4.790 -3.6971  0.6480  1.8041
   66SAPC  C315 5532   3.424   0.994   4.803 -0.3343 -0.2038  0.0468
   66SAPC  H15X 5533   3.475   0.991   4.902 -0.8514  2.6718  0.4921
   66SAPC  H15Y 5534   3.446   0.904   4.742  3.3526  1.3818 -1.2446
   66SAPC  C316 5535   3.273   0.997   4.827  0.0444 -0.6542 -0.1707
   66SAPC  H16X 5536   3.218   0.962   4.737 -1.1849 -1.4673  0.8527
   66SAPC  H16Y 5537   3.245   1.104   4.838 -0.9371 -0.7203 -1.7661
   66SAPC  C317 5538   3.227   0.903   4.947  0.4451  0.4883  0.4888
   66SAPC  H17X 5539   3.255   0.956   5.041 -1.0057 -0.1765  1.3226
   66SAPC  H17Y 5540   3.269   0.801   4.933 -1.4057 -0.0732 -1.4405
   66SAPC  C318 5541   3.070   0.894   4.954 -0.7384  0.1410  0.3701
   66SAPC  H18X 5542   3.049   0.844   5.051 -1.0088  1.5081  1.0445
   66SAPC  H18Y 5543   3.029   0.833   4.870 -0.7912  1.1165 -0.3324
   66SAPC  H18Z 5544   3.025   0.995   4.963  0.6689  0.5752  4.1672
   67SAPC     N 5545   2.200   5.503   3.112 -0.1244  0.7703 -0.5527
   67SAPC   C12 5546   2.278   5.573   3.217 -0.0114  0.2945  0.3313
   67SAPC  H12A 5547   2.380   5.577   3.180 -0.5931  0.0478 -1.3718
   67SAPC  H12B 5548   2.287   5.516   3.308  0.6751  0.6359  0.4881
   67SAPC   C13 5549   2.223   5.572   2.975  0.1866  0.1439 -0.3250
   67SAPC  H13A 5550   2.329   5.576   2.955  0.7482  3.0725  2.4017
   67SAPC  H13B 5551   2.170   5.527   2.893  0.9289 -0.7831 -0.3205
   67SAPC  H13C 5552   2.196   5.676   2.983  1.4925  0.4158  1.0895
   67SAPC   C14 5553   2.253   5.367   3.097 -0.4789 -0.0221 -0.2016
   67SAPC  H14A 5554   2.198   5.308   3.025 -1.4094  0.6138 -0.0256
   67SAPC  H14B 5555   2.360   5.366   3.084 -0.1554 -2.6017  1.8762
   67SAPC  H14C 5556   2.238   5.315   3.190 -3.9924  3.3876  1.4540
   67SAPC   C15 5557   2.053   5.499   3.153 -0.1593 -0.2254 -1.0124
   67SAPC  H15A 5558   2.050   5.476   3.259  2.1973 -0.7111 -0.9898
   67SAPC  H15B 5559   2.011   5.598   3.147  0.8278  0.4131  1.4223
   67SAPC  H15C 5560   1.987   5.430   3.103  1.2904 -2.6571  0.2174
   67SAPC   C11 5561   2.233   5.716   3.250 -0.3255 -0.0964  0.3277
   67SAPC  H11A 5562   2.298   5.746   3.335  0.1673 -1.5753  0.4977
   67SAPC  H11B 5563   2.127   5.720   3.280 -0.3989  0.4379  0.0252
   67SAPC     P 5564   2.395   5.882   3.112 -0.2112  0.1468 -0.0470
   67SAPC   O13 5565   2.498   5.779   3.120 -0.1412  0.3074  0.1448
   67SAPC   O14 5566   2.371   5.957   2.985  0.2032 -0.6454 -0.3910
   67SAPC   O12 5567   2.255   5.809   3.145 -0.3836  0.4060  0.3908
   67SAPC   O11 5568   2.413   5.981   3.233 -0.3153 -0.0625  1.0383
   67SAPC    C1 5569   2.302   6.046   3.283  0.3153 -0.5552  0.2070
   67SAPC    HA 5570   2.203   6.020   3.241 -1.2665  1.4995  2.3673
   67SAPC    HB 5571   2.296   6.037   3.393 -1.3074 -1.4768  0.0750
   67SAPC    C2 5572   2.306   6.194   3.235 -0.2929 -0.1085 -0.6442
   67SAPC    HS 5573   2.340   6.189   3.130  1.2365  0.6800 -0.2138
   67SAPC   O21 5574   2.412   6.271   3.309  0.3269  0.4458 -0.0939
   67SAPC   C21 5575   2.434   6.395   3.251 -0.1206 -0.0294  0.4432
   67SAPC   O22 5576   2.404   6.417   3.135  0.0266 -0.4707 -0.2925
   67SAPC   C22 5577   2.493   6.489   3.352 -0.0814 -0.0775  0.2710
   67SAPC   H2R 5578   2.538   6.424   3.430 -2.0381  0.4116  1.8997
   67SAPC   H2S 5579   2.579   6.539   3.302 -1.0189 -0.4771 -1.8665
   67SAPC    C3 5580   2.168   6.262   3.248  0.0183 -0.6062  0.2207
   67SAPC    HX 5581   2.094   6.189   3.208 -0.2661 -0.7446  0.9843
   67SAPC    HY 5582   2.153   6.347   3.177 -1.8153  0.3304  1.6395
   67SAPC   O31 5583   2.141   6.320   3.380 -0.2052 -0.0392  0.2872
   67SAPC   C31 5584   2.113   6.233   3.475  0.4221  0.4918 -0.2777
   67SAPC   O32 5585   2.079   6.118   3.452 -0.4463  0.1909  0.0442
   67SAPC   C32 5586   2.146   6.293   3.608 -0.4282  0.2273 -0.5496
   67SAPC   H2X 5587   2.250   6.332   3.613 -0.1912  0.0044 -2.7395
   67SAPC   H2Y 5588   2.138   6.217   3.689 -0.1468 -0.7856 -1.4448
   67SAPC   C23 5589   2.376   6.581   3.412 -0.1523  0.1210 -1.2285
   67SAPC   H3R 5590   2.280   6.529   3.431 -1.4798  3.1063  1.0904
   67SAPC   H3S 5591   2.351   6.664   3.342  1.3532  3.5574  1.9363
   67SAPC   C24 5592   2.413   6.649   3.552 -0.3015  0.0357 -0.5029
   67SAPC   H4R 5593   2.463   6.568   3.608  0.4197 -1.2596 -2.8628
   67SAPC   H4S 5594   2.322   6.691   3.599  0.0945 -1.4093  1.7062
   67SAPC   C25 5595   2.512   6.761   3.526  0.6946  0.5880 -0.9453
   67SAPC   H5R 5596   2.501   6.810   3.428  0.0120  0.0818 -1.1308
   67SAPC   C26 5597   2.597   6.820   3.614  0.1939  0.9031  1.1964
   67SAPC   H6R 5598   2.669   6.894   3.576  1.4665 -0.7327  0.3168
   67SAPC   C27 5599   2.620   6.772   3.756 -0.2891 -0.3724  0.0624
   67SAPC   H7R 5600   2.678   6.855   3.799 -2.0227  3.0518 -3.5368
   67SAPC   H7S 5601   2.682   6.680   3.762  0.6554  0.2073 -0.5655
   67SAPC   C28 5602   2.496   6.762   3.839 -0.3551 -0.4795 -0.0523
   67SAPC   H8R 5603   2.403   6.779   3.784 -0.3271 -0.2234 -0.0212
   67SAPC   C29 5604   2.491   6.736   3.974 -0.1157 -0.1548  0.5126
   67SAPC   H9R 5605   2.395   6.704   4.018 -0.7682  0.0660 -0.7043
   67SAPC  C210 5606   2.613   6.713   4.057  0.9751 -0.6726  0.0210
   67SAPC  H10R 5607   2.600   6.753   4.160 -0.0413 -2.1830  0.5061
   67SAPC  H10S 5608   2.705   6.766   4.023  0.1482  1.3125  0.7311
   67SAPC  C211 5609   2.640   6.567   4.075 -0.1460  0.2953  0.0240
   67SAPC  H11R 5610   2.621   6.507   3.984 -3.2535 -0.6344  1.1659
   67SAPC  C212 5611   2.689   6.505   4.192  0.0334  0.2667 -0.2515
   67SAPC  H12R 5612   2.691   6.395   4.185 -1.7856  0.3190 -3.3445
   67SAPC  C213 5613   2.741   6.566   4.323  0.3677 -0.0293  0.4008
   67SAPC  H13R 5614   2.802   6.657   4.304  0.2880  0.6934  3.1423
   67SAPC  H13S 5615   2.809   6.493   4.371  1.7459 -0.7114 -2.3848
   67SAPC  C214 5616   2.626   6.597   4.411  0.2417 -0.5941  0.1408
   67SAPC  H14R 5617   2.525   6.603   4.369  0.6466  0.4171 -0.7566
   67SAPC  C215 5618   2.646   6.640   4.537 -0.3692 -0.3790  0.5328
   67SAPC  H15R 5619   2.554   6.660   4.594 -1.6096  1.4081 -1.8776
   67SAPC  C216 5620   2.781   6.666   4.605  0.1240 -0.2729 -0.3059
   67SAPC  H16R 5621   2.778   6.769   4.647 -1.5850 -1.1331  1.8844
   67SAPC  H16S 5622   2.862   6.665   4.529  0.5922  3.4865 -0.0706
   67SAPC  C217 5623   2.808   6.566   4.718  0.8690 -0.5595  0.1436
   67SAPC  H17R 5624   2.720   6.567   4.786  0.2469 -0.9706 -0.6484
   67SAPC  H17S 5625   2.905   6.590   4.766  0.4551 -0.2266  0.8265
   67SAPC  C218 5626   2.819   6.423   4.668  0.2374  0.2853  0.5142
   67SAPC  H18R 5627   2.918   6.411   4.619 -1.4275  0.5791 -3.2227
   67SAPC  H18S 5628   2.738   6.398   4.596 -0.4074  1.9172  0.6452
   67SAPC  C219 5629   2.816   6.328   4.785  0.3503  0.1248 -0.0165
   67SAPC  H19R 5630   2.714   6.310   4.824  0.6474 -2.8368 -0.3667
   67SAPC  H19S 5631   2.878   6.363   4.870  1.0700 -0.9577 -0.0708
   67SAPC  C220 5632   2.872   6.180   4.758 -0.1804 -0.1871  0.0903
   67SAPC  H20R 5633   2.795   6.125   4.699 -1.6242 -0.0905  1.7950
   67SAPC  H20S 5634   2.885   6.128   4.856  4.0816  1.2146  0.4652
   67SAPC  H20T 5635   2.971   6.180   4.708 -0.2786  1.8992 -0.1877
   67SAPC   C33 5636   2.049   6.407   3.637 -0.6646  0.0466 -0.1570
   67SAPC   H3X 5637   1.950   6.357   3.644 -0.3985 -0.4817 -0.1120
   67SAPC   H3Y 5638   2.050   6.487   3.559  0.5811  1.0325  0.8212
   67SAPC   C34 5639   2.094   6.483   3.763  0.1045 -0.0098 -0.6916
   67SAPC   H4X 5640   2.044   6.582   3.769  0.2183  0.0783 -1.1859
   67SAPC   H4Y 5641   2.199   6.516   3.750  1.0182 -2.4157 -0.0140
   67SAPC   C35 5642   2.073   6.403   3.893 -0.0966  0.2125  0.3825
   67SAPC   H5X 5643   2.113   6.300   3.877 -0.6609  0.1030 -0.3993
   67SAPC   H5Y 5644   1.965   6.404   3.918  0.3537  0.9108  2.4238
   67SAPC   C36 5645   2.133   6.463   4.020 -0.3196 -0.2809 -0.6872
   67SAPC   H6X 5646   2.241   6.488   4.010 -0.5806  1.0271 -0.5118
   67SAPC   H6Y 5647   2.138   6.384   4.098  2.5610  0.7518  0.3068
   67SAPC   C37 5648   2.053   6.583   4.075  0.0166  0.0119  0.6207
   67SAPC   H7X 5649   1.952   6.541   4.096 -2.3592  3.1688 -3.1749
   67SAPC   H7Y 5650   2.043   6.658   3.994 -0.4434  1.8738  2.3362
   67SAPC   C38 5651   2.109   6.645   4.204  0.6390  0.1172 -1.1814
   67SAPC   H8X 5652   2.040   6.728   4.233  0.8639 -0.3799  0.9263
   67SAPC   H8Y 5653   2.206   6.693   4.179 -0.5307  2.5753 -1.2878
   67SAPC   C39 5654   2.124   6.548   4.327 -0.7479 -0.0950  0.7582
   67SAPC   H9X 5655   2.191   6.463   4.301 -0.4239  0.2918  0.3034
   67SAPC   H9Y 5656   2.023   6.512   4.357 -0.7741  0.1161  0.9263
   67SAPC  C310 5657   2.190   6.614   4.449  0.1535  0.3243  0.1053
   67SAPC  H10X 5658   2.123   6.701   4.470 -1.2277 -1.0027  1.4277
   67SAPC  H10Y 5659   2.294   6.646   4.427 -0.0047 -0.0243 -1.2087
   67SAPC  C311 5660   2.188   6.521   4.572  0.6560 -0.2110  0.2622
   67SAPC  H11X 5661   2.079   6.509   4.594  0.8783 -2.3253  0.3947
   67SAPC  H11Y 5662   2.234   6.574   4.658  0.6797 -2.1512  1.5036
   67SAPC  C312 5663   2.246   6.382   4.541  0.4903  0.0493  0.0640
   67SAPC  H12X 5664   2.333   6.383   4.472  1.5827 -1.6383  1.3232
   67SAPC  H12Y 5665   2.179   6.313   4.485  1.6692  0.0636 -1.4246
   67SAPC  C313 5666   2.276   6.307   4.677 -0.3096 -0.4163 -0.9459
   67SAPC  H13X 5667   2.355   6.367   4.726 -0.6781  0.5498 -1.5023
   67SAPC  H13Y 5668   2.319   6.205   4.667  1.9394  0.3677  0.0229
   67SAPC  C314 5669   2.156   6.291   4.774  0.1101 -0.1431  0.2908
   67SAPC  H14X 5670   2.070   6.252   4.716 -0.4727  0.5401  0.6749
   67SAPC  H14Y 5671   2.134   6.388   4.824  1.0926  0.1238  0.2243
   67SAPC  C315 5672   2.176   6.200   4.898  0.3557  0.6625  0.1428
   67SAPC  H15X 5673   2.272   6.223   4.948  0.1463 -1.4070  1.6255
   67SAPC  H15Y 5674   2.191   6.095   4.863 -0.6926 -0.0260  1.6244
   67SAPC  C316 5675   2.060   6.187   4.993  0.6986 -0.7230 -0.2517
   67SAPC  H16X 5676   1.972   6.137   4.946 -1.2739  1.0915  1.3018
   67SAPC  H16Y 5677   2.026   6.292   5.009  1.4867 -0.5657  0.4341
   67SAPC  C317 5678   2.080   6.112   5.122 -1.2488  0.1362  0.5992
   67SAPC  H17X 5679   2.132   6.015   5.112  4.6657  2.5849  3.0874
   67SAPC  H17Y 5680   1.981   6.093   5.168 -1.5570  2.2833  0.9052
   67SAPC  C318 5681   2.166   6.184   5.227  0.1425  0.0696  0.6313
   67SAPC  H18X 5682   2.267   6.204   5.184  0.9067 -3.8071  0.2443
   67SAPC  H18Y 5683   2.171   6.126   5.322 -0.4002  1.0306  1.2546
   67SAPC  H18Z 5684   2.119   6.283   5.242 -4.7422 -1.5307 -2.0021
   68SAPC     N 5685   3.069   1.039   2.559 -0.5776 -0.6004  0.4770
   68SAPC   C12 5686   3.135   1.011   2.692  0.5589 -0.0850  0.4346
   68SAPC  H12A 5687   3.081   1.022   2.784  1.7839 -0.4269  1.2213
   68SAPC  H12B 5688   3.207   1.091   2.699  1.3025 -0.6235 -0.7109
   68SAPC   C13 5689   2.967   0.930   2.532  1.0901 -0.2942  0.9162
   68SAPC  H13A 5690   3.013   0.833   2.529  0.0060 -0.8137  0.4372
   68SAPC  H13B 5691   2.900   0.918   2.615  3.5195 -1.0935  2.8575
   68SAPC  H13C 5692   2.906   0.948   2.444  0.8763 -1.9947  0.6854
   68SAPC   C14 5693   3.004   1.177   2.564  0.3950 -1.0050  0.1203
   68SAPC  H14A 5694   2.925   1.187   2.637 -0.4027 -0.2237 -0.8091
   68SAPC  H14B 5695   3.088   1.238   2.592 -1.6649  1.2502  1.7856
   68SAPC  H14C 5696   2.960   1.209   2.471 -1.8050 -0.9279  1.1262
   68SAPC   C15 5697   3.177   1.034   2.452 -0.7734 -0.5042 -0.5674
   68SAPC  H15A 5698   3.229   0.941   2.470 -3.0234 -1.5534  1.0108
   68SAPC  H15B 5699   3.136   1.039   2.353 -0.7168  1.3217 -0.5349
   68SAPC  H15C 5700   3.246   1.116   2.465  1.2676 -2.2673  0.3416
   68SAPC   C11 5701   3.220   0.877   2.711  0.0423  0.0660  0.2241
   68SAPC  H11A 5702   3.150   0.799   2.675 -1.3573  0.7774  1.3150
   68SAPC  H11B 5703   3.245   0.865   2.819  0.5845  0.7591  0.1870
   68SAPC     P 5704   3.466   0.964   2.676 -0.1339  0.2590 -0.1686
   68SAPC   O13 5705   3.585   0.926   2.596 -0.1048  0.1994 -0.2488
   68SAPC   O14 5706   3.424   1.107   2.663 -0.1944  0.1662  0.8060
   68SAPC   O12 5707   3.339   0.876   2.633  0.2400 -0.0013 -0.0206
   68SAPC   O11 5708   3.479   0.935   2.832  0.0523 -0.0068  0.6186
   68SAPC    C1 5709   3.554   0.820   2.875 -0.4043  0.7123 -0.5185
   68SAPC    HA 5710   3.511   0.727   2.831 -0.4437  0.3831  0.2133
   68SAPC    HB 5711   3.657   0.833   2.837 -0.9484  2.4498 -1.5351
   68SAPC    C2 5712   3.562   0.817   3.028  0.6275 -0.0999  0.3266
   68SAPC    HS 5713   3.602   0.908   3.076  0.4503  1.5497 -2.4381
   68SAPC   O21 5714   3.634   0.690   3.056  0.6228 -0.5093  0.7249
   68SAPC   C21 5715   3.764   0.714   3.079  0.2820 -0.3657 -0.0392
   68SAPC   O22 5716   3.815   0.825   3.074  0.1271  0.2080  0.0396
   68SAPC   C22 5717   3.830   0.588   3.116 -0.4400 -0.8714 -0.0435
   68SAPC   H2R 5718   3.845   0.538   3.018 -0.9988  0.3757 -0.7983
   68SAPC   H2S 5719   3.931   0.611   3.157 -1.2177  0.0071  1.4646
   68SAPC    C3 5720   3.410   0.804   3.073  0.5828 -0.1681  0.1614
   68SAPC    HX 5721   3.357   0.717   3.028  0.6042 -1.4613  2.4776
   68SAPC    HY 5722   3.346   0.890   3.046  2.9333  2.2474  1.7240
   68SAPC   O31 5723   3.397   0.774   3.205  0.4226 -0.2724  0.5442
   68SAPC   C31 5724   3.400   0.875   3.291  0.7829 -0.5243  0.7249
   68SAPC   O32 5725   3.422   0.991   3.268  0.2282  0.2907  0.2194
   68SAPC   C32 5726   3.365   0.811   3.424 -0.1579 -0.0145 -0.8120
   68SAPC   H2X 5727   3.449   0.741   3.446  0.5077  0.6229 -1.3160
   68SAPC   H2Y 5728   3.274   0.748   3.412 -0.7369  0.0415  2.3853
   68SAPC   C23 5729   3.754   0.495   3.217 -0.1056 -0.2060  0.5486
   68SAPC   H3R 5730   3.827   0.412   3.228 -0.0122 -0.4700 -1.6247
   68SAPC   H3S 5731   3.658   0.466   3.170 -0.3749  3.8951 -2.0117
   68SAPC   C24 5732   3.719   0.565   3.345 -0.2899  0.2266  0.7138
   68SAPC   H4R 5733   3.634   0.516   3.399 -0.6057  0.8631  0.8001
   68SAPC   H4S 5734   3.684   0.668   3.327  0.6437  0.4179 -0.1047
   68SAPC   C25 5735   3.835   0.587   3.437  0.1885  0.5777  0.2847
   68SAPC   H5R 5736   3.935   0.574   3.392 -0.7687  0.3683 -1.8854
   68SAPC   C26 5737   3.831   0.611   3.570 -0.1621  0.0971  0.1328
   68SAPC   H6R 5738   3.932   0.625   3.613 -0.0036 -2.0489  0.5430
   68SAPC   C27 5739   3.706   0.641   3.646 -0.6963  0.5377  0.9259
   68SAPC   H7R 5740   3.708   0.574   3.735  0.0016  0.4557  0.8572
   68SAPC   H7S 5741   3.618   0.613   3.585  1.1810 -1.4354 -1.0916
   68SAPC   C28 5742   3.697   0.781   3.692 -0.6741 -0.0855 -0.1085
   68SAPC   H8R 5743   3.706   0.854   3.610  0.3558 -0.9589 -0.7957
   68SAPC   C29 5744   3.670   0.823   3.819  0.9801  0.2768 -0.0354
   68SAPC   H9R 5745   3.642   0.928   3.839 -1.0784  0.2197 -2.1943
   68SAPC  C210 5746   3.652   0.738   3.944  0.1664  1.0528 -0.3296
   68SAPC  H10R 5747   3.694   0.779   4.039  0.4960  1.4276 -0.6315
   68SAPC  H10S 5748   3.718   0.650   3.928 -1.1975  0.1233 -0.9935
   68SAPC  C211 5749   3.509   0.690   3.972 -0.1352  0.3860 -0.8068
   68SAPC  H11R 5750   3.450   0.657   3.886 -0.2352 -0.9395 -0.2550
   68SAPC  C212 5751   3.454   0.685   4.092 -0.6218 -1.0925 -0.0919
   68SAPC  H12R 5752   3.348   0.656   4.092 -0.3462 -2.2497  2.0464
   68SAPC  C213 5753   3.510   0.730   4.222  0.5978 -0.1910  0.6188
   68SAPC  H13R 5754   3.434   0.773   4.292  1.9624  0.9782  1.4448
   68SAPC  H13S 5755   3.577   0.818   4.211  1.2234 -0.9651 -2.7792
   68SAPC  C214 5756   3.593   0.626   4.291 -0.3683  0.6375  0.6310
   68SAPC  H14R 5757   3.661   0.576   4.221 -1.3462  1.5632 -1.0320
   68SAPC  C215 5758   3.603   0.598   4.421 -0.0264  0.2819  0.6552
   68SAPC  H15R 5759   3.677   0.524   4.456 -0.2175 -0.6441 -0.8104
   68SAPC  C216 5760   3.514   0.654   4.521 -0.0323 -0.5740  0.0477
   68SAPC  H16R 5761   3.424   0.700   4.474  0.8821  0.3440 -0.8562
   68SAPC  H16S 5762   3.549   0.734   4.589  0.3906 -0.7914  0.0901
   68SAPC  C217 5763   3.456   0.533   4.595  0.3018 -0.1444  0.2781
   68SAPC  H17R 5764   3.515   0.497   4.683  0.4248 -0.7677 -0.0578
   68SAPC  H17S 5765   3.437   0.451   4.523 -0.4038 -0.7885  1.1718
   68SAPC  C218 5766   3.320   0.554   4.655  0.1637 -0.0736 -0.2523
   68SAPC  H18R 5767   3.250   0.587   4.575  0.4928  0.6125 -0.2617
   68SAPC  H18S 5768   3.328   0.637   4.729 -4.0987  0.1999  0.1741
   68SAPC  C219 5769   3.262   0.436   4.734  0.0902  0.0487 -0.9500
   68SAPC  H19R 5770   3.354   0.400   4.786  0.1866 -0.1099 -1.2328
   68SAPC  H19S 5771   3.202   0.356   4.687  0.2803  0.0286 -1.1602
   68SAPC  C220 5772   3.174   0.496   4.844 -0.1598  0.3538 -0.0572
   68SAPC  H20R 5773   3.155   0.420   4.923  0.8925  0.0166 -0.1145
   68SAPC  H20S 5774   3.079   0.534   4.801  0.3427 -0.2085 -1.7151
   68SAPC  H20T 5775   3.223   0.581   4.895  2.2429 -1.3300  0.5877
   68SAPC   C33 5776   3.354   0.917   3.533 -0.7572 -0.3443  0.0582
   68SAPC   H3X 5777   3.284   1.001   3.513  0.0438  0.8573  1.8906
   68SAPC   H3Y 5778   3.454   0.966   3.545 -0.8576 -0.4152  1.3476
   68SAPC   C34 5779   3.313   0.855   3.669  0.3503 -0.2128  0.5215
   68SAPC   H4X 5780   3.375   0.766   3.692  2.2140  0.9445  0.1975
   68SAPC   H4Y 5781   3.210   0.813   3.657  0.5999 -0.7956  0.4156
   68SAPC   C35 5782   3.314   0.958   3.788  0.3160  0.0085  0.1323
   68SAPC   H5X 5783   3.409   1.015   3.788 -0.2600  0.9858 -0.8598
   68SAPC   H5Y 5784   3.306   0.892   3.878  0.4427  3.0691  2.5618
   68SAPC   C36 5785   3.204   1.062   3.788  0.3364 -0.6685  0.0075
   68SAPC   H6X 5786   3.107   1.011   3.811 -1.0207  2.0611  0.6815
   68SAPC   H6Y 5787   3.191   1.133   3.704 -1.6397 -0.5673  0.3388
   68SAPC   C37 5788   3.224   1.160   3.900 -0.8222 -0.6681 -0.5151
   68SAPC   H7X 5789   3.132   1.222   3.910  0.9765  2.1771 -0.5365
   68SAPC   H7Y 5790   3.308   1.230   3.881 -0.8743  0.4615  2.7280
   68SAPC   C38 5791   3.243   1.095   4.038  0.1927  0.6459 -0.1516
   68SAPC   H8X 5792   3.337   1.036   4.045 -0.6115 -0.4807  1.7226
   68SAPC   H8Y 5793   3.172   1.010   4.038  2.5362 -1.4297  0.1032
   68SAPC   C39 5794   3.241   1.182   4.166  0.8147 -0.2961 -0.4807
   68SAPC   H9X 5795   3.147   1.241   4.171  0.0447 -1.3855 -1.7263
   68SAPC   H9Y 5796   3.330   1.250   4.173 -0.4867  1.3929  0.5123
   68SAPC  C310 5797   3.253   1.083   4.290 -0.0229 -0.2098 -0.1071
   68SAPC  H10X 5798   3.347   1.023   4.289 -1.4090 -2.4765 -1.6120
   68SAPC  H10Y 5799   3.167   1.013   4.289 -0.3239  0.1342  0.9734
   68SAPC  C311 5800   3.244   1.141   4.429 -0.7195  0.1863 -0.9059
   68SAPC  H11X 5801   3.334   1.205   4.441 -0.1613 -0.6350 -0.6233
   68SAPC  H11Y 5802   3.257   1.045   4.485 -1.2026 -0.7981 -2.4226
   68SAPC  C312 5803   3.119   1.221   4.458  0.0401  0.1802  1.0270
   68SAPC  H12X 5804   3.031   1.161   4.430 -0.0755  0.9015 -0.2106
   68SAPC  H12Y 5805   3.127   1.311   4.393  0.4674 -1.5079 -1.3648
   68SAPC  C313 5806   3.122   1.282   4.600 -0.0348  0.8962  0.0364
   68SAPC  H13X 5807   3.225   1.319   4.617  0.8820 -1.6950  0.6022
   68SAPC  H13Y 5808   3.094   1.203   4.673  0.8937  0.9079  0.4088
   68SAPC  C314 5809   3.029   1.401   4.613  0.4297  0.0167 -0.7025
   68SAPC  H14X 5810   2.926   1.360   4.604 -0.2251  1.8265 -2.0856
   68SAPC  H14Y 5811   3.030   1.461   4.520  3.1660  1.0207 -0.1178
   68SAPC  C315 5812   3.054   1.486   4.736 -0.1850 -0.0858 -0.4710
   68SAPC  H15X 5813   3.162   1.512   4.748 -1.1001  3.5393  1.4433
   68SAPC  H15Y 5814   3.048   1.426   4.829 -3.2021  0.7509 -0.0243
   68SAPC  C316 5815   2.977   1.617   4.737  0.5542 -0.2056  0.4538
   68SAPC  H16X 5816   2.868   1.602   4.727  0.2841  1.1800  1.0232
   68SAPC  H16Y 5817   3.023   1.684   4.662  0.7028 -0.3487  0.4173
   68SAPC  C317 5818   3.012   1.692   4.860  0.1752 -0.4133  0.0965
   68SAPC  H17X 5819   3.111   1.740   4.848  0.0376 -0.6857 -2.5643
   68SAPC  H17Y 5820   3.025   1.624   4.947  2.2573 -0.2181 -0.0061
   68SAPC  C318 5821   2.900   1.792   4.886  0.5382 -0.3492 -0.0846
   68SAPC  H18X 5822   2.949   1.873   4.944  0.4573 -0.6736  0.4516
   68SAPC  H18Y 5823   2.809   1.754   4.938 -0.6731 -1.7312 -2.9807
   68SAPC  H18Z 5824   2.876   1.817   4.781  1.9279  0.5141 -0.2115
   69SAPC     N 5825   3.511   5.305   3.088 -0.2985  0.1949  0.4539
   69SAPC   C12 5826   3.415   5.215   3.154  0.2078 -0.0993  0.2091
   69SAPC  H12A 5827   3.451   5.113   3.143  0.8166  0.3257 -2.5094
   69SAPC  H12B 5828   3.316   5.215   3.112 -0.1274  0.2460  0.9807
   69SAPC   C13 5829   3.652   5.275   3.129 -0.0067  0.1550  0.0561
   69SAPC  H13A 5830   3.655   5.250   3.234  0.2134 -1.0188 -0.2105
   69SAPC  H13B 5831   3.708   5.206   3.067  0.4101 -0.4833  1.1202
   69SAPC  H13C 5832   3.709   5.366   3.122  2.8337 -1.5703 -0.9351
   69SAPC   C14 5833   3.509   5.284   2.935 -0.3486 -0.3923 -0.2362
   69SAPC  H14A 5834   3.532   5.181   2.913  0.2730 -0.1307 -0.8628
   69SAPC  H14B 5835   3.411   5.316   2.902 -0.5184  0.5705  1.1303
   69SAPC  H14C 5836   3.576   5.347   2.878  0.7216 -2.0538 -0.8835
   69SAPC   C15 5837   3.470   5.441   3.109  0.5907  0.0884  0.6639
   69SAPC  H15A 5838   3.540   5.519   3.084 -0.0660 -0.1254 -2.1011
   69SAPC  H15B 5839   3.372   5.458   3.067  1.8528  0.7858 -2.1906
   69SAPC  H15C 5840   3.465   5.452   3.217 -1.0508  0.6917  0.5593
   69SAPC   C11 5841   3.385   5.223   3.312 -1.0158 -0.2901 -0.5234
   69SAPC  H11A 5842   3.485   5.196   3.353 -0.9832  0.1537 -0.3028
   69SAPC  H11B 5843   3.315   5.144   3.345  0.5551 -0.7633  1.9424
   69SAPC     P 5844   3.204   5.388   3.359  0.1003 -0.0874  0.1249
   69SAPC   O13 5845   3.213   5.530   3.317 -0.2379 -0.5519 -0.7192
   69SAPC   O14 5846   3.126   5.303   3.267  0.5399 -0.6464  0.3285
   69SAPC   O12 5847   3.356   5.347   3.366  0.1896  0.0289  0.5203
   69SAPC   O11 5848   3.147   5.372   3.505  0.0620 -0.1544 -0.5508
   69SAPC    C1 5849   3.227   5.399   3.619  0.1182  0.1212 -0.3805
   69SAPC    HA 5850   3.294   5.487   3.605 -0.3177  0.4667 -0.3278
   69SAPC    HB 5851   3.157   5.440   3.696  1.2245  0.2603  0.5837
   69SAPC    C2 5852   3.301   5.274   3.680 -0.1919 -0.3400  0.1302
   69SAPC    HS 5853   3.347   5.220   3.594  0.5557  2.5953 -1.4341
   69SAPC   O21 5854   3.217   5.183   3.761  0.1207 -0.3298 -0.1481
   69SAPC   C21 5855   3.140   5.095   3.701  0.3801 -0.2098  0.0084
   69SAPC   O22 5856   3.132   5.072   3.581  0.3258 -0.1489  0.2649
   69SAPC   C22 5857   3.045   5.043   3.806  0.7271 -1.0266 -0.3490
   69SAPC   H2R 5858   3.099   5.002   3.894  0.6810 -0.0641  0.1453
   69SAPC   H2S 5859   2.990   5.133   3.841  0.7149 -0.8287 -0.8618
   69SAPC    C3 5860   3.416   5.318   3.773 -0.1202  0.0583 -0.4051
   69SAPC    HX 5861   3.489   5.370   3.706 -0.1555  3.0160  1.6763
   69SAPC    HY 5862   3.465   5.224   3.806 -1.6994 -0.2984  1.0604
   69SAPC   O31 5863   3.368   5.405   3.879 -0.2213  0.2551  0.6986
   69SAPC   C31 5864   3.376   5.345   4.000  0.1902 -0.2185  0.9112
   69SAPC   O32 5865   3.405   5.228   4.022  0.3343 -0.2871 -0.2825
   69SAPC   C32 5866   3.354   5.460   4.099 -0.1283  0.4851 -0.3432
   69SAPC   H2X 5867   3.263   5.514   4.067  0.7690  1.5843 -1.0997
   69SAPC   H2Y 5868   3.443   5.526   4.094 -0.5731  1.0254 -1.6709
   69SAPC   C23 5869   2.952   4.939   3.741  0.0646  0.0755  0.0018
   69SAPC   H3R 5870   3.003   4.860   3.682  1.1515  0.2327  0.6958
   69SAPC   H3S 5871   2.877   4.994   3.680 -1.8053  1.9084  3.6425
   69SAPC   C24 5872   2.888   4.859   3.854 -0.4221  0.0695  0.2777
   69SAPC   H4R 5873   2.964   4.827   3.928 -0.8609 -2.3583 -0.2211
   69SAPC   H4S 5874   2.840   4.771   3.805 -1.1349 -0.1161  1.2620
   69SAPC   C25 5875   2.777   4.937   3.916 -0.6746 -0.1760 -0.0378
   69SAPC   H5R 5876   2.723   5.008   3.852 -0.4042  0.7383  0.7228
   69SAPC   C26 5877   2.735   4.918   4.042  0.6599 -0.2164 -0.0999
   69SAPC   H6R 5878   2.646   4.969   4.079 -0.1541  0.0723 -2.3234
   69SAPC   C27 5879   2.787   4.813   4.148 -0.2582 -0.1735 -0.0630
   69SAPC   H7R 5880   2.790   4.877   4.239 -0.4205  1.6634 -1.2851
   69SAPC   H7S 5881   2.895   4.789   4.133 -0.3571 -0.8034  0.2338
   69SAPC   C28 5882   2.707   4.690   4.165  0.8313 -1.0037 -0.1080
   69SAPC   H8R 5883   2.743   4.598   4.115  0.1957 -1.9218  1.0568
   69SAPC   C29 5884   2.603   4.680   4.252 -0.4057 -0.2479  0.4186
   69SAPC   H9R 5885   2.543   4.589   4.242  0.1338 -0.4297 -1.4943
   69SAPC  C210 5886   2.558   4.796   4.342  0.6975 -0.2678  0.0412
   69SAPC  H10R 5887   2.450   4.811   4.323  0.4902  0.7628  1.8442
   69SAPC  H10S 5888   2.609   4.893   4.324 -1.5826  0.8781 -0.5054
   69SAPC  C211 5889   2.578   4.770   4.488 -0.5124  0.0477 -0.3998
   69SAPC  H11R 5890   2.676   4.804   4.524 -0.7717 -2.0094  2.5869
   69SAPC  C212 5891   2.497   4.714   4.573 -0.1076  0.9733  0.3813
   69SAPC  H12R 5892   2.538   4.700   4.675  1.2562 -1.6467 -0.4478
   69SAPC  C213 5893   2.356   4.659   4.556 -0.8075 -0.0885 -0.5029
   69SAPC  H13R 5894   2.282   4.741   4.566 -0.4297  0.0958  1.1766
   69SAPC  H13S 5895   2.336   4.585   4.637 -2.7829  0.2680 -0.6367
   69SAPC  C214 5896   2.345   4.565   4.437 -0.0483  0.0701 -0.2314
   69SAPC  H14R 5897   2.438   4.511   4.416 -1.0278 -0.8923 -2.3592
   69SAPC  C215 5898   2.235   4.551   4.362  0.0465 -0.7235  0.0837
   69SAPC  H15R 5899   2.230   4.475   4.282 -2.5662 -1.2440  0.6439
   69SAPC  C216 5900   2.100   4.621   4.365 -0.0678  0.7249  0.7156
   69SAPC  H16R 5901   2.075   4.678   4.457 -1.5349 -3.2928  3.0580
   69SAPC  H16S 5902   2.031   4.535   4.353  0.2624  0.5656 -0.1627
   69SAPC  C217 5903   2.074   4.701   4.236 -1.1461  0.1787  0.3384
   69SAPC  H17R 5904   2.142   4.789   4.228  1.0911 -1.4706  0.1934
   69SAPC  H17S 5905   1.978   4.754   4.252  0.3619  2.9290  0.8093
   69SAPC  C218 5906   2.086   4.626   4.094 -0.3893  0.1608  0.4960
   69SAPC  H18R 5907   2.020   4.537   4.096 -0.4194  0.1039 -1.4010
   69SAPC  H18S 5908   2.190   4.592   4.078 -0.2146  1.7297 -2.3747
   69SAPC  C219 5909   2.049   4.711   3.970  0.9180  1.0393  0.1413
   69SAPC  H19R 5910   2.117   4.798   3.973 -0.9954  2.6118  0.1584
   69SAPC  H19S 5911   1.942   4.743   3.964  1.4398  2.7663 -0.3690
   69SAPC  C220 5912   2.069   4.630   3.849 -0.4170 -0.1896 -0.3362
   69SAPC  H20R 5913   2.018   4.677   3.762 -1.9230  3.2610  2.2071
   69SAPC  H20S 5914   2.043   4.523   3.855 -1.1190 -0.0621 -0.9547
   69SAPC  H20T 5915   2.179   4.625   3.829 -0.7155  0.5283 -2.4091
   69SAPC   C33 5916   3.321   5.398   4.243  0.0787  0.5866  0.2036
   69SAPC   H3X 5917   3.401   5.328   4.275 -0.5137  0.1925  0.8472
   69SAPC   H3Y 5918   3.226   5.343   4.229 -0.0086  1.2500 -2.1514
   69SAPC   C34 5919   3.306   5.512   4.345 -0.2056  0.2562 -0.0865
   69SAPC   H4X 5920   3.217   5.576   4.325 -1.1659 -0.8092  0.6904
   69SAPC   H4Y 5921   3.395   5.579   4.332 -0.2086  0.7685  2.1509
   69SAPC   C35 5922   3.303   5.457   4.483  0.1989  0.3918 -0.5037
   69SAPC   H5X 5923   3.378   5.376   4.491  0.2961  0.5899  0.9151
   69SAPC   H5Y 5924   3.206   5.412   4.515  0.4221  1.5351  2.0270
   69SAPC   C36 5925   3.331   5.555   4.602 -0.3673 -0.0687 -0.7725
   69SAPC   H6X 5926   3.240   5.616   4.623 -0.4925 -0.5079 -0.0130
   69SAPC   H6Y 5927   3.407   5.635   4.590  0.7054 -0.8138  0.7123
   69SAPC   C37 5928   3.359   5.483   4.729  0.2117  0.6918 -0.4339
   69SAPC   H7X 5929   3.423   5.394   4.714 -0.5926  0.1050 -0.4535
   69SAPC   H7Y 5930   3.262   5.439   4.762 -1.1167  2.9580 -1.0184
   69SAPC   C38 5931   3.418   5.575   4.840 -0.5587  0.3717  1.4019
   69SAPC   H8X 5932   3.346   5.660   4.841 -0.5937  0.5898 -2.3667
   69SAPC   H8Y 5933   3.513   5.622   4.804 -0.3367 -2.4840 -2.3506
   69SAPC   C39 5934   3.440   5.511   4.975  0.4411  0.3302 -0.0025
   69SAPC   H9X 5935   3.533   5.450   4.979  0.0585 -0.1710  1.7313
   69SAPC   H9Y 5936   3.353   5.447   5.000 -1.4789  3.1018  0.9061
   69SAPC  C310 5937   3.445   5.613   5.094  0.0457 -0.0073 -0.4804
   69SAPC  H10X 5938   3.388   5.695   5.046  1.2587  0.9866 -0.2714
   69SAPC  H10Y 5939   3.547   5.648   5.122  0.2811  1.9709 -3.3488
   69SAPC  C311 5940   3.374   5.559   5.216  0.1649 -0.4531  0.1846
   69SAPC  H11X 5941   3.438   5.476   5.254  0.1038 -0.4182  0.3666
   69SAPC  H11Y 5942   3.272   5.525   5.190 -1.1354  0.9343  2.9861
   69SAPC  C312 5943   3.355   5.659   5.331  0.1162  0.3563  0.0020
   69SAPC  H12X 5944   3.300   5.749   5.297  3.2235  2.2151 -0.5306
   69SAPC  H12Y 5945   3.459   5.689   5.356 -0.0433  1.1329 -0.2473
   69SAPC  C313 5946   3.279   5.600   5.448  0.3241  0.3433 -1.0495
   69SAPC  H13X 5947   3.269   5.493   5.420  1.2230 -0.2525  0.7284
   69SAPC  H13Y 5948   3.175   5.641   5.444  0.2932  0.3852 -0.1071
   69SAPC  C314 5949   3.336   5.638   5.587  0.2552  0.3034 -0.2924
   69SAPC  H14X 5950   3.308   5.742   5.614 -0.4467 -0.0550  0.4238
   69SAPC  H14Y 5951   3.447   5.642   5.594  0.4777 -2.4491 -0.9664
   69SAPC  C315 5952   3.276   5.551   5.696  0.5997  0.5066  0.7197
   69SAPC  H15X 5953   3.330   5.456   5.676 -0.3315  0.3850 -1.4618
   69SAPC  H15Y 5954   3.170   5.526   5.676  0.9550  0.9082 -2.0589
   69SAPC  C316 5955   3.296   5.601   5.847  0.0836 -0.9479  0.2977
   69SAPC  H16X 5956   3.403   5.623   5.868 -0.3762  1.3175  0.5486
   69SAPC  H16Y 5957   3.276   5.514   5.913  0.5238  0.5292  2.4991
   69SAPC  C317 5958   3.206   5.721   5.884 -0.3654  0.4722  0.2808
   69SAPC  H17X 5959   3.102   5.699   5.852  0.1426  2.2584 -3.1302
   69SAPC  H17Y 5960   3.252   5.799   5.819 -0.8019 -1.3300 -2.3425
   69SAPC  C318 5961   3.210   5.753   6.031 -0.4369  0.2826  0.4109
   69SAPC  H18X 5962   3.182   5.677   6.107 -0.0746  1.0187  1.3082
   69SAPC  H18Y 5963   3.136   5.835   6.048  0.4538  1.1333  0.2652
   69SAPC  H18Z 5964   3.311   5.797   6.044 -1.1664  1.7668  1.3300
   70SAPC     N 5965   5.014   2.019   2.730  0.2310 -0.0280  0.2504
   70SAPC   C12 5966   4.954   1.981   2.862 -0.7089  0.6600  0.3247
   70SAPC  H12A 5967   5.037   1.943   2.921 -1.1753 -3.3612 -1.3196
   70SAPC  H12B 5968   4.880   1.904   2.848 -0.4362  0.7702 -2.1744
   70SAPC   C13 5969   5.073   1.901   2.661 -0.3833 -0.4132 -0.2422
   70SAPC  H13A 5970   4.996   1.832   2.629  0.3144 -0.4736 -1.8899
   70SAPC  H13B 5971   5.140   1.943   2.588  0.7182 -0.4392  0.7324
   70SAPC  H13C 5972   5.138   1.849   2.729 -0.8480  0.1086  0.6192
   70SAPC   C14 5973   4.905   2.069   2.639 -0.9280  0.4295 -0.8226
   70SAPC  H14A 5974   4.865   2.159   2.682  0.6986  1.0062 -0.4786
   70SAPC  H14B 5975   4.950   2.083   2.542  1.8329 -0.3487  0.2420
   70SAPC  H14C 5976   4.837   1.986   2.624  1.5035 -1.6378 -1.0910
   70SAPC   C15 5977   5.113   2.132   2.744 -0.0304 -0.3409 -0.4952
   70SAPC  H15A 5978   5.145   2.156   2.644  0.1754  0.3902 -0.2611
   70SAPC  H15B 5979   5.062   2.209   2.799 -1.0745 -2.6281  1.9685
   70SAPC  H15C 5980   5.192   2.088   2.803 -1.0915 -1.5728  0.0527
   70SAPC   C11 5981   4.889   2.088   2.945  0.3159 -0.4212 -0.0930
   70SAPC  H11A 5982   4.853   2.038   3.038  1.5258 -1.2151 -0.0251
   70SAPC  H11B 5983   4.799   2.131   2.896  1.3833  3.3415  0.8697
   70SAPC     P 5984   5.058   2.196   3.129 -0.1632 -0.1414 -0.4578
   70SAPC   O13 5985   5.112   2.059   3.164  0.1410  0.0056 -0.1088
   70SAPC   O14 5986   5.161   2.307   3.138  0.2635  0.7317  0.5178
   70SAPC   O12 5987   4.979   2.197   2.985  0.7152  0.0976  0.2258
   70SAPC   O11 5988   4.935   2.222   3.231  0.2270  0.0715 -0.0948
   70SAPC    C1 5989   4.897   2.362   3.248  0.2872 -0.0252 -0.6271
   70SAPC    HA 5990   4.983   2.431   3.248  0.6199 -0.4362 -1.1791
   70SAPC    HB 5991   4.833   2.393   3.162 -1.0117  1.1925  0.7085
   70SAPC    C2 5992   4.817   2.393   3.377  0.2720  0.4306 -0.0662
   70SAPC    HS 5993   4.857   2.489   3.416  1.2883 -0.1257  0.3002
   70SAPC   O21 5994   4.828   2.292   3.473 -0.0285  0.3751  0.2051
   70SAPC   C21 5995   4.951   2.294   3.545  0.4767  0.4501 -0.0059
   70SAPC   O22 5996   5.042   2.371   3.514  0.1286  0.2332 -0.8918
   70SAPC   C22 5997   4.941   2.193   3.658 -0.4740 -0.6549  0.0672
   70SAPC   H2R 5998   4.847   2.212   3.714  0.2331 -1.3033  1.5264
   70SAPC   H2S 5999   4.952   2.096   3.606 -0.7697 -0.5510 -0.1933
   70SAPC    C3 6000   4.666   2.415   3.353 -0.4485 -0.1010  0.0357
   70SAPC    HX 6001   4.623   2.315   3.329 -2.1382  0.1283  1.8072
   70SAPC    HY 6002   4.648   2.484   3.268  0.6818  1.2330  0.8409
   70SAPC   O31 6003   4.591   2.456   3.473 -0.1935  0.0611 -0.8934
   70SAPC   C31 6004   4.508   2.564   3.457 -0.7569 -0.0110 -0.0325
   70SAPC   O32 6005   4.468   2.602   3.349  0.5442 -0.1988  0.2820
   70SAPC   C32 6006   4.479   2.624   3.594  0.1857 -0.3347  0.1081
   70SAPC   H2X 6007   4.530   2.723   3.593  2.0608 -1.2549 -0.6654
   70SAPC   H2Y 6008   4.524   2.560   3.674  0.5562  0.4752  0.5594
   70SAPC   C23 6009   5.066   2.197   3.743  0.0849 -0.8542  0.0983
   70SAPC   H3R 6010   5.073   2.285   3.810 -1.3602  0.1658 -1.0262
   70SAPC   H3S 6011   5.145   2.208   3.666  0.5390  0.9142  0.7764
   70SAPC   C24 6012   5.078   2.069   3.824 -0.2929 -0.0043 -0.0905
   70SAPC   H4R 6013   5.101   1.988   3.751 -2.3694  0.5984 -1.5247
   70SAPC   H4S 6014   4.979   2.040   3.866  0.8471 -1.0748  2.0149
   70SAPC   C25 6015   5.177   2.077   3.937  0.6186  0.3595  0.0486
   70SAPC   H5R 6016   5.280   2.110   3.918 -0.5602  3.2653 -2.0380
   70SAPC   C26 6017   5.140   2.072   4.067  0.2514  0.1221  0.4240
   70SAPC   H6R 6018   5.217   2.097   4.141 -0.5293 -0.2623  1.3903
   70SAPC   C27 6019   5.004   2.051   4.120 -0.0193  0.3865  0.3420
   70SAPC   H7R 6020   4.972   1.948   4.096  2.0624 -0.0553 -0.7061
   70SAPC   H7S 6021   4.931   2.119   4.071 -0.4557 -1.0107 -0.9990
   70SAPC   C28 6022   5.002   2.065   4.271 -0.6073  0.1386  0.3019
   70SAPC   H8R 6023   4.978   2.164   4.314  0.0950  0.6612 -0.4711
   70SAPC   C29 6024   5.052   1.979   4.352 -0.1680  0.1866  0.5613
   70SAPC   H9R 6025   5.038   2.001   4.459  1.6669 -0.1032  0.8901
   70SAPC  C210 6026   5.124   1.848   4.317 -0.1426 -0.7592 -0.4067
   70SAPC  H10R 6027   5.234   1.856   4.324 -0.0600 -2.3838  0.7154
   70SAPC  H10S 6028   5.095   1.798   4.222 -0.3372 -0.2837 -0.6054
   70SAPC  C211 6029   5.086   1.741   4.417 -0.5227 -0.7200 -1.1595
   70SAPC  H11R 6030   5.002   1.678   4.383 -0.6253  0.0973 -2.4654
   70SAPC  C212 6031   5.137   1.722   4.541 -0.4114  0.2368 -0.7288
   70SAPC  H12R 6032   5.115   1.628   4.594 -1.1238  1.1914  0.7669
   70SAPC  C213 6033   5.250   1.802   4.604  0.2374  0.6017  0.3158
   70SAPC  H13R 6034   5.231   1.812   4.713  3.1180 -1.9640  1.1955
   70SAPC  H13S 6035   5.250   1.904   4.560  0.3390  0.9445  1.1082
   70SAPC  C214 6036   5.379   1.732   4.569 -0.3666 -0.0085 -0.8391
   70SAPC  H14R 6037   5.427   1.770   4.477  1.2245 -1.4114 -0.6399
   70SAPC  C215 6038   5.433   1.623   4.636 -0.0277 -0.1800 -0.0466
   70SAPC  H15R 6039   5.529   1.582   4.599 -0.0509 -3.1620  2.7317
   70SAPC  C216 6040   5.368   1.550   4.756 -0.1949  0.4430  0.0118
   70SAPC  H16R 6041   5.291   1.615   4.804  1.1212  1.3200  1.0095
   70SAPC  H16S 6042   5.442   1.541   4.838  0.3693 -0.1167 -0.5487
   70SAPC  C217 6043   5.322   1.409   4.710  0.5538  0.6792  0.0450
   70SAPC  H17R 6044   5.390   1.361   4.637 -1.1746 -0.1613 -1.0890
   70SAPC  H17S 6045   5.225   1.429   4.660 -0.5993 -0.4646  1.7027
   70SAPC  C218 6046   5.273   1.316   4.822  0.0794 -0.5931 -0.5261
   70SAPC  H18R 6047   5.182   1.364   4.864  1.5696  1.3355  0.7102
   70SAPC  H18S 6048   5.347   1.312   4.905  0.2596 -0.8569 -0.7000
   70SAPC  C219 6049   5.250   1.164   4.788 -0.8012 -0.4936 -1.0329
   70SAPC  H19R 6050   5.172   1.148   4.711 -0.9263 -2.7607 -0.5211
   70SAPC  H19S 6051   5.239   1.122   4.891  1.2322  1.4488  0.0555
   70SAPC  C220 6052   5.377   1.096   4.733  0.2452 -0.6722 -0.3403
   70SAPC  H20R 6053   5.398   1.133   4.631 -0.0668 -0.6595 -0.4010
   70SAPC  H20S 6054   5.358   0.986   4.732 -0.8680 -0.6503  3.1359
   70SAPC  H20T 6055   5.462   1.117   4.802 -1.1901  0.4472  1.1738
   70SAPC   C33 6056   4.327   2.648   3.623 -0.1272  0.5277  0.7481
   70SAPC   H3X 6057   4.268   2.555   3.637 -1.0044  0.9101 -0.3084
   70SAPC   H3Y 6058   4.287   2.701   3.535 -1.1609  1.0476  1.5151
   70SAPC   C34 6059   4.304   2.740   3.747  0.1462 -0.7857  1.0645
   70SAPC   H4X 6060   4.196   2.767   3.752  0.2588  0.6454 -1.9357
   70SAPC   H4Y 6061   4.360   2.834   3.730 -0.9318 -0.5851 -2.1911
   70SAPC   C35 6062   4.350   2.669   3.878  0.0999 -0.3559 -0.1208
   70SAPC   H5X 6063   4.343   2.742   3.961  0.8340 -2.5227  1.9998
   70SAPC   H5Y 6064   4.461   2.667   3.876  0.2937  2.7965  1.4108
   70SAPC   C36 6065   4.287   2.540   3.907 -1.0660  0.1864  0.0013
   70SAPC   H6X 6066   4.332   2.455   3.850 -1.6853 -0.9829  1.2045
   70SAPC   H6Y 6067   4.176   2.540   3.892 -1.2871  2.1477  1.3399
   70SAPC   C37 6068   4.317   2.482   4.044 -0.3839  0.0911  0.4985
   70SAPC   H7X 6069   4.259   2.388   4.053 -0.3174  0.0285  0.2653
   70SAPC   H7Y 6070   4.427   2.467   4.052 -0.5552 -1.2593  0.5252
   70SAPC   C38 6071   4.277   2.568   4.169 -0.1696  0.2393  0.9274
   70SAPC   H8X 6072   4.167   2.585   4.160 -0.2412 -0.7358 -0.2890
   70SAPC   H8Y 6073   4.330   2.666   4.157  0.8830 -0.0624  2.7303
   70SAPC   C39 6074   4.307   2.503   4.301 -0.0620  0.2721  0.6746
   70SAPC   H9X 6075   4.416   2.480   4.298 -0.4029 -1.4103 -0.7831
   70SAPC   H9Y 6076   4.253   2.409   4.328 -1.6618  0.6957 -0.8359
   70SAPC  C310 6077   4.284   2.601   4.420 -0.2597 -0.3176 -0.1798
   70SAPC  H10X 6078   4.175   2.620   4.434 -0.2862  1.0441 -1.9264
   70SAPC  H10Y 6079   4.328   2.698   4.388  0.6327 -1.0473 -1.2402
   70SAPC  C311 6080   4.338   2.569   4.556  0.7260 -0.5665  0.4989
   70SAPC  H11X 6081   4.447   2.586   4.568  1.0178 -1.7962 -0.2217
   70SAPC  H11Y 6082   4.315   2.466   4.591 -0.2820 -0.1984  0.9557
   70SAPC  C312 6083   4.264   2.654   4.665  0.6654  0.0261  0.1607
   70SAPC  H12X 6084   4.163   2.608   4.677  0.9547 -0.8951 -0.8086
   70SAPC  H12Y 6085   4.243   2.756   4.627 -0.7458 -0.1287  0.4619
   70SAPC  C313 6086   4.340   2.648   4.795  0.2725 -0.3764  0.3496
   70SAPC  H13X 6087   4.446   2.676   4.779  0.6605 -1.1956  1.3583
   70SAPC  H13Y 6088   4.344   2.545   4.837  1.1077  0.1552  1.6133
   70SAPC  C314 6089   4.284   2.738   4.904  0.0291 -0.0969 -0.0302
   70SAPC  H14X 6090   4.179   2.703   4.914 -0.2542  0.4337 -0.9708
   70SAPC  H14Y 6091   4.281   2.841   4.862 -0.0044  0.6531  1.7273
   70SAPC  C315 6092   4.349   2.737   5.041 -0.6556  0.5369  0.1474
   70SAPC  H15X 6093   4.330   2.642   5.096  0.2083  0.9420  1.1932
   70SAPC  H15Y 6094   4.305   2.812   5.111 -1.2851 -1.2182  1.7152
   70SAPC  C316 6095   4.496   2.780   5.041 -0.3834  0.2824 -0.1556
   70SAPC  H16X 6096   4.508   2.885   5.005  0.0236  1.1726  2.3579
   70SAPC  H16Y 6097   4.560   2.719   4.974 -0.6289 -1.3585  1.0582
   70SAPC  C317 6098   4.566   2.774   5.179  0.1300  0.8422  0.0575
   70SAPC  H17X 6099   4.536   2.866   5.234  3.0735  1.7130  0.3740
   70SAPC  H17Y 6100   4.674   2.789   5.158  0.7638 -0.9467  1.7837
   70SAPC  C318 6101   4.556   2.647   5.262 -0.0770  0.5761  0.0879
   70SAPC  H18X 6102   4.452   2.615   5.284 -0.4170  1.6720  0.1598
   70SAPC  H18Y 6103   4.607   2.658   5.360  0.0281 -2.7263  0.5056
   70SAPC  H18Z 6104   4.619   2.571   5.211 -1.1120 -0.1135 -0.1959
   71SAPC     N 6105   3.980   1.126   2.858  0.2807 -0.0030 -0.5717
   71SAPC   C12 6106   4.102   1.055   2.820  0.2952 -0.1205  0.9313
   71SAPC  H12A 6107   4.105   1.054   2.712  1.5113 -2.2059  0.9310
   71SAPC  H12B 6108   4.089   0.951   2.845 -3.3677 -0.4981 -1.6695
   71SAPC   C13 6109   3.864   1.070   2.786  0.1138  0.5360 -0.2312
   71SAPC  H13A 6110   3.882   1.071   2.679 -1.5348 -1.1870 -0.5722
   71SAPC  H13B 6111   3.861   0.963   2.805 -0.3666  0.1131 -2.4086
   71SAPC  H13C 6112   3.768   1.109   2.816 -0.3163 -0.2192 -0.5914
   71SAPC   C14 6113   3.957   1.103   3.000  0.2973  0.4243  0.8111
   71SAPC  H14A 6114   4.038   1.158   3.046  0.0685  1.8422 -0.3985
   71SAPC  H14B 6115   3.868   1.153   3.033 -0.3174 -0.2513  0.2064
   71SAPC  H14C 6116   3.961   0.999   3.027 -2.4083  0.2003  0.5814
   71SAPC   C15 6117   3.987   1.271   2.827 -0.6718 -0.4608 -0.7846
   71SAPC  H15A 6118   4.007   1.287   2.722 -0.0464 -0.2321 -0.6365
   71SAPC  H15B 6119   3.906   1.336   2.858 -0.3232 -0.9316  1.1914
   71SAPC  H15C 6120   4.076   1.299   2.881 -0.4148 -1.0891 -0.8734
   71SAPC   C11 6121   4.232   1.115   2.879 -0.9186  0.2754 -0.3434
   71SAPC  H11A 6122   4.244   1.213   2.827 -3.7745  0.9501  0.1301
   71SAPC  H11B 6123   4.311   1.040   2.859 -1.3565 -0.3361  0.1723
   71SAPC     P 6124   4.307   1.241   3.096 -0.1123 -0.1688  0.1310
   71SAPC   O13 6125   4.416   1.288   3.008 -0.1440 -0.1842  0.2352
   71SAPC   O14 6126   4.204   1.344   3.139 -0.2976  0.6520  0.1173
   71SAPC   O12 6127   4.221   1.127   3.021  0.8459  0.5003 -0.2461
   71SAPC   O11 6128   4.365   1.170   3.220  0.1739  0.0575  0.1060
   71SAPC    C1 6129   4.301   1.063   3.273  0.6747 -0.2200  0.0652
   71SAPC    HA 6130   4.192   1.054   3.249  0.5358 -0.9027  0.9019
   71SAPC    HB 6131   4.354   0.969   3.246  1.0407 -0.5597  1.8813
   71SAPC    C2 6132   4.309   1.078   3.426 -0.9062 -0.0785  0.4687
   71SAPC    HS 6133   4.237   1.003   3.466 -0.5668 -0.4678  0.3545
   71SAPC   O21 6134   4.286   1.215   3.472 -0.0573 -0.6209  0.0642
   71SAPC   C21 6135   4.213   1.233   3.579  0.2945 -0.5944  0.2346
   71SAPC   O22 6136   4.149   1.143   3.638 -0.0846 -0.5024 -0.6205
   71SAPC   C22 6137   4.213   1.379   3.610 -0.3762 -0.4103 -0.3786
   71SAPC   H2R 6138   4.314   1.421   3.628 -0.1187 -1.1891  0.0095
   71SAPC   H2S 6139   4.174   1.433   3.520  0.7310  0.4628 -0.3580
   71SAPC    C3 6140   4.453   1.052   3.485 -0.5740  0.9509  0.2914
   71SAPC    HX 6141   4.518   1.131   3.440  0.3501 -0.1936 -0.4532
   71SAPC    HY 6142   4.484   0.950   3.453  0.1547  0.5945  2.0252
   71SAPC   O31 6143   4.458   1.057   3.632 -0.2457 -0.0561 -0.4236
   71SAPC   C31 6144   4.580   1.044   3.683  1.0930  0.6352 -0.5785
   71SAPC   O32 6145   4.678   1.045   3.615  0.2019  0.2337 -0.7493
   71SAPC   C32 6146   4.579   1.044   3.841  0.5209  0.4813 -0.6411
   71SAPC   H2X 6147   4.524   0.954   3.877 -0.0057  0.8280 -0.5600
   71SAPC   H2Y 6148   4.527   1.133   3.882 -1.9400 -0.7526 -0.8997
   71SAPC   C23 6149   4.118   1.418   3.733 -0.1701  0.2905 -0.2081
   71SAPC   H3R 6150   4.017   1.379   3.711 -0.2248  0.0520  0.4484
   71SAPC   H3S 6151   4.103   1.527   3.753  1.8239  0.5662  0.0328
   71SAPC   C24 6152   4.175   1.353   3.862 -0.1200  0.1327 -0.4662
   71SAPC   H4R 6153   4.209   1.248   3.853 -1.3445 -0.4120  0.8819
   71SAPC   H4S 6154   4.087   1.345   3.929  0.3292 -0.7862  0.0243
   71SAPC   C25 6155   4.292   1.432   3.920  0.0053 -0.9341  1.0346
   71SAPC   H5R 6156   4.353   1.480   3.841 -0.2564 -0.4241  1.1349
   71SAPC   C26 6157   4.342   1.435   4.044  0.6009  0.4024  0.9039
   71SAPC   H6R 6158   4.417   1.511   4.072  1.3983  0.2765 -0.7845
   71SAPC   C27 6159   4.287   1.366   4.162  0.4290  0.3769  0.0904
   71SAPC   H7R 6160   4.371   1.300   4.193  0.0379  0.4102  1.2497
   71SAPC   H7S 6161   4.206   1.292   4.143  0.6976 -0.7609  2.8925
   71SAPC   C28 6162   4.252   1.444   4.288  0.0044  0.3492  0.0626
   71SAPC   H8R 6163   4.211   1.545   4.273 -0.1952  0.4009  0.8746
   71SAPC   C29 6164   4.263   1.393   4.411  0.2596  0.9941 -0.4562
   71SAPC   H9R 6165   4.213   1.446   4.493 -0.8566 -0.3581 -0.2098
   71SAPC  C210 6166   4.298   1.252   4.457 -0.0784  0.3761 -0.9430
   71SAPC  H10R 6167   4.337   1.195   4.370  1.3386 -0.6037  0.2808
   71SAPC  H10S 6168   4.202   1.202   4.482  0.9157 -1.4533 -0.5819
   71SAPC  C211 6169   4.388   1.236   4.572  0.0696 -0.4608 -0.1660
   71SAPC  H11R 6170   4.491   1.227   4.534 -0.2995 -1.8281 -0.9138
   71SAPC  C212 6171   4.362   1.237   4.705 -0.2119 -0.3896 -0.1490
   71SAPC  H12R 6172   4.446   1.229   4.775 -0.3594  0.8152  0.1896
   71SAPC  C213 6173   4.224   1.251   4.770  0.1336 -0.2096 -0.3711
   71SAPC  H13R 6174   4.184   1.147   4.771 -0.2115 -0.1281  2.6325
   71SAPC  H13S 6175   4.153   1.317   4.716  0.6130  0.9978  0.4258
   71SAPC  C214 6176   4.241   1.294   4.916 -0.0892  0.0494  0.2971
   71SAPC  H14R 6177   4.270   1.400   4.928 -1.5876  0.6324 -0.9344
   71SAPC  C215 6178   4.233   1.217   5.025 -0.3461  0.7522  0.1726
   71SAPC  H15R 6179   4.252   1.273   5.118 -3.9205  1.2221  0.7362
   71SAPC  C216 6180   4.192   1.071   5.032 -0.6473  0.4249  0.3312
   71SAPC  H16R 6181   4.200   1.016   4.936 -1.4705  0.1912  0.3849
   71SAPC  H16S 6182   4.089   1.054   5.070 -0.1401  0.6003  1.8776
   71SAPC  C217 6183   4.281   1.015   5.145  0.4461  0.1283  1.7608
   71SAPC  H17R 6184   4.383   1.054   5.127  0.2100  0.1167  0.2982
   71SAPC  H17S 6185   4.288   0.904   5.144 -1.7449 -0.0633 -0.0930
   71SAPC  C218 6186   4.241   1.051   5.289  0.5953 -0.4913 -0.1399
   71SAPC  H18R 6187   4.216   1.158   5.302  0.4241 -0.4449 -0.8073
   71SAPC  H18S 6188   4.318   1.011   5.358 -0.4450 -0.7421  0.9036
   71SAPC  C219 6189   4.105   0.990   5.327 -0.3995  0.2799  0.8288
   71SAPC  H19R 6190   4.127   0.881   5.324  3.5564  0.8948  1.8731
   71SAPC  H19S 6191   4.016   1.006   5.263 -0.0850  1.4861  0.6845
   71SAPC  C220 6192   4.071   1.019   5.479 -0.1894 -0.3493 -0.3284
   71SAPC  H20R 6193   4.150   0.969   5.539 -2.0708 -2.4448  0.5334
   71SAPC  H20S 6194   3.972   0.976   5.506 -1.6185  2.0174 -1.4734
   71SAPC  H20T 6195   4.081   1.127   5.503  0.8749 -0.1439 -1.5817
   71SAPC   C33 6196   4.717   1.039   3.907  0.0204 -0.1957  0.2749
   71SAPC   H3X 6197   4.712   1.040   4.018 -1.9438 -2.0384  0.2716
   71SAPC   H3Y 6198   4.780   1.127   3.881 -0.8579  0.5438  0.6151
   71SAPC   C34 6199   4.806   0.916   3.876 -0.3340 -0.2279  0.1681
   71SAPC   H4X 6200   4.898   0.922   3.938  1.6416 -3.3450 -2.1294
   71SAPC   H4Y 6201   4.839   0.928   3.770  0.9247 -0.4938  0.5124
   71SAPC   C35 6202   4.743   0.780   3.912  0.1516 -0.1971 -0.0383
   71SAPC   H5X 6203   4.801   0.698   3.863 -0.7018 -1.7748  1.5074
   71SAPC   H5Y 6204   4.637   0.786   3.881  0.5899  1.5359 -1.3599
   71SAPC   C36 6205   4.736   0.768   4.065  0.3479 -0.6407  0.2543
   71SAPC   H6X 6206   4.671   0.687   4.104 -0.9175  0.6099  0.7910
   71SAPC   H6Y 6207   4.681   0.852   4.111 -0.7167 -0.8417 -0.6154
   71SAPC   C37 6208   4.870   0.739   4.134 -0.5398 -0.1571 -0.0415
   71SAPC   H7X 6209   4.949   0.809   4.101 -0.6306 -0.3369 -0.6529
   71SAPC   H7Y 6210   4.902   0.642   4.090 -0.9313  0.2431 -1.2345
   71SAPC   C38 6211   4.877   0.737   4.287 -0.0340 -0.1435 -0.0831
   71SAPC   H8X 6212   4.789   0.680   4.326  1.1544 -2.3658 -0.4809
   71SAPC   H8Y 6213   4.862   0.834   4.338 -1.9160  1.0629 -2.7124
   71SAPC   C39 6214   4.998   0.665   4.342 -0.0338 -0.4778  0.2438
   71SAPC   H9X 6215   5.088   0.720   4.307  1.0345 -0.7869  2.3579
   71SAPC   H9Y 6216   5.008   0.556   4.324 -0.3533 -0.4717  0.0255
   71SAPC  C310 6217   5.002   0.660   4.499  0.1015 -0.3828  0.2167
   71SAPC  H10X 6218   4.903   0.621   4.532 -0.7227 -1.3662 -3.0911
   71SAPC  H10Y 6219   5.020   0.764   4.534 -2.2041 -0.2181  1.1171
   71SAPC  C311 6220   5.111   0.568   4.557 -0.1680  0.4701 -0.7725
   71SAPC  H11X 6221   5.216   0.601   4.540  1.1953 -2.9758 -0.0501
   71SAPC  H11Y 6222   5.102   0.464   4.517 -0.7409 -0.6089  1.9399
   71SAPC  C312 6223   5.104   0.557   4.709  0.3232 -0.3315  0.4580
   71SAPC  H12X 6224   5.150   0.652   4.745  4.0616 -1.5050 -0.8110
   71SAPC  H12Y 6225   5.164   0.478   4.759 -0.8542 -0.6478  1.4433
   71SAPC  C313 6226   4.968   0.533   4.777  0.8103  0.1538  0.3123
   71SAPC  H13X 6227   4.911   0.455   4.722  2.4659  0.1604 -1.4801
   71SAPC  H13Y 6228   4.909   0.627   4.774  0.7906  0.1391 -3.4153
   71SAPC  C314 6229   4.974   0.487   4.924 -0.0710 -0.6967  0.1309
   71SAPC  H14X 6230   5.031   0.560   4.985 -0.8747  1.1089 -1.1835
   71SAPC  H14Y 6231   5.019   0.386   4.936 -0.0557 -0.5333  1.5770
   71SAPC  C315 6232   4.837   0.490   4.986 -0.6008  0.1883 -0.3258
   71SAPC  H15X 6233   4.779   0.419   4.923 -1.2434  0.8184 -0.4550
   71SAPC  H15Y 6234   4.797   0.594   4.981 -0.1744  0.4315  0.8678
   71SAPC  C316 6235   4.836   0.437   5.127  0.3674  0.6663  0.6759
   71SAPC  H16X 6236   4.879   0.335   5.130 -2.2447 -0.4997  2.0919
   71SAPC  H16Y 6237   4.730   0.415   5.153  0.5286 -0.0741  0.7048
   71SAPC  C317 6238   4.879   0.534   5.238  0.1659  0.4417 -0.3101
   71SAPC  H17X 6239   4.835   0.634   5.217 -3.6560 -0.9164  0.4507
   71SAPC  H17Y 6240   4.990   0.542   5.236  0.1271  0.9361 -1.6012
   71SAPC  C318 6241   4.839   0.481   5.374 -0.4948 -0.4725  0.0400
   71SAPC  H18X 6242   4.886   0.542   5.455  0.0318  0.1967 -0.7551
   71SAPC  H18Y 6243   4.870   0.375   5.381 -0.4558 -0.6246 -2.0269
   71SAPC  H18Z 6244   4.729   0.493   5.389 -0.5194 -2.3759  1.8158
   72SAPC     N 6245   5.023   5.630   3.201  0.6000 -0.0218 -0.3126
   72SAPC   C12 6246   5.160   5.582   3.250  0.1292  1.0070 -0.4516
   72SAPC  H12A 6247   5.228   5.597   3.168  0.1880  2.5963 -0.1300
   72SAPC  H12B 6248   5.169   5.475   3.263  1.1092  0.9547 -1.4377
   72SAPC   C13 6249   4.913   5.606   3.303 -0.0703  0.9010  0.0363
   72SAPC  H13A 6250   4.815   5.612   3.259  0.5102 -0.6672 -1.6098
   72SAPC  H13B 6251   4.914   5.504   3.338  0.5216  0.9139  0.0739
   72SAPC  H13C 6252   4.929   5.678   3.382 -1.4745  0.6284  0.5963
   72SAPC   C14 6253   5.027   5.775   3.178  0.3014  0.1403  0.2409
   72SAPC  H14A 6254   5.065   5.824   3.267  2.7986  0.1511 -0.7555
   72SAPC  H14B 6255   5.089   5.801   3.094  0.4542 -2.4874 -0.5624
   72SAPC  H14C 6256   4.931   5.806   3.141  1.4630  0.9393 -2.2844
   72SAPC   C15 6257   4.993   5.554   3.074 -0.4031  0.1666 -0.1084
   72SAPC  H15A 6258   5.012   5.448   3.085  3.0117  0.7378  0.6976
   72SAPC  H15B 6259   4.892   5.566   3.040 -0.1156 -0.6552 -1.3178
   72SAPC  H15C 6260   5.062   5.585   2.997  0.3999 -1.7127 -0.2098
   72SAPC   C11 6261   5.213   5.655   3.374 -0.1536  0.1259  0.8397
   72SAPC  H11A 6262   5.290   5.598   3.430  2.6546  0.2261 -2.5824
   72SAPC  H11B 6263   5.124   5.667   3.440 -0.1337  0.8100  0.7531
   72SAPC     P 6264   5.407   5.807   3.298  0.0680  0.1668  0.2039
   72SAPC   O13 6265   5.451   5.672   3.260 -0.1854  0.0653 -0.5343
   72SAPC   O14 6266   5.416   5.921   3.202  0.3345 -0.6071 -0.0000
   72SAPC   O12 6267   5.261   5.788   3.341  0.4432  0.0820 -0.3074
   72SAPC   O11 6268   5.469   5.843   3.441  0.0299  0.3856  0.3059
   72SAPC    C1 6269   5.402   5.949   3.520  0.7715  0.0242  0.0596
   72SAPC    HA 6270   5.475   6.030   3.538  1.5601 -0.5385 -0.5536
   72SAPC    HB 6271   5.313   5.992   3.470 -0.2385  0.2875  1.9745
   72SAPC    C2 6272   5.370   5.888   3.659  0.8356 -0.1339 -0.8101
   72SAPC    HS 6273   5.330   5.785   3.648  2.0381 -0.8191  0.7765
   72SAPC   O21 6274   5.280   5.977   3.728  0.7011  0.2456  0.5758
   72SAPC   C21 6275   5.190   5.923   3.806  0.0310  0.1253 -0.2588
   72SAPC   O22 6276   5.190   5.808   3.838 -0.1971 -0.1224  0.3143
   72SAPC   C22 6277   5.091   6.034   3.855  0.0459  0.0568  0.4349
   72SAPC   H2R 6278   5.151   6.121   3.889  1.2178 -0.6209  0.1716
   72SAPC   H2S 6279   5.036   6.055   3.761 -0.1495 -2.7715 -0.1720
   72SAPC    C3 6280   5.504   5.882   3.749  0.3675  0.2754  0.3287
   72SAPC    HX 6281   5.543   5.985   3.736 -1.7279  1.0537 -0.1208
   72SAPC    HY 6282   5.573   5.812   3.697 -0.3800  0.2617 -0.6702
   72SAPC   O31 6283   5.482   5.853   3.890 -0.1826  0.3351 -0.6922
   72SAPC   C31 6284   5.476   5.733   3.927 -0.8118 -0.6975 -0.3593
   72SAPC   O32 6285   5.480   5.632   3.857 -0.3205 -0.2918 -0.2637
   72SAPC   C32 6286   5.466   5.735   4.081 -0.0385  0.3640 -0.2829
   72SAPC   H2X 6287   5.568   5.752   4.123 -0.3870  0.9786  0.3460
   72SAPC   H2Y 6288   5.441   5.632   4.116  1.8726  0.6105  2.0824
   72SAPC   C23 6289   4.997   5.979   3.957  0.0033  0.5218 -0.2074
   72SAPC   H3R 6290   5.039   5.975   4.060  0.6974 -0.0064 -0.5050
   72SAPC   H3S 6291   4.965   5.874   3.937  1.4205 -0.0643  0.4968
   72SAPC   C24 6292   4.870   6.068   3.955  0.1616 -0.0441  0.6147
   72SAPC   H4R 6293   4.890   6.176   3.937  2.2597 -0.6009 -0.9547
   72SAPC   H4S 6294   4.834   6.063   4.059 -2.3916  0.4289 -0.1842
   72SAPC   C25 6295   4.783   6.022   3.840  0.2242  0.1206 -0.5304
   72SAPC   H5R 6296   4.825   6.032   3.739 -1.4418  0.9171 -1.1957
   72SAPC   C26 6297   4.668   5.952   3.849  0.2546 -0.9001 -0.2972
   72SAPC   H6R 6298   4.626   5.919   3.753 -0.4265  0.1796 -0.3811
   72SAPC   C27 6299   4.591   5.929   3.975  0.5342  0.1971  0.8521
   72SAPC   H7R 6300   4.483   5.944   3.954  0.5396 -0.0328  0.6502
   72SAPC   H7S 6301   4.620   6.005   4.051 -0.6152  0.1464  1.3645
   72SAPC   C28 6302   4.628   5.789   4.021  0.4866  0.2844  0.6086
   72SAPC   H8R 6303   4.616   5.710   3.944 -0.8317  1.1423 -0.0957
   72SAPC   C29 6304   4.670   5.754   4.143  0.7792 -0.0663 -0.3988
   72SAPC   H9R 6305   4.688   5.646   4.157 -1.0324 -0.2069  1.2058
   72SAPC  C210 6306   4.680   5.838   4.268  0.3323  0.2581  0.0071
   72SAPC  H10R 6307   4.722   5.936   4.238 -1.0587  0.9037  0.0689
   72SAPC  H10S 6308   4.750   5.796   4.343 -1.6515 -1.1951  1.1494
   72SAPC  C211 6309   4.544   5.865   4.331 -0.1461  0.1480  0.2315
   72SAPC  H11R 6310   4.467   5.887   4.255  0.1964  0.4810 -0.0249
   72SAPC  C212 6311   4.511   5.861   4.458  0.1923  0.0492 -0.2601
   72SAPC  H12R 6312   4.404   5.884   4.468 -0.4643 -1.3917 -2.9781
   72SAPC  C213 6313   4.601   5.838   4.579 -0.4602  0.7519 -0.4263
   72SAPC  H13R 6314   4.691   5.903   4.576 -0.5834  1.0412  1.3114
   72SAPC  H13S 6315   4.655   5.743   4.555  1.3749  1.6474 -0.0251
   72SAPC  C214 6316   4.550   5.842   4.717 -0.3767 -0.3634 -0.0740
   72SAPC  H14R 6317   4.442   5.861   4.725 -0.1592  1.5703 -1.0167
   72SAPC  C215 6318   4.629   5.852   4.829 -0.0994 -0.1642 -0.2202
   72SAPC  H15R 6319   4.589   5.860   4.931  1.3191 -0.7420  0.4084
   72SAPC  C216 6320   4.778   5.850   4.830  0.0974  0.9094 -0.5314
   72SAPC  H16R 6321   4.806   5.823   4.726 -1.6352 -0.7063 -0.6332
   72SAPC  H16S 6322   4.795   5.765   4.900  1.0606  1.9673  0.5706
   72SAPC  C217 6323   4.849   5.975   4.884 -0.0660  0.2691  0.0646
   72SAPC  H17R 6324   4.954   5.946   4.903 -0.7024 -0.8096  2.1807
   72SAPC  H17S 6325   4.800   5.996   4.981  1.7128 -0.1640  1.0884
   72SAPC  C218 6326   4.837   6.094   4.783  0.0781 -0.1186 -0.5756
   72SAPC  H18R 6327   4.728   6.116   4.777 -0.0478 -0.5397  0.0498
   72SAPC  H18S 6328   4.878   6.065   4.684 -0.4139  1.3715 -1.2398
   72SAPC  C219 6329   4.916   6.219   4.816 -0.1913  0.6822  0.6319
   72SAPC  H19R 6330   5.012   6.184   4.859 -0.0692 -1.4299 -1.1367
   72SAPC  H19S 6331   4.853   6.274   4.888 -3.3338 -0.0835 -1.3103
   72SAPC  C220 6332   4.947   6.305   4.694 -0.5707  0.9604  0.3999
   72SAPC  H20R 6333   4.857   6.345   4.644 -0.8359 -1.5235 -1.2916
   72SAPC  H20S 6334   4.994   6.235   4.621 -1.0295  0.3723  0.6631
   72SAPC  H20T 6335   5.015   6.390   4.713 -0.0033  0.7782 -0.7454
   72SAPC   C33 6336   5.354   5.823   4.132 -0.1649 -0.2823  0.6788
   72SAPC   H3X 6337   5.261   5.808   4.073  0.9560  0.6619 -1.4473
   72SAPC   H3Y 6338   5.381   5.927   4.102 -0.6545 -0.4345 -0.3588
   72SAPC   C34 6339   5.311   5.798   4.276  0.2697 -0.5858  0.4032
   72SAPC   H4X 6340   5.382   5.813   4.360  1.3357  1.5419 -0.7996
   72SAPC   H4Y 6341   5.301   5.687   4.270  1.2921 -0.6219 -1.8242
   72SAPC   C35 6342   5.174   5.859   4.301 -0.6976 -0.1417  0.0853
   72SAPC   H5X 6343   5.109   5.823   4.219  0.9342 -0.6032 -1.0510
   72SAPC   H5Y 6344   5.180   5.969   4.284 -0.4843 -0.4361 -1.9733
   72SAPC   C36 6345   5.108   5.822   4.436 -0.5232 -0.1721  0.1438
   72SAPC   H6X 6346   5.095   5.712   4.445 -1.2896 -0.0669  0.4419
   72SAPC   H6Y 6347   5.007   5.868   4.435 -1.8278 -2.7502 -2.2664
   72SAPC   C37 6348   5.185   5.863   4.567  0.1418  0.1631 -0.4595
   72SAPC   H7X 6349   5.278   5.803   4.573  0.1772  0.3599  2.0460
   72SAPC   H7Y 6350   5.117   5.838   4.651  1.6795 -1.5540  0.3403
   72SAPC   C38 6351   5.220   6.011   4.565  0.1836 -0.9676 -0.4805
   72SAPC   H8X 6352   5.139   6.078   4.529  0.8828 -0.6963 -1.5873
   72SAPC   H8Y 6353   5.307   6.030   4.499 -1.1073  0.1729 -1.9361
   72SAPC   C39 6354   5.251   6.042   4.718 -0.3044  0.2181 -0.1181
   72SAPC   H9X 6355   5.319   5.968   4.765 -1.4459 -1.1358 -0.5539
   72SAPC   H9Y 6356   5.152   6.056   4.767 -1.4407  1.8344 -2.6795
   72SAPC  C310 6357   5.314   6.181   4.746 -0.0979 -0.3808 -0.4040
   72SAPC  H10X 6358   5.245   6.254   4.697  1.5444  1.5767  0.0770
   72SAPC  H10Y 6359   5.407   6.184   4.685  0.5774 -2.3846  0.4492
   72SAPC  C311 6360   5.335   6.208   4.894 -0.3607  0.5858 -0.0384
   72SAPC  H11X 6361   5.442   6.195   4.921 -0.1547  0.2762 -0.9532
   72SAPC  H11Y 6362   5.272   6.135   4.947  0.9919 -0.6386 -0.0571
   72SAPC  C312 6363   5.303   6.354   4.942  0.3116  0.0953  0.4196
   72SAPC  H12X 6364   5.215   6.394   4.887 -0.5870  0.4066  2.0294
   72SAPC  H12Y 6365   5.384   6.427   4.920  0.3918 -0.3200 -0.7044
   72SAPC  C313 6366   5.263   6.355   5.086  0.1717  0.1662  0.1636
   72SAPC  H13X 6367   5.335   6.296   5.146  2.2165  1.2610 -1.0752
   72SAPC  H13Y 6368   5.166   6.302   5.101 -0.4964  1.0526 -0.8378
   72SAPC  C314 6369   5.230   6.498   5.134  0.2796 -0.2136 -0.3875
   72SAPC  H14X 6370   5.176   6.554   5.055  0.3039 -0.8375 -0.8526
   72SAPC  H14Y 6371   5.323   6.546   5.171 -0.4808 -0.0338  1.3824
   72SAPC  C315 6372   5.121   6.505   5.240 -0.1995 -0.3910  0.0155
   72SAPC  H15X 6373   5.029   6.452   5.207 -0.6538 -0.7001  1.6683
   72SAPC  H15Y 6374   5.083   6.606   5.264  0.9252  0.2540 -0.8488
   72SAPC  C316 6375   5.172   6.432   5.360  0.3567  0.4994 -0.2006
   72SAPC  H16X 6376   5.249   6.496   5.407 -0.4217  0.4275  1.2217
   72SAPC  H16Y 6377   5.229   6.340   5.335  0.8699  1.1317 -1.4666
   72SAPC  C317 6378   5.079   6.394   5.472  0.3772  0.5117  0.3805
   72SAPC  H17X 6379   5.006   6.319   5.433 -1.3310  2.3117 -0.0691
   72SAPC  H17Y 6380   5.018   6.484   5.493 -0.3363  0.1261 -0.0051
   72SAPC  C318 6381   5.145   6.345   5.600  0.2953 -0.4744  1.1789
   72SAPC  H18X 6382   5.198   6.433   5.642 -1.6019  1.3194 -0.0117
   72SAPC  H18Y 6383   5.213   6.262   5.572  0.0866 -1.0947  2.4221
   72SAPC  H18Z 6384   5.060   6.305   5.659 -2.2582  1.3456 -1.0520
   73SLPC     N 6385   1.367   6.522   7.197  0.4273  0.0534 -0.2431
   73SLPC   C13 6386   1.448   6.531   7.071  0.3933 -0.4830  0.1997
   73SLPC  H13A 6387   1.446   6.633   7.037 -0.3146 -0.1400  1.2073
   73SLPC  H13B 6388   1.550   6.499   7.088  0.5896  0.0041 -0.0647
   73SLPC  H13C 6389   1.398   6.459   7.007 -0.7344 -1.5052  2.1329
   73SLPC   C14 6390   1.346   6.376   7.228  0.0983  0.1081 -0.2305
   73SLPC  H14A 6391   1.318   6.327   7.136 -0.6499  2.3256 -1.2667
   73SLPC  H14B 6392   1.444   6.343   7.260 -0.0795  1.1911  1.6308
   73SLPC  H14C 6393   1.283   6.355   7.313 -1.0006 -1.2716 -1.3494
   73SLPC   C15 6394   1.236   6.600   7.180  0.6636 -0.3061 -0.5222
   73SLPC  H15A 6395   1.251   6.698   7.137 -0.8720 -0.3725 -1.2851
   73SLPC  H15B 6396   1.169   6.554   7.109  0.5450  0.4954 -0.9374
   73SLPC  H15C 6397   1.189   6.611   7.277 -0.7534  0.4698 -1.2774
   73SLPC   C12 6398   1.456   6.583   7.300  0.5118 -0.2532  0.2263
   73SLPC  H12A 6399   1.393   6.586   7.389  0.8826 -0.0381  0.4833
   73SLPC  H12B 6400   1.477   6.684   7.270  2.4041 -0.5931  0.3272
   73SLPC   C11 6401   1.588   6.523   7.349  0.1631 -0.4581  0.4595
   73SLPC  H11A 6402   1.618   6.578   7.441  2.5064  2.3815 -1.8396
   73SLPC  H11B 6403   1.670   6.536   7.275  1.1289 -1.8518  1.2168
   73SLPC     P 6404   1.695   6.301   7.445 -0.3845  0.3781 -0.3938
   73SLPC   O13 6405   1.762   6.356   7.563  0.3249  0.4975 -0.1239
   73SLPC   O14 6406   1.652   6.159   7.458 -0.4319 -0.0565  0.8182
   73SLPC   O12 6407   1.578   6.386   7.381  0.0369  0.4306  0.3511
   73SLPC   O11 6408   1.807   6.310   7.329  0.0643 -0.4185  0.1685
   73SLPC    C1 6409   1.782   6.233   7.211  0.3217  0.3587 -0.8126
   73SLPC    HA 6410   1.838   6.138   7.223 -3.1471 -1.6669  1.1592
   73SLPC    HB 6411   1.677   6.213   7.180 -1.0703  2.0191  2.3170
   73SLPC    C2 6412   1.834   6.300   7.084 -0.6526  0.0029  0.4102
   73SLPC    HS 6413   1.944   6.280   7.079 -0.6113  0.5929 -2.4029
   73SLPC   O21 6414   1.793   6.438   7.087  0.0129 -0.3720  0.2542
   73SLPC   C21 6415   1.891   6.523   7.076 -0.5740  0.0160  0.1017
   73SLPC   O22 6416   2.011   6.492   7.063  0.5514 -0.2474  0.1237
   73SLPC   C22 6417   1.845   6.665   7.080  0.5770  0.0976 -0.0518
   73SLPC   H2R 6418   1.762   6.676   7.007  0.7428 -0.0966 -0.2708
   73SLPC   H2S 6419   1.809   6.675   7.185 -0.0161 -0.8385 -0.1534
   73SLPC    C3 6420   1.786   6.221   6.958  0.0140 -0.5756  0.3873
   73SLPC    HX 6421   1.687   6.261   6.929 -1.5639 -2.2275  3.1092
   73SLPC    HY 6422   1.765   6.116   6.988  1.7941 -0.5875  1.7453
   73SLPC   O31 6423   1.881   6.217   6.849 -0.1423  0.5370  0.0140
   73SLPC   C31 6424   1.888   6.321   6.771  0.3446  0.6407 -0.8828
   73SLPC   O32 6425   1.838   6.430   6.783  0.0776 -0.2914  0.3207
   73SLPC   C32 6426   1.993   6.306   6.669 -0.6290 -0.1860 -0.2301
   73SLPC   H2X 6427   2.037   6.205   6.680  0.4846  0.4773  2.0579
   73SLPC   H2Y 6428   2.077   6.375   6.692 -0.1197 -1.2756  1.3382
   73SLPC   C23 6429   1.954   6.770   7.056  0.0735  0.0120  0.6189
   73SLPC   H3R 6430   2.041   6.750   7.122  1.6925  0.4863 -1.2749
   73SLPC   H3S 6431   1.923   6.875   7.076  1.6652  0.3355  1.5715
   73SLPC   C24 6432   2.017   6.775   6.909 -0.2294 -0.3478  0.1709
   73SLPC   H4R 6433   2.065   6.678   6.882 -0.7346 -0.4009 -0.5630
   73SLPC   H4S 6434   2.087   6.860   6.919 -1.1262  0.2634  1.4144
   73SLPC   C25 6435   1.916   6.804   6.796 -0.3803  0.1709 -0.2567
   73SLPC   H5R 6436   1.855   6.890   6.829  0.8530  1.2121 -0.6207
   73SLPC   H5S 6437   1.848   6.716   6.790 -0.5289  0.2767 -0.0910
   73SLPC   C26 6438   1.960   6.822   6.652 -0.2526 -0.3762 -0.8311
   73SLPC   H6R 6439   1.985   6.930   6.650 -0.2599 -0.2204  2.5030
   73SLPC   H6S 6440   1.880   6.801   6.577  1.0292 -2.4614 -1.7316
   73SLPC   C27 6441   2.077   6.735   6.607  0.4008  0.3651 -0.1429
   73SLPC   H7R 6442   2.058   6.628   6.629 -2.7708  0.3245 -2.3424
   73SLPC   H7S 6443   2.167   6.754   6.669  0.7561  0.9388 -0.8142
   73SLPC   C28 6444   2.119   6.757   6.464 -0.8556  0.0650 -0.4673
   73SLPC   H8R 6445   2.209   6.694   6.447 -1.4076 -0.4429 -1.6777
   73SLPC   H8S 6446   2.150   6.860   6.437  1.8902 -0.6718 -0.4282
   73SLPC   C29 6447   2.023   6.693   6.368  0.2865 -0.3979 -0.1100
   73SLPC   H9R 6448   2.006   6.586   6.383  0.5220 -0.3295  0.6501
   73SLPC  C210 6449   1.972   6.749   6.253  0.1990  0.6607 -0.0867
   73SLPC  H10R 6450   1.906   6.687   6.191  0.4975 -0.4162  0.6584
   73SLPC  C211 6451   2.007   6.891   6.210  0.2961 -0.5389 -0.0112
   73SLPC  H11R 6452   2.027   6.957   6.297 -0.4585  0.2774 -0.4402
   73SLPC  H11S 6453   1.920   6.947   6.171  0.1821 -0.0927  0.8624
   73SLPC  C212 6454   2.131   6.899   6.119  0.7727 -0.7901 -0.6709
   73SLPC  H12R 6455   2.227   6.881   6.167  0.3915 -2.3479 -0.4523
   73SLPC  C213 6456   2.126   6.937   5.990 -0.1311 -0.2442  0.3876
   73SLPC  H13R 6457   2.218   6.960   5.935 -0.2351 -0.1645  0.2480
   73SLPC  C214 6458   2.004   6.966   5.913  0.5952  0.2580  0.1037
   73SLPC  H14R 6459   2.031   7.060   5.861  0.9647 -0.4653 -1.0676
   73SLPC  H14S 6460   1.910   6.971   5.972 -0.8370 -1.0566 -1.9375
   73SLPC  C215 6461   1.984   6.852   5.807  0.5159  0.4539  0.4983
   73SLPC  H15R 6462   1.956   6.755   5.853 -3.1420 -0.4975 -3.1259
   73SLPC  H15S 6463   2.075   6.843   5.745  0.1868 -0.4122  0.1153
   73SLPC  C216 6464   1.866   6.886   5.706 -0.4329  0.5036  0.4433
   73SLPC  H16R 6465   1.892   6.987   5.665  1.5137  0.6922  1.9887
   73SLPC  H16S 6466   1.772   6.902   5.763 -0.4762  3.1169 -0.2394
   73SLPC  C217 6467   1.841   6.800   5.587  0.0522 -0.4317  0.1703
   73SLPC  H17R 6468   1.808   6.698   5.617 -2.1963 -0.3898 -1.8834
   73SLPC  H17S 6469   1.931   6.787   5.524  1.1055  1.1208  1.2874
   73SLPC  C218 6470   1.729   6.860   5.503 -0.2631 -0.9656 -0.2141
   73SLPC  H18R 6471   1.630   6.855   5.552  0.4908 -0.4749  1.4124
   73SLPC  H18S 6472   1.736   6.810   5.404 -0.5201 -1.0902 -0.1708
   73SLPC  H18T 6473   1.753   6.968   5.493  1.2534 -1.2478  0.0864
   73SLPC   C33 6474   1.949   6.328   6.521 -0.5117 -0.2794 -0.3584
   73SLPC   H3X 6475   2.042   6.342   6.462  1.3325 -0.8533  2.2444
   73SLPC   H3Y 6476   1.893   6.424   6.524  0.0896  0.0648  0.2481
   73SLPC   C34 6477   1.853   6.220   6.468  0.0983 -0.3831  0.0240
   73SLPC   H4X 6478   1.750   6.255   6.490 -0.2476 -0.5179 -1.3040
   73SLPC   H4Y 6479   1.859   6.121   6.519  0.4850 -0.3402  0.0678
   73SLPC   C35 6480   1.868   6.188   6.316 -0.0779  0.7188 -0.7707
   73SLPC   H5X 6481   1.800   6.103   6.292  0.5573 -0.3499  0.9816
   73SLPC   H5Y 6482   1.970   6.148   6.298  0.1138  0.8821 -0.0814
   73SLPC   C36 6483   1.830   6.314   6.239  0.1972 -0.6914 -0.2656
   73SLPC   H6X 6484   1.875   6.414   6.254 -0.0682 -0.3872 -1.4199
   73SLPC   H6Y 6485   1.725   6.334   6.270 -0.4610  1.6373 -3.4275
   73SLPC   C37 6486   1.822   6.271   6.092  0.3841  0.0562  0.0956
   73SLPC   H7X 6487   1.740   6.196   6.091 -0.3615  0.8592  0.1885
   73SLPC   H7Y 6488   1.914   6.236   6.041  1.7434 -0.2894  2.6193
   73SLPC   C38 6489   1.775   6.399   6.020 -0.2172 -0.6496  0.3100
   73SLPC   H8X 6490   1.850   6.478   6.040 -0.1590 -0.6305  0.0275
   73SLPC   H8Y 6491   1.678   6.434   6.061  0.6897  1.7862  0.5130
   73SLPC   C39 6492   1.768   6.382   5.870  0.3171  0.3035 -0.0914
   73SLPC   H9X 6493   1.844   6.307   5.839 -1.7316 -1.2994 -1.4642
   73SLPC   H9Y 6494   1.777   6.468   5.801  0.1998 -0.7234 -1.4317
   73SLPC  C310 6495   1.628   6.332   5.838 -0.1724 -0.2650 -0.8634
   73SLPC  H10X 6496   1.563   6.421   5.859  1.2827  0.8649 -1.0074
   73SLPC  H10Y 6497   1.606   6.255   5.914  0.2897  1.2666  0.9036
   73SLPC  C311 6498   1.592   6.287   5.700  0.1802  0.4302 -0.5597
   73SLPC  H11X 6499   1.657   6.199   5.681  1.0554  0.6439  1.2536
   73SLPC  H11Y 6500   1.602   6.368   5.624  2.3124  0.3794 -0.3854
   73SLPC  C312 6501   1.446   6.235   5.693  0.1936  0.1791 -0.4653
   73SLPC  H12X 6502   1.378   6.293   5.759  1.0850  0.1846  0.4784
   73SLPC  H12Y 6503   1.431   6.130   5.726 -1.4593  0.8869  1.2234
   73SLPC  C313 6504   1.387   6.243   5.547 -0.1900 -0.4242  0.2494
   73SLPC  H13X 6505   1.451   6.194   5.471 -1.0520 -1.6216  0.2764
   73SLPC  H13Y 6506   1.357   6.348   5.523 -3.3119 -0.8801  1.7179
   73SLPC  C314 6507   1.255   6.174   5.527 -0.0943 -0.5526 -0.1731
   73SLPC  H14X 6508   1.181   6.207   5.603 -0.3683  0.7009 -0.9469
   73SLPC  H14Y 6509   1.272   6.067   5.553 -0.0012 -1.0136 -1.9799
   73SLPC  C315 6510   1.205   6.177   5.381 -1.2451 -0.0439 -0.3637
   73SLPC  H15X 6511   1.291   6.152   5.316  0.1180  1.8226  0.6347
   73SLPC  H15Y 6512   1.177   6.283   5.361  3.4337  1.3450 -0.7960
   73SLPC  C316 6513   1.078   6.081   5.352  0.3355  1.1702  0.7056
   73SLPC  H16X 6514   1.021   6.076   5.447 -0.5898 -1.9366  0.0935
   73SLPC  H16Y 6515   1.114   5.977   5.335 -0.3800  1.3480 -2.7286
   73SLPC  C317 6516   0.995   6.133   5.235  0.6221  0.8863  0.0201
   73SLPC  H17X 6517   0.978   6.238   5.265  2.1154  1.0792  0.2936
   73SLPC  H17Y 6518   0.902   6.074   5.223  0.6409  0.8919 -0.1543
   73SLPC  C318 6519   1.070   6.114   5.104  0.1232 -0.0018  0.0335
   73SLPC  H18X 6520   1.081   6.006   5.082 -0.7270 -0.0587 -0.1356
   73SLPC  H18Y 6521   1.171   6.156   5.126  0.4069 -1.2514  1.2083
   73SLPC  H18Z 6522   1.026   6.174   5.021  0.7585 -1.5401 -1.4906
   74SLPC     N 6523   1.016   6.303   7.762 -0.3263  0.0668 -0.3595
   74SLPC   C13 6524   0.873   6.291   7.809 -0.1151 -0.4766 -0.4791
   74SLPC  H13A 6525   0.819   6.208   7.766 -1.9284 -0.3033  1.3020
   74SLPC  H13B 6526   0.874   6.286   7.917 -0.8860  0.7159 -0.3981
   74SLPC  H13C 6527   0.826   6.382   7.774  2.0822  1.8202  2.0837
   74SLPC   C14 6528   1.084   6.174   7.783  0.1082  0.2146 -0.3550
   74SLPC  H14A 6529   1.183   6.170   7.739 -0.1023 -0.0488 -0.8122
   74SLPC  H14B 6530   1.094   6.165   7.890 -1.2122  0.6875 -0.1723
   74SLPC  H14C 6531   1.024   6.089   7.754 -1.4501  1.1738 -0.0434
   74SLPC   C15 6532   1.087   6.418   7.834  0.0016  0.3609  0.8344
   74SLPC  H15A 6533   1.100   6.396   7.939 -1.0094 -2.4858  0.4654
   74SLPC  H15B 6534   1.190   6.430   7.803  0.3030  0.6649  1.9089
   74SLPC  H15C 6535   1.040   6.513   7.814  0.5378  0.8967  2.0284
   74SLPC   C12 6536   1.017   6.323   7.609  0.0998 -0.8359  0.6615
   74SLPC  H12A 6537   0.982   6.238   7.553  1.3654  0.8885 -3.0853
   74SLPC  H12B 6538   1.118   6.345   7.578  0.2681  1.0729  2.3654
   74SLPC   C11 6539   0.938   6.446   7.557 -0.8465  0.1439 -0.1250
   74SLPC  H11A 6540   0.973   6.469   7.454 -0.0698 -2.9429 -0.6467
   74SLPC  H11B 6541   0.964   6.542   7.607  0.1327  0.0222 -0.3821
   74SLPC     P 6542   0.697   6.494   7.480 -0.1513 -0.7221 -0.1237
   74SLPC   O13 6543   0.565   6.431   7.512 -0.1434  0.5875 -0.2718
   74SLPC   O14 6544   0.705   6.640   7.507  0.5657 -0.1504  0.5974
   74SLPC   O12 6545   0.802   6.424   7.572  0.2207  0.3767 -0.3178
   74SLPC   O11 6546   0.745   6.461   7.334  0.6227  0.2561 -0.0873
   74SLPC    C1 6547   0.805   6.565   7.251 -0.7006 -0.2288 -0.0854
   74SLPC    HA 6548   0.749   6.661   7.251  0.5973  0.5950 -1.9063
   74SLPC    HB 6549   0.912   6.575   7.282 -0.8511 -2.5786  1.4290
   74SLPC    C2 6550   0.797   6.505   7.107 -0.5389  0.5589 -0.0970
   74SLPC    HS 6551   0.860   6.558   7.033  0.2187  0.4957  0.4959
   74SLPC   O21 6552   0.662   6.504   7.054 -0.3183  0.4551  0.2160
   74SLPC   C21 6553   0.621   6.621   7.015 -0.5757  0.4139 -0.2451
   74SLPC   O22 6554   0.687   6.719   7.019  0.1990  0.4938  0.0341
   74SLPC   C22 6555   0.489   6.609   6.942 -0.4156 -0.1524 -0.0926
   74SLPC   H2R 6556   0.503   6.564   6.841  0.5411 -1.6632  0.6781
   74SLPC   H2S 6557   0.425   6.542   7.003 -1.9527  2.0638  0.8731
   74SLPC    C3 6558   0.870   6.361   7.095 -0.3192 -0.5419 -0.1025
   74SLPC    HX 6559   0.809   6.301   7.166  0.0861 -1.4151 -0.4854
   74SLPC    HY 6560   0.970   6.360   7.143  0.0462  0.4259 -0.8225
   74SLPC   O31 6561   0.864   6.299   6.961  0.0955  0.2770  0.6526
   74SLPC   C31 6562   0.965   6.331   6.877  0.5487  1.2083 -0.3396
   74SLPC   O32 6563   1.057   6.406   6.913  0.8987  0.5183  0.7019
   74SLPC   C32 6564   0.949   6.248   6.752  0.2884 -0.6974 -0.4315
   74SLPC   H2X 6565   0.857   6.186   6.758 -0.2694  0.1251 -0.3054
   74SLPC   H2Y 6566   1.039   6.183   6.751 -0.0738 -1.2498  1.1947
   74SLPC   C23 6567   0.427   6.755   6.922 -0.5510 -0.2358 -0.2049
   74SLPC   H3R 6568   0.505   6.833   6.936 -0.9739  0.2642 -0.5572
   74SLPC   H3S 6569   0.353   6.765   7.005 -1.0792 -0.1034 -0.6848
   74SLPC   C24 6570   0.351   6.789   6.790  0.0352  0.1470 -0.6879
   74SLPC   H4R 6571   0.330   6.898   6.785  0.2948  0.2334  0.0373
   74SLPC   H4S 6572   0.253   6.739   6.777 -1.0727  2.0211  0.1775
   74SLPC   C25 6573   0.439   6.776   6.665  0.0473 -0.3881 -0.6292
   74SLPC   H5R 6574   0.455   6.671   6.632  0.5594 -0.6474  0.4038
   74SLPC   H5S 6575   0.530   6.837   6.682 -0.3454  0.0362  0.0125
   74SLPC   C26 6576   0.377   6.846   6.539 -1.1232  0.0364  0.3659
   74SLPC   H6R 6577   0.456   6.873   6.466 -1.0240 -1.5372 -0.1491
   74SLPC   H6S 6578   0.335   6.941   6.579  2.1652  0.9456  2.0770
   74SLPC   C27 6579   0.273   6.761   6.469  0.2262  0.2789  0.0517
   74SLPC   H7R 6580   0.180   6.752   6.529  1.4981  0.0711  2.0960
   74SLPC   H7S 6581   0.311   6.659   6.449 -2.5451 -0.8211  0.0536
   74SLPC   C28 6582   0.235   6.824   6.331 -0.4438 -0.2076  0.3510
   74SLPC   H8R 6583   0.169   6.751   6.279  0.2001 -1.7728  1.6420
   74SLPC   H8S 6584   0.327   6.825   6.269 -1.4325 -0.0905 -1.1650
   74SLPC   C29 6585   0.156   6.953   6.324 -0.4870  0.4860  0.3312
   74SLPC   H9R 6586   0.157   7.003   6.421  0.5943 -0.5180  0.8554
   74SLPC  C210 6587   0.114   7.010   6.211  0.4494  0.3594 -0.0085
   74SLPC  H10R 6588   0.055   7.103   6.217 -0.6885 -0.3871  0.7012
   74SLPC  C211 6589   0.126   6.945   6.074 -0.1377  0.4196  0.1539
   74SLPC  H11R 6590   0.060   6.856   6.074  1.0441 -0.5021 -0.6707
   74SLPC  H11S 6591   0.227   6.898   6.073 -0.3618 -0.1513  1.9985
   74SLPC  C212 6592   0.085   7.034   5.961  0.1378  0.7455  0.5658
   74SLPC  H12R 6593  -0.019   7.071   5.970 -0.3282 -0.4276  0.1350
   74SLPC  C213 6594   0.165   7.063   5.853 -0.1158  0.5620 -0.5288
   74SLPC  H13R 6595   0.131   7.130   5.772 -0.8266  2.3947  1.1964
   74SLPC  C214 6596   0.305   7.025   5.827 -0.2544 -0.8082  0.0431
   74SLPC  H14R 6597   0.351   6.970   5.912 -0.1819 -0.5256  0.1878
   74SLPC  H14S 6598   0.372   7.113   5.819 -0.5339 -0.4911  1.0121
   74SLPC  C215 6599   0.302   6.937   5.702  0.0837 -0.5052  0.2539
   74SLPC  H15R 6600   0.401   6.927   5.652 -0.3725 -2.3359 -0.3803
   74SLPC  H15S 6601   0.234   6.989   5.631 -0.6262 -0.0473  1.2563
   74SLPC  C216 6602   0.247   6.796   5.734 -0.3033  0.0881  0.4338
   74SLPC  H16R 6603   0.251   6.765   5.627  1.7450  0.3915  0.3815
   74SLPC  H16S 6604   0.145   6.788   5.776  0.0031  0.2358  1.2176
   74SLPC  C217 6605   0.339   6.697   5.798  0.1060  0.1726 -0.2758
   74SLPC  H17R 6606   0.362   6.713   5.905 -1.5696 -1.8863  0.4636
   74SLPC  H17S 6607   0.437   6.700   5.745  1.1430  0.4286  1.5557
   74SLPC  C218 6608   0.282   6.554   5.782  0.4041  0.1398 -0.2008
   74SLPC  H18R 6609   0.245   6.545   5.677 -1.4951  0.2988  0.4150
   74SLPC  H18S 6610   0.206   6.539   5.862 -1.4886 -0.1232 -1.9577
   74SLPC  H18T 6611   0.350   6.469   5.803 -0.2221  0.3477  3.3803
   74SLPC   C33 6612   0.955   6.340   6.621 -0.0504 -0.5471  0.5552
   74SLPC   H3X 6613   1.048   6.401   6.620  0.1130 -0.6528  2.7151
   74SLPC   H3Y 6614   0.877   6.418   6.609  0.3207 -0.5463 -2.7596
   74SLPC   C34 6615   0.930   6.249   6.502 -0.4462 -0.5372  0.2195
   74SLPC   H4X 6616   0.822   6.226   6.508 -0.5153 -0.3426 -0.2771
   74SLPC   H4Y 6617   0.993   6.158   6.515 -0.6937 -0.7235  0.1210
   74SLPC   C35 6618   0.957   6.325   6.373  0.6851  0.6835 -0.5821
   74SLPC   H5X 6619   1.065   6.352   6.371  1.5840 -2.5518 -0.9023
   74SLPC   H5Y 6620   0.898   6.419   6.363  0.7001  0.6911 -0.6007
   74SLPC   C36 6621   0.931   6.237   6.255 -0.4193 -0.1286 -0.4175
   74SLPC   H6X 6622   0.826   6.201   6.261 -0.6498  0.3881 -1.1496
   74SLPC   H6Y 6623   1.001   6.151   6.247 -2.8163 -2.1826 -0.6738
   74SLPC   C37 6624   0.944   6.319   6.124  0.0669  0.7269 -0.2085
   74SLPC   H7X 6625   1.053   6.320   6.102  0.3005 -1.3580  0.6271
   74SLPC   H7Y 6626   0.910   6.425   6.130 -0.7373  0.5324 -1.1764
   74SLPC   C38 6627   0.881   6.250   6.002  0.0296  0.7577 -0.4633
   74SLPC   H8X 6628   0.778   6.209   6.014  0.7083 -1.2852 -1.1302
   74SLPC   H8Y 6629   0.951   6.164   5.993  2.7685  2.7826  0.3716
   74SLPC   C39 6630   0.907   6.326   5.872  0.4069  0.4072 -0.8099
   74SLPC   H9X 6631   1.013   6.322   5.841  0.4094  0.5166 -0.8178
   74SLPC   H9Y 6632   0.878   6.429   5.904  0.7114 -0.2620  1.8476
   74SLPC  C310 6633   0.832   6.267   5.759  0.3717 -0.0968 -0.1215
   74SLPC  H10X 6634   0.722   6.262   5.778  0.2097 -3.3882 -1.2277
   74SLPC  H10Y 6635   0.847   6.158   5.742 -1.2783 -0.2537 -0.7580
   74SLPC  C311 6636   0.855   6.337   5.624 -0.2069  0.8425 -0.2524
   74SLPC  H11X 6637   0.823   6.264   5.546 -2.1006  1.9301 -0.5367
   74SLPC  H11Y 6638   0.960   6.354   5.592 -0.3008 -0.8751 -1.6758
   74SLPC  C312 6639   0.757   6.459   5.597  0.1434  0.2495  0.0218
   74SLPC  H12X 6640   0.793   6.548   5.652 -1.1138  0.1978  0.9489
   74SLPC  H12Y 6641   0.653   6.440   5.629  0.6838 -1.9962  0.5914
   74SLPC  C313 6642   0.757   6.509   5.452  0.1613  0.6296 -0.3595
   74SLPC  H13X 6643   0.854   6.486   5.402 -0.2462  1.5511 -1.6349
   74SLPC  H13Y 6644   0.749   6.620   5.448  1.6271  0.7614 -0.0933
   74SLPC  C314 6645   0.645   6.451   5.367 -0.2177  0.1393 -0.5270
   74SLPC  H14X 6646   0.550   6.451   5.425 -0.2758 -0.4547 -0.6112
   74SLPC  H14Y 6647   0.671   6.344   5.352  2.2207  0.4524  0.8291
   74SLPC  C315 6648   0.623   6.519   5.231 -0.1570 -0.4028 -0.4497
   74SLPC  H15X 6649   0.582   6.621   5.247  0.9456  0.1944 -1.3738
   74SLPC  H15Y 6650   0.543   6.456   5.185  0.2150 -0.8866 -0.4383
   74SLPC  C316 6651   0.748   6.529   5.149  0.2635  0.5144  0.4188
   74SLPC  H16X 6652   0.787   6.425   5.139  0.3425  0.6603 -1.0095
   74SLPC  H16Y 6653   0.809   6.605   5.201  0.1216  0.7834  0.1992
   74SLPC  C317 6654   0.715   6.570   5.006 -0.9045 -0.1235  0.7593
   74SLPC  H17X 6655   0.654   6.663   5.005 -0.9081  0.0172 -3.0969
   74SLPC  H17Y 6656   0.660   6.483   4.963  2.1724 -0.9656 -1.8217
   74SLPC  C318 6657   0.840   6.597   4.925 -0.0047 -0.3887  0.2631
   74SLPC  H18X 6658   0.909   6.511   4.922  1.8646  1.0830 -2.0326
   74SLPC  H18Y 6659   0.894   6.684   4.970 -0.9824  0.7645 -0.7053
   74SLPC  H18Z 6660   0.810   6.623   4.821 -0.5602 -2.8257 -0.2282
   75SLPC     N 6661   4.285   1.524   7.801  0.1837 -0.4257  0.3988
   75SLPC   C13 6662   4.158   1.442   7.796  0.5954 -0.3609 -0.3651
   75SLPC  H13A 6663   4.101   1.461   7.706  1.0352 -0.3979 -0.6551
   75SLPC  H13B 6664   4.178   1.336   7.799 -1.2397 -0.7124  0.9580
   75SLPC  H13C 6665   4.102   1.454   7.888 -0.4526  0.4699 -1.0931
   75SLPC   C14 6666   4.381   1.450   7.888  0.2553 -0.1740  0.1508
   75SLPC  H14A 6667   4.466   1.509   7.919  0.7426 -0.3797 -0.7377
   75SLPC  H14B 6668   4.338   1.426   7.984  0.0370  2.7052  0.8506
   75SLPC  H14C 6669   4.406   1.353   7.846  0.3218 -1.1049  2.2215
   75SLPC   C15 6670   4.254   1.662   7.848 -0.4932  0.4873 -0.1025
   75SLPC  H15A 6671   4.345   1.718   7.840  0.5013 -1.2328 -1.3264
   75SLPC  H15B 6672   4.176   1.707   7.788  0.5236  2.8644  0.2287
   75SLPC  H15C 6673   4.232   1.654   7.954  0.2331  1.7447  0.1607
   75SLPC   C12 6674   4.343   1.552   7.657  0.5851  0.4405  0.4351
   75SLPC  H12A 6675   4.421   1.625   7.671  0.1773  0.6262  1.9703
   75SLPC  H12B 6676   4.255   1.587   7.604 -0.0826  0.0122  1.2317
   75SLPC   C11 6677   4.403   1.438   7.578  0.4007 -0.4489 -0.8045
   75SLPC  H11A 6678   4.383   1.433   7.469  4.4219  0.6473 -1.7397
   75SLPC  H11B 6679   4.356   1.343   7.612 -0.9370  0.2105 -0.7585
   75SLPC     P 6680   4.644   1.522   7.510  0.3883 -0.5544  0.0644
   75SLPC   O13 6681   4.599   1.666   7.522  0.3696  0.0891 -0.5608
   75SLPC   O14 6682   4.780   1.485   7.541 -0.5064  0.5451 -0.2176
   75SLPC   O12 6683   4.547   1.432   7.607  0.7288 -0.5507 -0.0650
   75SLPC   O11 6684   4.605   1.481   7.366 -0.0044  0.3553 -0.1434
   75SLPC    C1 6685   4.586   1.341   7.327 -0.9238 -0.4191 -0.4671
   75SLPC    HA 6686   4.622   1.265   7.400 -0.0740 -1.1815 -1.6346
   75SLPC    HB 6687   4.481   1.318   7.302 -1.4161  1.7288 -0.5813
   75SLPC    C2 6688   4.663   1.313   7.196  0.0234  0.3893  0.3221
   75SLPC    HS 6689   4.756   1.372   7.214  0.5435 -0.1301 -0.5923
   75SLPC   O21 6690   4.597   1.367   7.075 -0.2941  0.0703 -0.2275
   75SLPC   C21 6691   4.671   1.404   6.977  0.0762 -0.2202  0.0954
   75SLPC   O22 6692   4.793   1.390   6.971  0.4210  0.0825 -0.2321
   75SLPC   C22 6693   4.574   1.446   6.868  0.5354 -0.3534  0.6114
   75SLPC   H2R 6694   4.534   1.352   6.826  3.2563 -1.0420 -0.6497
   75SLPC   H2S 6695   4.493   1.509   6.911  0.3508 -0.9040  1.0919
   75SLPC    C3 6696   4.706   1.158   7.189 -0.1830 -0.0587  0.1049
   75SLPC    HX 6697   4.613   1.097   7.186 -0.6638  0.5596 -4.5976
   75SLPC    HY 6698   4.763   1.136   7.282 -1.2943  2.6692  1.5509
   75SLPC   O31 6699   4.792   1.131   7.079  0.7150  0.2353 -0.2234
   75SLPC   C31 6700   4.740   1.072   6.975  0.3694  0.1243 -0.7142
   75SLPC   O32 6701   4.617   1.049   6.968 -0.0562 -0.3407  0.0828
   75SLPC   C32 6702   4.836   1.035   6.865  0.1352  0.3338  0.5915
   75SLPC   H2X 6703   4.936   1.021   6.911 -0.2976  0.3505  1.5808
   75SLPC   H2Y 6704   4.842   1.126   6.802 -2.1558  1.6300  2.0697
   75SLPC   C23 6705   4.640   1.523   6.753 -0.4808  0.0758  0.0254
   75SLPC   H3R 6706   4.730   1.464   6.728  0.6279  0.6407  2.4025
   75SLPC   H3S 6707   4.685   1.619   6.783  1.8841 -0.8561 -0.3366
   75SLPC   C24 6708   4.560   1.548   6.634 -0.6680  0.2024  0.7394
   75SLPC   H4R 6709   4.522   1.653   6.626 -0.4090  0.1627 -2.0134
   75SLPC   H4S 6710   4.474   1.478   6.642 -1.2814  0.9382  0.6922
   75SLPC   C25 6711   4.621   1.527   6.488  0.2175  0.3895 -0.5989
   75SLPC   H5R 6712   4.669   1.427   6.496 -0.6374  0.1051  2.8303
   75SLPC   H5S 6713   4.695   1.607   6.469 -1.3485  1.6727 -1.5289
   75SLPC   C26 6714   4.506   1.519   6.383  0.9223 -0.9348 -0.1654
   75SLPC   H6R 6715   4.432   1.442   6.415  0.5390 -0.8708 -0.8812
   75SLPC   H6S 6716   4.559   1.483   6.292  0.2022 -2.6853  0.0725
   75SLPC   C27 6717   4.420   1.646   6.359 -0.1256  0.3722  0.2873
   75SLPC   H7R 6718   4.374   1.689   6.450 -1.8214  0.8243 -0.7445
   75SLPC   H7S 6719   4.339   1.618   6.289  0.6192  1.1420 -0.9276
   75SLPC   C28 6720   4.512   1.751   6.286  0.3145 -0.2965 -0.3035
   75SLPC   H8R 6721   4.582   1.791   6.363  1.1286 -0.9527 -0.6900
   75SLPC   H8S 6722   4.448   1.837   6.256  1.3051 -0.1320 -2.1191
   75SLPC   C29 6723   4.580   1.707   6.157 -0.1002 -0.9839 -0.4578
   75SLPC   H9R 6724   4.511   1.670   6.080 -1.1262 -0.6664  0.2876
   75SLPC  C210 6725   4.707   1.725   6.126 -0.6268 -0.4690 -0.3735
   75SLPC  H10R 6726   4.743   1.684   6.031 -1.3847  1.3649 -1.5294
   75SLPC  C211 6727   4.812   1.768   6.220 -0.6248 -0.2146  0.1546
   75SLPC  H11R 6728   4.817   1.708   6.314 -2.4605  0.6498  0.8539
   75SLPC  H11S 6729   4.782   1.867   6.260  0.7485 -0.5331  2.0852
   75SLPC  C212 6730   4.945   1.779   6.154  0.5586 -0.5558 -0.1412
   75SLPC  H12R 6731   4.948   1.774   6.044 -2.2557  0.4005 -0.3538
   75SLPC  C213 6732   5.057   1.783   6.226 -0.1560 -0.1203  0.1317
   75SLPC  H13R 6733   5.154   1.801   6.176  0.6881  1.5120  2.2135
   75SLPC  C214 6734   5.080   1.795   6.372 -0.1294  0.2539  0.1462
   75SLPC  H14R 6735   5.096   1.695   6.417  0.5940  1.0743  1.7903
   75SLPC  H14S 6736   4.996   1.847   6.424 -1.2337 -0.7620 -0.5722
   75SLPC  C215 6737   5.216   1.875   6.399 -0.0473  0.3265  0.7240
   75SLPC  H15R 6738   5.219   1.969   6.339  0.0979 -0.3134 -0.3055
   75SLPC  H15S 6739   5.293   1.804   6.362  1.4984  1.9978  0.5603
   75SLPC  C216 6740   5.242   1.917   6.537 -0.0762  0.2381 -0.4735
   75SLPC  H16R 6741   5.159   1.981   6.573 -1.7597  0.7183 -4.6226
   75SLPC  H16S 6742   5.331   1.982   6.543  1.2052 -1.4529 -0.5053
   75SLPC  C217 6743   5.272   1.800   6.635 -0.6547 -0.3595  0.2210
   75SLPC  H17R 6744   5.369   1.751   6.610 -0.4627  1.0071 -2.0006
   75SLPC  H17S 6745   5.194   1.721   6.624 -0.2449 -0.8034  0.4591
   75SLPC  C218 6746   5.268   1.856   6.769  0.7999 -0.4803 -0.2521
   75SLPC  H18R 6747   5.161   1.871   6.795  0.2240  1.0321 -3.0842
   75SLPC  H18S 6748   5.326   1.950   6.770 -3.2744  2.4624 -3.5961
   75SLPC  H18T 6749   5.318   1.791   6.844  1.3995  0.7280  0.4180
   75SLPC   C33 6750   4.790   0.910   6.783  0.1631  0.7365 -0.3336
   75SLPC   H3X 6751   4.766   0.817   6.838  2.2808  0.5726  0.3996
   75SLPC   H3Y 6752   4.881   0.901   6.719 -0.1811  0.5624 -0.8028
   75SLPC   C34 6753   4.678   0.939   6.682 -0.4528 -0.2822 -0.1514
   75SLPC   H4X 6754   4.716   1.038   6.651  1.1000 -0.9790 -0.6028
   75SLPC   H4Y 6755   4.587   0.951   6.744  0.6262 -2.0992  1.9186
   75SLPC   C35 6756   4.666   0.845   6.562 -0.4285  0.2127 -0.4364
   75SLPC   H5X 6757   4.600   0.761   6.592 -0.2548  0.6996  1.4050
   75SLPC   H5Y 6758   4.770   0.811   6.540 -1.3317 -2.4824 -1.0108
   75SLPC   C36 6759   4.623   0.900   6.429  0.2776 -0.1324 -0.2082
   75SLPC   H6X 6760   4.661   1.005   6.422  2.3059 -0.8747 -1.2757
   75SLPC   H6Y 6761   4.512   0.905   6.429  0.3216  1.3185 -0.3464
   75SLPC   C37 6762   4.674   0.811   6.317 -1.2930 -0.5210  0.4645
   75SLPC   H7X 6763   4.662   0.704   6.343 -0.1062 -0.8305 -0.1833
   75SLPC   H7Y 6764   4.783   0.827   6.305 -1.5246 -0.2786 -1.7386
   75SLPC   C38 6765   4.619   0.840   6.183  0.1419 -0.1571  0.2147
   75SLPC   H8X 6766   4.630   0.948   6.159 -0.5575  0.0231  0.6653
   75SLPC   H8Y 6767   4.513   0.809   6.186  0.0295  0.1728 -0.3230
   75SLPC   C39 6768   4.682   0.758   6.071  0.1980  0.4388 -0.3411
   75SLPC   H9X 6769   4.660   0.652   6.096 -3.0477  1.5585  2.1933
   75SLPC   H9Y 6770   4.792   0.761   6.079  0.1662 -0.7957  0.8988
   75SLPC  C310 6771   4.636   0.795   5.929  0.5915  0.1802 -0.3166
   75SLPC  H10X 6772   4.702   0.730   5.869  0.1410  0.3894 -1.0441
   75SLPC  H10Y 6773   4.658   0.899   5.899  1.4385 -0.1683 -0.9567
   75SLPC  C311 6774   4.492   0.753   5.895 -0.2470  0.7913  0.6739
   75SLPC  H11X 6775   4.417   0.819   5.946 -1.9105  0.4647 -1.2218
   75SLPC  H11Y 6776   4.467   0.649   5.924  0.8847 -0.2446 -1.8646
   75SLPC  C312 6777   4.457   0.752   5.739 -0.2570  0.2137 -0.1644
   75SLPC  H12X 6778   4.470   0.858   5.709  0.7467  0.3410  0.6569
   75SLPC  H12Y 6779   4.351   0.721   5.726 -1.1190  2.3637  1.3101
   75SLPC  C313 6780   4.533   0.653   5.652  0.5223  0.3618  0.0762
   75SLPC  H13X 6781   4.530   0.551   5.696  0.8326  1.1540  2.0326
   75SLPC  H13Y 6782   4.639   0.686   5.654 -0.1858  2.9057 -0.2682
   75SLPC  C314 6783   4.491   0.664   5.506  0.2963  0.7266 -0.4244
   75SLPC  H14X 6784   4.557   0.597   5.447 -2.0815 -1.6043 -0.6232
   75SLPC  H14Y 6785   4.497   0.770   5.473  0.5414  1.3721  1.5689
   75SLPC  C315 6786   4.347   0.608   5.482 -0.2994 -0.1009  0.3512
   75SLPC  H15X 6787   4.288   0.693   5.523  0.6833  0.9333 -0.3128
   75SLPC  H15Y 6788   4.332   0.513   5.537  0.3426 -1.1858 -1.2528
   75SLPC  C316 6789   4.309   0.596   5.336 -0.1349 -0.4876 -0.1039
   75SLPC  H16X 6790   4.325   0.700   5.301  0.0573  0.0379  1.4607
   75SLPC  H16Y 6791   4.203   0.564   5.320  0.0751 -0.6744 -1.2526
   75SLPC  C317 6792   4.384   0.477   5.261 -0.3569 -0.2351  0.0312
   75SLPC  H17X 6793   4.334   0.384   5.297  0.6424 -1.1981 -1.0121
   75SLPC  H17Y 6794   4.490   0.472   5.293 -0.4910  1.6304  0.9001
   75SLPC  C318 6795   4.374   0.487   5.110 -0.2822  0.4751  0.2443
   75SLPC  H18X 6796   4.433   0.574   5.075 -1.6917  1.6416  0.6765
   75SLPC  H18Y 6797   4.270   0.512   5.081 -0.0138  1.7525  0.3292
   75SLPC  H18Z 6798   4.423   0.404   5.054  0.9395 -0.1219  2.0946
   76SLPC     N 6799   5.182   2.042   7.464 -0.4019  0.0898 -0.2468
   76SLPC   C13 6800   5.046   2.002   7.416  0.0333  0.2426 -0.3629
   76SLPC  H13A 6801   4.995   1.925   7.473 -0.9774  0.6290 -0.7263
   76SLPC  H13B 6802   4.967   2.075   7.429 -0.6821 -0.7277  1.0956
   76SLPC  H13C 6803   5.048   1.975   7.312  2.4950 -0.6626 -0.1511
   76SLPC   C14 6804   5.256   2.107   7.354  0.0018 -0.2821 -1.1956
   76SLPC  H14A 6805   5.340   2.162   7.391 -1.2073  1.4110 -0.8463
   76SLPC  H14B 6806   5.295   2.036   7.282 -0.7728 -1.2045 -0.7320
   76SLPC  H14C 6807   5.190   2.178   7.305  1.2922  1.4625 -0.4928
   76SLPC   C15 6808   5.260   1.920   7.502  0.1967  0.0570 -0.7645
   76SLPC  H15A 6809   5.262   1.853   7.417  0.7606 -1.5993  0.5126
   76SLPC  H15B 6810   5.366   1.940   7.511  0.1963 -0.4984  0.8267
   76SLPC  H15C 6811   5.221   1.869   7.589 -0.8196  0.0584 -1.2026
   76SLPC   C12 6812   5.160   2.125   7.587 -0.4231 -0.1737  0.8735
   76SLPC  H12A 6813   5.123   2.056   7.662  0.9517 -0.1825  1.5700
   76SLPC  H12B 6814   5.076   2.191   7.567 -1.2245 -1.9339 -2.2885
   76SLPC   C11 6815   5.282   2.203   7.639  0.2208  0.2483 -0.2943
   76SLPC  H11A 6816   5.372   2.145   7.610  0.1683 -0.7221  1.3445
   76SLPC  H11B 6817   5.286   2.204   7.750 -1.5329  0.4566 -0.2088
   76SLPC     P 6818   5.405   2.419   7.531  0.0324 -0.2681 -0.1659
   76SLPC   O13 6819   5.376   2.561   7.531 -0.7291 -0.6247  0.0197
   76SLPC   O14 6820   5.525   2.375   7.604  0.1928 -0.2622  0.2227
   76SLPC   O12 6821   5.278   2.339   7.589 -0.4015  0.4411 -0.0140
   76SLPC   O11 6822   5.410   2.378   7.377 -0.7838 -0.6119  0.0065
   76SLPC    C1 6823   5.504   2.417   7.284  0.0986 -0.2794 -0.0946
   76SLPC    HA 6824   5.464   2.503   7.227  2.6330  1.5638  0.7193
   76SLPC    HB 6825   5.599   2.451   7.330 -0.2451  0.9699 -0.2718
   76SLPC    C2 6826   5.537   2.300   7.189 -0.6003  1.3142  0.4364
   76SLPC    HS 6827   5.617   2.330   7.118  0.7944 -2.0983  0.3471
   76SLPC   O21 6828   5.427   2.241   7.119  0.0379  0.4864 -0.0794
   76SLPC   C21 6829   5.390   2.307   7.014 -0.6163 -0.2371 -0.7608
   76SLPC   O22 6830   5.443   2.405   6.969  0.3619  0.5633 -0.0477
   76SLPC   C22 6831   5.271   2.239   6.950 -0.0364  0.3740 -0.4862
   76SLPC   H2R 6832   5.311   2.136   6.943  0.3507  0.6442 -3.0507
   76SLPC   H2S 6833   5.188   2.229   7.023 -0.8094  0.7828 -1.2966
   76SLPC    C3 6834   5.609   2.183   7.263  0.4568  0.5854  0.3031
   76SLPC    HX 6835   5.534   2.124   7.321  0.6372 -0.9987 -0.9774
   76SLPC    HY 6836   5.669   2.233   7.341 -2.4865  2.2584  1.6898
   76SLPC   O31 6837   5.688   2.088   7.181 -0.4646  0.2469  0.5094
   76SLPC   C31 6838   5.612   1.987   7.129  0.0337 -0.0878  0.4997
   76SLPC   O32 6839   5.495   1.966   7.142  0.2081 -0.5321 -0.3002
   76SLPC   C32 6840   5.718   1.902   7.048  0.5708 -0.4568  0.1309
   76SLPC   H2X 6841   5.745   1.817   7.114  1.4378 -1.3700 -1.3372
   76SLPC   H2Y 6842   5.798   1.975   7.024 -1.0140  0.7156 -1.9205
   76SLPC   C23 6843   5.208   2.288   6.816  0.1295 -0.2070 -0.5822
   76SLPC   H3R 6844   5.156   2.385   6.831 -0.7530 -0.4708 -1.7462
   76SLPC   H3S 6845   5.128   2.216   6.787 -0.2777 -0.5009  1.1119
   76SLPC   C24 6846   5.318   2.309   6.701 -0.0700 -0.2945  0.3497
   76SLPC   H4R 6847   5.405   2.239   6.706 -0.7880 -1.1185  2.3143
   76SLPC   H4S 6848   5.352   2.413   6.720 -2.4064  0.4163  0.9342
   76SLPC   C25 6849   5.244   2.308   6.566  0.0732 -0.3305 -0.0284
   76SLPC   H5R 6850   5.160   2.380   6.574  0.8291  0.7298 -1.2472
   76SLPC   H5S 6851   5.210   2.204   6.545 -0.1629 -0.2004 -0.3029
   76SLPC   C26 6852   5.337   2.351   6.454  0.2030 -0.2728 -0.9006
   76SLPC   H6R 6853   5.432   2.293   6.462 -0.7564 -2.0005 -1.3626
   76SLPC   H6S 6854   5.354   2.460   6.464 -0.1037 -0.3484  0.7838
   76SLPC   C27 6855   5.278   2.313   6.318 -0.5907 -0.6268  0.2081
   76SLPC   H7R 6856   5.176   2.357   6.313  0.0682  0.8980 -0.4819
   76SLPC   H7S 6857   5.269   2.203   6.307 -0.9475 -0.4959 -0.8747
   76SLPC   C28 6858   5.368   2.359   6.202 -0.9670 -0.0748 -0.1023
   76SLPC   H8R 6859   5.448   2.282   6.200 -1.0048 -0.1132 -0.1458
   76SLPC   H8S 6860   5.415   2.457   6.227 -1.8766  0.1155  0.9287
   76SLPC   C29 6861   5.301   2.380   6.066  0.5868  0.1496 -0.6196
   76SLPC   H9R 6862   5.276   2.483   6.039 -1.6338  0.2707  1.5416
   76SLPC  C210 6863   5.262   2.279   5.986  0.6251  0.3565  0.1830
   76SLPC  H10R 6864   5.215   2.305   5.891 -1.5008  1.2989  1.4177
   76SLPC  C211 6865   5.284   2.125   6.007 -0.3790 -0.8150 -0.6695
   76SLPC  H11R 6866   5.310   2.083   6.106  2.3414 -0.7191 -1.2771
   76SLPC  H11S 6867   5.369   2.089   5.946  0.3188 -1.6633  0.7518
   76SLPC  C212 6868   5.156   2.063   5.956  1.2116  0.1849  0.1502
   76SLPC  H12R 6869   5.082   2.039   6.035 -0.0194  0.6222 -0.8308
   76SLPC  C213 6870   5.124   2.034   5.827 -0.4619 -0.1028 -0.0580
   76SLPC  H13R 6871   5.032   1.979   5.803 -0.8685  1.0526 -1.2821
   76SLPC  C214 6872   5.215   2.053   5.704  0.3164 -0.2101  0.1182
   76SLPC  H14R 6873   5.274   1.960   5.695  0.1024 -0.4050  0.7129
   76SLPC  H14S 6874   5.278   2.141   5.730 -4.9630  3.6671  1.6104
   76SLPC  C215 6875   5.131   2.046   5.573  0.1431  0.7519 -0.1809
   76SLPC  H15R 6876   5.071   2.139   5.561  0.4331  1.2435  1.8501
   76SLPC  H15S 6877   5.073   1.953   5.590  2.2200 -0.2382  1.9671
   76SLPC  C216 6878   5.219   2.016   5.450 -0.1780 -0.4024 -0.0817
   76SLPC  H16R 6879   5.266   1.916   5.454  1.3889  0.2643 -1.0198
   76SLPC  H16S 6880   5.298   2.094   5.450 -1.1537  0.6577  1.7337
   76SLPC  C217 6881   5.151   2.027   5.306 -0.5527 -0.7978  0.3300
   76SLPC  H17R 6882   5.101   1.932   5.276 -0.5168 -0.0567 -2.3620
   76SLPC  H17S 6883   5.237   2.039   5.237  0.5427  1.7823  1.9905
   76SLPC  C218 6884   5.054   2.140   5.287  0.5449  0.3390  0.0419
   76SLPC  H18R 6885   4.968   2.130   5.356  1.6997  0.3208  1.5226
   76SLPC  H18S 6886   5.018   2.136   5.182  1.7911 -0.4385 -0.3737
   76SLPC  H18T 6887   5.107   2.232   5.318  3.0291 -0.7928 -0.6103
   76SLPC   C33 6888   5.665   1.846   6.915  0.0277  0.4956  0.0018
   76SLPC   H3X 6889   5.557   1.824   6.928 -0.3012  1.6735 -0.5920
   76SLPC   H3Y 6890   5.717   1.754   6.879  1.1035  1.5214 -1.1687
   76SLPC   C34 6891   5.688   1.938   6.807 -0.5883 -0.6562 -0.1971
   76SLPC   H4X 6892   5.797   1.956   6.810 -0.1223 -2.8830  4.2295
   76SLPC   H4Y 6893   5.624   2.028   6.819  1.2168  0.5110  1.2635
   76SLPC   C35 6894   5.641   1.875   6.679  0.6640  0.5482  0.2318
   76SLPC   H5X 6895   5.531   1.862   6.681  0.3821  2.3288 -1.1729
   76SLPC   H5Y 6896   5.693   1.777   6.670  0.0044  0.2824 -0.9412
   76SLPC   C36 6897   5.674   1.964   6.556 -0.3964  0.4911  0.5713
   76SLPC   H6X 6898   5.781   1.993   6.560 -0.6992  1.5486  2.2956
   76SLPC   H6Y 6899   5.608   2.053   6.550  0.6849  1.3261  0.7231
   76SLPC   C37 6900   5.663   1.876   6.428 -0.2003 -0.0514  0.4705
   76SLPC   H7X 6901   5.571   1.815   6.427  0.9489 -1.8477  0.8447
   76SLPC   H7Y 6902   5.750   1.808   6.433  0.1464  0.4191  0.9623
   76SLPC   C38 6903   5.659   1.947   6.284 -0.0871 -0.0561 -0.1194
   76SLPC   H8X 6904   5.751   2.009   6.274  0.4652 -1.1900 -3.3318
   76SLPC   H8Y 6905   5.569   2.010   6.272 -1.2697 -1.7329 -0.4885
   76SLPC   C39 6906   5.643   1.845   6.176  1.1264  0.1967 -0.1058
   76SLPC   H9X 6907   5.553   1.781   6.186  0.8416  0.4083 -1.2615
   76SLPC   H9Y 6908   5.733   1.780   6.177  0.6342 -0.6546 -3.0387
   76SLPC  C310 6909   5.624   1.917   6.041 -0.3742  0.2762  0.3868
   76SLPC  H10X 6910   5.710   1.987   6.036  0.3074 -0.2125  3.3361
   76SLPC  H10Y 6911   5.530   1.976   6.036  1.2780  3.5995  3.7970
   76SLPC  C311 6912   5.625   1.813   5.916 -0.4073 -0.0582 -0.2223
   76SLPC  H11X 6913   5.531   1.753   5.913  0.7549 -1.9684  0.2267
   76SLPC  H11Y 6914   5.715   1.749   5.925  0.5548  1.1301 -1.0442
   76SLPC  C312 6915   5.613   1.879   5.775 -0.7657 -0.0308  0.2008
   76SLPC  H12X 6916   5.704   1.939   5.754 -1.6244  0.5507 -2.1173
   76SLPC  H12Y 6917   5.523   1.944   5.773 -1.3668 -0.7032  2.3584
   76SLPC  C313 6918   5.620   1.774   5.661 -0.3397  0.0145 -0.4787
   76SLPC  H13X 6919   5.542   1.700   5.689  1.3001 -1.8442 -0.6005
   76SLPC  H13Y 6920   5.714   1.715   5.660  0.8996  1.9065 -0.9280
   76SLPC  C314 6921   5.620   1.845   5.524  0.2998  0.5024  0.2680
   76SLPC  H14X 6922   5.702   1.918   5.508 -0.0325  0.6753 -0.7556
   76SLPC  H14Y 6923   5.525   1.903   5.517  0.4145  0.7977  1.0839
   76SLPC  C315 6924   5.615   1.742   5.416  0.1853  0.1513  0.1670
   76SLPC  H15X 6925   5.512   1.699   5.411  0.0972  0.4254 -0.5828
   76SLPC  H15Y 6926   5.687   1.662   5.444 -0.4782 -0.1719  1.0135
   76SLPC  C316 6927   5.627   1.780   5.267  0.0989 -0.8559  0.3548
   76SLPC  H16X 6928   5.629   1.686   5.207 -0.6946 -0.1837 -0.7525
   76SLPC  H16Y 6929   5.729   1.821   5.258  0.8915 -2.1009  2.6902
   76SLPC  C317 6930   5.518   1.884   5.222 -0.7104 -0.2135 -0.1871
   76SLPC  H17X 6931   5.536   1.986   5.264  1.7594 -0.7799  0.2572
   76SLPC  H17Y 6932   5.414   1.860   5.255 -0.7085  0.3665  0.2616
   76SLPC  C318 6933   5.510   1.883   5.064 -0.3036  0.5877 -0.2107
   76SLPC  H18X 6934   5.479   1.782   5.030 -1.7740  0.2913  1.8427
   76SLPC  H18Y 6935   5.608   1.914   5.022  0.0741 -0.1764  0.0852
   76SLPC  H18Z 6936   5.438   1.959   5.028  1.6794  2.8079  0.2162
   77SLPC     N 6937   4.662   0.134   7.575 -0.1324  0.1825  0.2650
   77SLPC   C13 6938   4.568   0.211   7.648  0.1768 -0.1984  0.1390
   77SLPC  H13A 6939   4.487   0.234   7.581 -1.2245 -3.4596  0.5339
   77SLPC  H13B 6940   4.518   0.151   7.722 -2.2570 -0.4708 -1.6078
   77SLPC  H13C 6941   4.603   0.302   7.694 -1.2061  1.2264 -1.5037
   77SLPC   C14 6942   4.760   0.079   7.671 -0.6433 -0.5403  0.4696
   77SLPC  H14A 6943   4.704   0.014   7.736  2.7241 -0.7812  3.3917
   77SLPC  H14B 6944   4.840   0.021   7.627  1.1908  0.4759  2.3000
   77SLPC  H14C 6945   4.819   0.151   7.726  2.6190 -0.5799 -2.5720
   77SLPC   C15 6946   4.738   0.217   7.473  0.6314  0.4485  0.0195
   77SLPC  H15A 6947   4.669   0.276   7.414 -1.1151  0.2984  1.8029
   77SLPC  H15B 6948   4.808   0.283   7.523  0.2820  1.0877 -0.3197
   77SLPC  H15C 6949   4.804   0.156   7.413 -0.1417 -1.5422  1.1093
   77SLPC   C12 6950   4.585   0.013   7.513  0.3204 -1.0425 -0.2719
   77SLPC  H12A 6951   4.495   0.051   7.465 -1.1450 -2.8700  0.8908
   77SLPC  H12B 6952   4.545  -0.031   7.603 -0.4938  0.1759 -0.0102
   77SLPC   C11 6953   4.652  -0.097   7.437  0.5298 -0.2392  0.8040
   77SLPC  H11A 6954   4.714  -0.041   7.364 -0.0457  1.1728  1.3616
   77SLPC  H11B 6955   4.575  -0.145   7.372  0.0958  2.0800 -0.4976
   77SLPC     P 6956   4.664  -0.311   7.584  0.2894 -0.0676 -0.0028
   77SLPC   O13 6957   4.751  -0.365   7.690  0.7423  0.0837  0.2161
   77SLPC   O14 6958   4.520  -0.286   7.606  0.8651 -0.4904  0.0250
   77SLPC   O12 6959   4.734  -0.191   7.516  0.0164 -0.4592  0.3115
   77SLPC   O11 6960   4.679  -0.424   7.478 -0.4920 -0.3526 -0.1689
   77SLPC    C1 6961   4.808  -0.432   7.409 -0.2929 -0.3259  0.2484
   77SLPC    HA 6962   4.895  -0.399   7.470  0.8023 -1.7806 -0.4523
   77SLPC    HB 6963   4.836  -0.539   7.397  1.5460 -0.2314  2.9261
   77SLPC    C2 6964   4.815  -0.356   7.270  0.6562  0.0547 -0.0916
   77SLPC    HS 6965   4.818  -0.249   7.298 -1.4867  0.1807 -0.2072
   77SLPC   O21 6966   4.700  -0.388   7.188  0.3211 -0.0832  0.3207
   77SLPC   C21 6967   4.645  -0.284   7.120 -0.3720 -0.1276 -0.3065
   77SLPC   O22 6968   4.703  -0.175   7.104  0.2039  0.6930 -0.0198
   77SLPC   C22 6969   4.503  -0.326   7.071  0.4670 -0.1089  0.1156
   77SLPC   H2R 6970   4.443  -0.347   7.161 -0.1913 -0.6861 -0.4499
   77SLPC   H2S 6971   4.467  -0.237   7.015  1.5048 -1.0302 -2.1878
   77SLPC    C3 6972   4.948  -0.389   7.189 -0.8624 -1.3301 -0.0607
   77SLPC    HX 6973   4.959  -0.498   7.170 -0.0427 -1.0266 -1.4644
   77SLPC    HY 6974   5.030  -0.348   7.251 -0.2738 -0.0935 -1.5848
   77SLPC   O31 6975   4.936  -0.329   7.064 -0.3984  0.1798  0.6871
   77SLPC   C31 6976   5.002  -0.212   7.039  0.1938  1.6242 -0.3002
   77SLPC   O32 6977   5.075  -0.155   7.118 -0.2846  0.4056 -0.4230
   77SLPC   C32 6978   4.988  -0.185   6.889  0.1504 -0.1616  0.2412
   77SLPC   H2X 6979   4.887  -0.147   6.864 -0.0327  1.5943  3.1734
   77SLPC   H2Y 6980   5.017  -0.269   6.823  0.7111 -0.1596  0.4746
   77SLPC   C23 6981   4.501  -0.436   6.968 -0.5052  0.0261  0.3417
   77SLPC   H3R 6982   4.405  -0.458   6.917 -0.5262  0.0698  0.3628
   77SLPC   H3S 6983   4.541  -0.530   7.013  0.0038 -0.6098 -1.3495
   77SLPC   C24 6984   4.603  -0.401   6.847 -0.2646  0.2775 -0.1118
   77SLPC   H4R 6985   4.707  -0.394   6.887 -1.0082 -0.0171  1.9873
   77SLPC   H4S 6986   4.577  -0.298   6.813  0.6769  0.3172 -0.7639
   77SLPC   C25 6987   4.610  -0.500   6.731  0.2038 -0.3583 -0.5496
   77SLPC   H5R 6988   4.511  -0.500   6.680  0.0134  0.1748 -0.1894
   77SLPC   H5S 6989   4.625  -0.598   6.781  1.1505  1.7546  3.7853
   77SLPC   C26 6990   4.720  -0.470   6.637  0.3543 -0.8071 -0.0793
   77SLPC   H6R 6991   4.742  -0.362   6.622 -2.1488 -0.2909 -0.5307
   77SLPC   H6S 6992   4.707  -0.513   6.535  0.5076  1.5015 -1.1225
   77SLPC   C27 6993   4.853  -0.530   6.682  0.2292 -0.0155 -0.2251
   77SLPC   H7R 6994   4.832  -0.636   6.708 -2.3192  0.2247 -1.0168
   77SLPC   H7S 6995   4.899  -0.475   6.767  0.2726 -1.5929  0.8234
   77SLPC   C28 6996   4.959  -0.511   6.570 -0.0372  0.5557  0.2971
   77SLPC   H8R 6997   5.055  -0.528   6.622 -0.6281  1.7326  1.8468
   77SLPC   H8S 6998   4.960  -0.407   6.531  1.1562  1.3204  2.2295
   77SLPC   C29 6999   4.954  -0.613   6.456 -0.2047  0.1145 -0.0448
   77SLPC   H9R 7000   4.997  -0.713   6.469  1.1204  0.9141  2.3064
   77SLPC  C210 7001   4.907  -0.577   6.329 -0.4862 -0.1056  0.1338
   77SLPC  H10R 7002   4.925  -0.652   6.250  1.8235 -0.0054  0.4949
   77SLPC  C211 7003   4.869  -0.445   6.276 -0.0249 -0.4427 -0.3743
   77SLPC  H11R 7004   4.813  -0.379   6.347  1.7302  0.7537 -0.0478
   77SLPC  H11S 7005   4.792  -0.470   6.200  0.1158 -1.0035 -0.3378
   77SLPC  C212 7006   4.977  -0.358   6.223 -0.5722  0.1414 -0.1056
   77SLPC  H12R 7007   5.070  -0.355   6.281  1.2038 -1.1453 -2.6720
   77SLPC  C213 7008   4.988  -0.282   6.112 -0.1381  0.1665  0.3156
   77SLPC  H13R 7009   5.071  -0.210   6.113  0.2650 -0.2910 -0.0233
   77SLPC  C214 7010   4.867  -0.260   6.025  0.3139 -0.3089 -0.0472
   77SLPC  H14R 7011   4.836  -0.158   6.057  0.3045 -0.2477 -0.2536
   77SLPC  H14S 7012   4.779  -0.324   6.051  0.1466  0.4041  1.2819
   77SLPC  C215 7013   4.899  -0.270   5.875  0.0859  0.2126  0.1539
   77SLPC  H15R 7014   4.901  -0.378   5.849 -0.7807  0.1820  0.1868
   77SLPC  H15S 7015   5.006  -0.256   5.852  0.4164 -1.5925  0.4389
   77SLPC  C216 7016   4.802  -0.206   5.781  0.1437 -0.6021  0.5862
   77SLPC  H16R 7017   4.787  -0.098   5.804 -3.2044 -0.6363 -0.9040
   77SLPC  H16S 7018   4.706  -0.256   5.800 -1.8807  3.0270  0.8544
   77SLPC  C217 7019   4.850  -0.206   5.636  0.0786  0.3572 -0.2330
   77SLPC  H17R 7020   4.767  -0.177   5.567 -0.6400 -1.1610 -0.0578
   77SLPC  H17S 7021   4.869  -0.312   5.606  2.4006  0.2836  1.2525
   77SLPC  C218 7022   4.970  -0.114   5.597 -0.9933  0.4984  0.7809
   77SLPC  H18R 7023   5.057  -0.140   5.662  0.3178  0.7820 -0.7957
   77SLPC  H18S 7024   4.944  -0.006   5.597 -0.9492  0.5317 -0.9340
   77SLPC  H18T 7025   4.996  -0.137   5.492 -0.6696 -0.1809  1.0021
   77SLPC   C33 7026   5.083  -0.064   6.856 -0.2408  0.1915 -0.1417
   77SLPC   H3X 7027   5.185  -0.083   6.894  0.3384  1.5874 -0.9453
   77SLPC   H3Y 7028   5.045   0.024   6.912  1.2207  0.2349  0.8406
   77SLPC   C34 7029   5.114  -0.050   6.709  0.1123  0.5563 -1.2200
   77SLPC   H4X 7030   5.029  -0.020   6.644 -0.0815  2.5018 -0.1463
   77SLPC   H4Y 7031   5.145  -0.148   6.669 -2.6565  0.1914 -2.7339
   77SLPC   C35 7032   5.223   0.059   6.690  0.9392  0.9954 -0.3361
   77SLPC   H5X 7033   5.322   0.013   6.707  1.2811  2.0229  0.5461
   77SLPC   H5Y 7034   5.203   0.139   6.765 -0.1295 -0.1439  0.6258
   77SLPC   C36 7035   5.216   0.118   6.548  0.2268  0.3966  0.0858
   77SLPC   H6X 7036   5.113   0.147   6.518 -0.0515  1.3456  1.8514
   77SLPC   H6Y 7037   5.257   0.050   6.470  0.1684  0.8977 -0.3941
   77SLPC   C37 7038   5.292   0.248   6.536  0.2238  0.3189 -0.4538
   77SLPC   H7X 7039   5.402   0.242   6.550  0.1123  1.4266  1.2549
   77SLPC   H7Y 7040   5.251   0.315   6.615  2.2119 -0.5307  1.4191
   77SLPC   C38 7041   5.268   0.316   6.398  0.3479  0.5221  0.0707
   77SLPC   H8X 7042   5.270   0.427   6.410  0.3134  0.3233  2.3698
   77SLPC   H8Y 7043   5.164   0.291   6.368 -0.0417 -1.7863  2.8828
   77SLPC   C39 7044   5.351   0.250   6.287 -0.0851 -0.0376 -0.5247
   77SLPC   H9X 7045   5.319   0.144   6.277 -3.7430  1.0537 -1.9831
   77SLPC   H9Y 7046   5.458   0.262   6.314  0.8667 -2.2553 -2.9022
   77SLPC  C310 7047   5.334   0.329   6.154  0.2018  0.8151  0.4248
   77SLPC  H10X 7048   5.394   0.422   6.154  0.9895  0.3307 -1.0796
   77SLPC  H10Y 7049   5.231   0.369   6.146  0.3547  0.9686 -0.9414
   77SLPC  C311 7050   5.373   0.255   6.029  0.4489 -0.4086  0.3043
   77SLPC  H11X 7051   5.315   0.160   6.038 -0.3889  0.0576  0.0009
   77SLPC  H11Y 7052   5.480   0.227   6.020  0.6737  0.5259 -0.0349
   77SLPC  C312 7053   5.316   0.316   5.896  0.2484  0.1882 -0.6264
   77SLPC  H12X 7054   5.206   0.320   5.915  0.1071 -1.4611 -0.9631
   77SLPC  H12Y 7055   5.342   0.252   5.810 -0.1998  0.2362 -0.8015
   77SLPC  C313 7056   5.342   0.463   5.871  0.3096  0.2397 -0.5932
   77SLPC  H13X 7057   5.301   0.531   5.949  0.9784  0.2994 -0.2851
   77SLPC  H13Y 7058   5.301   0.489   5.771 -2.1410 -0.2288  0.2179
   77SLPC  C314 7059   5.492   0.487   5.865 -0.7925 -0.4692  0.0264
   77SLPC  H14X 7060   5.551   0.425   5.795  0.3847  3.2480 -2.5729
   77SLPC  H14Y 7061   5.533   0.474   5.968 -0.1576 -0.0039 -0.1583
   77SLPC  C315 7062   5.528   0.631   5.827 -0.9150  0.4240  0.1419
   77SLPC  H15X 7063   5.479   0.707   5.891  1.2038 -0.0621  2.5113
   77SLPC  H15Y 7064   5.491   0.642   5.723 -2.7704 -1.9317  0.4668
   77SLPC  C316 7065   5.683   0.646   5.844  0.6428 -0.3848 -0.1156
   77SLPC  H16X 7066   5.738   0.564   5.794 -2.3604 -2.3435 -0.4545
   77SLPC  H16Y 7067   5.701   0.629   5.952  0.1844  0.3213  0.0836
   77SLPC  C317 7068   5.736   0.788   5.805 -0.6408  0.8323  0.5067
   77SLPC  H17X 7069   5.677   0.865   5.858  1.8342  2.1074  1.5134
   77SLPC  H17Y 7070   5.734   0.798   5.694 -0.1191  0.8420  0.4993
   77SLPC  C318 7071   5.885   0.796   5.837  0.4786 -0.8411 -0.4251
   77SLPC  H18X 7072   5.926   0.895   5.808  1.3767 -1.2694 -0.6658
   77SLPC  H18Y 7073   5.942   0.721   5.777  2.9405 -0.9613  1.8408
   77SLPC  H18Z 7074   5.911   0.765   5.941  1.0876 -0.9138 -0.5944
   78SLPC     N 7075   2.054   3.970   7.771 -0.1627 -0.6772  0.0690
   78SLPC   C13 7076   2.166   4.013   7.864 -0.1007  0.1629  0.1250
   78SLPC  H13A 7077   2.233   3.929   7.877  0.6415  1.0263  2.3266
   78SLPC  H13B 7078   2.220   4.095   7.819 -0.7661  0.1549 -0.7173
   78SLPC  H13C 7079   2.128   4.048   7.959  0.5438 -0.1115  0.4879
   78SLPC   C14 7080   1.969   4.092   7.739 -0.2723  0.6280 -0.0500
   78SLPC  H14A 7081   1.899   4.082   7.657  0.0020  3.3238 -0.7268
   78SLPC  H14B 7082   1.908   4.119   7.824 -2.6800 -1.4142 -1.0088
   78SLPC  H14C 7083   2.027   4.181   7.715  0.9022 -0.5407 -1.8421
   78SLPC   C15 7084   1.960   3.879   7.842 -0.1036  0.9227  0.4737
   78SLPC  H15A 7085   1.880   3.838   7.782 -0.5343  0.2998  1.4543
   78SLPC  H15B 7086   2.009   3.790   7.879  0.3955  1.4269  1.0425
   78SLPC  H15C 7087   1.911   3.916   7.931 -0.5388  1.8159 -0.1209
   78SLPC   C12 7088   2.102   3.893   7.645  0.8628  0.3033 -0.3364
   78SLPC  H12A 7089   2.010   3.866   7.594 -0.1427  0.2973  1.3883
   78SLPC  H12B 7090   2.147   3.798   7.671  2.2841  0.5687 -1.6911
   78SLPC   C11 7091   2.196   3.964   7.547  0.5348 -0.4567  0.2229
   78SLPC  H11A 7092   2.216   3.895   7.462  0.1305 -1.7297  1.1271
   78SLPC  H11B 7093   2.297   3.977   7.592  0.3140 -0.3282  0.6820
   78SLPC     P 7094   2.057   4.107   7.364 -0.1881 -0.1894  0.4987
   78SLPC   O13 7095   1.978   3.987   7.335 -0.0594 -0.0537 -0.1479
   78SLPC   O14 7096   1.981   4.231   7.383  0.2266  0.0843 -0.2635
   78SLPC   O12 7097   2.141   4.090   7.499  0.1398 -0.2976  0.2810
   78SLPC   O11 7098   2.175   4.117   7.257  0.6259 -0.3052  0.0894
   78SLPC    C1 7099   2.301   4.178   7.287 -1.3359  0.0803 -0.8864
   78SLPC    HA 7100   2.319   4.173   7.397 -2.0865  0.7583 -0.7213
   78SLPC    HB 7101   2.380   4.130   7.225 -1.4200  1.3476 -2.0192
   78SLPC    C2 7102   2.294   4.331   7.252 -0.2572  0.3261 -0.0384
   78SLPC    HS 7103   2.245   4.389   7.332 -1.2440  0.1469 -0.4947
   78SLPC   O21 7104   2.226   4.343   7.120 -0.1225  0.0995 -0.2167
   78SLPC   C21 7105   2.159   4.455   7.102 -0.2426  0.5073  0.4230
   78SLPC   O22 7106   2.152   4.549   7.179 -0.0444 -0.3120  0.2436
   78SLPC   C22 7107   2.099   4.462   6.963  0.4950  0.1484 -0.2349
   78SLPC   H2R 7108   2.102   4.357   6.928  0.8801 -1.0878  3.1066
   78SLPC   H2S 7109   1.995   4.500   6.973  0.7646  0.7757  0.2754
   78SLPC    C3 7110   2.443   4.383   7.250  0.4891 -0.0670 -0.0903
   78SLPC    HX 7111   2.495   4.310   7.185  0.0690 -0.9440  0.5196
   78SLPC    HY 7112   2.496   4.367   7.347  1.0099  2.4148  0.0944
   78SLPC   O31 7113   2.464   4.516   7.206 -0.3236 -0.7094 -0.5196
   78SLPC   C31 7114   2.457   4.605   7.305 -0.7352 -0.6671  0.2458
   78SLPC   O32 7115   2.408   4.580   7.415 -0.2483  0.2244  0.0028
   78SLPC   C32 7116   2.532   4.733   7.281 -0.8083  0.7129  1.2657
   78SLPC   H2X 7117   2.637   4.702   7.300 -0.9764 -0.1181  0.8884
   78SLPC   H2Y 7118   2.504   4.810   7.356 -0.5882  0.5239  1.5441
   78SLPC   C23 7119   2.190   4.539   6.859  0.1145 -0.1072  0.2100
   78SLPC   H3R 7120   2.276   4.474   6.835 -0.6863 -1.2082  0.2725
   78SLPC   H3S 7121   2.224   4.634   6.905 -1.6829  0.5140  0.3477
   78SLPC   C24 7122   2.101   4.566   6.741  0.4828 -0.4478 -0.4077
   78SLPC   H4R 7123   2.019   4.635   6.770  0.0205 -1.2639  0.2569
   78SLPC   H4S 7124   2.048   4.477   6.703 -1.0489  0.6158 -0.8642
   78SLPC   C25 7125   2.193   4.627   6.631 -0.0103  0.4871 -0.2683
   78SLPC   H5R 7126   2.265   4.545   6.610 -2.2070 -1.4027 -0.8523
   78SLPC   H5S 7127   2.247   4.717   6.668  0.2437  0.3469 -0.2967
   78SLPC   C26 7128   2.106   4.670   6.504 -0.3608  0.1124  0.5708
   78SLPC   H6R 7129   2.042   4.754   6.538  0.8044  0.9215  0.8110
   78SLPC   H6S 7130   2.041   4.585   6.472 -0.6648  0.4313  0.3410
   78SLPC   C27 7131   2.203   4.721   6.396  0.9023 -0.1918 -0.7075
   78SLPC   H7R 7132   2.287   4.655   6.369 -0.1564 -1.5538 -0.7990
   78SLPC   H7S 7133   2.238   4.819   6.434 -0.0459 -0.0382 -0.1713
   78SLPC   C28 7134   2.126   4.745   6.267 -0.2027  0.3068  0.1722
   78SLPC   H8R 7135   2.060   4.833   6.282  0.7323  0.9512  0.5974
   78SLPC   H8S 7136   2.052   4.665   6.246 -0.5791  0.5303  0.6337
   78SLPC   C29 7137   2.218   4.775   6.145 -1.1026 -0.7809 -0.1677
   78SLPC   H9R 7138   2.283   4.863   6.146 -0.2975 -1.3663  0.6609
   78SLPC  C210 7139   2.232   4.699   6.036 -0.7124  0.1905  0.2919
   78SLPC  H10R 7140   2.315   4.719   5.967  1.6705  0.3783  3.0477
   78SLPC  C211 7141   2.168   4.562   6.011 -0.0848 -0.7319  0.1855
   78SLPC  H11R 7142   2.176   4.536   5.903  0.9969 -1.6357  0.4684
   78SLPC  H11S 7143   2.059   4.572   6.031 -0.0909 -0.7740  0.1757
   78SLPC  C212 7144   2.237   4.456   6.100 -0.5478  1.0366 -0.5500
   78SLPC  H12R 7145   2.255   4.483   6.205  0.2787  0.6907 -0.5979
   78SLPC  C213 7146   2.276   4.334   6.056 -0.3955 -0.1023 -0.3838
   78SLPC  H13R 7147   2.344   4.274   6.119  1.4672  1.1356 -1.1355
   78SLPC  C214 7148   2.247   4.291   5.915  0.4229  0.6350  0.0772
   78SLPC  H14R 7149   2.287   4.188   5.902 -2.1361 -0.6204  1.2173
   78SLPC  H14S 7150   2.288   4.347   5.829 -1.6160 -0.2640 -1.5675
   78SLPC  C215 7151   2.092   4.278   5.887 -0.3491 -0.5539  1.1740
   78SLPC  H15R 7152   2.037   4.375   5.881  0.2407 -0.3034 -0.9273
   78SLPC  H15S 7153   2.040   4.222   5.968 -3.1836  0.4345  0.1705
   78SLPC  C216 7154   2.061   4.204   5.757 -0.1243 -0.5317  0.5641
   78SLPC  H16R 7155   1.955   4.169   5.761  0.2360 -1.7213  0.1290
   78SLPC  H16S 7156   2.126   4.116   5.738 -0.7546 -0.9624  0.3563
   78SLPC  C217 7157   2.088   4.300   5.634 -0.0687  0.5894 -0.1996
   78SLPC  H17R 7158   2.125   4.251   5.542  1.9728  1.5088  0.0768
   78SLPC  H17S 7159   2.187   4.346   5.657  0.7426 -0.2828 -1.7688
   78SLPC  C218 7160   1.973   4.403   5.618 -0.1996  0.3147 -0.2073
   78SLPC  H18R 7161   2.014   4.488   5.561  2.2875  0.9687  2.2893
   78SLPC  H18S 7162   1.933   4.435   5.717  2.1149 -0.4385  1.0666
   78SLPC  H18T 7163   1.891   4.364   5.555 -0.7889  2.2502 -0.6909
   78SLPC   C33 7164   2.507   4.782   7.137  0.1692  0.5265  0.1478
   78SLPC   H3X 7165   2.407   4.831   7.131  0.7473  1.6526 -0.4257
   78SLPC   H3Y 7166   2.528   4.709   7.056  1.2608  0.3766  0.5551
   78SLPC   C34 7167   2.595   4.908   7.108  0.9450 -0.2265 -0.0415
   78SLPC   H4X 7168   2.702   4.881   7.114  0.5107 -1.9356  0.5688
   78SLPC   H4Y 7169   2.573   4.985   7.184  2.1091 -1.2317  1.3626
   78SLPC   C35 7170   2.565   4.979   6.973  0.8599  0.3424 -0.2910
   78SLPC   H5X 7171   2.632   5.065   6.951  0.9047 -0.0666 -1.9529
   78SLPC   H5Y 7172   2.464   5.027   6.971  0.7563  0.1132 -0.7504
   78SLPC   C36 7173   2.567   4.884   6.858  0.0154 -0.1162 -0.2664
   78SLPC   H6X 7174   2.487   4.806   6.861  0.0745 -0.1461  0.7199
   78SLPC   H6Y 7175   2.659   4.822   6.856 -0.7991 -1.3698 -1.4934
   78SLPC   C37 7176   2.558   4.965   6.726 -0.0595 -0.7981  0.3159
   78SLPC   H7X 7177   2.635   5.045   6.728  2.9647 -3.4961  1.2562
   78SLPC   H7Y 7178   2.452   4.996   6.732 -0.3350 -1.4157 -1.0054
   78SLPC   C38 7179   2.576   4.879   6.598 -0.1022 -0.4610  0.0981
   78SLPC   H8X 7180   2.490   4.808   6.599 -1.7313  1.4194  0.5336
   78SLPC   H8Y 7181   2.676   4.831   6.605  0.0582 -0.1539 -0.0532
   78SLPC   C39 7182   2.578   4.966   6.469 -0.4487  0.1527  0.7342
   78SLPC   H9X 7183   2.656   5.044   6.478 -0.7007  0.6941 -1.2821
   78SLPC   H9Y 7184   2.480   5.014   6.446  0.1240  0.2664 -1.7188
   78SLPC  C310 7185   2.615   4.867   6.361 -0.1531  0.0888 -0.2395
   78SLPC  H10X 7186   2.544   4.782   6.362  0.4917 -0.4602  0.2550
   78SLPC  H10Y 7187   2.713   4.821   6.386  0.7443  1.5068 -1.0296
   78SLPC  C311 7188   2.631   4.936   6.223  0.2064  0.6695  0.0686
   78SLPC  H11X 7189   2.698   5.024   6.226  0.6999  0.3312 -0.7676
   78SLPC  H11Y 7190   2.534   4.985   6.198  0.0452  0.6433  0.6112
   78SLPC  C312 7191   2.682   4.834   6.125 -0.0291  0.1628 -0.2644
   78SLPC  H12X 7192   2.747   4.753   6.164 -0.4499 -0.5497 -0.9977
   78SLPC  H12Y 7193   2.733   4.897   6.049 -1.0124  0.8027 -0.4095
   78SLPC  C313 7194   2.566   4.778   6.049  0.5942  0.4861 -0.1584
   78SLPC  H13X 7195   2.481   4.845   6.028 -0.0688  1.0778  3.6983
   78SLPC  H13Y 7196   2.516   4.694   6.103  1.2577  0.6047  0.6799
   78SLPC  C314 7197   2.620   4.733   5.914  0.3669 -0.1782  0.8286
   78SLPC  H14X 7198   2.564   4.641   5.886 -2.0325  1.4722 -0.0856
   78SLPC  H14Y 7199   2.727   4.707   5.928  0.7617  0.9417  0.0575
   78SLPC  C315 7200   2.602   4.835   5.798  0.0956  0.3160  0.4622
   78SLPC  H15X 7201   2.656   4.926   5.833  0.7063  0.2450 -0.2658
   78SLPC  H15Y 7202   2.494   4.852   5.779 -0.3569  1.3967  3.5243
   78SLPC  C316 7203   2.665   4.786   5.670  0.6572 -0.3163  0.2752
   78SLPC  H16X 7204   2.648   4.865   5.593  1.2583  1.4281  1.8447
   78SLPC  H16Y 7205   2.617   4.699   5.622 -0.1354  0.1766  0.1634
   78SLPC  C317 7206   2.815   4.766   5.686  0.1418 -0.5303  0.6039
   78SLPC  H17X 7207   2.843   4.679   5.750  0.2099 -0.4741  0.6504
   78SLPC  H17Y 7208   2.868   4.854   5.728  2.7084  0.1332 -3.3928
   78SLPC  C318 7209   2.883   4.756   5.551 -0.1586 -0.0604 -0.2399
   78SLPC  H18X 7210   2.858   4.831   5.473 -0.9947 -1.8373 -1.7417
   78SLPC  H18Y 7211   2.854   4.656   5.512  0.7520  0.4633 -2.3935
   78SLPC  H18Z 7212   2.993   4.758   5.571 -0.1357  1.7220 -0.4012
   79SLPC     N 7213   6.016   1.185   7.726 -0.1460  0.0379 -0.1769
   79SLPC   C13 7214   6.053   1.042   7.759 -0.2813 -0.1447 -0.2149
   79SLPC  H13A 7215   6.161   1.038   7.770  0.1486 -1.1230 -3.6448
   79SLPC  H13B 7216   6.015   1.000   7.850 -1.3832  0.1149 -0.5484
   79SLPC  H13C 7217   6.040   0.973   7.677  0.8949 -0.2150 -0.3592
   79SLPC   C14 7218   6.062   1.276   7.838 -0.7130  0.2862  0.1657
   79SLPC  H14A 7219   6.030   1.379   7.835 -0.7244  0.2681 -2.7973
   79SLPC  H14B 7220   6.006   1.239   7.923  0.3577  0.2908  0.8933
   79SLPC  H14C 7221   6.166   1.276   7.865 -0.1646  2.2078 -1.6919
   79SLPC   C15 7222   5.866   1.202   7.712  0.3746  0.7650  0.1971
   79SLPC  H15A 7223   5.835   1.300   7.680  1.5803  2.0025  2.5293
   79SLPC  H15B 7224   5.832   1.126   7.643  0.3098  2.1920 -1.4068
   79SLPC  H15C 7225   5.815   1.186   7.806  0.3457  0.2264  0.0964
   79SLPC   C12 7226   6.077   1.227   7.594 -0.6847  0.2082 -1.6839
   79SLPC  H12A 7227   6.181   1.243   7.619 -1.1253  1.2093 -0.4091
   79SLPC  H12B 7228   6.034   1.324   7.572 -0.5129  0.8514  0.5889
   79SLPC   C11 7229   6.065   1.136   7.469  0.9695  0.7065 -0.2298
   79SLPC  H11A 7230   6.088   1.195   7.377  1.3272  2.0585  0.6956
   79SLPC  H11B 7231   5.958   1.109   7.461  1.4309 -1.9258  1.4005
   79SLPC     P 7232   6.127   0.905   7.363 -0.0037 -0.2117  0.6256
   79SLPC   O13 7233   6.181   0.777   7.411 -0.2855 -0.1693  0.5722
   79SLPC   O14 7234   5.989   0.899   7.309  0.5901  0.0893  0.0879
   79SLPC   O12 7235   6.132   1.014   7.478  0.1114  0.5353  0.6800
   79SLPC   O11 7236   6.226   0.965   7.258 -0.0657 -0.2392  0.1795
   79SLPC    C1 7237   6.348   1.029   7.292  0.0257 -0.6832 -0.2876
   79SLPC    HA 7238   6.327   1.112   7.363  2.8232  0.0094 -0.1485
   79SLPC    HB 7239   6.419   0.965   7.347  0.9383  0.0439 -0.5941
   79SLPC    C2 7240   6.424   1.095   7.171 -0.4625 -0.2256  0.1850
   79SLPC    HS 7241   6.500   1.168   7.206 -0.3062 -0.7523  0.9884
   79SLPC   O21 7242   6.336   1.161   7.080  0.2336 -0.4717 -0.4508
   79SLPC   C21 7243   6.261   1.256   7.134  0.5820  1.0438 -0.2127
   79SLPC   O22 7244   6.283   1.321   7.238  0.0266 -0.0040 -0.0503
   79SLPC   C22 7245   6.140   1.277   7.045 -0.3449 -0.6255 -0.7855
   79SLPC   H2R 7246   6.066   1.195   7.060  0.7391 -1.2038  2.1271
   79SLPC   H2S 7247   6.086   1.365   7.087 -1.7222 -1.2775 -1.1151
   79SLPC    C3 7248   6.495   0.989   7.092  0.1730 -0.3180 -0.2186
   79SLPC    HX 7249   6.415   0.915   7.068  0.7307 -1.5403  1.5585
   79SLPC    HY 7250   6.561   0.928   7.156 -3.8804 -3.1704  1.6967
   79SLPC   O31 7251   6.565   1.041   6.977 -0.6003 -0.3821 -0.1614
   79SLPC   C31 7252   6.507   1.047   6.863 -0.6691  0.6204  0.0212
   79SLPC   O32 7253   6.400   1.004   6.830 -0.8433  0.6804  0.4425
   79SLPC   C32 7254   6.607   1.109   6.763  0.1028  0.5568  0.5504
   79SLPC   H2X 7255   6.697   1.044   6.771  0.3334  0.3955 -2.2309
   79SLPC   H2Y 7256   6.633   1.211   6.798  0.5068  1.2058 -1.4624
   79SLPC   C23 7257   6.167   1.269   6.889  0.0857  0.7045  0.0466
   79SLPC   H3R 7258   6.158   1.161   6.864  1.8470  0.8018 -1.2184
   79SLPC   H3S 7259   6.267   1.304   6.856  0.2088 -0.7414 -1.2464
   79SLPC   C24 7260   6.068   1.359   6.818 -0.6301 -0.4815  0.2416
   79SLPC   H4R 7261   6.081   1.460   6.861  0.6327 -1.4558  2.3509
   79SLPC   H4S 7262   5.962   1.329   6.831 -0.7963 -0.4977 -1.0231
   79SLPC   C25 7263   6.107   1.365   6.672 -0.6892 -0.4679 -0.6444
   79SLPC   H5R 7264   6.125   1.264   6.628 -1.4112 -1.1589  0.5809
   79SLPC   H5S 7265   6.208   1.410   6.662 -0.9144  0.0013 -0.8358
   79SLPC   C26 7266   6.013   1.458   6.586  0.7908 -0.1574 -0.2087
   79SLPC   H6R 7267   6.044   1.564   6.598 -1.6892  0.4224  2.0537
   79SLPC   H6S 7268   5.910   1.460   6.628  0.4806  1.6524 -0.9487
   79SLPC   C27 7269   6.008   1.434   6.439 -0.0538  0.1662  0.5029
   79SLPC   H7R 7270   5.920   1.378   6.399  0.4150 -0.2257 -0.0041
   79SLPC   H7S 7271   6.097   1.386   6.394 -1.4256  0.1004 -2.4022
   79SLPC   C28 7272   6.010   1.560   6.346 -0.3925  0.0369  0.3458
   79SLPC   H8R 7273   6.106   1.614   6.361  0.1777 -0.6475 -0.7064
   79SLPC   H8S 7274   5.929   1.628   6.382  2.0057  1.5539  3.3647
   79SLPC   C29 7275   5.990   1.516   6.201  0.2798  0.1053 -0.1584
   79SLPC   H9R 7276   5.965   1.410   6.184 -0.8790  0.5855 -1.6381
   79SLPC  C210 7277   5.979   1.593   6.092  0.2962 -0.0325  0.3140
   79SLPC  H10R 7278   5.945   1.555   5.994  1.6456  0.9163 -0.5584
   79SLPC  C211 7279   5.997   1.742   6.086 -0.0107  0.4641  0.5531
   79SLPC  H11R 7280   5.962   1.787   6.181 -1.4329  1.0699 -0.2317
   79SLPC  H11S 7281   5.928   1.765   6.002 -0.3671 -1.8870  0.1283
   79SLPC  C212 7282   6.141   1.780   6.058  0.1598  0.1827 -0.6179
   79SLPC  H12R 7283   6.196   1.787   6.153 -1.8557  0.7089  0.5716
   79SLPC  C213 7284   6.202   1.815   5.942 -0.2473  1.1093 -0.5595
   79SLPC  H13R 7285   6.307   1.847   5.947  0.1583 -0.1721 -0.6453
   79SLPC  C214 7286   6.132   1.817   5.811 -0.6936  0.3815 -0.1750
   79SLPC  H14R 7287   6.075   1.723   5.797  0.1949 -0.0996 -0.6661
   79SLPC  H14S 7288   6.208   1.820   5.730  0.7631 -1.0632  1.0695
   79SLPC  C215 7289   6.052   1.945   5.789  0.2589  0.1972 -0.9963
   79SLPC  H15R 7290   6.132   2.017   5.815  3.3933 -2.8519 -1.4617
   79SLPC  H15S 7291   5.968   1.952   5.862  1.6249  0.6607  0.6035
   79SLPC  C216 7292   6.009   1.959   5.647  0.1710  0.0867 -0.5120
   79SLPC  H16R 7293   5.927   1.890   5.617  1.5512 -1.3926 -1.0125
   79SLPC  H16S 7294   6.098   1.939   5.584 -0.6841  0.6845 -1.9538
   79SLPC  C217 7295   5.964   2.103   5.626  0.4199 -0.2897  0.5731
   79SLPC  H17R 7296   6.057   2.163   5.632  0.9099 -0.9552 -0.1926
   79SLPC  H17S 7297   5.900   2.133   5.711 -0.7530 -0.1505 -0.3236
   79SLPC  C218 7298   5.895   2.141   5.496 -0.2649 -0.0887 -0.1007
   79SLPC  H18R 7299   5.787   2.113   5.492 -0.5968  0.9512  0.9788
   79SLPC  H18S 7300   5.943   2.065   5.431  1.2441  0.4818  0.3085
   79SLPC  H18T 7301   5.916   2.244   5.461 -1.0233  0.3540  0.7050
   79SLPC   C33 7302   6.555   1.108   6.621  0.1381 -0.5309  0.2800
   79SLPC   H3X 7303   6.451   1.145   6.626 -0.5718 -2.5324  1.4200
   79SLPC   H3Y 7304   6.542   1.011   6.569 -2.4918  1.0490 -2.2819
   79SLPC   C34 7305   6.648   1.194   6.527  0.1266  0.0235  0.1762
   79SLPC   H4X 7306   6.754   1.170   6.551 -0.2798 -1.4131  0.6257
   79SLPC   H4Y 7307   6.647   1.304   6.543 -0.8370  0.0120  0.2257
   79SLPC   C35 7308   6.636   1.163   6.378 -0.5042 -0.1409  0.5379
   79SLPC   H5X 7309   6.532   1.170   6.339 -0.6384 -0.3501  0.8596
   79SLPC   H5Y 7310   6.666   1.059   6.354  0.0395  0.4122 -1.3662
   79SLPC   C36 7311   6.718   1.257   6.281 -0.9145 -0.2793  0.2083
   79SLPC   H6X 7312   6.823   1.250   6.317 -1.2268 -0.6558  1.0695
   79SLPC   H6Y 7313   6.681   1.361   6.288 -1.1920 -0.4691  1.9160
   79SLPC   C37 7314   6.711   1.212   6.133  0.5275 -0.5483 -0.9989
   79SLPC   H7X 7315   6.630   1.264   6.079 -1.2759 -0.9840  1.0961
   79SLPC   H7Y 7316   6.690   1.103   6.138  0.1575 -0.4416  0.2320
   79SLPC   C38 7317   6.851   1.210   6.060  0.1607  0.2836 -0.3618
   79SLPC   H8X 7318   6.914   1.171   6.143 -2.5666 -1.6311  0.9720
   79SLPC   H8Y 7319   6.875   1.314   6.029 -2.2507  1.3698  1.1226
   79SLPC   C39 7320   6.862   1.115   5.943 -0.0976  0.2803 -0.2917
   79SLPC   H9X 7321   6.832   1.014   5.979  1.6566 -0.0192  0.4023
   79SLPC   H9Y 7322   6.962   1.111   5.896 -0.2823  1.0372 -0.7648
   79SLPC  C310 7323   6.767   1.154   5.824  0.1160  0.3601 -0.1055
   79SLPC  H10X 7324   6.666   1.165   5.869  0.0776  1.1549 -0.3764
   79SLPC  H10Y 7325   6.765   1.068   5.754 -0.1220 -0.0774  0.4272
   79SLPC  C311 7326   6.806   1.278   5.748  0.0397 -0.2865 -0.0691
   79SLPC  H11X 7327   6.796   1.365   5.816  1.0589  1.6351 -2.2592
   79SLPC  H11Y 7328   6.728   1.297   5.672  0.6505  0.8030 -0.4464
   79SLPC  C312 7329   6.940   1.283   5.674  0.1827 -0.6723 -0.5129
   79SLPC  H12X 7330   7.026   1.248   5.736 -0.8791 -3.1402 -0.3561
   79SLPC  H12Y 7331   6.943   1.389   5.640  0.3356 -0.1874  0.9570
   79SLPC  C313 7332   6.946   1.197   5.551 -0.0875  0.2322 -0.0803
   79SLPC  H13X 7333   6.895   1.245   5.465 -2.4255 -0.9800  0.5245
   79SLPC  H13Y 7334   6.894   1.103   5.581 -1.9075  1.1146 -0.3310
   79SLPC  C314 7335   7.078   1.148   5.509 -0.2365  0.4951 -0.2283
   79SLPC  H14X 7336   7.052   1.044   5.478  2.9682 -0.4940  0.0997
   79SLPC  H14Y 7337   7.153   1.149   5.591  0.9066 -1.6717 -1.1481
   79SLPC  C315 7338   7.135   1.235   5.390 -0.0860  0.5385  0.1757
   79SLPC  H15X 7339   7.154   1.337   5.431  3.7610  1.0838 -2.4573
   79SLPC  H15Y 7340   7.052   1.250   5.317 -1.4310  2.4689  2.0005
   79SLPC  C316 7341   7.265   1.184   5.327  0.1444  0.2870 -0.4072
   79SLPC  H16X 7342   7.348   1.172   5.400 -0.5557 -1.1638  0.1915
   79SLPC  H16Y 7343   7.314   1.263   5.265  3.2286 -0.1161  1.3157
   79SLPC  C317 7344   7.245   1.058   5.244  0.2300  0.6497 -0.2295
   79SLPC  H17X 7345   7.167   1.078   5.168  1.0809  1.1069 -0.9901
   79SLPC  H17Y 7346   7.200   0.983   5.313  2.0086  2.2134  2.8390
   79SLPC  C318 7347   7.368   1.011   5.176  0.4754 -0.1919  0.0427
   79SLPC  H18X 7348   7.406   1.096   5.116 -1.5198  1.1679  0.6042
   79SLPC  H18Y 7349   7.353   0.925   5.107  1.1297 -0.2697 -0.0086
   79SLPC  H18Z 7350   7.436   0.976   5.257 -0.5599  0.7559  1.3762
   80SLPC     N 7351   0.501   3.587   8.029  0.3154 -0.1563 -0.4713
   80SLPC   C13 7352   0.497   3.448   7.990 -0.1909  0.4233 -0.2687
   80SLPC  H13A 7353   0.401   3.425   7.946  0.0181 -0.3823 -0.3137
   80SLPC  H13B 7354   0.577   3.423   7.922 -0.7936 -1.7271 -0.2784
   80SLPC  H13C 7355   0.512   3.384   8.076 -1.0728 -1.1852 -1.2661
   80SLPC   C14 7356   0.622   3.619   8.119  0.1059  0.5908  0.8426
   80SLPC  H14A 7357   0.625   3.722   8.154  2.1678  1.2163 -0.9888
   80SLPC  H14B 7358   0.625   3.558   8.208  2.2156 -3.1379 -1.5526
   80SLPC  H14C 7359   0.711   3.605   8.060 -1.8323  0.1802 -2.1892
   80SLPC   C15 7360   0.382   3.614   8.115 -0.0062  0.2099  0.0652
   80SLPC  H15A 7361   0.376   3.715   8.155 -0.2470  0.6164 -0.9674
   80SLPC  H15B 7362   0.292   3.605   8.056 -0.0712 -0.6879  0.2881
   80SLPC  H15C 7363   0.369   3.548   8.199 -1.6279 -0.3352 -0.5811
   80SLPC   C12 7364   0.495   3.690   7.916  0.1340 -0.6657  0.0520
   80SLPC  H12A 7365   0.586   3.683   7.860  0.1705 -0.1242  0.0397
   80SLPC  H12B 7366   0.479   3.789   7.957 -3.0834 -1.3055  0.6068
   80SLPC   C11 7367   0.377   3.668   7.818 -0.1715  0.0226 -0.1572
   80SLPC  H11A 7368   0.379   3.750   7.744  2.1216 -1.4659 -1.8961
   80SLPC  H11B 7369   0.277   3.668   7.866  0.0699 -1.8458  0.4600
   80SLPC     P 7370   0.497   3.536   7.622 -0.5581 -0.1761  0.0785
   80SLPC   O13 7371   0.632   3.601   7.645 -0.0621 -0.1139 -0.1414
   80SLPC   O14 7372   0.507   3.395   7.573  0.7199 -0.1343 -0.6503
   80SLPC   O12 7373   0.396   3.550   7.743 -0.2862  0.1218 -0.1383
   80SLPC   O11 7374   0.419   3.617   7.506 -0.7084 -0.7709 -0.6590
   80SLPC    C1 7375   0.307   3.557   7.445 -0.0626  0.7842 -0.8085
   80SLPC    HA 7376   0.238   3.511   7.519  1.8376  1.9564  1.8695
   80SLPC    HB 7377   0.261   3.641   7.389 -1.8849  1.2180  1.1781
   80SLPC    C2 7378   0.336   3.454   7.338  0.1193  0.1150 -0.3337
   80SLPC    HS 7379   0.409   3.380   7.377  0.2854 -0.2791 -1.3610
   80SLPC   O21 7380   0.408   3.530   7.235  0.6785  0.0769 -0.3631
   80SLPC   C21 7381   0.471   3.459   7.154 -0.5967 -0.8341 -0.2532
   80SLPC   O22 7382   0.497   3.341   7.156  0.0046 -0.1360 -0.1125
   80SLPC   C22 7383   0.496   3.557   7.034  0.1269 -0.3357 -0.1177
   80SLPC   H2R 7384   0.399   3.585   6.989  0.8905  1.8796 -0.4804
   80SLPC   H2S 7385   0.547   3.639   7.089 -0.4919 -0.3706  0.5217
   80SLPC    C3 7386   0.202   3.386   7.283 -0.7593 -0.4614 -0.0530
   80SLPC    HX 7387   0.158   3.307   7.347  0.0845 -1.0082 -0.1330
   80SLPC    HY 7388   0.223   3.333   7.188 -0.1699  0.4797 -0.4749
   80SLPC   O31 7389   0.105   3.488   7.266  0.5726 -0.4423  0.0532
   80SLPC   C31 7390   0.096   3.539   7.142 -0.0040 -0.2437  0.1778
   80SLPC   O32 7391   0.151   3.486   7.046  0.7576 -0.8041  0.5605
   80SLPC   C32 7392   0.004   3.661   7.141  0.5121 -0.3975 -0.1223
   80SLPC   H2X 7393   0.067   3.744   7.177 -1.3331 -0.2244  3.1018
   80SLPC   H2Y 7394  -0.083   3.638   7.207  0.4815  0.6907  0.2275
   80SLPC   C23 7395   0.582   3.498   6.922  0.3061 -0.0339 -0.2161
   80SLPC   H3R 7396   0.514   3.426   6.873 -0.8924  2.5073 -2.5284
   80SLPC   H3S 7397   0.676   3.458   6.966 -1.5560 -1.6826  2.5903
   80SLPC   C24 7398   0.635   3.611   6.826  0.3747 -0.2644 -0.4337
   80SLPC   H4R 7399   0.684   3.694   6.882  0.7077  0.2799 -1.5026
   80SLPC   H4S 7400   0.544   3.651   6.776 -0.1217 -0.8491 -0.0166
   80SLPC   C25 7401   0.726   3.553   6.719 -1.0559  0.2337 -0.0095
   80SLPC   H5R 7402   0.679   3.466   6.669  0.1192  0.0675 -0.8710
   80SLPC   H5S 7403   0.819   3.520   6.770 -0.3381  2.0036 -0.0880
   80SLPC   C26 7404   0.771   3.645   6.608  0.4470 -0.8223  0.0794
   80SLPC   H6R 7405   0.829   3.726   6.659  0.2526 -1.0560  0.6698
   80SLPC   H6S 7406   0.692   3.698   6.552  3.6924  2.4636 -1.8830
   80SLPC   C27 7407   0.852   3.571   6.501  0.5923  0.1675  0.6756
   80SLPC   H7R 7408   0.924   3.501   6.549  2.2147  2.0467  1.1032
   80SLPC   H7S 7409   0.914   3.645   6.447  1.1392  0.3834  1.5803
   80SLPC   C28 7410   0.762   3.504   6.391 -0.0101 -0.4536  0.3748
   80SLPC   H8R 7411   0.708   3.416   6.433 -2.3323 -0.7042 -2.7606
   80SLPC   H8S 7412   0.827   3.453   6.317 -1.7948  1.3365 -2.6486
   80SLPC   C29 7413   0.648   3.597   6.343 -0.3087  0.3146  0.2576
   80SLPC   H9R 7414   0.563   3.601   6.412 -1.0679 -1.5009 -0.4888
   80SLPC  C210 7415   0.649   3.657   6.223  0.4112 -0.1033  0.1673
   80SLPC  H10R 7416   0.561   3.707   6.179  1.6036  1.7312 -0.2589
   80SLPC  C211 7417   0.761   3.657   6.119 -0.4968  0.0285 -0.0099
   80SLPC  H11R 7418   0.852   3.640   6.179 -1.6165 -0.8969  1.4889
   80SLPC  H11S 7419   0.773   3.759   6.077  1.1022 -0.7852 -1.6992
   80SLPC  C212 7420   0.764   3.544   6.017  0.1765  0.7472  0.8157
   80SLPC  H12R 7421   0.743   3.440   6.046 -0.2502  0.5550 -0.1386
   80SLPC  C213 7422   0.771   3.559   5.883 -0.4269 -0.5334  0.2037
   80SLPC  H13R 7423   0.776   3.467   5.823  0.3117 -0.6465  0.4279
   80SLPC  C214 7424   0.803   3.685   5.803  0.2639 -0.7232  0.1272
   80SLPC  H14R 7425   0.882   3.670   5.726 -0.2783 -0.9165 -0.4005
   80SLPC  H14S 7426   0.837   3.763   5.875 -1.7013  0.7231 -0.4359
   80SLPC  C215 7427   0.676   3.738   5.730 -0.1743 -0.3292  0.1301
   80SLPC  H15R 7428   0.694   3.835   5.680 -0.3446 -0.4950 -0.2544
   80SLPC  H15S 7429   0.594   3.755   5.803 -0.7305 -0.3085 -0.4860
   80SLPC  C216 7430   0.631   3.646   5.616 -0.1371  0.5195 -0.9551
   80SLPC  H16R 7431   0.584   3.561   5.670  0.3746  0.8223 -0.0186
   80SLPC  H16S 7432   0.713   3.606   5.552 -0.9035 -1.1650 -0.9281
   80SLPC  C217 7433   0.521   3.710   5.533  0.0748 -0.3433 -0.5374
   80SLPC  H17R 7434   0.563   3.808   5.504 -1.8720  0.5419 -0.5597
   80SLPC  H17S 7435   0.437   3.728   5.604 -1.2424 -2.4871 -1.4433
   80SLPC  C218 7436   0.480   3.625   5.413 -0.4001 -0.7838  0.6458
   80SLPC  H18R 7437   0.430   3.529   5.436 -0.1205 -1.0588  0.1267
   80SLPC  H18S 7438   0.570   3.612   5.349  0.9157 -0.9101  2.4457
   80SLPC  H18T 7439   0.407   3.674   5.344 -1.5602 -0.6781  1.9146
   80SLPC   C33 7440  -0.049   3.687   6.994  0.3928  0.9295 -0.1452
   80SLPC   H3X 7441   0.034   3.698   6.921  0.3417 -0.9575 -0.5405
   80SLPC   H3Y 7442  -0.103   3.784   7.002  0.5222  1.1424 -1.5089
   80SLPC   C34 7443  -0.160   3.592   6.950 -0.1947 -0.1670 -0.1239
   80SLPC   H4X 7444  -0.224   3.573   7.039 -0.6305 -2.2885 -0.8440
   80SLPC   H4Y 7445  -0.118   3.502   6.901  1.2727  1.2585 -1.6375
   80SLPC   C35 7446  -0.270   3.647   6.854 -0.4769  0.7447  0.2257
   80SLPC   H5X 7447  -0.281   3.752   6.890 -0.5727  0.8947 -0.2351
   80SLPC   H5Y 7448  -0.364   3.590   6.872 -0.0492 -0.3900 -0.9513
   80SLPC   C36 7449  -0.244   3.641   6.704 -0.5220 -0.7517  0.0793
   80SLPC   H6X 7450  -0.211   3.538   6.680  0.2928 -0.4373 -0.1824
   80SLPC   H6Y 7451  -0.153   3.704   6.691  0.1462 -0.8315  3.3592
   80SLPC   C37 7452  -0.354   3.695   6.614  0.1143  0.0296  0.0927
   80SLPC   H7X 7453  -0.401   3.780   6.669  3.1154  1.8851  0.0157
   80SLPC   H7Y 7454  -0.434   3.619   6.604 -0.3643  0.4987  0.3391
   80SLPC   C38 7455  -0.300   3.754   6.483  0.2434 -0.0120 -0.2406
   80SLPC   H8X 7456  -0.273   3.670   6.415  0.6760  0.1891 -0.3202
   80SLPC   H8Y 7457  -0.208   3.812   6.503 -0.4410  1.2847 -0.7140
   80SLPC   C39 7458  -0.394   3.846   6.403 -0.5937 -0.5392  0.0827
   80SLPC   H9X 7459  -0.430   3.937   6.456 -2.0990  0.2465 -2.1772
   80SLPC   H9Y 7460  -0.478   3.785   6.364  0.6970  0.3613 -4.6552
   80SLPC  C310 7461  -0.329   3.895   6.270 -0.5089 -0.1586  0.2127
   80SLPC  H10X 7462  -0.291   3.804   6.219  0.8037  1.6093 -2.1903
   80SLPC  H10Y 7463  -0.233   3.951   6.278  1.3403 -2.9800 -0.7724
   80SLPC  C311 7464  -0.425   3.951   6.167 -0.4615 -0.2697  0.2170
   80SLPC  H11X 7465  -0.511   3.880   6.168 -0.0744 -0.7416  0.3790
   80SLPC  H11Y 7466  -0.379   3.953   6.066 -1.7083 -0.0809 -0.3645
   80SLPC  C312 7467  -0.468   4.097   6.196  0.5318 -0.4773 -0.5097
   80SLPC  H12X 7468  -0.382   4.166   6.202 -0.3064  0.5000  0.8042
   80SLPC  H12Y 7469  -0.526   4.105   6.290 -0.9556  1.6840 -1.5287
   80SLPC  C313 7470  -0.574   4.144   6.096 -0.0035  0.2899  0.4182
   80SLPC  H13X 7471  -0.654   4.195   6.154  0.6413  1.7296  0.0758
   80SLPC  H13Y 7472  -0.629   4.056   6.057 -1.3065  0.6553  1.3539
   80SLPC  C314 7473  -0.515   4.219   5.983 -0.1150  0.5703 -0.2980
   80SLPC  H14X 7474  -0.430   4.161   5.941  0.8978  2.2345 -0.6069
   80SLPC  H14Y 7475  -0.472   4.312   6.025 -2.7358  2.3931 -1.3927
   80SLPC  C315 7476  -0.623   4.246   5.878 -0.3374 -0.5264  0.3804
   80SLPC  H15X 7477  -0.700   4.317   5.915  2.1742  0.6867  3.8816
   80SLPC  H15Y 7478  -0.663   4.144   5.864  2.4270 -1.8265  1.1270
   80SLPC  C316 7479  -0.558   4.300   5.736  0.6853 -0.1765 -0.0142
   80SLPC  H16X 7480  -0.489   4.214   5.723  0.6077 -0.2831  0.2537
   80SLPC  H16Y 7481  -0.494   4.390   5.745 -0.8420  1.3970 -3.2795
   80SLPC  C317 7482  -0.663   4.310   5.625  0.2379  0.2788 -0.0791
   80SLPC  H17X 7483  -0.696   4.416   5.616  1.7101  0.7939  0.1773
   80SLPC  H17Y 7484  -0.753   4.259   5.664  0.1315  1.2350  0.9789
   80SLPC  C318 7485  -0.607   4.253   5.496 -0.0955 -0.3597  0.7142
   80SLPC  H18X 7486  -0.522   4.316   5.462 -0.4551  0.2226  0.8937
   80SLPC  H18Y 7487  -0.680   4.244   5.412  0.2366 -2.4839  0.5859
   80SLPC  H18Z 7488  -0.566   4.154   5.527 -1.5365 -0.5064  2.2360
   81SLPC     N 7489   2.789   2.124   2.851  0.0309  0.4192  0.0206
   81SLPC   C13 7490   2.762   2.235   2.748 -0.3247  0.0398  0.8040
   81SLPC  H13A 7491   2.721   2.199   2.655  0.3599  1.2822 -0.0102
   81SLPC  H13B 7492   2.704   2.319   2.784  0.1172  1.0743 -0.7987
   81SLPC  H13C 7493   2.857   2.277   2.717 -1.3262  1.6644 -0.1896
   81SLPC   C14 7494   2.868   2.186   2.962 -0.1907 -0.3540 -0.4811
   81SLPC  H14A 7495   2.807   2.251   3.022  1.1789 -0.4419  1.0538
   81SLPC  H14B 7496   2.916   2.116   3.028  1.5177  1.0346 -0.1834
   81SLPC  H14C 7497   2.955   2.242   2.930  1.0284 -1.2465  1.1199
   81SLPC   C15 7498   2.890   2.033   2.782 -0.4570 -0.1262 -0.0430
   81SLPC  H15A 7499   2.847   1.987   2.694 -1.3780 -0.6459  0.6553
   81SLPC  H15B 7500   2.977   2.085   2.745 -0.8396  0.2422 -0.4418
   81SLPC  H15C 7501   2.914   1.946   2.841  2.5328  0.4722 -0.2201
   81SLPC   C12 7502   2.662   2.056   2.887  0.3022 -0.1260  0.4096
   81SLPC  H12A 7503   2.603   2.062   2.796 -1.1767 -2.0442  1.1653
   81SLPC  H12B 7504   2.610   2.118   2.959 -0.5292 -2.3430  1.8199
   81SLPC   C11 7505   2.658   1.919   2.951  0.3527 -0.3312  0.8694
   81SLPC  H11A 7506   2.671   1.929   3.061  1.6040  0.6395  0.6630
   81SLPC  H11B 7507   2.747   1.867   2.911  0.2242 -0.2902  0.5288
   81SLPC     P 7508   2.402   1.888   2.991 -0.0915  0.3040  0.1301
   81SLPC   O13 7509   2.369   2.034   3.000 -0.3053  0.3881  0.2092
   81SLPC   O14 7510   2.297   1.797   2.943  0.3195 -0.5510 -0.0132
   81SLPC   O12 7511   2.537   1.864   2.904  0.3770  0.0442 -0.1515
   81SLPC   O11 7512   2.439   1.838   3.136  0.2516  0.0893 -0.4622
   81SLPC    C1 7513   2.437   1.706   3.171  0.6711  0.2822  0.1771
   81SLPC    HA 7514   2.331   1.673   3.175  1.3741 -2.1219  1.2310
   81SLPC    HB 7515   2.488   1.640   3.098 -1.9286 -0.9666 -0.6259
   81SLPC    C2 7516   2.504   1.688   3.307  0.4101  0.2900  0.4844
   81SLPC    HS 7517   2.500   1.579   3.324  1.4644  0.1635  0.0004
   81SLPC   O21 7518   2.439   1.775   3.393 -0.1598  0.1616  0.0464
   81SLPC   C21 7519   2.369   1.708   3.478 -0.6184 -0.3674  0.4861
   81SLPC   O22 7520   2.329   1.592   3.467 -0.2577 -0.2657  0.0813
   81SLPC   C22 7521   2.319   1.815   3.591  0.6567  0.2236  0.0277
   81SLPC   H2R 7522   2.404   1.884   3.607  0.4667  0.4440  0.0912
   81SLPC   H2S 7523   2.239   1.870   3.536  1.9361  1.7464 -0.3908
   81SLPC    C3 7524   2.652   1.726   3.304  0.7122  0.2419  0.4027
   81SLPC    HX 7525   2.654   1.825   3.252  1.8420 -0.9988 -2.0976
   81SLPC    HY 7526   2.705   1.658   3.234  0.4125  1.1419 -0.7387
   81SLPC   O31 7527   2.712   1.709   3.432 -0.2415 -0.2990  0.2873
   81SLPC   C31 7528   2.718   1.812   3.513  0.4836  0.3496 -0.3769
   81SLPC   O32 7529   2.664   1.919   3.504  0.0514 -0.0983  0.5096
   81SLPC   C32 7530   2.811   1.782   3.627 -0.1173  0.1906  0.4478
   81SLPC   H2X 7531   2.806   1.860   3.706 -0.1544 -0.0657  0.7001
   81SLPC   H2Y 7532   2.915   1.778   3.587 -0.1143  0.2109  0.4536
   81SLPC   C23 7533   2.255   1.754   3.725  0.2118 -0.2264  1.0401
   81SLPC   H3R 7534   2.182   1.678   3.692  0.9316 -1.0607  1.3336
   81SLPC   H3S 7535   2.213   1.845   3.774  0.9092  0.6835 -0.0057
   81SLPC   C24 7536   2.353   1.680   3.813  0.2752  0.4714  0.6754
   81SLPC   H4R 7537   2.443   1.743   3.828  0.9732 -0.0300 -1.1147
   81SLPC   H4S 7538   2.379   1.584   3.764 -0.3301  0.9636 -0.6673
   81SLPC   C25 7539   2.309   1.638   3.950  0.6384 -1.2713 -0.4943
   81SLPC   H5R 7540   2.204   1.601   3.940 -0.9592  2.4966  0.6395
   81SLPC   H5S 7541   2.288   1.729   4.010  0.0999 -1.3470 -0.5575
   81SLPC   C26 7542   2.409   1.558   4.036 -0.3332 -0.1994 -1.0182
   81SLPC   H6R 7543   2.504   1.610   4.015 -1.0835  1.3598 -0.6750
   81SLPC   H6S 7544   2.418   1.448   4.018 -0.8977 -0.5732  0.7836
   81SLPC   C27 7545   2.381   1.553   4.193 -0.4100  0.1462  0.0932
   81SLPC   H7R 7546   2.395   1.659   4.222 -0.3444  0.2382 -0.2729
   81SLPC   H7S 7547   2.465   1.504   4.246 -0.2561  1.4429  1.0848
   81SLPC   C28 7548   2.238   1.507   4.231  0.4108 -0.3752 -0.6721
   81SLPC   H8R 7549   2.176   1.573   4.167  0.0437  0.8744  0.8868
   81SLPC   H8S 7550   2.203   1.544   4.330 -0.5201 -0.1607 -1.0714
   81SLPC   C29 7551   2.213   1.357   4.215  0.7318  0.6596  0.2595
   81SLPC   H9R 7552   2.172   1.323   4.119  1.5439 -1.3476  0.5721
   81SLPC  C210 7553   2.216   1.256   4.309 -0.2064  0.7223 -0.1542
   81SLPC  H10R 7554   2.214   1.151   4.275 -0.9250  0.3779  0.9161
   81SLPC  C211 7555   2.284   1.271   4.448  0.5387  0.0149  0.7252
   81SLPC  H11R 7556   2.357   1.355   4.446  0.3327  0.1940  0.7962
   81SLPC  H11S 7557   2.338   1.180   4.482  2.3916  1.0577  0.7682
   81SLPC  C212 7558   2.182   1.281   4.551  0.4515  0.0321 -0.1428
   81SLPC  H12R 7559   2.088   1.333   4.525 -0.5223 -1.7245 -0.2305
   81SLPC  C213 7560   2.205   1.244   4.683  0.5255 -0.1077  0.4061
   81SLPC  H13R 7561   2.115   1.253   4.746 -0.6299 -2.5484 -0.7409
   81SLPC  C214 7562   2.317   1.160   4.741 -0.1254 -0.8716  0.5428
   81SLPC  H14R 7563   2.392   1.220   4.798  3.0496 -1.8011 -2.2979
   81SLPC  H14S 7564   2.374   1.099   4.667  0.4742  0.2119  0.0919
   81SLPC  C215 7565   2.260   1.053   4.837 -0.1548 -0.2407  0.2607
   81SLPC  H15R 7566   2.192   0.988   4.777  1.1942 -3.0632  1.5871
   81SLPC  H15S 7567   2.199   1.094   4.920  1.8460  1.5928  0.9159
   81SLPC  C216 7568   2.366   0.974   4.913 -0.5855 -0.8252 -0.2583
   81SLPC  H16R 7569   2.441   1.038   4.964 -2.6909  0.8001  0.9402
   81SLPC  H16S 7570   2.409   0.911   4.832 -0.3151 -1.2257  0.1920
   81SLPC  C217 7571   2.302   0.880   5.018 -0.7803  1.3953 -0.7475
   81SLPC  H17R 7572   2.223   0.815   4.975  1.2594 -0.0125 -2.5924
   81SLPC  H17S 7573   2.259   0.941   5.101 -0.1135  1.0632 -0.1347
   81SLPC  C218 7574   2.421   0.797   5.075  1.3768 -0.2168  0.0484
   81SLPC  H18R 7575   2.495   0.851   5.138  1.7182  0.7508 -1.1391
   81SLPC  H18S 7576   2.473   0.756   4.985 -2.6002 -0.1503 -2.5730
   81SLPC  H18T 7577   2.394   0.711   5.140  0.7568  0.1752  0.3149
   81SLPC   C33 7578   2.774   1.646   3.699  0.4794 -0.3412  0.2406
   81SLPC   H3X 7579   2.795   1.555   3.639  2.7040  0.3870 -0.1650
   81SLPC   H3Y 7580   2.669   1.643   3.734  1.0600  0.5544  2.2418
   81SLPC   C34 7581   2.862   1.626   3.824 -0.1817  0.5396  0.4728
   81SLPC   H4X 7582   2.838   1.526   3.866 -0.8850 -0.4115 -1.9700
   81SLPC   H4Y 7583   2.832   1.699   3.902  0.9979  1.0061  0.5138
   81SLPC   C35 7584   3.015   1.642   3.806  0.3139 -0.1510 -0.7016
   81SLPC   H5X 7585   3.027   1.752   3.798  1.6751 -0.0857  1.4463
   81SLPC   H5Y 7586   3.057   1.610   3.708  1.3434  2.0081 -1.0202
   81SLPC   C36 7587   3.104   1.581   3.918  0.7213 -0.0095 -0.5553
   81SLPC   H6X 7588   3.099   1.471   3.901 -0.1288  0.3107 -2.6705
   81SLPC   H6Y 7589   3.059   1.607   4.016 -1.7267  1.7584 -2.0608
   81SLPC   C37 7590   3.249   1.622   3.918  0.2249 -0.2694  0.3155
   81SLPC   H7X 7591   3.258   1.732   3.925 -0.9807 -0.1998  1.0068
   81SLPC   H7Y 7592   3.290   1.597   3.818  2.5784  0.6786  0.9648
   81SLPC   C38 7593   3.329   1.563   4.038  0.4898 -0.5166 -0.6972
   81SLPC   H8X 7594   3.434   1.552   4.002  0.6962 -3.3986  0.5256
   81SLPC   H8Y 7595   3.297   1.458   4.057  3.5861 -1.4619 -0.1392
   81SLPC   C39 7596   3.331   1.653   4.160  0.0351 -0.0473  0.8916
   81SLPC   H9X 7597   3.233   1.696   4.189 -0.1359 -0.7442  1.3785
   81SLPC   H9Y 7598   3.405   1.734   4.145  0.4400 -0.4232  0.8415
   81SLPC  C310 7599   3.374   1.571   4.287  0.4619 -0.1501  0.2300
   81SLPC  H10X 7600   3.463   1.510   4.262  0.1889 -0.2075 -0.6126
   81SLPC  H10Y 7601   3.296   1.495   4.310  0.3375 -0.1808 -0.3007
   81SLPC  C311 7602   3.397   1.648   4.412 -0.0328  0.4721 -0.4883
   81SLPC  H11X 7603   3.306   1.707   4.438  0.9436  1.5183  0.6882
   81SLPC  H11Y 7604   3.477   1.721   4.389  0.4815  0.3316  0.7514
   81SLPC  C312 7605   3.425   1.551   4.529  0.6817  0.8804  0.6197
   81SLPC  H12X 7606   3.511   1.483   4.508  0.7700  1.1829 -0.0012
   81SLPC  H12Y 7607   3.340   1.486   4.560  1.5683 -1.2732 -1.2199
   81SLPC  C313 7608   3.455   1.633   4.659 -0.0778 -0.4544  0.0282
   81SLPC  H13X 7609   3.365   1.688   4.693 -0.5393 -1.4342  0.4483
   81SLPC  H13Y 7610   3.540   1.702   4.641 -0.4520  0.5418  1.7981
   81SLPC  C314 7611   3.499   1.529   4.766 -0.0776 -1.1130 -0.2140
   81SLPC  H14X 7612   3.582   1.469   4.723  0.5730 -1.8016  1.8811
   81SLPC  H14Y 7613   3.412   1.467   4.798 -1.1072  0.3541 -0.0770
   81SLPC  C315 7614   3.553   1.603   4.889 -0.1006 -0.6340  0.3984
   81SLPC  H15X 7615   3.468   1.665   4.924  2.1705  1.5977  2.3034
   81SLPC  H15Y 7616   3.642   1.661   4.857 -0.4376 -1.0500 -1.3894
   81SLPC  C316 7617   3.592   1.508   5.006 -1.0751 -0.5120  0.0908
   81SLPC  H16X 7618   3.505   1.452   5.046 -0.4246 -2.7006 -1.3861
   81SLPC  H16Y 7619   3.617   1.580   5.086 -0.0592  0.8953 -1.4218
   81SLPC  C317 7620   3.713   1.412   4.979  0.1169  0.3800 -0.7766
   81SLPC  H17X 7621   3.762   1.440   4.883 -1.9461 -1.5373 -2.5014
   81SLPC  H17Y 7622   3.674   1.308   4.986  2.9624 -0.6783  0.7998
   81SLPC  C318 7623   3.815   1.400   5.090  0.7449  0.8373  0.4869
   81SLPC  H18X 7624   3.781   1.351   5.183  0.8529  0.0605  0.1304
   81SLPC  H18Y 7625   3.857   1.498   5.121  2.4103  0.7854 -1.4123
   81SLPC  H18Z 7626   3.893   1.329   5.055 -0.3877  0.5436 -1.6511
   82SLPC     N 7627   1.631   1.084   3.002  0.7652  0.5358  0.0915
   82SLPC   C13 7628   1.699   1.036   2.879  0.3113  0.2325  0.2734
   82SLPC  H13A 7629   1.635   0.987   2.807  1.1681 -0.6789  0.1034
   82SLPC  H13B 7630   1.731   1.124   2.827  1.3906 -0.6888 -0.6558
   82SLPC  H13C 7631   1.795   0.989   2.895 -0.3332 -2.1528 -2.1557
   82SLPC   C14 7632   1.674   1.218   3.042  0.1566 -0.3550 -0.5176
   82SLPC  H14A 7633   1.653   1.288   2.963 -3.3880  0.5627  1.0324
   82SLPC  H14B 7634   1.615   1.261   3.122 -0.0426  1.2291 -1.4683
   82SLPC  H14C 7635   1.775   1.223   3.081 -0.2615 -1.1057  0.7193
   82SLPC   C15 7636   1.664   0.989   3.116  0.1008 -0.0333  0.0093
   82SLPC  H15A 7637   1.654   1.045   3.207  0.6632  0.0854  0.0070
   82SLPC  H15B 7638   1.595   0.907   3.117  0.5225 -0.4113  1.7797
   82SLPC  H15C 7639   1.766   0.952   3.113 -0.3488 -1.7560  2.5083
   82SLPC   C12 7640   1.488   1.081   2.965  0.3738  0.1484  0.2521
   82SLPC  H12A 7641   1.455   0.987   2.922 -1.1481  0.6939  0.1936
   82SLPC  H12B 7642   1.478   1.153   2.885 -0.8634 -0.2997 -0.0086
   82SLPC   C11 7643   1.384   1.114   3.066 -0.1912  0.3415 -0.0180
   82SLPC  H11A 7644   1.388   1.043   3.152  0.5366  1.5618  0.9951
   82SLPC  H11B 7645   1.285   1.106   3.018 -0.2259 -3.0028  0.3599
   82SLPC     P 7646   1.356   1.375   3.057 -0.0644  0.0549  0.3310
   82SLPC   O13 7647   1.438   1.484   3.116  0.3471 -0.0835  0.1576
   82SLPC   O14 7648   1.361   1.365   2.909  0.1198  0.3520 -1.1626
   82SLPC   O12 7649   1.401   1.237   3.124 -0.0946 -0.2931  0.2515
   82SLPC   O11 7650   1.202   1.375   3.115 -0.1092 -0.2638  0.3411
   82SLPC    C1 7651   1.171   1.462   3.222 -0.3234 -0.0655  0.0903
   82SLPC    HA 7652   1.234   1.553   3.221 -0.7479  0.2715  1.7272
   82SLPC    HB 7653   1.064   1.490   3.211 -0.6116 -1.7085 -1.9220
   82SLPC    C2 7654   1.201   1.412   3.358 -0.1086  0.0377 -0.3206
   82SLPC    HS 7655   1.297   1.354   3.355 -0.1103 -0.3781  3.1711
   82SLPC   O21 7656   1.080   1.335   3.400  0.0953 -0.0671  0.3877
   82SLPC   C21 7657   1.110   1.230   3.474  0.4015 -0.1619 -0.0450
   82SLPC   O22 7658   1.218   1.194   3.512 -0.6979 -0.2928 -0.7049
   82SLPC   C22 7659   0.986   1.145   3.498 -1.3823 -0.1220 -0.1447
   82SLPC   H2R 7660   0.899   1.213   3.513 -1.5705 -0.8798  2.8288
   82SLPC   H2S 7661   0.976   1.086   3.404 -1.3351  0.5747 -0.5987
   82SLPC    C3 7662   1.216   1.534   3.452  0.5702  0.1422  0.2447
   82SLPC    HX 7663   1.120   1.590   3.442  0.7335  0.5992  1.1353
   82SLPC    HY 7664   1.292   1.605   3.414 -0.5730  0.3065 -1.9006
   82SLPC   O31 7665   1.240   1.503   3.586  0.1433  0.1906  0.1009
   82SLPC   C31 7666   1.370   1.479   3.614 -0.4658  0.6434  0.8162
   82SLPC   O32 7667   1.461   1.488   3.529 -0.1875  0.0102 -0.3853
   82SLPC   C32 7668   1.371   1.417   3.755 -0.4470 -0.3064 -0.6100
   82SLPC   H2X 7669   1.418   1.318   3.738  0.7538 -0.0836  1.1868
   82SLPC   H2Y 7670   1.270   1.419   3.800 -0.3425 -0.3060 -0.3782
   82SLPC   C23 7671   0.999   1.050   3.618 -0.0802 -0.3166 -0.1963
   82SLPC   H3R 7672   1.073   0.971   3.592  0.2842  0.1684 -0.6853
   82SLPC   H3S 7673   0.905   0.993   3.630 -0.0088 -0.8614 -1.9203
   82SLPC   C24 7674   1.034   1.111   3.754 -0.9504  0.0082  0.0444
   82SLPC   H4R 7675   1.131   1.165   3.758  0.7026 -2.7813  0.4000
   82SLPC   H4S 7676   1.053   1.028   3.825 -0.4202  1.7500  2.0438
   82SLPC   C25 7677   0.925   1.201   3.808 -0.4093  0.4653 -0.2098
   82SLPC   H5R 7678   0.838   1.138   3.838 -0.6763  0.2886 -1.3099
   82SLPC   H5S 7679   0.897   1.282   3.738 -0.3159  1.6233  1.0403
   82SLPC   C26 7680   0.970   1.269   3.935 -0.3441 -0.0205 -0.0402
   82SLPC   H6R 7681   0.891   1.338   3.971  2.2991  2.2262  1.9056
   82SLPC   H6S 7682   1.061   1.333   3.923  0.2004 -0.7289  0.2150
   82SLPC   C27 7683   1.016   1.175   4.049 -0.2354 -0.4078 -0.0073
   82SLPC   H7R 7684   1.126   1.160   4.045 -0.2604 -0.3835 -0.8100
   82SLPC   H7S 7685   0.973   1.074   4.036 -0.6791 -0.1848 -0.2678
   82SLPC   C28 7686   0.967   1.235   4.184 -0.2840 -0.3996  0.0174
   82SLPC   H8R 7687   1.013   1.336   4.195 -1.6994  0.2188  0.4884
   82SLPC   H8S 7688   1.022   1.182   4.264 -3.2040 -0.6831  1.9560
   82SLPC   C29 7689   0.814   1.242   4.210 -0.5542 -0.5581  0.5274
   82SLPC   H9R 7690   0.768   1.159   4.155 -0.3198 -0.2914 -0.0775
   82SLPC  C210 7691   0.745   1.323   4.294 -0.1817  0.2813  0.0747
   82SLPC  H10R 7692   0.635   1.315   4.287  0.0479 -1.9961 -2.4861
   82SLPC  C211 7693   0.808   1.421   4.391 -0.4867  0.5333 -0.4303
   82SLPC  H11R 7694   0.753   1.517   4.383 -0.6444  0.4128 -0.8269
   82SLPC  H11S 7695   0.916   1.437   4.370 -0.3033  0.3108  0.3298
   82SLPC  C212 7696   0.794   1.378   4.532  0.2791  0.0224 -0.1412
   82SLPC  H12R 7697   0.759   1.274   4.546 -0.4094  0.2093 -0.4533
   82SLPC  C213 7698   0.827   1.441   4.651  0.1173 -0.0978 -0.2409
   82SLPC  H13R 7699   0.828   1.394   4.751  3.6926 -0.5565 -0.3732
   82SLPC  C214 7700   0.887   1.576   4.653  0.7282 -1.0672  0.0298
   82SLPC  H14R 7701   0.825   1.637   4.723  0.8699  1.5922 -1.9741
   82SLPC  H14S 7702   0.884   1.622   4.552 -2.1454  0.6007  0.7617
   82SLPC  C215 7703   1.039   1.573   4.691  0.3181 -0.7009  0.0187
   82SLPC  H15R 7704   1.085   1.674   4.683  1.2325 -1.0189  1.0060
   82SLPC  H15S 7705   1.086   1.505   4.616 -2.0137 -2.4624  0.0437
   82SLPC  C216 7706   1.064   1.525   4.839  0.0133 -0.0689 -1.1172
   82SLPC  H16R 7707   1.029   1.421   4.855  0.4558 -0.3843 -2.0962
   82SLPC  H16S 7708   1.026   1.603   4.908 -0.8068 -1.9681  0.6656
   82SLPC  C217 7709   1.221   1.534   4.872  0.6661  0.5984 -0.5122
   82SLPC  H17R 7710   1.266   1.633   4.849  0.0015  1.1882  0.6035
   82SLPC  H17S 7711   1.276   1.465   4.806 -1.1539  0.1782 -1.6853
   82SLPC  C218 7712   1.254   1.507   5.021  0.0828  0.0401  0.5622
   82SLPC  H18R 7713   1.260   1.398   5.041  1.4223  0.3362  1.9617
   82SLPC  H18S 7714   1.171   1.545   5.084 -1.3147  0.8004 -1.6283
   82SLPC  H18T 7715   1.353   1.548   5.050  0.4120 -0.7140  0.5311
   82SLPC   C33 7716   1.470   1.506   3.834  0.0597  0.6168 -0.7116
   82SLPC   H3X 7717   1.574   1.501   3.796  1.3849  2.2800  2.3280
   82SLPC   H3Y 7718   1.483   1.474   3.940  1.7181 -1.2637 -1.4249
   82SLPC   C34 7719   1.419   1.647   3.836 -0.1894 -0.0342 -0.3539
   82SLPC   H4X 7720   1.309   1.656   3.844  0.0437  2.5742  1.1640
   82SLPC   H4Y 7721   1.450   1.711   3.750  2.5857  1.0391  1.3007
   82SLPC   C35 7722   1.484   1.718   3.962  0.7174  0.2415  0.2486
   82SLPC   H5X 7723   1.483   1.821   3.920 -0.9288 -0.4256 -1.4663
   82SLPC   H5Y 7724   1.583   1.675   3.989  0.7306  0.6581  0.8759
   82SLPC   C36 7725   1.390   1.718   4.081 -0.3842  0.2133  0.0372
   82SLPC   H6X 7726   1.361   1.615   4.111  0.5408 -0.3961 -1.0864
   82SLPC   H6Y 7727   1.297   1.771   4.054  0.2150  1.2410 -0.0584
   82SLPC   C37 7728   1.451   1.775   4.207 -0.4252 -0.5213 -0.5247
   82SLPC   H7X 7729   1.488   1.877   4.185 -0.7244 -0.7753 -2.3033
   82SLPC   H7Y 7730   1.539   1.712   4.235 -0.0836  0.4520  0.7120
   82SLPC   C38 7731   1.367   1.762   4.338  0.0284 -0.4364 -0.7819
   82SLPC   H8X 7732   1.327   1.659   4.340  0.5134 -0.6704  2.8135
   82SLPC   H8Y 7733   1.287   1.840   4.333 -2.4870 -2.7525  0.6804
   82SLPC   C39 7734   1.454   1.781   4.459  0.0269  0.6457 -0.3770
   82SLPC   H9X 7735   1.526   1.855   4.419 -1.0888  1.0229 -1.7458
   82SLPC   H9Y 7736   1.517   1.690   4.464 -0.6464  0.1854 -0.1040
   82SLPC  C310 7737   1.387   1.838   4.579  0.1696  0.1723 -0.0506
   82SLPC  H10X 7738   1.304   1.770   4.609  0.4808 -0.7487 -1.2220
   82SLPC  H10Y 7739   1.344   1.932   4.538  2.2416  0.2101 -2.3355
   82SLPC  C311 7740   1.481   1.865   4.691 -0.2822  0.9856 -0.4681
   82SLPC  H11X 7741   1.553   1.949   4.684 -0.2178  1.0469  0.7206
   82SLPC  H11Y 7742   1.535   1.771   4.712  2.3254  2.5812  0.4009
   82SLPC  C312 7743   1.415   1.905   4.827 -0.0845 -0.0699 -0.1282
   82SLPC  H12X 7744   1.497   1.909   4.901  0.2284  0.9030 -0.5125
   82SLPC  H12Y 7745   1.348   1.822   4.858  1.0700 -0.8872  0.1970
   82SLPC  C313 7746   1.339   2.037   4.825 -0.0994  0.1623 -0.4359
   82SLPC  H13X 7747   1.255   2.023   4.754  0.2682  0.8391 -1.0265
   82SLPC  H13Y 7748   1.404   2.122   4.795 -1.4222  1.6338  0.6970
   82SLPC  C314 7749   1.278   2.078   4.970 -0.2250 -0.2161  0.2861
   82SLPC  H14X 7750   1.189   2.015   4.992 -0.3554 -0.2884 -0.4210
   82SLPC  H14Y 7751   1.239   2.182   4.967 -0.5326 -0.2495  1.9099
   82SLPC  C315 7752   1.379   2.072   5.087 -0.8190  0.0485  1.0855
   82SLPC  H15X 7753   1.473   2.116   5.047 -0.5329 -0.7336  0.8722
   82SLPC  H15Y 7754   1.398   1.965   5.109 -2.8863 -0.6761 -0.3099
   82SLPC  C316 7755   1.334   2.168   5.193  0.3739 -0.4337 -0.4067
   82SLPC  H16X 7756   1.257   2.110   5.248 -0.8170 -0.9756 -2.5329
   82SLPC  H16Y 7757   1.301   2.269   5.161  1.0407  0.2448  0.9556
   82SLPC  C317 7758   1.437   2.206   5.305 -0.4981 -0.1442  0.2493
   82SLPC  H17X 7759   1.485   2.109   5.331 -0.0279  0.0842  0.2491
   82SLPC  H17Y 7760   1.382   2.244   5.393  0.1850  0.4331  0.4377
   82SLPC  C318 7761   1.549   2.294   5.258  0.2266 -0.0700  0.2502
   82SLPC  H18X 7762   1.517   2.389   5.211 -0.2868  1.0933  2.7870
   82SLPC  H18Y 7763   1.602   2.234   5.181  0.3862 -1.1257  1.1676
   82SLPC  H18Z 7764   1.610   2.321   5.347 -0.8543  2.8357  0.2063
   83SLPC     N 7765   3.263   2.892   2.705 -1.0023 -1.0017 -0.0876
   83SLPC   C13 7766   3.320   2.753   2.697 -0.6985 -0.1467  0.6666
   83SLPC  H13A 7767   3.400   2.725   2.765  0.5383 -0.1889 -0.7427
   83SLPC  H13B 7768   3.247   2.676   2.715 -0.5640 -1.3241 -2.9419
   83SLPC  H13C 7769   3.349   2.729   2.595 -0.0209  0.2194  0.7693
   83SLPC   C14 7770   3.162   2.926   2.593  0.8961 -0.4175 -0.7128
   83SLPC  H14A 7771   3.157   3.030   2.567  1.2464  0.0781  1.0776
   83SLPC  H14B 7772   3.195   2.870   2.507 -0.3165 -1.0777 -0.7751
   83SLPC  H14C 7773   3.068   2.880   2.624  0.9211 -0.5274 -0.7995
   83SLPC   C15 7774   3.376   2.988   2.685  0.2218 -0.1064 -0.9708
   83SLPC  H15A 7775   3.351   3.090   2.711 -3.5079 -1.0771 -0.1022
   83SLPC  H15B 7776   3.456   2.957   2.749  2.2299  2.2184 -2.1945
   83SLPC  H15C 7777   3.418   2.983   2.585  0.5124 -2.5918 -0.7794
   83SLPC   C12 7778   3.202   2.909   2.842  0.6060  0.6308 -0.4868
   83SLPC  H12A 7779   3.181   3.015   2.848  1.3125  0.6988  2.8581
   83SLPC  H12B 7780   3.271   2.895   2.924  0.1256  5.6017  1.1336
   83SLPC   C11 7781   3.056   2.836   2.860  0.6240 -0.1256 -0.1436
   83SLPC  H11A 7782   3.029   2.840   2.968 -1.9971 -0.6751 -0.7366
   83SLPC  H11B 7783   3.056   2.729   2.831  2.7455 -0.5301  1.0848
   83SLPC     P 7784   2.892   3.040   2.836 -0.1292 -0.0785  0.0779
   83SLPC   O13 7785   2.998   3.143   2.846  0.3045  0.4328 -0.3807
   83SLPC   O14 7786   2.777   3.064   2.749 -0.3022 -0.5756 -0.0621
   83SLPC   O12 7787   2.959   2.909   2.785 -0.0186  0.5479  0.4132
   83SLPC   O11 7788   2.835   3.001   2.983 -0.6972  0.1404 -0.2248
   83SLPC    C1 7789   2.894   3.075   3.093 -0.4849 -0.1475  0.3204
   83SLPC    HA 7790   2.990   3.027   3.124  0.2018 -0.6691 -2.3442
   83SLPC    HB 7791   2.918   3.180   3.067 -0.0023 -0.6540 -1.4672
   83SLPC    C2 7792   2.793   3.076   3.207  0.5782 -0.0440 -0.3654
   83SLPC    HS 7793   2.845   3.134   3.285  1.4053 -1.2521  0.0112
   83SLPC   O21 7794   2.754   2.939   3.246  0.4270  0.3973 -0.1570
   83SLPC   C21 7795   2.853   2.874   3.311 -0.1600 -0.1051 -0.5951
   83SLPC   O22 7796   2.964   2.921   3.327  0.9403  0.2307  0.1599
   83SLPC   C22 7797   2.789   2.751   3.379 -0.4726 -0.3634  0.1493
   83SLPC   H2R 7798   2.706   2.809   3.426 -0.5564 -1.0948  0.9196
   83SLPC   H2S 7799   2.768   2.674   3.302  1.1350  0.3376 -1.0654
   83SLPC    C3 7800   2.668   3.140   3.161 -0.5083 -0.0754 -0.1857
   83SLPC    HX 7801   2.624   3.076   3.082  1.4372 -1.5332 -0.1370
   83SLPC    HY 7802   2.678   3.241   3.115 -1.4543 -1.3714 -3.4935
   83SLPC   O31 7803   2.566   3.142   3.271  0.1098  0.1081  0.0323
   83SLPC   C31 7804   2.575   3.230   3.369 -0.3383 -0.0926  0.3790
   83SLPC   O32 7805   2.673   3.304   3.389 -0.1550  0.2618 -0.4681
   83SLPC   C32 7806   2.452   3.227   3.453 -0.1760  0.5143  0.0627
   83SLPC   H2X 7807   2.420   3.121   3.460 -1.2864  0.7827 -0.5211
   83SLPC   H2Y 7808   2.375   3.278   3.391 -0.0440  0.7251  0.0705
   83SLPC   C23 7809   2.878   2.685   3.488  0.4706  0.1721 -0.2567
   83SLPC   H3R 7810   2.934   2.765   3.541 -0.5381  0.6266  0.1497
   83SLPC   H3S 7811   2.957   2.616   3.451  0.6750  0.7132 -0.8500
   83SLPC   C24 7812   2.795   2.620   3.598  0.5592  0.1362  0.7238
   83SLPC   H4R 7813   2.715   2.688   3.635 -0.6930  0.0390 -1.6495
   83SLPC   H4S 7814   2.877   2.598   3.670  2.1395 -1.8633 -1.5346
   83SLPC   C25 7815   2.732   2.491   3.551 -0.2171 -0.3911 -0.2412
   83SLPC   H5R 7816   2.802   2.422   3.500  0.3556 -0.0095  0.0111
   83SLPC   H5S 7817   2.662   2.524   3.471 -2.1100  2.0808  2.2104
   83SLPC   C26 7818   2.664   2.410   3.668  0.0127  0.2480 -0.2638
   83SLPC   H6R 7819   2.582   2.459   3.725  0.3460  1.1252 -0.5327
   83SLPC   H6S 7820   2.747   2.390   3.738 -0.1919 -0.1287 -0.1250
   83SLPC   C27 7821   2.603   2.279   3.607  0.1102 -0.1212 -0.0835
   83SLPC   H7R 7822   2.682   2.223   3.552  1.7910 -1.0321  2.9949
   83SLPC   H7S 7823   2.523   2.302   3.534 -0.1287 -1.5355 -0.2971
   83SLPC   C28 7824   2.546   2.180   3.716  0.2936 -0.3151  0.4161
   83SLPC   H8R 7825   2.476   2.116   3.658 -1.4364  0.1864  1.8437
   83SLPC   H8S 7826   2.483   2.243   3.784 -0.9777 -0.6757 -0.3844
   83SLPC   C29 7827   2.645   2.096   3.793  0.2640  0.1353  0.3893
   83SLPC   H9R 7828   2.704   2.033   3.725  1.6301 -0.3861  1.9933
   83SLPC  C210 7829   2.656   2.074   3.927 -0.3472 -0.3815 -0.0230
   83SLPC  H10R 7830   2.741   2.012   3.959 -0.5252 -0.4916  0.2377
   83SLPC  C211 7831   2.576   2.137   4.039  0.0894  0.0926 -0.4301
   83SLPC  H11R 7832   2.534   2.233   4.001 -0.6157  0.4262  1.1322
   83SLPC  H11S 7833   2.647   2.173   4.116 -0.5121 -0.8119  0.5583
   83SLPC  C212 7834   2.471   2.043   4.095 -0.2625  0.2713  0.3023
   83SLPC  H12R 7835   2.375   2.057   4.044 -0.0989 -2.6342 -0.9899
   83SLPC  C213 7836   2.488   1.928   4.158  0.1246 -0.0092 -0.1133
   83SLPC  H13R 7837   2.401   1.865   4.180 -1.3539  1.0154 -2.5614
   83SLPC  C214 7838   2.620   1.866   4.191  0.0891  0.3863 -0.5828
   83SLPC  H14R 7839   2.699   1.943   4.196  0.4280 -0.0112  0.5679
   83SLPC  H14S 7840   2.650   1.789   4.116 -1.6400  0.7193 -1.6617
   83SLPC  C215 7841   2.620   1.807   4.330  0.3324  0.7153 -0.8049
   83SLPC  H15R 7842   2.575   1.705   4.327  1.5975  0.0180  1.3000
   83SLPC  H15S 7843   2.573   1.880   4.400 -0.8483 -1.0159  0.3020
   83SLPC  C216 7844   2.762   1.791   4.398  0.4347 -0.1310  0.3076
   83SLPC  H16R 7845   2.750   1.785   4.508 -2.0993 -1.0927  0.0312
   83SLPC  H16S 7846   2.824   1.880   4.372 -1.1265  1.1569  0.8478
   83SLPC  C217 7847   2.841   1.666   4.354  0.7372  0.5744 -0.1551
   83SLPC  H17R 7848   2.947   1.673   4.388  0.8633  1.8191 -0.7281
   83SLPC  H17S 7849   2.839   1.658   4.243 -1.4176  2.5535 -0.3272
   83SLPC  C218 7850   2.784   1.533   4.406  0.0843  0.1486 -0.6209
   83SLPC  H18R 7851   2.791   1.535   4.517 -0.5661  0.5923 -0.5836
   83SLPC  H18S 7852   2.831   1.446   4.357  0.7659 -1.0136  1.9435
   83SLPC  H18T 7853   2.678   1.527   4.375  0.1335 -0.0639 -0.7469
   83SLPC   C33 7854   2.459   3.289   3.599 -0.0969 -0.3984  0.3690
   83SLPC   H3X 7855   2.533   3.371   3.600 -0.0505 -0.4410  0.5537
   83SLPC   H3Y 7856   2.512   3.208   3.653  1.1704  0.6880  0.7912
   83SLPC   C34 7857   2.324   3.331   3.659  0.4944  0.2008 -0.8887
   83SLPC   H4X 7858   2.269   3.237   3.683 -1.3784  1.5040  0.1639
   83SLPC   H4Y 7859   2.264   3.391   3.587  0.8063 -0.3382 -1.6178
   83SLPC   C35 7860   2.345   3.415   3.789  0.8996  0.3268  0.9498
   83SLPC   H5X 7861   2.248   3.424   3.842  1.0350 -2.4517  1.8247
   83SLPC   H5Y 7862   2.374   3.517   3.756  1.7153 -0.4889 -1.0736
   83SLPC   C36 7863   2.449   3.364   3.886  0.2311  0.4003 -0.6046
   83SLPC   H6X 7864   2.553   3.396   3.863  1.5006 -1.7422  1.7335
   83SLPC   H6Y 7865   2.439   3.254   3.880 -0.4574  0.3996  0.4130
   83SLPC   C37 7866   2.422   3.395   4.031 -0.0286  0.2375 -0.8753
   83SLPC   H7X 7867   2.313   3.397   4.050  0.4138 -1.1486  2.6779
   83SLPC   H7Y 7868   2.460   3.494   4.065 -0.2590  0.1504 -0.3506
   83SLPC   C38 7869   2.487   3.296   4.130  0.0726 -0.8428  0.3182
   83SLPC   H8X 7870   2.594   3.296   4.102 -0.5563 -2.2301 -2.4868
   83SLPC   H8Y 7871   2.447   3.197   4.101 -2.3993  0.4962 -1.2359
   83SLPC   C39 7872   2.473   3.342   4.276 -0.0096 -0.4453  0.4248
   83SLPC   H9X 7873   2.363   3.348   4.290 -0.0497 -0.3832  0.1011
   83SLPC   H9Y 7874   2.521   3.442   4.287 -2.1271  0.5122  1.5575
   83SLPC  C310 7875   2.513   3.227   4.365  0.0040 -0.1545 -0.8822
   83SLPC  H10X 7876   2.601   3.168   4.330 -0.7297 -2.9955  1.5941
   83SLPC  H10Y 7877   2.431   3.152   4.371  0.8192 -1.0177 -0.0058
   83SLPC  C311 7878   2.542   3.278   4.513 -0.3900  0.3562 -0.0616
   83SLPC  H11X 7879   2.457   3.335   4.556 -1.4113 -0.4340 -0.9667
   83SLPC  H11Y 7880   2.629   3.347   4.510 -1.7196  2.1579  0.8984
   83SLPC  C312 7881   2.585   3.156   4.609  0.6696 -0.4239 -0.7005
   83SLPC  H12X 7882   2.670   3.101   4.562  1.3162  1.9896 -2.5824
   83SLPC  H12Y 7883   2.494   3.093   4.610  0.5090 -0.2219  1.3549
   83SLPC  C313 7884   2.598   3.197   4.759 -0.0441 -0.2655 -0.0717
   83SLPC  H13X 7885   2.509   3.254   4.793  1.2527  1.9553 -0.2452
   83SLPC  H13Y 7886   2.677   3.275   4.756 -2.0421  1.8264 -2.5356
   83SLPC  C314 7887   2.644   3.091   4.858  0.3919 -0.6997 -0.0382
   83SLPC  H14X 7888   2.724   3.022   4.824  0.1402 -1.3014  0.5619
   83SLPC  H14Y 7889   2.555   3.029   4.883  0.3986 -0.2112  1.2990
   83SLPC  C315 7890   2.698   3.148   4.991  0.6810  0.3918 -0.0494
   83SLPC  H15X 7891   2.634   3.210   5.057 -0.4931 -1.7677  0.9421
   83SLPC  H15Y 7892   2.789   3.208   4.970  0.1958  0.3621 -2.5845
   83SLPC  C316 7893   2.745   3.046   5.098  0.0955 -0.0141  0.4705
   83SLPC  H16X 7894   2.658   2.985   5.131  0.8826 -0.8861  0.9784
   83SLPC  H16Y 7895   2.768   3.105   5.190  0.6047 -0.6954  0.7841
   83SLPC  C317 7896   2.863   2.955   5.076  0.2225 -0.4422  0.0061
   83SLPC  H17X 7897   2.946   3.024   5.049 -0.6720  1.5861  2.0719
   83SLPC  H17Y 7898   2.837   2.879   5.000  0.3892  0.8891 -1.4528
   83SLPC  C318 7899   2.910   2.879   5.205 -0.9341 -0.4581 -0.4770
   83SLPC  H18X 7900   3.016   2.848   5.195  0.2103  2.5391  1.1518
   83SLPC  H18Y 7901   2.837   2.796   5.216 -0.8980 -0.3495  0.8096
   83SLPC  H18Z 7902   2.919   2.944   5.295  2.4418  0.3649 -1.2665
   84SLPC     N 7903   1.506   5.541   2.820  0.7447  0.2435  0.0786
   84SLPC   C13 7904   1.612   5.605   2.739  0.4007  0.5466 -0.6360
   84SLPC  H13A 7905   1.594   5.567   2.639 -0.5271  2.6795 -1.3557
   84SLPC  H13B 7906   1.600   5.711   2.724  0.3852  1.0749  2.5134
   84SLPC  H13C 7907   1.714   5.590   2.772  0.5353  0.1813 -1.2008
   84SLPC   C14 7908   1.494   5.393   2.815  1.1564 -0.1135 -0.5819
   84SLPC  H14A 7909   1.582   5.356   2.867  0.8265 -1.5796 -1.0105
   84SLPC  H14B 7910   1.414   5.360   2.878 -0.6966  0.9854 -2.2625
   84SLPC  H14C 7911   1.478   5.352   2.716  2.5976  1.1378 -1.3957
   84SLPC   C15 7912   1.371   5.600   2.782  0.0601 -0.2876 -0.1395
   84SLPC  H15A 7913   1.289   5.568   2.844  1.7329  0.1918  2.4947
   84SLPC  H15B 7914   1.377   5.707   2.789  0.5699 -0.3786  1.0765
   84SLPC  H15C 7915   1.344   5.569   2.682  1.0391 -0.2997 -0.4106
   84SLPC   C12 7916   1.530   5.590   2.964  0.3538  0.0113  0.2888
   84SLPC  H12A 7917   1.515   5.696   2.978 -0.6362  0.0271 -0.8079
   84SLPC  H12B 7918   1.634   5.578   2.991  0.2813  1.3921  1.2968
   84SLPC   C11 7919   1.454   5.507   3.076 -0.1254  0.2309  0.0129
   84SLPC  H11A 7920   1.349   5.483   3.051  0.3248 -2.4018  0.4274
   84SLPC  H11B 7921   1.461   5.566   3.170  0.6374 -0.1665  0.2165
   84SLPC     P 7922   1.674   5.380   3.152 -0.2132  0.1450  0.3306
   84SLPC   O13 7923   1.746   5.256   3.102 -0.0356  0.3582  0.2224
   84SLPC   O14 7924   1.740   5.510   3.129 -0.0072 -0.4380  0.1196
   84SLPC   O12 7925   1.519   5.385   3.101  0.4220 -0.0766 -0.3552
   84SLPC   O11 7926   1.653   5.364   3.315 -0.8110  0.1546 -0.2278
   84SLPC    C1 7927   1.540   5.415   3.383  0.8558 -1.1087  0.2051
   84SLPC    HA 7928   1.529   5.524   3.368 -2.5129 -1.5363 -1.3500
   84SLPC    HB 7929   1.452   5.362   3.341 -1.3518  0.2046  2.8410
   84SLPC    C2 7930   1.551   5.390   3.537  0.1093 -0.4479 -0.0147
   84SLPC    HS 7931   1.478   5.462   3.580 -0.0630 -1.4726  1.4804
   84SLPC   O21 7932   1.678   5.399   3.596 -0.0891 -0.0700  0.3990
   84SLPC   C21 7933   1.733   5.517   3.569 -0.2167 -0.4659  0.1575
   84SLPC   O22 7934   1.678   5.618   3.533 -0.1706 -0.2030  0.1987
   84SLPC   C22 7935   1.883   5.504   3.609 -0.2232 -0.2043  0.0437
   84SLPC   H2R 7936   1.880   5.454   3.709  0.7441  0.6069  0.4868
   84SLPC   H2S 7937   1.925   5.428   3.539  0.4811 -2.3980  2.6567
   84SLPC    C3 7938   1.486   5.254   3.570 -0.6666 -0.0486 -0.2544
   84SLPC    HX 7939   1.561   5.177   3.542  0.1070 -0.2586  2.1393
   84SLPC    HY 7940   1.397   5.234   3.506  0.7129 -1.9835 -1.6790
   84SLPC   O31 7941   1.455   5.245   3.711  0.3667  0.7760 -0.8360
   84SLPC   C31 7942   1.511   5.145   3.789  0.0209 -0.2129 -0.6098
   84SLPC   O32 7943   1.562   5.045   3.747  0.0184  0.3079 -0.1123
   84SLPC   C32 7944   1.498   5.186   3.939 -0.4806 -0.2340  0.6604
   84SLPC   H2X 7945   1.398   5.228   3.961  0.3585 -0.5836  6.8340
   84SLPC   H2Y 7946   1.577   5.264   3.947 -0.5313 -0.2985  1.9279
   84SLPC   C23 7947   1.960   5.635   3.628  0.7687  0.6200  0.0909
   84SLPC   H3R 7948   1.903   5.686   3.708  1.1341  0.3588  0.5268
   84SLPC   H3S 7949   1.937   5.694   3.537  2.3303  2.0654  0.5701
   84SLPC   C24 7950   2.103   5.626   3.662 -0.0661  1.2659 -0.0778
   84SLPC   H4R 7951   2.151   5.725   3.676  0.4466  1.3796 -2.2387
   84SLPC   H4S 7952   2.159   5.566   3.587  1.2295 -0.2448  1.9833
   84SLPC   C25 7953   2.141   5.553   3.796  0.1670  0.5730 -0.5093
   84SLPC   H5R 7954   2.248   5.573   3.814  0.7259 -2.6962  0.5173
   84SLPC   H5S 7955   2.120   5.445   3.778  1.0245  0.0483  1.4082
   84SLPC   C26 7956   2.058   5.609   3.907 -0.1886 -0.0219  0.9015
   84SLPC   H6R 7957   1.948   5.595   3.896 -0.1696  0.8160 -0.4693
   84SLPC   H6S 7958   2.079   5.717   3.915  0.8695 -0.0359 -1.1682
   84SLPC   C27 7959   2.112   5.535   4.035 -0.3068 -0.4452  0.3198
   84SLPC   H7R 7960   2.223   5.533   4.028 -0.3225  0.4163 -0.2156
   84SLPC   H7S 7961   2.077   5.429   4.030  3.0832 -1.7641  1.1642
   84SLPC   C28 7962   2.064   5.580   4.175 -0.4030 -0.3373  0.1933
   84SLPC   H8R 7963   1.953   5.584   4.176 -0.3967  3.3549  0.7302
   84SLPC   H8S 7964   2.090   5.686   4.193 -0.3972 -0.5327  1.3986
   84SLPC   C29 7965   2.122   5.499   4.284 -0.6093  0.3055  0.2605
   84SLPC   H9R 7966   2.166   5.403   4.251 -0.0888  0.8949 -0.8475
   84SLPC  C210 7967   2.136   5.538   4.414  0.3055 -0.0544 -0.4782
   84SLPC  H10R 7968   2.201   5.480   4.480  0.6627 -0.1522 -0.9096
   84SLPC  C211 7969   2.100   5.683   4.468  0.1724  0.4551 -0.6302
   84SLPC  H11R 7970   1.991   5.680   4.493  0.5057 -0.8834  0.8356
   84SLPC  H11S 7971   2.099   5.767   4.396 -2.6557 -0.1672 -1.4743
   84SLPC  C212 7972   2.182   5.716   4.589 -0.1269 -0.8111 -0.0482
   84SLPC  H12R 7973   2.281   5.762   4.577 -0.4360 -0.1836 -0.2490
   84SLPC  C213 7974   2.147   5.706   4.716  1.1061  0.0341  0.2078
   84SLPC  H13R 7975   2.222   5.731   4.792  0.0538  3.5817  0.2611
   84SLPC  C214 7976   2.017   5.659   4.766  0.3706 -0.1429 -0.6063
   84SLPC  H14R 7977   1.935   5.689   4.697 -0.1992  0.5465  0.3424
   84SLPC  H14S 7978   1.998   5.706   4.865 -1.7067 -1.6983 -0.1843
   84SLPC  C215 7979   2.024   5.505   4.792 -0.0843 -0.0394  0.6104
   84SLPC  H15R 7980   2.114   5.472   4.847  0.7209  0.6856 -0.2478
   84SLPC  H15S 7981   2.034   5.463   4.689  0.0691  0.7634  0.2871
   84SLPC  C216 7982   1.900   5.463   4.870 -0.2404 -0.3864  0.2941
   84SLPC  H16R 7983   1.812   5.487   4.808 -0.1975 -1.8234 -0.3744
   84SLPC  H16S 7984   1.883   5.529   4.957  0.5334 -0.1387  0.2679
   84SLPC  C217 7985   1.895   5.317   4.933  0.7332 -0.3072 -0.0922
   84SLPC  H17R 7986   1.912   5.240   4.855  0.3543 -1.9587  1.4022
   84SLPC  H17S 7987   1.795   5.304   4.979  0.9402  2.5324  1.3819
   84SLPC  C218 7988   1.991   5.290   5.046 -0.2522 -0.4523 -0.9075
   84SLPC  H18R 7989   1.962   5.194   5.095  0.7455 -0.1499  0.3265
   84SLPC  H18S 7990   1.998   5.378   5.114 -1.7042 -0.7615 -0.3067
   84SLPC  H18T 7991   2.091   5.269   5.002  0.1427  2.0511 -1.3336
   84SLPC   C33 7992   1.522   5.065   4.036  0.0553 -0.5230  0.1345
   84SLPC   H3X 7993   1.616   5.008   4.019  0.6094  0.4031  0.0533
   84SLPC   H3Y 7994   1.441   4.993   4.014  1.4416 -1.4963 -2.2061
   84SLPC   C34 7995   1.528   5.109   4.181  0.5051  1.0305 -0.0056
   84SLPC   H4X 7996   1.438   5.170   4.203 -0.3293  0.7072 -2.2205
   84SLPC   H4Y 7997   1.611   5.183   4.187  0.2917  1.2619  0.1079
   84SLPC   C35 7998   1.561   4.997   4.284  0.7138 -0.4771 -0.0846
   84SLPC   H5X 7999   1.659   4.954   4.254  0.5762 -1.7485  1.2209
   84SLPC   H5Y 8000   1.480   4.921   4.282 -2.0999  2.3407 -0.7175
   84SLPC   C36 8001   1.578   5.058   4.420 -0.8062  0.5939  0.3596
   84SLPC   H6X 8002   1.494   5.127   4.443  0.2070  1.3668  1.9674
   84SLPC   H6Y 8003   1.670   5.121   4.416  0.6795 -1.2550  2.4882
   84SLPC   C37 8004   1.580   4.954   4.534  0.0576 -1.0284  0.0671
   84SLPC   H7X 8005   1.659   4.876   4.529  0.3553 -0.6585 -2.2878
   84SLPC   H7Y 8006   1.483   4.900   4.531 -0.7323  0.3498 -2.6487
   84SLPC   C38 8007   1.581   5.023   4.670  0.8570  0.2930  0.0234
   84SLPC   H8X 8008   1.488   5.083   4.678  1.0314  0.7431 -1.0761
   84SLPC   H8Y 8009   1.668   5.092   4.667  0.5067  0.7366 -0.1343
   84SLPC   C39 8010   1.579   4.930   4.792 -0.3277 -0.1767 -0.1413
   84SLPC   H9X 8011   1.660   4.854   4.798 -0.5786 -0.3720  1.2464
   84SLPC   H9Y 8012   1.484   4.874   4.805 -0.5003  0.0298 -0.4962
   84SLPC  C310 8013   1.607   5.001   4.927  0.3381  0.9166  0.2870
   84SLPC  H10X 8014   1.523   5.073   4.943 -1.0671 -0.9430  1.6384
   84SLPC  H10Y 8015   1.691   5.074   4.929 -0.5101  1.9694 -0.5805
   84SLPC  C311 8016   1.600   4.897   5.032 -0.5010  0.0280 -0.0723
   84SLPC  H11X 8017   1.644   4.802   4.997 -1.5270 -1.3867  2.2460
   84SLPC  H11Y 8018   1.491   4.886   5.052 -0.5674  0.2306 -0.3202
   84SLPC  C312 8019   1.684   4.926   5.157  0.6162  0.4385 -0.2812
   84SLPC  H12X 8020   1.623   4.994   5.220  0.5621  0.0397  0.1024
   84SLPC  H12Y 8021   1.780   4.981   5.147  0.3460  1.1690  0.9791
   84SLPC  C313 8022   1.712   4.799   5.247 -0.0858 -0.3306  0.5480
   84SLPC  H13X 8023   1.632   4.723   5.233 -0.3305  0.2104 -1.2125
   84SLPC  H13Y 8024   1.705   4.832   5.353 -2.6200  0.0359  0.3256
   84SLPC  C314 8025   1.848   4.732   5.220 -0.1995 -0.5264 -0.2687
   84SLPC  H14X 8026   1.922   4.807   5.256 -1.4440  0.4044  0.4442
   84SLPC  H14Y 8027   1.861   4.730   5.110  0.3700 -0.6790 -0.1981
   84SLPC  C315 8028   1.859   4.600   5.275  0.0314 -0.1269  0.2141
   84SLPC  H15X 8029   1.790   4.532   5.220  0.4020  0.0184 -0.4452
   84SLPC  H15Y 8030   1.839   4.579   5.382 -0.3213  0.3206  0.2395
   84SLPC  C316 8031   2.001   4.547   5.242 -0.9682 -0.3621  0.6297
   84SLPC  H16X 8032   2.074   4.592   5.313 -2.0336 -0.8558  2.0911
   84SLPC  H16Y 8033   2.030   4.587   5.142 -0.5828  0.7532  1.1741
   84SLPC  C317 8034   2.018   4.397   5.247  0.4448  0.2111  0.2355
   84SLPC  H17X 8035   1.934   4.359   5.185  0.9895 -1.1195  0.2696
   84SLPC  H17Y 8036   2.008   4.353   5.349 -0.0949  2.9320  1.4342
   84SLPC  C318 8037   2.147   4.340   5.185  0.2899  0.4905 -0.0807
   84SLPC  H18X 8038   2.147   4.365   5.077 -1.2035 -0.7999 -0.4116
   84SLPC  H18Y 8039   2.141   4.229   5.190  1.4646  0.4637  2.1946
   84SLPC  H18Z 8040   2.232   4.385   5.241  1.8188 -3.0450  0.7016
   85SLPC     N 8041   0.216   2.614   2.784 -0.2674  0.5417  0.0958
   85SLPC   C13 8042   0.200   2.528   2.663  0.0416  0.2083  0.6990
   85SLPC  H13A 8043   0.250   2.576   2.580 -2.6052  2.0519  0.0351
   85SLPC  H13B 8044   0.244   2.430   2.667 -0.0995 -0.0377 -1.8167
   85SLPC  H13C 8045   0.097   2.515   2.631  0.4521 -1.6175 -0.0043
   85SLPC   C14 8046   0.162   2.753   2.744 -0.2485  0.6187  0.1216
   85SLPC  H14A 8047   0.220   2.786   2.660 -1.1770 -0.1130 -0.8454
   85SLPC  H14B 8048   0.059   2.729   2.722  0.7249 -3.4561 -0.8111
   85SLPC  H14C 8049   0.159   2.826   2.823 -0.9476 -1.0768  1.7356
   85SLPC   C15 8050   0.358   2.626   2.817 -0.6121  0.0724  0.0660
   85SLPC  H15A 8051   0.384   2.707   2.883 -1.8103  0.7173 -0.2180
   85SLPC  H15B 8052   0.398   2.536   2.860  0.9429  0.9430  0.5028
   85SLPC  H15C 8053   0.427   2.647   2.737 -0.8212 -1.9424 -0.7015
   85SLPC   C12 8054   0.136   2.559   2.898 -0.1429  0.5221  0.1060
   85SLPC  H12A 8055   0.029   2.568   2.882 -0.8357 -0.5527  3.3385
   85SLPC  H12B 8056   0.151   2.613   2.990 -1.5065 -1.0482  1.3126
   85SLPC   C11 8057   0.164   2.404   2.946  0.4232 -0.5194  0.6075
   85SLPC  H11A 8058   0.141   2.335   2.861 -0.2053  1.4493 -0.9043
   85SLPC  H11B 8059   0.093   2.380   3.028  0.1703 -2.4005 -0.1076
   85SLPC     P 8060   0.341   2.421   3.137  0.2331 -0.1917  0.3689
   85SLPC   O13 8061   0.285   2.307   3.215 -0.8463  0.4731  0.1434
   85SLPC   O14 8062   0.486   2.435   3.134  0.1673 -0.6195 -0.4302
   85SLPC   O12 8063   0.298   2.386   2.993  0.2798  0.2975  0.6508
   85SLPC   O11 8064   0.266   2.555   3.158  0.6346 -0.7948 -0.3946
   85SLPC    C1 8065   0.334   2.683   3.177  0.5598 -0.2147  0.0606
   85SLPC    HA 8066   0.422   2.691   3.110 -0.8075 -1.0774 -1.9328
   85SLPC    HB 8067   0.265   2.770   3.167  1.3181  0.2010 -2.1238
   85SLPC    C2 8068   0.397   2.700   3.325 -0.4464  0.5981  1.1245
   85SLPC    HS 8069   0.492   2.641   3.327 -0.9857 -0.2655  1.8300
   85SLPC   O21 8070   0.303   2.646   3.417  0.2613 -0.2852  0.4333
   85SLPC   C21 8071   0.181   2.701   3.434  0.4695 -0.5776 -0.3512
   85SLPC   O22 8072   0.128   2.788   3.371  0.1644  0.1350 -0.0252
   85SLPC   C22 8073   0.097   2.617   3.537 -0.4102  0.0959  0.1426
   85SLPC   H2R 8074   0.082   2.517   3.491 -0.2242 -0.7879  1.8931
   85SLPC   H2S 8075   0.166   2.607   3.624  1.6841  0.6928 -1.3663
   85SLPC    C3 8076   0.424   2.846   3.346 -0.4568 -0.2725  0.2795
   85SLPC    HX 8077   0.332   2.897   3.382  0.5121  0.4673  1.8539
   85SLPC    HY 8078   0.446   2.902   3.253 -0.7646 -0.1276  0.2941
   85SLPC   O31 8079   0.537   2.865   3.438  0.3038 -0.0578 -0.6137
   85SLPC   C31 8080   0.519   2.919   3.559 -0.2842 -0.0427  0.4174
   85SLPC   O32 8081   0.422   2.978   3.599  0.2941  0.1481  0.1660
   85SLPC   C32 8082   0.629   2.873   3.656 -0.3750  0.1098  0.4900
   85SLPC   H2X 8083   0.713   2.946   3.650  0.8087 -1.2836 -0.7217
   85SLPC   H2Y 8084   0.666   2.776   3.616  0.3803  0.2969  0.7017
   85SLPC   C23 8085  -0.044   2.669   3.583 -0.0188 -0.4132 -0.3510
   85SLPC   H3R 8086  -0.103   2.699   3.494 -3.1274  0.7338  1.9165
   85SLPC   H3S 8087  -0.027   2.760   3.645 -1.5248 -0.9536  0.9289
   85SLPC   C24 8088  -0.106   2.566   3.675  0.0173 -0.1918 -0.0273
   85SLPC   H4R 8089  -0.053   2.567   3.773 -0.8192  1.7682  0.4558
   85SLPC   H4S 8090  -0.109   2.465   3.630 -0.0232  0.2936 -1.1369
   85SLPC   C25 8091  -0.250   2.597   3.738 -0.9176  0.2197  0.5460
   85SLPC   H5R 8092  -0.262   2.704   3.764 -2.2770 -0.2271  1.9284
   85SLPC   H5S 8093  -0.333   2.588   3.665  0.4912 -3.5321 -0.8428
   85SLPC   C26 8094  -0.273   2.488   3.852  0.5431 -0.5091 -0.9236
   85SLPC   H6R 8095  -0.189   2.495   3.924  0.6943 -0.5071 -1.0985
   85SLPC   H6S 8096  -0.267   2.385   3.808  0.4409 -1.6663  1.6126
   85SLPC   C27 8097  -0.407   2.507   3.921 -0.1707 -0.0163 -0.4065
   85SLPC   H7R 8098  -0.414   2.416   3.985  2.4326  0.8961  1.3510
   85SLPC   H7S 8099  -0.486   2.506   3.844 -1.1374 -0.0469  0.5639
   85SLPC   C28 8100  -0.429   2.635   3.994 -0.4316 -0.1002 -0.0000
   85SLPC   H8R 8101  -0.532   2.641   4.035  0.1246  1.8316  1.2412
   85SLPC   H8S 8102  -0.403   2.720   3.928 -2.7039 -0.0506 -0.9130
   85SLPC   C29 8103  -0.341   2.645   4.116  0.0252 -0.4173 -0.3295
   85SLPC   H9R 8104  -0.249   2.703   4.101  0.1711 -0.6266 -0.2467
   85SLPC  C210 8105  -0.366   2.606   4.247 -0.4360 -0.5995 -1.2768
   85SLPC  H10R 8106  -0.288   2.611   4.325 -1.5264 -1.0129 -0.1316
   85SLPC  C211 8107  -0.489   2.544   4.297  0.3108 -0.6604  0.3618
   85SLPC  H11R 8108  -0.455   2.463   4.365  0.8432 -1.2571 -0.5755
   85SLPC  H11S 8109  -0.546   2.496   4.215  0.2096 -0.3808  0.2690
   85SLPC  C212 8110  -0.579   2.643   4.376 -0.2269 -0.3910 -0.2688
   85SLPC  H12R 8111  -0.592   2.744   4.334 -1.9485 -0.2569  0.5134
   85SLPC  C213 8112  -0.606   2.636   4.506 -0.4093 -1.0972 -0.3315
   85SLPC  H13R 8113  -0.665   2.723   4.538  1.0119  0.4889 -1.7361
   85SLPC  C214 8114  -0.577   2.530   4.609  0.1613 -0.3289 -0.4864
   85SLPC  H14R 8115  -0.524   2.438   4.576  1.2270  0.3534 -0.7339
   85SLPC  H14S 8116  -0.671   2.478   4.635 -0.2658 -1.4825 -3.7851
   85SLPC  C215 8117  -0.513   2.577   4.739 -0.7450 -0.5564 -0.0435
   85SLPC  H15R 8118  -0.407   2.608   4.726 -1.1505  1.0538  0.2693
   85SLPC  H15S 8119  -0.514   2.497   4.815  1.2771 -0.6875 -0.0905
   85SLPC  C216 8120  -0.592   2.702   4.800  0.5654 -0.4158 -0.2463
   85SLPC  H16R 8121  -0.700   2.678   4.795 -0.0594  2.2736 -4.8570
   85SLPC  H16S 8122  -0.559   2.791   4.743  2.4081 -0.7866  0.1753
   85SLPC  C217 8123  -0.563   2.723   4.954 -0.0311 -0.5699  0.2893
   85SLPC  H17R 8124  -0.456   2.754   4.948  0.0019 -0.9128 -1.5905
   85SLPC  H17S 8125  -0.556   2.625   5.006  0.2435 -0.8324 -0.2284
   85SLPC  C218 8126  -0.658   2.817   5.031 -0.0409 -0.6153  0.0277
   85SLPC  H18R 8127  -0.629   2.842   5.135 -0.9554  2.0777 -0.2778
   85SLPC  H18S 8128  -0.763   2.782   5.037 -0.9185  1.8826  0.6155
   85SLPC  H18T 8129  -0.674   2.911   4.973 -1.4821 -0.7756  0.1289
   85SLPC   C33 8130   0.596   2.870   3.803 -0.2611  0.2810 -0.5169
   85SLPC   H3X 8131   0.519   2.790   3.812  0.0205  0.1754  1.6657
   85SLPC   H3Y 8132   0.556   2.968   3.835 -2.0857 -0.1283 -1.4137
   85SLPC   C34 8133   0.713   2.847   3.901 -0.2591  0.2340 -0.5872
   85SLPC   H4X 8134   0.782   2.933   3.889 -0.6328  0.7886  0.9210
   85SLPC   H4Y 8135   0.768   2.754   3.876  0.3185  0.0436  1.2420
   85SLPC   C35 8136   0.663   2.826   4.050 -0.0181 -0.1291 -0.0496
   85SLPC   H5X 8137   0.614   2.727   4.063 -3.4873  1.1712 -1.8891
   85SLPC   H5Y 8138   0.581   2.901   4.057 -0.3801 -0.4805 -0.4908
   85SLPC   C36 8139   0.767   2.856   4.159  0.1714 -0.2464  0.7512
   85SLPC   H6X 8140   0.809   2.958   4.152  0.8768 -0.6458 -3.5284
   85SLPC   H6Y 8141   0.852   2.787   4.137 -0.0007 -0.6639  1.3635
   85SLPC   C37 8142   0.703   2.843   4.296  0.7931  0.7894  0.0853
   85SLPC   H7X 8143   0.673   2.737   4.311  2.2194  0.3118 -0.2731
   85SLPC   H7Y 8144   0.608   2.901   4.303 -0.5879 -1.5094  1.7197
   85SLPC   C38 8145   0.795   2.868   4.417 -0.0866  0.5826 -0.2812
   85SLPC   H8X 8146   0.850   2.963   4.395 -0.5348  1.0695  0.6438
   85SLPC   H8Y 8147   0.877   2.794   4.427 -1.4197 -1.2073 -1.9754
   85SLPC   C39 8148   0.730   2.873   4.555  0.3048  0.4674 -0.7519
   85SLPC   H9X 8149   0.662   2.785   4.558  1.2564 -0.3027 -1.3155
   85SLPC   H9Y 8150   0.655   2.955   4.560 -2.4991 -1.9428 -0.3750
   85SLPC  C310 8151   0.819   2.871   4.682 -0.3535  0.0055 -0.3552
   85SLPC  H10X 8152   0.893   2.949   4.651  0.5389 -1.2658 -1.5328
   85SLPC  H10Y 8153   0.897   2.793   4.690  0.9733  1.4195  1.6360
   85SLPC  C311 8154   0.738   2.899   4.814 -0.3634  0.1555 -0.0619
   85SLPC  H11X 8155   0.665   2.816   4.814 -0.1435 -0.0773 -1.8457
   85SLPC  H11Y 8156   0.670   2.985   4.795 -1.6672 -0.4693  1.5436
   85SLPC  C312 8157   0.832   2.926   4.938  0.7122 -0.3878  0.2851
   85SLPC  H12X 8158   0.760   2.947   5.019 -0.2943 -2.0273 -0.1214
   85SLPC  H12Y 8159   0.893   3.015   4.912  3.4496 -2.3606 -0.4602
   85SLPC  C313 8160   0.915   2.812   4.974 -0.8180  1.2201 -0.2700
   85SLPC  H13X 8161   0.978   2.778   4.889 -3.3827  0.2245 -1.8957
   85SLPC  H13Y 8162   0.858   2.718   4.990  0.0999  0.5059 -1.0944
   85SLPC  C314 8163   0.999   2.838   5.107  0.9070 -0.1394  0.3070
   85SLPC  H14X 8164   0.925   2.810   5.185 -0.4533  0.2756 -0.8067
   85SLPC  H14Y 8165   1.020   2.947   5.100  3.2564 -0.4882  0.9554
   85SLPC  C315 8166   1.128   2.764   5.127 -0.0397  0.0394  0.4615
   85SLPC  H15X 8167   1.193   2.802   5.046  0.7609 -0.9074  0.6441
   85SLPC  H15Y 8168   1.118   2.656   5.104 -1.8140  0.2853 -0.1263
   85SLPC  C316 8169   1.190   2.781   5.271  0.5866  0.0372  0.2302
   85SLPC  H16X 8170   1.109   2.751   5.342  0.9812  0.5813  0.9276
   85SLPC  H16Y 8171   1.227   2.882   5.299  1.5454  0.1638 -1.3853
   85SLPC  C317 8172   1.308   2.687   5.292  0.4026 -0.2551 -0.0157
   85SLPC  H17X 8173   1.392   2.729   5.232  0.1498  0.4987  0.1537
   85SLPC  H17Y 8174   1.285   2.589   5.246 -2.6100 -1.3909  3.4241
   85SLPC  C318 8175   1.351   2.671   5.435 -0.6640 -0.5289  0.1969
   85SLPC  H18X 8176   1.375   2.770   5.480 -0.0501 -0.0156 -1.2210
   85SLPC  H18Y 8177   1.444   2.611   5.448 -0.6515 -0.4733  0.3687
   85SLPC  H18Z 8178   1.266   2.619   5.483 -1.3644 -0.8453 -1.3333
   86SLPC     N 8179   5.575   0.612   2.803  0.2984  0.5954  0.0515
   86SLPC   C13 8180   5.589   0.534   2.673  0.1277  0.0496 -1.0711
   86SLPC  H13A 8181   5.608   0.591   2.584 -0.6661  1.0199 -0.6390
   86SLPC  H13B 8182   5.670   0.464   2.687  0.5360  1.0307  2.2595
   86SLPC  H13C 8183   5.497   0.478   2.661 -0.8604  1.2684  0.4582
   86SLPC   C14 8184   5.523   0.526   2.908  0.3490  0.1097 -0.5718
   86SLPC  H14A 8185   5.429   0.480   2.881  0.5410 -1.2968  1.0175
   86SLPC  H14B 8186   5.595   0.452   2.936  0.4184 -0.4594 -2.1510
   86SLPC  H14C 8187   5.514   0.580   3.002  0.3908 -1.0965  0.1423
   86SLPC   C15 8188   5.482   0.726   2.785  0.5112 -0.8882 -0.7325
   86SLPC  H15A 8189   5.380   0.706   2.756 -0.5507  2.2913  0.4416
   86SLPC  H15B 8190   5.462   0.772   2.880  0.4759 -0.9993 -0.6862
   86SLPC  H15C 8191   5.517   0.799   2.713  0.8460 -3.5317 -3.4759
   86SLPC   C12 8192   5.717   0.662   2.838  0.3619 -0.0593  0.5934
   86SLPC  H12A 8193   5.718   0.708   2.936  1.5812 -3.5304  2.3705
   86SLPC  H12B 8194   5.737   0.732   2.758 -0.4236  0.2274  0.6387
   86SLPC   C11 8195   5.826   0.557   2.856  0.4513 -0.4787  0.2618
   86SLPC  H11A 8196   5.926   0.604   2.866  0.7575 -1.3959  1.8805
   86SLPC  H11B 8197   5.821   0.497   2.763 -0.4048 -0.1226  0.0698
   86SLPC     P 8198   5.901   0.356   3.022 -0.0926 -0.2982  0.1543
   86SLPC   O13 8199   5.860   0.327   3.162  0.2001  0.4001  0.0403
   86SLPC   O14 8200   5.902   0.248   2.922  0.3750  0.6058  0.1933
   86SLPC   O12 8201   5.807   0.474   2.971  0.1043  0.4353  0.8282
   86SLPC   O11 8202   6.045   0.425   3.022  0.3586  0.1266  0.2818
   86SLPC    C1 8203   6.091   0.508   3.132 -0.2154  0.0852 -0.4344
   86SLPC    HA 8204   6.186   0.550   3.094 -0.4732 -0.6832 -2.0636
   86SLPC    HB 8205   6.013   0.586   3.144  0.1867  0.3911  0.2319
   86SLPC    C2 8206   6.117   0.428   3.275  0.4141 -0.0916  0.8107
   86SLPC    HS 8207   6.019   0.384   3.301  0.0935 -0.9445 -1.5826
   86SLPC   O21 8208   6.173   0.514   3.375 -0.3298 -0.2500 -0.0245
   86SLPC   C21 8209   6.095   0.608   3.429  0.4699  0.0198  0.3857
   86SLPC   O22 8210   5.979   0.628   3.391  0.1826 -0.4124 -0.4233
   86SLPC   C22 8211   6.168   0.698   3.531 -0.1690 -0.1759 -0.3651
   86SLPC   H2R 8212   6.135   0.663   3.632  0.4098  0.4178  0.0385
   86SLPC   H2S 8213   6.276   0.684   3.509  0.7686  2.9510  1.5824
   86SLPC    C3 8214   6.209   0.311   3.253 -0.4465 -0.3511  1.1116
   86SLPC    HX 8215   6.296   0.358   3.201  2.4345 -1.2432  4.6842
   86SLPC    HY 8216   6.170   0.229   3.190 -0.2671  0.0915  0.4043
   86SLPC   O31 8217   6.267   0.253   3.372 -0.2591  0.2737 -0.4086
   86SLPC   C31 8218   6.193   0.160   3.438 -0.1882 -0.0754  0.2784
   86SLPC   O32 8219   6.081   0.125   3.401 -0.0003 -0.2670 -0.0645
   86SLPC   C32 8220   6.281   0.129   3.557  0.7532  0.0766 -0.2865
   86SLPC   H2X 8221   6.269   0.223   3.615  1.3606 -0.0240  0.0093
   86SLPC   H2Y 8222   6.386   0.120   3.523  1.1946  0.1404  0.9891
   86SLPC   C23 8223   6.148   0.849   3.522 -0.6258  0.7670  0.7250
   86SLPC   H3R 8224   6.039   0.870   3.526 -0.9311 -0.5307 -0.3261
   86SLPC   H3S 8225   6.192   0.900   3.433  0.3510 -3.1530 -1.2392
   86SLPC   C24 8226   6.197   0.928   3.649  0.0086  0.0096  0.5486
   86SLPC   H4R 8227   6.155   0.877   3.738 -2.2242 -0.6559 -0.7994
   86SLPC   H4S 8228   6.153   1.029   3.637  0.2238 -0.0105 -0.5176
   86SLPC   C25 8229   6.344   0.914   3.662 -0.4960 -0.0630 -0.0136
   86SLPC   H5R 8230   6.397   0.957   3.575  1.4589 -0.6338  0.8422
   86SLPC   H5S 8231   6.368   0.806   3.655 -0.1515 -0.2217  2.5815
   86SLPC   C26 8232   6.405   0.964   3.796  0.2433  0.5545 -0.0653
   86SLPC   H6R 8233   6.360   0.920   3.887 -0.1422  0.5503 -0.2580
   86SLPC   H6S 8234   6.381   1.072   3.801  0.9075  0.6635  1.4423
   86SLPC   C27 8235   6.552   0.959   3.814 -0.5468  0.3438 -0.2483
   86SLPC   H7R 8236   6.604   1.033   3.748  0.8359  0.1584  0.5899
   86SLPC   H7S 8237   6.587   0.856   3.790 -4.1050 -1.3509  1.1253
   86SLPC   C28 8238   6.607   0.990   3.955  0.0255  0.5540 -0.1588
   86SLPC   H8R 8239   6.580   1.093   3.987 -0.5037  0.3039  0.2157
   86SLPC   H8S 8240   6.718   0.996   3.948  0.0531 -0.4680 -0.6909
   86SLPC   C29 8241   6.561   0.895   4.055  0.6227  0.4048 -0.5488
   86SLPC   H9R 8242   6.533   0.795   4.018 -0.8987 -0.0498  1.6530
   86SLPC  C210 8243   6.527   0.919   4.182 -0.0591  0.2610  0.0519
   86SLPC  H10R 8244   6.494   0.837   4.248  0.3100 -0.7835 -1.0229
   86SLPC  C211 8245   6.545   1.049   4.255  0.6183 -0.1903  0.2980
   86SLPC  H11R 8246   6.616   1.120   4.208 -2.5602  2.6731 -0.6032
   86SLPC  H11S 8247   6.586   1.019   4.354  0.0151 -2.9003 -0.2068
   86SLPC  C212 8248   6.416   1.124   4.263 -0.0730  0.5113  0.2472
   86SLPC  H12R 8249   6.370   1.130   4.163 -2.7772  0.6650  1.4445
   86SLPC  C213 8250   6.352   1.172   4.368  0.1791  0.9366 -0.1920
   86SLPC  H13R 8251   6.261   1.228   4.341 -1.4232 -2.0643 -1.5419
   86SLPC  C214 8252   6.382   1.149   4.517  0.0808 -0.9986 -0.6271
   86SLPC  H14R 8253   6.483   1.109   4.540  0.3141  0.5547  1.3488
   86SLPC  H14S 8254   6.302   1.084   4.559 -0.5690 -0.7635 -1.4753
   86SLPC  C215 8255   6.393   1.298   4.585  0.5469  0.0003 -0.1860
   86SLPC  H15R 8256   6.493   1.333   4.552  0.9127  0.1584  1.0471
   86SLPC  H15S 8257   6.396   1.274   4.694  0.1822 -1.8855 -0.5642
   86SLPC  C216 8258   6.278   1.391   4.568 -0.1411  0.2960 -0.6138
   86SLPC  H16R 8259   6.184   1.332   4.581 -0.4173  0.9610  0.5916
   86SLPC  H16S 8260   6.258   1.406   4.460 -0.5331 -0.4959 -0.6658
   86SLPC  C217 8261   6.288   1.521   4.652 -0.5227 -0.5821  0.0589
   86SLPC  H17R 8262   6.198   1.584   4.637 -0.6360 -0.3494  1.5864
   86SLPC  H17S 8263   6.368   1.587   4.614 -1.4341  2.1724  2.5638
   86SLPC  C218 8264   6.297   1.506   4.806  0.2131 -0.5964  0.1758
   86SLPC  H18R 8265   6.211   1.444   4.838  1.3939 -1.7886  1.1679
   86SLPC  H18S 8266   6.323   1.604   4.854 -1.9178 -0.2201  0.6407
   86SLPC  H18T 8267   6.382   1.440   4.836  1.4273  0.7045 -0.2644
   86SLPC   C33 8268   6.238   0.007   3.628 -0.2549  0.2326  0.4165
   86SLPC   H3X 8269   6.205  -0.077   3.562 -0.1646  2.0364 -2.0770
   86SLPC   H3Y 8270   6.150   0.034   3.690 -2.3680  1.9665 -2.9803
   86SLPC   C34 8271   6.347  -0.049   3.724  0.3425  0.0835  0.3242
   86SLPC   H4X 8272   6.428  -0.091   3.660 -0.0032  0.0019 -0.0627
   86SLPC   H4Y 8273   6.300  -0.129   3.785  0.2646  1.1295  1.6746
   86SLPC   C35 8274   6.411   0.055   3.816 -1.4167 -0.6192 -0.2168
   86SLPC   H5X 8275   6.465   0.128   3.752 -0.1476 -1.3064  0.0274
   86SLPC   H5Y 8276   6.495   0.008   3.872 -0.4685  2.5574  1.2581
   86SLPC   C36 8277   6.320   0.134   3.915  0.4874  0.9875 -0.0560
   86SLPC   H6X 8278   6.247   0.059   3.952  0.7535  0.4356 -0.6286
   86SLPC   H6Y 8279   6.251   0.202   3.861 -1.9940 -0.1013  1.5542
   86SLPC   C37 8280   6.396   0.193   4.031  0.9070  0.5916 -0.3796
   86SLPC   H7X 8281   6.342   0.270   4.090  3.4408  2.8213 -0.7280
   86SLPC   H7Y 8282   6.485   0.241   3.984  2.1792  0.6610  1.9579
   86SLPC   C38 8283   6.456   0.081   4.134 -0.2203 -0.2924 -0.1896
   86SLPC   H8X 8284   6.552   0.050   4.088  0.6266  1.7094  0.1236
   86SLPC   H8Y 8285   6.380  -0.001   4.132 -0.8115  0.2646 -1.4452
   86SLPC   C39 8286   6.490   0.148   4.273 -0.5301  0.0690  0.0978
   86SLPC   H9X 8287   6.518   0.254   4.253  1.0557 -0.5298 -1.0583
   86SLPC   H9Y 8288   6.588   0.105   4.303 -0.5750  0.2236  0.4742
   86SLPC  C310 8289   6.389   0.149   4.385  0.3434  0.4836  0.3973
   86SLPC  H10X 8290   6.324   0.059   4.383  0.4868  0.3839  0.0910
   86SLPC  H10Y 8291   6.315   0.231   4.376 -0.4658 -0.4343 -2.0733
   86SLPC  C311 8292   6.467   0.168   4.518  0.8375 -0.1304 -0.6124
   86SLPC  H11X 8293   6.521   0.264   4.529  1.2155 -0.5590  1.9371
   86SLPC  H11Y 8294   6.536   0.081   4.520  0.3320 -0.5339 -0.0895
   86SLPC  C312 8295   6.383   0.151   4.651 -0.0617  0.3153 -0.2313
   86SLPC  H12X 8296   6.331   0.054   4.635 -0.3460  0.2695  0.9126
   86SLPC  H12Y 8297   6.311   0.234   4.671  0.2627  0.3899  0.6527
   86SLPC  C313 8298   6.473   0.161   4.775  0.7136 -0.9095 -0.0883
   86SLPC  H13X 8299   6.570   0.108   4.765  1.7374  0.5113  1.7470
   86SLPC  H13Y 8300   6.411   0.108   4.851 -0.6106 -1.0264 -1.1877
   86SLPC  C314 8301   6.497   0.300   4.830  0.2404  1.0385 -0.0640
   86SLPC  H14X 8302   6.403   0.347   4.865 -1.8844 -2.8560  0.0575
   86SLPC  H14Y 8303   6.531   0.357   4.740  0.1523  0.4688 -0.4675
   86SLPC  C315 8304   6.591   0.311   4.944  0.1453 -0.6694  0.2814
   86SLPC  H15X 8305   6.691   0.267   4.923  1.9811  2.9691  0.6630
   86SLPC  H15Y 8306   6.552   0.253   5.030  1.2581 -0.9116  0.6483
   86SLPC  C316 8307   6.611   0.461   4.985  0.1176  0.1282  0.5090
   86SLPC  H16X 8308   6.648   0.518   4.897  1.5585 -0.7669  0.4995
   86SLPC  H16Y 8309   6.698   0.467   5.054  0.6453 -3.5154  0.3490
   86SLPC  C317 8310   6.479   0.533   5.035 -0.2336  0.4074 -0.6511
   86SLPC  H17X 8311   6.400   0.545   4.958 -3.9673 -0.3879  2.7416
   86SLPC  H17Y 8312   6.517   0.635   5.058 -0.0713  0.0606  0.7191
   86SLPC  C318 8313   6.412   0.465   5.156 -0.0666  0.2126  0.1183
   86SLPC  H18X 8314   6.480   0.457   5.243 -1.6565 -0.3953  1.3668
   86SLPC  H18Y 8315   6.378   0.363   5.128  0.0309  0.8985 -2.7979
   86SLPC  H18Z 8316   6.320   0.520   5.188  1.1192  1.2861  1.8719
   87SLPC     N 8317   6.071   5.225   2.853  0.4348 -0.6645  0.2556
   87SLPC   C13 8318   5.962   5.166   2.781 -0.3629  0.1459  0.5954
   87SLPC  H13A 8319   5.908   5.094   2.840 -1.1742 -2.2915 -2.8395
   87SLPC  H13B 8320   5.893   5.242   2.748 -0.5763 -0.5443 -0.5807
   87SLPC  H13C 8321   5.995   5.113   2.693 -0.0158  0.1903  0.6959
   87SLPC   C14 8322   6.120   5.345   2.786 -0.4958 -0.2975 -0.0478
   87SLPC  H14A 8323   6.044   5.415   2.755 -1.1299 -0.4460  1.1073
   87SLPC  H14B 8324   6.183   5.398   2.856  0.2721  0.3686 -1.2168
   87SLPC  H14C 8325   6.174   5.320   2.697  1.7058 -0.8680  1.3705
   87SLPC   C15 8326   6.183   5.126   2.862 -0.4368 -0.7965 -0.2922
   87SLPC  H15A 8327   6.277   5.163   2.901 -1.1988  0.0836  0.7806
   87SLPC  H15B 8328   6.154   5.044   2.926 -0.2567  0.1668  1.0714
   87SLPC  H15C 8329   6.212   5.082   2.768  2.2753 -0.0328  0.1003
   87SLPC   C12 8330   6.025   5.280   2.989  0.1998  0.3498 -0.6085
   87SLPC  H12A 8331   5.977   5.377   2.990 -0.0993  0.2522  1.8077
   87SLPC  H12B 8332   6.105   5.307   3.056 -1.5876  2.8240  0.6707
   87SLPC   C11 8333   5.957   5.183   3.084 -0.1089 -0.3175 -0.5091
   87SLPC  H11A 8334   5.865   5.141   3.038 -1.7491 -1.1403  3.1623
   87SLPC  H11B 8335   5.913   5.224   3.177 -1.0890  0.7855 -1.4276
   87SLPC     P 8336   6.155   5.111   3.241 -0.0680  0.2893 -0.3275
   87SLPC   O13 8337   6.233   4.990   3.275  0.6579  0.1648  0.1506
   87SLPC   O14 8338   6.237   5.227   3.208 -0.2474  0.1429 -0.3640
   87SLPC   O12 8339   6.047   5.076   3.120  0.7461 -0.6193  0.1172
   87SLPC   O11 8340   6.065   5.155   3.358 -0.1803 -0.2349 -0.3469
   87SLPC    C1 8341   6.117   5.161   3.492 -0.7501 -0.0943  0.1689
   87SLPC    HA 8342   6.098   5.064   3.543  1.4042 -2.1406 -2.5991
   87SLPC    HB 8343   6.228   5.172   3.498 -0.9920  2.1121  2.9792
   87SLPC    C2 8344   6.072   5.293   3.566  0.0227 -0.4861 -0.0596
   87SLPC    HS 8345   6.144   5.371   3.533 -1.4875  1.4238  0.9584
   87SLPC   O21 8346   6.078   5.267   3.704  0.3047  0.1510 -0.7553
   87SLPC   C21 8347   6.193   5.281   3.763 -0.5047  0.2297 -0.0081
   87SLPC   O22 8348   6.301   5.311   3.706 -0.3925 -0.0480 -0.0692
   87SLPC   C22 8349   6.179   5.256   3.919 -0.0084  0.1430  0.0501
   87SLPC   H2R 8350   6.089   5.314   3.949  0.1581  0.5671 -0.2579
   87SLPC   H2S 8351   6.160   5.148   3.937 -0.2713  0.2281  0.3056
   87SLPC    C3 8352   5.929   5.335   3.526 -0.1141 -0.4414 -0.2177
   87SLPC    HX 8353   5.867   5.246   3.554  0.8017 -0.7551  0.9218
   87SLPC    HY 8354   5.919   5.340   3.416 -1.4735  1.2474 -0.0444
   87SLPC   O31 8355   5.884   5.461   3.581 -0.0228  0.2422 -0.5757
   87SLPC   C31 8356   5.811   5.447   3.682  0.2694 -0.0803 -0.2363
   87SLPC   O32 8357   5.771   5.338   3.729  0.4861  0.2861 -0.2348
   87SLPC   C32 8358   5.772   5.586   3.739 -0.0492  0.4704  0.2914
   87SLPC   H2X 8359   5.718   5.552   3.831 -0.0353  2.3568  1.0481
   87SLPC   H2Y 8360   5.706   5.635   3.665 -0.7820 -0.2669  0.4362
   87SLPC   C23 8361   6.307   5.295   3.993 -0.5225  0.6229  0.9993
   87SLPC   H3R 8362   6.329   5.401   3.968 -0.0840  0.2156 -0.4523
   87SLPC   H3S 8363   6.397   5.242   3.953 -0.1947  0.3657  2.0480
   87SLPC   C24 8364   6.292   5.282   4.144  0.0287  0.6174  0.7719
   87SLPC   H4R 8365   6.388   5.287   4.199  0.1536 -0.6219  0.6896
   87SLPC   H4S 8366   6.269   5.177   4.172 -0.8306  0.7157  0.4659
   87SLPC   C25 8367   6.192   5.370   4.217  0.9585  0.4065  0.1189
   87SLPC   H5R 8368   6.088   5.369   4.179 -0.3165 -0.1388  3.2959
   87SLPC   H5S 8369   6.227   5.475   4.223  0.6520  0.5257 -0.1756
   87SLPC   C26 8370   6.173   5.307   4.359 -0.3572  0.3750 -0.6720
   87SLPC   H6R 8371   6.275   5.291   4.399 -0.7440 -2.2415 -0.5965
   87SLPC   H6S 8372   6.124   5.207   4.361  1.5500 -0.6267  2.2123
   87SLPC   C27 8373   6.087   5.389   4.451  0.0520 -0.4161  0.1297
   87SLPC   H7R 8374   5.997   5.420   4.394  0.1144 -0.3900  0.0460
   87SLPC   H7S 8375   6.145   5.478   4.483 -0.1111 -0.3643  0.2853
   87SLPC   C28 8376   6.039   5.316   4.580  0.3980  0.4095 -0.4201
   87SLPC   H8R 8377   6.119   5.245   4.610 -0.2232  0.0718  0.4848
   87SLPC   H8S 8378   5.959   5.256   4.531  0.3799 -0.6913  0.8988
   87SLPC   C29 8379   5.993   5.406   4.695  0.5454 -0.4909  0.3384
   87SLPC   H9R 8380   5.901   5.463   4.673  1.4753  1.4787  1.2469
   87SLPC  C210 8381   6.068   5.439   4.803 -0.3549 -0.4472  0.8026
   87SLPC  H10R 8382   6.012   5.502   4.874  0.1234  0.4179  0.4306
   87SLPC  C211 8383   6.198   5.376   4.843 -0.6709 -0.6646  0.2545
   87SLPC  H11R 8384   6.262   5.456   4.884  1.1543  0.4148 -4.1830
   87SLPC  H11S 8385   6.258   5.332   4.761 -0.8694  0.9246 -0.7832
   87SLPC  C212 8386   6.165   5.280   4.953 -0.2112  0.2128 -0.2874
   87SLPC  H12R 8387   6.124   5.184   4.918  0.7343 -0.4297  0.3193
   87SLPC  C213 8388   6.197   5.287   5.089 -0.3266 -0.0620  0.0799
   87SLPC  H13R 8389   6.164   5.202   5.150  0.9161 -1.6612 -1.3812
   87SLPC  C214 8390   6.261   5.409   5.161 -0.0272  1.1764  0.6264
   87SLPC  H14R 8391   6.265   5.496   5.092  1.4230  0.2333 -0.5545
   87SLPC  H14S 8392   6.371   5.406   5.174  0.0428  2.0349  0.2537
   87SLPC  C215 8393   6.176   5.448   5.283 -1.2087  0.5345  0.3055
   87SLPC  H15R 8394   6.211   5.551   5.305  0.3909 -0.1693  1.2371
   87SLPC  H15S 8395   6.210   5.379   5.362 -3.1296 -1.8714 -0.8492
   87SLPC  C216 8396   6.027   5.470   5.261 -0.5477  0.4520  0.8328
   87SLPC  H16R 8397   5.990   5.507   5.359  1.6996  1.0334  1.5178
   87SLPC  H16S 8398   5.985   5.374   5.224  1.2990  0.3447 -1.1699
   87SLPC  C217 8399   5.983   5.583   5.167 -0.3603  0.0564 -0.2823
   87SLPC  H17R 8400   5.998   5.551   5.062  1.6464  1.3995 -0.4502
   87SLPC  H17S 8401   6.056   5.664   5.186 -1.9111  2.0112 -2.2078
   87SLPC  C218 8402   5.847   5.637   5.187  0.0246 -0.4326 -0.1919
   87SLPC  H18R 8403   5.826   5.737   5.142  0.0334  0.1394  1.0470
   87SLPC  H18S 8404   5.829   5.643   5.296  3.1825 -1.9441  0.5301
   87SLPC  H18T 8405   5.769   5.562   5.163  1.4714 -1.8264 -0.7467
   87SLPC   C33 8406   5.895   5.684   3.769  0.4144  0.7763  0.1934
   87SLPC   H3X 8407   5.868   5.787   3.800  0.2121  1.6753 -2.6753
   87SLPC   H3Y 8408   5.958   5.705   3.680 -1.1271 -0.3289 -1.2160
   87SLPC   C34 8409   5.980   5.623   3.880 -0.0324  0.2168  0.1960
   87SLPC   H4X 8410   6.014   5.520   3.853  1.4783  0.6423  0.3897
   87SLPC   H4Y 8411   5.912   5.615   3.967 -3.5210  0.7577 -2.2768
   87SLPC   C35 8412   6.106   5.698   3.909 -0.2026 -0.2550 -0.2698
   87SLPC   H5X 8413   6.160   5.731   3.817  2.1343  0.4445  1.2563
   87SLPC   H5Y 8414   6.179   5.628   3.955 -0.1253  1.0898  1.7622
   87SLPC   C36 8415   6.082   5.814   4.003  0.4214  0.1708 -0.6391
   87SLPC   H6X 8416   5.985   5.862   3.976  0.5353  1.0703  0.4739
   87SLPC   H6Y 8417   6.153   5.895   3.977 -1.3936  1.7518 -0.9612
   87SLPC   C37 8418   6.100   5.765   4.157 -0.2025  0.0029  0.0743
   87SLPC   H7X 8419   6.047   5.671   4.185 -0.1603  0.2473  1.0114
   87SLPC   H7Y 8420   6.070   5.852   4.220  0.9000  0.6095 -0.2234
   87SLPC   C38 8421   6.250   5.760   4.195 -0.3258 -0.3213 -0.0783
   87SLPC   H8X 8422   6.294   5.861   4.179  0.9659 -0.5510  1.6655
   87SLPC   H8Y 8423   6.303   5.678   4.142  1.3202  1.5766 -1.4825
   87SLPC   C39 8424   6.277   5.737   4.348 -0.3189 -0.3666  0.8275
   87SLPC   H9X 8425   6.380   5.696   4.360 -1.0417 -2.1914  0.9479
   87SLPC   H9Y 8426   6.221   5.647   4.379  0.0065 -1.1869 -0.8207
   87SLPC  C310 8427   6.231   5.856   4.421  0.4290 -0.4718 -0.0868
   87SLPC  H10X 8428   6.128   5.832   4.456 -0.8751  2.4844 -1.5759
   87SLPC  H10Y 8429   6.228   5.940   4.348 -2.0343  1.2728  1.8564
   87SLPC  C311 8430   6.323   5.908   4.537  0.2196  0.3510  0.1263
   87SLPC  H11X 8431   6.422   5.944   4.503  3.5163 -4.7377  2.9609
   87SLPC  H11Y 8432   6.363   5.817   4.586  1.5979  0.9467  0.1455
   87SLPC  C312 8433   6.255   6.003   4.632 -0.0147  0.1249 -0.4133
   87SLPC  H12X 8434   6.206   6.089   4.580  0.7514  0.4523 -0.6056
   87SLPC  H12Y 8435   6.341   6.032   4.696 -1.3352  0.2141  1.3860
   87SLPC  C313 8436   6.149   5.947   4.728  0.7878 -0.0657 -0.1352
   87SLPC  H13X 8437   6.060   5.908   4.673  0.3999 -1.1156  1.1643
   87SLPC  H13Y 8438   6.117   6.035   4.787  2.9502  1.3738 -1.0171
   87SLPC  C314 8439   6.190   5.847   4.842 -0.0460 -0.3006 -0.4037
   87SLPC  H14X 8440   6.254   5.761   4.813  0.8333 -0.0187  0.5865
   87SLPC  H14Y 8441   6.104   5.793   4.886 -0.7970  0.6723 -0.6515
   87SLPC  C315 8442   6.271   5.933   4.948  0.2941 -0.0832 -0.3609
   87SLPC  H15X 8443   6.223   6.028   4.977  1.2043 -0.0909  1.2497
   87SLPC  H15Y 8444   6.367   5.962   4.900  0.6848  0.8028  0.9101
   87SLPC  C316 8445   6.304   5.855   5.081 -0.0565 -0.3486  0.4861
   87SLPC  H16X 8446   6.374   5.771   5.061 -0.9951 -1.6272  2.2827
   87SLPC  H16Y 8447   6.208   5.810   5.112 -1.1862  0.2933 -1.8782
   87SLPC  C317 8448   6.362   5.942   5.195  0.0955 -0.1555 -0.1362
   87SLPC  H17X 8449   6.373   5.880   5.286  0.4198  0.1026  0.0054
   87SLPC  H17Y 8450   6.291   6.022   5.227  2.4359  1.2862  1.8904
   87SLPC  C318 8451   6.492   6.014   5.163  0.0020 -0.3954  0.3789
   87SLPC  H18X 8452   6.499   6.061   5.062  2.7358  1.2695  1.2551
   87SLPC  H18Y 8453   6.575   5.941   5.169 -0.1708 -0.6520 -0.2206
   87SLPC  H18Z 8454   6.508   6.091   5.241 -0.6913 -0.5909  0.7221
   88SLPC     N 8455   6.578   4.985   3.174 -0.2131  0.6121  0.7425
   88SLPC   C13 8456   6.529   4.949   3.315 -0.6639  0.2120 -0.2712
   88SLPC  H13A 8457   6.582   5.011   3.386 -2.1556  0.4647  0.6884
   88SLPC  H13B 8458   6.422   4.964   3.318 -0.4181  2.3325 -0.5861
   88SLPC  H13C 8459   6.540   4.842   3.326 -1.1725  0.1415 -0.3939
   88SLPC   C14 8460   6.730   4.975   3.177 -0.5024 -0.0213 -0.2690
   88SLPC  H14A 8461   6.768   5.001   3.079  0.5828 -0.1867  0.0939
   88SLPC  H14B 8462   6.771   5.044   3.248 -0.6369 -1.5807  1.3911
   88SLPC  H14C 8463   6.765   4.879   3.213 -1.4714  0.2408  1.4647
   88SLPC   C15 8464   6.540   5.131   3.153 -0.7210 -0.0839  0.2067
   88SLPC  H15A 8465   6.592   5.175   3.069  1.8331 -1.9901  0.6710
   88SLPC  H15B 8466   6.432   5.141   3.156 -0.6785  0.2154  1.7861
   88SLPC  H15C 8467   6.577   5.186   3.238 -0.0905 -1.2391  0.7019
   88SLPC   C12 8468   6.512   4.901   3.071  0.3258  0.0993  0.2181
   88SLPC  H12A 8469   6.569   4.911   2.980  1.1632 -0.3628  0.6800
   88SLPC  H12B 8470   6.411   4.930   3.045  0.5500  0.2252 -0.5379
   88SLPC   C11 8471   6.495   4.748   3.088  0.0305 -0.2381  0.1959
   88SLPC  H11A 8472   6.459   4.710   2.990 -0.9595  0.0472  0.4410
   88SLPC  H11B 8473   6.409   4.728   3.156  0.7131  2.1855  1.9073
   88SLPC     P 8474   6.645   4.574   3.231 -0.1167 -0.0503 -0.1470
   88SLPC   O13 8475   6.556   4.457   3.223  0.1123 -0.2426 -1.4598
   88SLPC   O14 8476   6.790   4.549   3.241 -0.7954 -0.5217 -0.3851
   88SLPC   O12 8477   6.615   4.670   3.109  0.0514 -0.3192  0.6175
   88SLPC   O11 8478   6.598   4.663   3.351 -0.8028  0.2700 -0.1547
   88SLPC    C1 8479   6.612   4.615   3.483 -0.1797  0.6102  0.1803
   88SLPC    HA 8480   6.540   4.532   3.497  1.2741 -0.9115 -1.0585
   88SLPC    HB 8481   6.704   4.559   3.507 -0.3848 -0.2861 -1.0162
   88SLPC    C2 8482   6.590   4.730   3.590  0.2177  0.7690 -0.1113
   88SLPC    HS 8483   6.601   4.688   3.692 -1.5485 -1.2479 -0.6814
   88SLPC   O21 8484   6.461   4.792   3.580  0.4695 -0.5446 -0.0633
   88SLPC   C21 8485   6.354   4.713   3.605 -0.0997  0.4829  0.0728
   88SLPC   O22 8486   6.352   4.594   3.618 -0.8021  0.0775  0.2940
   88SLPC   C22 8487   6.228   4.805   3.615 -0.0309  0.0857 -0.4285
   88SLPC   H2R 8488   6.259   4.909   3.590 -0.5882  0.7847  1.5520
   88SLPC   H2S 8489   6.154   4.779   3.536 -1.1620 -1.5967  1.0962
   88SLPC    C3 8490   6.702   4.840   3.580 -0.1613  0.4169  0.1257
   88SLPC    HX 8491   6.708   4.877   3.475 -2.4176 -0.7904 -0.5165
   88SLPC    HY 8492   6.798   4.796   3.613  0.4895  2.0548  0.4738
   88SLPC   O31 8493   6.670   4.937   3.682 -0.2843 -0.2293  0.4020
   88SLPC   C31 8494   6.678   5.057   3.651  0.6384 -0.4757  0.1416
   88SLPC   O32 8495   6.719   5.103   3.541  0.4247 -0.1044 -0.2811
   88SLPC   C32 8496   6.640   5.150   3.773 -0.0553  0.1007  0.9146
   88SLPC   H2X 8497   6.584   5.084   3.842 -0.2924 -0.3452  0.3039
   88SLPC   H2Y 8498   6.572   5.229   3.735 -0.0429 -1.1622 -1.9656
   88SLPC   C23 8499   6.163   4.797   3.754  0.6325  0.4575 -0.0546
   88SLPC   H3R 8500   6.119   4.698   3.781  0.5890  1.4862  4.3611
   88SLPC   H3S 8501   6.085   4.876   3.751 -1.4157 -1.4975 -1.8671
   88SLPC   C24 8502   6.260   4.832   3.867 -0.9816 -0.8522  0.2974
   88SLPC   H4R 8503   6.296   4.935   3.846 -1.2406 -0.6952  0.6274
   88SLPC   H4S 8504   6.356   4.776   3.861  0.4284  1.5339 -2.9638
   88SLPC   C25 8505   6.191   4.835   4.006 -0.8753  0.0146 -0.5239
   88SLPC   H5R 8506   6.141   4.736   4.007 -0.7957 -0.0255  0.6553
   88SLPC   H5S 8507   6.117   4.918   4.002  1.8719  2.7931  1.7388
   88SLPC   C26 8508   6.287   4.856   4.126 -0.7579 -0.2969  0.7283
   88SLPC   H6R 8509   6.331   4.958   4.120  0.6803 -0.8675 -5.6563
   88SLPC   H6S 8510   6.368   4.783   4.108 -0.7775 -0.2583  0.4863
   88SLPC   C27 8511   6.218   4.836   4.262  0.3741 -0.1112 -0.9535
   88SLPC   H7R 8512   6.165   4.739   4.274  2.2517 -0.8794  2.3250
   88SLPC   H7S 8513   6.145   4.919   4.268 -0.6919 -1.1098  0.5684
   88SLPC   C28 8514   6.320   4.841   4.384  0.5139 -0.8160  0.0174
   88SLPC   H8R 8515   6.399   4.773   4.344  1.7693  1.9950 -2.6342
   88SLPC   H8S 8516   6.282   4.801   4.481 -0.6194  3.7415  1.7365
   88SLPC   C29 8517   6.374   4.980   4.410 -0.4886 -0.4352  0.0587
   88SLPC   H9R 8518   6.430   5.020   4.324 -2.0008  0.0786 -0.7309
   88SLPC  C210 8519   6.362   5.052   4.522  0.3188 -0.0350 -0.2371
   88SLPC  H10R 8520   6.402   5.154   4.538 -1.7443  0.6170  1.3264
   88SLPC  C211 8521   6.288   5.010   4.651  0.1839  0.3439 -0.7249
   88SLPC  H11R 8522   6.197   4.949   4.629 -0.4285  0.1196  2.0540
   88SLPC  H11S 8523   6.252   5.101   4.704 -0.1617 -1.8173  3.1375
   88SLPC  C212 8524   6.368   4.944   4.766  0.2761  0.3043  0.6673
   88SLPC  H12R 8525   6.470   4.981   4.780  0.9749 -1.4809  0.5222
   88SLPC  C213 8526   6.310   4.841   4.843  0.3928 -0.2140  0.5247
   88SLPC  H13R 8527   6.366   4.771   4.908 -2.5723 -1.4138  1.9830
   88SLPC  C214 8528   6.172   4.786   4.833  0.5963 -0.1413 -0.8526
   88SLPC  H14R 8529   6.180   4.690   4.778 -0.3410  0.1553 -1.5330
   88SLPC  H14S 8530   6.101   4.858   4.787 -0.6077 -0.0507  1.0196
   88SLPC  C215 8531   6.111   4.759   4.975  0.1328 -0.0420 -0.0648
   88SLPC  H15R 8532   6.005   4.730   4.959  0.0053  1.3552 -2.1557
   88SLPC  H15S 8533   6.130   4.845   5.043  2.1530  1.9131 -2.8329
   88SLPC  C216 8534   6.176   4.627   5.032 -0.1648  0.0420  0.0743
   88SLPC  H16R 8535   6.149   4.610   5.139 -1.4742  1.1530 -0.0529
   88SLPC  H16S 8536   6.284   4.654   5.034 -0.7020  2.4032  2.1808
   88SLPC  C217 8537   6.157   4.489   4.967 -0.4722 -0.2195 -0.3709
   88SLPC  H17R 8538   6.186   4.472   4.862  0.4877 -2.2385  0.1632
   88SLPC  H17S 8539   6.048   4.474   4.952 -0.6684  0.9369 -0.1723
   88SLPC  C218 8540   6.231   4.377   5.046  1.1261  0.3499  0.2633
   88SLPC  H18R 8541   6.194   4.375   5.151 -2.7758 -1.2581 -0.9321
   88SLPC  H18S 8542   6.339   4.401   5.041  1.4585 -1.2247 -1.7040
   88SLPC  H18T 8543   6.215   4.273   5.010  0.6749  1.0287 -1.6351
   88SLPC   C33 8544   6.767   5.198   3.850  0.3442  0.0006 -0.3406
   88SLPC   H3X 8545   6.832   5.268   3.794  0.6813  0.5745  0.7510
   88SLPC   H3Y 8546   6.830   5.109   3.873 -0.2584  0.0796  1.8193
   88SLPC   C34 8547   6.716   5.268   3.984 -0.4655 -0.4721 -0.1232
   88SLPC   H4X 8548   6.638   5.212   4.040 -0.1408 -0.3186  0.4842
   88SLPC   H4Y 8549   6.658   5.354   3.944 -3.0833 -2.4604 -0.8630
   88SLPC   C35 8550   6.826   5.310   4.090 -0.1556 -0.0200 -0.1290
   88SLPC   H5X 8551   6.901   5.367   4.031  0.4691  0.7190  1.3240
   88SLPC   H5Y 8552   6.879   5.221   4.129 -0.7600  0.3935  1.7214
   88SLPC   C36 8553   6.772   5.402   4.204  1.3071 -0.6636 -0.0027
   88SLPC   H6X 8554   6.742   5.497   4.156  1.8483 -0.8360 -0.6966
   88SLPC   H6Y 8555   6.861   5.418   4.269 -0.5518 -1.8358  3.0708
   88SLPC   C37 8556   6.660   5.337   4.294  0.2895  0.7083 -0.0223
   88SLPC   H7X 8557   6.670   5.227   4.304 -1.9276  0.6091  2.3395
   88SLPC   H7Y 8558   6.559   5.356   4.251  1.1948 -0.3368 -2.7602
   88SLPC   C38 8559   6.667   5.407   4.435 -0.0120 -0.0893  0.5973
   88SLPC   H8X 8560   6.708   5.509   4.423  0.6593 -0.4030  0.2092
   88SLPC   H8Y 8561   6.723   5.353   4.514  1.8978  1.5858  0.4620
   88SLPC   C39 8562   6.525   5.428   4.490  0.1433 -0.7925 -0.4496
   88SLPC   H9X 8563   6.487   5.331   4.529 -0.7681 -0.4741 -0.5223
   88SLPC   H9Y 8564   6.458   5.453   4.405  2.0978 -1.0246 -2.1288
   88SLPC  C310 8565   6.507   5.528   4.611  0.6885  0.1823 -0.3624
   88SLPC  H10X 8566   6.402   5.537   4.645  0.8830  0.3781  0.1844
   88SLPC  H10Y 8567   6.544   5.623   4.568  1.7307 -0.5745 -1.2063
   88SLPC  C311 8568   6.580   5.487   4.735  0.0791 -0.1083  0.5813
   88SLPC  H11X 8569   6.685   5.475   4.699 -0.1250  1.5635 -0.7069
   88SLPC  H11Y 8570   6.549   5.392   4.783  1.9269 -0.2775  1.5517
   88SLPC  C312 8571   6.591   5.590   4.845  0.2950  0.5737  0.2842
   88SLPC  H12X 8572   6.490   5.628   4.873  0.5921  0.6515  1.2874
   88SLPC  H12Y 8573   6.648   5.672   4.797 -1.2326  1.5611  0.0729
   88SLPC  C313 8574   6.670   5.534   4.966  0.0110 -0.4630  0.2784
   88SLPC  H13X 8575   6.747   5.465   4.925 -0.8703 -0.6773 -1.0860
   88SLPC  H13Y 8576   6.608   5.465   5.027  0.2151 -0.0694  0.9340
   88SLPC  C314 8577   6.729   5.644   5.050 -0.0173 -0.3236  0.1165
   88SLPC  H14X 8578   6.650   5.719   5.072 -0.7554 -0.0458 -2.9936
   88SLPC  H14Y 8579   6.804   5.696   4.987 -1.0974  2.3691  0.9027
   88SLPC  C315 8580   6.786   5.590   5.185 -0.0050  0.4413  0.2518
   88SLPC  H15X 8581   6.886   5.546   5.168 -0.3794  0.5507 -2.5653
   88SLPC  H15Y 8582   6.719   5.516   5.236  0.1432 -0.6114 -1.0310
   88SLPC  C316 8583   6.807   5.703   5.293 -0.0529  0.6210 -1.0717
   88SLPC  H16X 8584   6.710   5.755   5.308 -0.9601 -1.5296  1.1687
   88SLPC  H16Y 8585   6.879   5.778   5.251  1.1437  0.7850  1.1292
   88SLPC  C317 8586   6.848   5.646   5.425 -0.1155  0.3153 -0.7915
   88SLPC  H17X 8587   6.790   5.554   5.446  3.7518 -2.1439  0.1486
   88SLPC  H17Y 8588   6.821   5.728   5.496  2.2096  0.8058 -0.3944
   88SLPC  C318 8589   6.997   5.616   5.435 -0.4183  0.7931 -0.1159
   88SLPC  H18X 8590   7.055   5.708   5.411  0.7069 -0.4545 -2.4074
   88SLPC  H18Y 8591   7.024   5.544   5.356  1.1273  0.4326  0.7002
   88SLPC  H18Z 8592   7.024   5.581   5.537  2.1510 -0.5247 -1.1724
   89SAPE     N 8593   1.650   5.110   7.502  0.0279 -0.9908 -0.2432
   89SAPE   HN1 8594   1.593   5.032   7.539  0.5125 -1.4105 -0.3690
   89SAPE   HN2 8595   1.604   5.126   7.410  1.4286 -2.5688 -1.2665
   89SAPE   HN3 8596   1.744   5.066   7.500  0.5122 -0.0204  0.2762
   89SAPE   C12 8597   1.639   5.230   7.596 -0.4973  0.9915  0.0490
   89SAPE  H12A 8598   1.741   5.272   7.586  0.4055 -0.9585  0.6121
   89SAPE  H12B 8599   1.638   5.187   7.698 -0.7073  1.8295  0.4038
   89SAPE   C11 8600   1.521   5.323   7.582  0.0747  0.1102  0.0218
   89SAPE  H11A 8601   1.536   5.384   7.491  2.0904  1.3588  1.0960
   89SAPE  H11B 8602   1.518   5.402   7.660 -0.6860  0.0017  0.1077
   89SAPE     P 8603   1.262   5.310   7.510 -0.0862 -0.3646  0.3430
   89SAPE   O13 8604   1.204   5.214   7.414 -0.2950  0.3048  0.1257
   89SAPE   O14 8605   1.178   5.344   7.630  0.2393 -0.6619  0.3516
   89SAPE   O12 8606   1.395   5.256   7.576 -0.0869 -0.2642  0.2893
   89SAPE   O11 8607   1.293   5.451   7.435  0.2007 -0.2617 -0.0145
   89SAPE    C1 8608   1.370   5.443   7.312 -0.5951  1.0909 -0.1214
   89SAPE    HA 8609   1.445   5.524   7.331 -1.3795  1.6132  0.8474
   89SAPE    HB 8610   1.434   5.353   7.300 -0.3315  1.2062  0.3875
   89SAPE    C2 8611   1.281   5.459   7.193  0.3574  0.0873 -0.4541
   89SAPE    HS 8612   1.220   5.366   7.194 -0.5290  0.6485  1.4056
   89SAPE   O21 8613   1.372   5.469   7.082 -0.0026 -0.4110 -0.0329
   89SAPE   C21 8614   1.428   5.358   7.034  0.3577  0.3870 -0.1932
   89SAPE   O22 8615   1.403   5.245   7.075  0.0318  0.2774 -0.3538
   89SAPE   C22 8616   1.524   5.391   6.922  0.2698 -0.3593  0.5603
   89SAPE   H2R 8617   1.482   5.460   6.845  2.2183  0.3597  0.0849
   89SAPE   H2S 8618   1.606   5.452   6.967  1.3621 -0.3875 -1.2830
   89SAPE    C3 8619   1.193   5.581   7.200 -0.2874  0.0264  0.1281
   89SAPE    HX 8620   1.262   5.667   7.211 -0.1544  0.0555 -0.8125
   89SAPE    HY 8621   1.120   5.571   7.283 -1.4021 -0.3065 -0.8543
   89SAPE   O31 8622   1.102   5.603   7.090  0.2838 -0.0529  0.3204
   89SAPE   C31 8623   1.139   5.681   6.987  0.4386 -0.1783 -0.5230
   89SAPE   O32 8624   1.244   5.742   6.977 -0.8554  0.3886  0.8150
   89SAPE   C32 8625   1.028   5.680   6.885  0.2502  0.4368 -0.1167
   89SAPE   H2X 8626   0.924   5.675   6.922  0.5313 -1.4786  0.5027
   89SAPE   H2Y 8627   1.052   5.589   6.826 -2.7670  1.2909 -2.9428
   89SAPE   C23 8628   1.576   5.266   6.847 -0.4122 -0.3020  0.1232
   89SAPE   H3R 8629   1.492   5.215   6.796 -1.3114  1.5382 -0.3215
   89SAPE   H3S 8630   1.642   5.200   6.906  3.7940  3.3357  0.0807
   89SAPE   C24 8631   1.680   5.303   6.733  0.3155 -0.0784  0.2630
   89SAPE   H4R 8632   1.727   5.211   6.693 -3.5325 -3.2872  2.4022
   89SAPE   H4S 8633   1.759   5.360   6.785  0.7776  1.3078 -1.8198
   89SAPE   C25 8634   1.617   5.383   6.625  0.3519 -0.3514  0.0082
   89SAPE   H5R 8635   1.612   5.492   6.635 -1.2251 -0.3726 -0.2700
   89SAPE   C26 8636   1.556   5.348   6.510 -0.2016  0.5321 -0.2752
   89SAPE   H6R 8637   1.508   5.424   6.448 -0.2460  0.3566 -0.4564
   89SAPE   C27 8638   1.555   5.204   6.458  0.2504 -0.2687  0.3790
   89SAPE   H7R 8639   1.539   5.121   6.530 -1.2351 -0.3751 -0.0369
   89SAPE   H7S 8640   1.656   5.179   6.420  0.1646  0.5770 -0.4501
   89SAPE   C28 8641   1.461   5.161   6.350  0.0863  1.0665 -0.8848
   89SAPE   H8R 8642   1.394   5.079   6.382  1.5234  0.1262 -0.1904
   89SAPE   C29 8643   1.467   5.201   6.221 -0.6948  0.0308 -0.2221
   89SAPE   H9R 8644   1.396   5.152   6.152  0.0058 -0.3320 -0.6873
   89SAPE  C210 8645   1.566   5.296   6.160  0.3240 -0.0722  0.3331
   89SAPE  H10R 8646   1.641   5.331   6.235  2.6850 -1.0834 -1.4397
   89SAPE  H10S 8647   1.518   5.393   6.135  0.2293 -0.1982  0.0204
   89SAPE  C211 8648   1.652   5.238   6.046 -0.2119  0.3394  0.4020
   89SAPE  H11R 8649   1.678   5.131   6.048 -2.8908 -0.4228 -0.8824
   89SAPE  C212 8650   1.677   5.296   5.929 -0.8489 -0.0892 -0.1626
   89SAPE  H12R 8651   1.740   5.243   5.856 -1.7361  0.0294 -1.0305
   89SAPE  C213 8652   1.643   5.434   5.891 -0.0142 -1.0669 -0.3838
   89SAPE  H13R 8653   1.718   5.473   5.819 -0.6938  2.0489  0.4357
   89SAPE  H13S 8654   1.657   5.486   5.988  0.5986  0.8759 -1.4600
   89SAPE  C214 8655   1.502   5.462   5.850  0.1074 -0.5459  0.2850
   89SAPE  H14R 8656   1.428   5.452   5.931 -0.7195  0.1678 -0.3638
   89SAPE  C215 8657   1.458   5.501   5.730 -0.2012 -0.1351  0.7522
   89SAPE  H15R 8658   1.349   5.517   5.717 -0.0830 -0.0678 -0.1811
   89SAPE  C216 8659   1.535   5.547   5.617 -0.1342 -0.1159 -0.3993
   89SAPE  H16R 8660   1.621   5.599   5.664 -2.1803  0.7647  2.7217
   89SAPE  H16S 8661   1.480   5.629   5.565  0.3032  0.3665 -0.1170
   89SAPE  C217 8662   1.587   5.443   5.517  0.2345 -0.8969  0.3700
   89SAPE  H17R 8663   1.610   5.348   5.569  0.4319 -0.7846  0.4889
   89SAPE  H17S 8664   1.681   5.491   5.482  1.9405 -0.8824  4.4473
   89SAPE  C218 8665   1.483   5.410   5.410 -0.2754 -0.3332  0.3530
   89SAPE  H18R 8666   1.444   5.505   5.367 -0.2948  0.4789  2.0950
   89SAPE  H18S 8667   1.399   5.359   5.462 -0.5363  0.6438  0.9192
   89SAPE  C219 8668   1.553   5.328   5.299 -0.6604  0.3634  0.0531
   89SAPE  H19R 8669   1.580   5.230   5.343 -1.7229 -0.5739 -1.3158
   89SAPE  H19S 8670   1.646   5.379   5.264 -0.6174 -0.1285 -0.5712
   89SAPE  C220 8671   1.460   5.309   5.182  0.1793 -0.5169  0.2215
   89SAPE  H20R 8672   1.514   5.245   5.109  1.4856  0.5757  0.1966
   89SAPE  H20S 8673   1.445   5.407   5.134 -1.0832 -1.7815 -2.1180
   89SAPE  H20T 8674   1.359   5.266   5.203 -0.8987  1.5151 -0.6021
   89SAPE   C33 8675   1.032   5.787   6.784  0.2378  0.0563 -0.2675
   89SAPE   H3X 8676   1.134   5.809   6.746 -0.8061  1.8838 -2.2547
   89SAPE   H3Y 8677   1.008   5.884   6.834  0.7579 -0.4778  1.0513
   89SAPE   C34 8678   0.928   5.765   6.666  0.7366 -0.1391  0.1445
   89SAPE   H4X 8679   0.825   5.788   6.703 -0.0451  2.6276 -3.2527
   89SAPE   H4Y 8680   0.923   5.659   6.635 -0.4994 -0.1150  0.1828
   89SAPE   C35 8681   0.956   5.859   6.548 -0.0026 -0.5273  0.2221
   89SAPE   H5X 8682   1.050   5.823   6.500  0.6873 -1.0322  1.8574
   89SAPE   H5Y 8683   0.984   5.960   6.583 -0.6203  0.4473 -1.9251
   89SAPE   C36 8684   0.846   5.872   6.451 -0.8429  0.6610  0.2005
   89SAPE   H6X 8685   0.895   5.950   6.388 -0.8904 -0.0881 -0.7861
   89SAPE   H6Y 8686   0.750   5.907   6.494 -0.4841  1.2427  0.5381
   89SAPE   C37 8687   0.835   5.732   6.382 -0.4719  0.1557 -0.4234
   89SAPE   H7X 8688   0.799   5.658   6.457 -2.2776  0.7539 -0.6649
   89SAPE   H7Y 8689   0.935   5.694   6.349 -1.4259 -0.1673 -3.1602
   89SAPE   C38 8690   0.735   5.730   6.269  0.1445 -0.1910 -0.0648
   89SAPE   H8X 8691   0.641   5.772   6.312  0.0694  0.5138 -0.9004
   89SAPE   H8Y 8692   0.698   5.627   6.252  0.6539 -0.3829 -0.0055
   89SAPE   C39 8693   0.777   5.811   6.149 -0.0468  0.0044 -0.2393
   89SAPE   H9X 8694   0.877   5.779   6.115  1.7741  0.5487  3.9997
   89SAPE   H9Y 8695   0.776   5.917   6.184  0.0429 -0.3165  0.7772
   89SAPE  C310 8696   0.672   5.800   6.035 -0.0552 -0.7903 -0.7326
   89SAPE  H10X 8697   0.689   5.882   5.962  2.3714  0.4407  1.0780
   89SAPE  H10Y 8698   0.563   5.804   6.054  0.2958  3.1711  1.5858
   89SAPE  C311 8699   0.701   5.667   5.957  0.1155 -0.5287  0.5437
   89SAPE  H11X 8700   0.693   5.578   6.024  1.1100  0.3939  1.9343
   89SAPE  H11Y 8701   0.809   5.664   5.933  0.1817  0.7481  0.6301
   89SAPE  C312 8702   0.619   5.636   5.828 -0.0073 -0.0955  0.1289
   89SAPE  H12X 8703   0.606   5.727   5.764  0.0185 -0.5568 -0.5424
   89SAPE  H12Y 8704   0.512   5.617   5.848 -0.0127  0.8012  1.0458
   89SAPE  C313 8705   0.690   5.519   5.768 -0.3770  0.1608  0.6148
   89SAPE  H13X 8706   0.715   5.456   5.855  0.9719  0.1672  0.2545
   89SAPE  H13Y 8707   0.782   5.559   5.720  0.2525  0.1549  1.7893
   89SAPE  C314 8708   0.601   5.419   5.689 -0.2606 -0.2222  0.0680
   89SAPE  H14X 8709   0.518   5.379   5.751  0.2088 -0.7839  0.3418
   89SAPE  H14Y 8710   0.660   5.330   5.658 -1.4534 -0.5006 -1.5475
   89SAPE  C315 8711   0.536   5.480   5.556 -0.5813 -0.2538 -0.6171
   89SAPE  H15X 8712   0.490   5.576   5.588 -1.0593 -0.4477 -0.7247
   89SAPE  H15Y 8713   0.449   5.415   5.533  0.2682 -1.4846 -0.4563
   89SAPE  C316 8714   0.644   5.521   5.456  0.1014 -0.3705 -0.0145
   89SAPE  H16X 8715   0.677   5.433   5.397  0.1458  0.7556 -1.7413
   89SAPE  H16Y 8716   0.730   5.563   5.513 -2.3784  0.2467  3.6638
   89SAPE  C317 8717   0.579   5.614   5.346  0.7684  0.5091 -0.0859
   89SAPE  H17X 8718   0.591   5.715   5.390  1.6366  0.8030 -0.9562
   89SAPE  H17Y 8719   0.470   5.592   5.335  0.0631  2.4966  2.0668
   89SAPE  C318 8720   0.659   5.612   5.216  0.0458  0.1355 -0.3334
   89SAPE  H18X 8721   0.663   5.515   5.162  2.1196  0.1078 -0.2210
   89SAPE  H18Y 8722   0.764   5.638   5.242 -0.2127  0.5747  0.3032
   89SAPE  H18Z 8723   0.616   5.683   5.142  1.3431  0.4827 -0.7708
   90SAPE     N 8724   3.780   0.151   7.401  0.7133  0.0806 -0.1267
   90SAPE   HN1 8725   3.684   0.143   7.362  1.4762 -1.0242 -1.8763
   90SAPE   HN2 8726   3.776   0.100   7.492 -0.0364  0.1273 -0.1264
   90SAPE   HN3 8727   3.807   0.249   7.424 -1.5109 -0.0580  3.9935
   90SAPE   C12 8728   3.876   0.088   7.305 -0.2733  0.5430  0.1983
   90SAPE  H12A 8729   3.874   0.152   7.214 -1.6185 -1.4918 -1.3112
   90SAPE  H12B 8730   3.830  -0.010   7.279 -0.7454  0.1891  2.2127
   90SAPE   C11 8731   4.020   0.060   7.354 -0.1918  0.0533  0.5186
   90SAPE  H11A 8732   4.083   0.029   7.268  1.9518  0.6778  1.7997
   90SAPE  H11B 8733   4.031  -0.028   7.420 -1.3881  0.6883  1.6098
   90SAPE     P 8734   4.222   0.213   7.436 -0.4168  0.1468 -0.2789
   90SAPE   O13 8735   4.233   0.228   7.586 -0.4491  0.3403 -0.4372
   90SAPE   O14 8736   4.316   0.112   7.376  0.0893 -0.4696 -0.3394
   90SAPE   O12 8737   4.076   0.185   7.406  0.5991 -0.0453  0.3883
   90SAPE   O11 8738   4.251   0.356   7.380 -0.3749 -0.4453 -0.1279
   90SAPE    C1 8739   4.166   0.418   7.282  0.2198 -0.0013  0.2960
   90SAPE    HA 8740   4.056   0.406   7.294  0.0508  1.3066  0.2596
   90SAPE    HB 8741   4.189   0.526   7.295 -2.5300  0.8017 -0.7978
   90SAPE    C2 8742   4.177   0.365   7.146 -0.2601  0.4327 -0.1896
   90SAPE    HS 8743   4.131   0.264   7.147  0.1293  0.2538  0.9539
   90SAPE   O21 8744   4.314   0.360   7.103  0.3330  0.3383  0.7911
   90SAPE   C21 8745   4.348   0.253   7.042 -0.2756 -0.4490  0.3654
   90SAPE   O22 8746   4.276   0.153   7.025 -0.2951 -0.0565  0.8488
   90SAPE   C22 8747   4.500   0.265   7.006  0.4599  0.4681 -0.7908
   90SAPE   H2R 8748   4.504   0.327   6.913 -0.3220  1.2184 -0.3348
   90SAPE   H2S 8749   4.539   0.319   7.095 -0.7767 -2.6535  1.8375
   90SAPE    C3 8750   4.081   0.441   7.049 -0.2391 -0.5912 -0.5107
   90SAPE    HX 8751   4.116   0.546   7.042 -0.6023 -0.3558  0.9444
   90SAPE    HY 8752   3.981   0.448   7.099  1.1316 -1.4409  2.6248
   90SAPE   O31 8753   4.093   0.397   6.915 -0.1780 -0.3740 -0.3447
   90SAPE   C31 8754   4.024   0.296   6.881 -0.5861 -0.6141 -0.6723
   90SAPE   O32 8755   3.944   0.242   6.958 -0.0560  0.2724 -0.0086
   90SAPE   C32 8756   4.041   0.268   6.735  0.0328  0.2261  0.0146
   90SAPE   H2X 8757   4.123   0.193   6.731 -0.3975 -0.3119  0.9987
   90SAPE   H2Y 8758   4.077   0.358   6.679  1.0890 -1.5768 -2.3663
   90SAPE   C23 8759   4.561   0.126   6.984 -0.1723 -0.2139 -0.4299
   90SAPE   H3R 8760   4.506   0.064   6.911 -0.0081  2.5843 -3.0952
   90SAPE   H3S 8761   4.573   0.084   7.087  2.5660  0.4494 -0.4078
   90SAPE   C24 8762   4.704   0.142   6.928  0.2162 -0.7531 -0.0728
   90SAPE   H4R 8763   4.695   0.156   6.818 -0.5069  1.4859  0.2173
   90SAPE   H4S 8764   4.752   0.042   6.941  0.5124 -0.4894  0.9682
   90SAPE   C25 8765   4.793   0.243   7.003 -0.5052  1.2571  0.8087
   90SAPE   H5R 8766   4.812   0.203   7.104 -2.9171 -0.7116  0.5865
   90SAPE   C26 8767   4.842   0.349   6.944  0.0661  0.1004 -0.2233
   90SAPE   H6R 8768   4.900   0.414   7.010 -0.1085 -1.4918  1.5867
   90SAPE   C27 8769   4.830   0.405   6.805  0.6153  0.0351 -0.5100
   90SAPE   H7R 8770   4.826   0.516   6.812 -0.1137  0.0740 -1.3497
   90SAPE   H7S 8771   4.735   0.364   6.764  0.2966 -0.5271  0.7590
   90SAPE   C28 8772   4.942   0.360   6.715  0.5486  0.3566 -0.0435
   90SAPE   H8R 8773   4.998   0.268   6.737 -1.8094 -1.1036  0.2587
   90SAPE   C29 8774   4.965   0.427   6.601 -1.0926  1.0962  1.2320
   90SAPE   H9R 8775   5.035   0.377   6.531 -2.0572 -0.1489  1.1204
   90SAPE  C210 8776   4.894   0.552   6.551  0.1863  0.6722  0.6292
   90SAPE  H10R 8777   4.935   0.645   6.595 -0.3831  1.1098  0.2508
   90SAPE  H10S 8778   4.785   0.551   6.574 -0.4302  1.9420 -1.8704
   90SAPE  C211 8779   4.916   0.574   6.403 -0.0757  0.2816  0.3924
   90SAPE  H11R 8780   4.825   0.548   6.346 -0.8344  1.1701  1.1742
   90SAPE  C212 8781   5.020   0.630   6.330  0.6842  0.2279 -0.2058
   90SAPE  H12R 8782   5.020   0.633   6.220  0.0218 -0.3780 -0.2252
   90SAPE  C213 8783   5.139   0.697   6.391 -0.3829  0.3050  0.0597
   90SAPE  H13R 8784   5.230   0.680   6.330 -0.6198 -2.5248  0.3927
   90SAPE  H13S 8785   5.170   0.646   6.485  1.0680  0.6827 -0.2008
   90SAPE  C214 8786   5.117   0.842   6.429 -0.1840  0.3945 -0.1614
   90SAPE  H14R 8787   5.048   0.854   6.514 -0.9926 -0.8984 -0.6010
   90SAPE  C215 8788   5.164   0.948   6.360 -0.1799 -0.5917 -0.2656
   90SAPE  H15R 8789   5.130   1.050   6.385 -3.1898 -1.5605 -0.0892
   90SAPE  C216 8790   5.253   0.938   6.239  0.0315  0.3700  1.1830
   90SAPE  H16R 8791   5.265   0.835   6.199  0.1280 -0.4629  3.2334
   90SAPE  H16S 8792   5.354   0.971   6.270 -0.1145  1.8707  0.2003
   90SAPE  C217 8793   5.209   1.050   6.133  0.2150 -0.5788 -1.0280
   90SAPE  H17R 8794   5.189   1.146   6.186  0.8555 -1.6252  1.2536
   90SAPE  H17S 8795   5.111   1.018   6.093  0.4558 -1.5817 -0.8295
   90SAPE  C218 8796   5.302   1.081   6.016 -0.3566 -0.3844 -0.0045
   90SAPE  H18R 8797   5.408   1.088   6.046  0.1474  2.1805 -2.0349
   90SAPE  H18S 8798   5.265   1.175   5.970 -2.9079 -0.7490  1.1224
   90SAPE  C219 8799   5.292   0.965   5.910 -0.0677 -0.1343 -1.3480
   90SAPE  H19R 8800   5.186   0.935   5.899  0.1710 -0.5739 -2.6020
   90SAPE  H19S 8801   5.344   0.876   5.953 -0.9101  0.2854  0.6374
   90SAPE  C220 8802   5.344   1.011   5.777 -0.2158  0.7623 -0.3957
   90SAPE  H20R 8803   5.285   1.085   5.719 -2.3503 -1.2117 -0.8624
   90SAPE  H20S 8804   5.371   0.920   5.720 -1.5411  0.3147 -0.3245
   90SAPE  H20T 8805   5.444   1.060   5.785 -0.0417  0.8287 -2.4175
   90SAPE   C33 8806   3.917   0.216   6.665 -0.2739 -0.4099 -0.0187
   90SAPE   H3X 8807   3.838   0.289   6.690 -0.3031 -0.1745 -0.7951
   90SAPE   H3Y 8808   3.877   0.120   6.704  0.0195 -0.1100  1.0632
   90SAPE   C34 8809   3.947   0.179   6.522 -0.5129 -0.3135  0.1919
   90SAPE   H4X 8810   4.002   0.084   6.504 -0.1647 -0.0694 -0.0481
   90SAPE   H4Y 8811   4.001   0.260   6.469  0.6076 -1.5295 -0.5894
   90SAPE   C35 8812   3.821   0.164   6.439  0.2921  0.0469  0.0656
   90SAPE   H5X 8813   3.756   0.254   6.439 -2.6183 -1.7567  3.2915
   90SAPE   H5Y 8814   3.758   0.088   6.492 -0.5266 -0.9186 -2.1634
   90SAPE   C36 8815   3.855   0.105   6.302  0.4843 -0.3080  0.4286
   90SAPE   H6X 8816   3.916   0.014   6.323 -0.9053 -0.9785  1.7079
   90SAPE   H6Y 8817   3.920   0.171   6.242 -2.6841  2.5860 -0.1253
   90SAPE   C37 8818   3.730   0.054   6.220 -0.8762  0.3726 -0.3303
   90SAPE   H7X 8819   3.664   0.142   6.204 -1.0359  0.0167 -1.7510
   90SAPE   H7Y 8820   3.667  -0.011   6.284  0.5772 -0.6015  0.1633
   90SAPE   C38 8821   3.760  -0.003   6.089 -0.5881  0.5528  0.6904
   90SAPE   H8X 8822   3.670  -0.023   6.027  2.1423  0.5090 -3.7279
   90SAPE   H8Y 8823   3.802  -0.105   6.103 -0.1278  0.8829  1.7193
   90SAPE   C39 8824   3.862   0.083   6.004  0.1614  0.2617 -0.2938
   90SAPE   H9X 8825   3.953   0.091   6.066 -1.0517 -2.2805  2.0093
   90SAPE   H9Y 8826   3.827   0.189   6.001  0.1371  0.2362 -1.2668
   90SAPE  C310 8827   3.876   0.026   5.861  0.1558 -0.5161  0.1980
   90SAPE  H10X 8828   3.888  -0.085   5.857 -0.7843 -0.5886 -1.0200
   90SAPE  H10Y 8829   3.971   0.076   5.833 -0.7937  1.7521  0.7693
   90SAPE  C311 8830   3.756   0.071   5.763 -0.7357  0.2019 -0.4118
   90SAPE  H11X 8831   3.733   0.178   5.781 -0.3490  0.1333  0.5161
   90SAPE  H11Y 8832   3.671   0.009   5.798  0.5511 -0.7638  1.1296
   90SAPE  C312 8833   3.787   0.055   5.614 -0.1107 -0.1944  0.1651
   90SAPE  H12X 8834   3.858   0.138   5.591  0.3948 -0.9633 -1.1727
   90SAPE  H12Y 8835   3.699   0.080   5.550  0.0959 -2.8542 -1.3014
   90SAPE  C313 8836   3.819  -0.086   5.568  0.1249  0.0403  0.8975
   90SAPE  H13X 8837   3.724  -0.143   5.563  0.1404  0.1366 -1.1443
   90SAPE  H13Y 8838   3.876  -0.139   5.647  0.3149 -1.6275 -0.3205
   90SAPE  C314 8839   3.887  -0.072   5.430 -0.6373 -0.7285 -0.1052
   90SAPE  H14X 8840   3.977  -0.008   5.438 -0.0892 -1.4199 -0.5641
   90SAPE  H14Y 8841   3.827  -0.005   5.365 -1.8183 -2.3003 -0.7009
   90SAPE  C315 8842   3.912  -0.205   5.357 -0.4564 -0.8289  0.1246
   90SAPE  H15X 8843   3.984  -0.261   5.421 -0.4292 -2.6755 -1.4596
   90SAPE  H15Y 8844   3.960  -0.191   5.258 -0.4746 -1.5241  0.0124
   90SAPE  C316 8845   3.785  -0.287   5.328 -0.1001  0.4426  0.1192
   90SAPE  H16X 8846   3.792  -0.314   5.221 -2.4976  1.7638 -0.4380
   90SAPE  H16Y 8847   3.701  -0.217   5.344  1.4572  2.1037  1.5045
   90SAPE  C317 8848   3.770  -0.410   5.416 -0.3876 -0.2097 -0.8971
   90SAPE  H17X 8849   3.800  -0.394   5.522  2.0270  2.6385 -1.8869
   90SAPE  H17Y 8850   3.851  -0.481   5.388 -0.3352 -1.2995  1.7156
   90SAPE  C318 8851   3.629  -0.469   5.401  0.5153  0.5638  0.1653
   90SAPE  H18X 8852   3.609  -0.497   5.295 -1.1294  0.8349  0.3840
   90SAPE  H18Y 8853   3.559  -0.388   5.427  1.1916  1.0000  0.6665
   90SAPE  H18Z 8854   3.617  -0.545   5.481 -0.1918  0.6549  0.1509
   91SAPE     N 8855   1.316   0.566   7.343  0.5267 -0.4238  0.1040
   91SAPE   HN1 8856   1.236   0.553   7.277  0.2642 -0.8314  0.5020
   91SAPE   HN2 8857   1.284   0.611   7.431  1.2988 -0.8401  0.6074
   91SAPE   HN3 8858   1.393   0.626   7.306  0.8507 -2.2013 -2.3789
   91SAPE   C12 8859   1.363   0.432   7.385 -0.8933  0.1974 -0.2120
   91SAPE  H12A 8860   1.275   0.371   7.417  0.2898 -2.1797 -1.2574
   91SAPE  H12B 8861   1.424   0.445   7.477  0.5128  1.6652 -1.2963
   91SAPE   C11 8862   1.438   0.356   7.274  0.0463  0.2554 -0.2337
   91SAPE  H11A 8863   1.528   0.415   7.247 -0.4832  0.7391 -0.9913
   91SAPE  H11B 8864   1.376   0.358   7.181 -0.6823 -2.9031  0.0437
   91SAPE     P 8865   1.362   0.118   7.318 -0.0742 -0.2804  0.1762
   91SAPE   O13 8866   1.337   0.056   7.452 -0.1420 -0.4342 -0.2910
   91SAPE   O14 8867   1.242   0.174   7.251 -0.0801 -0.2379  0.0342
   91SAPE   O12 8868   1.476   0.224   7.322  0.1139  0.0341 -0.3061
   91SAPE   O11 8869   1.432   0.002   7.233  0.3339  0.1946 -0.2311
   91SAPE    C1 8870   1.530   0.023   7.129  0.7143 -0.8561  0.3357
   91SAPE    HA 8871   1.617   0.085   7.162  1.8577 -2.0278 -0.3562
   91SAPE    HB 8872   1.585  -0.071   7.108 -0.6240 -1.8855  1.3758
   91SAPE    C2 8873   1.472   0.086   6.999 -0.1043 -0.9409 -0.2003
   91SAPE    HS 8874   1.417   0.181   7.019  0.4719 -0.2340 -1.7344
   91SAPE   O21 8875   1.376  -0.018   6.960 -0.4173  0.8357 -0.1412
   91SAPE   C21 8876   1.277   0.016   6.883 -0.6312  0.8715 -0.5310
   91SAPE   O22 8877   1.251   0.129   6.848  0.1465  0.3165 -0.5087
   91SAPE   C22 8878   1.195  -0.109   6.845  0.7688 -0.0376  0.0341
   91SAPE   H2R 8879   1.256  -0.182   6.787 -0.8861 -1.8330  0.4482
   91SAPE   H2S 8880   1.162  -0.166   6.935  0.3716 -0.8140 -0.5854
   91SAPE    C3 8881   1.577   0.114   6.885  0.0350  0.2903  0.2033
   91SAPE    HX 8882   1.606   0.008   6.868 -2.4069 -0.2780 -0.7890
   91SAPE    HY 8883   1.662   0.171   6.929  0.6494 -0.8072  0.4724
   91SAPE   O31 8884   1.524   0.164   6.760  0.0554 -0.1833 -0.9332
   91SAPE   C31 8885   1.612   0.236   6.686 -0.2549 -0.2869  0.3572
   91SAPE   O32 8886   1.725   0.269   6.717 -0.5328  0.2354 -0.0529
   91SAPE   C32 8887   1.537   0.279   6.555  0.2203 -0.2084 -0.5493
   91SAPE   H2X 8888   1.480   0.367   6.594  2.1043  0.3454  1.1407
   91SAPE   H2Y 8889   1.475   0.191   6.527  0.4632 -0.2131 -1.0876
   91SAPE   C23 8890   1.063  -0.077   6.768  0.7776  0.4563 -0.4750
   91SAPE   H3R 8891   1.089  -0.021   6.676 -0.6107  1.5235 -0.2393
   91SAPE   H3S 8892   1.008  -0.009   6.835 -1.7417 -1.5942 -0.2789
   91SAPE   C24 8893   0.968  -0.187   6.731  0.1376 -0.0588 -0.1620
   91SAPE   H4R 8894   0.947  -0.235   6.829 -0.7312  3.2090  1.4039
   91SAPE   H4S 8895   1.017  -0.255   6.658 -1.4818 -0.5432 -0.8340
   91SAPE   C25 8896   0.842  -0.136   6.667  0.0487 -0.1155  0.6927
   91SAPE   H5R 8897   0.776  -0.083   6.738 -0.4590  1.2627 -0.7450
   91SAPE   C26 8898   0.806  -0.125   6.535 -0.1977 -0.4193  0.0208
   91SAPE   H6R 8899   0.715  -0.074   6.501  1.4524  2.1979 -0.7856
   91SAPE   C27 8900   0.892  -0.164   6.422  0.4416  0.3858 -0.8153
   91SAPE   H7R 8901   0.849  -0.240   6.354 -0.1832  0.8693 -0.9662
   91SAPE   H7S 8902   0.981  -0.216   6.465 -0.5099 -0.1487  0.5884
   91SAPE   C28 8903   0.926  -0.053   6.328  0.4008 -0.1151 -0.3814
   91SAPE   H8R 8904   1.023  -0.001   6.341  1.3028 -0.8108 -3.5078
   91SAPE   C29 8905   0.849  -0.000   6.232 -0.4670 -0.0653 -0.2801
   91SAPE   H9R 8906   0.886   0.088   6.177 -2.0906  2.0112  1.7321
   91SAPE  C210 8907   0.710  -0.055   6.201  0.8039 -0.2119 -0.2414
   91SAPE  H10R 8908   0.648  -0.040   6.291  1.1455 -1.5236  0.2310
   91SAPE  H10S 8909   0.712  -0.163   6.178 -2.0517 -0.7183  1.4122
   91SAPE  C211 8910   0.632   0.013   6.085  0.1047  0.2605 -0.1426
   91SAPE  H11R 8911   0.559   0.087   6.122  0.2602  0.8697 -1.0114
   91SAPE  C212 8912   0.635  -0.014   5.951 -0.1718 -0.0352  0.3706
   91SAPE  H12R 8913   0.569   0.046   5.887 -0.9662 -1.1881  0.0734
   91SAPE  C213 8914   0.716  -0.125   5.889  0.1117  0.1573  0.5383
   91SAPE  H13R 8915   0.662  -0.171   5.803  0.4599 -0.0230  0.4132
   91SAPE  H13S 8916   0.732  -0.217   5.949 -3.1139  0.0927  1.4762
   91SAPE  C214 8917   0.855  -0.069   5.849  0.4638  1.2806 -0.3597
   91SAPE  H14R 8918   0.917  -0.059   5.939 -0.2919 -1.3207  0.5481
   91SAPE  C215 8919   0.903  -0.027   5.732  0.1993 -0.9793 -0.1297
   91SAPE  H15R 8920   1.003   0.018   5.725 -0.4905  1.7683  4.2098
   91SAPE  C216 8921   0.822  -0.029   5.604  0.2582  0.0334 -0.0639
   91SAPE  H16R 8922   0.728  -0.086   5.617 -2.4435  3.9016 -0.7452
   91SAPE  H16S 8923   0.880  -0.091   5.533  0.5972  0.5053 -0.2072
   91SAPE  C217 8924   0.790   0.112   5.556 -0.0703 -0.2191 -0.2247
   91SAPE  H17R 8925   0.760   0.117   5.449  1.7801  0.5220 -0.7442
   91SAPE  H17S 8926   0.889   0.158   5.537 -0.2649  0.1511 -0.3608
   91SAPE  C218 8927   0.695   0.193   5.639 -0.4973 -0.1614 -0.3448
   91SAPE  H18R 8928   0.747   0.230   5.730 -1.6970 -1.3600  0.8901
   91SAPE  H18S 8929   0.624   0.111   5.666  2.1589 -1.6855  2.7773
   91SAPE  C219 8930   0.612   0.292   5.569  0.2808 -0.1017 -0.0629
   91SAPE  H19R 8931   0.518   0.310   5.626 -1.3077  0.4299 -2.6415
   91SAPE  H19S 8932   0.582   0.244   5.473 -0.4037 -0.2159  0.2011
   91SAPE  C220 8933   0.683   0.425   5.542  0.0899 -0.5572  0.3837
   91SAPE  H20R 8934   0.730   0.458   5.638  1.0092 -1.3327  0.2074
   91SAPE  H20S 8935   0.614   0.502   5.502 -0.4874 -2.2069 -1.9722
   91SAPE  H20T 8936   0.772   0.415   5.477 -0.2313 -0.8602 -0.0076
   91SAPE   C33 8937   1.636   0.319   6.443  0.1867 -0.1311 -0.1082
   91SAPE   H3X 8938   1.716   0.245   6.423 -0.2130 -0.6276  0.0997
   91SAPE   H3Y 8939   1.684   0.417   6.467 -0.0042  0.5165 -2.2322
   91SAPE   C34 8940   1.564   0.326   6.314 -0.2258  0.3301 -0.0091
   91SAPE   H4X 8941   1.492   0.409   6.324  1.1437  1.5762 -0.1457
   91SAPE   H4Y 8942   1.509   0.231   6.295 -2.7774  1.0727  2.7955
   91SAPE   C35 8943   1.657   0.358   6.202 -0.2899  0.0882 -0.3807
   91SAPE   H5X 8944   1.724   0.270   6.187 -0.2085  0.2225 -0.8338
   91SAPE   H5Y 8945   1.705   0.455   6.231 -2.2990  0.8603  0.5605
   91SAPE   C36 8946   1.575   0.361   6.074  0.0477  0.0377  0.0783
   91SAPE   H6X 8947   1.530   0.459   6.049  0.7383 -0.0430 -1.6527
   91SAPE   H6Y 8948   1.501   0.278   6.078  0.5425 -0.3383  2.1189
   91SAPE   C37 8949   1.668   0.346   5.943  0.2437  0.1771  0.4828
   91SAPE   H7X 8950   1.732   0.258   5.961  0.4278  0.3374  0.6223
   91SAPE   H7Y 8951   1.731   0.437   5.933 -1.1899  1.5044  2.6895
   91SAPE   C38 8952   1.595   0.322   5.813  0.3797  0.3419 -0.3902
   91SAPE   H8X 8953   1.508   0.391   5.804  0.7765  1.0643  1.0612
   91SAPE   H8Y 8954   1.560   0.217   5.804 -1.5584  0.9811 -0.8037
   91SAPE   C39 8955   1.687   0.349   5.689 -0.5117  0.4321 -0.0852
   91SAPE   H9X 8956   1.629   0.308   5.603  0.6147 -2.2615  0.3287
   91SAPE   H9Y 8957   1.781   0.300   5.721 -0.7963  0.3476  0.6453
   91SAPE  C310 8958   1.730   0.493   5.664 -0.7719 -0.4587 -0.0519
   91SAPE  H10X 8959   1.800   0.530   5.742 -0.8047 -0.5500  0.0205
   91SAPE  H10Y 8960   1.644   0.560   5.685  0.5334  1.4218 -0.4494
   91SAPE  C311 8961   1.787   0.508   5.526 -0.6965 -0.2906 -0.4289
   91SAPE  H11X 8962   1.715   0.471   5.450 -0.2502  2.7301 -2.4861
   91SAPE  H11Y 8963   1.885   0.461   5.500 -0.8908 -0.8379 -0.1717
   91SAPE  C312 8964   1.803   0.655   5.480  0.5078  0.2644  0.0610
   91SAPE  H12X 8965   1.851   0.712   5.562 -0.2569 -0.3577  0.9617
   91SAPE  H12Y 8966   1.701   0.698   5.474  0.4049 -0.0096 -5.1873
   91SAPE  C313 8967   1.858   0.681   5.342 -0.1714  0.4349 -0.4794
   91SAPE  H13X 8968   1.955   0.627   5.351  0.0833  0.9720  0.0857
   91SAPE  H13Y 8969   1.875   0.789   5.321 -1.8114  0.4967 -1.6918
   91SAPE  C314 8970   1.785   0.624   5.219  0.1201  0.0085  0.2891
   91SAPE  H14X 8971   1.765   0.518   5.243  0.2931  0.0757  0.7498
   91SAPE  H14Y 8972   1.871   0.623   5.148  1.8605 -0.2877  2.3048
   91SAPE  C315 8973   1.666   0.708   5.170  0.0940  0.7861 -0.1438
   91SAPE  H15X 8974   1.694   0.814   5.188  1.2277  0.2838  1.2664
   91SAPE  H15Y 8975   1.568   0.683   5.215  0.4857  0.2762  0.4444
   91SAPE  C316 8976   1.645   0.687   5.022  0.5339 -0.0553 -0.2126
   91SAPE  H16X 8977   1.607   0.583   5.018  1.2790 -0.3032 -1.4336
   91SAPE  H16Y 8978   1.748   0.691   4.980  1.7384  0.1130  2.5483
   91SAPE  C317 8979   1.536   0.782   4.964  0.0748 -0.1184  0.2437
   91SAPE  H17X 8980   1.561   0.890   4.977  0.0929  0.0829 -1.2867
   91SAPE  H17Y 8981   1.437   0.756   5.007 -0.6217 -0.2906 -1.3676
   91SAPE  C318 8982   1.507   0.763   4.810 -0.3534  0.4193 -0.3246
   91SAPE  H18X 8983   1.413   0.813   4.779 -0.2798 -0.3221 -1.8345
   91SAPE  H18Y 8984   1.493   0.653   4.798 -0.2700  0.2728  0.7642
   91SAPE  H18Z 8985   1.590   0.798   4.746  0.8718  2.5678  2.2340
   92SAPE     N 8986   1.959   2.285   7.435 -0.0799 -0.1325 -0.0748
   92SAPE   HN1 8987   1.906   2.354   7.492  0.2874 -0.0286  0.1472
   92SAPE   HN2 8988   1.887   2.211   7.422  1.1985 -1.8009  1.7686
   92SAPE   HN3 8989   2.043   2.243   7.479  0.7955  1.0853 -0.5405
   92SAPE   C12 8990   1.977   2.341   7.293  0.0940  0.0270 -0.5940
   92SAPE  H12A 8991   2.017   2.445   7.296  0.5522 -0.1528 -0.2583
   92SAPE  H12B 8992   1.875   2.339   7.250 -0.5568  0.3296  0.8591
   92SAPE   C11 8993   2.062   2.256   7.198  0.2968 -0.2089 -0.2655
   92SAPE  H11A 8994   2.062   2.311   7.101  3.3279  0.3937 -0.0243
   92SAPE  H11B 8995   2.030   2.151   7.180  2.5591 -1.0185  0.1054
   92SAPE     P 8996   2.263   2.132   7.307  0.3893 -0.1190  0.1085
   92SAPE   O13 8997   2.410   2.161   7.325 -0.2872  0.3416  0.3973
   92SAPE   O14 8998   2.184   2.098   7.421  0.0339 -0.6104  0.1981
   92SAPE   O12 8999   2.198   2.261   7.243  0.2841 -0.5315 -0.0230
   92SAPE   O11 9000   2.230   2.017   7.201 -0.1158  0.2484 -0.4257
   92SAPE    C1 9001   2.258   2.040   7.063 -0.5705  0.3012  0.4992
   92SAPE    HA 9002   2.204   2.127   7.021 -3.2531 -0.4289  2.1670
   92SAPE    HB 9003   2.368   2.052   7.053 -0.4551  0.6609  1.9925
   92SAPE    C2 9004   2.201   1.918   6.981 -0.1504 -0.4711 -0.1486
   92SAPE    HS 9005   2.263   1.827   6.997  1.7496  0.5754 -1.1970
   92SAPE   O21 9006   2.189   1.956   6.842 -0.2017 -0.3915 -0.2684
   92SAPE   C21 9007   2.303   1.933   6.783 -0.5251  0.0004 -0.0871
   92SAPE   O22 9008   2.402   1.883   6.834  0.7064 -0.5023 -0.1680
   92SAPE   C22 9009   2.298   1.971   6.641  0.3088  0.1617 -0.4331
   92SAPE   H2R 9010   2.202   1.937   6.595 -0.1688  3.5582 -2.3342
   92SAPE   H2S 9011   2.297   2.080   6.623  1.7110  0.6422  1.9890
   92SAPE    C3 9012   2.059   1.883   7.026  0.1926  0.1151  0.2142
   92SAPE    HX 9013   1.998   1.975   7.035  1.8639  1.1411  1.4969
   92SAPE    HY 9014   2.064   1.839   7.128  1.1922 -0.2529  0.0210
   92SAPE   O31 9015   1.994   1.776   6.948 -0.4868  0.4491 -0.6751
   92SAPE   C31 9016   1.864   1.770   6.965  0.1967  0.4392 -0.5978
   92SAPE   O32 9017   1.794   1.846   7.033  0.1300 -0.7412 -0.9649
   92SAPE   C32 9018   1.812   1.643   6.893  0.2871  0.3527 -0.3125
   92SAPE   H2X 9019   1.705   1.621   6.915 -0.1240  0.2408 -2.2060
   92SAPE   H2Y 9020   1.875   1.561   6.932 -0.2490 -0.4541 -1.0894
   92SAPE   C23 9021   2.418   1.924   6.562 -0.5132  0.3988  0.6256
   92SAPE   H3R 9022   2.416   1.813   6.566  2.9999  0.0975 -1.6506
   92SAPE   H3S 9023   2.507   1.961   6.616 -1.6834  1.1825  2.0865
   92SAPE   C24 9024   2.421   1.978   6.419 -0.0537 -0.1538  0.6180
   92SAPE   H4R 9025   2.420   2.089   6.409 -2.8439  0.1296  2.7887
   92SAPE   H4S 9026   2.327   1.944   6.371 -0.4953 -1.2273  2.1822
   92SAPE   C25 9027   2.538   1.916   6.352  0.4515  0.1509 -0.3985
   92SAPE   H5R 9028   2.593   1.840   6.409  0.3648  0.3512 -0.0470
   92SAPE   C26 9029   2.570   1.929   6.223  0.2162  0.0350  0.4743
   92SAPE   H6R 9030   2.663   1.884   6.184 -2.1493 -2.4092 -2.8932
   92SAPE   C27 9031   2.509   2.022   6.122 -0.4493  0.3106  0.2065
   92SAPE   H7R 9032   2.598   2.072   6.079 -0.6261 -0.2376 -0.8155
   92SAPE   H7S 9033   2.451   2.111   6.156  1.6132  1.4131  1.0268
   92SAPE   C28 9034   2.432   1.955   6.014 -0.1760 -0.1487  0.1368
   92SAPE   H8R 9035   2.381   1.866   6.054  0.1935  0.9238  3.2810
   92SAPE   C29 9036   2.422   1.978   5.885  0.1391 -0.2305  1.1595
   92SAPE   H9R 9037   2.348   1.924   5.825  1.2080  1.1152 -1.5713
   92SAPE  C210 9038   2.494   2.075   5.798 -0.5471  0.0996 -0.2221
   92SAPE  H10R 9039   2.468   2.180   5.820  1.8758  0.7504 -0.1267
   92SAPE  H10S 9040   2.456   2.061   5.695 -1.8356 -0.4735  0.3116
   92SAPE  C211 9041   2.646   2.042   5.793  0.8619  0.1565 -0.4168
   92SAPE  H11R 9042   2.708   2.090   5.870 -0.8571  1.9654 -0.0746
   92SAPE  C212 9043   2.710   1.956   5.715 -0.4234  0.4214 -0.2411
   92SAPE  H12R 9044   2.818   1.938   5.726 -0.3478  1.8901  2.3495
   92SAPE  C213 9045   2.644   1.895   5.601 -0.2206  0.0708  0.1737
   92SAPE  H13R 9046   2.581   1.973   5.552 -1.8598 -0.3512  1.5402
   92SAPE  H13S 9047   2.578   1.814   5.638 -0.0869 -0.0349  0.1828
   92SAPE  C214 9048   2.737   1.861   5.486 -0.0131 -0.1645  0.0002
   92SAPE  H14R 9049   2.808   1.940   5.459 -3.0157  2.5295 -0.5706
   92SAPE  C215 9050   2.736   1.759   5.399  0.3740  0.8370 -0.4806
   92SAPE  H15R 9051   2.815   1.759   5.322 -0.4350  2.3740 -1.3709
   92SAPE  C216 9052   2.639   1.640   5.390 -0.1374 -0.6743 -0.1034
   92SAPE  H16R 9053   2.567   1.639   5.474 -0.0464  0.7286  0.0248
   92SAPE  H16S 9054   2.688   1.541   5.388 -2.1866 -1.8039  1.9205
   92SAPE  C217 9055   2.541   1.648   5.264 -0.1136  0.2022 -0.6017
   92SAPE  H17R 9056   2.497   1.546   5.259 -0.1382  0.1945 -0.2682
   92SAPE  H17S 9057   2.601   1.658   5.171 -1.9866 -0.9155 -2.0199
   92SAPE  C218 9058   2.427   1.748   5.273 -0.2528  0.1647 -0.1505
   92SAPE  H18R 9059   2.484   1.839   5.304 -0.8257  0.0830  1.2443
   92SAPE  H18S 9060   2.365   1.723   5.362  2.0550  0.6979  1.7275
   92SAPE  C219 9061   2.348   1.767   5.147 -0.1658  0.9109 -0.6182
   92SAPE  H19R 9062   2.422   1.755   5.065  0.2754 -1.8590  0.0713
   92SAPE  H19S 9063   2.317   1.873   5.143  1.7987  1.5275 -0.5637
   92SAPE  C220 9064   2.227   1.668   5.132 -0.9961 -0.0183  0.1275
   92SAPE  H20R 9065   2.166   1.660   5.224  0.0467  0.5440  0.8870
   92SAPE  H20S 9066   2.263   1.567   5.103  0.3945  0.1905  1.0525
   92SAPE  H20T 9067   2.173   1.722   5.051  0.0942  2.8292  1.1890
   92SAPE   C33 9068   1.823   1.647   6.738  0.1800 -0.7072 -0.4024
   92SAPE   H3X 9069   1.763   1.730   6.695  2.5828 -0.2737 -3.2586
   92SAPE   H3Y 9070   1.779   1.551   6.702 -1.0500 -0.1263 -0.4762
   92SAPE   C34 9071   1.967   1.654   6.679 -0.1232 -0.0261 -0.3001
   92SAPE   H4X 9072   2.032   1.589   6.742 -0.3953 -0.2405 -0.2401
   92SAPE   H4Y 9073   2.014   1.755   6.692 -0.0251 -0.3427  2.6005
   92SAPE   C35 9074   1.967   1.625   6.530  0.3309  0.0880 -0.0955
   92SAPE   H5X 9075   1.899   1.683   6.464  1.3022  0.1654 -1.0573
   92SAPE   H5Y 9076   1.939   1.518   6.531  2.2372 -0.4380 -0.0923
   92SAPE   C36 9077   2.102   1.643   6.473 -0.0548  0.8620  0.8531
   92SAPE   H6X 9078   2.172   1.599   6.547 -2.8582  0.1798  3.3034
   92SAPE   H6Y 9079   2.135   1.747   6.454  1.8146 -0.1365 -2.0723
   92SAPE   C37 9080   2.132   1.563   6.341 -0.1458 -0.1751 -0.3431
   92SAPE   H7X 9081   2.055   1.614   6.278 -2.3270 -1.6070  1.0284
   92SAPE   H7Y 9082   2.112   1.456   6.362  2.1896 -0.1313  2.7979
   92SAPE   C38 9083   2.274   1.588   6.284 -0.4606  0.6336 -0.4010
   92SAPE   H8X 9084   2.354   1.530   6.335 -0.6972  0.1588 -0.5730
   92SAPE   H8Y 9085   2.294   1.697   6.296 -0.6326  0.6433 -0.1881
   92SAPE   C39 9086   2.295   1.551   6.138 -0.2820  0.2273 -0.2513
   92SAPE   H9X 9087   2.280   1.442   6.127  1.8296 -0.2697  1.1220
   92SAPE   H9Y 9088   2.395   1.590   6.108  0.1525 -0.4419  0.3159
   92SAPE  C310 9089   2.196   1.624   6.049 -0.0716  0.1208 -0.7336
   92SAPE  H10X 9090   2.193   1.720   6.105  1.8308 -0.7309  0.9436
   92SAPE  H10Y 9091   2.098   1.571   6.053 -1.0878  2.0043  1.2651
   92SAPE  C311 9092   2.235   1.648   5.905  0.4867  0.0539 -0.2844
   92SAPE  H11X 9093   2.329   1.707   5.901  0.0464  0.7036 -1.7594
   92SAPE  H11Y 9094   2.155   1.700   5.848  0.9086  0.7686 -0.2289
   92SAPE  C312 9095   2.264   1.522   5.826  0.0338  0.0270  0.1088
   92SAPE  H12X 9096   2.167   1.478   5.794  0.7296 -0.0004 -2.1383
   92SAPE  H12Y 9097   2.311   1.440   5.883 -1.2224  0.0327  1.2093
   92SAPE  C313 9098   2.351   1.546   5.701  0.1578 -0.3548  0.0673
   92SAPE  H13X 9099   2.429   1.612   5.744 -2.6073  2.7484  0.7152
   92SAPE  H13Y 9100   2.308   1.610   5.621 -0.7351  1.6120  1.9961
   92SAPE  C314 9101   2.420   1.424   5.638  0.3121  0.3979  0.4021
   92SAPE  H14X 9102   2.462   1.357   5.716 -1.5554  0.4927  1.5278
   92SAPE  H14Y 9103   2.504   1.462   5.575 -0.7247  0.9960 -0.6662
   92SAPE  C315 9104   2.323   1.353   5.543  0.1909 -0.0046 -0.0076
   92SAPE  H15X 9105   2.265   1.427   5.485  0.6554  1.3744  1.2327
   92SAPE  H15Y 9106   2.247   1.305   5.607  0.2815  0.0950  0.1729
   92SAPE  C316 9107   2.397   1.261   5.447  0.6709  0.2081 -0.4791
   92SAPE  H16X 9108   2.431   1.167   5.497 -1.4241  0.1460  0.9958
   92SAPE  H16Y 9109   2.492   1.310   5.417 -0.0529  1.7318 -0.3661
   92SAPE  C317 9110   2.306   1.243   5.326 -0.4971 -0.0171  0.7548
   92SAPE  H17X 9111   2.220   1.308   5.301 -1.9171 -2.6829 -1.9434
   92SAPE  H17Y 9112   2.261   1.141   5.329  0.6109 -0.6483 -1.5892
   92SAPE  C318 9113   2.386   1.252   5.194 -0.1924  0.2206 -0.1730
   92SAPE  H18X 9114   2.459   1.170   5.179  0.6576  1.1860 -1.6598
   92SAPE  H18Y 9115   2.429   1.352   5.171 -0.6943  0.5482  0.3045
   92SAPE  H18Z 9116   2.313   1.230   5.114  1.7385  1.9765 -2.5902
   93SAPE     N 9117   5.452   0.878   7.194  0.0582 -0.3611 -0.4876
   93SAPE   HN1 9118   5.551   0.870   7.166 -0.1272 -0.0366 -1.2663
   93SAPE   HN2 9119   5.397   0.874   7.105 -0.3804  1.7321 -0.3552
   93SAPE   HN3 9120   5.451   0.970   7.242  1.6924 -0.0104 -1.0623
   93SAPE   C12 9121   5.419   0.756   7.276  0.0961  0.2910 -0.6243
   93SAPE  H12A 9122   5.481   0.749   7.368 -2.5330  0.4451  1.2756
   93SAPE  H12B 9123   5.440   0.672   7.207 -0.5625 -0.2481 -0.1844
   93SAPE   C11 9124   5.274   0.746   7.323 -0.0116  0.1361  0.1977
   93SAPE  H11A 9125   5.251   0.813   7.408  1.7655  0.7112  0.2536
   93SAPE  H11B 9126   5.252   0.642   7.357 -0.6515  0.4497  0.7511
   93SAPE     P 9127   5.055   0.849   7.213 -0.1022 -0.3077 -0.5513
   93SAPE   O13 9128   4.969   0.793   7.316  0.9266 -0.1453  0.0857
   93SAPE   O14 9129   5.097   0.994   7.223  0.8557  0.5203 -0.2723
   93SAPE   O12 9130   5.185   0.763   7.214  0.2073  0.1467 -0.0148
   93SAPE   O11 9131   4.991   0.803   7.075 -0.3313 -0.3584  0.0806
   93SAPE    C1 9132   5.016   0.679   7.003 -0.1686 -0.7051  0.0874
   93SAPE    HA 9133   5.014   0.590   7.070 -1.8615 -0.5028  0.3446
   93SAPE    HB 9134   4.929   0.655   6.938 -1.1687 -0.5972  1.3481
   93SAPE    C2 9135   5.148   0.700   6.917  0.2346 -0.2777 -0.0559
   93SAPE    HS 9136   5.227   0.705   6.994  1.5339 -0.2946 -1.3310
   93SAPE   O21 9137   5.146   0.817   6.832  0.3145  0.4305  0.0701
   93SAPE   C21 9138   5.216   0.929   6.874 -0.7427 -0.1363 -0.0560
   93SAPE   O22 9139   5.296   0.927   6.963 -0.0533  0.1245 -0.3463
   93SAPE   C22 9140   5.193   1.043   6.779 -0.0188 -0.0402  0.2833
   93SAPE   H2R 9141   5.226   1.027   6.674  0.0902  1.6145  0.0434
   93SAPE   H2S 9142   5.085   1.052   6.756 -0.7006 -2.3407  2.1878
   93SAPE    C3 9143   5.176   0.577   6.837  0.8828  0.0512 -0.4703
   93SAPE    HX 9144   5.085   0.576   6.774  0.5968 -1.8978 -0.0949
   93SAPE    HY 9145   5.179   0.483   6.897  1.7218  0.4704  0.1617
   93SAPE   O31 9146   5.294   0.586   6.756  0.3183 -0.9224 -0.0461
   93SAPE   C31 9147   5.411   0.563   6.813  0.5669  0.3161 -0.2011
   93SAPE   O32 9148   5.412   0.533   6.932 -0.1242 -0.0702 -1.0079
   93SAPE   C32 9149   5.507   0.563   6.699 -0.0536  0.5992 -0.2256
   93SAPE   H2X 9150   5.475   0.495   6.617  0.0652 -0.4590  0.5944
   93SAPE   H2Y 9151   5.608   0.533   6.734  0.5444  2.8482  0.1831
   93SAPE   C23 9152   5.253   1.173   6.825  0.2557 -0.3178 -1.1490
   93SAPE   H3R 9153   5.364   1.172   6.827  0.3844  2.8060  0.7093
   93SAPE   H3S 9154   5.242   1.190   6.935  0.0810 -0.9483 -1.0648
   93SAPE   C24 9155   5.210   1.303   6.748  0.2748  1.0733  0.2802
   93SAPE   H4R 9156   5.249   1.288   6.646 -1.2455 -1.7845  0.0433
   93SAPE   H4S 9157   5.252   1.396   6.794 -0.8043  2.1685 -0.8631
   93SAPE   C25 9158   5.064   1.324   6.760  0.8291  0.2718  0.2624
   93SAPE   H5R 9159   5.039   1.339   6.866  1.1980  0.3485  0.3367
   93SAPE   C26 9160   4.970   1.298   6.669 -0.0424 -0.1276 -0.1945
   93SAPE   H6R 9161   4.866   1.314   6.703  0.2590  1.5804  0.0413
   93SAPE   C27 9162   4.993   1.246   6.527 -0.4615  0.2674 -0.1850
   93SAPE   H7R 9163   4.927   1.158   6.508 -2.6331  1.8407 -0.2549
   93SAPE   H7S 9164   5.098   1.216   6.509 -0.2506  0.1296  1.1218
   93SAPE   C28 9165   4.970   1.369   6.439 -0.2077  0.8479 -0.2226
   93SAPE   H8R 9166   5.026   1.458   6.472  1.0742  0.2515 -0.7182
   93SAPE   C29 9167   4.878   1.380   6.344 -0.2065 -0.2095 -0.5132
   93SAPE   H9R 9168   4.885   1.469   6.280  0.1576 -0.5243 -0.9178
   93SAPE  C210 9169   4.799   1.270   6.277 -0.5702  0.6677 -0.1668
   93SAPE  H10R 9170   4.710   1.319   6.233 -1.5151 -0.2912  0.6126
   93SAPE  H10S 9171   4.760   1.205   6.359  1.1207 -1.1906 -0.7452
   93SAPE  C211 9172   4.885   1.192   6.181 -0.0956 -0.1296  0.4179
   93SAPE  H11R 9173   4.936   1.110   6.234  0.0944 -1.2730 -1.4215
   93SAPE  C212 9174   4.883   1.208   6.050 -0.1123  0.1612 -0.1257
   93SAPE  H12R 9175   4.958   1.157   5.988  1.5226  0.7177  1.3270
   93SAPE  C213 9176   4.808   1.316   5.982 -0.0407  0.3966 -0.5449
   93SAPE  H13R 9177   4.790   1.403   6.047  0.3793 -0.6895  1.0782
   93SAPE  H13S 9178   4.706   1.275   5.965 -0.4445 -0.9410  3.9734
   93SAPE  C214 9179   4.868   1.362   5.843  0.2259 -0.4758 -0.0016
   93SAPE  H14R 9180   4.898   1.467   5.836  1.5091 -0.9354 -3.5925
   93SAPE  C215 9181   4.859   1.293   5.731 -0.1435 -0.8425 -0.0219
   93SAPE  H15R 9182   4.912   1.337   5.645  0.3002  2.0100  1.6000
   93SAPE  C216 9183   4.827   1.151   5.722 -0.0251  0.4475 -0.5990
   93SAPE  H16R 9184   4.717   1.143   5.707 -0.3333  0.7541  1.2049
   93SAPE  H16S 9185   4.846   1.098   5.818  1.5260 -1.0823 -1.7066
   93SAPE  C217 9186   4.919   1.080   5.627 -0.7454  0.0618  0.0531
   93SAPE  H17R 9187   5.027   1.088   5.651 -0.2999 -0.0921 -1.7331
   93SAPE  H17S 9188   4.900   1.139   5.534  2.2691  1.3493  0.1497
   93SAPE  C218 9189   4.898   0.930   5.610  0.9466  0.1753  0.5704
   93SAPE  H18R 9190   4.794   0.907   5.580  1.3471 -0.3037 -0.5051
   93SAPE  H18S 9191   4.904   0.893   5.715 -1.1149  0.5528  0.8675
   93SAPE  C219 9192   4.993   0.859   5.517  0.7544 -0.4692  0.5898
   93SAPE  H19R 9193   5.026   0.933   5.441  1.2051  0.0084  1.2363
   93SAPE  H19S 9194   4.950   0.776   5.458  1.1938 -0.2422 -0.0619
   93SAPE  C220 9195   5.116   0.795   5.588 -0.3254 -0.3656  0.8384
   93SAPE  H20R 9196   5.174   0.876   5.637  0.1115  1.3184 -2.1691
   93SAPE  H20S 9197   5.195   0.763   5.517  1.2757  3.2016  0.7620
   93SAPE  H20T 9198   5.084   0.712   5.654 -0.2228 -2.2313 -1.3384
   93SAPE   C33 9199   5.515   0.706   6.644 -0.6734 -0.1613  0.6336
   93SAPE   H3X 9200   5.555   0.778   6.719 -0.5679  0.2708  0.1681
   93SAPE   H3Y 9201   5.409   0.733   6.627 -0.5734 -0.1583 -0.0335
   93SAPE   C34 9202   5.609   0.715   6.529  0.4876 -0.2560  0.4710
   93SAPE   H4X 9203   5.599   0.626   6.464  0.1978  1.7999 -2.5317
   93SAPE   H4Y 9204   5.717   0.709   6.556  0.0519 -3.4135  1.8621
   93SAPE   C35 9205   5.599   0.844   6.442 -0.5539 -0.4376 -0.1910
   93SAPE   H5X 9206   5.618   0.938   6.498 -1.8252 -0.3857  0.1878
   93SAPE   H5Y 9207   5.495   0.858   6.405 -0.9030 -0.1991  0.8466
   93SAPE   C36 9208   5.676   0.853   6.310 -0.1157  0.5985 -0.1980
   93SAPE   H6X 9209   5.622   0.781   6.244 -2.3018 -0.5029  2.5627
   93SAPE   H6Y 9210   5.779   0.816   6.328 -1.1647 -1.6519  1.7844
   93SAPE   C37 9211   5.670   0.986   6.241  0.0662  0.0973 -0.3618
   93SAPE   H7X 9212   5.706   1.058   6.319  2.2172 -2.5466  1.2633
   93SAPE   H7Y 9213   5.567   1.014   6.210 -0.2609  0.6703  1.1287
   93SAPE   C38 9214   5.761   1.007   6.121  0.4325  0.4715 -0.1292
   93SAPE   H8X 9215   5.750   0.923   6.048  1.4457  0.6046 -0.4437
   93SAPE   H8Y 9216   5.870   1.017   6.140  0.5460  1.2525 -1.1144
   93SAPE   C39 9217   5.724   1.133   6.048 -1.2008  0.2528  0.8155
   93SAPE   H9X 9218   5.725   1.211   6.127  2.3599  1.7413 -0.4773
   93SAPE   H9Y 9219   5.629   1.107   5.997  0.8591 -0.3896 -3.0803
   93SAPE  C310 9220   5.834   1.171   5.944 -0.1565 -0.3801  0.4397
   93SAPE  H10X 9221   5.831   1.094   5.865  1.3161  0.4634 -0.4686
   93SAPE  H10Y 9222   5.939   1.187   5.975  0.0489  1.7142 -1.1667
   93SAPE  C311 9223   5.803   1.298   5.870  0.0074  0.3553 -0.1375
   93SAPE  H11X 9224   5.876   1.296   5.786 -1.7685 -2.0119 -1.7751
   93SAPE  H11Y 9225   5.821   1.393   5.923  1.5600  0.4642 -0.7926
   93SAPE  C312 9226   5.667   1.302   5.800 -0.5499  0.1667  0.3851
   93SAPE  H12X 9227   5.590   1.302   5.880 -0.9498 -0.8235  0.0135
   93SAPE  H12Y 9228   5.652   1.204   5.751 -1.3633  0.4826 -0.0211
   93SAPE  C313 9229   5.646   1.417   5.708  0.1250  0.2710 -0.0298
   93SAPE  H13X 9230   5.723   1.412   5.629  0.9524  0.1649  0.7649
   93SAPE  H13Y 9231   5.670   1.513   5.758  2.3882 -0.4692  0.4085
   93SAPE  C314 9232   5.509   1.415   5.625  0.2981  0.0947 -0.7553
   93SAPE  H14X 9233   5.504   1.512   5.571 -0.0802 -0.8428 -2.4716
   93SAPE  H14Y 9234   5.435   1.408   5.708  1.4691 -0.4787  0.2796
   93SAPE  C315 9235   5.501   1.308   5.518 -0.2244  0.1092  0.0579
   93SAPE  H15X 9236   5.507   1.204   5.558 -0.4188  0.3161  0.6361
   93SAPE  H15Y 9237   5.591   1.317   5.454 -1.9901  0.5108 -2.5554
   93SAPE  C316 9238   5.377   1.328   5.427  0.5149  0.4106 -0.1436
   93SAPE  H16X 9239   5.394   1.421   5.369  0.6594 -0.3049 -1.2871
   93SAPE  H16Y 9240   5.293   1.343   5.497 -1.3081  1.0538 -2.3439
   93SAPE  C317 9241   5.355   1.214   5.331 -0.3689  0.3773  0.6957
   93SAPE  H17X 9242   5.335   1.116   5.380  0.5225  0.4429  1.2148
   93SAPE  H17Y 9243   5.446   1.207   5.268 -0.5592  0.0721  0.4483
   93SAPE  C318 9244   5.240   1.239   5.230  0.3224 -0.1993 -0.0417
   93SAPE  H18X 9245   5.262   1.174   5.143 -1.9704  0.3058 -1.0575
   93SAPE  H18Y 9246   5.240   1.340   5.184 -1.5999 -0.5190 -0.8127
   93SAPE  H18Z 9247   5.140   1.223   5.276 -0.7184 -0.2842 -2.2137
   94SAPE     N 9248   3.920   2.634   7.584 -0.5889 -0.0238  0.0651
   94SAPE   HN1 9249   4.002   2.597   7.533  0.6948  2.5335  0.1024
   94SAPE   HN2 9250   3.877   2.559   7.642 -0.2340  0.5686  1.1120
   94SAPE   HN3 9251   3.850   2.672   7.516 -0.0364 -2.8299 -2.2618
   94SAPE   C12 9252   3.972   2.747   7.670  0.9007  0.0366 -0.2516
   94SAPE  H12A 9253   4.042   2.704   7.745 -2.9691 -2.5577  2.3007
   94SAPE  H12B 9254   3.880   2.779   7.725  2.3336 -0.1284  2.4004
   94SAPE   C11 9255   4.024   2.860   7.583 -0.2799  0.3005  1.0467
   94SAPE  H11A 9256   4.064   2.943   7.646 -1.3561  0.2815  1.7811
   94SAPE  H11B 9257   3.946   2.895   7.513  1.2095 -0.6745 -1.1992
   94SAPE     P 9258   4.268   2.838   7.508  0.3999  0.1815 -0.1796
   94SAPE   O13 9259   4.306   2.930   7.613  0.4842 -0.4567 -0.2184
   94SAPE   O14 9260   4.331   2.700   7.510  0.4554 -0.4985 -0.3247
   94SAPE   O12 9261   4.117   2.826   7.485  0.2188  0.5962 -0.3935
   94SAPE   O11 9262   4.314   2.898   7.372 -0.1406 -0.6194  0.1398
   94SAPE    C1 9263   4.234   2.996   7.305 -0.5846 -0.3054 -0.8005
   94SAPE    HA 9264   4.166   3.051   7.375  1.2422 -0.6912  1.3964
   94SAPE    HB 9265   4.311   3.068   7.272 -0.4068 -0.5393 -0.8959
   94SAPE    C2 9266   4.176   2.941   7.174  0.1266  0.2579  0.0171
   94SAPE    HS 9267   4.103   2.872   7.222  0.0376  1.3921  1.5950
   94SAPE   O21 9268   4.283   2.885   7.097 -0.1266 -0.1541  0.1076
   94SAPE   C21 9269   4.236   2.783   7.023 -0.8148  0.0582 -0.5758
   94SAPE   O22 9270   4.122   2.738   7.026 -0.0594 -0.1746  0.2683
   94SAPE   C22 9271   4.348   2.768   6.912 -0.3542  0.3164 -0.1229
   94SAPE   H2R 9272   4.326   2.828   6.821 -0.2476 -1.4924 -1.3988
   94SAPE   H2S 9273   4.448   2.793   6.953  0.4051 -0.7371 -1.2430
   94SAPE    C3 9274   4.099   3.057   7.102  0.5886 -0.3308  0.4518
   94SAPE    HX 9275   4.175   3.136   7.080  1.6791 -1.7721 -1.2367
   94SAPE    HY 9276   4.022   3.099   7.170 -0.0761 -0.0863 -0.4316
   94SAPE   O31 9277   4.049   3.015   6.971 -0.0072  0.2757 -0.2696
   94SAPE   C31 9278   3.928   2.951   6.979  0.2026  0.0264  0.1981
   94SAPE   O32 9279   3.868   2.925   7.079  0.4148  0.3425 -0.2906
   94SAPE   C32 9280   3.883   2.902   6.834  0.3907  0.6788 -1.1727
   94SAPE   H2X 9281   3.804   2.966   6.789 -1.1606  1.3121  2.1315
   94SAPE   H2Y 9282   3.842   2.802   6.860 -0.8060  1.2727 -0.7053
   94SAPE   C23 9283   4.361   2.626   6.854 -0.0507  0.8907  0.4798
   94SAPE   H3R 9284   4.273   2.620   6.785 -0.2845 -0.7272  0.8787
   94SAPE   H3S 9285   4.367   2.534   6.915  2.3537 -1.2278 -2.6444
   94SAPE   C24 9286   4.487   2.609   6.769 -0.3773  0.0333 -0.0821
   94SAPE   H4R 9287   4.565   2.578   6.842  1.8683  1.9045 -1.5025
   94SAPE   H4S 9288   4.514   2.704   6.718 -1.0735  0.6350  0.6580
   94SAPE   C25 9289   4.476   2.491   6.675  0.2309 -0.2673  0.1665
   94SAPE   H5R 9290   4.456   2.393   6.721  1.3722 -0.2818  0.6704
   94SAPE   C26 9291   4.481   2.488   6.540 -0.3740 -0.0890 -0.5312
   94SAPE   H6R 9292   4.467   2.391   6.491  1.6789 -0.3347 -0.7199
   94SAPE   C27 9293   4.521   2.602   6.447 -0.0993  0.0828 -0.2939
   94SAPE   H7R 9294   4.609   2.568   6.388 -1.4440 -1.0912 -1.7030
   94SAPE   H7S 9295   4.538   2.699   6.498  0.9241 -0.1973 -0.0774
   94SAPE   C28 9296   4.402   2.609   6.356  0.4727 -0.0309  0.9602
   94SAPE   H8R 9297   4.310   2.644   6.405  0.6968  1.6661  0.2143
   94SAPE   C29 9298   4.396   2.588   6.218  0.0443  0.3372  0.1416
   94SAPE   H9R 9299   4.303   2.617   6.168  0.1587  0.6262  0.0927
   94SAPE  C210 9300   4.518   2.562   6.132  0.4621  0.5491 -0.1096
   94SAPE  H10R 9301   4.503   2.464   6.082  1.3159 -0.2364  1.1271
   94SAPE  H10S 9302   4.610   2.554   6.193 -0.7947  1.8480  2.1105
   94SAPE  C211 9303   4.545   2.671   6.036  0.2716 -0.2247 -0.5577
   94SAPE  H11R 9304   4.599   2.756   6.082 -0.2815 -0.9407  1.5515
   94SAPE  C212 9305   4.487   2.686   5.913  0.2135  0.1005 -0.7828
   94SAPE  H12R 9306   4.518   2.769   5.848  1.2164  0.9196  0.6763
   94SAPE  C213 9307   4.418   2.573   5.841  0.7244  0.1140  1.4039
   94SAPE  H13R 9308   4.397   2.484   5.904 -0.6082  0.3413  1.3085
   94SAPE  H13S 9309   4.485   2.531   5.763 -0.2905  0.8080  0.1026
   94SAPE  C214 9310   4.287   2.620   5.781 -0.7405  0.1990 -0.2379
   94SAPE  H14R 9311   4.235   2.702   5.834 -0.3771  0.3135 -0.0545
   94SAPE  C215 9312   4.241   2.594   5.656  0.9657  0.5546 -0.6312
   94SAPE  H15R 9313   4.141   2.635   5.633  0.8543  1.1267  0.8104
   94SAPE  C216 9314   4.286   2.506   5.543  0.1161 -0.1532 -0.5121
   94SAPE  H16R 9315   4.393   2.477   5.557  0.5082  1.5303  0.2390
   94SAPE  H16S 9316   4.276   2.560   5.446 -0.9193 -0.3110 -0.4985
   94SAPE  C217 9317   4.215   2.378   5.519  0.0883  0.7335 -0.4193
   94SAPE  H17R 9318   4.107   2.399   5.510  0.4808  2.8562 -0.6124
   94SAPE  H17S 9319   4.229   2.307   5.603 -0.3550 -0.4416 -1.2986
   94SAPE  C218 9320   4.276   2.317   5.390  0.2213  0.6564  0.7483
   94SAPE  H18R 9321   4.385   2.325   5.372 -0.1513  0.9762 -1.6390
   94SAPE  H18S 9322   4.235   2.376   5.305 -2.7974 -2.8353 -0.4707
   94SAPE  C219 9323   4.229   2.169   5.367 -0.1189 -0.7846 -0.1232
   94SAPE  H19R 9324   4.286   2.101   5.432 -1.1715 -0.8309  0.7838
   94SAPE  H19S 9325   4.254   2.138   5.263 -0.1711 -1.2515 -0.0007
   94SAPE  C220 9326   4.081   2.141   5.384  0.3780 -0.2278 -0.3022
   94SAPE  H20R 9327   4.045   2.046   5.338 -0.7098 -0.6356  1.2999
   94SAPE  H20S 9328   4.025   2.213   5.322  1.4052  0.2821 -0.6606
   94SAPE  H20T 9329   4.047   2.147   5.490  0.3512 -1.2178 -0.2440
   94SAPE   C33 9330   4.009   2.900   6.743 -0.4205  0.2582  0.6531
   94SAPE   H3X 9331   4.096   2.842   6.782 -1.8223 -0.3558  3.1263
   94SAPE   H3Y 9332   4.042   3.003   6.717  2.1649 -0.5444  0.4306
   94SAPE   C34 9333   3.986   2.837   6.603  0.5001 -0.3119 -0.1786
   94SAPE   H4X 9334   3.909   2.900   6.554  0.3373  0.7188  1.3422
   94SAPE   H4Y 9335   3.948   2.733   6.615  2.5789 -1.3377 -1.8388
   94SAPE   C35 9336   4.105   2.837   6.511 -0.5111  0.3207  0.1981
   94SAPE   H5X 9337   4.194   2.786   6.554 -0.7808 -1.6282 -1.3989
   94SAPE   H5Y 9338   4.136   2.943   6.504  1.7337 -0.2978 -0.0407
   94SAPE   C36 9339   4.074   2.812   6.365 -0.5712  0.1880  0.1480
   94SAPE   H6X 9340   4.167   2.835   6.308  0.9809 -1.1242  1.9985
   94SAPE   H6Y 9341   3.993   2.883   6.337 -0.0090  0.1712 -1.6304
   94SAPE   C37 9342   4.033   2.666   6.335 -0.2651  0.1127 -0.6553
   94SAPE   H7X 9343   3.937   2.650   6.389  1.3394  0.6792  2.5859
   94SAPE   H7Y 9344   4.115   2.608   6.382 -1.4264 -0.4732  0.7179
   94SAPE   C38 9345   4.009   2.655   6.192  0.1530  0.3147  0.4077
   94SAPE   H8X 9346   4.104   2.675   6.139  1.2889  1.2935  2.6915
   94SAPE   H8Y 9347   3.927   2.721   6.157 -0.2436 -0.1679  0.4107
   94SAPE   C39 9348   3.956   2.512   6.158 -0.4714 -0.1971  1.2083
   94SAPE   H9X 9349   3.855   2.494   6.199 -0.6881  0.5798  1.0349
   94SAPE   H9Y 9350   4.024   2.430   6.191  1.0928  1.3400  2.0165
   94SAPE  C310 9351   3.944   2.507   6.004 -1.0301  0.4548  0.5375
   94SAPE  H10X 9352   4.043   2.529   5.959 -1.0437  1.4838  0.9679
   94SAPE  H10Y 9353   3.872   2.583   5.968 -1.1027  0.0836 -0.1109
   94SAPE  C311 9354   3.900   2.370   5.952 -0.2302  0.3180  0.8442
   94SAPE  H11X 9355   3.819   2.333   6.019 -1.1527  2.1563  0.8143
   94SAPE  H11Y 9356   3.987   2.302   5.957 -0.3080  0.0748 -0.6200
   94SAPE  C312 9357   3.836   2.379   5.812  0.0126  0.2985  0.1372
   94SAPE  H12X 9358   3.910   2.424   5.742 -1.5055  2.8566  0.0665
   94SAPE  H12Y 9359   3.742   2.438   5.809  1.1504  2.1483 -0.8758
   94SAPE  C313 9360   3.816   2.240   5.750  0.2069  0.4149  0.2576
   94SAPE  H13X 9361   3.729   2.182   5.787  1.2462 -1.3895 -0.0210
   94SAPE  H13Y 9362   3.909   2.187   5.776  0.1813  0.4211  0.3619
   94SAPE  C314 9363   3.807   2.251   5.593 -0.0647  0.2188 -0.1790
   94SAPE  H14X 9364   3.836   2.156   5.543  0.3952  0.3322 -0.1241
   94SAPE  H14Y 9365   3.873   2.334   5.561  1.8218  0.1660  3.1526
   94SAPE  C315 9366   3.665   2.285   5.549 -0.5661 -0.4807  0.3290
   94SAPE  H15X 9367   3.623   2.358   5.621  0.0973 -2.0560  2.3783
   94SAPE  H15Y 9368   3.604   2.193   5.545 -0.0313 -0.8709  0.9494
   94SAPE  C316 9369   3.650   2.351   5.418  0.0007 -0.4278 -0.4851
   94SAPE  H16X 9370   3.717   2.302   5.343 -0.1623 -2.2989  0.5299
   94SAPE  H16Y 9371   3.682   2.457   5.419  2.0328 -0.9953 -0.5098
   94SAPE  C317 9372   3.504   2.348   5.384  0.2543  0.5417  0.2456
   94SAPE  H17X 9373   3.448   2.388   5.471  2.4863 -2.1857  3.1595
   94SAPE  H17Y 9374   3.465   2.247   5.356 -1.2877  1.0312  0.5143
   94SAPE  C318 9375   3.469   2.444   5.272 -0.1646  0.3176  0.0905
   94SAPE  H18X 9376   3.534   2.444   5.182 -0.1688  2.8942  0.0196
   94SAPE  H18Y 9377   3.461   2.544   5.319  0.3094 -0.1955  1.3101
   94SAPE  H18Z 9378   3.368   2.419   5.231 -0.1648 -0.3250  0.4648
   95SAPE     N 9379   5.180   1.209   7.381  0.3117 -0.3985  0.5089
   95SAPE   HN1 9380   5.093   1.248   7.424  0.7091  1.6842 -0.4527
   95SAPE   HN2 9381   5.139   1.142   7.313 -0.7400 -0.2134  0.9383
   95SAPE   HN3 9382   5.222   1.146   7.452 -0.4037 -0.6521  0.7205
   95SAPE   C12 9383   5.277   1.312   7.329 -0.7219 -0.2377  0.6530
   95SAPE  H12A 9384   5.308   1.375   7.415  1.7317  0.1461 -0.4292
   95SAPE  H12B 9385   5.228   1.387   7.263 -0.2377 -0.4725  0.0109
   95SAPE   C11 9386   5.391   1.242   7.243  0.0935  0.3647 -0.1837
   95SAPE  H11A 9387   5.451   1.327   7.203 -1.4038  0.7350 -1.7630
   95SAPE  H11B 9388   5.344   1.185   7.160  2.1755 -1.0334 -0.4735
   95SAPE     P 9389   5.578   1.200   7.415 -0.2196 -0.1330 -0.3702
   95SAPE   O13 9390   5.511   1.295   7.506  0.7216  0.4702  0.3255
   95SAPE   O14 9391   5.648   1.086   7.473 -0.2392 -0.2283  0.0357
   95SAPE   O12 9392   5.463   1.145   7.318 -0.0850  0.4816 -0.0886
   95SAPE   O11 9393   5.670   1.284   7.317 -0.0594 -0.3994 -0.4041
   95SAPE    C1 9394   5.761   1.225   7.222 -0.3758 -0.2261  0.0201
   95SAPE    HA 9395   5.860   1.269   7.248 -0.3033 -1.4827  2.0466
   95SAPE    HB 9396   5.770   1.115   7.225  0.7590 -0.2883 -2.7103
   95SAPE    C2 9397   5.726   1.250   7.073  0.7610 -0.4328 -0.3024
   95SAPE    HS 9398   5.617   1.234   7.062  0.5946 -0.2291  0.9139
   95SAPE   O21 9399   5.799   1.156   7.000 -0.0983  0.4535  0.3061
   95SAPE   C21 9400   5.739   1.120   6.891  0.0172 -0.1926  0.6775
   95SAPE   O22 9401   5.626   1.150   6.853  0.1589  0.6932  0.3467
   95SAPE   C22 9402   5.836   1.028   6.812 -0.1520  0.1758 -0.3755
   95SAPE   H2R 9403   5.935   1.034   6.862 -0.5470  1.4081  0.2806
   95SAPE   H2S 9404   5.806   0.922   6.831  2.0641 -0.2281  1.3147
   95SAPE    C3 9405   5.760   1.406   7.042 -0.3577 -0.0817  0.3421
   95SAPE    HX 9406   5.869   1.407   7.059  0.1129  2.7577 -2.0330
   95SAPE    HY 9407   5.708   1.473   7.114  0.8175  1.8063 -0.4708
   95SAPE   O31 9408   5.736   1.453   6.905  0.9229 -0.7024 -0.5389
   95SAPE   C31 9409   5.600   1.474   6.880  0.2251 -0.4540 -0.3774
   95SAPE   O32 9410   5.520   1.481   6.974  0.3255  0.5404 -0.7062
   95SAPE   C32 9411   5.560   1.494   6.739  0.5274 -0.6682 -0.1159
   95SAPE   H2X 9412   5.629   1.562   6.684 -0.3386 -1.3248 -2.0905
   95SAPE   H2Y 9413   5.462   1.545   6.732  1.1055  0.3928 -0.7331
   95SAPE   C23 9414   5.836   1.063   6.663  0.2499 -0.0434 -0.0335
   95SAPE   H3R 9415   5.858   1.170   6.643 -0.3772  0.2018  0.5295
   95SAPE   H3S 9416   5.733   1.056   6.622 -0.5365 -0.7425  1.9412
   95SAPE   C24 9417   5.937   0.966   6.582  0.4082  0.0138  0.4647
   95SAPE   H4R 9418   5.939   0.999   6.476  1.0137  0.3532  0.5771
   95SAPE   H4S 9419   5.888   0.867   6.588 -0.3355  0.2519 -1.0539
   95SAPE   C25 9420   6.080   0.959   6.631 -0.1954 -0.3895  0.9487
   95SAPE   H5R 9421   6.093   0.904   6.725 -0.0472 -0.5268  0.8487
   95SAPE   C26 9422   6.189   0.992   6.559  0.2375  0.8112 -0.1692
   95SAPE   H6R 9423   6.286   0.963   6.603 -0.9872 -1.6148  1.1635
   95SAPE   C27 9424   6.200   1.051   6.422 -0.1595  0.8112 -0.3220
   95SAPE   H7R 9425   6.300   1.091   6.393 -0.7581  1.7146 -1.2327
   95SAPE   H7S 9426   6.141   1.143   6.441 -0.7058  0.3576  0.1870
   95SAPE   C28 9427   6.148   0.982   6.300  0.5648 -0.3166  0.1146
   95SAPE   H8R 9428   6.124   0.878   6.326 -1.8934 -0.4268 -2.1260
   95SAPE   C29 9429   6.165   1.035   6.177 -0.0626 -0.1210 -0.0718
   95SAPE   H9R 9430   6.116   0.984   6.093 -0.6385 -1.2032  0.9048
   95SAPE  C210 9431   6.222   1.172   6.147 -0.8507  0.2342 -0.1532
   95SAPE  H10R 9432   6.274   1.221   6.232  1.8241 -1.1483 -0.8784
   95SAPE  H10S 9433   6.140   1.237   6.111 -1.7285 -1.2151 -0.8538
   95SAPE  C211 9434   6.339   1.143   6.057  0.1191 -0.1478  0.3950
   95SAPE  H11R 9435   6.424   1.089   6.101  0.3605 -1.0376 -1.0809
   95SAPE  C212 9436   6.358   1.182   5.930 -0.0834  0.4011  0.4668
   95SAPE  H12R 9437   6.450   1.142   5.886  0.4068 -2.2378  3.5955
   95SAPE  C213 9438   6.266   1.259   5.832  0.1021 -0.3384  0.0652
   95SAPE  H13R 9439   6.161   1.240   5.861 -0.2029  0.0574 -0.7500
   95SAPE  H13S 9440   6.280   1.226   5.726  1.8993  2.1759 -0.5835
   95SAPE  C214 9441   6.282   1.412   5.845 -0.1768 -0.2300  0.3709
   95SAPE  H14R 9442   6.230   1.462   5.928  1.8075 -0.0330  1.5552
   95SAPE  C215 9443   6.362   1.488   5.762 -0.6236  0.6200 -0.1937
   95SAPE  H15R 9444   6.367   1.596   5.779 -0.9690  0.7915 -1.1039
   95SAPE  C216 9445   6.443   1.446   5.641 -0.1430  0.4117 -0.5440
   95SAPE  H16R 9446   6.436   1.335   5.635  3.1855  0.0058  0.6055
   95SAPE  H16S 9447   6.551   1.468   5.653 -0.7512  2.8359  1.1035
   95SAPE  C217 9448   6.396   1.504   5.514  1.0146 -0.0229 -0.1312
   95SAPE  H17R 9449   6.362   1.609   5.522  1.1534  0.1998 -2.0474
   95SAPE  H17S 9450   6.301   1.456   5.485  0.0630  1.4538  0.4669
   95SAPE  C218 9451   6.505   1.506   5.407  0.3283  0.6145  0.5772
   95SAPE  H18R 9452   6.590   1.571   5.437 -1.5803  3.3131  0.3970
   95SAPE  H18S 9453   6.483   1.529   5.300  5.5929 -1.8570 -1.4096
   95SAPE  C219 9454   6.557   1.356   5.385 -1.2837 -0.4243  0.1222
   95SAPE  H19R 9455   6.467   1.290   5.386 -1.7489  0.1919 -0.3377
   95SAPE  H19S 9456   6.607   1.327   5.480 -1.6349 -1.9882 -0.1524
   95SAPE  C220 9457   6.662   1.324   5.273 -0.4309 -0.6630 -0.2275
   95SAPE  H20R 9458   6.658   1.215   5.250 -0.5654 -0.6714 -0.1660
   95SAPE  H20S 9459   6.766   1.356   5.295 -0.2968 -2.1635  1.5321
   95SAPE  H20T 9460   6.626   1.373   5.180  0.4270 -1.2938 -0.9080
   95SAPE   C33 9461   5.555   1.366   6.645 -0.0195 -1.1492  0.3878
   95SAPE   H3X 9462   5.486   1.297   6.697 -0.6522 -0.4723  0.4527
   95SAPE   H3Y 9463   5.660   1.329   6.638  0.9122  1.5839 -2.5472
   95SAPE   C34 9464   5.510   1.408   6.506  0.1375 -0.5836 -1.0192
   95SAPE   H4X 9465   5.580   1.487   6.469 -0.3280 -0.0069 -0.6861
   95SAPE   H4Y 9466   5.405   1.443   6.506  0.7951  1.5574 -0.6587
   95SAPE   C35 9467   5.529   1.292   6.406 -0.4026  0.0021 -0.4374
   95SAPE   H5X 9468   5.495   1.198   6.453 -0.6857 -0.8859 -2.3172
   95SAPE   H5Y 9469   5.633   1.268   6.375 -0.3236 -1.8280  1.0496
   95SAPE   C36 9470   5.444   1.314   6.279 -0.1868 -0.0153  0.6059
   95SAPE   H6X 9471   5.339   1.320   6.315  0.3137 -0.5209  2.2627
   95SAPE   H6Y 9472   5.461   1.226   6.213 -1.9817 -1.2917  1.7569
   95SAPE   C37 9473   5.485   1.442   6.203  0.7322 -0.5122 -0.3582
   95SAPE   H7X 9474   5.595   1.432   6.189  0.6214 -2.0024 -0.3558
   95SAPE   H7Y 9475   5.460   1.537   6.254 -0.6560 -0.5065 -1.0199
   95SAPE   C38 9476   5.414   1.448   6.067 -0.1262 -0.3556 -0.4091
   95SAPE   H8X 9477   5.418   1.353   6.009  0.1330  1.8218 -4.3272
   95SAPE   H8Y 9478   5.467   1.525   6.007  0.1300  0.7888  1.2180
   95SAPE   C39 9479   5.270   1.489   6.090  0.1136  0.8059 -0.4446
   95SAPE   H9X 9480   5.257   1.582   6.148 -1.1135  0.6384 -0.4039
   95SAPE   H9Y 9481   5.226   1.406   6.149 -1.3803  0.6184 -1.7450
   95SAPE  C310 9482   5.196   1.501   5.957  0.0394  0.7277 -0.0445
   95SAPE  H10X 9483   5.088   1.487   5.982  0.3368  1.3760  1.8023
   95SAPE  H10Y 9484   5.215   1.417   5.888 -4.6038 -1.6952  1.1602
   95SAPE  C311 9485   5.221   1.633   5.892 -0.8258 -0.5415  0.2705
   95SAPE  H11X 9486   5.326   1.628   5.856 -0.4659 -1.4848  1.3946
   95SAPE  H11Y 9487   5.211   1.711   5.971  2.9537  1.4358 -0.9662
   95SAPE  C312 9488   5.129   1.660   5.775  0.1861 -0.4646  0.6114
   95SAPE  H12X 9489   5.137   1.768   5.752 -1.4333 -0.2224  0.9976
   95SAPE  H12Y 9490   5.027   1.666   5.819  0.3391  0.6072  0.8544
   95SAPE  C313 9491   5.149   1.594   5.642  0.5417  0.7081 -0.0754
   95SAPE  H13X 9492   5.142   1.483   5.652  0.1069  0.3857 -3.0784
   95SAPE  H13Y 9493   5.255   1.604   5.611  0.5153 -0.7554 -0.7246
   95SAPE  C314 9494   5.063   1.653   5.525  0.8317 -0.2496  0.1979
   95SAPE  H14X 9495   5.046   1.761   5.543  1.0607  0.1400 -1.7143
   95SAPE  H14Y 9496   4.963   1.605   5.535  2.0932 -2.7516  1.9998
   95SAPE  C315 9497   5.122   1.630   5.386 -0.2574 -0.4195  0.4535
   95SAPE  H15X 9498   5.164   1.527   5.383 -1.1987 -0.8219 -2.4569
   95SAPE  H15Y 9499   5.206   1.698   5.356 -0.8347 -0.1012 -0.5135
   95SAPE  C316 9500   5.017   1.640   5.281  0.3929 -0.3259  0.6456
   95SAPE  H16X 9501   4.968   1.740   5.285 -3.4269 -2.0136  1.1121
   95SAPE  H16Y 9502   4.923   1.583   5.298 -0.5468  0.5625 -1.3174
   95SAPE  C317 9503   5.061   1.610   5.138  0.2125  0.3276 -0.2652
   95SAPE  H17X 9504   4.968   1.622   5.078  0.0370 -2.2181 -0.5957
   95SAPE  H17Y 9505   5.082   1.502   5.121 -1.9983  0.3324 -4.3223
   95SAPE  C318 9506   5.170   1.701   5.081 -0.0048  0.4009  0.2177
   95SAPE  H18X 9507   5.181   1.675   4.973  0.8418  2.6116 -0.2838
   95SAPE  H18Y 9508   5.262   1.682   5.141 -1.1260 -1.5650  1.4253
   95SAPE  H18Z 9509   5.144   1.809   5.086  0.8116  0.5429  2.2304
   96SAPE     N 9510   5.722   3.180   8.150 -0.1112  0.3570  0.7269
   96SAPE   HN1 9511   5.786   3.197   8.069 -1.7033  1.8761 -0.2802
   96SAPE   HN2 9512   5.653   3.258   8.153  0.1216  0.5403  1.4070
   96SAPE   HN3 9513   5.772   3.188   8.241  2.4935 -1.6010 -0.4049
   96SAPE   C12 9514   5.675   3.046   8.133 -0.3210  0.2363  0.2034
   96SAPE  H12A 9515   5.607   3.039   8.045 -0.6369 -1.8617  0.5551
   96SAPE  H12B 9516   5.618   3.018   8.224  0.3609 -0.6051  0.3873
   96SAPE   C11 9517   5.795   2.942   8.125 -0.7152  0.8671 -0.2191
   96SAPE  H11A 9518   5.747   2.842   8.113  0.6160  0.2279 -0.3372
   96SAPE  H11B 9519   5.843   2.940   8.225 -0.6113 -1.1952 -0.2571
   96SAPE     P 9520   5.974   2.855   7.965  0.3509  0.2180  0.3252
   96SAPE   O13 9521   6.068   2.903   7.866  0.0202 -0.1376 -0.3144
   96SAPE   O14 9522   6.043   2.773   8.071 -0.2956 -0.2411 -0.3712
   96SAPE   O12 9523   5.888   2.972   8.026 -0.2332  0.0318  0.0126
   96SAPE   O11 9524   5.880   2.757   7.884  0.1889 -0.0837  0.4895
   96SAPE    C1 9525   5.768   2.806   7.806  0.5387 -0.3272  0.0412
   96SAPE    HA 9526   5.693   2.727   7.788 -1.3865  0.7209  2.7367
   96SAPE    HB 9527   5.711   2.887   7.856  2.1944  0.2939  1.0209
   96SAPE    C2 9528   5.809   2.841   7.658 -0.1247  0.3237 -0.0134
   96SAPE    HS 9529   5.876   2.766   7.610  1.2545  1.4250  0.1107
   96SAPE   O21 9530   5.874   2.965   7.658  0.2303  0.1452  0.1671
   96SAPE   C21 9531   5.971   2.980   7.566 -0.3557  0.2611  0.6515
   96SAPE   O22 9532   6.014   2.893   7.491 -0.0355  0.4420 -0.2926
   96SAPE   C22 9533   6.015   3.124   7.570 -1.0053  0.0181  0.3101
   96SAPE   H2R 9534   5.930   3.188   7.539 -0.1696  0.5755 -0.9156
   96SAPE   H2S 9535   6.032   3.154   7.675  0.8878  0.2061 -0.0089
   96SAPE    C3 9536   5.682   2.838   7.569  0.3144 -0.4723 -0.6434
   96SAPE    HX 9537   5.625   2.917   7.621  1.5393  0.0118  0.0009
   96SAPE    HY 9538   5.629   2.741   7.578 -0.6677 -0.0489 -1.6807
   96SAPE   O31 9539   5.719   2.870   7.437 -0.1506  0.0557 -0.2302
   96SAPE   C31 9540   5.733   2.767   7.357 -0.9048  0.2117  0.4806
   96SAPE   O32 9541   5.736   2.645   7.382 -0.2816  0.5836  0.5049
   96SAPE   C32 9542   5.757   2.824   7.216  0.0025  0.4251 -0.0618
   96SAPE   H2X 9543   5.866   2.840   7.204  0.6859 -0.3391  3.7442
   96SAPE   H2Y 9544   5.701   2.919   7.205 -0.2774  0.0859 -2.0840
   96SAPE   C23 9545   6.122   3.153   7.455  0.0830  1.1411 -0.6429
   96SAPE   H3R 9546   6.099   3.085   7.371 -4.3549 -0.5124  1.5897
   96SAPE   H3S 9547   6.225   3.132   7.490  0.2305  1.0394 -1.1267
   96SAPE   C24 9548   6.115   3.306   7.422  0.6484  0.2428 -0.2413
   96SAPE   H4R 9549   6.093   3.369   7.510  0.2260  2.7858 -2.0823
   96SAPE   H4S 9550   6.045   3.324   7.337 -0.1738  1.1215  0.6085
   96SAPE   C25 9551   6.252   3.366   7.392 -0.2295  0.2941 -0.5623
   96SAPE   H5R 9552   6.310   3.413   7.472 -1.9025  0.2147  0.7388
   96SAPE   C26 9553   6.298   3.389   7.268 -0.7155  0.0381 -0.4070
   96SAPE   H6R 9554   6.403   3.418   7.249  0.0903 -3.5904 -2.4556
   96SAPE   C27 9555   6.241   3.337   7.137  0.5339 -0.3159 -0.6566
   96SAPE   H7R 9556   6.139   3.379   7.138  0.5656 -0.2218  0.6894
   96SAPE   H7S 9557   6.238   3.226   7.133 -3.2258 -0.4031  0.6450
   96SAPE   C28 9558   6.303   3.386   7.008  0.1673  0.0115 -0.1690
   96SAPE   H8R 9559   6.371   3.470   7.028 -0.6693  0.9128 -1.0219
   96SAPE   C29 9560   6.293   3.337   6.883  0.0927 -0.2523 -0.0390
   96SAPE   H9R 9561   6.355   3.380   6.803  0.1952  0.4729  0.4248
   96SAPE  C210 9562   6.207   3.216   6.841  0.0376  0.1104 -0.3720
   96SAPE  H10R 9563   6.101   3.235   6.870  0.7003  0.0463  2.3348
   96SAPE  H10S 9564   6.226   3.128   6.906  0.0021  0.3993  0.0306
   96SAPE  C211 9565   6.241   3.170   6.698  0.5891 -0.7134 -0.2698
   96SAPE  H11R 9566   6.259   3.062   6.690 -1.6097 -1.3063  1.7865
   96SAPE  C212 9567   6.246   3.245   6.579  0.3659  0.5667 -0.7086
   96SAPE  H12R 9568   6.247   3.190   6.484 -1.6935  0.2364 -0.5913
   96SAPE  C213 9569   6.223   3.392   6.568 -0.1002 -0.1970 -0.1056
   96SAPE  H13R 9570   6.307   3.457   6.598 -2.4807  2.3778  1.5285
   96SAPE  H13S 9571   6.154   3.429   6.647 -0.2581 -1.0586  0.1772
   96SAPE  C214 9572   6.175   3.444   6.432 -0.1200 -0.8286 -0.2887
   96SAPE  H14R 9573   6.078   3.494   6.443  0.8637  1.1567 -0.3046
   96SAPE  C215 9574   6.238   3.425   6.313  0.1551  0.4384 -0.0854
   96SAPE  H15R 9575   6.198   3.469   6.221 -0.6998 -4.1279 -2.2013
   96SAPE  C216 9576   6.376   3.358   6.306 -0.0038 -1.4789 -0.4161
   96SAPE  H16R 9577   6.362   3.249   6.288 -2.8473 -1.3026  0.2408
   96SAPE  H16S 9578   6.437   3.373   6.398  1.1444 -0.2648 -1.3434
   96SAPE  C217 9579   6.446   3.413   6.178 -0.2834  0.5255 -0.0622
   96SAPE  H17R 9580   6.470   3.522   6.177 -0.9464  0.6920 -1.5322
   96SAPE  H17S 9581   6.377   3.402   6.092  0.3485  2.8526 -0.9571
   96SAPE  C218 9582   6.575   3.337   6.144  0.1930 -0.3403  0.1761
   96SAPE  H18R 9583   6.575   3.232   6.182  2.0429 -0.1314  0.8560
   96SAPE  H18S 9584   6.651   3.395   6.200  0.4126  0.9110 -1.3415
   96SAPE  C219 9585   6.616   3.349   5.994  0.3381  0.2295 -0.4865
   96SAPE  H19R 9586   6.636   3.454   5.963 -0.0442  0.2649 -0.6250
   96SAPE  H19S 9587   6.530   3.314   5.932  1.3672 -1.1328 -1.2037
   96SAPE  C220 9588   6.730   3.259   5.943 -0.1899 -1.1914 -0.2002
   96SAPE  H20R 9589   6.825   3.281   5.997 -0.7259  1.4337 -0.2223
   96SAPE  H20S 9590   6.762   3.281   5.839 -1.1812 -1.2285 -0.5225
   96SAPE  H20T 9591   6.697   3.153   5.947  1.5870 -1.7324  2.0512
   96SAPE   C33 9592   5.711   2.721   7.109  0.3483  0.2133  0.9191
   96SAPE   H3X 9593   5.600   2.718   7.120  0.2028  2.0351  0.2597
   96SAPE   H3Y 9594   5.753   2.620   7.132 -2.3820 -1.1886  0.2294
   96SAPE   C34 9595   5.752   2.756   6.966  0.3778  0.1377  0.1957
   96SAPE   H4X 9596   5.694   2.695   6.893  0.6713  1.6095 -1.3059
   96SAPE   H4Y 9597   5.858   2.724   6.954 -0.0657 -1.4694  0.3283
   96SAPE   C35 9598   5.740   2.902   6.916 -0.0747 -0.5627  0.5190
   96SAPE   H5X 9599   5.762   2.969   7.002 -0.2731 -1.2210  1.0816
   96SAPE   H5Y 9600   5.634   2.923   6.890 -0.2175  1.9094  2.6644
   96SAPE   C36 9601   5.845   2.936   6.814 -0.6867  0.2489  0.8973
   96SAPE   H6X 9602   5.939   2.930   6.874 -0.5473 -0.0417  0.6513
   96SAPE   H6Y 9603   5.845   3.043   6.784 -2.3959  0.1561  0.5126
   96SAPE   C37 9604   5.838   2.849   6.687  0.3427 -0.2894  0.4555
   96SAPE   H7X 9605   5.743   2.874   6.634  0.4903 -0.4523  0.1131
   96SAPE   H7Y 9606   5.845   2.739   6.703 -1.5913 -0.4613  0.4626
   96SAPE   C38 9607   5.951   2.889   6.599  0.4082 -0.2335 -0.1716
   96SAPE   H8X 9608   6.042   2.836   6.636  0.2614  1.0668  2.2967
   96SAPE   H8Y 9609   5.973   2.998   6.602 -0.2484 -0.1031  0.1911
   96SAPE   C39 9610   5.930   2.855   6.455 -0.0252  0.7048 -0.1193
   96SAPE   H9X 9611   5.828   2.891   6.429 -0.8049  0.4229  2.2975
   96SAPE   H9Y 9612   5.934   2.744   6.447 -1.1857  0.6327  0.1126
   96SAPE  C310 9613   6.045   2.912   6.369 -0.0208  0.1367  0.5839
   96SAPE  H10X 9614   6.144   2.891   6.415  0.5862  2.1975  0.3129
   96SAPE  H10Y 9615   6.040   3.022   6.378  3.5447  0.2885  2.6758
   96SAPE  C311 9616   6.054   2.864   6.221 -0.5885 -0.2662  0.4235
   96SAPE  H11X 9617   5.961   2.862   6.160 -0.3532 -1.2247  0.0732
   96SAPE  H11Y 9618   6.091   2.760   6.216  1.2478  0.2822  1.5933
   96SAPE  C312 9619   6.171   2.940   6.143  0.5761 -0.9664  0.3204
   96SAPE  H12X 9620   6.204   2.871   6.062 -0.2251 -0.0827 -0.7818
   96SAPE  H12Y 9621   6.253   2.949   6.218 -0.2959 -0.5851  1.2550
   96SAPE  C313 9622   6.119   3.076   6.097 -0.2624 -0.3781 -0.0573
   96SAPE  H13X 9623   6.098   3.146   6.180  0.7200  1.1156 -1.0219
   96SAPE  H13Y 9624   6.012   3.071   6.065 -0.2337  1.2909 -0.5062
   96SAPE  C314 9625   6.207   3.152   5.994  0.6548  0.0313  0.0668
   96SAPE  H14X 9626   6.219   3.089   5.903  0.1265 -1.6751  1.1111
   96SAPE  H14Y 9627   6.309   3.157   6.039 -0.1867 -1.7667  2.4344
   96SAPE  C315 9628   6.163   3.294   5.957  0.0707 -0.5189  0.6219
   96SAPE  H15X 9629   6.153   3.364   6.042 -1.3637 -0.6458  0.5859
   96SAPE  H15Y 9630   6.057   3.268   5.935 -0.5745  3.2624 -1.6574
   96SAPE  C316 9631   6.241   3.352   5.842  0.4563  0.1415 -0.2109
   96SAPE  H16X 9632   6.246   3.281   5.757  1.2982 -0.1465  0.0727
   96SAPE  H16Y 9633   6.349   3.361   5.866  0.5170 -0.4956 -0.2288
   96SAPE  C317 9634   6.178   3.485   5.801  0.3351  0.0179  0.5056
   96SAPE  H17X 9635   6.073   3.449   5.816  0.0172  0.8783  0.3927
   96SAPE  H17Y 9636   6.165   3.511   5.694 -0.6534  1.1111  0.8630
   96SAPE  C318 9637   6.209   3.602   5.881  0.6278  0.2278  0.1484
   96SAPE  H18X 9638   6.142   3.608   5.970 -0.1340  2.2244 -0.5025
   96SAPE  H18Y 9639   6.184   3.692   5.821 -1.5914  0.0638  0.7331
   96SAPE  H18Z 9640   6.317   3.606   5.908  0.4102 -1.7478  1.5307
   97SAPE     N 9641   3.556   5.345   7.577 -0.6604 -0.2955  0.3304
   97SAPE   HN1 9642   3.462   5.389   7.582 -0.5151  0.1521 -0.7046
   97SAPE   HN2 9643   3.548   5.259   7.519 -0.0265  0.8378 -1.5139
   97SAPE   HN3 9644   3.594   5.313   7.668  0.9895 -1.5438 -0.7382
   97SAPE   C12 9645   3.649   5.440   7.501 -0.0049 -0.3881 -0.1382
   97SAPE  H12A 9646   3.654   5.534   7.560 -1.8852 -1.8996  2.6596
   97SAPE  H12B 9647   3.598   5.467   7.406 -0.2521  0.9240  0.3358
   97SAPE   C11 9648   3.789   5.380   7.484 -1.1011 -0.3869  0.4209
   97SAPE  H11A 9649   3.858   5.443   7.424 -1.7344  0.6371  0.7451
   97SAPE  H11B 9650   3.780   5.286   7.426 -0.9505  0.7812 -1.5794
   97SAPE     P 9651   3.951   5.449   7.677  0.0889  0.1218 -0.1581
   97SAPE   O13 9652   3.900   5.584   7.661  0.4610 -0.3265  0.0785
   97SAPE   O14 9653   3.995   5.396   7.809  0.3550 -0.5140  0.6182
   97SAPE   O12 9654   3.847   5.354   7.611 -0.0053 -0.0747  0.1880
   97SAPE   O11 9655   4.075   5.436   7.583 -0.3448 -0.0381  0.3820
   97SAPE    C1 9656   4.122   5.301   7.545  1.0302  0.7506  0.1907
   97SAPE    HA 9657   4.143   5.249   7.641  2.2247  1.3546  0.2715
   97SAPE    HB 9658   4.038   5.248   7.495  2.0937 -1.4029  0.5766
   97SAPE    C2 9659   4.239   5.310   7.447 -0.2663  0.4039  0.9099
   97SAPE    HS 9660   4.310   5.377   7.499 -2.1930  2.5081  1.0223
   97SAPE   O21 9661   4.179   5.372   7.327 -0.5423  0.2402 -0.0783
   97SAPE   C21 9662   4.263   5.453   7.252  0.3919 -0.4177 -0.1817
   97SAPE   O22 9663   4.379   5.474   7.270 -0.2485 -0.4170  0.1422
   97SAPE   C22 9664   4.176   5.529   7.148 -0.5851  0.1151 -0.0612
   97SAPE   H2R 9665   4.093   5.461   7.117  1.7774 -3.5529  0.9996
   97SAPE   H2S 9666   4.139   5.617   7.205 -0.7344 -0.1889  0.3220
   97SAPE    C3 9667   4.299   5.171   7.413 -0.3976  0.5796 -0.6681
   97SAPE    HX 9668   4.212   5.113   7.374 -0.0867 -0.0699 -0.4173
   97SAPE    HY 9669   4.325   5.119   7.507 -3.0803 -1.2343 -0.8164
   97SAPE   O31 9670   4.418   5.174   7.323  0.4672  0.8873  0.3160
   97SAPE   C31 9671   4.522   5.236   7.368 -0.3621  0.8293 -0.1461
   97SAPE   O32 9672   4.528   5.285   7.480 -0.5711  0.4484  0.6162
   97SAPE   C32 9673   4.629   5.244   7.265  0.4799  0.4241 -0.3224
   97SAPE   H2X 9674   4.711   5.310   7.302 -2.2244  3.2829  1.0062
   97SAPE   H2Y 9675   4.603   5.280   7.163 -0.4679 -1.9699 -1.0085
   97SAPE   C23 9676   4.252   5.574   7.022 -0.1142 -0.0094 -0.1225
   97SAPE   H3R 9677   4.305   5.488   6.976 -0.9252  0.7111 -2.5984
   97SAPE   H3S 9678   4.315   5.657   7.059  0.1981  0.2255 -1.1615
   97SAPE   C24 9679   4.161   5.620   6.902 -0.4022  0.2384 -0.5538
   97SAPE   H4R 9680   4.089   5.539   6.876  0.1046 -1.0779  1.8030
   97SAPE   H4S 9681   4.239   5.635   6.825  0.4020 -3.9420 -0.7610
   97SAPE   C25 9682   4.076   5.740   6.937  0.1918 -0.3109 -0.6065
   97SAPE   H5R 9683   4.014   5.739   7.028  1.6080  2.4009  0.5046
   97SAPE   C26 9684   4.086   5.864   6.881  0.3407  0.4056 -0.5018
   97SAPE   H6R 9685   4.014   5.938   6.918 -0.1132  0.8069 -2.1237
   97SAPE   C27 9686   4.166   5.894   6.753 -0.0697  0.0418 -0.5286
   97SAPE   H7R 9687   4.107   5.960   6.687  0.6685  0.4513 -0.7931
   97SAPE   H7S 9688   4.166   5.798   6.697  0.8053 -0.1250 -0.2571
   97SAPE   C28 9689   4.299   5.944   6.783  0.1457 -0.3241  0.4613
   97SAPE   H8R 9690   4.346   5.896   6.870  0.3022 -1.5249 -0.2576
   97SAPE   C29 9691   4.364   6.029   6.714 -0.0718  0.3277  0.1766
   97SAPE   H9R 9692   4.466   6.050   6.750  0.0184 -1.0158  0.7817
   97SAPE  C210 9693   4.329   6.102   6.588 -0.8978  0.5135 -0.1496
   97SAPE  H10R 9694   4.252   6.038   6.539  0.0324  0.7678 -2.0306
   97SAPE  H10S 9695   4.414   6.114   6.518  0.5085 -1.5359  1.0975
   97SAPE  C211 9696   4.265   6.232   6.624 -0.0898 -1.1015 -0.6452
   97SAPE  H11R 9697   4.247   6.244   6.732 -1.2183  0.7137 -0.9965
   97SAPE  C212 9698   4.245   6.340   6.545  0.9182  0.3225  0.2909
   97SAPE  H12R 9699   4.185   6.426   6.578  0.3391 -0.2060  0.6453
   97SAPE  C213 9700   4.290   6.348   6.401 -0.1307 -0.1105 -0.5250
   97SAPE  H13R 9701   4.209   6.405   6.349 -2.2697  1.4727  3.9951
   97SAPE  H13S 9702   4.278   6.246   6.358 -5.2389 -0.2014  0.4614
   97SAPE  C214 9703   4.422   6.420   6.383  0.5909 -0.0416  0.9790
   97SAPE  H14R 9704   4.462   6.477   6.468  0.5936  1.1746  0.1875
   97SAPE  C215 9705   4.492   6.430   6.268  0.3793 -0.5545 -0.9490
   97SAPE  H15R 9706   4.588   6.483   6.276  0.3875 -0.8660  1.8552
   97SAPE  C216 9707   4.460   6.391   6.130  0.1976 -0.1799 -0.4405
   97SAPE  H16R 9708   4.372   6.324   6.118 -1.3353  1.9907 -2.2254
   97SAPE  H16S 9709   4.544   6.327   6.096  1.3502 -1.3967  4.1088
   97SAPE  C217 9710   4.427   6.503   6.030 -0.1511  0.6137  0.8491
   97SAPE  H17R 9711   4.422   6.438   5.940 -1.4229 -0.4561  1.6593
   97SAPE  H17S 9712   4.512   6.575   6.023  0.5880 -0.3841 -3.5912
   97SAPE  C218 9713   4.303   6.585   6.056  0.3286  0.0731  0.4170
   97SAPE  H18R 9714   4.318   6.632   6.155  3.7901 -2.0588  1.0865
   97SAPE  H18S 9715   4.209   6.525   6.061  1.2808 -1.6334 -1.0162
   97SAPE  C219 9716   4.277   6.688   5.951  0.2733 -0.4112  0.6073
   97SAPE  H19R 9717   4.242   6.648   5.853  1.9844  2.0846 -1.1619
   97SAPE  H19S 9718   4.370   6.746   5.934  2.0260 -2.9069  1.2467
   97SAPE  C220 9719   4.170   6.792   5.989  0.1516  0.1576  0.6918
   97SAPE  H20R 9720   4.068   6.752   6.008  0.5337 -1.3268 -0.2098
   97SAPE  H20S 9721   4.157   6.865   5.906 -0.0504 -1.7082 -0.9905
   97SAPE  H20T 9722   4.200   6.861   6.071 -0.7233 -0.4205  1.5285
   97SAPE   C33 9723   4.690   5.099   7.234  0.2300 -0.1541  0.2231
   97SAPE   H3X 9724   4.629   5.041   7.161  1.1119  1.0997 -1.6014
   97SAPE   H3Y 9725   4.698   5.053   7.334 -0.7710  0.3309  0.5340
   97SAPE   C34 9726   4.830   5.103   7.173 -0.8464 -0.2433  0.2218
   97SAPE   H4X 9727   4.864   4.999   7.187 -0.6935 -0.1007  0.9247
   97SAPE   H4Y 9728   4.903   5.163   7.232  0.4683 -0.3929 -1.1692
   97SAPE   C35 9729   4.827   5.158   7.026  0.7133 -0.1773  0.4464
   97SAPE   H5X 9730   4.933   5.174   6.999  0.0036  0.6327 -2.1840
   97SAPE   H5Y 9731   4.772   5.254   7.032 -0.4825 -0.6015 -2.1888
   97SAPE   C36 9732   4.759   5.065   6.923 -0.0464 -0.6503 -0.0550
   97SAPE   H6X 9733   4.653   5.065   6.956  0.5838  0.5925  2.1961
   97SAPE   H6Y 9734   4.798   4.961   6.926 -0.5569 -0.8331  0.9906
   97SAPE   C37 9735   4.775   5.110   6.784 -0.5871 -0.6331  1.2529
   97SAPE   H7X 9736   4.762   5.219   6.771 -1.3264 -0.8826 -0.3023
   97SAPE   H7Y 9737   4.692   5.062   6.727 -0.7026  0.5481  0.4015
   97SAPE   C38 9738   4.912   5.062   6.724  0.0649  1.1978  0.1093
   97SAPE   H8X 9739   4.961   4.991   6.794 -1.5710 -0.6895 -0.5704
   97SAPE   H8Y 9740   4.982   5.145   6.701  0.9505  0.8370  1.4326
   97SAPE   C39 9741   4.895   4.990   6.588 -0.3929  0.3237  0.0799
   97SAPE   H9X 9742   4.821   4.907   6.592 -0.7876  0.6262 -0.6169
   97SAPE   H9Y 9743   4.993   4.950   6.555  0.0076 -0.2571  1.8644
   97SAPE  C310 9744   4.854   5.095   6.484 -0.1670 -0.2727 -0.3372
   97SAPE  H10X 9745   4.937   5.169   6.481  0.8939 -1.4483 -1.5916
   97SAPE  H10Y 9746   4.757   5.141   6.512  0.1459  1.6046 -2.1100
   97SAPE  C311 9747   4.839   5.028   6.347  0.5275  0.2697 -0.1312
   97SAPE  H11X 9748   4.764   5.085   6.288  0.4255  0.6123  0.3141
   97SAPE  H11Y 9749   4.803   4.923   6.348 -3.3281  1.4261  0.1320
   97SAPE  C312 9750   4.967   5.031   6.272 -0.3499 -0.1128 -0.3104
   97SAPE  H12X 9751   5.050   4.977   6.322 -0.1945  0.5597  0.1651
   97SAPE  H12Y 9752   4.990   5.140   6.273  0.1501 -0.1807 -1.7085
   97SAPE  C313 9753   4.934   4.990   6.122 -0.2704  0.4058 -0.4303
   97SAPE  H13X 9754   4.829   5.009   6.091 -0.3817  0.1352 -0.2268
   97SAPE  H13Y 9755   4.945   4.880   6.123  0.8592  0.4976  0.9926
   97SAPE  C314 9756   5.021   5.043   6.010 -0.2969 -0.6552  0.0576
   97SAPE  H14X 9757   5.124   5.047   6.049 -0.4515 -2.2807  0.6795
   97SAPE  H14Y 9758   4.984   5.143   5.978 -0.4258  0.1309  2.4535
   97SAPE  C315 9759   5.021   4.955   5.887 -0.1108  0.4328  0.1182
   97SAPE  H15X 9760   4.919   4.933   5.847 -0.4237 -0.9740  1.5793
   97SAPE  H15Y 9761   5.061   4.859   5.926  2.5665  1.1832 -0.5756
   97SAPE  C316 9762   5.101   5.019   5.777  0.6393  0.3459 -0.3180
   97SAPE  H16X 9763   5.203   5.056   5.799  1.0430 -0.5792 -0.5744
   97SAPE  H16Y 9764   5.044   5.101   5.731  3.1153  1.4018 -1.6759
   97SAPE  C317 9765   5.110   4.925   5.657  0.0652 -0.4808  0.2823
   97SAPE  H17X 9766   5.160   4.834   5.698  0.9397  0.0626  0.4400
   97SAPE  H17Y 9767   5.178   4.973   5.583 -0.7730 -0.4551 -0.4801
   97SAPE  C318 9768   4.976   4.874   5.599  0.2320 -0.3607 -0.3124
   97SAPE  H18X 9769   5.001   4.805   5.515  2.4829  1.6587 -1.4373
   97SAPE  H18Y 9770   4.920   4.959   5.555  2.8986  1.3693 -0.6424
   97SAPE  H18Z 9771   4.911   4.830   5.677 -1.5071  1.8267 -0.4534
   98SAPE     N 9772   4.500   4.717   7.978 -0.5049  0.3359 -0.6880
   98SAPE   HN1 9773   4.601   4.695   7.983 -0.4007  1.0997  1.6669
   98SAPE   HN2 9774   4.481   4.766   7.888  1.1308  0.6169 -0.9077
   98SAPE   HN3 9775   4.479   4.793   8.046 -1.8689 -1.8670  1.5498
   98SAPE   C12 9776   4.413   4.598   7.999 -0.2260 -0.0946  0.2025
   98SAPE  H12A 9777   4.426   4.566   8.105  0.4464 -1.0484 -0.1611
   98SAPE  H12B 9778   4.446   4.521   7.926  2.3505  0.6780  0.4621
   98SAPE   C11 9779   4.264   4.643   7.973 -0.1272 -0.5080 -0.1350
   98SAPE  H11A 9780   4.268   4.685   7.870 -0.3664  1.5444  0.6622
   98SAPE  H11B 9781   4.246   4.732   8.036 -1.4886  0.4583 -1.7850
   98SAPE     P 9782   4.017   4.558   7.960 -0.2173  0.1053 -0.1659
   98SAPE   O13 9783   3.929   4.441   7.980  0.0632  0.6352 -0.1785
   98SAPE   O14 9784   3.981   4.683   8.037  0.4550 -0.0836 -0.9210
   98SAPE   O12 9785   4.169   4.533   7.993  0.2196  0.3430 -0.0712
   98SAPE   O11 9786   4.029   4.593   7.805 -0.3066  0.0962 -0.2585
   98SAPE    C1 9787   4.038   4.500   7.696 -0.3899  0.3872  0.3314
   98SAPE    HA 9788   3.990   4.401   7.712  1.2865 -0.3950  0.7785
   98SAPE    HB 9789   3.982   4.554   7.617 -0.2350 -0.4575 -0.3596
   98SAPE    C2 9790   4.186   4.486   7.658 -0.1397 -0.5759 -0.1431
   98SAPE    HS 9791   4.245   4.454   7.747 -1.4993  1.8898  1.7578
   98SAPE   O21 9792   4.237   4.611   7.604  0.4602  0.9009 -0.2398
   98SAPE   C21 9793   4.372   4.601   7.588  0.2267  0.5876  0.2807
   98SAPE   O22 9794   4.452   4.517   7.632  0.1153  0.0604 -0.7361
   98SAPE   C22 9795   4.411   4.717   7.502 -0.0190  0.5131 -0.7890
   98SAPE   H2R 9796   4.322   4.747   7.443  0.2976 -0.2899 -1.7192
   98SAPE   H2S 9797   4.438   4.806   7.562  2.9919 -1.4113  1.0277
   98SAPE    C3 9798   4.200   4.369   7.554 -0.4998 -1.1535 -0.7205
   98SAPE    HX 9799   4.150   4.278   7.594  0.1286 -2.0931 -2.0128
   98SAPE    HY 9800   4.302   4.331   7.536  0.3877  1.5773 -2.0551
   98SAPE   O31 9801   4.122   4.414   7.437 -0.1671 -0.3925 -0.2579
   98SAPE   C31 9802   4.195   4.440   7.329 -0.0049 -0.4235  0.0263
   98SAPE   O32 9803   4.313   4.442   7.325 -0.1124 -0.2705  0.6123
   98SAPE   C32 9804   4.103   4.453   7.205 -0.0987 -0.4518 -0.5512
   98SAPE   H2X 9805   3.995   4.445   7.230 -0.0803  0.4393 -0.1505
   98SAPE   H2Y 9806   4.138   4.385   7.125  1.6132 -1.0019  0.6274
   98SAPE   C23 9807   4.525   4.680   7.410 -0.6816 -0.8796 -0.5842
   98SAPE   H3R 9808   4.508   4.583   7.360 -1.6581 -0.8293 -0.3731
   98SAPE   H3S 9809   4.622   4.674   7.464  0.6338 -0.7612 -2.8335
   98SAPE   C24 9810   4.535   4.781   7.290 -0.2205  0.1098  0.1111
   98SAPE   H4R 9811   4.526   4.883   7.333  2.0406 -0.6308  2.6024
   98SAPE   H4S 9812   4.439   4.773   7.235 -0.0849  0.5805 -0.2001
   98SAPE   C25 9813   4.668   4.756   7.223  0.3586 -0.7496 -0.4234
   98SAPE   H5R 9814   4.755   4.751   7.290  0.1114 -3.0943 -0.1907
   98SAPE   C26 9815   4.670   4.726   7.091  0.0853 -0.6140 -0.3846
   98SAPE   H6R 9816   4.766   4.710   7.042  1.5662  1.2746  1.6711
   98SAPE   C27 9817   4.550   4.725   7.002  0.2909 -0.3415  0.1945
   98SAPE   H7R 9818   4.510   4.828   6.990 -1.7567 -0.8091  2.2364
   98SAPE   H7S 9819   4.473   4.670   7.061  0.8050  0.4875  1.6662
   98SAPE   C28 9820   4.580   4.675   6.860  0.2124 -0.1216 -0.4492
   98SAPE   H8R 9821   4.667   4.607   6.860  0.4767  0.1730 -2.0048
   98SAPE   C29 9822   4.532   4.721   6.746 -0.5766  0.1404  0.5686
   98SAPE   H9R 9823   4.568   4.673   6.654  1.2833  0.3682  1.1268
   98SAPE  C210 9824   4.425   4.824   6.728  0.0008 -0.2641  0.2171
   98SAPE  H10R 9825   4.477   4.917   6.696 -0.6384 -0.4787 -1.5660
   98SAPE  H10S 9826   4.363   4.845   6.818 -0.8101  1.5041 -0.6864
   98SAPE  C211 9827   4.321   4.801   6.623  0.4135  0.1925  0.0453
   98SAPE  H11R 9828   4.231   4.752   6.664 -0.4139  0.2237 -1.6262
   98SAPE  C212 9829   4.331   4.831   6.493  0.1497 -0.0536  0.0028
   98SAPE  H12R 9830   4.243   4.814   6.429 -0.1026  1.1716 -0.0016
   98SAPE  C213 9831   4.448   4.886   6.425 -0.2351  0.3595 -0.2552
   98SAPE  H13R 9832   4.541   4.863   6.480 -1.6948 -2.2403  1.2883
   98SAPE  H13S 9833   4.438   4.996   6.412 -1.4862  0.2882 -0.0046
   98SAPE  C214 9834   4.453   4.836   6.287  0.6362 -0.3188  0.2792
   98SAPE  H14R 9835   4.489   4.732   6.275 -1.8842 -1.3474  0.9406
   98SAPE  C215 9836   4.417   4.893   6.169  0.4535 -0.2190 -0.2458
   98SAPE  H15R 9837   4.440   4.845   6.073  1.6573  3.3815 -1.9412
   98SAPE  C216 9838   4.370   5.036   6.149  0.2829 -0.0273 -0.3971
   98SAPE  H16R 9839   4.312   5.057   6.242 -1.3779  0.0000 -1.3860
   98SAPE  H16S 9840   4.298   5.038   6.064  0.1818 -2.4362 -0.4391
   98SAPE  C217 9841   4.466   5.152   6.144  0.4556  0.2888  0.6791
   98SAPE  H17R 9842   4.559   5.129   6.088  0.3235  1.7041 -0.1706
   98SAPE  H17S 9843   4.498   5.170   6.249 -0.2699  1.5766  0.7017
   98SAPE  C218 9844   4.403   5.289   6.099  0.2258  0.1466 -0.1995
   98SAPE  H18R 9845   4.478   5.368   6.120 -0.1781  0.7009 -0.8029
   98SAPE  H18S 9846   4.311   5.311   6.157  1.0451  0.2741  1.0972
   98SAPE  C219 9847   4.386   5.293   5.947  0.0165  0.5490 -0.1460
   98SAPE  H19R 9848   4.313   5.218   5.912 -0.1054 -0.4481  2.1082
   98SAPE  H19S 9849   4.490   5.264   5.918  0.4584  1.9025  0.0121
   98SAPE  C220 9850   4.357   5.431   5.895 -0.3171  0.1760 -0.4273
   98SAPE  H20R 9851   4.424   5.503   5.947 -0.9479  0.5446 -0.1200
   98SAPE  H20S 9852   4.252   5.459   5.920 -0.4106  1.1122 -1.7576
   98SAPE  H20T 9853   4.383   5.442   5.787 -2.8523 -1.5827 -1.3369
   98SAPE   C33 9854   4.132   4.595   7.140  0.0306  0.2245  0.1415
   98SAPE   H3X 9855   4.241   4.618   7.142  0.4327 -1.2525 -1.6778
   98SAPE   H3Y 9856   4.078   4.681   7.185 -0.1941  0.5364 -0.7108
   98SAPE   C34 9857   4.101   4.597   6.988  0.8999 -0.2026  0.2438
   98SAPE   H4X 9858   4.168   4.531   6.929  0.0513 -1.4226  0.6234
   98SAPE   H4Y 9859   4.134   4.693   6.942  2.1349 -0.6807  0.0743
   98SAPE   C35 9860   3.962   4.555   6.941 -0.1391 -0.2232  0.2255
   98SAPE   H5X 9861   3.890   4.553   7.025 -0.9274  0.6892 -0.4152
   98SAPE   H5Y 9862   3.973   4.448   6.910  1.9279 -0.5941  1.9489
   98SAPE   C36 9863   3.890   4.630   6.828  0.7399 -0.1139  0.2189
   98SAPE   H6X 9864   3.962   4.657   6.747 -0.2767 -2.7550 -1.7372
   98SAPE   H6Y 9865   3.858   4.729   6.865  0.6391  1.3653 -3.4066
   98SAPE   C37 9866   3.776   4.547   6.762  0.9908 -0.9113  0.6112
   98SAPE   H7X 9867   3.708   4.613   6.704  0.7615 -0.0591  1.8083
   98SAPE   H7Y 9868   3.710   4.505   6.841 -0.5490  1.1877  0.5366
   98SAPE   C38 9869   3.836   4.445   6.666 -0.1738 -0.1867  0.0268
   98SAPE   H8X 9870   3.750   4.379   6.641 -2.0571  2.0049  0.3115
   98SAPE   H8Y 9871   3.910   4.377   6.714 -1.0007 -0.5565  0.8145
   98SAPE   C39 9872   3.897   4.503   6.533  0.1577  0.9722 -0.0597
   98SAPE   H9X 9873   3.993   4.556   6.552 -1.4714  3.6069  1.6535
   98SAPE   H9Y 9874   3.829   4.577   6.486 -0.2169  1.1689  0.7719
   98SAPE  C310 9875   3.903   4.380   6.431 -0.2513 -0.2215 -0.0882
   98SAPE  H10X 9876   3.794   4.360   6.417 -0.3317  0.1269  0.0503
   98SAPE  H10Y 9877   3.949   4.287   6.472 -1.2987  0.4763  2.9738
   98SAPE  C311 9878   3.958   4.425   6.298 -0.5284 -0.6439 -1.1210
   98SAPE  H11X 9879   4.069   4.438   6.293 -0.1400 -3.5358 -3.0594
   98SAPE  H11Y 9880   3.898   4.514   6.270 -1.0663 -0.1825  1.2950
   98SAPE  C312 9881   3.925   4.314   6.188 -0.7306 -0.7739 -0.3479
   98SAPE  H12X 9882   3.819   4.279   6.192 -0.8144 -0.4153  2.2503
   98SAPE  H12Y 9883   3.999   4.237   6.215  0.0428  0.3291  0.7987
   98SAPE  C313 9884   3.945   4.370   6.045  0.3642  0.2636 -0.8681
   98SAPE  H13X 9885   4.052   4.399   6.035  0.4901 -0.1555 -0.7706
   98SAPE  H13Y 9886   3.896   4.468   6.031 -0.7909 -0.0607  0.6174
   98SAPE  C314 9887   3.920   4.264   5.938 -0.4835  0.3150 -0.1050
   98SAPE  H14X 9888   3.838   4.192   5.962 -0.0723 -1.5381 -3.6335
   98SAPE  H14Y 9889   4.011   4.200   5.939 -0.9078 -0.3551  2.4011
   98SAPE  C315 9890   3.908   4.323   5.802 -0.0827 -0.0292  0.3709
   98SAPE  H15X 9891   4.008   4.365   5.776 -0.4173  0.9264  0.5975
   98SAPE  H15Y 9892   3.838   4.409   5.804  0.9924  0.8667  1.1786
   98SAPE  C316 9893   3.864   4.222   5.689  0.3566 -0.5569  0.1373
   98SAPE  H16X 9894   3.775   4.162   5.714  1.2424 -1.7668  0.4896
   98SAPE  H16Y 9895   3.947   4.149   5.678 -0.5095 -1.7032  1.0406
   98SAPE  C317 9896   3.845   4.290   5.553 -0.4959  0.7899  0.1230
   98SAPE  H17X 9897   3.950   4.297   5.516 -0.1503 -2.2267  0.2987
   98SAPE  H17Y 9898   3.805   4.393   5.564  1.4502  1.7045 -0.7765
   98SAPE  C318 9899   3.773   4.205   5.449  0.1126 -0.5220  0.3839
   98SAPE  H18X 9900   3.676   4.168   5.489  0.7923 -2.7591  0.1106
   98SAPE  H18Y 9901   3.831   4.110   5.442 -0.0920 -0.5119 -2.7393
   98SAPE  H18Z 9902   3.758   4.249   5.348  1.9760 -1.5080 -0.3794
   99SAPE     N 9903   5.348   4.574   8.254  0.3090 -0.8693  0.0977
   99SAPE   HN1 9904   5.302   4.667   8.244  3.1303  0.5109 -1.3055
   99SAPE   HN2 9905   5.382   4.570   8.353  1.5918  1.4258 -0.1773
   99SAPE   HN3 9906   5.429   4.586   8.189 -0.8209  0.8396 -1.0490
   99SAPE   C12 9907   5.267   4.459   8.217 -0.1976 -0.0893 -0.5078
   99SAPE  H12A 9908   5.188   4.448   8.294  1.2560  1.1695  1.2331
   99SAPE  H12B 9909   5.319   4.361   8.224  0.3499 -0.0150 -2.7747
   99SAPE   C11 9910   5.207   4.471   8.075 -0.5324  0.3857  1.2214
   99SAPE  H11A 9911   5.147   4.564   8.063  1.8334  1.7005 -1.9749
   99SAPE  H11B 9912   5.136   4.388   8.052 -0.9888  1.0737  0.0030
   99SAPE     P 9913   5.353   4.346   7.883 -0.0762 -0.1683 -0.3065
   99SAPE   O13 9914   5.470   4.377   7.795  0.2163 -0.2107 -0.6272
   99SAPE   O14 9915   5.365   4.217   7.955 -0.4066  0.0342 -0.3127
   99SAPE   O12 9916   5.316   4.466   7.979  0.3468 -0.0305  0.9838
   99SAPE   O11 9917   5.220   4.344   7.798  1.0878  0.2496  0.0188
   99SAPE    C1 9918   5.187   4.468   7.726  0.8234  0.2995  0.1661
   99SAPE    HA 9919   5.095   4.511   7.772  1.2785 -0.0589  1.4275
   99SAPE    HB 9920   5.265   4.547   7.731  0.1320  1.0112  0.0134
   99SAPE    C2 9921   5.172   4.435   7.572  0.0892  0.1437  0.7651
   99SAPE    HS 9922   5.179   4.533   7.520  0.9301  1.1331  2.6418
   99SAPE   O21 9923   5.052   4.359   7.549  0.1486 -0.0361  0.4488
   99SAPE   C21 9924   4.949   4.443   7.538  0.5007 -1.2926 -0.4792
   99SAPE   O22 9925   4.947   4.566   7.552  0.1305  0.0169 -0.1856
   99SAPE   C22 9926   4.817   4.364   7.538 -0.0138  0.2465 -0.7810
   99SAPE   H2R 9927   4.803   4.332   7.643 -2.5219  3.1729 -0.0759
   99SAPE   H2S 9928   4.737   4.439   7.521  0.3152  0.7682 -0.0948
   99SAPE    C3 9929   5.284   4.338   7.518 -0.3995  0.0092  0.4214
   99SAPE    HX 9930   5.280   4.237   7.565  0.6791 -1.4130 -2.2885
   99SAPE    HY 9931   5.372   4.393   7.557 -0.9796  0.4280  1.1665
   99SAPE   O31 9932   5.288   4.325   7.378  0.2648  0.2264  0.1520
   99SAPE   C31 9933   5.353   4.226   7.319 -0.0415 -0.5857 -0.2517
   99SAPE   O32 9934   5.415   4.137   7.378 -0.4246 -0.4936 -0.3917
   99SAPE   C32 9935   5.329   4.233   7.166  0.4230 -0.2128 -0.1606
   99SAPE   H2X 9936   5.425   4.268   7.123  0.2645  0.9699  0.4138
   99SAPE   H2Y 9937   5.252   4.310   7.148 -1.4783 -1.8919  0.3958
   99SAPE   C23 9938   4.820   4.239   7.437 -0.5023 -1.1164 -0.3326
   99SAPE   H3R 9939   4.880   4.161   7.488 -1.3375 -1.3299  0.3490
   99SAPE   H3S 9940   4.861   4.273   7.339 -0.4673  0.1770  0.1146
   99SAPE   C24 9941   4.685   4.172   7.418 -0.1169 -0.9126  0.1289
   99SAPE   H4R 9942   4.640   4.178   7.519 -0.4167  1.9466 -0.1003
   99SAPE   H4S 9943   4.700   4.065   7.390 -1.4530 -1.5345  1.6679
   99SAPE   C25 9944   4.581   4.251   7.325  0.0424 -0.3134 -0.1656
   99SAPE   H5R 9945   4.528   4.331   7.379  0.2588 -0.2221 -0.0845
   99SAPE   C26 9946   4.545   4.223   7.202 -0.3376  0.0439  0.4620
   99SAPE   H6R 9947   4.477   4.286   7.143  1.2966 -0.2894 -1.9453
   99SAPE   C27 9948   4.596   4.106   7.115 -0.6894  0.3058  0.0424
   99SAPE   H7R 9949   4.537   4.082   7.024 -2.6929  2.1305  0.7637
   99SAPE   H7S 9950   4.590   4.012   7.175  0.1503  1.1239  1.4747
   99SAPE   C28 9951   4.745   4.131   7.091  0.8271  0.2468 -0.3409
   99SAPE   H8R 9952   4.810   4.172   7.171  1.1533 -1.0738  0.0849
   99SAPE   C29 9953   4.805   4.109   6.970 -0.1005  0.4928 -0.5278
   99SAPE   H9R 9954   4.912   4.134   6.961 -0.4641  2.5570  0.3818
   99SAPE  C210 9955   4.744   4.057   6.840  0.2293 -0.7148  0.0095
   99SAPE  H10R 9956   4.685   4.138   6.793  0.0731 -0.2461  0.9870
   99SAPE  H10S 9957   4.681   3.967   6.855  2.0030 -2.2650 -1.3394
   99SAPE  C211 9958   4.859   4.008   6.746 -0.4530 -0.2028 -0.1138
   99SAPE  H11R 9959   4.952   3.969   6.790 -0.0162  0.9638  0.0249
   99SAPE  C212 9960   4.837   3.987   6.616 -0.0406 -0.0859 -0.4136
   99SAPE  H12R 9961   4.923   3.954   6.557 -0.0718 -1.8868  0.4987
   99SAPE  C213 9962   4.710   4.017   6.535 -0.3256  0.0531  0.1651
   99SAPE  H13R 9963   4.723   4.121   6.497  2.3241 -0.2713  0.0033
   99SAPE  H13S 9964   4.627   4.004   6.607 -0.4750 -2.7222 -0.3852
   99SAPE  C214 9965   4.691   3.909   6.432 -0.3796  0.3197 -0.0918
   99SAPE  H14R 9966   4.655   3.814   6.474 -1.5113  1.5940  2.0386
   99SAPE  C215 9967   4.721   3.917   6.300 -0.2023 -0.2902 -0.2213
   99SAPE  H15R 9968   4.715   3.824   6.241 -0.8353 -0.9170  0.8063
   99SAPE  C216 9969   4.760   4.043   6.222  0.5857  0.5255 -0.1909
   99SAPE  H16R 9970   4.789   4.123   6.293  2.0895 -1.3856  1.4624
   99SAPE  H16S 9971   4.669   4.077   6.167 -0.5414 -0.7725  0.7797
   99SAPE  C217 9972   4.889   4.018   6.140  0.4561  0.1587  0.4148
   99SAPE  H17R 9973   4.962   3.965   6.204  1.5135 -0.9661 -1.6058
   99SAPE  H17S 9974   4.939   4.115   6.118 -1.3990  1.1911  0.5485
   99SAPE  C218 9975   4.876   3.941   6.013 -0.0771 -0.0725  0.5044
   99SAPE  H18R 9976   4.852   3.836   6.040  0.1268  0.2156  1.8774
   99SAPE  H18S 9977   4.966   3.932   5.949 -1.7683  0.1879 -2.0474
   99SAPE  C219 9978   4.766   3.991   5.919 -0.5871 -0.3138 -0.0203
   99SAPE  H19R 9979   4.677   4.013   5.982 -0.3605  0.5423  0.0149
   99SAPE  H19S 9980   4.741   3.909   5.849  0.4039  0.8631 -1.8490
   99SAPE  C220 9981   4.812   4.121   5.837  0.5876  0.3344  0.0719
   99SAPE  H20R 9982   4.905   4.105   5.779  0.5551 -1.1151  0.3659
   99SAPE  H20S 9983   4.824   4.196   5.918  2.3499 -0.2911  0.4348
   99SAPE  H20T 9984   4.727   4.148   5.771 -1.1191 -0.6375  1.7485
   99SAPE   C33 9985   5.267   4.101   7.115 -0.2139 -0.0556  0.6326
   99SAPE   H3X 9986   5.159   4.099   7.142  0.2247  2.1548  2.9502
   99SAPE   H3Y 9987   5.309   4.013   7.168 -1.7359 -2.4851 -1.8935
   99SAPE   C34 9988   5.285   4.069   6.966  0.3745 -0.6102  0.5826
   99SAPE   H4X 9989   5.248   3.965   6.952 -0.1352 -0.4853  1.0206
   99SAPE   H4Y 9990   5.394   4.076   6.944 -0.2298 -0.0041 -2.8159
   99SAPE   C35 9991   5.207   4.171   6.872  0.1372 -0.2010 -0.3535
   99SAPE   H5X 9992   5.249   4.269   6.905  0.8914 -0.4067 -0.6827
   99SAPE   H5Y 9993   5.096   4.175   6.874  0.1166 -0.4523 -0.9906
   99SAPE   C36 9994   5.243   4.146   6.725  0.3956  0.3871 -0.5444
   99SAPE   H6X 9995   5.205   4.046   6.698  0.6933  0.4576 -1.2298
   99SAPE   H6Y 9996   5.354   4.142   6.715  0.4072  1.1953 -0.8315
   99SAPE   C37 9997   5.177   4.252   6.641  0.0581 -0.6048  0.7098
   99SAPE   H7X 9998   5.196   4.354   6.682 -1.9278  1.1449 -2.3163
   99SAPE   H7Y 9999   5.067   4.245   6.654 -0.0832  0.6884  0.3940
   99SAPE   C3810000   5.208   4.257   6.495 -0.0633  0.0406 -0.5414
   99SAPE   H8X10001   5.315   4.285   6.497 -0.2709  0.9410  2.6580
   99SAPE   H8Y10002   5.155   4.335   6.436  0.6885  0.7132 -0.3503
   99SAPE   C3910003   5.192   4.129   6.416  0.1986  0.0264 -0.1998
   99SAPE   H9X10004   5.094   4.083   6.437  0.4319 -0.4310 -0.0878
   99SAPE   H9Y10005   5.261   4.050   6.452 -1.0854 -0.7564  0.6014
   99SAPE  C31010006   5.215   4.142   6.271 -0.2167  0.3143  0.3504
   99SAPE  H10X10007   5.290   4.220   6.247 -2.8697  3.2404  0.9780
   99SAPE  H10Y10008   5.120   4.187   6.234 -0.7291  0.0576  1.3312
   99SAPE  C31110009   5.243   4.013   6.198  0.4988 -0.2461  0.3248
   99SAPE  H11X10010   5.178   3.930   6.233 -0.6851  0.7414  0.5447
   99SAPE  H11Y10011   5.349   3.991   6.222  0.7953  1.4065  0.6434
   99SAPE  C31210012   5.243   4.041   6.051 -0.6294  0.8257  0.2731
   99SAPE  H12X10013   5.309   4.129   6.034 -0.9959  1.5228  2.2396
   99SAPE  H12Y10014   5.137   4.068   6.028 -1.2473 -0.3386  1.6035
   99SAPE  C31310015   5.284   3.932   5.950  0.2825  0.1617 -0.0593
   99SAPE  H13X10016   5.245   3.833   5.982  1.2412 -0.6619 -1.3096
   99SAPE  H13Y10017   5.393   3.909   5.948 -0.0888 -1.7903 -0.7902
   99SAPE  C31410018   5.238   3.967   5.800  0.3077  0.3370  0.3940
   99SAPE  H14X10019   5.128   3.973   5.784 -0.1276 -3.5733  0.9009
   99SAPE  H14Y10020   5.266   3.879   5.738 -2.1051 -1.2610  1.4005
   99SAPE  C31510021   5.307   4.091   5.752 -0.2676  0.1944  0.0596
   99SAPE  H15X10022   5.418   4.086   5.744 -0.2031  0.6984  0.5701
   99SAPE  H15Y10023   5.290   4.176   5.821 -1.9234 -1.4281  1.7519
   99SAPE  C31610024   5.268   4.123   5.612  0.0072 -0.9523 -0.6256
   99SAPE  H16X10025   5.179   4.189   5.603  1.5448  1.1009 -1.6188
   99SAPE  H16Y10026   5.243   4.028   5.559 -2.3169 -2.7224  3.1793
   99SAPE  C31710027   5.386   4.204   5.545  0.2108  0.3630  0.1541
   99SAPE  H17X10028   5.349   4.219   5.441 -2.6372 -2.5708  0.6024
   99SAPE  H17Y10029   5.474   4.139   5.531 -0.3892 -0.7905  1.5262
   99SAPE  C31810030   5.412   4.340   5.616 -0.4454 -0.0258  0.1705
   99SAPE  H18X10031   5.462   4.401   5.538 -3.3232  0.5477 -1.3881
   99SAPE  H18Y10032   5.457   4.327   5.716 -0.8930  0.6665  0.4703
   99SAPE  H18Z10033   5.315   4.390   5.635  0.3650  0.7554  2.6205
  100SAPE     N10034   0.974   3.078   7.852 -0.2097  0.5546  0.0684
  100SAPE   HN110035   0.984   3.104   7.953  1.8762  0.2452 -0.0117
  100SAPE   HN210036   1.063   3.090   7.800 -1.1750  1.1044 -1.4975
  100SAPE   HN310037   0.895   3.126   7.805 -1.8177 -1.4495  0.5654
  100SAPE   C1210038   0.933   2.937   7.845  0.3073 -0.5639  0.2208
  100SAPE  H12A10039   0.822   2.949   7.843  0.4126  1.8553  2.8729
  100SAPE  H12B10040   0.964   2.896   7.944  3.2181  1.0560  0.0744
  100SAPE   C1110041   0.979   2.857   7.721  0.0021 -0.4226 -0.1218
  100SAPE  H11A10042   0.950   2.914   7.630  3.2572  0.7819 -0.5589
  100SAPE  H11B10043   0.925   2.760   7.708 -1.3390  0.2334  0.3910
  100SAPE     P10044   1.214   2.917   7.635 -0.0949 -0.0577  0.0886
  100SAPE   O1310045   1.219   3.052   7.698 -0.2283  0.1194  0.0392
  100SAPE   O1410046   1.338   2.843   7.612 -0.5387  0.0290 -0.1748
  100SAPE   O1210047   1.116   2.827   7.718  0.6726  0.2691  0.1189
  100SAPE   O1110048   1.142   2.936   7.496 -0.4987  0.0051  0.6868
  100SAPE    C110049   1.118   2.812   7.423  0.3815  0.5485  1.0468
  100SAPE    HA10050   1.131   2.718   7.481  1.9782  0.1527  0.1152
  100SAPE    HB10051   1.014   2.816   7.384  1.8122 -1.3164 -3.6832
  100SAPE    C210052   1.202   2.800   7.293 -0.4322 -0.0198 -0.2418
  100SAPE    HS10053   1.309   2.793   7.323 -0.7538  0.6343  1.1676
  100SAPE   O2110054   1.193   2.919   7.216  0.2030 -0.1627 -0.4733
  100SAPE   C2110055   1.269   2.933   7.104  0.5225  0.6990 -0.2509
  100SAPE   O2210056   1.364   2.866   7.078 -0.6117  0.2826 -0.2743
  100SAPE   C2210057   1.215   3.044   7.021 -0.0138  0.4631  0.5442
  100SAPE   H2R10058   1.141   3.010   6.946 -0.3109  2.7460 -0.2721
  100SAPE   H2S10059   1.168   3.112   7.096  0.0882 -0.6487  1.6558
  100SAPE    C310060   1.180   2.672   7.216  0.5631 -0.3483  0.5370
  100SAPE    HX10061   1.176   2.587   7.287 -0.9585 -2.0336 -1.4523
  100SAPE    HY10062   1.270   2.655   7.154  0.7177  0.2220  0.5958
  100SAPE   O3110063   1.061   2.658   7.134 -0.4486  0.3877 -0.1322
  100SAPE   C3110064   1.058   2.557   7.052  0.0320 -0.6690 -0.3678
  100SAPE   O3210065   1.137   2.463   7.051  0.3676  0.1971 -0.4394
  100SAPE   C3210066   0.941   2.580   6.964  0.1567  0.0208  0.3985
  100SAPE   H2X10067   0.862   2.647   7.003  0.0222 -0.2799  0.6459
  100SAPE   H2Y10068   0.895   2.479   6.960  0.0776  0.0645 -3.3741
  100SAPE   C2310069   1.335   3.117   6.951  0.1558 -0.3980 -0.2415
  100SAPE   H3R10070   1.358   3.068   6.854  0.2213  1.0713 -0.9889
  100SAPE   H3S10071   1.424   3.117   7.018 -0.1244  1.2585  0.1756
  100SAPE   C2410072   1.297   3.262   6.906 -0.2789  0.6914  0.3867
  100SAPE   H4R10073   1.388   3.304   6.858  0.2160 -0.3484  0.3603
  100SAPE   H4S10074   1.276   3.324   6.995 -0.3054 -0.9997  1.6119
  100SAPE   C2510075   1.180   3.268   6.810  0.0313 -0.3469 -0.0927
  100SAPE   H5R10076   1.089   3.222   6.851  1.2243 -2.0318  0.8293
  100SAPE   C2610077   1.169   3.333   6.695  0.1665  0.0694  0.7585
  100SAPE   H6R10078   1.067   3.337   6.654  0.9147  0.7979 -1.1850
  100SAPE   C2710079   1.267   3.410   6.608  0.1903  0.3858 -0.6188
  100SAPE   H7R10080   1.360   3.421   6.668  1.2144 -0.7775 -1.9373
  100SAPE   H7S10081   1.243   3.518   6.592  1.3764  0.9744  1.2661
  100SAPE   C2810082   1.307   3.336   6.482  0.0518 -0.5632  0.5733
  100SAPE   H8R10083   1.382   3.256   6.485  1.2999  0.5973  1.7028
  100SAPE   C2910084   1.265   3.366   6.355  0.1300 -0.2415 -0.4324
  100SAPE   H9R10085   1.299   3.311   6.267  0.5513 -0.0380 -0.3960
  100SAPE  C21010086   1.174   3.483   6.317  0.6000 -0.6916 -0.4375
  100SAPE  H10R10087   1.106   3.505   6.402  1.4499 -1.4143  0.4726
  100SAPE  H10S10088   1.120   3.464   6.222  0.4789 -1.3819 -0.2358
  100SAPE  C21110089   1.247   3.620   6.288  0.2531  0.2501  0.1386
  100SAPE  H11R10090   1.306   3.658   6.372 -2.8780  3.1304  1.2320
  100SAPE  C21210091   1.239   3.687   6.173  0.1761  0.5915  0.4120
  100SAPE  H12R10092   1.291   3.784   6.170  1.4162  0.1613  3.7093
  100SAPE  C21310093   1.152   3.661   6.052 -0.5378 -0.2975 -0.3574
  100SAPE  H13R10094   1.126   3.751   5.992 -0.7459 -0.1184 -0.0017
  100SAPE  H13S10095   1.049   3.628   6.077 -0.5613 -2.2704 -2.7050
  100SAPE  C21410096   1.203   3.553   5.959 -0.1438  0.2963  0.6805
  100SAPE  H14R10097   1.156   3.456   5.982 -1.3313  1.1151  1.8561
  100SAPE  C21510098   1.301   3.569   5.863  0.5682 -0.7566  0.1303
  100SAPE  H15R10099   1.335   3.486   5.799  0.0768 -1.3128  0.5850
  100SAPE  C21610100   1.384   3.697   5.834 -0.1057  0.3655 -0.0159
  100SAPE  H16R10101   1.487   3.664   5.811  0.2317  0.5851  1.1210
  100SAPE  H16S10102   1.392   3.764   5.922  1.2358 -0.2141  0.3216
  100SAPE  C21710103   1.321   3.774   5.716  0.3332  0.1090  0.4803
  100SAPE  H17R10104   1.219   3.804   5.746  0.3434  1.1210 -0.4615
  100SAPE  H17S10105   1.323   3.714   5.623  1.2072 -0.7490  1.0235
  100SAPE  C21810106   1.403   3.904   5.686  0.2228 -0.2941  0.1548
  100SAPE  H18R10107   1.510   3.883   5.665 -0.0501 -0.3196 -1.3208
  100SAPE  H18S10108   1.404   3.955   5.785 -0.9994 -0.6471  0.3707
  100SAPE  C21910109   1.339   3.997   5.583  0.5222 -0.2780  0.6043
  100SAPE  H19R10110   1.228   3.998   5.591  0.2882  0.8530 -1.8444
  100SAPE  H19S10111   1.345   3.952   5.481 -2.0891  0.9200 -0.1585
  100SAPE  C22010112   1.402   4.138   5.585 -0.2148  0.4962 -0.7399
  100SAPE  H20R10113   1.394   4.187   5.684 -0.2840 -0.8032 -0.0757
  100SAPE  H20S10114   1.339   4.200   5.517 -0.5075 -0.1618 -1.0883
  100SAPE  H20T10115   1.507   4.143   5.549  0.5498  0.2612  1.3383
  100SAPE   C3310116   0.984   2.609   6.818 -0.5575  0.3253  0.7633
  100SAPE   H3X10117   0.894   2.587   6.757 -1.3799  0.8134  1.7535
  100SAPE   H3Y10118   1.063   2.534   6.797 -1.2913 -0.6880  1.5348
  100SAPE   C3410119   1.046   2.744   6.804  1.0839  0.2275  0.1481
  100SAPE   H4X10120   1.153   2.746   6.836  1.3108  2.4272 -0.5453
  100SAPE   H4Y10121   0.994   2.821   6.865 -2.9080 -0.3636 -2.2033
  100SAPE   C3510122   1.022   2.804   6.667 -0.0066 -0.9056  0.1636
  100SAPE   H5X10123   0.925   2.858   6.663 -0.1875 -1.0624  1.7056
  100SAPE   H5Y10124   1.026   2.729   6.586  0.8711  0.2729 -0.9358
  100SAPE   C3610125   1.140   2.898   6.631 -0.6928 -0.7432  0.1584
  100SAPE   H6X10126   1.226   2.828   6.626 -1.3260 -1.5876  0.7759
  100SAPE   H6Y10127   1.164   2.973   6.710 -0.2151 -1.2299  0.4847
  100SAPE   C3710128   1.136   2.960   6.493  0.1761 -0.2892  0.3987
  100SAPE   H7X10129   1.162   3.066   6.516  2.5503 -0.7073 -0.0758
  100SAPE   H7Y10130   1.036   2.957   6.444 -0.3776  2.3375  1.1938
  100SAPE   C3810131   1.242   2.910   6.398  0.0406 -0.2445 -0.0688
  100SAPE   H8X10132   1.224   2.801   6.392 -2.7643  0.0285  1.4287
  100SAPE   H8Y10133   1.347   2.926   6.431 -0.0476  2.5654 -0.9178
  100SAPE   C3910134   1.222   2.980   6.266  0.8057  0.0625 -0.1612
  100SAPE   H9X10135   1.196   3.086   6.285  1.4804  0.1328  0.4108
  100SAPE   H9Y10136   1.144   2.940   6.197  1.0330 -0.7352  0.0292
  100SAPE  C31010137   1.346   2.983   6.174 -0.1546  0.6393 -0.8578
  100SAPE  H10X10138   1.395   2.884   6.165 -0.1004  0.6861 -1.0882
  100SAPE  H10Y10139   1.425   3.046   6.221 -0.2677  0.6387 -0.6695
  100SAPE  C31110140   1.321   3.050   6.039 -0.0995  0.1871 -0.4173
  100SAPE  H11X10141   1.264   3.143   6.062 -1.1649 -0.5942  0.2101
  100SAPE  H11Y10142   1.253   2.987   5.977  1.7772 -2.8996  0.4836
  100SAPE  C31210143   1.442   3.088   5.956  0.6399 -0.1145 -0.3408
  100SAPE  H12X10144   1.478   2.998   5.902  3.2421  0.5036  0.2023
  100SAPE  H12Y10145   1.526   3.113   6.025 -1.0183 -0.5379  1.9622
  100SAPE  C31310146   1.417   3.198   5.856 -0.5141  0.6580  0.3234
  100SAPE  H13X10147   1.340   3.266   5.898 -1.3768 -1.1122  1.7351
  100SAPE  H13Y10148   1.372   3.158   5.762 -0.2954  2.6352 -0.6893
  100SAPE  C31410149   1.549   3.274   5.829  0.0334  1.3189  0.6369
  100SAPE  H14X10150   1.589   3.321   5.921 -0.4344  0.6604  1.1832
  100SAPE  H14Y10151   1.520   3.360   5.764  1.4631  0.8056 -0.7482
  100SAPE  C31510152   1.674   3.188   5.763  0.4489 -0.2762 -0.0954
  100SAPE  H15X10153   1.695   3.104   5.832 -3.0472 -0.7825  0.5469
  100SAPE  H15Y10154   1.754   3.260   5.738 -3.1281  3.3173 -2.4503
  100SAPE  C31610155   1.629   3.135   5.625  0.5418 -0.6890 -0.1018
  100SAPE  H16X10156   1.569   3.208   5.567 -0.6587 -1.4639  0.1231
  100SAPE  H16Y10157   1.553   3.056   5.641 -1.5050  1.0357 -0.8915
  100SAPE  C31710158   1.740   3.062   5.554  0.7791  0.0429  0.3453
  100SAPE  H17X10159   1.705   3.015   5.460  0.4470  1.1312 -0.0948
  100SAPE  H17Y10160   1.793   2.983   5.611  0.7373 -0.2431 -0.0094
  100SAPE  C31810161   1.839   3.157   5.505  0.0209  0.0428 -0.0002
  100SAPE  H18X10162   1.928   3.111   5.456  1.3679  1.3019  1.1514
  100SAPE  H18Y10163   1.885   3.213   5.589 -0.9927 -0.6784  1.0670
  100SAPE  H18Z10164   1.800   3.237   5.439 -0.2074  1.0954  1.3500
  101SAPE     N10165   6.262   6.017   7.415  0.4694  0.3163  0.5016
  101SAPE   HN110166   6.316   5.990   7.330 -1.4180  1.7755 -1.2742
  101SAPE   HN210167   6.171   5.971   7.437  0.9145 -0.0838  1.5802
  101SAPE   HN310168   6.231   6.114   7.395  0.3746  0.3036  0.5882
  101SAPE   C1210169   6.346   6.013   7.541  0.8145 -0.1613  0.7206
  101SAPE  H12A10170   6.269   6.013   7.622 -0.6232  0.3705 -0.6117
  101SAPE  H12B10171   6.405   6.107   7.543  2.3055 -0.9317 -2.2215
  101SAPE   C1110172   6.439   5.892   7.548  0.1192  0.4980  0.4990
  101SAPE  H11A10173   6.523   5.894   7.621  0.5662 -1.5183  0.0781
  101SAPE  H11B10174   6.491   5.874   7.451  0.6306 -1.9866  1.1762
  101SAPE     P10175   6.415   5.641   7.638 -0.0338 -0.2233  0.0047
  101SAPE   O1310176   6.457   5.684   7.773  0.2405 -0.3710  0.3235
  101SAPE   O1410177   6.309   5.537   7.630 -0.0907  0.4629 -0.0550
  101SAPE   O1210178   6.366   5.771   7.569  0.2478 -0.1711 -0.1711
  101SAPE   O1110179   6.537   5.597   7.560 -0.5925  0.3861  0.1772
  101SAPE    C110180   6.528   5.526   7.438  0.0387 -0.7695  0.2171
  101SAPE    HA10181   6.602   5.444   7.440  2.3734  1.1972 -0.5015
  101SAPE    HB10182   6.429   5.475   7.430 -0.5907  0.5266 -0.6596
  101SAPE    C210183   6.552   5.608   7.306  0.4828  0.5163  0.0616
  101SAPE    HS10184   6.584   5.540   7.224  0.3826 -2.6624  2.4346
  101SAPE   O2110185   6.630   5.720   7.336 -0.0366  0.0444  0.0636
  101SAPE   C2110186   6.766   5.693   7.347 -0.2234 -1.3441 -0.3060
  101SAPE   O2210187   6.811   5.582   7.342 -0.5235 -0.9120 -0.3347
  101SAPE   C2210188   6.832   5.829   7.368 -0.6559 -0.2643 -0.2079
  101SAPE   H2R10189   6.822   5.854   7.476  0.8218 -0.3102 -0.0310
  101SAPE   H2S10190   6.939   5.807   7.345 -1.0615 -1.1585 -1.3312
  101SAPE    C310191   6.412   5.652   7.250  0.2133 -0.3425  0.2928
  101SAPE    HX10192   6.362   5.726   7.316  2.0314  1.3485 -0.1222
  101SAPE    HY10193   6.349   5.561   7.251  1.9711 -1.6147  0.4096
  101SAPE   O3110194   6.420   5.711   7.117 -0.4723  0.1244  0.7212
  101SAPE   C3110195   6.431   5.844   7.111  0.1616  0.1994  0.3744
  101SAPE   O3210196   6.429   5.923   7.200 -0.4952  0.3781  0.0806
  101SAPE   C3210197   6.449   5.878   6.961 -0.3743  0.3853  0.1976
  101SAPE   H2X10198   6.490   5.792   6.905  0.5608  1.6313 -1.1084
  101SAPE   H2Y10199   6.527   5.956   6.945  0.3046 -0.5738 -1.4190
  101SAPE   C2310200   6.784   5.938   7.272  0.0397 -0.6281 -1.5957
  101SAPE   H3R10201   6.845   6.023   7.307  0.2789 -1.3455 -0.2125
  101SAPE   H3S10202   6.683   5.976   7.299  0.0233 -1.1786 -0.8634
  101SAPE   C2410203   6.802   5.919   7.123 -0.1295  0.6855 -0.7522
  101SAPE   H4R10204   6.758   6.013   7.083  0.3579  1.3634  0.2735
  101SAPE   H4S10205   6.725   5.844   7.097 -1.5082  1.6259  0.4715
  101SAPE   C2510206   6.943   5.887   7.069 -0.2362  0.1101 -0.4056
  101SAPE   H5R10207   7.016   5.885   7.151 -2.2264 -2.8533  1.5169
  101SAPE   C2610208   6.980   5.855   6.944 -0.2958  0.2142 -0.4067
  101SAPE   H6R10209   7.084   5.819   6.940  0.0078  1.1020 -0.7945
  101SAPE   C2710210   6.890   5.827   6.830  0.1214 -0.4315 -0.2504
  101SAPE   H7R10211   6.785   5.815   6.865  0.3757  1.4893  1.4118
  101SAPE   H7S10212   6.914   5.736   6.772  1.8004  0.6354 -1.3047
  101SAPE   C2810213   6.905   5.942   6.738 -0.0346 -0.2966  0.6044
  101SAPE   H8R10214   7.000   5.995   6.731 -0.5477  1.2275  3.5601
  101SAPE   C2910215   6.815   5.990   6.654  0.8301  0.3191 -0.0984
  101SAPE   H9R10216   6.843   6.070   6.584  1.3388  0.8139  0.6545
  101SAPE  C21010217   6.673   5.937   6.634  0.1969  0.0513 -0.9355
  101SAPE  H10R10218   6.628   5.947   6.736 -0.9323 -0.6921 -1.3490
  101SAPE  H10S10219   6.667   5.828   6.616  0.5224 -0.4676  1.7007
  101SAPE  C21110220   6.594   6.007   6.524  0.1131 -0.1391  0.1275
  101SAPE  H11R10221   6.512   6.065   6.569 -2.9306 -2.7015 -1.6936
  101SAPE  C21210222   6.623   6.003   6.387 -0.0693 -0.5725 -0.9732
  101SAPE  H12R10223   6.552   6.046   6.315 -0.6413 -0.1151 -0.1589
  101SAPE  C21310224   6.745   5.936   6.327 -0.2637 -0.4203  0.8237
  101SAPE  H13R10225   6.795   5.868   6.399 -0.4027 -0.9037  0.4711
  101SAPE  H13S10226   6.825   6.008   6.301 -0.7841  0.6232  2.0091
  101SAPE  C21410227   6.704   5.860   6.199 -0.5797  0.8984  0.2081
  101SAPE  H14R10228   6.671   5.757   6.217 -1.4224  1.0119 -0.6144
  101SAPE  C21510229   6.687   5.911   6.074  0.1124  0.4247  0.1023
  101SAPE  H15R10230   6.655   5.840   5.996 -2.0034  3.1998 -1.7336
  101SAPE  C21610231   6.716   6.046   6.012  0.0727  0.5493 -0.2311
  101SAPE  H16R10232   6.765   6.117   6.082  0.4452 -1.7557  2.0132
  101SAPE  H16S10233   6.614   6.087   5.992 -1.2074 -1.0872  2.4381
  101SAPE  C21710234   6.797   6.046   5.881  0.2698  0.2271 -0.0949
  101SAPE  H17R10235   6.725   6.008   5.805 -0.2043  0.3218  0.2952
  101SAPE  H17S10236   6.885   5.979   5.891 -0.4393 -0.5751  1.0020
  101SAPE  C21810237   6.843   6.182   5.827  0.1271  0.1630  0.6114
  101SAPE  H18R10238   6.948   6.194   5.863  0.3070  0.4569 -0.0139
  101SAPE  H18S10239   6.776   6.260   5.867 -0.1499  0.0265  0.4122
  101SAPE  C21910240   6.857   6.184   5.675 -0.1259 -0.6559 -0.0066
  101SAPE  H19R10241   6.922   6.270   5.649  1.3342 -1.0220  2.1897
  101SAPE  H19S10242   6.758   6.192   5.623  0.6030  0.2934 -1.3146
  101SAPE  C22010243   6.928   6.065   5.618  0.3847  0.0896  0.0467
  101SAPE  H20R10244   6.865   5.980   5.651  0.9125  0.2486  1.5171
  101SAPE  H20S10245   7.030   6.039   5.655  1.0272  0.1215 -1.5878
  101SAPE  H20T10246   6.920   6.063   5.507 -0.3281  0.5493  0.0827
  101SAPE   C3310247   6.324   5.939   6.897 -0.1557 -0.8210 -1.0956
  101SAPE   H3X10248   6.358   5.988   6.804 -0.5887 -0.6354 -1.1605
  101SAPE   H3Y10249   6.278   6.011   6.969  0.3370 -0.5028 -1.0935
  101SAPE   C3410250   6.223   5.830   6.871  0.5527  0.1934 -0.0272
  101SAPE   H4X10251   6.192   5.789   6.970 -0.9660  0.9504 -0.1675
  101SAPE   H4Y10252   6.261   5.749   6.804 -0.8063  1.3196 -2.2720
  101SAPE   C3510253   6.096   5.890   6.790  0.6101  0.3155 -0.2595
  101SAPE   H5X10254   6.079   5.989   6.836  2.1007  0.5592 -0.1875
  101SAPE   H5Y10255   5.998   5.838   6.792 -0.8739  2.8644 -1.5161
  101SAPE   C3610256   6.128   5.925   6.645  0.2132  0.0521 -0.6028
  101SAPE   H6X10257   6.197   6.011   6.636  2.2902 -1.2221  1.7759
  101SAPE   H6Y10258   6.032   5.963   6.603 -2.4075 -3.7583  1.2445
  101SAPE   C3710259   6.161   5.809   6.565  0.6482 -0.2713  0.2506
  101SAPE   H7X10260   6.086   5.730   6.583  0.9589 -0.4347  0.8413
  101SAPE   H7Y10261   6.260   5.768   6.593  0.4234  0.7121  2.6734
  101SAPE   C3810262   6.151   5.842   6.418 -0.1904 -0.1305 -0.7716
  101SAPE   H8X10263   6.059   5.901   6.399  0.1441  0.3742 -0.8495
  101SAPE   H8Y10264   6.155   5.759   6.345 -0.5840  1.0183 -2.1494
  101SAPE   C3910265   6.263   5.932   6.371 -0.2544  0.3155  0.4899
  101SAPE   H9X10266   6.362   5.891   6.400  0.4762  2.9411  2.1323
  101SAPE   H9Y10267   6.254   6.032   6.419 -0.7243  0.3856  0.2635
  101SAPE  C31010268   6.254   5.936   6.219 -0.1521  0.0748  0.3513
  101SAPE  H10X10269   6.146   5.929   6.194 -0.3134  3.1554 -0.1375
  101SAPE  H10Y10270   6.296   5.844   6.172 -1.4492 -0.0843 -0.5425
  101SAPE  C31110271   6.288   6.063   6.154 -0.4953  0.1331  0.9636
  101SAPE  H11X10272   6.395   6.091   6.168 -0.4847 -0.0936  1.3347
  101SAPE  H11Y10273   6.214   6.140   6.183  1.0714  1.3014  2.0787
  101SAPE  C31210274   6.281   6.050   5.998  0.2443  0.1244 -0.9754
  101SAPE  H12X10275   6.175   6.020   5.979 -0.4349  1.1213  1.0153
  101SAPE  H12Y10276   6.345   5.961   5.982 -0.2887 -0.7544  1.3284
  101SAPE  C31310277   6.331   6.171   5.917 -0.4992  0.3215 -0.0054
  101SAPE  H13X10278   6.436   6.204   5.929 -0.6369  0.3397  1.2599
  101SAPE  H13Y10279   6.249   6.243   5.938 -0.5466  0.4607 -0.6397
  101SAPE  C31410280   6.316   6.148   5.763  0.2250 -0.2741  0.4317
  101SAPE  H14X10281   6.206   6.138   5.748  0.0418  0.6063  1.1332
  101SAPE  H14Y10282   6.370   6.055   5.733  0.5281 -0.1493  0.5941
  101SAPE  C31510283   6.369   6.263   5.681 -0.4147 -0.1464  1.4064
  101SAPE  H15X10284   6.480   6.265   5.687 -0.4169  0.7096  1.3449
  101SAPE  H15Y10285   6.327   6.358   5.719 -0.7313  0.6934 -0.8822
  101SAPE  C31610286   6.337   6.254   5.532 -0.1927 -0.1319 -0.5885
  101SAPE  H16X10287   6.242   6.307   5.509  0.9834  2.2445 -0.2673
  101SAPE  H16Y10288   6.328   6.146   5.507 -1.9701  0.0203 -0.7245
  101SAPE  C31710289   6.435   6.313   5.433 -0.6893 -0.3163  0.4894
  101SAPE  H17X10290   6.398   6.297   5.329 -1.3301 -1.2391  0.8422
  101SAPE  H17Y10291   6.527   6.250   5.431 -1.3122 -1.2244 -0.3676
  101SAPE  C31810292   6.472   6.458   5.433 -0.1922 -0.4549  0.2845
  101SAPE  H18X10293   6.542   6.489   5.514  0.6928  0.4224 -0.7791
  101SAPE  H18Y10294   6.383   6.523   5.442  2.2154  3.6307 -2.0474
  101SAPE  H18Z10295   6.525   6.484   5.339 -1.2825  3.1066  0.5200
  102SAPE     N10296   0.509   4.065   7.714  0.4299 -0.4692  0.0451
  102SAPE   HN110297   0.553   4.099   7.802 -0.6114 -0.0550  0.4194
  102SAPE   HN210298   0.410   4.050   7.741 -0.4294  3.0368 -0.5637
  102SAPE   HN310299   0.567   3.983   7.687 -0.4735 -1.0266 -0.2425
  102SAPE   C1210300   0.508   4.176   7.612 -0.2999 -0.1154  0.5856
  102SAPE  H12A10301   0.584   4.156   7.534 -0.6076 -0.8755  0.4697
  102SAPE  H12B10302   0.533   4.273   7.660  0.5472 -0.0764  0.0838
  102SAPE   C1110303   0.365   4.189   7.552  0.3654 -0.2710 -0.0843
  102SAPE  H11A10304   0.339   4.105   7.485 -1.5775  0.9169 -0.8953
  102SAPE  H11B10305   0.371   4.272   7.479  0.5641  0.3490  0.6279
  102SAPE     P10306   0.118   4.215   7.633 -0.2868 -0.1745 -0.6405
  102SAPE   O1310307   0.058   4.098   7.703  0.2938 -0.2312 -0.9693
  102SAPE   O1410308   0.075   4.347   7.679 -0.0058 -0.3511  0.1794
  102SAPE   O1210309   0.270   4.216   7.655 -0.2849 -0.4213  0.1087
  102SAPE   O1110310   0.084   4.200   7.477 -0.2974 -1.0052  0.4672
  102SAPE    C110311   0.091   4.316   7.394 -0.6520  0.2551  0.0869
  102SAPE    HA10312  -0.001   4.378   7.396 -0.9164  0.0267 -2.2595
  102SAPE    HB10313   0.182   4.377   7.413 -0.7170  0.3110  0.2260
  102SAPE    C210314   0.082   4.283   7.243  0.5277 -0.0115 -0.4272
  102SAPE    HS10315   0.164   4.211   7.220  0.1629 -0.8059  0.6622
  102SAPE   O2110316   0.096   4.399   7.160 -0.1833  0.2821 -0.3606
  102SAPE   C2110317   0.209   4.469   7.168  0.3367  0.0928  0.0505
  102SAPE   O2210318   0.309   4.435   7.225 -0.7096 -0.3749  0.0282
  102SAPE   C2210319   0.208   4.592   7.081  0.4360  0.5652 -0.4258
  102SAPE   H2R10320   0.115   4.589   7.021  1.1876  0.2686 -1.6359
  102SAPE   H2S10321   0.212   4.680   7.148  1.1510  1.6857 -1.8704
  102SAPE    C310322  -0.055   4.216   7.210  0.8114 -0.0678  0.5049
  102SAPE    HX10323  -0.133   4.286   7.247 -2.5195 -3.3608  0.2551
  102SAPE    HY10324  -0.062   4.121   7.267 -2.3367 -1.5265 -1.9833
  102SAPE   O3110325  -0.071   4.204   7.067 -0.2454  0.3952 -0.2249
  102SAPE   C3110326  -0.167   4.116   7.039 -0.1799 -0.1537 -1.1372
  102SAPE   O3210327  -0.243   4.070   7.115 -0.8376 -0.2800 -0.6584
  102SAPE   C3210328  -0.149   4.077   6.892  0.0855  0.3396  0.7297
  102SAPE   H2X10329  -0.195   4.160   6.833  0.3578 -0.1398 -0.1794
  102SAPE   H2Y10330  -0.216   3.991   6.871 -0.6403  1.1789 -0.5447
  102SAPE   C2310331   0.322   4.596   6.981  0.6530  0.1810 -0.0644
  102SAPE   H3R10332   0.419   4.605   7.036 -0.4675 -1.2089  2.2956
  102SAPE   H3S10333   0.319   4.685   6.914 -1.0267  0.2218  0.0349
  102SAPE   C2410334   0.338   4.479   6.885 -0.8037 -0.1661  0.3621
  102SAPE   H4R10335   0.348   4.387   6.947  2.5891  1.3937  2.3992
  102SAPE   H4S10336   0.425   4.501   6.819 -2.2501  0.6209 -1.3652
  102SAPE   C2510337   0.216   4.459   6.807  0.0766 -0.1926  0.6917
  102SAPE   H5R10338   0.133   4.404   6.854 -0.7759 -0.2440 -0.8073
  102SAPE   C2610339   0.184   4.521   6.693  0.5654 -0.4150  0.7696
  102SAPE   H6R10340   0.088   4.484   6.653  0.1240  1.8030 -0.3763
  102SAPE   C2710341   0.264   4.620   6.608  0.1272 -0.3155  0.3086
  102SAPE   H7R10342   0.352   4.646   6.671  1.5226 -1.3994 -1.0984
  102SAPE   H7S10343   0.200   4.709   6.593  0.4827  0.0189  0.7656
  102SAPE   C2810344   0.316   4.557   6.486  0.3806  0.7213 -0.4194
  102SAPE   H8R10345   0.360   4.458   6.505 -1.2666  0.0914  0.2404
  102SAPE   C2910346   0.320   4.600   6.361 -0.0548 -0.5622  0.7577
  102SAPE   H9R10347   0.355   4.537   6.278 -0.2034  1.2387 -0.7258
  102SAPE  C21010348   0.282   4.742   6.320 -0.1587  0.7284  0.3819
  102SAPE  H10R10349   0.325   4.761   6.219 -0.7299  0.2183  0.0402
  102SAPE  H10S10350   0.322   4.816   6.393 -0.6208 -0.7606  2.2225
  102SAPE  C21110351   0.131   4.734   6.310 -0.5248  0.1674 -0.8430
  102SAPE  H11R10352   0.076   4.718   6.404  1.5339 -1.2034  0.1849
  102SAPE  C21210353   0.056   4.725   6.200 -0.0667  0.3462  0.3565
  102SAPE  H12R10354  -0.052   4.715   6.214  0.1489 -2.0667  0.8311
  102SAPE  C21310355   0.110   4.738   6.061  0.0960  0.6161  0.0848
  102SAPE  H13R10356   0.133   4.636   6.023 -1.2382 -0.2135  1.4127
  102SAPE  H13S10357   0.213   4.781   6.056  0.5395 -0.3902  0.2135
  102SAPE  C21410358   0.022   4.813   5.961 -0.0000  1.4071 -0.4216
  102SAPE  H14R10359  -0.083   4.826   5.992 -0.4592  0.7785 -1.6647
  102SAPE  C21510360   0.052   4.833   5.836  0.0315  0.0717  0.0494
  102SAPE  H15R10361  -0.023   4.877   5.768  0.1798  0.7037  0.2902
  102SAPE  C21610362   0.187   4.804   5.775 -0.4289  0.1675 -0.0163
  102SAPE  H16R10363   0.264   4.823   5.853 -0.1339 -0.1875 -0.2199
  102SAPE  H16S10364   0.217   4.878   5.698  0.3413 -0.7547 -0.6197
  102SAPE  C21710365   0.193   4.662   5.705 -0.5826 -0.1493  0.6709
  102SAPE  H17R10366   0.198   4.585   5.785 -1.0676 -2.0331 -1.0485
  102SAPE  H17S10367   0.292   4.659   5.653 -0.0667  1.3171  1.5038
  102SAPE  C21810368   0.075   4.626   5.610 -0.2287 -0.6874  0.3099
  102SAPE  H18R10369  -0.020   4.654   5.661 -0.8651 -0.1991 -1.0750
  102SAPE  H18S10370   0.075   4.517   5.588  1.1143 -0.5563 -0.4295
  102SAPE  C21910371   0.090   4.708   5.478 -0.5289 -0.2983 -0.8369
  102SAPE  H19R10372   0.186   4.709   5.421 -0.2151  1.3853 -0.3245
  102SAPE  H19S10373   0.067   4.813   5.504  0.5595 -0.5979  1.5771
  102SAPE  C22010374  -0.027   4.679   5.382  1.0662  0.1189 -0.6285
  102SAPE  H20R10375  -0.024   4.754   5.301 -0.5532  0.0916 -0.7451
  102SAPE  H20S10376  -0.126   4.684   5.431  1.6096  1.1532  0.4415
  102SAPE  H20T10377  -0.014   4.581   5.332 -3.3259 -0.9655 -0.0497
  102SAPE   C3310378  -0.006   4.037   6.838  0.3729  0.5920  0.0515
  102SAPE   H3X10379   0.021   3.942   6.890  0.1428  0.4968 -0.0008
  102SAPE   H3Y10380   0.062   4.118   6.871 -0.4874  1.3952 -0.1022
  102SAPE   C3410381   0.006   4.009   6.683 -0.1936  0.1885 -0.9668
  102SAPE   H4X10382  -0.079   3.937   6.676 -1.6114  1.3581  2.2211
  102SAPE   H4Y10383   0.097   3.953   6.650  1.7569  3.4382 -1.4910
  102SAPE   C3510384   0.000   4.140   6.613 -0.3301  0.7872 -0.2714
  102SAPE   H5X10385   0.080   4.210   6.646  1.2112  0.1882 -2.4591
  102SAPE   H5Y10386  -0.102   4.176   6.639 -0.6513 -0.9682  1.0466
  102SAPE   C3610387   0.013   4.126   6.466  0.5290 -0.2364 -0.1164
  102SAPE   H6X10388  -0.085   4.089   6.430  0.4206 -1.2583  1.1596
  102SAPE   H6Y10389   0.086   4.047   6.438  0.6283 -0.2175  0.0866
  102SAPE   C3710390   0.055   4.250   6.385 -0.5494 -0.0004  0.2909
  102SAPE   H7X10391   0.156   4.290   6.409 -0.2869  0.3567 -1.3061
  102SAPE   H7Y10392  -0.012   4.338   6.396  0.1970  0.8639 -1.6093
  102SAPE   C3810393   0.041   4.230   6.233 -0.3992 -0.4972  0.3897
  102SAPE   H8X10394  -0.061   4.203   6.201 -0.4754  0.4513 -0.2034
  102SAPE   H8Y10395   0.105   4.143   6.208  1.1037  0.2805  1.3329
  102SAPE   C3910396   0.076   4.340   6.138 -0.3557 -0.6282  0.1187
  102SAPE   H9X10397   0.186   4.355   6.154 -0.8494  1.0137  2.6685
  102SAPE   H9Y10398   0.029   4.437   6.166 -0.5178 -1.2682  2.2375
  102SAPE  C31010399   0.034   4.301   5.993 -0.0237  0.3210  0.5631
  102SAPE  H10X10400   0.057   4.391   5.932 -1.0173  0.4345  0.3379
  102SAPE  H10Y10401  -0.076   4.288   6.003  0.2100 -1.1057  1.7527
  102SAPE  C31110402   0.110   4.182   5.935 -0.5141 -0.0791 -0.3095
  102SAPE  H11X10403   0.092   4.087   5.989  1.9496  0.7193  2.1689
  102SAPE  H11Y10404   0.217   4.207   5.950 -0.5429  0.3256 -0.7204
  102SAPE  C31210405   0.100   4.155   5.783 -0.0797  0.1588  0.4824
  102SAPE  H12X10406  -0.005   4.129   5.758  1.0376 -2.3696 -2.1103
  102SAPE  H12Y10407   0.156   4.060   5.767 -1.6743 -1.0626  1.6714
  102SAPE  C31310408   0.147   4.267   5.690 -0.1650 -0.1360 -0.5417
  102SAPE  H13X10409   0.240   4.321   5.718 -0.4053 -0.4620  0.9588
  102SAPE  H13Y10410   0.064   4.341   5.688  1.1643  1.4066 -1.4558
  102SAPE  C31410411   0.167   4.220   5.545 -0.5337  0.3083  0.8646
  102SAPE  H14X10412   0.069   4.179   5.512  0.4139 -0.6595 -0.9440
  102SAPE  H14Y10413   0.236   4.133   5.533  0.7663  1.4075  0.0476
  102SAPE  C31510414   0.226   4.321   5.448  0.9297  0.3168 -0.3268
  102SAPE  H15X10415   0.325   4.351   5.489  1.2991 -0.9747 -0.2404
  102SAPE  H15Y10416   0.167   4.416   5.446  1.3489  0.6531  1.4938
  102SAPE  C31610417   0.245   4.271   5.308  0.3444  0.1506  0.5010
  102SAPE  H16X10418   0.158   4.210   5.272 -0.1302  2.0484 -1.8269
  102SAPE  H16Y10419   0.309   4.180   5.301 -2.1259 -1.6472 -0.1811
  102SAPE  C31710420   0.298   4.381   5.216  0.6011 -0.2563 -0.7861
  102SAPE  H17X10421   0.400   4.413   5.245 -0.6309  2.3163  1.1019
  102SAPE  H17Y10422   0.231   4.466   5.239 -2.6589 -2.6492 -0.8025
  102SAPE  C31810423   0.287   4.341   5.064 -0.8010  0.5627  0.6881
  102SAPE  H18X10424   0.338   4.244   5.052 -0.6330  0.9046 -1.9977
  102SAPE  H18Y10425   0.333   4.418   5.000 -1.9500 -0.1853 -1.1119
  102SAPE  H18Z10426   0.178   4.326   5.043 -1.2068  0.7989  2.4524
  103SAPE     N10427   1.426   1.761   3.140  0.0323  0.2261 -0.4462
  103SAPE   HN110428   1.351   1.783   3.209  0.7357 -0.0287  0.4187
  103SAPE   HN210429   1.422   1.829   3.063 -0.2156  0.5706 -0.1341
  103SAPE   HN310430   1.411   1.665   3.102 -1.1092 -0.0165  0.5310
  103SAPE   C1210431   1.565   1.771   3.209 -0.0156  0.0276 -0.1872
  103SAPE  H12A10432   1.631   1.738   3.126  0.6667 -0.6080  0.5882
  103SAPE  H12B10433   1.579   1.697   3.291 -0.1249  0.7426  0.4869
  103SAPE   C1110434   1.599   1.916   3.259 -0.1643 -0.3842  0.3543
  103SAPE  H11A10435   1.692   1.912   3.320 -0.3259 -0.7202  0.5852
  103SAPE  H11B10436   1.519   1.954   3.327 -0.3826 -1.8590  0.9512
  103SAPE     P10437   1.751   2.039   3.079 -0.2579 -0.3234 -0.2998
  103SAPE   O1310438   1.744   1.989   2.939  0.4363 -0.0666  0.0150
  103SAPE   O1410439   1.771   2.188   3.092  0.3751  0.2497 -0.4433
  103SAPE   O1210440   1.613   2.005   3.143  0.4891  0.1066 -0.3207
  103SAPE   O1110441   1.857   1.959   3.171 -0.2269  0.3624  0.3978
  103SAPE    C110442   1.998   1.950   3.146  0.4903 -0.7118  0.1825
  103SAPE    HA10443   2.030   1.844   3.149  4.2354  0.2856  0.3967
  103SAPE    HB10444   2.035   1.983   3.046  1.9793  0.3590  1.0395
  103SAPE    C210445   2.081   2.034   3.250 -0.0857  0.7781 -0.7463
  103SAPE    HS10446   2.180   1.982   3.251  0.3495  1.4314 -3.1837
  103SAPE   O2110447   2.018   2.033   3.383 -0.0491 -0.4492  0.1055
  103SAPE   C2110448   1.993   1.923   3.435  0.0241  0.1844 -0.0422
  103SAPE   O2210449   2.035   1.812   3.397  0.2193  0.9410  0.3088
  103SAPE   C2210450   1.896   1.936   3.554  0.5662 -0.7425  0.6981
  103SAPE   H2R10451   1.961   1.957   3.642  2.0406 -0.7942 -0.3397
  103SAPE   H2S10452   1.829   2.023   3.539  1.2279 -0.6521 -2.4735
  103SAPE    C310453   2.098   2.180   3.204  0.2023  0.3601  0.3743
  103SAPE    HX10454   1.993   2.218   3.195 -0.1352 -0.8562 -1.2454
  103SAPE    HY10455   2.143   2.188   3.102 -0.2737 -0.1424  0.1173
  103SAPE   O3110456   2.186   2.254   3.286 -0.7423  0.2930  0.1120
  103SAPE   C3110457   2.142   2.321   3.399 -0.8175  0.2036  0.3086
  103SAPE   O3210458   2.033   2.366   3.401  0.5462  0.1285 -0.2805
  103SAPE   C3210459   2.250   2.329   3.500  0.5328 -0.7833 -0.3639
  103SAPE   H2X10460   2.294   2.428   3.476  0.5309 -0.9416 -1.0208
  103SAPE   H2Y10461   2.327   2.249   3.491  0.1461 -1.3990  1.3274
  103SAPE   C2310462   1.812   1.812   3.577 -0.1524  0.5506  0.7474
  103SAPE   H3R10463   1.873   1.723   3.548  0.8785  1.2582  0.6809
  103SAPE   H3S10464   1.730   1.809   3.502  1.9045 -2.1047 -1.6449
  103SAPE   C2410465   1.779   1.786   3.727  0.4972  0.1277  0.3594
  103SAPE   H4R10466   1.876   1.755   3.771 -0.1724 -4.3199 -0.7568
  103SAPE   H4S10467   1.712   1.698   3.737  0.7280 -0.4970 -2.5890
  103SAPE   C2510468   1.730   1.912   3.789  0.3608 -0.4269 -0.5639
  103SAPE   H5R10469   1.641   1.961   3.748 -0.5332 -2.2785 -0.9537
  103SAPE   C2610470   1.771   1.965   3.907 -0.1924 -1.0264  0.2006
  103SAPE   H6R10471   1.703   2.039   3.951 -2.4888 -2.2008 -1.1542
  103SAPE   C2710472   1.885   1.917   3.984  0.9603  0.3752  0.6077
  103SAPE   H7R10473   1.938   2.002   4.033  1.2333 -0.4511  1.7961
  103SAPE   H7S10474   1.960   1.863   3.922 -0.5003 -2.2267  0.9728
  103SAPE   C2810475   1.845   1.815   4.088 -0.0813  0.6064  0.0266
  103SAPE   H8R10476   1.836   1.713   4.050  2.6617 -0.0202  0.8347
  103SAPE   C2910477   1.837   1.833   4.223  0.0944 -0.5070 -0.0135
  103SAPE   H9R10478   1.806   1.755   4.295  1.6924  0.4953  1.8620
  103SAPE  C21010479   1.862   1.963   4.291 -0.3991 -0.1805  0.1283
  103SAPE  H10R10480   1.813   2.047   4.238 -2.8392 -1.1338  0.7235
  103SAPE  H10S10481   1.972   1.977   4.284 -0.6042  1.6029 -0.0154
  103SAPE  C21110482   1.813   1.946   4.433 -0.5545  0.1715 -0.8241
  103SAPE  H11R10483   1.704   1.938   4.444 -0.6206  2.4407  0.7773
  103SAPE  C21210484   1.884   1.977   4.542  0.0927  0.8592 -0.0883
  103SAPE  H12R10485   1.839   1.939   4.634 -2.7425  3.7007 -0.1200
  103SAPE  C21310486   2.023   2.029   4.544  0.4410 -0.0720  0.0642
  103SAPE  H13R10487   2.025   2.131   4.500  1.2766 -0.3031 -0.4451
  103SAPE  H13S10488   2.079   1.969   4.469  0.8598 -1.6490  1.5861
  103SAPE  C21410489   2.103   2.033   4.672 -0.2440 -0.4337 -0.3917
  103SAPE  H14R10490   2.114   2.135   4.710  0.7620 -0.9871  0.8951
  103SAPE  C21510491   2.152   1.921   4.731 -0.3141  0.6657 -0.0221
  103SAPE  H15R10492   2.209   1.928   4.825  0.3084 -0.0849 -0.3339
  103SAPE  C21610493   2.135   1.775   4.679 -0.1527 -0.1962 -0.0546
  103SAPE  H16R10494   2.060   1.771   4.597 -0.8891 -1.0189  0.6420
  103SAPE  H16S10495   2.092   1.711   4.759 -0.0813 -0.4386 -0.2079
  103SAPE  C21710496   2.272   1.720   4.624  0.8145 -0.7676 -0.7398
  103SAPE  H17R10497   2.307   1.775   4.534  2.2058  0.7088  0.6433
  103SAPE  H17S10498   2.257   1.613   4.597  0.9008 -0.7493 -0.8585
  103SAPE  C21810499   2.383   1.719   4.724 -0.0538  0.6303 -0.2139
  103SAPE  H18R10500   2.341   1.676   4.817  0.1783  1.8286  0.4632
  103SAPE  H18S10501   2.405   1.826   4.747 -0.0719  1.3379 -3.1022
  103SAPE  C21910502   2.514   1.647   4.676  0.1744  0.0088 -0.2007
  103SAPE  H19R10503   2.595   1.675   4.746 -0.2502 -0.6702  0.5740
  103SAPE  H19S10504   2.541   1.683   4.574 -1.0519  2.7232  0.3473
  103SAPE  C22010505   2.505   1.492   4.676 -0.2229 -0.4487  0.1419
  103SAPE  H20R10506   2.494   1.451   4.779 -3.4093 -0.4807 -0.1272
  103SAPE  H20S10507   2.589   1.451   4.616  2.1556  1.6297  1.8508
  103SAPE  H20T10508   2.409   1.464   4.628 -2.1072  1.1650  2.7522
  103SAPE   C3310509   2.187   2.329   3.642  0.8424 -0.8944  0.5329
  103SAPE   H3X10510   2.100   2.398   3.655  0.2151 -1.0671 -2.1939
  103SAPE   H3Y10511   2.267   2.360   3.712  1.0423 -1.8667  0.7499
  103SAPE   C3410512   2.130   2.192   3.679 -0.7174 -0.4055  0.1114
  103SAPE   H4X10513   2.178   2.107   3.625  0.8257  1.6821 -2.0704
  103SAPE   H4Y10514   2.023   2.182   3.652  0.0025 -0.5217 -3.2049
  103SAPE   C3510515   2.146   2.167   3.832  0.1348  0.5189 -0.7944
  103SAPE   H5X10516   2.253   2.167   3.862  0.2522  1.2023 -1.1998
  103SAPE   H5Y10517   2.116   2.062   3.853  1.6296  0.2370  0.1147
  103SAPE   C3610518   2.074   2.265   3.932 -0.4851 -0.4643  0.5150
  103SAPE   H6X10519   1.965   2.247   3.928 -0.8345  1.6200 -0.3254
  103SAPE   H6Y10520   2.087   2.366   3.888 -1.5606 -1.1813 -1.5971
  103SAPE   C3710521   2.129   2.256   4.071  0.5343  0.0200  0.0343
  103SAPE   H7X10522   2.219   2.320   4.065 -0.6531  1.9733  1.8619
  103SAPE   H7Y10523   2.157   2.150   4.091  1.4882  0.1232 -0.7025
  103SAPE   C3810524   2.035   2.286   4.183  0.3949 -0.0313 -0.2240
  103SAPE   H8X10525   1.975   2.197   4.212  0.2653  0.3524  0.7284
  103SAPE   H8Y10526   1.974   2.367   4.138 -1.2840 -0.8073  0.5707
  103SAPE   C3910527   2.119   2.326   4.304  0.2452 -0.0506 -0.3822
  103SAPE   H9X10528   2.059   2.360   4.391  2.4272 -2.6590  2.3875
  103SAPE   H9Y10529   2.176   2.417   4.274  0.6542 -1.0426 -2.8608
  103SAPE  C31010530   2.229   2.232   4.344 -0.0130  0.3299  0.5104
  103SAPE  H10X10531   2.306   2.240   4.264 -1.7815 -1.2908 -1.4803
  103SAPE  H10Y10532   2.198   2.126   4.335  0.1799  0.3091  0.0439
  103SAPE  C31110533   2.285   2.270   4.475 -0.8531  0.3483 -0.2310
  103SAPE  H11X10534   2.198   2.282   4.543 -0.9592 -0.1309 -0.2778
  103SAPE  H11Y10535   2.321   2.374   4.467  0.0270 -0.0571 -1.9872
  103SAPE  C31210536   2.381   2.169   4.513  0.6351  0.4696  0.9771
  103SAPE  H12X10537   2.466   2.169   4.442 -1.2427 -3.4596 -1.6576
  103SAPE  H12Y10538   2.340   2.066   4.499  1.7404  0.2077 -0.6234
  103SAPE  C31310539   2.424   2.200   4.653  0.2538  1.0754 -0.0998
  103SAPE  H13X10540   2.340   2.204   4.725  0.4015  0.0712  0.1422
  103SAPE  H13Y10541   2.469   2.301   4.641  0.8457  0.6033 -2.2771
  103SAPE  C31410542   2.534   2.109   4.705  0.3735 -0.7459 -0.3262
  103SAPE  H14X10543   2.618   2.114   4.633  0.5472  0.1033 -0.0807
  103SAPE  H14Y10544   2.505   2.002   4.712  1.1598 -0.8847  1.4836
  103SAPE  C31510545   2.587   2.139   4.845  0.1108 -0.0350 -0.2502
  103SAPE  H15X10546   2.630   2.241   4.855  0.7733  0.0108 -2.7376
  103SAPE  H15Y10547   2.672   2.069   4.862 -0.1853 -0.4458 -0.4544
  103SAPE  C31610548   2.492   2.114   4.958  0.8578 -0.0314  0.1482
  103SAPE  H16X10549   2.451   2.011   4.949 -0.0200  0.2139  1.1532
  103SAPE  H16Y10550   2.407   2.182   4.938 -0.6607 -1.8610  0.1102
  103SAPE  C31710551   2.530   2.135   5.105 -0.4776  0.8204 -0.1181
  103SAPE  H17X10552   2.441   2.106   5.165 -0.8996  1.1202 -0.5981
  103SAPE  H17Y10553   2.550   2.244   5.117 -0.2324  0.8475 -0.7667
  103SAPE  C31810554   2.651   2.058   5.158 -0.2558 -0.4258  0.3865
  103SAPE  H18X10555   2.655   1.958   5.110  1.6619  0.6721 -2.0056
  103SAPE  H18Y10556   2.659   2.049   5.268  1.4709 -0.9428  0.2496
  103SAPE  H18Z10557   2.736   2.114   5.113 -1.3395  0.5764 -0.4563
  104SAPE     N10558   1.093   0.890   2.362 -0.7200  0.5784  0.5209
  104SAPE   HN110559   1.070   0.944   2.276  1.7631  2.8925  1.1952
  104SAPE   HN210560   1.161   0.946   2.416  0.8494  0.3927 -1.1743
  104SAPE   HN310561   1.140   0.800   2.340 -0.5318  1.3294 -2.7649
  104SAPE   C1210562   0.971   0.874   2.444  0.0482 -0.3490 -0.4014
  104SAPE  H12A10563   0.896   0.811   2.390 -2.3477  0.6849  1.5028
  104SAPE  H12B10564   0.921   0.972   2.460 -0.6655 -0.9581  1.2908
  104SAPE   C1110565   0.990   0.790   2.573  0.7756 -0.0152  0.3449
  104SAPE  H11A10566   0.891   0.776   2.622 -0.9538  2.0693 -2.2546
  104SAPE  H11B10567   1.041   0.858   2.644 -1.5762  1.9264  0.3105
  104SAPE     P10568   1.189   0.622   2.636 -0.2557  0.1739 -0.2591
  104SAPE   O1310569   1.214   0.476   2.618  0.0425  0.2362  0.1946
  104SAPE   O1410570   1.295   0.716   2.592 -0.3327 -0.4866 -0.3975
  104SAPE   O1210571   1.063   0.665   2.548  0.9190  0.0474 -0.5622
  104SAPE   O1110572   1.150   0.654   2.789 -0.9824  0.6674  0.5566
  104SAPE    C110573   1.036   0.590   2.841 -0.6738 -0.7131 -0.3103
  104SAPE    HA10574   0.957   0.668   2.843  0.2001  0.2061 -0.4958
  104SAPE    HB10575   1.006   0.503   2.779 -0.2742 -0.7356 -0.4756
  104SAPE    C210576   1.044   0.515   2.982 -0.2267 -0.7652 -0.1620
  104SAPE    HS10577   0.943   0.486   3.016 -1.2030  1.4481 -1.0167
  104SAPE   O2110578   1.098   0.612   3.082  0.1521  0.1906 -0.2444
  104SAPE   C2110579   1.019   0.706   3.121  0.1808  0.1718  0.2069
  104SAPE   O2210580   0.904   0.728   3.090 -0.5541  0.6968 -0.4111
  104SAPE   C2210581   1.100   0.801   3.217  0.2257  0.1575  0.0276
  104SAPE   H2R10582   1.179   0.850   3.156  0.3207 -0.7920 -0.6352
  104SAPE   H2S10583   1.028   0.877   3.254  1.4447  0.7303  1.3407
  104SAPE    C310584   1.127   0.385   2.989  0.5729  0.2190 -0.0113
  104SAPE    HX10585   1.229   0.421   2.961  1.0370 -1.4872 -0.6376
  104SAPE    HY10586   1.079   0.314   2.918 -0.3031 -0.0605  0.8477
  104SAPE   O3110587   1.121   0.329   3.121  0.1131  0.4444  0.4866
  104SAPE   C3110588   1.237   0.277   3.152 -0.5911  0.9950 -0.3838
  104SAPE   O3210589   1.332   0.257   3.079 -0.2482  0.2615 -0.4140
  104SAPE   C3210590   1.234   0.244   3.297  0.1173  0.2358 -0.7025
  104SAPE   H2X10591   1.132   0.249   3.341  1.0212  0.5783  1.4616
  104SAPE   H2Y10592   1.296   0.324   3.341  0.2933 -0.8430  1.0964
  104SAPE   C2310593   1.162   0.728   3.345 -0.3448  0.3353 -0.3754
  104SAPE   H3R10594   1.198   0.632   3.302 -0.8762  0.6903 -1.6863
  104SAPE   H3S10595   1.093   0.709   3.429 -0.2127  1.4552 -0.0057
  104SAPE   C2410596   1.279   0.807   3.404  0.2031  0.1374 -0.7810
  104SAPE   H4R10597   1.234   0.899   3.447 -0.3472 -0.8654  0.8781
  104SAPE   H4S10598   1.329   0.837   3.310 -1.4837  0.4283 -1.6333
  104SAPE   C2510599   1.382   0.740   3.490  0.6200  0.4003  0.5161
  104SAPE   H5R10600   1.416   0.644   3.448  0.0719 -0.0108  0.9952
  104SAPE   C2610601   1.414   0.778   3.618 -0.2774 -0.0712 -0.2612
  104SAPE   H6R10602   1.489   0.714   3.667 -1.0318  0.4123  1.6105
  104SAPE   C2710603   1.376   0.896   3.700  0.3744 -0.6824 -0.0618
  104SAPE   H7R10604   1.370   0.872   3.808 -1.5166  1.4937  0.4028
  104SAPE   H7S10605   1.272   0.914   3.665  0.1839  0.6551  1.0960
  104SAPE   C2810606   1.465   1.017   3.686 -0.5347 -0.6317  0.6497
  104SAPE   H8R10607   1.449   1.059   3.585  2.1127 -1.5695 -0.2459
  104SAPE   C2910608   1.573   1.055   3.758  0.0999  0.0280  0.2004
  104SAPE   H9R10609   1.626   1.148   3.734  1.1188 -0.7344 -0.6099
  104SAPE  C21010610   1.619   0.987   3.887  0.1142  0.1028  0.0053
  104SAPE  H10R10611   1.541   0.914   3.916  1.8893 -1.4255  1.1722
  104SAPE  H10S10612   1.613   1.068   3.964 -1.7687  1.3869 -1.3897
  104SAPE  C21110613   1.761   0.936   3.878  0.1885 -0.5006  0.0838
  104SAPE  H11R10614   1.789   0.890   3.782 -0.1038  2.0059 -1.3015
  104SAPE  C21210615   1.853   0.931   3.975  0.1194  0.2755  0.0967
  104SAPE  H12R10616   1.941   0.870   3.954 -0.2447 -0.8282  1.6038
  104SAPE  C21310617   1.836   0.972   4.122  0.1437  0.1282 -0.6792
  104SAPE  H13R10618   1.767   1.057   4.135 -0.6694 -0.9031  2.6226
  104SAPE  H13S10619   1.933   1.011   4.161 -0.7563  0.7630  0.9724
  104SAPE  C21410620   1.789   0.865   4.221 -0.2759 -0.3301  0.1330
  104SAPE  H14R10621   1.740   0.786   4.162  1.4059 -0.3467 -1.3596
  104SAPE  C21510622   1.807   0.847   4.352  0.4142  0.2783 -0.3022
  104SAPE  H15R10623   1.752   0.763   4.396  1.2828  0.0189  0.3066
  104SAPE  C21610624   1.876   0.935   4.451 -0.1549 -0.3335 -0.0533
  104SAPE  H16R10625   1.914   1.030   4.409 -1.4563  0.4927  0.5783
  104SAPE  H16S10626   1.968   0.883   4.485 -0.9618  0.6759  4.3243
  104SAPE  C21710627   1.795   0.955   4.584  0.3763 -0.0073  0.0816
  104SAPE  H17R10628   1.759   0.859   4.627 -1.6697  0.4725 -0.4192
  104SAPE  H17S10629   1.701   1.009   4.562 -1.6717 -3.1970  0.3173
  104SAPE  C21810630   1.878   1.033   4.692  0.5923 -0.0818 -0.4297
  104SAPE  H18R10631   1.917   1.130   4.654  1.2167  0.2306  0.9352
  104SAPE  H18S10632   1.972   0.973   4.688  1.1344  0.7999 -2.6720
  104SAPE  C21910633   1.800   1.049   4.821  0.1780 -0.9563 -0.7911
  104SAPE  H19R10634   1.779   0.945   4.856  2.1451 -1.1523 -0.0581
  104SAPE  H19S10635   1.702   1.093   4.793  0.1299  0.5540  1.4892
  104SAPE  C22010636   1.863   1.134   4.935  0.7734  0.1371  0.0173
  104SAPE  H20R10637   1.806   1.110   5.027  2.1372  0.9101  1.1189
  104SAPE  H20S10638   1.840   1.242   4.920  0.3738  0.0354 -0.1110
  104SAPE  H20T10639   1.972   1.119   4.954  0.4690 -1.9877  0.2661
  104SAPE   C3310640   1.305   0.113   3.328 -0.4853  0.0430 -0.1073
  104SAPE   H3X10641   1.348   0.071   3.235  1.0517  0.9678  0.1368
  104SAPE   H3Y10642   1.245   0.029   3.368  0.0781 -0.0436  0.5732
  104SAPE   C3410643   1.414   0.134   3.443  0.1499 -0.6065 -0.7825
  104SAPE   H4X10644   1.503   0.191   3.408  1.6779 -0.5849  2.7449
  104SAPE   H4Y10645   1.450   0.033   3.472 -0.2494 -0.4565  0.2784
  104SAPE   C3510646   1.368   0.195   3.572  0.2189  0.7456  0.4199
  104SAPE   H5X10647   1.269   0.157   3.606  0.6082  0.6309  1.4370
  104SAPE   H5Y10648   1.345   0.301   3.546  1.0639  0.4475 -1.7474
  104SAPE   C3610649   1.479   0.183   3.677  1.0249  0.1627  0.1127
  104SAPE   H6X10650   1.573   0.226   3.637  1.2797  0.8051  1.3564
  104SAPE   H6Y10651   1.503   0.079   3.706 -0.3493  0.2679  1.7615
  104SAPE   C3710652   1.435   0.262   3.800 -0.4565  0.5010  0.0070
  104SAPE   H7X10653   1.475   0.209   3.889 -0.8549 -1.4872 -0.9311
  104SAPE   H7Y10654   1.324   0.255   3.802 -0.3883 -2.3623 -1.0053
  104SAPE   C3810655   1.492   0.408   3.785 -0.3804  0.1275 -0.7047
  104SAPE   H8X10656   1.427   0.466   3.717 -1.1704  2.0684  1.5445
  104SAPE   H8Y10657   1.596   0.417   3.749  0.3292  0.7695  1.3239
  104SAPE   C3910658   1.486   0.483   3.916 -0.8040 -0.5459  0.3288
  104SAPE   H9X10659   1.509   0.592   3.909 -2.1659 -0.1625  1.2972
  104SAPE   H9Y10660   1.553   0.431   3.988 -0.0686  3.1051  2.5564
  104SAPE  C31010661   1.356   0.489   3.987 -0.1405  0.4433  0.0098
  104SAPE  H10X10662   1.321   0.385   4.006  0.6305  0.3462  0.9689
  104SAPE  H10Y10663   1.286   0.551   3.927 -2.0978 -1.8860 -0.2383
  104SAPE  C31110664   1.370   0.555   4.127  0.3708 -0.5809  0.8036
  104SAPE  H11X10665   1.459   0.503   4.168  2.0067  0.3981 -1.2826
  104SAPE  H11Y10666   1.290   0.529   4.200  0.4245 -1.4443  0.5747
  104SAPE  C31210667   1.382   0.705   4.113 -0.6510  1.0971 -0.1761
  104SAPE  H12X10668   1.288   0.747   4.071 -0.3270  0.6085 -1.4246
  104SAPE  H12Y10669   1.450   0.746   4.035 -1.9228 -0.6059 -2.2668
  104SAPE  C31310670   1.389   0.775   4.251 -0.3690  0.5403  0.6432
  104SAPE  H13X10671   1.476   0.739   4.310  0.6653  0.4977 -0.8353
  104SAPE  H13Y10672   1.297   0.745   4.304 -0.5563 -0.3195 -0.1406
  104SAPE  C31410673   1.402   0.930   4.245  0.4807 -0.2419 -0.4124
  104SAPE  H14X10674   1.305   0.973   4.212 -0.4282 -1.6182  0.3730
  104SAPE  H14Y10675   1.479   0.960   4.171  2.4652  3.6711  2.7849
  104SAPE  C31510676   1.448   0.995   4.377  0.0625  0.5344  0.3028
  104SAPE  H15X10677   1.552   0.972   4.407 -0.6508 -1.0036  1.7523
  104SAPE  H15Y10678   1.383   0.964   4.461  0.5945  1.1347  0.9458
  104SAPE  C31610679   1.453   1.154   4.377  0.3289  0.2409 -0.0653
  104SAPE  H16X10680   1.534   1.185   4.307  0.9620  0.3279  0.6918
  104SAPE  H16Y10681   1.480   1.177   4.483  1.3847 -1.5202  0.0962
  104SAPE  C31710682   1.323   1.225   4.346  0.1740  0.1424 -0.3823
  104SAPE  H17X10683   1.236   1.168   4.384 -0.5592  3.5066  3.7261
  104SAPE  H17Y10684   1.322   1.229   4.235  0.2569 -1.5859 -0.4736
  104SAPE  C31810685   1.309   1.366   4.395 -0.0546 -0.0475  0.1282
  104SAPE  H18X10686   1.398   1.430   4.378 -0.5271  0.2091 -1.5921
  104SAPE  H18Y10687   1.289   1.354   4.504 -0.4504  0.3447  0.0994
  104SAPE  H18Z10688   1.226   1.414   4.339 -1.9008 -1.4744  1.5087
  105SAPE     N10689   5.913   6.534   3.099  0.2660  0.0890  0.1120
  105SAPE   HN110690   5.948   6.538   3.001  4.1512  2.2909  1.3719
  105SAPE   HN210691   5.876   6.623   3.137  1.9338  0.3912  1.1218
  105SAPE   HN310692   6.000   6.509   3.151  1.1295  3.5095  0.5694
  105SAPE   C1210693   5.799   6.435   3.101  0.1890 -0.0111  0.3505
  105SAPE  H12A10694   5.833   6.341   3.053  0.3799  0.9946 -1.5810
  105SAPE  H12B10695   5.725   6.487   3.037  2.7625  1.9119 -1.3164
  105SAPE   C1110696   5.748   6.432   3.246 -0.3571 -0.4948  0.0211
  105SAPE  H11A10697   5.641   6.404   3.248 -0.3174 -0.6378  0.1691
  105SAPE  H11B10698   5.737   6.535   3.286 -2.7289 -0.5905 -0.2550
  105SAPE     P10699   5.809   6.193   3.355 -0.1553 -0.4240  0.0360
  105SAPE   O1310700   5.729   6.127   3.246  0.4583 -0.0986 -0.0383
  105SAPE   O1410701   5.933   6.129   3.408 -0.4622 -0.3758  0.2944
  105SAPE   O1210702   5.839   6.349   3.322 -0.0298 -0.0478  0.3561
  105SAPE   O1110703   5.706   6.198   3.479 -0.4694  0.0896 -0.1990
  105SAPE    C110704   5.660   6.305   3.562 -0.3357 -0.1010  0.2280
  105SAPE    HA10705   5.605   6.381   3.503 -0.2302  0.1758  0.4802
  105SAPE    HB10706   5.592   6.270   3.643  0.3116  0.6651  1.1330
  105SAPE    C210707   5.775   6.374   3.642  0.7297 -0.4238  0.6095
  105SAPE    HS10708   5.831   6.437   3.570 -1.3099  1.2372  0.3513
  105SAPE   O2110709   5.855   6.274   3.710 -0.0550 -0.3382 -0.0651
  105SAPE   C2110710   5.984   6.308   3.730  0.6499 -0.5203 -0.2399
  105SAPE   O2210711   6.032   6.413   3.695 -0.0141  0.6187  0.6078
  105SAPE   C2210712   6.051   6.216   3.827 -0.3687  1.0212 -0.3047
  105SAPE   H2R10713   5.989   6.211   3.919  0.7465  0.1727  0.4332
  105SAPE   H2S10714   6.045   6.113   3.786 -0.6081  0.9370 -0.0669
  105SAPE    C310715   5.715   6.483   3.737  0.2513  0.8810  0.1804
  105SAPE    HX10716   5.655   6.549   3.670 -0.5624 -0.0258 -0.0051
  105SAPE    HY10717   5.794   6.545   3.787  0.2970  0.6508  0.3949
  105SAPE   O3110718   5.624   6.427   3.831  0.6040  0.8281  0.5520
  105SAPE   C3110719   5.662   6.404   3.951 -0.1672 -0.4348  0.1811
  105SAPE   O3210720   5.773   6.432   3.990  0.2278 -0.3621 -0.1812
  105SAPE   C3210721   5.557   6.331   4.031 -0.0768  0.1596 -0.3141
  105SAPE   H2X10722   5.455   6.360   3.997  0.4454 -0.1761 -2.2942
  105SAPE   H2Y10723   5.569   6.354   4.139  1.7675  0.9019 -0.6339
  105SAPE   C2310724   6.198   6.264   3.849 -0.3388 -0.3364 -0.0002
  105SAPE   H3R10725   6.187   6.365   3.894 -1.3142 -0.8082  0.8592
  105SAPE   H3S10726   6.254   6.273   3.753  2.2616 -0.8118  1.3791
  105SAPE   C2410727   6.267   6.166   3.950 -0.1665  0.1866 -0.7714
  105SAPE   H4R10728   6.372   6.193   3.974 -0.2706 -0.6525  0.7290
  105SAPE   H4S10729   6.282   6.070   3.896 -0.0436  0.7114 -1.7052
  105SAPE   C2510730   6.180   6.153   4.075 -0.1151 -0.3017 -0.1029
  105SAPE   H5R10731   6.089   6.091   4.075 -1.5405  1.6862  1.0861
  105SAPE   C2610732   6.207   6.212   4.195 -0.5986 -0.0581 -0.0341
  105SAPE   H6R10733   6.135   6.191   4.275 -2.1579 -1.8789 -1.8131
  105SAPE   C2710734   6.311   6.313   4.237  0.7754 -0.4106  0.0975
  105SAPE   H7R10735   6.260   6.404   4.277 -0.4688  0.1011 -2.4341
  105SAPE   H7S10736   6.373   6.341   4.149  2.9434 -2.9882  0.6887
  105SAPE   C2810737   6.405   6.245   4.333  0.5983 -0.2464 -0.1063
  105SAPE   H8R10738   6.453   6.154   4.293 -0.3622 -0.3686 -1.0167
  105SAPE   C2910739   6.448   6.296   4.456  0.3088 -0.6110 -1.4059
  105SAPE   H9R10740   6.497   6.227   4.527  0.2289 -3.4054 -3.8779
  105SAPE  C21010741   6.403   6.432   4.510  0.3190  0.0978  0.3631
  105SAPE  H10R10742   6.400   6.433   4.621 -0.7660  1.3884  0.3434
  105SAPE  H10S10743   6.298   6.457   4.483 -0.1626  0.0058  2.0899
  105SAPE  C21110744   6.490   6.537   4.443 -0.1149  0.4741  0.6446
  105SAPE  H11R10745   6.478   6.543   4.334 -1.9826 -2.2385  0.6123
  105SAPE  C21210746   6.583   6.610   4.504  0.0349  0.4796  0.1625
  105SAPE  H12R10747   6.641   6.684   4.447  0.7818  1.1652  1.7566
  105SAPE  C21310748   6.621   6.591   4.651  0.5692  0.2074  0.2536
  105SAPE  H13R10749   6.625   6.483   4.676 -0.1503  0.5299  1.9023
  105SAPE  H13S10750   6.530   6.620   4.708 -0.8995  0.6672 -2.1502
  105SAPE  C21410751   6.740   6.678   4.683  0.2107 -0.5658 -0.1666
  105SAPE  H14R10752   6.797   6.728   4.603  0.3967 -0.0675  0.2685
  105SAPE  C21510753   6.773   6.732   4.804  0.1764  0.2467 -0.4789
  105SAPE  H15R10754   6.864   6.794   4.808  1.5273 -1.6434 -0.4925
  105SAPE  C21610755   6.718   6.720   4.940  0.4603 -0.0003 -0.2482
  105SAPE  H16R10756   6.761   6.629   4.986 -0.3174 -0.0628  0.3728
  105SAPE  H16S10757   6.608   6.708   4.935  0.3616 -0.2832  1.7974
  105SAPE  C21710758   6.723   6.845   5.028 -0.5628  0.0931 -0.4735
  105SAPE  H17R10759   6.642   6.912   4.991 -0.1438 -0.8456 -3.3504
  105SAPE  H17S10760   6.819   6.900   5.018  0.1327 -1.0283 -0.1177
  105SAPE  C21810761   6.697   6.819   5.178  0.1740  0.4688 -0.4712
  105SAPE  H18R10762   6.593   6.779   5.181  0.7936 -1.1303  1.0307
  105SAPE  H18S10763   6.696   6.911   5.240 -1.0789 -0.6047  1.1707
  105SAPE  C21910764   6.787   6.715   5.255 -0.3684  0.1674  1.0900
  105SAPE  H19R10765   6.892   6.728   5.219 -0.2333  1.4638  1.8850
  105SAPE  H19S10766   6.763   6.610   5.227 -1.2140 -0.1310  2.8591
  105SAPE  C22010767   6.785   6.729   5.409 -0.5755 -0.3249  0.1826
  105SAPE  H20R10768   6.836   6.824   5.436 -0.7248 -0.2617  0.2390
  105SAPE  H20S10769   6.829   6.637   5.454 -1.0864 -1.4217 -1.4461
  105SAPE  H20T10770   6.682   6.725   5.449 -0.5211  0.3312  0.3906
  105SAPE   C3310771   5.559   6.179   4.010 -0.3237  0.1127 -0.0680
  105SAPE   H3X10772   5.549   6.158   3.901  1.0023  1.5190 -0.4953
  105SAPE   H3Y10773   5.473   6.134   4.064 -2.2025  0.7527 -2.3583
  105SAPE   C3410774   5.690   6.102   4.052 -0.2422 -0.6574  0.4618
  105SAPE   H4X10775   5.785   6.147   4.018 -1.0349  0.6525 -0.0671
  105SAPE   H4Y10776   5.672   6.008   3.995  0.2115 -0.6447  0.2927
  105SAPE   C3510777   5.691   6.067   4.200  0.1369  0.4455  0.3151
  105SAPE   H5X10778   5.766   5.988   4.220 -0.9799 -0.2004  2.1345
  105SAPE   H5Y10779   5.593   6.042   4.247  0.1673  1.7752  1.1408
  105SAPE   C3610780   5.742   6.189   4.284 -0.0572 -0.0096 -0.5441
  105SAPE   H6X10781   5.655   6.258   4.287  0.6993  0.9401  0.3607
  105SAPE   H6Y10782   5.824   6.246   4.235  0.5145 -0.7146 -0.4213
  105SAPE   C3710783   5.772   6.169   4.435  0.0852 -0.2317  0.1222
  105SAPE   H7X10784   5.828   6.077   4.463  0.8158  1.0358  3.2418
  105SAPE   H7Y10785   5.671   6.152   4.479  0.0846 -1.6582 -0.3777
  105SAPE   C3810786   5.842   6.286   4.504 -0.0486  0.2387  0.1871
  105SAPE   H8X10787   5.779   6.377   4.499 -0.0428  0.5274  3.2532
  105SAPE   H8Y10788   5.939   6.305   4.453 -1.1015 -0.8839 -2.3856
  105SAPE   C3910789   5.875   6.247   4.651 -0.3440 -0.2287  0.5846
  105SAPE   H9X10790   5.929   6.331   4.700 -2.5532  1.6007  0.0355
  105SAPE   H9Y10791   5.939   6.156   4.650  0.3279  0.2220 -1.2977
  105SAPE  C31010792   5.750   6.209   4.733  0.0536  0.1560  0.1938
  105SAPE  H10X10793   5.719   6.120   4.675 -0.3460  1.6298 -1.9691
  105SAPE  H10Y10794   5.664   6.280   4.738 -0.5991 -0.6452  0.5321
  105SAPE  C31110795   5.787   6.151   4.871 -0.7302 -0.0366  0.2044
  105SAPE  H11X10796   5.885   6.099   4.875 -0.6655 -0.4950 -3.4849
  105SAPE  H11Y10797   5.711   6.078   4.905 -1.2170  0.2854 -0.1780
  105SAPE  C31210798   5.775   6.259   4.971  0.0120 -0.0215  0.4540
  105SAPE  H12X10799   5.695   6.326   4.934 -0.2544 -0.4875  0.1816
  105SAPE  H12Y10800   5.871   6.315   4.971  0.4222 -0.6702  2.0881
  105SAPE  C31310801   5.761   6.221   5.118  0.6750  0.0418 -0.6132
  105SAPE  H13X10802   5.669   6.164   5.141  1.2443 -0.1282  1.4772
  105SAPE  H13Y10803   5.764   6.313   5.180  2.1270  0.7899 -1.7568
  105SAPE  C31410804   5.886   6.143   5.160 -0.4752  0.5721 -0.3967
  105SAPE  H14X10805   5.973   6.212   5.150  0.1427  0.5279  3.3169
  105SAPE  H14Y10806   5.884   6.057   5.090 -0.9687  0.8732 -0.7587
  105SAPE  C31510807   5.872   6.083   5.301  0.7371  0.1130 -0.6840
  105SAPE  H15X10808   5.788   6.011   5.295  1.2498 -0.5046 -0.5286
  105SAPE  H15Y10809   5.854   6.159   5.380 -2.1294 -0.5853 -0.5519
  105SAPE  C31610810   6.004   6.012   5.340 -0.0459 -0.4969  0.0001
  105SAPE  H16X10811   6.093   6.071   5.310  0.0536 -0.3402  0.5966
  105SAPE  H16Y10812   6.013   5.916   5.284 -2.6824  0.1347 -1.7241
  105SAPE  C31710813   6.005   5.974   5.488  0.8152  0.9198 -0.1916
  105SAPE  H17X10814   5.914   5.914   5.509  0.6095  1.2411 -0.1494
  105SAPE  H17Y10815   5.986   6.064   5.550  2.2881  0.3986  1.0684
  105SAPE  C31810816   6.135   5.905   5.542  0.6244  0.1805  0.7604
  105SAPE  H18X10817   6.139   5.797   5.514  1.2523  0.4479 -0.2373
  105SAPE  H18Y10818   6.136   5.922   5.651 -0.1320 -0.4741  0.8766
  105SAPE  H18Z10819   6.221   5.962   5.500  0.2442  1.0290  1.1261
  106SAPE     N10820   5.290   1.877   3.216  0.3139 -0.1007 -1.0301
  106SAPE   HN110821   5.311   1.926   3.305 -2.6087  1.0636 -0.8639
  106SAPE   HN210822   5.231   1.938   3.156  1.5080 -0.3087 -2.4688
  106SAPE   HN310823   5.234   1.796   3.252 -1.2923  1.1521 -0.6062
  106SAPE   C1210824   5.418   1.823   3.165  0.2728 -0.0710  0.1511
  106SAPE  H12A10825   5.468   1.903   3.106 -0.0706 -0.7869 -1.1507
  106SAPE  H12B10826   5.393   1.731   3.108 -0.5168  0.1044  0.2160
  106SAPE   C1110827   5.503   1.787   3.292 -0.7467 -0.2318 -0.4963
  106SAPE  H11A10828   5.538   1.885   3.332  1.1916  0.2259 -3.0235
  106SAPE  H11B10829   5.601   1.750   3.253 -0.1380  1.2933 -0.5130
  106SAPE     P10830   5.454   1.536   3.348  0.1409  0.2602 -0.0270
  106SAPE   O1310831   5.318   1.478   3.363 -0.3887 -0.2169 -0.0856
  106SAPE   O1410832   5.508   1.520   3.216 -0.0591 -0.4943  0.2727
  106SAPE   O1210833   5.443   1.692   3.379 -0.3093 -0.5597 -0.3157
  106SAPE   O1110834   5.548   1.483   3.456 -0.2342  0.0280  0.0465
  106SAPE    C110835   5.691   1.529   3.450  0.2775  0.0756 -0.2920
  106SAPE    HA10836   5.737   1.533   3.349  0.9326  0.0235 -0.0037
  106SAPE    HB10837   5.699   1.630   3.495  0.9862  0.0717 -0.3973
  106SAPE    C210838   5.779   1.441   3.542  0.2474 -0.6727  0.4855
  106SAPE    HS10839   5.765   1.337   3.504  0.8690 -0.8583  0.7605
  106SAPE   O2110840   5.723   1.441   3.673  0.1792 -0.5263 -0.0826
  106SAPE   C2110841   5.736   1.325   3.741 -0.1037  0.1983  0.8439
  106SAPE   O2210842   5.787   1.226   3.698  0.0601  0.4218 -0.1721
  106SAPE   C2210843   5.676   1.343   3.876  0.4514  0.7502 -0.5670
  106SAPE   H2R10844   5.713   1.434   3.927  2.0924 -0.3329  0.2352
  106SAPE   H2S10845   5.566   1.356   3.869 -0.1134 -1.8287  1.9368
  106SAPE    C310846   5.932   1.472   3.544  0.5407  0.3387 -0.0324
  106SAPE    HX10847   5.968   1.467   3.439  0.3305 -0.2333 -0.0770
  106SAPE    HY10848   5.986   1.389   3.594 -0.4748 -1.9792 -2.5837
  106SAPE   O3110849   5.956   1.595   3.613  0.6816 -0.5182 -0.5107
  106SAPE   C3110850   5.961   1.704   3.537  0.1112 -0.2388 -0.2504
  106SAPE   O3210851   5.931   1.708   3.417  0.1732 -0.3243  0.1513
  106SAPE   C3210852   6.036   1.808   3.617  0.2717  0.3505  0.2564
  106SAPE   H2X10853   6.093   1.867   3.542  1.7255 -0.0027  1.0388
  106SAPE   H2Y10854   6.114   1.762   3.682 -0.8045  0.7606  1.9101
  106SAPE   C2310855   5.700   1.232   3.985 -0.2886 -0.2453 -0.5195
  106SAPE   H3R10856   5.808   1.224   4.010  0.3776  0.2192 -2.9769
  106SAPE   H3S10857   5.675   1.133   3.943 -2.3702 -1.7836  3.6907
  106SAPE   C2410858   5.611   1.246   4.110 -0.5145 -0.1482 -0.0283
  106SAPE   H4R10859   5.636   1.157   4.171  2.7399  2.2452  2.4712
  106SAPE   H4S10860   5.502   1.247   4.085 -0.4119 -0.4249 -0.4870
  106SAPE   C2510861   5.651   1.366   4.191  0.4778  0.1547 -0.6144
  106SAPE   H5R10862   5.613   1.463   4.155  1.1145  0.7441  0.2709
  106SAPE   C2610863   5.739   1.362   4.291 -0.0634 -0.5808  0.8544
  106SAPE   H6R10864   5.763   1.456   4.344  2.4818 -0.2435 -0.7322
  106SAPE   C2710865   5.817   1.245   4.349 -0.2122  0.5482 -0.1187
  106SAPE   H7R10866   5.921   1.266   4.382  0.0564  1.6684 -1.5723
  106SAPE   H7S10867   5.822   1.162   4.276  1.4526  1.5263 -1.1885
  106SAPE   C2810868   5.732   1.186   4.458 -0.0098 -0.6134  0.3468
  106SAPE   H8R10869   5.663   1.112   4.415  0.2362 -0.1995 -0.7778
  106SAPE   C2910870   5.735   1.197   4.594  0.0394  0.0517 -0.3380
  106SAPE   H9R10871   5.669   1.146   4.666  1.2217 -0.5688  0.3313
  106SAPE  C21010872   5.849   1.283   4.657  0.8321  0.0230  1.0292
  106SAPE  H10R10873   5.933   1.304   4.588 -0.4165  1.1033 -0.2233
  106SAPE  H10S10874   5.895   1.240   4.748 -0.2858 -0.1084  1.5426
  106SAPE  C21110875   5.790   1.417   4.686  0.0176 -0.7626 -0.4418
  106SAPE  H11R10876   5.811   1.492   4.608 -0.7620 -1.0950 -0.9742
  106SAPE  C21210877   5.723   1.458   4.797 -0.5887 -0.4348  0.1595
  106SAPE  H12R10878   5.688   1.562   4.799  1.2641  0.4326 -3.2732
  106SAPE  C21310879   5.700   1.367   4.908  0.2304 -0.4002 -0.5052
  106SAPE  H13R10880   5.776   1.288   4.928  0.1110 -0.1798  0.9475
  106SAPE  H13S10881   5.605   1.315   4.881  1.2373 -2.5665 -0.1238
  106SAPE  C21410882   5.666   1.438   5.039 -0.1595  0.4386 -0.6650
  106SAPE  H14R10883   5.614   1.535   5.031  1.6978  1.3707 -2.0851
  106SAPE  C21510884   5.693   1.395   5.165 -0.2471  0.2330  0.2619
  106SAPE  H15R10885   5.662   1.454   5.253 -1.6724 -0.5482  0.3164
  106SAPE  C21610886   5.760   1.259   5.189 -0.7673 -0.3413  0.0870
  106SAPE  H16R10887   5.772   1.196   5.098 -0.8683 -0.3252  0.0624
  106SAPE  H16S10888   5.699   1.198   5.259 -2.7402  0.9121 -0.4631
  106SAPE  C21710889   5.900   1.267   5.251 -0.1961  0.9379  0.1894
  106SAPE  H17R10890   5.972   1.331   5.195  1.4176 -0.4073  0.6147
  106SAPE  H17S10891   5.936   1.162   5.244 -0.1207  1.0529 -1.7463
  106SAPE  C21810892   5.906   1.309   5.396  0.3099  0.4944 -0.1167
  106SAPE  H18R10893   5.825   1.258   5.452 -1.6397  1.7277 -1.7016
  106SAPE  H18S10894   5.864   1.411   5.397  1.4173  0.9607 -0.0341
  106SAPE  C21910895   6.038   1.289   5.466  0.3881  0.0431  0.6564
  106SAPE  H19R10896   6.019   1.329   5.568 -0.6687  1.2005  0.0339
  106SAPE  H19S10897   6.119   1.357   5.431  1.2370 -1.4195 -0.3490
  106SAPE  C22010898   6.091   1.145   5.479  0.1812  0.1161 -0.6402
  106SAPE  H20R10899   6.002   1.079   5.489 -1.5416  2.4907  1.1112
  106SAPE  H20S10900   6.162   1.132   5.563 -0.0459 -0.4734 -0.5339
  106SAPE  H20T10901   6.146   1.123   5.386 -1.1524 -0.7083 -1.2676
  106SAPE   C3310902   5.940   1.897   3.697 -0.8486  0.6124 -0.1935
  106SAPE   H3X10903   5.861   1.938   3.630 -0.4013  0.5615 -0.7571
  106SAPE   H3Y10904   5.997   1.988   3.724  1.4151 -0.7354 -0.2179
  106SAPE   C3410905   5.869   1.821   3.814  0.5416 -0.0793 -0.0640
  106SAPE   H4X10906   5.944   1.778   3.884 -0.8279 -0.8863  0.9579
  106SAPE   H4Y10907   5.812   1.731   3.781 -0.2009  0.6044 -0.6797
  106SAPE   C3510908   5.764   1.911   3.889 -0.4330 -0.2914  0.9013
  106SAPE   H5X10909   5.688   1.942   3.814  0.6805  0.9725  0.2558
  106SAPE   H5Y10910   5.825   1.996   3.925 -0.6092 -0.2499  1.1021
  106SAPE   C3610911   5.687   1.845   3.998 -0.3158 -0.4572  0.2456
  106SAPE   H6X10912   5.663   1.741   3.966 -0.0131 -0.5013  0.1580
  106SAPE   H6Y10913   5.592   1.897   4.025  0.2601 -0.3426  2.2361
  106SAPE   C3710914   5.767   1.833   4.131 -0.6743  0.3972  0.4655
  106SAPE   H7X10915   5.855   1.901   4.139 -0.4948  0.2493 -0.1721
  106SAPE   H7Y10916   5.811   1.732   4.118  0.6388  0.9890  0.1380
  106SAPE   C3810917   5.675   1.863   4.252  0.2606 -0.6809 -0.2221
  106SAPE   H8X10918   5.593   1.789   4.265  0.6977 -1.3099 -0.9421
  106SAPE   H8Y10919   5.637   1.963   4.221  3.0586 -0.0562 -1.9932
  106SAPE   C3910920   5.749   1.874   4.388  0.1042  0.5893  0.2978
  106SAPE   H9X10921   5.690   1.906   4.477 -1.0499  0.0948 -0.2648
  106SAPE   H9Y10922   5.832   1.947   4.376  0.9464 -0.5415 -1.0573
  106SAPE  C31010923   5.829   1.748   4.418  0.3928 -0.4770  0.3983
  106SAPE  H10X10924   5.890   1.723   4.328 -1.0884 -0.7931 -0.5613
  106SAPE  H10Y10925   5.751   1.669   4.430  0.2397 -0.6826 -1.5463
  106SAPE  C31110926   5.926   1.772   4.531 -0.2717  0.2654 -0.0233
  106SAPE  H11X10927   6.001   1.849   4.507  0.5560 -0.9889 -1.6842
  106SAPE  H11Y10928   5.970   1.671   4.546 -1.1281  0.0340  1.1064
  106SAPE  C31210929   5.857   1.800   4.668 -1.0593  0.4430  0.0352
  106SAPE  H12X10930   5.760   1.746   4.656 -1.6719  1.3250  0.8583
  106SAPE  H12Y10931   5.838   1.907   4.688 -3.0888  0.6127 -2.3115
  106SAPE  C31310932   5.949   1.735   4.767 -0.6880  0.4546 -0.5816
  106SAPE  H13X10933   6.052   1.773   4.752 -0.0027 -1.6367 -1.4889
  106SAPE  H13Y10934   5.949   1.624   4.754  1.7520  0.0879  1.6423
  106SAPE  C31410935   5.908   1.755   4.913 -0.0657 -0.0738  0.3176
  106SAPE  H14X10936   5.809   1.708   4.926 -0.7181  1.2341  0.1895
  106SAPE  H14Y10937   5.891   1.862   4.934 -1.0706 -0.5642  2.1542
  106SAPE  C31510938   6.007   1.700   5.011 -0.1047 -1.2053 -0.3528
  106SAPE  H15X10939   6.110   1.737   4.990 -1.0067  0.8020 -1.5689
  106SAPE  H15Y10940   6.020   1.593   4.985  2.2083 -1.0355 -0.0654
  106SAPE  C31610941   5.965   1.725   5.158 -0.3729  0.1469 -0.4489
  106SAPE  H16X10942   5.867   1.678   5.182  0.3221 -0.8538  0.5193
  106SAPE  H16Y10943   5.941   1.834   5.167 -2.3212 -0.4008  2.3662
  106SAPE  C31710944   6.070   1.676   5.261 -0.0863  0.2283 -0.5908
  106SAPE  H17X10945   6.174   1.705   5.233 -0.0142  0.8104  0.2460
  106SAPE  H17Y10946   6.076   1.565   5.252  1.2782  0.4399 -3.3159
  106SAPE  C31810947   6.041   1.722   5.407 -0.5497  0.0149  0.1660
  106SAPE  H18X10948   5.945   1.683   5.446  0.3701 -2.6536 -0.0762
  106SAPE  H18Y10949   6.026   1.831   5.389 -1.6576 -0.4307 -2.0187
  106SAPE  H18Z10950   6.130   1.700   5.470  0.0988 -0.4796 -0.9022
  107SAPE     N10951   1.582   6.539   2.641 -0.1085 -0.5604 -0.5344
  107SAPE   HN110952   1.508   6.471   2.670  1.2294 -2.1863 -0.7670
  107SAPE   HN210953   1.557   6.639   2.626 -1.1770 -1.1663 -3.2785
  107SAPE   HN310954   1.628   6.511   2.552 -3.6899 -0.0851 -2.7399
  107SAPE   C1210955   1.679   6.525   2.763 -0.6732  0.0734 -0.3931
  107SAPE  H12A10956   1.776   6.577   2.752 -0.7338  0.8575  2.0939
  107SAPE  H12B10957   1.680   6.415   2.779 -3.0822 -0.0427 -0.6932
  107SAPE   C1110958   1.624   6.591   2.887 -0.3132  0.2455 -0.0337
  107SAPE  H11A10959   1.640   6.701   2.882  1.1317  0.0025 -1.2034
  107SAPE  H11B10960   1.691   6.551   2.966  1.2154 -0.3011 -1.5637
  107SAPE     P10961   1.414   6.635   3.032  0.0411  0.3997  0.2336
  107SAPE   O1310962   1.415   6.784   3.018  0.4508  0.2896 -0.1804
  107SAPE   O1410963   1.289   6.559   3.031  0.5404 -0.2372  0.7778
  107SAPE   O1210964   1.493   6.564   2.919  0.3515  0.0078 -0.0447
  107SAPE   O1110965   1.494   6.608   3.160  0.2680  0.3434 -0.0678
  107SAPE    C110966   1.527   6.472   3.201  0.1661  0.0716  0.4974
  107SAPE    HA10967   1.504   6.396   3.123  0.1237  1.1957 -0.6206
  107SAPE    HB10968   1.637   6.458   3.198  0.1087 -0.6387 -3.3825
  107SAPE    C210969   1.464   6.435   3.342 -0.2710 -0.6234 -0.4074
  107SAPE    HS10970   1.500   6.334   3.371 -0.5886 -0.3023  1.2603
  107SAPE   O2110971   1.325   6.450   3.338 -0.3184 -0.4051 -0.5623
  107SAPE   C2110972   1.267   6.343   3.287  0.2125 -0.3748 -0.4753
  107SAPE   O2210973   1.322   6.238   3.276 -0.1423  0.5131  0.3151
  107SAPE   C2210974   1.112   6.367   3.282 -1.0382  0.6934  0.5139
  107SAPE   H2R10975   1.081   6.418   3.375 -0.0915 -0.9202  1.7673
  107SAPE   H2S10976   1.096   6.429   3.191 -1.3368  0.6438  0.5306
  107SAPE    C310977   1.513   6.534   3.456 -0.3028 -1.1038  0.1519
  107SAPE    HX10978   1.470   6.633   3.429  0.6601 -0.8155 -0.3534
  107SAPE    HY10979   1.623   6.542   3.446  0.2241 -2.2076  3.6900
  107SAPE   O3110980   1.496   6.492   3.592  1.0132  0.0650  0.4320
  107SAPE   C3110981   1.380   6.533   3.645 -0.1415  0.1116 -0.5265
  107SAPE   O3210982   1.291   6.594   3.593 -0.2445 -0.4654  0.3957
  107SAPE   C3210983   1.376   6.490   3.791 -0.7817  0.0705  0.6123
  107SAPE   H2X10984   1.483   6.494   3.820 -0.0058 -0.6386 -1.9014
  107SAPE   H2Y10985   1.360   6.380   3.790 -0.0009 -0.0491 -0.7797
  107SAPE   C2310986   1.038   6.232   3.265  0.0424 -0.3616  0.3059
  107SAPE   H3R10987   1.081   6.175   3.179  0.2110 -1.6899  1.2319
  107SAPE   H3S10988   0.932   6.259   3.249 -0.2392 -0.0210  2.3905
  107SAPE   C2410989   1.044   6.151   3.394  0.2306 -0.3728  0.1746
  107SAPE   H4R10990   1.145   6.109   3.416 -0.3770 -1.3198  1.3059
  107SAPE   H4S10991   0.983   6.059   3.384  1.4357 -1.2031  0.1335
  107SAPE   C2510992   0.989   6.225   3.515 -0.5877 -0.9350 -0.1646
  107SAPE   H5R10993   0.910   6.299   3.495  1.5972  1.5271 -0.1541
  107SAPE   C2610994   1.035   6.216   3.643  0.0700 -0.2583 -0.1471
  107SAPE   H6R10995   0.990   6.278   3.722 -1.4909 -2.2974  0.6658
  107SAPE   C2710996   1.141   6.127   3.696 -0.2191  0.0861  0.1203
  107SAPE   H7R10997   1.237   6.181   3.709  0.2854 -0.4680 -1.1470
  107SAPE   H7S10998   1.179   6.057   3.619  1.0640  2.0181 -1.1100
  107SAPE   C2810999   1.090   6.043   3.816 -0.6400 -0.4475 -1.2710
  107SAPE   H8R11000   1.060   5.940   3.791  0.6045 -1.4628  1.0499
  107SAPE   C2911001   1.121   6.082   3.946  0.4317 -0.0171  1.2177
  107SAPE   H9R11002   1.071   6.026   4.026  1.4565 -0.5175  1.5262
  107SAPE  C21011003   1.182   6.211   3.984  0.3954  0.3055 -0.6817
  107SAPE  H10R11004   1.118   6.258   4.062  1.7179 -0.7516  1.1047
  107SAPE  H10S11005   1.190   6.281   3.897 -0.2437 -2.0364 -2.7391
  107SAPE  C21111006   1.310   6.183   4.047 -0.7984  0.3193 -0.9253
  107SAPE  H11R11007   1.372   6.121   3.981 -1.6060 -1.1222 -0.3819
  107SAPE  C21211008   1.352   6.213   4.168  0.5641  0.2970 -0.1496
  107SAPE  H12R11009   1.458   6.191   4.187  0.2883 -1.4044 -0.4199
  107SAPE  C21311010   1.275   6.287   4.282 -0.3507 -0.4359  0.7735
  107SAPE  H13R11011   1.170   6.254   4.271  0.3542 -2.3552 -1.0106
  107SAPE  H13S11012   1.270   6.396   4.262  0.3485  0.1908  3.6143
  107SAPE  C21411013   1.326   6.264   4.419 -0.3443 -0.4112 -0.3269
  107SAPE  H14R11014   1.285   6.175   4.470 -0.8889 -1.0918 -1.8812
  107SAPE  C21511015   1.399   6.357   4.483 -0.0454 -0.1487 -0.0068
  107SAPE  H15R11016   1.411   6.326   4.588 -0.4683  0.5169  0.2429
  107SAPE  C21611017   1.455   6.485   4.438 -0.0260 -0.0365 -0.0672
  107SAPE  H16R11018   1.488   6.462   4.335  1.6249 -2.0969  0.8316
  107SAPE  H16S11019   1.546   6.509   4.498 -0.2911 -0.6866  0.6160
  107SAPE  C21711020   1.365   6.611   4.439  0.3952 -0.1500  0.5377
  107SAPE  H17R11021   1.284   6.589   4.367  0.6466 -0.7088  0.4195
  107SAPE  H17S11022   1.435   6.689   4.403  2.6572 -1.3475  2.0836
  107SAPE  C21811023   1.317   6.664   4.581  0.2573  0.0362  0.4668
  107SAPE  H18R11024   1.406   6.703   4.634 -0.2514  1.4607  0.3135
  107SAPE  H18S11025   1.282   6.572   4.633  1.2404 -0.9365 -0.5149
  107SAPE  C21911026   1.206   6.773   4.579 -0.4116  0.2106  0.0483
  107SAPE  H19R11027   1.126   6.727   4.517 -0.1909 -0.5627  0.3320
  107SAPE  H19S11028   1.242   6.873   4.546 -0.9938  0.3011 -0.3266
  107SAPE  C22011029   1.148   6.806   4.714 -0.1553  0.2535 -0.3375
  107SAPE  H20R11030   1.104   6.716   4.761 -2.3948  1.6081  0.3070
  107SAPE  H20S11031   1.081   6.895   4.718  1.8723  1.8710 -0.1279
  107SAPE  H20T11032   1.237   6.849   4.765  0.8384 -0.5978 -1.3125
  107SAPE   C3311033   1.284   6.571   3.883  0.2001  0.0979 -0.0694
  107SAPE   H3X11034   1.274   6.519   3.981 -2.9040  1.5734  0.5389
  107SAPE   H3Y11035   1.182   6.567   3.838 -0.0958 -2.4555  0.6444
  107SAPE   C3411036   1.318   6.717   3.914 -0.5918 -0.0848  0.5834
  107SAPE   H4X11037   1.301   6.791   3.833  2.6302  0.7880  0.5779
  107SAPE   H4Y11038   1.423   6.723   3.949 -0.2977 -0.3954 -0.2399
  107SAPE   C3511039   1.240   6.766   4.038 -0.3821  0.0536  0.0838
  107SAPE   H5X11040   1.266   6.701   4.125 -1.1265 -1.4981 -0.8090
  107SAPE   H5Y11041   1.132   6.756   4.018 -0.6353  0.5143  1.1623
  107SAPE   C3611042   1.270   6.908   4.072 -0.4452 -0.2720 -0.3030
  107SAPE   H6X11043   1.253   6.970   3.981  3.4631  1.1321 -0.2485
  107SAPE   H6Y11044   1.380   6.907   4.088 -0.7616 -0.7930  2.2797
  107SAPE   C3711045   1.198   6.962   4.195  0.8732 -0.2247 -0.8817
  107SAPE   H7X11046   1.215   6.898   4.284 -0.7886 -0.3056 -0.5763
  107SAPE   H7Y11047   1.089   6.953   4.172  0.4171  1.8716  0.2553
  107SAPE   C3811048   1.235   7.107   4.227  0.3269 -0.2079  0.3135
  107SAPE   H8X11049   1.204   7.172   4.143  0.9349 -1.9402 -1.3308
  107SAPE   H8Y11050   1.344   7.119   4.249  0.1948  3.1906 -0.3480
  107SAPE   C3911051   1.169   7.163   4.361 -0.3286  0.1204  0.5867
  107SAPE   H9X11052   1.221   7.253   4.399 -0.7253  0.3614  0.5617
  107SAPE   H9Y11053   1.191   7.085   4.437  0.5398 -0.1060  0.1148
  107SAPE  C31011054   1.018   7.167   4.366  0.2813 -0.3286 -0.8499
  107SAPE  H10X11055   0.969   7.072   4.336  0.4941 -0.1044 -1.9344
  107SAPE  H10Y11056   0.989   7.244   4.291  1.4130  2.2527  1.1972
  107SAPE  C31111057   0.963   7.207   4.499 -0.7704  0.4439  0.1468
  107SAPE  H11X11058   0.893   7.290   4.479  0.6609  0.8426 -4.0073
  107SAPE  H11Y11059   1.038   7.265   4.558 -0.8296 -0.4897  1.1749
  107SAPE  C31211060   0.883   7.092   4.570  0.1079  0.2043 -0.1531
  107SAPE  H12X11061   0.933   6.993   4.559 -0.4319  0.0291 -1.1011
  107SAPE  H12Y11062   0.784   7.080   4.521 -0.9049  0.1493  1.8368
  107SAPE  C31311063   0.857   7.134   4.710 -0.3037 -0.2369  0.1721
  107SAPE  H13X11064   0.808   7.232   4.727  1.0987  0.0109  3.7033
  107SAPE  H13Y11065   0.958   7.144   4.755 -1.0840 -0.8168  2.1437
  107SAPE  C31411066   0.784   7.028   4.787 -0.1090  0.5028 -0.2243
  107SAPE  H14X11067   0.819   6.929   4.750 -0.4681 -0.1749  1.1664
  107SAPE  H14Y11068   0.676   7.022   4.765 -0.1992 -0.9970  0.4899
  107SAPE  C31511069   0.802   7.018   4.938  0.5109 -0.1508  0.3246
  107SAPE  H15X11070   0.904   6.995   4.974  0.0959 -1.1285  0.9372
  107SAPE  H15Y11071   0.743   6.928   4.967  0.2369 -0.7533 -1.8998
  107SAPE  C31611072   0.752   7.145   5.006  0.9657  0.2208  0.3018
  107SAPE  H16X11073   0.650   7.171   4.971  0.7423  1.6733  1.8960
  107SAPE  H16Y11074   0.814   7.227   4.963  1.6224  0.7214  2.0930
  107SAPE  C31711075   0.763   7.135   5.153  0.3475 -0.3922 -0.1618
  107SAPE  H17X11076   0.707   7.055   5.205 -0.7030  0.4072 -0.0363
  107SAPE  H17Y11077   0.719   7.231   5.189 -0.8895 -1.2815  0.7464
  107SAPE  C31811078   0.912   7.142   5.208  0.0846 -0.2007 -0.5680
  107SAPE  H18X11079   0.948   7.041   5.177  0.5971  0.1000 -0.9717
  107SAPE  H18Y11080   0.919   7.155   5.318  1.7671 -1.2018 -0.5254
  107SAPE  H18Z11081   0.986   7.215   5.170 -0.7478  0.3741 -1.1075
  108SAPE     N11082   6.843   6.310   3.249 -0.0427 -0.0210 -0.0216
  108SAPE   HN111083   6.801   6.351   3.335  3.1088  0.9634  1.2196
  108SAPE   HN211084   6.794   6.220   3.230 -1.0002  0.3773  0.5053
  108SAPE   HN311085   6.941   6.297   3.281 -0.3420  0.3990  1.1007
  108SAPE   C1211086   6.840   6.406   3.136 -0.3430  0.4276  0.4425
  108SAPE  H12A11087   6.944   6.434   3.109 -0.0487 -0.9759  0.0263
  108SAPE  H12B11088   6.799   6.502   3.174 -2.0916  0.0158 -0.3072
  108SAPE   C1111089   6.767   6.344   3.014 -0.1467  0.1341 -0.5411
  108SAPE  H11A11090   6.814   6.257   2.964 -3.0564 -0.7565 -1.9544
  108SAPE  H11B11091   6.771   6.422   2.935 -0.9567  1.9334  1.0945
  108SAPE     P11092   6.518   6.414   3.058  0.0428 -0.0886 -0.2843
  108SAPE   O1311093   6.552   6.532   2.969  0.1003  0.3554  0.0555
  108SAPE   O1411094   6.386   6.353   3.039  0.3458 -0.6066 -0.0816
  108SAPE   O1211095   6.633   6.312   3.044 -0.1353  0.6568  0.1940
  108SAPE   O1111096   6.541   6.463   3.205 -0.2071  0.0793  0.7866
  108SAPE    C111097   6.502   6.586   3.259 -0.0025  0.4369  0.2728
  108SAPE    HA11098   6.523   6.677   3.199  1.8368 -1.4668 -2.1658
  108SAPE    HB11099   6.394   6.594   3.286 -0.6099 -0.2188 -1.7889
  108SAPE    C211100   6.589   6.618   3.384 -1.0313 -0.8559 -0.5868
  108SAPE    HS11101   6.698   6.614   3.362 -0.5009  1.9372  1.0699
  108SAPE   O2111102   6.546   6.526   3.483  0.0771  0.1050  0.2527
  108SAPE   C2111103   6.624   6.432   3.532 -0.3123 -0.9251  0.1302
  108SAPE   O2211104   6.738   6.409   3.491  0.6908 -0.1860 -0.5963
  108SAPE   C2211105   6.560   6.363   3.649  0.2572 -0.0881  0.2726
  108SAPE   H2R11106   6.459   6.324   3.622 -0.7693  0.3076  3.1095
  108SAPE   H2S11107   6.627   6.280   3.678  1.7029  1.6066  2.0885
  108SAPE    C311108   6.560   6.766   3.438  0.4528 -0.2992 -0.3275
  108SAPE    HX11109   6.455   6.766   3.473  2.0320  1.8762  5.5180
  108SAPE    HY11110   6.564   6.839   3.354  1.4314 -0.1408 -0.1620
  108SAPE   O3111111   6.632   6.809   3.556 -0.2563 -0.2923 -0.2008
  108SAPE   C3111112   6.760   6.843   3.541 -0.0416 -0.2401 -0.7133
  108SAPE   O3211113   6.832   6.829   3.443 -0.6193 -0.0691 -0.5379
  108SAPE   C3211114   6.809   6.896   3.674  0.1300  0.3077  0.6768
  108SAPE   H2X11115   6.868   6.816   3.723  2.5046  1.3763 -0.2384
  108SAPE   H2Y11116   6.729   6.933   3.741  0.6374 -1.3530  2.2640
  108SAPE   C2311117   6.532   6.457   3.774 -0.2441 -0.0220 -0.6939
  108SAPE   H3R11118   6.464   6.401   3.842 -0.7742  0.9533 -0.3971
  108SAPE   H3S11119   6.470   6.544   3.744 -1.7273 -0.8060 -0.0394
  108SAPE   C2411120   6.667   6.494   3.840 -0.3114 -0.3894 -0.1995
  108SAPE   H4R11121   6.742   6.537   3.770 -1.0978 -0.3503 -1.0383
  108SAPE   H4S11122   6.711   6.397   3.872 -3.4035 -1.2636  1.8652
  108SAPE   C2511123   6.630   6.581   3.958 -0.2128 -0.3927  0.3175
  108SAPE   H5R11124   6.523   6.585   3.982  0.1748  1.5797  2.0967
  108SAPE   C2611125   6.712   6.635   4.048  0.0032  0.3736  0.1337
  108SAPE   H6R11126   6.668   6.697   4.127  1.3883 -0.7676  1.8849
  108SAPE   C2711127   6.861   6.621   4.034  0.7300  0.5213 -0.5355
  108SAPE   H7R11128   6.916   6.716   4.017 -0.1966  1.2695  0.5030
  108SAPE   H7S11129   6.884   6.558   3.945  1.8403  0.6635 -0.3552
  108SAPE   C2811130   6.911   6.555   4.159  0.0283  0.6566 -0.8761
  108SAPE   H8R11131   6.917   6.445   4.166  0.1256  0.7545  2.1248
  108SAPE   C2911132   6.953   6.621   4.270  0.3117  0.0382 -0.7272
  108SAPE   H9R11133   7.002   6.555   4.343  2.3432  1.7553 -0.4491
  108SAPE  C21011134   6.952   6.762   4.311  0.2758 -0.0365 -0.2084
  108SAPE  H10R11135   6.898   6.774   4.408 -2.4466 -0.3995 -1.5836
  108SAPE  H10S11136   6.896   6.817   4.231  1.5212  1.8714  0.1630
  108SAPE  C21111137   7.094   6.819   4.302 -0.1560 -0.0369 -0.3601
  108SAPE  H11R11138   7.133   6.831   4.200 -1.4591 -0.9236 -1.0055
  108SAPE  C21211139   7.173   6.841   4.413 -0.3067 -0.2994  0.5546
  108SAPE  H12R11140   7.273   6.882   4.392 -0.7480  1.9781  2.4931
  108SAPE  C21311141   7.144   6.835   4.565  0.0076 -0.2894  0.0493
  108SAPE  H13R11142   7.038   6.803   4.571 -0.3553  0.7964 -0.2260
  108SAPE  H13S11143   7.159   6.936   4.609  2.0942  0.6334 -2.4853
  108SAPE  C21411144   7.234   6.734   4.626 -0.4620 -0.0206  0.5107
  108SAPE  H14R11145   7.266   6.649   4.563 -2.6582 -1.2264  0.9112
  108SAPE  C21511146   7.288   6.737   4.746  0.8730 -0.0583 -0.1889
  108SAPE  H15R11147   7.343   6.646   4.773 -0.1974 -1.0809 -1.3213
  108SAPE  C21611148   7.268   6.832   4.861  0.1375 -0.0710 -0.7181
  108SAPE  H16R11149   7.209   6.921   4.830  0.3118  0.0357 -0.7443
  108SAPE  H16S11150   7.371   6.868   4.883 -0.0260  1.1789 -1.8757
  108SAPE  C21711151   7.204   6.768   4.983  0.0343 -0.5282 -0.9893
  108SAPE  H17R11152   7.273   6.690   5.022  0.6240 -0.9587 -2.7974
  108SAPE  H17S11153   7.109   6.718   4.954 -1.1972  0.5521  1.0018
  108SAPE  C21811154   7.164   6.860   5.100 -0.8223  0.0414 -0.3218
  108SAPE  H18R11155   7.060   6.834   5.128 -0.4739 -0.7820  0.2625
  108SAPE  H18S11156   7.161   6.964   5.060 -0.4914 -0.2165 -1.0434
  108SAPE  C21911157   7.264   6.853   5.211  0.2486  0.2990  0.6121
  108SAPE  H19R11158   7.358   6.889   5.166 -0.1563  1.0238  0.3332
  108SAPE  H19S11159   7.262   6.744   5.235 -2.0377  0.4899  1.6023
  108SAPE  C22011160   7.231   6.951   5.327 -0.3230  0.2666  0.4226
  108SAPE  H20R11161   7.126   6.940   5.360 -0.6555  1.4299 -0.1928
  108SAPE  H20S11162   7.257   7.056   5.303  1.8581  0.3523  2.7328
  108SAPE  H20T11163   7.297   6.923   5.412  0.7844 -1.5370 -0.9334
  108SAPE   C3311164   6.906   7.020   3.650  0.1386  0.0190 -0.3185
  108SAPE   H3X11165   6.871   7.067   3.556 -1.1787  0.3360  0.3068
  108SAPE   H3Y11166   7.008   6.977   3.637 -0.1200 -0.2215 -1.7206
  108SAPE   C3411167   6.907   7.119   3.767 -0.2412 -0.4656 -0.3993
  108SAPE   H4X11168   6.801   7.150   3.784 -0.6638 -3.0453  2.4639
  108SAPE   H4Y11169   6.972   7.203   3.736 -1.7970  0.1383 -2.2662
  108SAPE   C3511170   6.945   7.058   3.897  0.1991 -0.0364  0.3294
  108SAPE   H5X11171   6.878   6.979   3.936 -2.7207  2.1829  0.2093
  108SAPE   H5Y11172   7.051   7.025   3.900  0.0926 -0.4710 -0.3239
  108SAPE   C3611173   6.928   7.160   4.011 -0.0946 -0.6829  0.2294
  108SAPE   H6X11174   6.865   7.248   3.987 -0.2915 -0.6085  0.9644
  108SAPE   H6Y11175   7.029   7.205   4.017 -0.6453  0.9232 -1.6914
  108SAPE   C3711176   6.895   7.114   4.156  0.1115  0.3077  0.5366
  108SAPE   H7X11177   6.979   7.045   4.178 -1.7697 -2.6527 -0.9182
  108SAPE   H7Y11178   6.802   7.052   4.160  0.7719 -0.7466  0.0350
  108SAPE   C3811179   6.885   7.234   4.246 -0.2568 -0.0171 -0.5590
  108SAPE   H8X11180   6.820   7.308   4.195  1.9029  0.5523 -2.6767
  108SAPE   H8Y11181   6.980   7.291   4.253 -1.7858  2.5131  2.0887
  108SAPE   C3911182   6.837   7.208   4.388  1.3693  0.3999 -0.1967
  108SAPE   H9X11183   6.772   7.120   4.402 -0.6388  1.7268 -0.7515
  108SAPE   H9Y11184   6.781   7.298   4.422  0.9004 -0.3431  1.0472
  108SAPE  C31011185   6.953   7.180   4.479 -0.8450 -0.2605 -0.0655
  108SAPE  H10X11186   7.028   7.256   4.451 -1.9014 -0.4379 -3.9000
  108SAPE  H10Y11187   6.994   7.078   4.460 -1.7947 -0.9839  1.4732
  108SAPE  C31111188   6.913   7.190   4.630 -0.6305 -0.4577 -0.0012
  108SAPE  H11X11189   6.867   7.094   4.661 -1.5618 -0.1746 -0.4968
  108SAPE  H11Y11190   6.846   7.278   4.644  1.2821  0.7603  2.5654
  108SAPE  C31211191   7.040   7.202   4.719  1.3468 -0.5366 -0.5587
  108SAPE  H12X11192   7.106   7.286   4.686 -0.2316  1.0300  0.0897
  108SAPE  H12Y11193   7.101   7.110   4.707  0.6794 -1.1884  0.8088
  108SAPE  C31311194   7.009   7.208   4.871  0.7404  0.7234 -0.5652
  108SAPE  H13X11195   6.962   7.111   4.896  0.3985  1.1561  0.5455
  108SAPE  H13Y11196   6.930   7.285   4.886  1.6232  1.1431  2.6171
  108SAPE  C31411197   7.124   7.250   4.955 -0.0833  0.1706 -0.0969
  108SAPE  H14X11198   7.160   7.343   4.907  1.2532  0.6520  1.7491
  108SAPE  H14Y11199   7.206   7.176   4.942 -0.2359  0.0981 -0.6542
  108SAPE  C31511200   7.101   7.266   5.103  0.6624  0.3135 -0.2519
  108SAPE  H15X11201   7.067   7.174   5.154  1.3927  0.0478 -0.2298
  108SAPE  H15Y11202   7.023   7.338   5.137  0.9631 -0.1663  1.5963
  108SAPE  C31611203   7.226   7.299   5.184  0.8034 -0.8097  1.2486
  108SAPE  H16X11204   7.300   7.217   5.176  2.4345  0.7370 -0.7799
  108SAPE  H16Y11205   7.192   7.305   5.289  0.1286  3.0521  0.9648
  108SAPE  C31711206   7.292   7.425   5.140  0.6395 -0.0250  0.0446
  108SAPE  H17X11207   7.221   7.509   5.126  0.2619 -0.5516 -1.3882
  108SAPE  H17Y11208   7.353   7.415   5.048 -1.5854  3.1925 -2.0028
  108SAPE  C31811209   7.383   7.471   5.246 -0.0070  0.7761  0.3448
  108SAPE  H18X11210   7.478   7.413   5.253 -0.3069  0.2907  0.3908
  108SAPE  H18Y11211   7.312   7.471   5.331 -4.8234  1.9375 -3.2772
  108SAPE  H18Z11212   7.405   7.577   5.223 -1.6340  0.7037 -1.7651
  109SAPE     N11213   4.578   6.095   3.369  0.0725  0.4050  0.0512
  109SAPE   HN111214   4.547   6.089   3.270 -1.9350  3.6888  0.3419
  109SAPE   HN211215   4.514   6.161   3.417  1.0781  0.6182  1.1681
  109SAPE   HN311216   4.679   6.123   3.369  0.4010 -0.6586 -1.1046
  109SAPE   C1211217   4.586   5.963   3.441  0.8454 -0.1901 -0.1239
  109SAPE  H12A11218   4.584   5.980   3.551  1.9870  0.5489 -0.2068
  109SAPE  H12B11219   4.679   5.909   3.414  0.3145 -0.6215 -1.1476
  109SAPE   C1111220   4.449   5.888   3.405 -0.4182 -0.4281  0.6112
  109SAPE  H11A11221   4.374   5.959   3.446 -1.8396 -1.0622 -0.7763
  109SAPE  H11B11222   4.447   5.792   3.461  1.3881 -1.0981 -0.3985
  109SAPE     P11223   4.495   5.739   3.196  0.0656  0.2129 -0.1630
  109SAPE   O1311224   4.453   5.735   3.056  0.4602 -0.3316 -0.0062
  109SAPE   O1411225   4.640   5.730   3.223 -0.6875 -0.4635 -0.3927
  109SAPE   O1211226   4.441   5.873   3.258 -0.7464 -0.0338  0.8596
  109SAPE   O1111227   4.402   5.636   3.266 -0.1234  0.2635 -0.4495
  109SAPE    C111228   4.264   5.624   3.279  0.0899  0.8347 -0.0057
  109SAPE    HA11229   4.212   5.719   3.255 -0.7278  0.6008  0.7837
  109SAPE    HB11230   4.230   5.546   3.208  0.8913  1.6665 -1.3428
  109SAPE    C211231   4.217   5.573   3.424 -0.4895  0.8927 -0.0672
  109SAPE    HS11232   4.113   5.534   3.419  0.0605 -0.5520 -0.6397
  109SAPE   O2111233   4.223   5.677   3.516  0.3495  0.5062  0.5696
  109SAPE   C2111234   4.122   5.771   3.504  0.0012 -0.1505 -0.1932
  109SAPE   O2211235   4.046   5.778   3.413  0.1171 -0.2067 -0.2840
  109SAPE   C2211236   4.130   5.854   3.628 -0.1393 -0.4497 -0.0464
  109SAPE   H2R11237   4.236   5.864   3.656 -0.1339  0.3118 -0.3094
  109SAPE   H2S11238   4.087   5.954   3.603 -1.6603 -0.8413  0.8412
  109SAPE    C311239   4.311   5.459   3.474  0.6741 -0.3619  0.3348
  109SAPE    HX11240   4.403   5.504   3.518  0.4155 -1.6650  2.3362
  109SAPE    HY11241   4.337   5.389   3.393 -0.3570  0.0767 -0.3898
  109SAPE   O3111242   4.262   5.375   3.589  0.1128  0.1315  0.1579
  109SAPE   C3111243   4.147   5.305   3.566  0.6510  0.1152  0.3328
  109SAPE   O3211244   4.087   5.292   3.464  0.4995 -0.1674  0.2739
  109SAPE   C3211245   4.136   5.214   3.688  0.5781  0.0185  0.6542
  109SAPE   H2X11246   4.189   5.265   3.772  2.4121  1.8805 -1.4940
  109SAPE   H2Y11247   4.183   5.116   3.667 -0.9320 -0.6194  0.1307
  109SAPE   C2311248   4.039   5.802   3.739  1.4268 -0.4668 -0.1015
  109SAPE   H3R11249   3.940   5.788   3.691  1.6294 -3.8743  0.2363
  109SAPE   H3S11250   4.032   5.881   3.817  0.4723 -1.5937  0.9916
  109SAPE   C2411251   4.091   5.672   3.804 -0.1487 -0.3606  0.8776
  109SAPE   H4R11252   4.080   5.595   3.725 -0.4841 -0.1513  0.7185
  109SAPE   H4S11253   4.020   5.627   3.877  1.3404 -1.1782  1.8824
  109SAPE   C2511254   4.225   5.675   3.864 -0.7983  0.3146  0.5944
  109SAPE   H5R11255   4.310   5.688   3.796 -0.4270  3.1542  1.4956
  109SAPE   C2611256   4.263   5.670   3.995  1.0540 -0.3384  0.1566
  109SAPE   H6R11257   4.365   5.672   4.037  0.6526 -3.5504  1.6302
  109SAPE   C2711258   4.167   5.663   4.109 -0.1953  0.5194  0.0053
  109SAPE   H7R11259   4.209   5.584   4.176  0.7783  0.7327 -0.3340
  109SAPE   H7S11260   4.073   5.624   4.064  0.9112 -2.1365 -0.2370
  109SAPE   C2811261   4.130   5.801   4.167  0.0441  0.5978 -0.8491
  109SAPE   H8R11262   4.116   5.876   4.087 -0.8066  3.1240  1.4988
  109SAPE   C2911263   4.124   5.818   4.304 -0.3956 -0.0398  0.5088
  109SAPE   H9R11264   4.112   5.921   4.342  1.3181  1.3542 -2.3736
  109SAPE  C21011265   4.149   5.707   4.406  0.0139  0.4160 -0.2432
  109SAPE  H10R11266   4.250   5.662   4.394  0.5533  1.1582  1.2951
  109SAPE  H10S11267   4.087   5.619   4.378  0.2130  0.0184  0.5414
  109SAPE  C21111268   4.136   5.738   4.551  0.0025  0.0533 -0.0822
  109SAPE  H11R11269   4.114   5.842   4.580  3.8891  0.2763  2.8973
  109SAPE  C21211270   4.140   5.653   4.655  0.2103  0.1592 -0.0433
  109SAPE  H12R11271   4.124   5.686   4.759  0.8716  1.2545 -0.2695
  109SAPE  C21311272   4.167   5.506   4.645  0.4602 -0.7319  0.0201
  109SAPE  H13R11273   4.147   5.456   4.548  1.9452 -0.2705 -0.5563
  109SAPE  H13S11274   4.090   5.457   4.709 -2.0518  2.1734 -0.4939
  109SAPE  C21411275   4.298   5.459   4.688 -0.7733 -0.1278 -0.2225
  109SAPE  H14R11276   4.358   5.423   4.604  1.4182 -1.0011  1.6003
  109SAPE  C21511277   4.352   5.458   4.814  0.1984 -0.0301 -0.2744
  109SAPE  H15R11278   4.454   5.420   4.829  0.2010 -0.0825 -0.4248
  109SAPE  C21611279   4.267   5.495   4.935 -0.3858 -0.1511 -0.4348
  109SAPE  H16R11280   4.228   5.406   4.989  0.7900 -0.0213  0.6695
  109SAPE  H16S11281   4.184   5.560   4.900  0.2580 -0.2740 -2.2662
  109SAPE  C21711282   4.353   5.575   5.030  0.2257 -0.5434 -0.3234
  109SAPE  H17R11283   4.292   5.607   5.117  1.6832 -1.1680  0.9681
  109SAPE  H17S11284   4.398   5.668   4.990 -2.2281  0.5684 -0.7426
  109SAPE  C21811285   4.467   5.506   5.097 -0.1152 -0.1020  0.6595
  109SAPE  H18R11286   4.562   5.513   5.040 -0.8805  1.4989 -0.4968
  109SAPE  H18S11287   4.444   5.401   5.122  0.6609 -0.6991 -1.0203
  109SAPE  C21911288   4.503   5.573   5.229 -0.8788 -0.7609 -0.3832
  109SAPE  H19R11289   4.411   5.595   5.287 -0.9906 -2.1858  0.0157
  109SAPE  H19S11290   4.545   5.671   5.197 -0.1034 -1.8582 -3.0534
  109SAPE  C22011291   4.604   5.496   5.310  0.1893 -0.1641 -0.6202
  109SAPE  H20R11292   4.542   5.418   5.360  1.2321 -1.8576 -1.8712
  109SAPE  H20S11293   4.652   5.550   5.394 -0.1408 -0.2627 -0.3621
  109SAPE  H20T11294   4.679   5.439   5.251 -0.5344 -0.8295 -0.9220
  109SAPE   C3311295   3.994   5.189   3.732  0.2714 -0.3906  0.7952
  109SAPE   H3X11296   3.994   5.115   3.815  1.4479  0.3127  1.4403
  109SAPE   H3Y11297   3.934   5.143   3.649  0.2501  1.0028  0.0148
  109SAPE   C3411298   3.904   5.307   3.772  0.1309 -0.2980  0.6275
  109SAPE   H4X11299   3.801   5.266   3.769  0.3418 -0.8900  1.2569
  109SAPE   H4Y11300   3.904   5.385   3.693 -0.6394 -0.7587  0.1532
  109SAPE   C3511301   3.949   5.360   3.904  0.2278 -0.5745 -0.5286
  109SAPE   H5X11302   3.916   5.466   3.900 -1.3370 -1.0295 -0.2545
  109SAPE   H5Y11303   4.060   5.358   3.917  0.4388  1.3784 -1.5744
  109SAPE   C3611304   3.884   5.303   4.038 -0.1099 -0.3983  0.5249
  109SAPE   H6X11305   3.917   5.197   4.050  0.3047 -0.4825 -1.0560
  109SAPE   H6Y11306   3.776   5.307   4.010  0.2275  1.1718 -0.7437
  109SAPE   C3711307   3.905   5.388   4.162 -0.1357  0.7271  0.0514
  109SAPE   H7X11308   3.883   5.492   4.132  1.1747  1.0940  0.2918
  109SAPE   H7Y11309   4.014   5.394   4.184  0.8178  1.2109 -3.9811
  109SAPE   C3811310   3.819   5.356   4.289  0.2922 -0.1859  0.9916
  109SAPE   H8X11311   3.826   5.246   4.299  1.4632 -0.1350  0.8994
  109SAPE   H8Y11312   3.715   5.394   4.280  0.6463  0.6605  0.3611
  109SAPE   C3911313   3.878   5.428   4.404  0.3437  0.3125 -0.6166
  109SAPE   H9X11314   3.877   5.539   4.393 -3.1462  0.1678 -3.6891
  109SAPE   H9Y11315   3.980   5.388   4.421 -0.2422 -1.1139 -0.2939
  109SAPE  C31011316   3.800   5.410   4.536  0.7614  0.3341 -0.2383
  109SAPE  H10X11317   3.696   5.442   4.512  0.4840 -0.5781 -0.3071
  109SAPE  H10Y11318   3.843   5.475   4.615  1.2006 -0.9643  0.6292
  109SAPE  C31111319   3.800   5.264   4.582 -0.2634 -0.0945  0.1585
  109SAPE  H11X11320   3.886   5.246   4.650 -1.3529 -1.2556  1.2854
  109SAPE  H11Y11321   3.809   5.181   4.508  1.1309 -0.8706  1.1547
  109SAPE  C31211322   3.675   5.240   4.668  0.5821  0.4190 -0.1465
  109SAPE  H12X11323   3.593   5.285   4.607 -0.4972  1.9568  2.2874
  109SAPE  H12Y11324   3.698   5.306   4.755 -0.8498  1.3389 -0.4284
  109SAPE  C31311325   3.655   5.095   4.709  0.0009  0.3409  0.0864
  109SAPE  H13X11326   3.615   5.035   4.625  0.7902 -3.0033  1.9422
  109SAPE  H13Y11327   3.584   5.074   4.791  0.7283  0.2888  0.7156
  109SAPE  C31411328   3.790   5.029   4.750  0.3757  0.1327 -0.1220
  109SAPE  H14X11329   3.843   5.102   4.815 -0.0978  0.4727 -0.1147
  109SAPE  H14Y11330   3.846   5.001   4.658  0.0337 -0.0886 -0.2631
  109SAPE  C31511331   3.775   4.909   4.842 -0.2166  0.0049 -0.5188
  109SAPE  H15X11332   3.870   4.853   4.831  0.6845  1.4022 -0.0607
  109SAPE  H15Y11333   3.688   4.847   4.809 -0.6194  0.3575 -0.1314
  109SAPE  C31611334   3.749   4.941   4.992  0.1229 -0.0223 -0.1921
  109SAPE  H16X11335   3.659   5.004   5.010  1.1360  1.4056  0.0619
  109SAPE  H16Y11336   3.833   4.996   5.038 -0.2261 -0.0021  0.4311
  109SAPE  C31711337   3.725   4.806   5.068 -0.3412  0.1741 -0.1839
  109SAPE  H17X11338   3.799   4.730   5.033 -0.2556  0.0550  0.2472
  109SAPE  H17Y11339   3.619   4.777   5.050 -0.8976  1.5232  0.7951
  109SAPE  C31811340   3.749   4.819   5.216  0.8341  0.6534  0.6938
  109SAPE  H18X11341   3.651   4.844   5.263 -0.4287 -1.1274 -0.8493
  109SAPE  H18Y11342   3.843   4.873   5.239  2.2219 -0.6130 -1.6279
  109SAPE  H18Z11343   3.773   4.717   5.254 -2.6958 -0.3243  0.6949
  110SAPE     N11344   3.007   5.083   3.347  0.6823 -0.0250  0.5555
  110SAPE   HN111345   3.033   5.179   3.318 -1.8790 -0.1035 -2.5890
  110SAPE   HN211346   2.904   5.095   3.342  0.8936  2.9720  1.5217
  110SAPE   HN311347   3.037   5.060   3.444  2.3731 -2.2908 -0.4119
  110SAPE   C1211348   3.067   4.982   3.249  0.3028  0.4746  0.0714
  110SAPE  H12A11349   3.175   5.005   3.239 -0.2586  3.4024 -0.1603
  110SAPE  H12B11350   3.010   5.000   3.155  0.6432  1.2212  0.0015
  110SAPE   C1111351   3.045   4.839   3.302  0.1792  0.1270 -0.2974
  110SAPE  H11A11352   3.074   4.827   3.409 -2.1546 -1.5812  0.2160
  110SAPE  H11B11353   3.099   4.762   3.242 -2.0919  0.0138 -2.3459
  110SAPE     P11354   2.844   4.675   3.256 -0.1404 -0.0070  0.2902
  110SAPE   O1311355   2.697   4.693   3.277  0.1449  0.2042  0.1671
  110SAPE   O1411356   2.901   4.616   3.132 -0.2305  0.4459  0.1920
  110SAPE   O1211357   2.907   4.818   3.284  0.2198 -0.0587  0.0836
  110SAPE   O1111358   2.888   4.598   3.379 -0.5029  0.0489 -0.0850
  110SAPE    C111359   3.005   4.516   3.388 -0.3462  0.2315 -0.0819
  110SAPE    HA11360   3.068   4.544   3.300 -0.6867 -0.1534 -0.4517
  110SAPE    HB11361   3.056   4.538   3.484 -1.5361 -0.6258  0.7663
  110SAPE    C211362   2.971   4.365   3.370 -0.4658  0.1533 -0.3480
  110SAPE    HS11363   2.930   4.342   3.269  1.9906  0.6749 -1.5514
  110SAPE   O2111364   2.871   4.327   3.463  0.1894 -0.5053  0.1984
  110SAPE   C2111365   2.835   4.200   3.442  0.1410  0.6564 -0.4872
  110SAPE   O2211366   2.858   4.134   3.341  0.4894 -1.0579  0.3444
  110SAPE   C2211367   2.742   4.143   3.551 -0.1484 -0.4303 -0.1213
  110SAPE   H2R11368   2.790   4.170   3.647 -1.0215  0.0838  0.1724
  110SAPE   H2S11369   2.645   4.195   3.542  1.5309  2.6817 -1.8872
  110SAPE    C311370   3.099   4.280   3.374 -0.5101  0.3837 -0.5664
  110SAPE    HX11371   3.080   4.172   3.360 -1.0493  0.1796  1.4323
  110SAPE    HY11372   3.165   4.320   3.294  2.3348  0.1255  1.5076
  110SAPE   O3111373   3.170   4.302   3.499 -0.3067  0.2073  0.2396
  110SAPE   C3111374   3.194   4.196   3.574  0.2612 -0.1877  0.0373
  110SAPE   O3211375   3.151   4.081   3.552  0.2941 -0.0151  0.2529
  110SAPE   C3211376   3.268   4.234   3.698 -0.2059 -0.2627  0.3576
  110SAPE   H2X11377   3.316   4.333   3.684  0.4516 -0.4610  1.1233
  110SAPE   H2Y11378   3.352   4.165   3.723 -0.2451  0.2120  1.9074
  110SAPE   C2311379   2.706   3.996   3.540  0.3669 -0.1949 -0.1283
  110SAPE   H3R11380   2.651   3.991   3.443  1.1408  2.2674 -0.7653
  110SAPE   H3S11381   2.641   3.969   3.626 -0.1965  3.3331  0.7179
  110SAPE   C2411382   2.833   3.908   3.555 -0.2293  0.1453  0.2323
  110SAPE   H4R11383   2.896   3.945   3.639 -1.6792  1.3891  0.8463
  110SAPE   H4S11384   2.900   3.918   3.468  0.7772  0.7345  1.0529
  110SAPE   C2511385   2.792   3.764   3.560 -0.3546 -0.5257  0.1616
  110SAPE   H5R11386   2.770   3.717   3.463  2.9974  0.8847 -1.4574
  110SAPE   C2611387   2.791   3.690   3.671 -0.4923 -1.1146  0.2188
  110SAPE   H6R11388   2.762   3.585   3.658  1.6017 -2.0244  2.2808
  110SAPE   C2711389   2.825   3.730   3.814 -0.3992  0.0726  0.1598
  110SAPE   H7R11390   2.852   3.837   3.832 -0.0067 -0.1164  0.7254
  110SAPE   H7S11391   2.917   3.673   3.839  0.3609  0.4122 -1.6975
  110SAPE   C2811392   2.716   3.697   3.916  0.5364 -0.4099  0.4823
  110SAPE   H8R11393   2.616   3.719   3.874  0.9335  1.0100  0.2416
  110SAPE   C2911394   2.720   3.658   4.044 -0.1348 -0.1213 -0.3343
  110SAPE   H9R11395   2.621   3.643   4.090 -0.3735  0.4021 -0.6674
  110SAPE  C21011396   2.845   3.631   4.128  0.4207  0.2159 -0.0621
  110SAPE  H10R11397   2.925   3.703   4.103  0.7464 -0.3384 -0.6458
  110SAPE  H10S11398   2.903   3.540   4.100  0.6028  0.1053  0.6748
  110SAPE  C21111399   2.806   3.627   4.280  0.9587 -0.8613  0.1779
  110SAPE  H11R11400   2.763   3.726   4.300  1.0458 -0.8783  0.4461
  110SAPE  C21211401   2.796   3.522   4.356  1.1964  0.3217 -0.7628
  110SAPE  H12R11402   2.777   3.536   4.464 -0.5449 -0.1860 -0.9627
  110SAPE  C21311403   2.853   3.388   4.320  0.0187 -0.6451  0.4665
  110SAPE  H13R11404   2.839   3.357   4.214  0.2322 -1.3950  0.6516
  110SAPE  H13S11405   2.807   3.297   4.362  1.3997 -2.0512 -0.9011
  110SAPE  C21411406   3.000   3.376   4.350 -0.0642  1.0202  0.2338
  110SAPE  H14R11407   3.063   3.388   4.261  1.2976  0.4808  1.0900
  110SAPE  C21511408   3.059   3.339   4.466  0.2156 -0.3774 -0.2754
  110SAPE  H15R11409   3.167   3.352   4.483 -0.1082  1.5967  0.4561
  110SAPE  C21611410   2.988   3.300   4.592  0.0741  0.0340 -0.0882
  110SAPE  H16R11411   3.018   3.203   4.638  0.8631 -0.0116 -0.6846
  110SAPE  H16S11412   2.888   3.265   4.559  0.7797 -0.9686 -1.2845
  110SAPE  C21711413   2.977   3.402   4.698 -0.2434 -0.2703 -0.1155
  110SAPE  H17R11414   2.887   3.383   4.760  0.6128  0.7657  1.5064
  110SAPE  H17S11415   2.946   3.500   4.656  0.2069  0.2781  0.8126
  110SAPE  C21811416   3.096   3.409   4.792  0.0219 -0.3563  0.0541
  110SAPE  H18R11417   3.183   3.426   4.726 -0.2505 -2.4770 -0.9417
  110SAPE  H18S11418   3.105   3.309   4.841 -2.7230 -1.4565 -1.4115
  110SAPE  C21911419   3.095   3.524   4.893  0.5276  0.6429 -0.1529
  110SAPE  H19R11420   3.002   3.509   4.952  0.5837  2.0540  0.3300
  110SAPE  H19S11421   3.081   3.617   4.834  1.4518  0.3612 -0.8356
  110SAPE  C22011422   3.217   3.531   4.982  0.0067  0.8661 -0.0497
  110SAPE  H20R11423   3.251   3.440   5.037  3.4670  1.4316 -1.0286
  110SAPE  H20S11424   3.193   3.613   5.054 -1.7683  1.4632 -1.2624
  110SAPE  H20T11425   3.305   3.558   4.920 -1.7925  0.1729 -3.1203
  110SAPE   C3311426   3.184   4.247   3.830 -0.0212  0.0652 -0.1000
  110SAPE   H3X11427   3.154   4.148   3.871  1.0589 -0.1805  0.1442
  110SAPE   H3Y11428   3.087   4.295   3.809 -0.4938 -0.8099  0.0016
  110SAPE   C3411429   3.252   4.311   3.948 -0.2890 -0.4091 -0.1135
  110SAPE   H4X11430   3.280   4.419   3.946 -2.3179  0.1732  0.5607
  110SAPE   H4Y11431   3.341   4.252   3.978  0.1960  0.7296  0.8021
  110SAPE   C3511432   3.155   4.318   4.069 -0.5259 -0.0945  0.4307
  110SAPE   H5X11433   3.222   4.278   4.147 -0.4542 -0.5362  0.1459
  110SAPE   H5Y11434   3.066   4.252   4.063  0.7756 -1.9204  0.3828
  110SAPE   C3611435   3.121   4.466   4.102  0.0004  0.1033  0.5130
  110SAPE   H6X11436   3.094   4.514   4.006  1.1526  0.5193  0.3778
  110SAPE   H6Y11437   3.211   4.521   4.137 -1.2176  2.7173 -0.2582
  110SAPE   C3711438   3.011   4.489   4.200 -0.1898 -0.4599 -0.1718
  110SAPE   H7X11439   2.923   4.444   4.149 -0.0010  0.1750 -1.0915
  110SAPE   H7Y11440   3.005   4.599   4.213  3.0543 -0.1482 -0.6038
  110SAPE   C3811441   3.021   4.425   4.334 -0.7644 -0.0626  0.3351
  110SAPE   H8X11442   3.111   4.453   4.393 -1.5552 -1.1553  2.1320
  110SAPE   H8Y11443   3.034   4.317   4.314  0.8028  0.1992 -0.2071
  110SAPE   C3911444   2.883   4.448   4.411 -0.0870 -0.0623 -1.1516
  110SAPE   H9X11445   2.808   4.393   4.350 -1.0463 -0.1151  0.0488
  110SAPE   H9Y11446   2.855   4.555   4.407 -0.4032  0.0281  1.8124
  110SAPE  C31011447   2.879   4.390   4.554 -0.5182 -0.4976  0.0336
  110SAPE  H10X11448   2.938   4.452   4.624  0.4150 -2.3592  0.9638
  110SAPE  H10Y11449   2.922   4.289   4.568 -2.4307 -1.3302  0.1556
  110SAPE  C31111450   2.742   4.397   4.616  0.4013 -0.0333  0.0265
  110SAPE  H11X11451   2.662   4.348   4.556 -1.2529  1.2141  1.1015
  110SAPE  H11Y11452   2.706   4.501   4.627 -0.5575 -0.4188  0.7360
  110SAPE  C31211453   2.747   4.318   4.747 -0.3528  0.1861 -0.1063
  110SAPE  H12X11454   2.801   4.385   4.818 -0.5676  1.3057 -0.9654
  110SAPE  H12Y11455   2.803   4.222   4.740  3.5897  2.2374  0.1390
  110SAPE  C31311456   2.608   4.298   4.798  0.6102  0.3783 -0.2586
  110SAPE  H13X11457   2.563   4.223   4.730  0.7803  0.8588 -0.9096
  110SAPE  H13Y11458   2.550   4.392   4.804  0.0408  0.2175 -2.3134
  110SAPE  C31411459   2.605   4.225   4.935  0.2637 -0.0027  0.1924
  110SAPE  H14X11460   2.634   4.287   5.023  1.9785  1.1551 -1.1202
  110SAPE  H14Y11461   2.688   4.152   4.925 -1.3193 -1.8068 -0.3687
  110SAPE  C31511462   2.472   4.144   4.967 -0.0444 -0.0512 -0.7553
  110SAPE  H15X11463   2.454   4.068   4.889 -2.5644 -0.6612  0.3361
  110SAPE  H15Y11464   2.390   4.219   4.959  2.0530  2.7126  1.2903
  110SAPE  C31611465   2.467   4.084   5.109  0.9704 -0.6095  0.3622
  110SAPE  H16X11466   2.361   4.067   5.140  0.4316  0.7771 -0.6221
  110SAPE  H16Y11467   2.510   4.155   5.182 -0.3673  0.5928  0.0351
  110SAPE  C31711468   2.550   3.956   5.123  0.0066 -1.3453 -0.5755
  110SAPE  H17X11469   2.657   3.978   5.103 -0.3926 -1.0036 -2.6232
  110SAPE  H17Y11470   2.543   3.876   5.046  1.2854 -1.9705 -0.0695
  110SAPE  C31811471   2.539   3.907   5.266 -0.2498 -0.2572 -0.0148
  110SAPE  H18X11472   2.615   3.958   5.329 -1.1193  0.0419  0.8110
  110SAPE  H18Y11473   2.566   3.799   5.262 -0.6220 -0.4552  2.0424
  110SAPE  H18Z11474   2.436   3.912   5.307 -0.7809 -2.8250 -0.8422
  111SAPE     N11475   1.257   3.863   2.521 -0.1341  0.0836  0.6083
  111SAPE   HN111476   1.200   3.950   2.529  1.3125  1.2680 -1.3255
  111SAPE   HN211477   1.286   3.861   2.422 -0.2282  0.6124  0.5699
  111SAPE   HN311478   1.195   3.780   2.532 -0.5314  0.0663 -1.3795
  111SAPE   C1211479   1.374   3.872   2.610 -0.3114  0.0058 -0.5212
  111SAPE  H12A11480   1.424   3.971   2.601 -0.7859  0.3309  0.3481
  111SAPE  H12B11481   1.452   3.796   2.588 -0.2179  0.2870 -1.1938
  111SAPE   C1111482   1.328   3.864   2.762  0.6014  0.0091  0.1411
  111SAPE  H11A11483   1.421   3.878   2.822  0.2315  2.7829  0.1937
  111SAPE  H11B11484   1.299   3.758   2.772 -2.3793  0.6970 -0.3895
  111SAPE     P11485   1.270   4.072   2.892 -0.3840  0.0471  0.0898
  111SAPE   O1311486   1.388   4.145   2.833 -0.0015 -0.6586  0.5129
  111SAPE   O1411487   1.148   4.151   2.919  0.2801  0.4671  0.6551
  111SAPE   O1211488   1.225   3.954   2.793 -0.0699 -0.2943 -0.2035
  111SAPE   O1111489   1.318   3.989   3.027  0.1919 -0.2281  0.2695
  111SAPE    C111490   1.442   4.032   3.090 -0.7450 -0.1253  0.2306
  111SAPE    HA11491   1.525   3.960   3.070 -0.6207  0.4942 -1.6044
  111SAPE    HB11492   1.479   4.128   3.048  1.4547 -1.2999 -0.7024
  111SAPE    C211493   1.434   4.072   3.243  0.3748 -0.1548 -0.3347
  111SAPE    HS11494   1.508   4.155   3.245  0.6502 -0.4182  0.7683
  111SAPE   O2111495   1.471   3.966   3.338  0.0839  0.2594  0.4603
  111SAPE   C2111496   1.605   3.944   3.335 -0.0087 -0.4009 -0.8875
  111SAPE   O2211497   1.684   4.017   3.281 -0.1344 -0.8705 -0.3820
  111SAPE   C2211498   1.639   3.817   3.416  0.1168  0.1393 -0.0499
  111SAPE   H2R11499   1.549   3.751   3.413  0.6673 -0.6059 -0.6157
  111SAPE   H2S11500   1.715   3.776   3.346 -0.6042 -0.1175 -0.7053
  111SAPE    C311501   1.292   4.118   3.271  0.0124  0.0932 -0.1989
  111SAPE    HX11502   1.217   4.037   3.265 -0.5152  0.3127  2.2211
  111SAPE    HY11503   1.252   4.184   3.191 -1.6920  1.3720  1.6148
  111SAPE   O3111504   1.279   4.187   3.400 -0.4778  0.1089  0.2559
  111SAPE   C3111505   1.275   4.321   3.395  0.6978  0.4806  0.3526
  111SAPE   O3211506   1.269   4.390   3.296  0.0309 -0.2855 -0.3336
  111SAPE   C3211507   1.246   4.382   3.532  0.5490 -0.1658 -0.0071
  111SAPE   H2X11508   1.300   4.479   3.533  2.2692 -1.0821  0.8280
  111SAPE   H2Y11509   1.277   4.321   3.620 -2.9007  1.2564  2.4083
  111SAPE   C2311510   1.703   3.855   3.548  0.1413  0.6051 -0.0282
  111SAPE   H3R11511   1.807   3.883   3.521  0.6835 -0.1873  1.1749
  111SAPE   H3S11512   1.708   3.769   3.618 -0.0274  1.1274  0.6358
  111SAPE   C2411513   1.642   3.974   3.628 -0.1495  0.3281 -0.4673
  111SAPE   H4R11514   1.652   4.067   3.567 -0.6258  0.1203 -0.8734
  111SAPE   H4S11515   1.712   3.983   3.714 -0.6315 -0.0930 -0.0274
  111SAPE   C2511516   1.491   3.964   3.669 -0.3859 -0.0422 -0.0545
  111SAPE   H5R11517   1.418   3.947   3.589  0.2025  2.7936 -1.3257
  111SAPE   C2611518   1.446   3.971   3.800 -0.5387 -0.0859 -0.2040
  111SAPE   H6R11519   1.337   3.962   3.810 -0.4997  0.2464  0.6509
  111SAPE   C2711520   1.516   3.994   3.932  0.5869 -0.0089  0.1592
  111SAPE   H7R11521   1.612   3.937   3.925  0.6932  0.2922 -1.0902
  111SAPE   H7S11522   1.456   3.943   4.010  1.2362  0.1500  0.7727
  111SAPE   C2811523   1.549   4.132   3.978 -0.7844  0.8357 -0.6130
  111SAPE   H8R11524   1.626   4.180   3.916  1.9490 -0.3153  1.6465
  111SAPE   C2911525   1.511   4.206   4.087  0.1461 -0.6315 -0.2466
  111SAPE   H9R11526   1.559   4.303   4.108  0.6466 -1.0382  0.5606
  111SAPE  C21011527   1.421   4.163   4.196  0.2732  0.2893  0.4519
  111SAPE  H10R11528   1.476   4.107   4.275  0.7033  1.0891  0.7241
  111SAPE  H10S11529   1.355   4.087   4.149 -0.8100  1.3080  0.2706
  111SAPE  C21111530   1.342   4.282   4.244 -0.2679  0.2841 -0.3634
  111SAPE  H11R11531   1.288   4.348   4.175  0.5610  0.3531 -0.9480
  111SAPE  C21211532   1.321   4.297   4.373  0.3047  0.2404  0.1716
  111SAPE  H12R11533   1.262   4.385   4.401  1.4748  1.0775  0.0989
  111SAPE  C21311534   1.373   4.217   4.498 -0.3224 -1.1890  0.2647
  111SAPE  H13R11535   1.393   4.299   4.570 -1.3781  0.6912 -1.4955
  111SAPE  H13S11536   1.465   4.157   4.482  0.6454 -0.3017  2.1574
  111SAPE  C21411537   1.269   4.125   4.554  0.6224  0.5227  0.1637
  111SAPE  H14R11538   1.199   4.094   4.476  2.5355 -0.2330 -1.3495
  111SAPE  C21511539   1.265   4.086   4.685  0.3500 -0.2497 -0.0958
  111SAPE  H15R11540   1.181   4.023   4.719  1.9620 -1.3461  2.1287
  111SAPE  C21611541   1.375   4.121   4.783 -0.3556  0.3881  0.5750
  111SAPE  H16R11542   1.328   4.190   4.857 -1.2689 -0.1417  0.5089
  111SAPE  H16S11543   1.457   4.181   4.739 -0.8844  0.5366 -0.2365
  111SAPE  C21711544   1.434   3.993   4.854 -0.0712 -0.0595 -0.2284
  111SAPE  H17R11545   1.488   3.935   4.775  0.1827 -1.9928  1.2687
  111SAPE  H17S11546   1.348   3.926   4.875 -0.5387  0.6479  0.1224
  111SAPE  C21811547   1.524   4.028   4.970 -0.5700  0.9806 -0.2657
  111SAPE  H18R11548   1.586   4.119   4.951 -1.5996  1.8054  0.2171
  111SAPE  H18S11549   1.591   3.942   4.991 -0.9813  0.1570 -2.2095
  111SAPE  C21911550   1.443   4.047   5.101 -0.2244 -0.3247 -0.4603
  111SAPE  H19R11551   1.379   3.957   5.101  2.0654 -2.0601 -1.4685
  111SAPE  H19S11552   1.373   4.131   5.079  0.1851  0.5565  1.4214
  111SAPE  C22011553   1.522   4.080   5.227 -1.1017  0.4384 -0.0004
  111SAPE  H20R11554   1.614   4.021   5.243 -0.9109  0.9684  0.9597
  111SAPE  H20S11555   1.461   4.083   5.319 -1.1617 -2.6010  0.1602
  111SAPE  H20T11556   1.566   4.181   5.212  2.4888 -0.9048  0.6124
  111SAPE   C3311557   1.097   4.415   3.550  0.0846  0.4848  0.7188
  111SAPE   H3X11558   1.034   4.334   3.508  1.0807 -0.0425  0.2102
  111SAPE   H3Y11559   1.076   4.513   3.501 -0.9443  0.5579  1.2754
  111SAPE   C3411560   1.073   4.453   3.692 -0.0131 -0.0528  0.5120
  111SAPE   H4X11561   0.989   4.525   3.689 -0.3533 -0.2855  2.8150
  111SAPE   H4Y11562   1.163   4.502   3.735 -0.5618 -0.5159  2.2963
  111SAPE   C3511563   1.046   4.330   3.783 -0.8214  0.0708 -0.7741
  111SAPE   H5X11564   1.141   4.276   3.798 -1.2068 -0.2293  0.7793
  111SAPE   H5Y11565   0.967   4.267   3.736 -0.1213 -0.9122 -0.6632
  111SAPE   C3611566   1.006   4.377   3.924 -0.1552  0.0472 -0.0064
  111SAPE   H6X11567   0.919   4.446   3.912  0.1020  0.5890  1.1275
  111SAPE   H6Y11568   1.082   4.453   3.953 -0.0562  0.2265 -0.7197
  111SAPE   C3711569   0.994   4.275   4.036 -0.3630  0.0076 -0.0955
  111SAPE   H7X11570   1.096   4.230   4.041  0.2927  1.3174 -1.1282
  111SAPE   H7Y11571   0.928   4.188   4.015  0.5287 -0.6035 -0.4138
  111SAPE   C3811572   0.968   4.343   4.173  0.2796  0.0234 -0.1079
  111SAPE   H8X11573   0.887   4.419   4.166 -2.2539 -2.2549  2.0279
  111SAPE   H8Y11574   1.065   4.389   4.201  1.1454  0.0489 -2.8093
  111SAPE   C3911575   0.932   4.245   4.283 -0.4647  0.2967 -0.1162
  111SAPE   H9X11576   1.016   4.172   4.281 -1.2519 -0.6231 -1.4493
  111SAPE   H9Y11577   0.829   4.205   4.266 -0.2539  0.0173 -0.7610
  111SAPE  C31011578   0.929   4.307   4.419  0.3260  0.7257 -0.4525
  111SAPE  H10X11579   0.866   4.398   4.418 -0.4772  0.1755 -0.4671
  111SAPE  H10Y11580   1.035   4.340   4.431  0.3666 -0.0833  1.7732
  111SAPE  C31111581   0.909   4.208   4.538 -0.6667 -0.1630 -1.3700
  111SAPE  H11X11582   0.964   4.112   4.525 -0.5871 -0.6958  2.0912
  111SAPE  H11Y11583   0.802   4.180   4.545 -0.1032 -2.5574 -1.0922
  111SAPE  C31211584   0.950   4.261   4.679  0.3467  0.1957 -0.3541
  111SAPE  H12X11585   1.055   4.296   4.669 -0.6683  3.7816  0.1076
  111SAPE  H12Y11586   0.942   4.173   4.746  0.6763 -1.2143 -2.0947
  111SAPE  C31311587   0.867   4.381   4.734 -0.8483  0.9112 -0.2362
  111SAPE  H13X11588   0.765   4.338   4.729  0.4125 -2.5442  0.9702
  111SAPE  H13Y11589   0.864   4.466   4.663 -1.8915  1.5750  0.5639
  111SAPE  C31411590   0.912   4.412   4.880  0.3164 -0.6005 -0.5454
  111SAPE  H14X11591   1.014   4.454   4.866  0.8996 -1.1418  1.6643
  111SAPE  H14Y11592   0.932   4.325   4.946  1.3713 -1.1066 -1.5097
  111SAPE  C31511593   0.830   4.521   4.944 -0.0633 -0.8781  0.1647
  111SAPE  H15X11594   0.780   4.589   4.872 -0.8116 -0.2928  1.1882
  111SAPE  H15Y11595   0.894   4.586   5.008  1.2324 -1.0141 -0.9716
  111SAPE  C31611596   0.727   4.471   5.043  0.5482  0.0820  0.3159
  111SAPE  H16X11597   0.769   4.392   5.109  1.2016 -0.8442 -1.1535
  111SAPE  H16Y11598   0.645   4.420   4.988  1.2049 -0.4834 -0.1548
  111SAPE  C31711599   0.674   4.587   5.131  0.0535 -0.3565  0.3104
  111SAPE  H17X11600   0.574   4.549   5.160  0.0727 -2.2433 -1.8005
  111SAPE  H17Y11601   0.643   4.679   5.076 -0.8905  0.1879  1.6870
  111SAPE  C31811602   0.756   4.622   5.260  0.5475  0.5279 -0.0792
  111SAPE  H18X11603   0.860   4.587   5.243  0.6582  0.2234  1.1420
  111SAPE  H18Y11604   0.719   4.567   5.349  2.0664  3.3104  2.4216
  111SAPE  H18Z11605   0.754   4.733   5.269 -2.4225  0.4962  0.9747
  112SAPE     N11606   6.281   2.843   2.906 -0.0006  0.2773 -0.3954
  112SAPE   HN111607   6.242   2.800   2.820 -1.4759  0.3686  0.1864
  112SAPE   HN211608   6.204   2.903   2.942 -0.8552 -2.3071  2.5258
  112SAPE   HN311609   6.368   2.892   2.877  1.4893 -1.7100  0.4494
  112SAPE   C1211610   6.308   2.747   3.016 -0.0341 -0.1665  0.2725
  112SAPE  H12A11611   6.329   2.807   3.107  2.0125 -0.6470  0.1583
  112SAPE  H12B11612   6.403   2.691   3.000  0.8555  1.4877 -0.4229
  112SAPE   C1111613   6.186   2.660   3.039  0.5440 -0.0717  0.8487
  112SAPE  H11A11614   6.214   2.584   3.114 -1.1613 -1.9247 -0.2742
  112SAPE  H11B11615   6.147   2.614   2.945 -1.0977 -0.3915  1.6439
  112SAPE     P11616   5.960   2.694   3.165 -0.0186  0.0715 -0.0917
  112SAPE   O1311617   5.901   2.811   3.230  0.0705  0.2704 -0.4775
  112SAPE   O1411618   5.880   2.621   3.065  0.2778  0.2463  0.7693
  112SAPE   O1211619   6.089   2.749   3.089 -0.0941 -0.1622  0.2749
  112SAPE   O1111620   6.024   2.592   3.269  0.3341  0.0522 -0.1326
  112SAPE    C111621   6.110   2.649   3.377 -0.0264 -0.4743  0.2203
  112SAPE    HA11622   6.176   2.566   3.413 -1.5714 -2.4991 -1.4007
  112SAPE    HB11623   6.177   2.729   3.337 -1.5701  1.1206  0.7012
  112SAPE    C211624   6.045   2.710   3.502 -0.3258  0.6184  0.6403
  112SAPE    HS11625   5.994   2.802   3.469 -1.7032 -0.0592  0.7841
  112SAPE   O2111626   6.145   2.733   3.602 -0.1239 -0.5248 -0.1565
  112SAPE   C2111627   6.212   2.850   3.598  0.1524 -0.4290  0.8982
  112SAPE   O2211628   6.176   2.948   3.534  0.0544  0.1809 -0.6561
  112SAPE   C2211629   6.353   2.830   3.649  0.1743  0.6773 -0.1456
  112SAPE   H2R11630   6.356   2.737   3.710 -0.5690  0.8055  0.0931
  112SAPE   H2S11631   6.416   2.828   3.558 -0.9938  0.3941 -0.9655
  112SAPE    C311632   5.933   2.609   3.554 -0.8246 -0.0530  0.3877
  112SAPE    HX11633   5.863   2.591   3.469 -2.1052 -0.4059  1.4860
  112SAPE    HY11634   5.873   2.669   3.625 -0.1323  2.2294 -0.8525
  112SAPE   O3111635   5.985   2.486   3.609 -1.1028 -0.4656 -0.4600
  112SAPE   C3111636   6.015   2.488   3.734 -0.0676  0.6292 -0.4004
  112SAPE   O3211637   5.996   2.581   3.810  0.0467  0.3137 -0.7182
  112SAPE   C3211638   6.090   2.365   3.772  0.0039  0.2437  0.4391
  112SAPE   H2X11639   6.196   2.391   3.791 -0.6077  1.7577  2.0537
  112SAPE   H2Y11640   6.085   2.290   3.690 -0.6718  1.4905 -0.7046
  112SAPE   C2311641   6.387   2.951   3.739 -0.7789 -0.4042  0.1805
  112SAPE   H3R11642   6.333   2.950   3.835  2.5187 -0.1778  2.1966
  112SAPE   H3S11643   6.359   3.043   3.683 -2.4746 -1.4733 -0.8226
  112SAPE   C2411644   6.538   2.964   3.786 -0.0417  0.1157  0.6205
  112SAPE   H4R11645   6.610   2.964   3.702  1.1690 -1.3428  1.6096
  112SAPE   H4S11646   6.563   2.879   3.853  1.5852  0.3348  0.3406
  112SAPE   C2511647   6.563   3.099   3.861  0.6829  0.8848  0.1745
  112SAPE   H5R11648   6.580   3.185   3.794 -1.5796 -0.8468 -2.8915
  112SAPE   C2611649   6.556   3.126   3.993  0.2983  0.0430 -0.3701
  112SAPE   H6R11650   6.577   3.226   4.034  0.0046 -0.2554  0.5514
  112SAPE   C2711651   6.537   3.019   4.098 -0.4371  0.3308 -0.8490
  112SAPE   H7R11652   6.496   2.925   4.055  0.7988  0.3460 -2.1617
  112SAPE   H7S11653   6.460   3.052   4.171  1.8172  3.5167  0.3164
  112SAPE   C2811654   6.672   2.987   4.154  0.1899  1.1437 -0.2881
  112SAPE   H8R11655   6.743   2.958   4.075  0.9554  0.5529  0.5984
  112SAPE   C2911656   6.708   3.001   4.281 -0.3438 -0.0051  0.4338
  112SAPE   H9R11657   6.815   2.993   4.302 -0.3666  1.8552  1.4704
  112SAPE  C21011658   6.632   3.049   4.399  0.0374  0.0852  0.2235
  112SAPE  H10R11659   6.579   3.143   4.372 -2.5802 -1.0422  1.0319
  112SAPE  H10S11660   6.705   3.089   4.472  0.6641 -1.6409  0.5801
  112SAPE  C21111661   6.535   2.947   4.455 -0.4802 -0.5697 -0.2722
  112SAPE  H11R11662   6.462   2.895   4.392  0.4203 -2.8203  0.4528
  112SAPE  C21211663   6.512   2.927   4.589 -0.2940  0.3940 -0.2152
  112SAPE  H12R11664   6.435   2.848   4.593 -0.1941  0.3030 -0.0473
  112SAPE  C21311665   6.580   2.967   4.723  1.1353  0.6055  0.8336
  112SAPE  H13R11666   6.686   2.937   4.710  1.1478  0.2171  1.8025
  112SAPE  H13S11667   6.546   2.906   4.809  1.3920  1.7697  1.7893
  112SAPE  C21411668   6.566   3.113   4.754 -0.1172  0.0028  0.1622
  112SAPE  H14R11669   6.630   3.176   4.690  1.4954 -0.9931  0.7478
  112SAPE  C21511670   6.509   3.169   4.859 -0.3318  0.4298 -0.4702
  112SAPE  H15R11671   6.511   3.278   4.869 -0.8828  0.3246  1.0490
  112SAPE  C21611672   6.444   3.099   4.975  0.3314  0.4244  0.6441
  112SAPE  H16R11673   6.433   2.989   4.963  1.5917  0.4086 -0.6194
  112SAPE  H16S11674   6.338   3.132   4.976 -0.5849 -2.2876  1.0114
  112SAPE  C21711675   6.516   3.141   5.105 -0.4183 -0.3258 -0.3648
  112SAPE  H17R11676   6.531   3.251   5.098 -1.7186 -0.0704  0.4004
  112SAPE  H17S11677   6.611   3.088   5.127 -0.2344 -0.2647 -1.0013
  112SAPE  C21811678   6.425   3.113   5.226  0.4991 -0.4564 -0.4885
  112SAPE  H18R11679   6.405   3.005   5.237  1.0908 -0.5756 -0.5669
  112SAPE  H18S11680   6.332   3.169   5.200  0.4002 -0.3095  0.1445
  112SAPE  C21911681   6.454   3.175   5.364 -0.2632 -0.3194  0.3429
  112SAPE  H19R11682   6.428   3.283   5.370 -1.6915 -0.5998 -0.2466
  112SAPE  H19S11683   6.562   3.157   5.378 -0.0421  0.9197  0.3230
  112SAPE  C22011684   6.383   3.116   5.477  0.0026  0.1156  0.0962
  112SAPE  H20R11685   6.418   3.012   5.497  0.3580 -0.1304 -1.6621
  112SAPE  H20S11686   6.276   3.116   5.448 -0.0500 -0.4459  0.2678
  112SAPE  H20T11687   6.393   3.180   5.567  1.2910  0.3258 -0.1828
  112SAPE   C3311688   6.036   2.312   3.910  0.1112 -0.0803  0.6978
  112SAPE   H3X11689   5.936   2.265   3.898  0.1992 -0.3417  0.9797
  112SAPE   H3Y11690   6.029   2.392   3.988  1.9806  1.4924 -0.6396
  112SAPE   C3411691   6.130   2.208   3.974 -0.6448 -0.2142  0.7626
  112SAPE   H4X11692   6.224   2.263   3.998 -0.8265 -0.0975  1.2070
  112SAPE   H4Y11693   6.148   2.123   3.905 -0.9362 -1.4223  2.1227
  112SAPE   C3511694   6.071   2.160   4.104 -0.7277 -0.2852 -0.2646
  112SAPE   H5X11695   6.160   2.102   4.135  1.1993  1.6911 -1.7713
  112SAPE   H5Y11696   5.998   2.079   4.080  0.2885 -1.4023  0.3206
  112SAPE   C3611697   6.023   2.259   4.206  0.6911  0.7189  1.1696
  112SAPE   H6X11698   5.923   2.298   4.180  0.3199 -1.2948 -0.7237
  112SAPE   H6Y11699   6.087   2.349   4.193 -0.9976  1.5232 -4.1124
  112SAPE   C3711700   6.013   2.199   4.348 -0.1518 -0.3275 -0.2413
  112SAPE   H7X11701   6.118   2.178   4.378 -0.1388 -3.9872 -2.2982
  112SAPE   H7Y11702   5.975   2.095   4.349 -0.0498 -0.3655  0.0148
  112SAPE   C3811703   5.937   2.282   4.452  0.4386 -0.7975  0.4493
  112SAPE   H8X11704   5.832   2.294   4.419  1.5494  0.7537 -2.9873
  112SAPE   H8Y11705   5.990   2.379   4.442  1.0005 -1.2670 -1.8408
  112SAPE   C3911706   5.940   2.231   4.599 -0.1416 -0.1136 -0.1989
  112SAPE   H9X11707   6.046   2.208   4.624 -0.4848  0.3178  1.8658
  112SAPE   H9Y11708   5.889   2.132   4.595  0.0720 -0.1902 -1.6859
  112SAPE  C31011709   5.898   2.338   4.698 -0.5825  0.1046 -0.5453
  112SAPE  H10X11710   5.819   2.412   4.671 -1.7574  0.1739  2.7231
  112SAPE  H10Y11711   5.991   2.391   4.727  0.7237 -2.4284  0.1755
  112SAPE  C31111712   5.845   2.280   4.827 -0.1536  0.6001 -0.6502
  112SAPE  H11X11713   5.763   2.211   4.799  0.0602  0.8475 -1.9995
  112SAPE  H11Y11714   5.813   2.365   4.891  2.5049  3.6234 -2.9593
  112SAPE  C31211715   5.941   2.186   4.910  0.3355 -0.1315  0.9652
  112SAPE  H12X11716   5.959   2.097   4.846  0.7926 -0.0293  0.9515
  112SAPE  H12Y11717   5.886   2.148   4.999  1.8679 -2.3571  1.0481
  112SAPE  C31311718   6.086   2.243   4.937 -0.1438  0.7302 -0.5834
  112SAPE  H13X11719   6.138   2.236   4.839  0.8410 -2.0389  0.0459
  112SAPE  H13Y11720   6.130   2.176   5.014 -0.1143  0.5403 -0.7640
  112SAPE  C31411721   6.101   2.378   4.995  0.2627  0.5682  0.3626
  112SAPE  H14X11722   6.038   2.456   4.948 -1.3346 -0.7328  0.2587
  112SAPE  H14Y11723   6.209   2.404   4.983  0.5283 -1.4083 -2.4665
  112SAPE  C31511724   6.060   2.377   5.139 -0.0276  0.0653 -0.5871
  112SAPE  H15X11725   6.128   2.323   5.208  0.2168  1.9091  0.6981
  112SAPE  H15Y11726   5.955   2.340   5.144  0.2999 -1.3847 -3.0023
  112SAPE  C31611727   6.036   2.518   5.206  0.6838  0.0303  0.0800
  112SAPE  H16X11728   5.955   2.572   5.151  0.2218 -0.3388  0.3825
  112SAPE  H16Y11729   6.128   2.579   5.196  2.8624 -3.1117 -0.4691
  112SAPE  C31711730   6.004   2.514   5.358 -0.0515  1.4785  0.2510
  112SAPE  H17X11731   6.100   2.481   5.402 -1.8689 -1.8909  2.1009
  112SAPE  H17Y11732   5.942   2.426   5.384  1.2878  0.4104 -0.0215
  112SAPE  C31811733   5.950   2.632   5.432  0.0217 -0.2571 -0.6002
  112SAPE  H18X11734   6.000   2.730   5.416  0.5393 -0.5978 -1.1219
  112SAPE  H18Y11735   5.939   2.612   5.540 -2.5212  4.0547  0.1447
  112SAPE  H18Z11736   5.845   2.645   5.396  0.4031  0.5774 -1.4486
  113SAPE     N11737   5.724   0.615   3.366 -0.1150 -0.7732  0.0376
  113SAPE   HN111738   5.679   0.599   3.458  0.0018  0.6426  0.3668
  113SAPE   HN211739   5.826   0.594   3.363  0.1619  0.2693  1.1460
  113SAPE   HN311740   5.729   0.712   3.327  0.5907 -0.1573  1.5630
  113SAPE   C1211741   5.653   0.520   3.271  0.2262 -0.1124 -0.2519
  113SAPE  H12A11742   5.693   0.418   3.291  0.7763  0.2517  0.5487
  113SAPE  H12B11743   5.684   0.554   3.171  1.2721 -2.3805 -0.7600
  113SAPE   C1111744   5.499   0.530   3.276  0.5078 -0.0195 -1.1603
  113SAPE  H11A11745   5.464   0.493   3.375  0.3501  1.6279 -0.5597
  113SAPE  H11B11746   5.454   0.468   3.196 -1.6403 -0.5312  0.3483
  113SAPE     P11747   5.326   0.708   3.205  0.1776  0.1028  0.5185
  113SAPE   O1311748   5.351   0.765   3.072  0.3070 -0.3771 -1.0717
  113SAPE   O1411749   5.224   0.601   3.220  0.0057 -0.2234  0.4032
  113SAPE   O1211750   5.466   0.665   3.261 -0.6184 -0.3454 -0.3838
  113SAPE   O1111751   5.298   0.825   3.309 -0.3839  0.1972 -0.3191
  113SAPE    C111752   5.377   0.904   3.382  0.0495  0.3404  0.4502
  113SAPE    HA11753   5.478   0.918   3.337  0.3414  2.4061  1.6051
  113SAPE    HB11754   5.328   1.003   3.380 -1.1015 -0.2247 -0.2858
  113SAPE    C211755   5.398   0.849   3.523 -0.1346  0.3647  0.4489
  113SAPE    HS11756   5.458   0.757   3.504 -0.3525  0.6520 -1.9085
  113SAPE   O2111757   5.270   0.812   3.580 -0.5280  0.7536 -0.1974
  113SAPE   C2111758   5.271   0.726   3.675  0.9235  0.6751  0.0616
  113SAPE   O2211759   5.367   0.656   3.707 -0.1720 -0.1080  0.4978
  113SAPE   C2211760   5.138   0.729   3.757 -0.7050  0.5542  0.8646
  113SAPE   H2R11761   5.083   0.817   3.718 -0.7601 -0.2037 -0.8152
  113SAPE   H2S11762   5.081   0.636   3.734 -0.8733  0.8389  0.1286
  113SAPE    C311763   5.484   0.941   3.606 -0.2013  0.1153 -0.0072
  113SAPE    HX11764   5.424   1.022   3.652  0.4880  1.1383 -0.8639
  113SAPE    HY11765   5.555   0.991   3.537  0.1309 -1.3882 -0.7926
  113SAPE   O3111766   5.563   0.875   3.706 -0.5324  0.3815  0.1087
  113SAPE   C3111767   5.687   0.828   3.663  0.7283  0.2357  0.2463
  113SAPE   O3211768   5.722   0.833   3.547  0.3397  0.2239  0.4481
  113SAPE   C3211769   5.765   0.779   3.783  0.1330 -0.4292 -0.1776
  113SAPE   H2X11770   5.821   0.696   3.736  0.0464  0.1360 -1.3022
  113SAPE   H2Y11771   5.693   0.737   3.857  0.4871 -1.8493 -0.6091
  113SAPE   C2311772   5.163   0.725   3.906 -0.4719  0.0560  0.2165
  113SAPE   H3R11773   5.240   0.648   3.927 -1.4660 -1.3697 -1.1637
  113SAPE   H3S11774   5.075   0.677   3.954  1.4958 -3.2009  0.8880
  113SAPE   C2411775   5.200   0.862   3.963 -0.9547 -0.5809 -0.3878
  113SAPE   H4R11776   5.191   0.858   4.074 -1.8969 -0.3776 -0.4501
  113SAPE   H4S11777   5.139   0.948   3.929  0.5496  0.1757 -1.2680
  113SAPE   C2511778   5.342   0.913   3.933 -0.7469  0.5382 -0.3082
  113SAPE   H5R11779   5.349   0.936   3.826 -0.3277  0.0645 -0.3844
  113SAPE   C2611780   5.442   0.939   4.022 -0.0944  0.1652  0.8361
  113SAPE   H6R11781   5.534   0.972   3.972 -0.5262 -1.2341 -0.9976
  113SAPE   C2711782   5.457   0.906   4.170  0.1090  0.1699 -0.3065
  113SAPE   H7R11783   5.562   0.915   4.203 -0.6717  0.8626  2.2311
  113SAPE   H7S11784   5.424   0.801   4.182  1.3207 -0.0276  1.9136
  113SAPE   C2811785   5.371   0.999   4.250 -0.4483 -0.7051 -0.1440
  113SAPE   H8R11786   5.359   1.103   4.214 -1.3867 -1.1566 -1.2036
  113SAPE   C2911787   5.330   0.975   4.378  0.3851 -0.4848  0.1450
  113SAPE   H9R11788   5.268   1.051   4.427 -2.6391 -2.1484 -0.8120
  113SAPE  C21011789   5.358   0.862   4.464 -0.6423  0.6893 -0.0188
  113SAPE  H10R11790   5.304   0.782   4.410  1.0781  0.5367 -1.5843
  113SAPE  H10S11791   5.292   0.868   4.554 -0.8952  0.7515 -0.2074
  113SAPE  C21111792   5.503   0.823   4.501 -0.0402 -0.1155  0.2354
  113SAPE  H11R11793   5.560   0.909   4.541 -1.6406  0.7236  0.7837
  113SAPE  C21211794   5.571   0.709   4.503 -0.6891 -0.6817 -0.1336
  113SAPE  H12R11795   5.680   0.723   4.513 -0.6216 -0.6470 -0.8952
  113SAPE  C21311796   5.520   0.571   4.468 -0.4622 -0.2685 -0.5885
  113SAPE  H13R11797   5.421   0.566   4.416 -0.8942 -1.2329  0.2899
  113SAPE  H13S11798   5.499   0.511   4.559  1.4834  0.5772  0.4652
  113SAPE  C21411799   5.627   0.496   4.393 -0.3805  0.0380  0.2477
  113SAPE  H14R11800   5.620   0.498   4.283  2.5247  1.5325 -0.0103
  113SAPE  C21511801   5.739   0.446   4.442 -0.8845  0.3413  0.2917
  113SAPE  H15R11802   5.804   0.390   4.372 -1.3093 -0.7842  0.7715
  113SAPE  C21611803   5.783   0.429   4.583  0.5285  0.5532 -1.0233
  113SAPE  H16R11804   5.786   0.323   4.617 -0.5741  1.2933  1.5863
  113SAPE  H16S11805   5.719   0.478   4.659  1.1847 -0.5787  0.3120
  113SAPE  C21711806   5.928   0.482   4.589 -0.1757 -0.3275  0.3677
  113SAPE  H17R11807   5.921   0.593   4.598 -1.4823  0.1123 -3.7141
  113SAPE  H17S11808   5.983   0.475   4.493 -0.6350  0.1705  0.0620
  113SAPE  C21811809   6.019   0.444   4.709  0.2917  0.1449  0.4356
  113SAPE  H18R11810   6.110   0.506   4.702  0.6022 -0.3705 -0.2128
  113SAPE  H18S11811   6.064   0.343   4.693 -1.2942 -0.3371 -1.3686
  113SAPE  C21911812   5.953   0.445   4.848 -0.3609 -0.6740  0.5624
  113SAPE  H19R11813   5.909   0.346   4.869 -0.6223 -1.0356 -1.4625
  113SAPE  H19S11814   5.870   0.519   4.841  1.0328  1.1863  2.4820
  113SAPE  C22011815   6.053   0.483   4.966  0.1948 -0.3521  0.4846
  113SAPE  H20R11816   6.137   0.411   4.976  0.1193 -0.5215 -0.0859
  113SAPE  H20S11817   5.989   0.470   5.056 -2.1419  1.2010 -0.8445
  113SAPE  H20T11818   6.087   0.589   4.962  1.1854 -0.6556  0.4973
  113SAPE   C3311819   5.860   0.889   3.831  0.3115  0.1364  0.0215
  113SAPE   H3X11820   5.791   0.966   3.870  0.1937 -0.4211  0.9333
  113SAPE   H3Y11821   5.917   0.926   3.743 -1.0205  1.2840 -0.3771
  113SAPE   C3411822   5.961   0.843   3.947  0.1407 -0.1796 -0.9606
  113SAPE   H4X11823   6.025   0.760   3.909 -0.3487 -0.3197 -1.4891
  113SAPE   H4Y11824   5.912   0.794   4.034  2.8196  0.8366  1.2861
  113SAPE   C3511825   6.036   0.955   4.010 -0.1726  0.1127 -0.4667
  113SAPE   H5X11826   5.967   1.015   4.072  0.7074 -0.3707  1.0180
  113SAPE   H5Y11827   6.077   1.033   3.942 -1.0343  0.5740 -0.4681
  113SAPE   C3611828   6.153   0.905   4.093  0.0145  0.3056  0.1299
  113SAPE   H6X11829   6.235   0.974   4.123 -0.6568  0.0472  2.8283
  113SAPE   H6Y11830   6.211   0.840   4.024  0.0759  1.4602 -0.9406
  113SAPE   C3711831   6.117   0.825   4.219 -0.1774 -0.2418 -0.0849
  113SAPE   H7X11832   6.207   0.782   4.268 -0.9799 -1.4134  0.4106
  113SAPE   H7Y11833   6.040   0.750   4.190 -0.7849 -0.2152  1.3608
  113SAPE   C3811834   6.060   0.919   4.334 -0.6124 -0.4129  0.4233
  113SAPE   H8X11835   6.120   1.012   4.343  0.4574 -1.1553  1.3440
  113SAPE   H8Y11836   5.956   0.947   4.308 -0.7315 -0.3210  0.9887
  113SAPE   C3911837   6.058   0.846   4.466 -0.7092  0.1014  0.1137
  113SAPE   H9X11838   6.162   0.837   4.505 -0.2862 -0.2500 -1.0329
  113SAPE   H9Y11839   6.016   0.744   4.459 -1.1206  0.2967 -0.4188
  113SAPE  C31011840   5.975   0.930   4.569 -0.3327  0.0507  0.8593
  113SAPE  H10X11841   5.867   0.915   4.549  0.0010  1.4046 -2.6269
  113SAPE  H10Y11842   5.993   1.039   4.563 -1.2686  0.4189  3.5611
  113SAPE  C31111843   5.994   0.881   4.714  0.6836 -0.5595 -0.1678
  113SAPE  H11X11844   6.100   0.882   4.746  1.0795 -1.9691 -1.3056
  113SAPE  H11Y11845   5.970   0.774   4.731  0.7204 -0.1657  3.0045
  113SAPE  C31211846   5.892   0.940   4.809 -0.4467 -0.3448  0.2367
  113SAPE  H12X11847   5.900   1.051   4.799  0.3117 -0.4143  0.0512
  113SAPE  H12Y11848   5.937   0.918   4.909  2.1185 -1.0045 -0.9733
  113SAPE  C31311849   5.750   0.877   4.809 -0.2423 -0.5570  0.5453
  113SAPE  H13X11850   5.759   0.767   4.813 -2.0390 -0.6965  1.6721
  113SAPE  H13Y11851   5.693   0.895   4.715 -0.5982 -0.2125  0.8237
  113SAPE  C31411852   5.675   0.916   4.930  0.7626  0.4824 -0.4422
  113SAPE  H14X11853   5.660   1.026   4.933  1.5832  0.5992 -0.2727
  113SAPE  H14Y11854   5.733   0.889   5.022  1.2529  1.5490 -0.4200
  113SAPE  C31511855   5.550   0.825   4.952  0.3676  0.7944  0.3892
  113SAPE  H15X11856   5.580   0.718   4.960 -1.2443  0.1604 -1.2163
  113SAPE  H15Y11857   5.489   0.829   4.859 -0.4696 -3.5687  0.5105
  113SAPE  C31611858   5.469   0.876   5.073  0.6372  0.6369 -0.0307
  113SAPE  H16X11859   5.433   0.977   5.044 -0.5186  0.6342  1.2886
  113SAPE  H16Y11860   5.538   0.885   5.160  0.2140 -1.6112  0.6048
  113SAPE  C31711861   5.362   0.774   5.117 -0.2118 -0.0722  0.0829
  113SAPE  H17X11862   5.414   0.676   5.112  0.6042  0.4042 -1.2487
  113SAPE  H17Y11863   5.285   0.770   5.036  1.5650 -2.1148 -1.6269
  113SAPE  C31811864   5.295   0.805   5.250  0.2939 -0.2494  0.2055
  113SAPE  H18X11865   5.371   0.822   5.328  1.6551  1.9483 -1.4922
  113SAPE  H18Y11866   5.236   0.713   5.274  0.5524 -0.7097 -0.8833
  113SAPE  H18Z11867   5.230   0.895   5.256 -0.7917 -0.9589 -0.5203
  114SAPE     N11868   2.592   4.067   2.918 -0.0581  0.0409 -0.4764
  114SAPE   HN111869   2.655   4.089   2.999 -0.4432  0.7165 -0.3490
  114SAPE   HN211870   2.642   3.996   2.861  1.1553 -0.3600  0.9964
  114SAPE   HN311871   2.568   4.149   2.859 -0.1526  0.3395 -0.0302
  114SAPE   C1211872   2.463   4.008   2.962  0.6874 -0.0814  0.2988
  114SAPE  H12A11873   2.398   4.087   3.006 -2.4107 -0.7900 -2.5976
  114SAPE  H12B11874   2.482   3.934   3.044 -2.9418 -3.5334 -1.5817
  114SAPE   C1111875   2.383   3.931   2.856 -0.1951 -1.1691 -0.3536
  114SAPE  H11A11876   2.364   3.994   2.767  0.3898 -1.7520 -0.8980
  114SAPE  H11B11877   2.283   3.905   2.899 -0.7916  2.7889  1.1191
  114SAPE     P11878   2.393   3.666   2.832  0.0365 -0.3300 -0.1504
  114SAPE   O1311879   2.324   3.650   2.703  0.2734 -0.2571 -0.5235
  114SAPE   O1411880   2.500   3.567   2.862  0.1548 -0.3534  0.1171
  114SAPE   O1211881   2.455   3.813   2.820  0.3939 -0.0936 -0.6568
  114SAPE   O1111882   2.290   3.665   2.947  0.0808 -0.0199  0.0716
  114SAPE    C111883   2.193   3.569   2.981 -0.3740  0.0780  0.2731
  114SAPE    HA11884   2.114   3.584   2.904  0.8517  0.5548 -0.9490
  114SAPE    HB11885   2.233   3.466   2.976 -0.2360  0.1316  0.2712
  114SAPE    C211886   2.134   3.607   3.122  0.8952  0.1648  1.0028
  114SAPE    HS11887   2.080   3.701   3.101  1.8793  0.7983  1.2547
  114SAPE   O2111888   2.233   3.629   3.219 -0.1928 -0.3633 -0.5017
  114SAPE   C2111889   2.224   3.731   3.299  0.1240 -0.2034  0.2305
  114SAPE   O2211890   2.141   3.814   3.293 -0.3241 -0.3885  0.2150
  114SAPE   C2211891   2.346   3.719   3.393 -0.1869  0.2458  0.1847
  114SAPE   H2R11892   2.337   3.627   3.453 -1.1897 -0.6346 -1.2498
  114SAPE   H2S11893   2.441   3.700   3.338 -0.1230 -2.6936  1.1563
  114SAPE    C311894   2.033   3.503   3.167 -0.4074  0.1884 -0.0916
  114SAPE    HX11895   2.092   3.410   3.182  1.2917  0.9798 -1.4620
  114SAPE    HY11896   1.968   3.484   3.078  2.0533  1.4208 -2.2951
  114SAPE   O3111897   1.954   3.542   3.277 -0.3942 -0.3608  0.0451
  114SAPE   C3111898   2.007   3.521   3.396 -0.0268  0.6897 -0.6886
  114SAPE   O3211899   2.105   3.454   3.412 -0.1577 -0.0552 -0.4515
  114SAPE   C3211900   1.942   3.603   3.504 -0.4015  0.5964  0.1542
  114SAPE   H2X11901   1.832   3.587   3.500 -0.5790  1.1907  1.9194
  114SAPE   H2Y11902   1.975   3.707   3.482  0.1587  1.0723  2.9023
  114SAPE   C2311903   2.373   3.841   3.497  0.6290  0.5030  0.0445
  114SAPE   H3R11904   2.397   3.927   3.432 -0.9058  0.2241 -0.9684
  114SAPE   H3S11905   2.465   3.808   3.549 -0.4070 -0.3132  1.4451
  114SAPE   C2411906   2.272   3.841   3.609  0.1688 -0.1157  0.0686
  114SAPE   H4R11907   2.246   3.739   3.644 -1.5005 -0.5194 -2.1557
  114SAPE   H4S11908   2.179   3.882   3.563  1.0547  0.5743 -1.1609
  114SAPE   C2511909   2.306   3.933   3.721  0.0340  0.3001 -0.3216
  114SAPE   H5R11910   2.406   3.919   3.765  0.6258 -1.6098 -2.1021
  114SAPE   C2611911   2.222   4.026   3.773 -0.0209  0.0778 -0.3120
  114SAPE   H6R11912   2.264   4.096   3.847  2.3466  0.2519 -1.7103
  114SAPE   C2711913   2.088   4.066   3.710 -0.4168  0.2343 -0.3664
  114SAPE   H7R11914   2.012   3.986   3.721  1.1403 -1.4034 -1.0362
  114SAPE   H7S11915   2.106   4.091   3.603 -0.6835 -1.0284 -0.7185
  114SAPE   C2811916   2.033   4.191   3.779  0.2052 -0.1801 -0.2904
  114SAPE   H8R11917   2.012   4.272   3.706 -0.3452 -1.4449 -1.5816
  114SAPE   C2911918   2.004   4.213   3.913  0.0353  0.0040 -0.4031
  114SAPE   H9R11919   1.965   4.308   3.952  0.1683 -0.7649  1.7788
  114SAPE  C21011920   2.020   4.110   4.028 -0.4493 -0.5914 -0.0420
  114SAPE  H10R11921   2.068   4.015   3.998 -1.3367 -0.7060 -1.1330
  114SAPE  H10S11922   1.922   4.067   4.057 -1.0365  0.6262 -0.1256
  114SAPE  C21111923   2.102   4.152   4.149  0.3361  0.1510  0.6848
  114SAPE  H11R11924   2.207   4.121   4.148  0.0215 -0.9704 -1.1885
  114SAPE  C21211925   2.048   4.214   4.250  0.0689 -0.1387 -0.9534
  114SAPE  H12R11926   2.113   4.230   4.338 -1.5829 -0.9595  0.4823
  114SAPE  C21311927   1.907   4.255   4.278  0.2875 -0.2690 -0.1774
  114SAPE  H13R11928   1.877   4.323   4.196  1.0223 -0.4731 -0.6218
  114SAPE  H13S11929   1.909   4.311   4.374 -0.9981  0.3565 -0.4923
  114SAPE  C21411930   1.798   4.152   4.295  0.0167  0.0800  0.5358
  114SAPE  H14R11931   1.746   4.136   4.200 -0.6252  1.6035  0.6030
  114SAPE  C21511932   1.775   4.075   4.403 -0.1835  0.7154 -0.6719
  114SAPE  H15R11933   1.682   4.016   4.410 -0.9277  2.0259  1.3987
  114SAPE  C21611934   1.848   4.083   4.536  0.0116 -0.3196  0.0774
  114SAPE  H16R11935   1.908   4.176   4.547 -1.4453  0.5755  0.8149
  114SAPE  H16S11936   1.926   4.003   4.538  0.6575  0.2996  0.2476
  114SAPE  C21711937   1.755   4.072   4.660 -0.0083 -0.4797 -0.3906
  114SAPE  H17R11938   1.657   4.026   4.635  0.2596 -1.0039 -0.4824
  114SAPE  H17S11939   1.719   4.171   4.695 -2.0420 -1.5114  0.6344
  114SAPE  C21811940   1.831   4.001   4.768 -0.1459  0.4164  1.0117
  114SAPE  H18R11941   1.838   3.896   4.732  0.9205  1.1991 -1.2335
  114SAPE  H18S11942   1.763   4.012   4.855 -0.7124  1.8315  0.4119
  114SAPE  C21911943   1.960   4.077   4.804 -0.2872 -0.1578  0.1055
  114SAPE  H19R11944   1.948   4.188   4.807  1.1976  0.0255  2.5984
  114SAPE  H19S11945   2.040   4.046   4.734  0.1898  1.8573 -0.2969
  114SAPE  C22011946   2.017   4.028   4.935  0.0308  0.1965 -0.4983
  114SAPE  H20R11947   2.064   4.103   5.002 -1.0489  1.5156 -1.1883
  114SAPE  H20S11948   2.097   3.951   4.927 -0.3506 -0.7058  2.8431
  114SAPE  H20T11949   1.937   3.979   4.995 -0.8041  0.4039 -1.4244
  114SAPE   C3311950   1.993   3.564   3.645 -0.1071  0.1760  0.7040
  114SAPE   H3X11951   2.104   3.567   3.642 -0.0449  0.2526  2.3728
  114SAPE   H3Y11952   1.971   3.458   3.671  2.7008 -0.4030  1.0175
  114SAPE   C3411953   1.936   3.643   3.757 -0.6887  0.1454  0.0103
  114SAPE   H4X11954   1.827   3.629   3.772 -0.9999  0.2224 -1.9354
  114SAPE   H4Y11955   1.957   3.751   3.740  0.9480  0.4705  3.3040
  114SAPE   C3511956   2.007   3.609   3.895  0.1619  0.0444  0.0463
  114SAPE   H5X11957   2.116   3.598   3.878 -0.1056  2.0467 -4.2783
  114SAPE   H5Y11958   1.959   3.515   3.929 -0.2099  0.2186  0.0130
  114SAPE   C3611959   1.977   3.707   4.004 -0.3598 -1.2073  0.2049
  114SAPE   H6X11960   1.867   3.716   4.003 -0.3462 -0.9722  0.5323
  114SAPE   H6Y11961   2.008   3.809   3.972 -1.6536 -0.2926  1.7583
  114SAPE   C3711962   2.025   3.668   4.145  0.4029 -0.6687  0.1899
  114SAPE   H7X11963   2.135   3.654   4.146  0.6855  1.2284  0.1847
  114SAPE   H7Y11964   1.975   3.574   4.177 -1.5852  0.3647  0.2809
  114SAPE   C3811965   1.990   3.771   4.257  0.1390  0.5013  0.8668
  114SAPE   H8X11966   1.891   3.756   4.304 -1.2917  1.5039 -1.6097
  114SAPE   H8Y11967   1.969   3.871   4.213  2.3659  1.3558  1.5807
  114SAPE   C3911968   2.091   3.775   4.371 -0.2783  0.1921 -0.1376
  114SAPE   H9X11969   2.057   3.860   4.435 -2.7288 -2.2270  2.0246
  114SAPE   H9Y11970   2.186   3.820   4.334 -0.9545  1.3779 -0.5029
  114SAPE  C31011971   2.113   3.642   4.447  0.1992  0.1566 -0.7391
  114SAPE  H10X11972   2.160   3.571   4.375 -1.2595 -1.9477  0.2690
  114SAPE  H10Y11973   2.013   3.597   4.467  2.1524 -3.6083  1.9089
  114SAPE  C31111974   2.186   3.654   4.578 -0.3816 -0.4695 -0.5347
  114SAPE  H11X11975   2.268   3.729   4.575 -2.3708  2.0164  1.6439
  114SAPE  H11Y11976   2.217   3.551   4.605 -0.7108 -0.1901  1.0527
  114SAPE  C31211977   2.099   3.696   4.696  0.9671 -0.3390  0.1608
  114SAPE  H12X11978   2.014   3.627   4.707  1.6273 -1.2200 -0.1443
  114SAPE  H12Y11979   2.060   3.799   4.678  1.2672 -0.3356 -0.5077
  114SAPE  C31311980   2.176   3.692   4.830  0.9663  0.4180 -0.8532
  114SAPE  H13X11981   2.116   3.737   4.912  0.8024 -1.8712  0.3497
  114SAPE  H13Y11982   2.276   3.739   4.818  1.0117  0.9753  1.3940
  114SAPE  C31411983   2.190   3.556   4.893 -0.6748 -0.4328 -0.3314
  114SAPE  H14X11984   2.257   3.510   4.817  0.6788  0.8392  0.0641
  114SAPE  H14Y11985   2.102   3.488   4.900  0.9614 -2.5368  1.4530
  114SAPE  C31511986   2.241   3.573   5.035 -0.6341  0.3062 -0.2596
  114SAPE  H15X11987   2.152   3.581   5.102 -0.4518 -1.1045  0.1877
  114SAPE  H15Y11988   2.304   3.663   5.049 -0.4093 -0.2456  3.3954
  114SAPE  C31611989   2.327   3.454   5.080 -0.7129  0.0413 -0.4495
  114SAPE  H16X11990   2.405   3.424   5.007 -0.6687 -1.6148  0.2309
  114SAPE  H16Y11991   2.259   3.367   5.086 -0.9423  0.2489  0.0183
  114SAPE  C31711992   2.387   3.477   5.224 -0.2615 -0.1540 -0.0540
  114SAPE  H17X11993   2.295   3.489   5.286 -0.4448 -0.5016 -0.2569
  114SAPE  H17Y11994   2.451   3.568   5.225 -1.5247  0.8633  3.2796
  114SAPE  C31811995   2.465   3.356   5.281 -0.7870 -0.1972 -0.2214
  114SAPE  H18X11996   2.544   3.327   5.207  0.2250  0.8615  0.4065
  114SAPE  H18Y11997   2.389   3.276   5.274 -0.8077 -0.0511 -3.8598
  114SAPE  H18Z11998   2.504   3.377   5.383 -0.1085 -2.5048  0.0596
  115SAPE     N11999   6.712   3.986   3.350 -0.3924  0.4370 -0.8814
  115SAPE   HN112000   6.793   3.923   3.365  0.9022  2.0858 -0.5332
  115SAPE   HN212001   6.714   4.011   3.249  0.0665 -0.4327 -1.0906
  115SAPE   HN312002   6.725   4.067   3.415 -0.0642 -1.1500  1.1545
  115SAPE   C1212003   6.578   3.934   3.386  0.1039  0.5997  0.1467
  115SAPE  H12A12004   6.583   3.829   3.348  2.2080  0.5672  0.3657
  115SAPE  H12B12005   6.505   3.999   3.335 -0.2170  0.1258 -0.0073
  115SAPE   C1112006   6.561   3.934   3.538 -0.0210 -0.2268  0.0172
  115SAPE  H11A12007   6.456   3.902   3.554 -0.1387  0.2302  0.1749
  115SAPE  H11B12008   6.570   4.042   3.565 -1.5519 -0.0675 -0.0709
  115SAPE     P12009   6.736   3.880   3.736 -0.1120 -0.3696  0.0263
  115SAPE   O1312010   6.775   3.745   3.793  0.4931 -0.3093  0.1537
  115SAPE   O1412011   6.841   3.974   3.698 -0.7464 -1.0089  0.0328
  115SAPE   O1212012   6.653   3.847   3.603  0.0318 -0.1894  0.5324
  115SAPE   O1112013   6.628   3.962   3.815  0.5968  0.1861 -0.1824
  115SAPE    C112014   6.623   3.960   3.959 -0.1485  0.1478 -0.2600
  115SAPE    HA12015   6.540   4.018   4.005  1.9202  2.4225  0.8182
  115SAPE    HB12016   6.617   3.856   4.000  3.2547 -0.1371 -0.1461
  115SAPE    C212017   6.749   4.025   4.025 -0.3450  0.2770  0.4338
  115SAPE    HS12018   6.831   3.956   3.995 -1.6104 -0.7308 -0.7901
  115SAPE   O2112019   6.726   4.029   4.164 -0.3538 -0.1953 -0.3543
  115SAPE   C2112020   6.825   4.077   4.235 -0.2898  0.1313 -0.9188
  115SAPE   O2212021   6.937   4.086   4.196 -0.1837  0.2639 -0.7933
  115SAPE   C2212022   6.765   4.123   4.365  0.2848 -0.6871  0.4666
  115SAPE   H2R12023   6.722   4.224   4.347  1.2865 -0.1896  0.7639
  115SAPE   H2S12024   6.675   4.067   4.398 -1.2865  1.1979 -0.4147
  115SAPE    C312025   6.778   4.165   3.968 -0.7716  1.1918  0.8568
  115SAPE    HX12026   6.811   4.142   3.865 -0.8186 -1.1081  1.3196
  115SAPE    HY12027   6.875   4.198   4.011  1.1317 -1.5602 -1.0684
  115SAPE   O3112028   6.674   4.262   3.973  0.3915  0.2440 -0.3926
  115SAPE   C3112029   6.639   4.316   3.859  0.1603  0.4627  0.0705
  115SAPE   O3212030   6.685   4.307   3.749  0.0096  0.6474  0.5648
  115SAPE   C3212031   6.530   4.413   3.895  0.0697  0.0146  0.2854
  115SAPE   H2X12032   6.425   4.378   3.908 -1.2909  3.4845 -0.4247
  115SAPE   H2Y12033   6.523   4.490   3.815 -0.9845  1.1823  1.4508
  115SAPE   C2312034   6.862   4.133   4.486 -0.1643 -0.2298  0.1366
  115SAPE   H3R12035   6.939   4.207   4.455  0.8076  0.1922  3.2560
  115SAPE   H3S12036   6.917   4.038   4.497 -0.1137 -0.0592  1.5429
  115SAPE   C2412037   6.799   4.193   4.619  0.3081 -0.0556 -0.2507
  115SAPE   H4R12038   6.736   4.282   4.600  0.9113  0.4480  0.1038
  115SAPE   H4S12039   6.890   4.226   4.673  0.1373 -0.4360  0.2838
  115SAPE   C2512040   6.728   4.083   4.701 -0.2211  1.2150  0.4003
  115SAPE   H5R12041   6.637   4.033   4.665 -0.3219 -0.6834  3.0134
  115SAPE   C2612042   6.764   4.032   4.821 -0.1251  0.2006 -0.2434
  115SAPE   H6R12043   6.705   3.945   4.852 -0.5991 -0.3830 -2.6183
  115SAPE   C2712044   6.885   4.070   4.894 -0.0274  0.2699  0.0309
  115SAPE   H7R12045   6.864   4.115   4.993 -1.5420 -0.6647  0.1717
  115SAPE   H7S12046   6.938   4.158   4.851  1.4976  0.0113  1.2773
  115SAPE   C2812047   6.988   3.956   4.914 -0.0381 -0.0182 -0.1480
  115SAPE   H8R12048   7.036   3.930   4.819  1.6023  1.9300  0.0750
  115SAPE   C2912049   7.008   3.888   5.029 -0.2205  0.7448  0.2118
  115SAPE   H9R12050   7.084   3.809   5.021 -1.0941 -0.0541 -0.2862
  115SAPE  C21012051   6.946   3.909   5.168  0.1741  0.1075  1.0392
  115SAPE  H10R12052   6.878   3.821   5.170  0.4238 -0.1442 -0.3817
  115SAPE  H10S12053   6.882   4.000   5.175 -1.4022 -1.0292  2.2553
  115SAPE  C21112054   7.045   3.914   5.287 -0.0054  0.0953  0.0942
  115SAPE  H11R12055   7.128   3.986   5.282  0.5070 -0.5287 -0.8380
  115SAPE  C21212056   7.044   3.838   5.400 -0.2745  0.5806 -0.7573
  115SAPE  H12R12057   7.108   3.861   5.486  1.4776 -0.3693 -1.7472
  115SAPE  C21312058   6.955   3.716   5.432  0.7935 -0.0985  0.2079
  115SAPE  H13R12059   6.985   3.624   5.376  0.9313  0.4739 -0.6809
  115SAPE  H13S12060   6.857   3.739   5.383  0.1181  0.5899  1.8086
  115SAPE  C21412061   6.932   3.676   5.574 -0.1753 -0.2803 -0.4316
  115SAPE  H14R12062   7.023   3.687   5.634  0.1004  0.2092 -0.9237
  115SAPE  C21512063   6.817   3.641   5.635  0.3277 -0.5169 -0.7325
  115SAPE  H15R12064   6.811   3.617   5.742 -1.9286 -2.1194 -1.1367
  115SAPE  C21612065   6.672   3.629   5.587  0.4174 -0.9607  0.5302
  115SAPE  H16R12066   6.614   3.541   5.622  1.7560 -1.7184  0.9062
  115SAPE  H16S12067   6.670   3.618   5.477  3.0887  0.3867  0.2661
  115SAPE  C21712068   6.599   3.759   5.627  0.1275  0.0036 -0.0765
  115SAPE  H17R12069   6.627   3.846   5.563 -0.7578  0.9682  0.8115
  115SAPE  H17S12070   6.617   3.784   5.733 -2.0950 -1.9007  0.8364
  115SAPE  C21812071   6.442   3.746   5.609 -0.1140 -0.4032 -0.2401
  115SAPE  H18R12072   6.388   3.819   5.673 -1.7098 -0.9216 -0.9447
  115SAPE  H18S12073   6.416   3.648   5.653  2.4219 -0.0101  2.4321
  115SAPE  C21912074   6.394   3.774   5.469 -0.8829 -0.0282  0.2397
  115SAPE  H19R12075   6.422   3.683   5.411 -2.7861 -1.0948  0.9036
  115SAPE  H19S12076   6.433   3.863   5.416 -0.7269  0.5540  1.3128
  115SAPE  C22012077   6.242   3.796   5.466 -0.0482  0.0932 -0.3038
  115SAPE  H20R12078   6.209   3.786   5.360  1.0358  2.0698 -0.8797
  115SAPE  H20S12079   6.221   3.892   5.518  2.1497  0.4290  0.0747
  115SAPE  H20T12080   6.191   3.713   5.518 -1.0319  0.7397 -0.2195
  115SAPE   C3312081   6.569   4.478   4.025 -0.3049  0.1423 -0.2151
  115SAPE   H3X12082   6.602   4.410   4.107 -1.4648 -0.8372 -0.5115
  115SAPE   H3Y12083   6.484   4.533   4.070 -1.3435 -1.3422 -0.2723
  115SAPE   C3412084   6.689   4.581   4.004  0.8954 -0.1828 -0.0223
  115SAPE   H4X12085   6.670   4.641   3.912  0.1128  1.2021  1.0137
  115SAPE   H4Y12086   6.785   4.525   3.999 -0.1012 -1.9337 -0.5080
  115SAPE   C3512087   6.695   4.673   4.131 -0.2361 -0.1798  0.5038
  115SAPE   H5X12088   6.710   4.607   4.219 -1.9721 -1.4154 -0.0646
  115SAPE   H5Y12089   6.601   4.728   4.150 -0.3239 -0.0574 -0.2409
  115SAPE   C3612090   6.797   4.785   4.110 -0.2496  0.6290 -0.0347
  115SAPE   H6X12091   6.755   4.827   4.016  0.9475 -0.5732 -1.1452
  115SAPE   H6Y12092   6.898   4.750   4.080 -0.2714  1.1447 -0.7532
  115SAPE   C3712093   6.797   4.901   4.212 -0.5348 -0.2787 -0.0298
  115SAPE   H7X12094   6.696   4.914   4.256 -0.0278  0.2785  1.0148
  115SAPE   H7Y12095   6.816   4.994   4.153 -1.4135  0.2201  0.4549
  115SAPE   C3812096   6.917   4.894   4.312  0.3588  0.1680  0.1801
  115SAPE   H8X12097   7.014   4.897   4.259 -1.0466 -0.1364 -2.6081
  115SAPE   H8Y12098   6.903   4.800   4.369  2.6181 -0.3980 -0.0998
  115SAPE   C3912099   6.915   5.010   4.410 -0.6380 -0.2197 -0.2653
  115SAPE   H9X12100   6.920   5.109   4.362  0.5366 -0.0006  0.2910
  115SAPE   H9Y12101   7.010   5.000   4.466  0.9897  0.3480 -2.7632
  115SAPE  C31012102   6.797   4.991   4.514 -0.4103 -0.1253  0.5674
  115SAPE  H10X12103   6.810   4.885   4.544  1.5869 -0.3511 -0.8640
  115SAPE  H10Y12104   6.696   5.016   4.474 -0.7299 -0.9847  0.8188
  115SAPE  C31112105   6.814   5.080   4.627  0.0303 -0.7525  0.2232
  115SAPE  H11X12106   6.809   5.184   4.588 -3.8057 -0.9475 -0.2065
  115SAPE  H11Y12107   6.911   5.054   4.675  0.6233  0.6546 -0.1538
  115SAPE  C31212108   6.699   5.073   4.723  0.1916  0.4916 -0.3832
  115SAPE  H12X12109   6.687   4.965   4.746  0.1670  0.5936  0.1031
  115SAPE  H12Y12110   6.614   5.124   4.674 -0.5127  0.7244  1.0397
  115SAPE  C31312111   6.724   5.165   4.846  0.5055 -0.1002  0.5750
  115SAPE  H13X12112   6.630   5.177   4.904  0.5396  1.6894  0.3075
  115SAPE  H13Y12113   6.750   5.265   4.806 -0.8958  0.5446  1.1873
  115SAPE  C31412114   6.824   5.107   4.952  0.1567  0.0149 -0.0206
  115SAPE  H14X12115   6.922   5.096   4.899  1.2636 -1.2571  2.1398
  115SAPE  H14Y12116   6.778   5.012   4.986 -0.4832  0.8280  1.4343
  115SAPE  C31512117   6.839   5.200   5.073 -0.4503  0.2716 -1.0801
  115SAPE  H15X12118   6.743   5.230   5.120  0.0330  0.5600 -0.2431
  115SAPE  H15Y12119   6.888   5.295   5.044  0.8571 -0.6262 -1.9143
  115SAPE  C31612120   6.916   5.135   5.197 -0.5129 -0.0973 -0.0353
  115SAPE  H16X12121   7.006   5.085   5.158 -0.7804  0.2086 -1.0868
  115SAPE  H16Y12122   6.846   5.062   5.244  0.0966 -0.0571  0.9768
  115SAPE  C31712123   6.938   5.251   5.301 -0.1712  0.0989  0.7761
  115SAPE  H17X12124   6.851   5.317   5.321  2.3241  3.1013  2.7819
  115SAPE  H17Y12125   7.022   5.307   5.253  0.3506 -2.6871 -1.8284
  115SAPE  C31812126   6.992   5.210   5.439 -0.0954 -0.1648  0.3039
  115SAPE  H18X12127   7.058   5.122   5.423 -0.3113 -0.3261  0.2840
  115SAPE  H18Y12128   6.906   5.183   5.505 -0.3425 -2.5924 -0.9101
  115SAPE  H18Z12129   7.050   5.288   5.492 -1.3012  0.3963  0.8293
  116SAPE     N12130   6.579   5.832   2.789  0.5346 -0.3247 -0.1548
  116SAPE   HN112131   6.512   5.753   2.780  1.4860 -1.0351 -1.2274
  116SAPE   HN212132   6.548   5.906   2.856 -0.1645  0.1505 -0.9882
  116SAPE   HN312133   6.581   5.885   2.700 -2.2975 -1.5855 -1.0781
  116SAPE   C1212134   6.718   5.771   2.819  0.2749 -0.1515 -0.3106
  116SAPE  H12A12135   6.758   5.734   2.723  4.2600  2.2347  0.1737
  116SAPE  H12B12136   6.708   5.687   2.890 -0.2822 -0.1748 -0.4089
  116SAPE   C1112137   6.807   5.888   2.872 -0.2677 -0.1432 -0.3277
  116SAPE  H11A12138   6.825   5.963   2.793  0.6466 -2.6875 -2.7239
  116SAPE  H11B12139   6.907   5.849   2.904 -0.9426 -0.2646  1.7732
  116SAPE     P12140   6.769   5.932   3.143  0.1042  0.2707  0.0304
  116SAPE   O1312141   6.754   6.063   3.209  0.3261  0.9306  0.0261
  116SAPE   O1412142   6.668   5.830   3.182 -0.4293 -0.5594  0.4052
  116SAPE   O1212143   6.759   5.952   2.985 -0.1520  0.0719  0.2242
  116SAPE   O1112144   6.918   5.880   3.154  0.6255  0.2641 -0.1766
  116SAPE    C112145   6.965   5.808   3.273 -0.4001 -0.3764 -0.3477
  116SAPE    HA12146   6.898   5.724   3.303 -0.9799 -0.6171 -2.1689
  116SAPE    HB12147   7.061   5.760   3.246  1.0166  2.3513 -0.4232
  116SAPE    C212148   7.002   5.905   3.390 -0.1883  0.1267  0.1609
  116SAPE    HS12149   6.922   5.981   3.398  2.1215  2.9507 -1.6771
  116SAPE   O2112150   7.135   5.955   3.373  0.0212  0.1540 -0.2405
  116SAPE   C2112151   7.154   6.078   3.331 -0.1158 -0.1681 -0.7710
  116SAPE   O2212152   7.071   6.157   3.288  0.4601 -0.4480  0.2210
  116SAPE   C2212153   7.298   6.107   3.355  0.1894 -0.4765  0.3754
  116SAPE   H2R12154   7.353   6.031   3.414  0.3401  0.7601  1.8651
  116SAPE   H2S12155   7.346   6.121   3.256 -1.4106  0.7446 -0.2800
  116SAPE    C312156   6.999   5.838   3.532  0.6247  0.1764 -0.1304
  116SAPE    HX12157   7.059   5.746   3.520  1.5700  1.0428 -2.8118
  116SAPE    HY12158   6.898   5.799   3.557  1.5567 -2.4274 -0.2077
  116SAPE   O3112159   7.038   5.930   3.640  0.4472  0.3317 -0.2495
  116SAPE   C3112160   6.955   6.020   3.679  0.5338  0.1815  0.1128
  116SAPE   O3212161   6.843   6.033   3.625 -0.5279 -0.3967 -0.1221
  116SAPE   C3212162   7.010   6.101   3.800  0.0150 -0.3811  0.4164
  116SAPE   H2X12163   6.985   6.056   3.898  0.3538 -1.1788  0.1465
  116SAPE   H2Y12164   6.975   6.206   3.791 -0.9517 -0.8654 -2.1147
  116SAPE   C2312165   7.320   6.248   3.415 -0.7637 -0.6007  0.9675
  116SAPE   H3R12166   7.270   6.240   3.514 -0.9969 -3.0348  0.7270
  116SAPE   H3S12167   7.282   6.334   3.356  1.2614  0.2165  0.7707
  116SAPE   C2412168   7.462   6.283   3.447 -0.0230  0.4022 -0.7203
  116SAPE   H4R12169   7.526   6.285   3.356  2.1810  0.5442  0.7498
  116SAPE   H4S12170   7.496   6.208   3.521 -0.4511  1.4532  0.5920
  116SAPE   C2512171   7.469   6.420   3.509 -0.1202 -0.4331  0.7815
  116SAPE   H5R12172   7.448   6.500   3.437  0.0553 -2.5503 -1.7856
  116SAPE   C2612173   7.499   6.458   3.634 -0.0760  0.2327  0.5117
  116SAPE   H6R12174   7.515   6.566   3.648  1.3479  0.2146 -0.6975
  116SAPE   C2712175   7.539   6.371   3.744  0.0013 -0.2907 -0.1680
  116SAPE   H7R12176   7.647   6.346   3.742  0.5563  1.8511  0.6649
  116SAPE   H7S12177   7.487   6.273   3.734 -0.3669  0.0283 -1.6795
  116SAPE   C2812178   7.514   6.446   3.873 -0.3266  0.7502  1.2601
  116SAPE   H8R12179   7.408   6.472   3.878 -0.7164 -0.7918  1.5134
  116SAPE   C2912180   7.598   6.462   3.977  0.1261 -0.4859  0.4448
  116SAPE   H9R12181   7.554   6.504   4.068  0.6291  0.2786  0.3508
  116SAPE  C21012182   7.746   6.434   3.990 -0.2690 -0.3049 -0.6357
  116SAPE  H10R12183   7.779   6.410   3.887  2.7063 -1.4319  0.4476
  116SAPE  H10S12184   7.761   6.339   4.046 -1.8533 -0.8624 -1.1020
  116SAPE  C21112185   7.823   6.545   4.052  1.2379 -0.3962  0.6803
  116SAPE  H11R12186   7.851   6.623   3.980  2.8100 -0.4589  1.1886
  116SAPE  C21212187   7.848   6.549   4.183  0.3017 -0.2286 -0.0421
  116SAPE  H12R12188   7.889   6.646   4.217  0.6783 -0.2507 -0.4167
  116SAPE  C21312189   7.805   6.453   4.290  0.7797  0.1051 -0.1252
  116SAPE  H13R12190   7.882   6.380   4.321 -0.4708 -1.2112 -0.0025
  116SAPE  H13S12191   7.731   6.376   4.259  2.0783 -1.4206  0.4649
  116SAPE  C21412192   7.739   6.518   4.409  0.0137 -0.2224  0.2242
  116SAPE  H14R12193   7.656   6.587   4.392 -0.4129 -0.1861  2.2270
  116SAPE  C21512194   7.777   6.488   4.533 -0.4664  0.1119 -0.0752
  116SAPE  H15R12195   7.736   6.549   4.616 -0.2114  1.3733 -0.8488
  116SAPE  C21612196   7.876   6.399   4.597 -0.7948 -0.0123 -0.4491
  116SAPE  H16R12197   7.897   6.419   4.704 -0.8144 -0.2710 -0.3947
  116SAPE  H16S12198   7.968   6.393   4.536 -1.4833 -1.5710 -1.3992
  116SAPE  C21712199   7.813   6.256   4.605 -0.0420  1.3697 -0.3167
  116SAPE  H17R12200   7.829   6.215   4.503  0.9384  0.6682  0.0972
  116SAPE  H17S12201   7.706   6.252   4.634  0.1661  0.6933  0.3988
  116SAPE  C21812202   7.884   6.175   4.719  0.1396  0.5308  0.2168
  116SAPE  H18R12203   7.885   6.241   4.809 -0.6277  1.0951 -0.1776
  116SAPE  H18S12204   7.988   6.144   4.695 -0.2808 -1.1365  0.4022
  116SAPE  C21912205   7.812   6.046   4.769 -0.7035 -0.2324 -0.3136
  116SAPE  H19R12206   7.702   6.057   4.754 -1.0802 -2.1238  0.7199
  116SAPE  H19S12207   7.816   6.044   4.880  1.1920  1.8545 -0.2687
  116SAPE  C22012208   7.872   5.911   4.726 -0.2202 -0.8480 -0.5742
  116SAPE  H20R12209   7.863   5.899   4.616 -0.1125 -0.5136 -0.6217
  116SAPE  H20S12210   7.812   5.836   4.781 -2.4249  0.4301 -1.1175
  116SAPE  H20T12211   7.975   5.898   4.767 -0.9393 -1.8914  1.0137
  116SAPE   C3312212   7.162   6.120   3.793 -0.3713  0.1137  0.1899
  116SAPE   H3X12213   7.195   6.114   3.687 -1.3576 -0.9020 -0.0810
  116SAPE   H3Y12214   7.216   6.039   3.847 -0.4829 -0.5791 -0.7088
  116SAPE   C3412215   7.192   6.263   3.842 -0.5543  0.8297  0.6741
  116SAPE   H4X12216   7.131   6.333   3.781 -0.0240 -1.6373 -3.0768
  116SAPE   H4Y12217   7.296   6.288   3.812 -1.0641 -0.5391 -2.7048
  116SAPE   C3512218   7.173   6.298   3.990  0.4383 -0.0315  1.2497
  116SAPE   H5X12219   7.064   6.286   4.011 -0.2542  1.1085 -1.2960
  116SAPE   H5Y12220   7.194   6.406   4.002 -0.2717  0.1346  1.0300
  116SAPE   C3612221   7.261   6.215   4.084  0.1339 -0.4480  0.0888
  116SAPE   H6X12222   7.358   6.203   4.030 -0.2515  0.1229 -0.7410
  116SAPE   H6Y12223   7.225   6.110   4.082 -1.1566 -0.0093 -0.7360
  116SAPE   C3712224   7.278   6.263   4.224 -0.3175  0.5850  0.3676
  116SAPE   H7X12225   7.189   6.235   4.284 -0.5366  3.4687  1.5199
  116SAPE   H7Y12226   7.275   6.374   4.225  0.9112  0.6554  2.2247
  116SAPE   C3812227   7.410   6.215   4.288 -0.1095 -0.0849 -0.1138
  116SAPE   H8X12228   7.497   6.255   4.232  1.3086  2.3322  3.4342
  116SAPE   H8Y12229   7.423   6.107   4.269  2.2633  0.4075 -1.6508
  116SAPE   C3912230   7.421   6.254   4.441  0.4152  0.4191 -0.4762
  116SAPE   H9X12231   7.434   6.364   4.455 -0.0559  0.3450  0.6140
  116SAPE   H9Y12232   7.505   6.196   4.487 -0.7109 -2.8409 -2.2127
  116SAPE  C31012233   7.296   6.218   4.530 -0.4568  0.2146 -0.1433
  116SAPE  H10X12234   7.259   6.114   4.514 -0.3109 -0.2206  2.0734
  116SAPE  H10Y12235   7.212   6.283   4.496  0.2526  0.6433 -1.1293
  116SAPE  C31112236   7.318   6.245   4.684  0.0980 -0.5026  0.7704
  116SAPE  H11X12237   7.235   6.303   4.728 -1.5315 -2.1867  0.0237
  116SAPE  H11Y12238   7.393   6.327   4.689  0.8183 -0.9998 -1.0255
  116SAPE  C31212239   7.354   6.121   4.767 -0.2457 -0.3240  0.2916
  116SAPE  H12X12240   7.452   6.086   4.729  2.0280  0.9091  4.3285
  116SAPE  H12Y12241   7.274   6.044   4.765 -2.3337  1.7446 -1.1911
  116SAPE  C31312242   7.375   6.163   4.911 -0.5678 -0.8990 -0.3638
  116SAPE  H13X12243   7.280   6.213   4.941 -0.5855 -2.2149  2.0676
  116SAPE  H13Y12244   7.456   6.239   4.911 -0.5596 -0.9064 -0.8641
  116SAPE  C31412245   7.414   6.057   5.014  0.6183 -0.1851  0.2043
  116SAPE  H14X12246   7.494   5.993   4.969  0.3148 -0.4952  0.1047
  116SAPE  H14Y12247   7.335   5.979   5.021  0.2431  0.1665 -0.0530
  116SAPE  C31512248   7.445   6.112   5.153  0.4047 -0.3042 -0.1973
  116SAPE  H15X12249   7.357   6.175   5.178  0.6529  0.1413 -0.4470
  116SAPE  H15Y12250   7.539   6.170   5.151 -0.4284  1.3791  3.0237
  116SAPE  C31612251   7.440   5.996   5.258  0.3429  0.0480 -0.6134
  116SAPE  H16X12252   7.520   5.923   5.237  0.9138  0.8875 -1.4320
  116SAPE  H16Y12253   7.336   5.959   5.270  0.4812 -0.3392 -0.6275
  116SAPE  C31712254   7.474   6.043   5.404 -0.6544 -0.4328  0.6350
  116SAPE  H17X12255   7.382   6.015   5.460 -0.4725 -0.9691  0.6697
  116SAPE  H17Y12256   7.471   6.154   5.401  2.4059 -0.2827 -1.9602
  116SAPE  C31812257   7.594   5.992   5.475  0.5640 -0.1275 -0.1827
  116SAPE  H18X12258   7.578   6.036   5.575 -0.2132  0.9862 -0.7734
  116SAPE  H18Y12259   7.685   6.034   5.428  1.0868  0.3891  1.2603
  116SAPE  H18Z12260   7.586   5.881   5.486  2.6383 -0.3304 -0.4334
  117SOPE     N12261   2.950   0.637   7.489 -0.4319  0.0798 -0.4417
  117SOPE   HN112262   2.949   0.732   7.446 -0.1032  0.7556  0.9960
  117SOPE   HN212263   2.873   0.632   7.559  0.2038  2.2389  0.5034
  117SOPE   HN312264   3.042   0.625   7.535  0.6597 -0.3245 -2.5917
  117SOPE   C1212265   2.943   0.530   7.389  0.1648  0.0696  1.0567
  117SOPE  H12A12266   2.950   0.427   7.432 -3.3881 -0.8199 -0.1760
  117SOPE  H12B12267   3.031   0.554   7.326  0.1248  1.4142  1.4850
  117SOPE   C1112268   2.810   0.534   7.298  0.5211  0.3810 -0.5689
  117SOPE  H11A12269   2.832   0.460   7.218  0.4855 -0.6302  0.3302
  117SOPE  H11B12270   2.787   0.638   7.266  0.4767  1.1179  1.6981
  117SOPE     P12271   2.559   0.544   7.348  0.0266  0.0333  0.0439
  117SOPE   O1312272   2.567   0.688   7.328 -0.0525 -0.3291 -0.3087
  117SOPE   O1412273   2.479   0.501   7.472 -0.3090  0.3236  0.5421
  117SOPE   O1212274   2.702   0.481   7.376 -0.1300 -0.3491  0.3401
  117SOPE   O1112275   2.516   0.476   7.211  0.1204 -0.3363  0.4057
  117SOPE    C112276   2.482   0.335   7.210  0.1902 -0.3530 -0.4814
  117SOPE    HA12277   2.377   0.328   7.243  0.2698  1.9926  0.4190
  117SOPE    HB12278   2.550   0.272   7.272 -1.7817 -0.4382  1.7021
  117SOPE    C212279   2.487   0.269   7.069 -0.1092 -0.3032 -0.7454
  117SOPE    HS12280   2.593   0.235   7.063 -0.8195 -3.0342  0.5836
  117SOPE   O2112281   2.445   0.362   6.968  0.0044  0.2403  0.1418
  117SOPE   C2112282   2.547   0.414   6.895 -0.0525 -0.7357 -0.5525
  117SOPE   O2212283   2.665   0.384   6.909  0.4328  0.2973  0.3859
  117SOPE   C2212284   2.496   0.492   6.774  0.0112 -0.0566  0.1268
  117SOPE   H2R12285   2.541   0.593   6.759  0.8703  0.1428  3.4278
  117SOPE   H2S12286   2.390   0.502   6.805  0.6442 -0.7486  2.7053
  117SOPE    C312287   2.395   0.141   7.057  0.4394 -0.2958 -0.0288
  117SOPE    HX12288   2.288   0.171   7.061  0.4466 -0.2681 -0.0370
  117SOPE    HY12289   2.422   0.078   7.144 -1.1513  0.5042  1.0959
  117SOPE   O3112290   2.417   0.077   6.932  0.2589 -0.0287  0.1876
  117SOPE   C3112291   2.527   0.004   6.920 -0.0999 -0.3561 -0.8957
  117SOPE   O3212292   2.616  -0.001   7.004 -0.6486 -0.1715 -0.1005
  117SOPE   C3212293   2.541  -0.070   6.785 -0.6206 -0.1854  0.5398
  117SOPE   H2X12294   2.504  -0.174   6.797 -1.7611  0.0846 -0.4583
  117SOPE   H2Y12295   2.651  -0.076   6.770  0.0543  1.0573  3.9814
  117SOPE   C2312296   2.519   0.411   6.641 -0.2718  0.1667  0.0106
  117SOPE   H3R12297   2.446   0.327   6.642  0.6486 -0.7428 -2.3034
  117SOPE   H3S12298   2.620   0.365   6.651 -0.3776  0.1380  1.0553
  117SOPE   C2412299   2.501   0.498   6.515  0.2415 -0.4853  0.0696
  117SOPE   H4R12300   2.398   0.538   6.520 -0.2671 -1.8363  0.8755
  117SOPE   H4S12301   2.570   0.585   6.521  1.0009 -1.1331  1.0715
  117SOPE   C2512302   2.508   0.411   6.385 -0.5447 -0.1344 -0.8818
  117SOPE   H5R12303   2.468   0.312   6.413  0.6182 -0.0077  1.4523
  117SOPE   H5S12304   2.428   0.446   6.317 -0.4934  1.1855 -0.3010
  117SOPE   C2612305   2.636   0.418   6.308 -0.1669  0.3020  0.2027
  117SOPE   H6R12306   2.636   0.521   6.268  0.5083 -0.1130 -0.9240
  117SOPE   H6S12307   2.728   0.417   6.371  0.6258  1.8310 -0.8540
  117SOPE   C2712308   2.645   0.327   6.182 -0.5472 -0.2670 -0.1165
  117SOPE   H7R12309   2.740   0.344   6.128  0.1408 -1.1154  0.7965
  117SOPE   H7S12310   2.661   0.224   6.221  1.8355 -0.2324 -0.8755
  117SOPE   C2812311   2.517   0.328   6.100 -0.4629  0.1315 -0.3431
  117SOPE   H8R12312   2.537   0.241   6.033 -0.6313 -2.1086  2.3139
  117SOPE   H8S12313   2.432   0.295   6.164  1.2874 -1.2617  1.4080
  117SOPE   C2912314   2.503   0.454   6.028  0.4732 -0.2354 -0.4259
  117SOPE   H9112315   2.529   0.544   6.085  3.2301 -1.4581  0.4563
  117SOPE  C21012316   2.488   0.474   5.900 -1.2965  0.7687 -0.1764
  117SOPE  H10112317   2.494   0.577   5.862 -0.2962  0.4000 -1.0605
  117SOPE  C21112318   2.470   0.368   5.790  0.4486  0.3803  0.0629
  117SOPE  H11R12319   2.524   0.272   5.800  0.9799  0.3365 -2.4744
  117SOPE  H11S12320   2.511   0.419   5.700  0.2662 -0.3235 -0.4296
  117SOPE  C21212321   2.320   0.339   5.749  0.1907  0.1104  0.7784
  117SOPE  H12R12322   2.244   0.418   5.766  0.3006  0.2749  0.5066
  117SOPE  H12S12323   2.292   0.258   5.820 -0.1112 -0.6923 -0.2317
  117SOPE  C21312324   2.328   0.282   5.603 -0.2881  0.4553 -0.4087
  117SOPE  H13R12325   2.403   0.201   5.590 -1.2913 -0.7996  1.1315
  117SOPE  H13S12326   2.352   0.363   5.532 -0.2603  0.7991 -0.0084
  117SOPE  C21412327   2.195   0.215   5.564  0.2658 -0.6399  0.1687
  117SOPE  H14R12328   2.117   0.269   5.621  1.2469 -1.9623  2.9581
  117SOPE  H14S12329   2.184   0.109   5.595 -0.6001 -0.4592  0.4896
  117SOPE  C21512330   2.162   0.234   5.413 -0.0710  0.0489  0.4208
  117SOPE  H15R12331   2.224   0.162   5.357  1.4350 -0.2204  2.3371
  117SOPE  H15S12332   2.185   0.339   5.385 -1.7578 -0.2123 -2.2506
  117SOPE  C21612333   2.016   0.207   5.366  0.3034  0.0607  0.2596
  117SOPE  H16R12334   1.949   0.259   5.438  1.0129  0.9642  0.2782
  117SOPE  H16S12335   2.005   0.097   5.382  3.0465 -0.3169  0.0023
  117SOPE  C21712336   1.983   0.256   5.231  0.5348 -0.7076 -0.3910
  117SOPE  H17R12337   1.994   0.366   5.242  0.0376 -0.8428  2.2536
  117SOPE  H17S12338   1.875   0.249   5.204  0.4728  2.0067 -1.0598
  117SOPE  C21812339   2.074   0.195   5.116 -0.6978 -0.0314 -1.0241
  117SOPE  H18R12340   2.027   0.195   5.016 -0.1870 -1.2071 -1.2715
  117SOPE  H18S12341   2.120   0.101   5.152  3.7622  2.0001 -0.6096
  117SOPE  H18T12342   2.164   0.259   5.098 -0.9712  0.3631 -1.0146
  117SOPE   C3312343   2.472   0.003   6.665  0.7586  0.4835  0.2599
  117SOPE   H3X12344   2.523   0.101   6.651  1.3265  0.0753 -0.6445
  117SOPE   H3Y12345   2.363   0.012   6.682  0.6701  2.5892 -1.0962
  117SOPE   C3412346   2.475  -0.084   6.544 -0.3617  0.2214 -0.2109
  117SOPE   H4X12347   2.396  -0.161   6.556  0.3881 -0.2505  2.1461
  117SOPE   H4Y12348   2.573  -0.136   6.552 -1.4019 -1.4359  4.5192
  117SOPE   C3512349   2.457  -0.004   6.413 -0.3835 -0.8919  0.5958
  117SOPE   H5X12350   2.540   0.071   6.415 -0.9696 -0.2384  0.9347
  117SOPE   H5Y12351   2.365   0.056   6.426 -0.1082  0.1967 -1.9957
  117SOPE   C3612352   2.463  -0.094   6.281  0.4561 -0.0236 -0.6475
  117SOPE   H6X12353   2.376  -0.163   6.273 -0.2725  0.6304  1.1473
  117SOPE   H6Y12354   2.553  -0.158   6.285  1.3258  1.1509 -0.7165
  117SOPE   C3712355   2.479  -0.007   6.159  0.0234  0.1984 -0.4418
  117SOPE   H7X12356   2.582   0.034   6.165  0.0012  0.3593 -1.0991
  117SOPE   H7Y12357   2.411   0.081   6.161 -1.0361 -0.6030  1.9177
  117SOPE   C3812358   2.470  -0.101   6.035 -0.4207  0.2125 -0.0672
  117SOPE   H8X12359   2.366  -0.138   6.023 -0.3021  0.5629 -3.0348
  117SOPE   H8Y12360   2.529  -0.195   6.043  0.1723  0.6482  0.9218
  117SOPE   C3912361   2.518  -0.030   5.909  0.1039  0.2395 -0.5404
  117SOPE   H9X12362   2.617   0.015   5.931  0.5198 -0.4140 -1.0313
  117SOPE   H9Y12363   2.440   0.043   5.881 -0.0451  1.1300  1.9577
  117SOPE  C31012364   2.548  -0.118   5.781  0.7213 -0.0649 -0.3452
  117SOPE  H10X12365   2.583  -0.221   5.802  0.6815 -0.0597 -0.2534
  117SOPE  H10Y12366   2.629  -0.066   5.725 -0.7708  2.5490 -0.2296
  117SOPE  C31112367   2.429  -0.136   5.690 -0.1316  0.0412  0.6584
  117SOPE  H11X12368   2.367  -0.046   5.672 -0.1651  0.5044  2.8421
  117SOPE  H11Y12369   2.357  -0.212   5.726 -0.3962 -0.1437 -0.2216
  117SOPE  C31212370   2.492  -0.179   5.547 -0.1177  0.2815 -0.1777
  117SOPE  H12X12371   2.556  -0.268   5.565 -0.3742 -0.3125 -1.9807
  117SOPE  H12Y12372   2.547  -0.093   5.504 -1.8540  0.5238 -2.0834
  117SOPE  C31312373   2.381  -0.213   5.440 -0.0172 -0.2923  0.0357
  117SOPE  H13X12374   2.280  -0.175   5.469  0.2890 -0.1660  0.9727
  117SOPE  H13Y12375   2.371  -0.323   5.452 -1.1851 -0.1327  0.7308
  117SOPE  C31412376   2.419  -0.173   5.305  0.3945 -0.7929 -0.1102
  117SOPE  H14X12377   2.528  -0.183   5.290  0.4047 -0.7495 -0.0640
  117SOPE  H14Y12378   2.395  -0.066   5.288  0.5356 -0.9224 -1.2142
  117SOPE  C31512379   2.338  -0.263   5.212 -0.0506  0.2361  0.4431
  117SOPE  H15X12380   2.228  -0.249   5.222 -0.5555  0.0325 -3.3819
  117SOPE  H15Y12381   2.350  -0.371   5.237  0.8911  0.4761  1.0461
  117SOPE  C31612382   2.383  -0.249   5.066  0.2177  0.0545  0.2793
  117SOPE  H16X12383   2.356  -0.143   5.045 -1.8037 -0.2641  0.9991
  117SOPE  H16Y12384   2.316  -0.318   5.010 -0.0462  0.7912 -0.3217
  117SOPE  C31712385   2.526  -0.269   5.038  0.3280 -0.0968  0.3946
  117SOPE  H17X12386   2.580  -0.172   5.038  1.2881 -0.5529 -2.1928
  117SOPE  H17Y12387   2.524  -0.291   4.929 -2.9107 -2.4687  0.7715
  117SOPE  C31812388   2.594  -0.386   5.110  0.7594  0.0009 -0.1597
  117SOPE  H18X12389   2.522  -0.470   5.115  1.6632 -0.9227 -1.8159
  117SOPE  H18Y12390   2.629  -0.357   5.212  0.5260 -0.3185  0.0113
  117SOPE  H18Z12391   2.681  -0.421   5.051  0.1868 -0.3439 -0.8143
  118SOPE     N12392   2.483   0.933   7.369 -0.5450  0.1652 -0.4992
  118SOPE   HN112393   2.395   0.915   7.422  0.6459 -1.4639  1.0223
  118SOPE   HN212394   2.529   0.843   7.345 -1.7406 -0.7426  0.5122
  118SOPE   HN312395   2.547   0.989   7.429 -2.0026 -0.4955  1.8008
  118SOPE   C1212396   2.459   0.993   7.236  0.5232 -0.0906  0.2095
  118SOPE  H12A12397   2.364   1.051   7.242  1.0708  1.0995 -1.4982
  118SOPE  H12B12398   2.453   0.908   7.165 -1.1310 -1.0667  1.4504
  118SOPE   C1112399   2.589   1.068   7.190  0.2848 -0.6259  0.1927
  118SOPE  H11A12400   2.567   1.109   7.089 -1.7635 -0.4311  0.6567
  118SOPE  H11B12401   2.671   0.995   7.177 -0.0779 -0.8168 -1.2267
  118SOPE     P12402   2.729   1.175   7.388 -0.0396 -0.1232  0.0728
  118SOPE   O1312403   2.715   1.055   7.469  0.2135  0.4520 -0.2302
  118SOPE   O1412404   2.724   1.309   7.453 -0.1172  0.2086 -0.4987
  118SOPE   O1212405   2.619   1.182   7.275  0.0426 -0.1576 -0.2267
  118SOPE   O1112406   2.866   1.165   7.305 -0.1721  0.1170 -0.3606
  118SOPE    C112407   2.903   1.251   7.201 -0.4457 -0.2999 -0.3897
  118SOPE    HA12408   2.885   1.357   7.230  4.3793 -0.2989  3.8976
  118SOPE    HB12409   2.868   1.222   7.100 -1.4627 -1.7099  0.3228
  118SOPE    C212410   3.056   1.256   7.198 -0.4786 -0.2038  0.6419
  118SOPE    HS12411   3.100   1.281   7.297  2.4296  0.0330 -0.6103
  118SOPE   O2112412   3.089   1.368   7.105  0.3455 -0.2865  0.2272
  118SOPE   C2112413   3.207   1.418   7.122  0.3212 -0.1161  0.2557
  118SOPE   O2212414   3.288   1.399   7.210 -0.2151 -0.1652  0.3664
  118SOPE   C2212415   3.236   1.503   7.005  0.1797  0.4978  0.4111
  118SOPE   H2R12416   3.275   1.431   6.929 -2.4678 -0.5142 -0.1002
  118SOPE   H2S12417   3.312   1.580   7.029  0.7692 -0.0677  0.3827
  118SOPE    C312418   3.128   1.124   7.150  0.0272  0.2374 -0.1848
  118SOPE    HX12419   3.095   1.045   7.222 -0.6107  0.3354 -0.3598
  118SOPE    HY12420   3.236   1.145   7.164  0.2214  1.2841 -2.7405
  118SOPE   O3112421   3.100   1.091   7.010 -0.0843  0.5160  0.5144
  118SOPE   C3112422   3.015   0.991   6.991  0.6974  0.9639  0.7769
  118SOPE   O3212423   2.953   0.923   7.073  0.3558  0.0134 -0.0192
  118SOPE   C3212424   2.996   0.985   6.835 -0.1710 -0.2348 -0.4522
  118SOPE   H2X12425   2.950   0.886   6.816 -0.7905  0.3684 -2.2953
  118SOPE   H2Y12426   3.097   0.965   6.792 -1.0413 -3.0863 -1.3159
  118SOPE   C2312427   3.115   1.587   6.960 -0.4950  0.1204 -0.4331
  118SOPE   H3R12428   3.039   1.609   7.038 -0.7345 -0.4731 -0.4924
  118SOPE   H3S12429   3.053   1.530   6.887 -1.7957  1.0992 -0.1274
  118SOPE   C2412430   3.151   1.719   6.896  0.2324  0.1240 -0.0222
  118SOPE   H4R12431   3.170   1.791   6.979 -0.0429 -2.0282  2.0144
  118SOPE   H4S12432   3.237   1.708   6.827 -1.0581 -1.3771 -1.4903
  118SOPE   C2512433   3.026   1.766   6.805 -0.1936 -0.5891 -0.5332
  118SOPE   H5R12434   2.930   1.734   6.851 -0.2685  0.4509  0.0652
  118SOPE   H5S12435   3.036   1.876   6.803  0.2620 -0.6223 -0.3850
  118SOPE   C2612436   3.035   1.724   6.652 -0.1724 -0.3287  0.5775
  118SOPE   H6R12437   3.141   1.746   6.630 -0.3122 -1.1248 -1.0431
  118SOPE   H6S12438   3.026   1.616   6.628  1.8986 -0.7213  1.4101
  118SOPE   C2712439   2.944   1.815   6.568 -0.3805  0.7346 -0.5386
  118SOPE   H7R12440   2.841   1.775   6.575 -0.2972  0.7602  1.4595
  118SOPE   H7S12441   2.938   1.917   6.612 -1.8784  0.1650  0.6877
  118SOPE   C2812442   3.001   1.822   6.423 -0.1672  0.1129 -0.7267
  118SOPE   H8R12443   3.106   1.857   6.424 -0.3758  0.7569  0.4196
  118SOPE   H8S12444   3.011   1.717   6.388 -0.5460 -0.0323 -0.4078
  118SOPE   C2912445   2.912   1.893   6.323  0.0880  0.0601  0.0079
  118SOPE   H9112446   2.827   1.951   6.362 -1.2868 -1.3118 -0.8318
  118SOPE  C21012447   2.921   1.880   6.189 -0.5911 -0.2663 -0.3605
  118SOPE  H10112448   2.857   1.943   6.125  0.9684  0.5355 -1.1929
  118SOPE  C21112449   3.024   1.795   6.118 -0.2250 -0.0186  0.5005
  118SOPE  H11R12450   2.973   1.706   6.073  0.1433  0.3890 -0.7710
  118SOPE  H11S12451   3.094   1.752   6.193  0.4645  0.8536  0.3662
  118SOPE  C21212452   3.107   1.861   6.008  0.1982  0.1007 -0.0018
  118SOPE  H12R12453   3.204   1.811   5.984  1.0887  2.3502 -1.4133
  118SOPE  H12S12454   3.120   1.962   6.051 -1.6746  0.3198  0.1365
  118SOPE  C21312455   3.029   1.874   5.877  0.1278 -0.7191 -0.2252
  118SOPE  H13R12456   2.923   1.888   5.908  0.1125 -4.6371  2.0905
  118SOPE  H13S12457   3.023   1.775   5.828 -0.1458  0.3653 -2.5355
  118SOPE  C21412458   3.082   1.979   5.778  0.0899 -0.1397  0.0243
  118SOPE  H14R12459   3.105   2.074   5.831  1.4600  0.4142 -1.4730
  118SOPE  H14S12460   3.014   2.001   5.692  1.2593 -3.1970 -1.8567
  118SOPE  C21512461   3.212   1.927   5.708 -0.8411 -0.4455 -0.0077
  118SOPE  H15R12462   3.198   1.831   5.654 -2.6064 -1.0818  1.4974
  118SOPE  H15S12463   3.281   1.911   5.794  0.0941 -1.1399 -0.8554
  118SOPE  C21612464   3.286   2.030   5.620 -0.3079  1.0120  0.2287
  118SOPE  H16R12465   3.396   2.022   5.617 -0.3808 -0.6120  1.1032
  118SOPE  H16S12466   3.268   2.121   5.682 -1.7596  0.9720 -0.0958
  118SOPE  C21712467   3.221   2.061   5.490 -0.1535  1.2857  0.1083
  118SOPE  H17R12468   3.265   2.157   5.454 -0.7195  1.4728 -0.0968
  118SOPE  H17S12469   3.111   2.065   5.503 -0.2691  0.1351 -0.4409
  118SOPE  C21812470   3.240   1.949   5.385 -0.4196 -0.1542  0.3482
  118SOPE  H18R12471   3.188   1.855   5.413  0.2718 -0.7152 -0.2167
  118SOPE  H18S12472   3.348   1.933   5.362 -1.3013 -1.6250 -3.6249
  118SOPE  H18T12473   3.201   1.996   5.292 -0.3484  2.0193  1.3608
  118SOPE   C3312474   2.909   1.101   6.774 -0.4037  0.2807 -0.3836
  118SOPE   H3X12475   2.955   1.201   6.789 -0.9890  0.2592  1.8774
  118SOPE   H3Y12476   2.813   1.118   6.827  1.5908 -0.5011  3.9085
  118SOPE   C3412477   2.896   1.097   6.617 -1.2143  0.3614 -0.1371
  118SOPE   H4X12478   2.862   1.195   6.577  0.6007  0.0827 -2.6329
  118SOPE   H4Y12479   2.824   1.016   6.591 -0.4096 -1.4450  2.6971
  118SOPE   C3512480   3.033   1.071   6.552  0.2641  0.0243  0.1181
  118SOPE   H5X12481   3.051   0.964   6.575  0.9937 -0.4817 -2.4272
  118SOPE   H5Y12482   3.115   1.134   6.593  1.9490 -0.4359 -2.3208
  118SOPE   C3612483   3.004   1.080   6.397  0.1880  0.1329 -0.3365
  118SOPE   H6X12484   2.894   1.069   6.384  0.1658 -0.5315  0.2958
  118SOPE   H6Y12485   3.038   0.983   6.353  1.7237 -0.1071  1.2793
  118SOPE   C3712486   3.058   1.201   6.326 -0.0836 -0.0825 -0.0204
  118SOPE   H7X12487   3.169   1.208   6.333 -0.0858 -1.2319  1.7561
  118SOPE   H7Y12488   3.020   1.292   6.376  0.1471 -0.3463  0.6473
  118SOPE   C3812489   3.010   1.212   6.186 -0.6795  0.2609  0.0027
  118SOPE   H8X12490   3.022   1.318   6.155  2.2696 -0.5796 -2.0724
  118SOPE   H8Y12491   2.903   1.182   6.187 -1.3533  2.4273  0.5124
  118SOPE   C3912492   3.100   1.132   6.093 -0.5535  0.0034  0.4153
  118SOPE   H9X12493   3.095   1.023   6.111 -0.7178 -0.2989 -1.2559
  118SOPE   H9Y12494   3.209   1.155   6.103 -0.8066  0.2086  3.9304
  118SOPE  C31012495   3.061   1.152   5.943 -0.2330 -0.0473 -0.2423
  118SOPE  H10X12496   3.078   1.255   5.906  0.4169  0.3791  1.1700
  118SOPE  H10Y12497   2.958   1.114   5.927  0.2303 -0.5007 -2.5180
  118SOPE  C31112498   3.141   1.050   5.851  0.3121  1.1793 -0.0643
  118SOPE  H11X12499   3.091   0.951   5.857  3.0243 -0.1858  2.0806
  118SOPE  H11Y12500   3.238   1.037   5.903  0.8360 -0.9676 -1.4236
  118SOPE  C31212501   3.151   1.104   5.706 -0.5493  0.0587  0.0828
  118SOPE  H12X12502   3.211   1.198   5.715 -1.3148  0.7221 -1.3813
  118SOPE  H12Y12503   3.052   1.123   5.661 -0.3978  0.7937  0.0420
  118SOPE  C31312504   3.245   1.011   5.625  0.1501 -0.9286 -0.1308
  118SOPE  H13X12505   3.189   0.914   5.627 -1.3788 -0.0800 -0.5294
  118SOPE  H13Y12506   3.341   0.998   5.679  0.2697  2.1107  0.5492
  118SOPE  C31412507   3.259   1.059   5.484 -0.0450 -0.5455 -0.4535
  118SOPE  H14X12508   3.161   1.069   5.434 -0.1207  0.4877 -0.1370
  118SOPE  H14Y12509   3.326   0.995   5.423  0.5035 -0.2792 -0.1507
  118SOPE  C31512510   3.308   1.204   5.454  0.5282 -0.3040 -0.8875
  118SOPE  H15X12511   3.402   1.221   5.510  2.8971 -0.4851 -4.4700
  118SOPE  H15Y12512   3.227   1.276   5.480  1.5224  1.4451 -2.3603
  118SOPE  C31612513   3.340   1.240   5.308  0.6639 -0.8543  0.2366
  118SOPE  H16X12514   3.425   1.187   5.260 -0.0429 -0.3420 -1.7102
  118SOPE  H16Y12515   3.363   1.349   5.309 -0.2647 -0.6488  0.7090
  118SOPE  C31712516   3.228   1.208   5.207 -0.0688  0.3162 -0.0208
  118SOPE  H17X12517   3.126   1.235   5.241 -0.1364 -1.4284  1.2650
  118SOPE  H17Y12518   3.234   1.101   5.179  0.4829  0.5874 -1.0077
  118SOPE  C31812519   3.255   1.270   5.071 -0.0365  0.0690  0.0323
  118SOPE  H18X12520   3.160   1.266   5.013  0.3343  2.0958 -0.7788
  118SOPE  H18Y12521   3.330   1.202   5.024 -0.3476 -0.4809  0.3226
  118SOPE  H18Z12522   3.291   1.374   5.076 -0.2795  0.0921  1.9324
  119SOPE     N12523   3.997   2.239   7.472 -0.8618  0.1617 -0.0896
  119SOPE   HN112524   3.977   2.157   7.533 -1.1819  1.6066  1.8422
  119SOPE   HN212525   4.022   2.320   7.531 -2.5917  1.6175 -1.2478
  119SOPE   HN312526   3.913   2.270   7.418 -1.3309  0.0647  0.5663
  119SOPE   C1212527   4.091   2.208   7.360  0.3774 -0.2019 -0.3892
  119SOPE  H12A12528   4.197   2.228   7.383  0.2407 -0.6907  0.7315
  119SOPE  H12B12529   4.055   2.274   7.278  1.3509  1.1217  0.2229
  119SOPE   C1112530   4.085   2.058   7.307  0.4134  0.2412  0.2870
  119SOPE  H11A12531   4.138   1.985   7.372  3.4708  1.9541 -0.0796
  119SOPE  H11B12532   4.148   2.064   7.216 -0.4529 -0.2006 -0.3568
  119SOPE     P12533   3.846   1.928   7.337 -0.3005 -0.2764  0.0015
  119SOPE   O1312534   3.731   2.014   7.354 -0.3418 -0.5739 -0.2331
  119SOPE   O1412535   3.906   1.879   7.467 -0.2438 -0.4894  0.0624
  119SOPE   O1212536   3.958   2.008   7.255 -0.5429 -0.4100 -0.2426
  119SOPE   O1112537   3.827   1.796   7.246  0.0344  0.0895 -0.4292
  119SOPE    C112538   3.945   1.721   7.200  0.8764  0.2936  0.0452
  119SOPE    HA12539   3.923   1.613   7.186 -1.7200  0.1149  3.9034
  119SOPE    HB12540   4.038   1.737   7.258  0.9470 -1.1450  0.3522
  119SOPE    C212541   3.990   1.763   7.060 -0.6468 -1.1406 -0.2585
  119SOPE    HS12542   4.018   1.870   7.075  0.6933 -1.7724  2.4593
  119SOPE   O2112543   3.884   1.742   6.965 -0.5541  0.1006 -0.4683
  119SOPE   C2112544   3.871   1.823   6.868  0.3616  0.0205 -0.1903
  119SOPE   O2212545   3.939   1.925   6.852 -0.0744  0.1394 -0.1338
  119SOPE   C2212546   3.749   1.779   6.789 -0.2774 -0.0959  0.3350
  119SOPE   H2R12547   3.674   1.732   6.856  0.9366 -1.7814  0.5879
  119SOPE   H2S12548   3.776   1.703   6.713 -0.0644 -0.3561  0.6727
  119SOPE    C312549   4.114   1.686   7.017 -0.0716  1.2788 -0.6658
  119SOPE    HX12550   4.090   1.577   7.018  1.9297  0.8097 -0.9990
  119SOPE    HY12551   4.189   1.705   7.097  1.5521 -2.5252 -1.0714
  119SOPE   O3112552   4.161   1.711   6.892 -0.0131  0.0134 -0.5377
  119SOPE   C3112553   4.260   1.805   6.885 -0.1703 -0.3964  0.1026
  119SOPE   O3212554   4.297   1.878   6.977 -0.3666  0.1081 -0.2574
  119SOPE   C3212555   4.310   1.825   6.743 -0.8426  0.2878 -0.4639
  119SOPE   H2X12556   4.286   1.741   6.673  0.7661  1.9713 -3.2255
  119SOPE   H2Y12557   4.418   1.852   6.749 -0.9137  0.2088  1.9709
  119SOPE   C2312558   3.708   1.899   6.698  0.1199  0.1712 -0.4853
  119SOPE   H3R12559   3.776   1.916   6.612  1.4603 -3.1021 -0.2398
  119SOPE   H3S12560   3.700   1.993   6.756  0.4733  0.8161 -1.4601
  119SOPE   C2412561   3.571   1.883   6.631 -0.4182  0.3280 -0.9046
  119SOPE   H4R12562   3.491   1.880   6.708  2.4140 -0.7670  2.2626
  119SOPE   H4S12563   3.550   1.968   6.562 -3.7183  0.1357 -0.2898
  119SOPE   C2512564   3.555   1.742   6.557 -0.3735  0.0948  0.2323
  119SOPE   H5R12565   3.657   1.716   6.520 -0.6199 -0.7876  0.1446
  119SOPE   H5S12566   3.520   1.672   6.636 -4.3199  1.2791 -0.2604
  119SOPE   C2612567   3.447   1.741   6.445  0.8278  0.6636  0.7343
  119SOPE   H6R12568   3.357   1.780   6.497  0.4237 -2.2324  2.3929
  119SOPE   H6S12569   3.479   1.811   6.364  1.0007 -0.3926 -0.1353
  119SOPE   C2712570   3.424   1.608   6.378  0.1833 -0.2191 -0.5524
  119SOPE   H7R12571   3.518   1.557   6.346  0.5958  1.4003 -2.0750
  119SOPE   H7S12572   3.364   1.542   6.444 -0.4928  0.4713 -0.4631
  119SOPE   C2812573   3.346   1.626   6.248 -0.3464 -0.8147 -0.0926
  119SOPE   H8R12574   3.246   1.671   6.265 -0.6255 -1.6867  0.6778
  119SOPE   H8S12575   3.392   1.699   6.178  2.4400 -0.7941  1.5853
  119SOPE   C2912576   3.315   1.490   6.187 -0.2933  0.3007 -0.1695
  119SOPE   H9112577   3.236   1.433   6.236  0.4854 -2.3022 -1.7366
  119SOPE  C21012578   3.365   1.440   6.072  0.5890 -0.3727  0.2832
  119SOPE  H10112579   3.321   1.343   6.043  0.6465  0.4165 -2.6808
  119SOPE  C21112580   3.457   1.500   5.966  0.0884  0.0054 -0.5823
  119SOPE  H11R12581   3.556   1.451   5.979 -0.6321 -0.9923  1.5922
  119SOPE  H11S12582   3.477   1.605   5.994  0.0094 -0.0251 -0.4105
  119SOPE  C21212583   3.399   1.478   5.822 -0.2028  0.4534  0.2197
  119SOPE  H12R12584   3.300   1.529   5.813  0.5205  1.5675 -2.4612
  119SOPE  H12S12585   3.395   1.370   5.797 -0.6781  1.1324 -3.1133
  119SOPE  C21312586   3.498   1.541   5.725 -0.4547  0.1832 -0.8697
  119SOPE  H13R12587   3.591   1.480   5.733 -0.0318  0.7883 -1.1222
  119SOPE  H13S12588   3.523   1.645   5.754 -0.3357 -0.5541  1.9380
  119SOPE  C21412589   3.438   1.532   5.586 -0.3037 -0.1832 -0.3145
  119SOPE  H14R12590   3.331   1.561   5.594 -0.5400 -1.1201  0.0088
  119SOPE  H14S12591   3.447   1.428   5.549 -0.3054 -1.4327  2.8358
  119SOPE  C21512592   3.502   1.622   5.475 -0.0814  0.3101 -0.4500
  119SOPE  H15R12593   3.483   1.731   5.486 -3.9979 -0.0307 -2.1397
  119SOPE  H15S12594   3.447   1.592   5.383  0.4569  3.1716 -1.8206
  119SOPE  C21612595   3.652   1.621   5.466  0.3735  0.4494  0.1278
  119SOPE  H16R12596   3.697   1.534   5.415  1.2310  0.7908  0.2801
  119SOPE  H16S12597   3.705   1.623   5.564  1.3073  1.4429 -0.3738
  119SOPE  C21712598   3.702   1.754   5.404 -0.4454  0.1555  0.1546
  119SOPE  H17R12599   3.662   1.836   5.468 -0.5179  0.0132  0.2898
  119SOPE  H17S12600   3.655   1.765   5.304  0.5947  2.2733 -0.1625
  119SOPE  C21812601   3.852   1.764   5.390 -0.4028 -0.8674 -0.1807
  119SOPE  H18R12602   3.876   1.868   5.362 -1.8202  0.0947  1.9026
  119SOPE  H18S12603   3.902   1.694   5.319  1.0872  0.0698 -0.0917
  119SOPE  H18T12604   3.885   1.758   5.496 -2.3045  4.0642  0.9399
  119SOPE   C3312605   4.238   1.947   6.680 -0.0745 -0.3528 -0.5972
  119SOPE   H3X12606   4.253   2.031   6.750  0.2101 -0.9204  0.0333
  119SOPE   H3Y12607   4.128   1.933   6.677 -0.5455  2.4297  0.9715
  119SOPE   C3412608   4.301   1.976   6.548  0.3127  0.6617 -0.2349
  119SOPE   H4X12609   4.262   1.897   6.481  2.0703 -1.1512  0.8081
  119SOPE   H4Y12610   4.411   1.962   6.543 -0.0660 -2.5434 -1.2262
  119SOPE   C3512611   4.253   2.102   6.481 -0.2811  0.5255  0.4713
  119SOPE   H5X12612   4.266   2.185   6.553  0.0465  0.6599  0.2601
  119SOPE   H5Y12613   4.143   2.090   6.466 -0.1455 -0.1320 -0.0610
  119SOPE   C3612614   4.322   2.125   6.342  0.7559  0.1431 -0.9219
  119SOPE   H6X12615   4.318   2.034   6.278 -2.9940  0.1048 -0.8114
  119SOPE   H6Y12616   4.426   2.159   6.362 -0.3448  2.6263  1.2273
  119SOPE   C3712617   4.251   2.233   6.271  0.4904  0.0785 -0.0258
  119SOPE   H7X12618   4.249   2.327   6.330  0.9744  0.1821 -0.1681
  119SOPE   H7Y12619   4.141   2.223   6.259  0.2389  3.1387 -1.1949
  119SOPE   C3812620   4.307   2.258   6.132  0.4560 -0.1872  0.7258
  119SOPE   H8X12621   4.416   2.279   6.135  0.3308  0.6455 -0.0853
  119SOPE   H8Y12622   4.254   2.348   6.094  1.8638 -0.1231 -1.2089
  119SOPE   C3912623   4.275   2.145   6.029 -0.5147  0.5153 -0.2147
  119SOPE   H9X12624   4.164   2.141   6.023 -0.6174 -3.6540  0.9802
  119SOPE   H9Y12625   4.311   2.045   6.062  1.7926  0.2011 -3.2399
  119SOPE  C31012626   4.331   2.155   5.885  0.4480  0.1104  0.0555
  119SOPE  H10X12627   4.437   2.125   5.876 -0.0264 -1.6317 -0.0968
  119SOPE  H10Y12628   4.330   2.257   5.842  1.5892 -0.0218 -0.3191
  119SOPE  C31112629   4.268   2.055   5.785  0.0010  0.1625 -1.0236
  119SOPE  H11X12630   4.309   2.077   5.684  1.8274 -0.0684 -0.3740
  119SOPE  H11Y12631   4.157   2.063   5.791 -0.2098 -1.0550 -2.5498
  119SOPE  C31212632   4.304   1.901   5.825 -0.6364  0.1002 -0.0343
  119SOPE  H12X12633   4.272   1.880   5.929 -0.6817 -0.7603 -0.2221
  119SOPE  H12Y12634   4.413   1.880   5.820 -0.6619 -0.0294 -0.0399
  119SOPE  C31312635   4.229   1.811   5.729  0.2819 -0.4982  0.1532
  119SOPE  H13X12636   4.122   1.841   5.722 -0.0537 -1.8259 -0.9462
  119SOPE  H13Y12637   4.233   1.715   5.786 -1.5217 -0.3334  0.6156
  119SOPE  C31412638   4.277   1.806   5.580 -0.2487 -0.2334 -0.1257
  119SOPE  H14X12639   4.385   1.832   5.582 -0.6246  1.4753 -0.5321
  119SOPE  H14Y12640   4.229   1.890   5.527  1.9357  0.2530 -1.4665
  119SOPE  C31512641   4.255   1.676   5.516 -0.1035  0.2235 -0.2814
  119SOPE  H15X12642   4.178   1.613   5.565  0.5940 -0.1747  0.3251
  119SOPE  H15Y12643   4.348   1.615   5.525 -0.3343  0.0473  1.0383
  119SOPE  C31612644   4.223   1.682   5.366  0.5664 -0.6449  0.0485
  119SOPE  H16X12645   4.306   1.746   5.329 -0.7918  1.1871  0.0120
  119SOPE  H16Y12646   4.134   1.745   5.347  0.2391 -1.5177 -1.4912
  119SOPE  C31712647   4.218   1.542   5.292  0.2349  0.4741 -0.1915
  119SOPE  H17X12648   4.315   1.489   5.306 -0.6202 -1.0780  0.0570
  119SOPE  H17Y12649   4.223   1.554   5.181  4.8382 -1.9779 -0.5220
  119SOPE  C31812650   4.097   1.450   5.328 -0.2347 -0.3501  0.1052
  119SOPE  H18X12651   4.097   1.442   5.439  3.8770  1.0507  0.3504
  119SOPE  H18Y12652   4.108   1.346   5.290 -0.8280 -0.2297 -0.4139
  119SOPE  H18Z12653   4.003   1.497   5.290  0.9958  0.7513 -1.6913
  120SOPE     N12654   6.705   4.074   7.906 -0.3794 -0.4050  0.2465
  120SOPE   HN112655   6.752   4.167   7.911 -1.0848 -0.1016  1.3388
  120SOPE   HN212656   6.773   4.008   7.948 -1.4898 -0.6613  1.6755
  120SOPE   HN312657   6.687   4.046   7.807  0.8426 -0.1800 -0.0577
  120SOPE   C1212658   6.570   4.060   7.960  0.3633 -0.4380  0.5098
  120SOPE  H12A12659   6.575   4.081   8.069  1.6692 -1.0992  0.6040
  120SOPE  H12B12660   6.539   3.954   7.954  0.0386 -0.5173  2.7401
  120SOPE   C1112661   6.470   4.166   7.903  0.5200 -0.0078 -0.6390
  120SOPE  H11A12662   6.457   4.154   7.793 -1.5104 -1.4455 -0.2938
  120SOPE  H11B12663   6.509   4.265   7.932  0.6301  0.1808 -1.3983
  120SOPE     P12664   6.241   4.037   7.907 -0.4118  0.2354 -0.2327
  120SOPE   O1312665   6.108   4.048   7.973  0.2691  0.3984 -0.1208
  120SOPE   O1412666   6.313   3.907   7.918 -0.1017 -0.0134  0.3080
  120SOPE   O1212667   6.343   4.143   7.952 -0.6665 -0.4719 -0.7455
  120SOPE   O1112668   6.221   4.064   7.750  0.0811  0.3793 -0.0446
  120SOPE    C112669   6.145   4.182   7.704 -0.3909  0.3470  0.8782
  120SOPE    HA12670   6.183   4.284   7.724  0.3862 -0.0407  1.4164
  120SOPE    HB12671   6.041   4.172   7.743 -0.9256  1.9753 -0.0363
  120SOPE    C212672   6.128   4.182   7.546 -0.1617 -0.0989 -0.4848
  120SOPE    HS12673   6.107   4.288   7.522  2.2536  0.1700 -1.7401
  120SOPE   O2112674   6.030   4.094   7.490 -0.1276  0.3056  0.4727
  120SOPE   C2112675   5.939   4.126   7.400  0.5489 -0.0080  0.6441
  120SOPE   O2212676   5.927   4.238   7.359 -0.3554 -0.5749  0.4032
  120SOPE   C2212677   5.840   4.007   7.372 -0.1486 -0.2050  0.1455
  120SOPE   H2R12678   5.794   3.965   7.464 -1.5023  0.4829 -0.1916
  120SOPE   H2S12679   5.901   3.931   7.319 -0.0099 -1.3084  1.8176
  120SOPE    C312680   6.263   4.149   7.476 -0.6587  0.1585 -0.1503
  120SOPE    HX12681   6.314   4.068   7.531 -0.0920  1.7365  1.7726
  120SOPE    HY12682   6.322   4.241   7.497  0.3922 -1.0625  2.7480
  120SOPE   O3112683   6.247   4.116   7.332  0.0268 -0.5710 -0.0010
  120SOPE   C3112684   6.286   4.209   7.245 -0.1204 -0.5029  0.2624
  120SOPE   O3212685   6.337   4.317   7.273 -0.2871 -0.6945 -0.2462
  120SOPE   C3212686   6.258   4.148   7.102 -0.2456 -0.9865  0.0011
  120SOPE   H2X12687   6.159   4.099   7.111 -0.1726 -0.8721  1.8702
  120SOPE   H2Y12688   6.338   4.076   7.074 -1.1300 -1.5143 -1.2387
  120SOPE   C2312689   5.726   4.047   7.271 -0.1659 -0.7632  0.5332
  120SOPE   H3R12690   5.687   4.146   7.303  1.2325 -0.3783  1.1226
  120SOPE   H3S12691   5.652   3.964   7.281 -0.4390 -0.4781  0.9351
  120SOPE   C2412692   5.764   4.057   7.127 -0.2634  0.3606 -0.8162
  120SOPE   H4R12693   5.866   4.101   7.119  0.1897 -0.0191  1.8614
  120SOPE   H4S12694   5.785   3.959   7.080 -0.8078 -0.5368  0.7633
  120SOPE   C2512695   5.663   4.124   7.035  0.1503 -0.5801  0.0264
  120SOPE   H5R12696   5.566   4.073   7.052 -0.5131  0.0556 -1.6228
  120SOPE   H5S12697   5.654   4.231   7.065  0.3500 -0.7508  0.7221
  120SOPE   C2612698   5.691   4.113   6.878  0.4409 -0.0117  0.5035
  120SOPE   H6R12699   5.802   4.111   6.871  0.7706 -1.1479  4.1243
  120SOPE   H6S12700   5.637   4.020   6.849  1.1006 -0.5416  0.9229
  120SOPE   C2712701   5.639   4.225   6.797  0.5497 -0.2331 -0.2410
  120SOPE   H7R12702   5.529   4.239   6.803  0.5709  0.8416 -1.7973
  120SOPE   H7S12703   5.669   4.318   6.850 -1.1648  0.2328 -0.0325
  120SOPE   C2812704   5.687   4.225   6.648  0.2805 -0.2804 -0.0161
  120SOPE   H8R12705   5.775   4.292   6.656  0.7544 -1.1042  2.5415
  120SOPE   H8S12706   5.709   4.125   6.604  0.2887  0.3206 -1.4257
  120SOPE   C2912707   5.576   4.285   6.561 -0.3719 -0.1376 -0.2895
  120SOPE   H9112708   5.498   4.341   6.614 -0.9753 -0.8591 -0.4001
  120SOPE  C21012709   5.589   4.277   6.425  0.5380 -1.2550  0.0038
  120SOPE  H10112710   5.509   4.330   6.370 -1.5289 -1.3197  2.7236
  120SOPE  C21112711   5.693   4.202   6.340 -0.7218 -0.3702 -0.3456
  120SOPE  H11R12712   5.737   4.113   6.388 -0.4989  0.5359  1.2001
  120SOPE  H11S12713   5.781   4.265   6.314 -1.5793  0.8099 -0.4921
  120SOPE  C21212714   5.632   4.149   6.208  0.5791 -0.3978 -0.1061
  120SOPE  H12R12715   5.603   4.236   6.145 -0.0822  1.8654  3.1198
  120SOPE  H12S12716   5.537   4.094   6.218 -1.4307  2.3329 -2.4432
  120SOPE  C21312717   5.731   4.079   6.117 -0.4541  0.9954  0.4544
  120SOPE  H13R12718   5.769   3.998   6.183 -1.5195  0.0740 -0.0240
  120SOPE  H13S12719   5.818   4.144   6.095  0.3097  0.6734  2.3542
  120SOPE  C21412720   5.681   4.023   5.981  0.0754 -0.4569 -0.3010
  120SOPE  H14R12721   5.698   4.097   5.900  0.1124 -1.4742 -1.2434
  120SOPE  H14S12722   5.571   4.018   5.996 -0.0373  2.7333  0.6418
  120SOPE  C21512723   5.734   3.888   5.951  0.1497  0.3447 -0.2999
  120SOPE  H15R12724   5.733   3.818   6.037  0.3163 -1.4542 -1.6984
  120SOPE  H15S12725   5.843   3.892   5.931  0.1666  1.0095 -0.0803
  120SOPE  C21612726   5.654   3.810   5.837 -0.2680  0.5902 -0.5231
  120SOPE  H16R12727   5.672   3.865   5.742 -0.0409  2.3414  0.4971
  120SOPE  H16S12728   5.545   3.820   5.857  0.2241  1.4352  2.0393
  120SOPE  C21712729   5.687   3.661   5.824 -0.0600 -0.3422 -0.1237
  120SOPE  H17R12730   5.610   3.628   5.750  1.3886  0.5471 -2.1072
  120SOPE  H17S12731   5.659   3.605   5.916 -0.2120  0.4137  0.3021
  120SOPE  C21812732   5.832   3.631   5.772  0.1053  0.5119  0.0983
  120SOPE  H18R12733   5.912   3.676   5.835  1.1498 -1.1828  0.0348
  120SOPE  H18S12734   5.842   3.677   5.671  0.9943 -1.0859 -0.5782
  120SOPE  H18T12735   5.843   3.522   5.758  0.8625  0.7036 -0.8682
  120SOPE   C3312736   6.254   4.259   6.997  0.7265 -0.7704  0.7537
  120SOPE   H3X12737   6.361   4.288   6.992  1.1569 -2.2809  0.8687
  120SOPE   H3Y12738   6.189   4.344   7.029 -1.0807 -2.1241  0.8553
  120SOPE   C3412739   6.217   4.215   6.854  0.3502  0.0843  0.3710
  120SOPE   H4X12740   6.109   4.190   6.865  0.5449 -1.6862 -1.1805
  120SOPE   H4Y12741   6.283   4.133   6.819  0.6774  1.3092 -2.0518
  120SOPE   C3512742   6.219   4.324   6.749  0.6520 -0.3250 -0.8925
  120SOPE   H5X12743   6.327   4.347   6.734  1.1134 -1.1920  0.8714
  120SOPE   H5Y12744   6.177   4.420   6.788  2.1691 -0.3488  0.9409
  120SOPE   C3612745   6.153   4.281   6.617 -0.2354 -0.1683 -0.3738
  120SOPE   H6X12746   6.048   4.263   6.648 -1.3510  4.3919 -0.8397
  120SOPE   H6Y12747   6.188   4.185   6.573 -1.0188 -1.8894  2.5135
  120SOPE   C3712748   6.145   4.396   6.523  0.3490 -0.7738  0.6904
  120SOPE   H7X12749   6.248   4.439   6.523  0.4796 -1.0155  2.3695
  120SOPE   H7Y12750   6.083   4.483   6.556  0.3068 -0.9820  1.1677
  120SOPE   C3812751   6.098   4.355   6.388  0.0317  0.6803 -0.0404
  120SOPE   H8X12752   6.000   4.304   6.399  0.4338 -0.2823 -0.7606
  120SOPE   H8Y12753   6.169   4.283   6.340 -0.7579 -1.1005  1.3634
  120SOPE   C3912754   6.085   4.486   6.306 -0.2377 -0.5842 -1.3288
  120SOPE   H9X12755   6.184   4.536   6.292 -0.8929  1.1884 -0.0497
  120SOPE   H9Y12756   6.018   4.562   6.352 -1.5466 -2.9252  0.9223
  120SOPE  C31012757   6.036   4.456   6.170  0.1958 -0.4348  0.1289
  120SOPE  H10X12758   5.940   4.400   6.173  1.1072 -2.0090  1.2663
  120SOPE  H10Y12759   6.104   4.390   6.112 -0.8116 -0.3550 -1.2040
  120SOPE  C31112760   6.006   4.580   6.081 -0.1098 -0.1306  0.5645
  120SOPE  H11X12761   6.105   4.618   6.049  0.2860 -0.2829  1.5478
  120SOPE  H11Y12762   5.954   4.659   6.139 -0.6739 -0.6319  0.7541
  120SOPE  C31212763   5.919   4.560   5.949  1.0184  0.0323  0.1258
  120SOPE  H12X12764   5.820   4.528   5.988  0.8944  0.6694  0.3325
  120SOPE  H12Y12765   5.957   4.470   5.895  0.4406  0.1936 -0.5623
  120SOPE  C31312766   5.904   4.684   5.863 -1.2039 -0.5190  0.0003
  120SOPE  H13X12767   5.881   4.757   5.943 -2.4357 -0.8064 -0.0615
  120SOPE  H13Y12768   5.813   4.674   5.799 -0.2356  1.4036 -1.8249
  120SOPE  C31412769   6.037   4.720   5.778  0.6152 -0.0232 -0.4563
  120SOPE  H14X12770   6.094   4.626   5.762 -1.1883 -1.2807  0.2326
  120SOPE  H14Y12771   6.101   4.788   5.838  0.0392  1.0865 -1.0755
  120SOPE  C31512772   6.011   4.782   5.644 -0.4759  0.0471  0.6655
  120SOPE  H15X12773   5.985   4.888   5.663  0.1118 -0.0182  1.9637
  120SOPE  H15Y12774   5.930   4.737   5.583  1.6278  1.8365 -3.9399
  120SOPE  C31612775   6.133   4.794   5.553  0.3368 -0.3741  0.5817
  120SOPE  H16X12776   6.193   4.701   5.546  0.6747 -0.0586 -1.1947
  120SOPE  H16Y12777   6.193   4.874   5.602  0.0508  0.8888 -1.0437
  120SOPE  C31712778   6.103   4.854   5.413  0.2996 -0.3407 -0.3295
  120SOPE  H17X12779   6.068   4.774   5.344 -2.0040  0.1837  0.1431
  120SOPE  H17Y12780   6.197   4.898   5.372 -0.5438  0.5095 -1.4214
  120SOPE  C31812781   5.987   4.955   5.415 -0.4073 -0.3750  0.1050
  120SOPE  H18X12782   5.967   5.006   5.317 -1.2132  3.4720  2.0604
  120SOPE  H18Y12783   6.022   5.038   5.480 -2.3463  0.0632  0.6563
  120SOPE  H18Z12784   5.889   4.916   5.450 -0.6027 -0.3793 -0.4225
  121SOPE     N12785   6.011   2.320   7.648  0.0901 -0.1338 -0.2447
  121SOPE   HN112786   6.071   2.322   7.564  0.1015  0.2535 -0.2287
  121SOPE   HN212787   5.917   2.348   7.614 -0.2978 -0.1476  0.7840
  121SOPE   HN312788   6.042   2.399   7.708  0.2157 -0.2662 -0.1328
  121SOPE   C1212789   6.000   2.185   7.712 -0.5580 -0.0788 -0.2153
  121SOPE  H12A12790   5.933   2.196   7.800 -1.2987  0.3390 -0.8147
  121SOPE  H12B12791   6.102   2.158   7.745 -1.1011 -0.4646  1.1932
  121SOPE   C1112792   5.943   2.071   7.628  0.0182 -0.1343  0.0070
  121SOPE  H11A12793   5.842   2.102   7.593  0.4831 -1.6338 -2.9866
  121SOPE  H11B12794   5.925   1.988   7.699 -0.9042  0.1448  0.1132
  121SOPE     P12795   6.149   1.939   7.533 -0.2551  0.0941  0.0547
  121SOPE   O1312796   6.094   1.803   7.530 -0.6403 -0.4532  0.4404
  121SOPE   O1412797   6.226   1.981   7.649  0.3055  0.0689  0.0456
  121SOPE   O1212798   6.029   2.038   7.521 -0.2281 -0.3260  0.2271
  121SOPE   O1112799   6.233   1.963   7.402 -0.2983 -0.5870 -0.0107
  121SOPE    C112800   6.228   2.099   7.342  0.2079  0.5210  0.0241
  121SOPE    HA12801   6.330   2.141   7.334  0.4380 -0.2756 -1.6528
  121SOPE    HB12802   6.163   2.175   7.391  0.6078 -0.6617  2.5709
  121SOPE    C212803   6.157   2.084   7.204 -0.3691  0.3246 -0.2533
  121SOPE    HS12804   6.052   2.064   7.235 -0.1843 -1.7208 -0.8038
  121SOPE   O2112805   6.213   1.970   7.127 -0.5945  0.1405  0.3134
  121SOPE   C2112806   6.134   1.861   7.131  0.4438  0.6136  0.6737
  121SOPE   O2212807   6.030   1.849   7.191 -0.1287 -0.4196  0.4675
  121SOPE   C2212808   6.190   1.754   7.040  0.9875 -0.6091  0.2778
  121SOPE   H2R12809   6.185   1.657   7.095 -0.9495 -0.6689  0.0858
  121SOPE   H2S12810   6.299   1.771   7.034  1.1668 -1.5404  0.6662
  121SOPE    C312811   6.169   2.213   7.117 -0.1138  0.1387 -0.2130
  121SOPE    HX12812   6.265   2.240   7.069 -0.1663  0.9587  0.1206
  121SOPE    HY12813   6.171   2.303   7.182  2.8309  0.0033  0.0056
  121SOPE   O3112814   6.062   2.212   7.018 -0.4338  0.1049 -0.3420
  121SOPE   C3112815   5.957   2.285   7.059 -0.3690  0.6173  1.1448
  121SOPE   O3212816   5.939   2.329   7.171  0.0989 -0.5454 -0.2509
  121SOPE   C3212817   5.859   2.296   6.943 -0.1481  0.4490 -0.5061
  121SOPE   H2X12818   5.757   2.261   6.969 -0.0800 -1.0700 -2.1489
  121SOPE   H2Y12819   5.894   2.226   6.864  0.3597  0.6441 -0.4617
  121SOPE   C2312820   6.119   1.744   6.906  0.2800  0.7019 -0.5526
  121SOPE   H3R12821   6.011   1.722   6.915  0.3888 -0.1097 -1.0748
  121SOPE   H3S12822   6.165   1.659   6.850 -0.9082 -0.7579  0.6103
  121SOPE   C2412823   6.136   1.863   6.813  0.0126  0.3070 -0.5286
  121SOPE   H4R12824   6.061   1.941   6.839 -1.1882 -1.1034  0.3511
  121SOPE   H4S12825   6.230   1.916   6.843 -0.4564  1.0353 -0.3154
  121SOPE   C2512826   6.119   1.836   6.662 -0.1404 -0.3634 -0.6848
  121SOPE   H5R12827   6.188   1.759   6.621  1.9622  2.0730 -1.9480
  121SOPE   H5S12828   6.014   1.800   6.648 -0.6844  1.1380 -0.6506
  121SOPE   C2612829   6.146   1.958   6.581  1.0021 -0.1755  0.6487
  121SOPE   H6R12830   6.091   2.044   6.623  3.3394  0.6718  2.2018
  121SOPE   H6S12831   6.257   1.967   6.581  1.2229 -2.2812  0.4458
  121SOPE   C2712832   6.094   1.949   6.443 -0.1920 -0.3789 -0.0396
  121SOPE   H7R12833   6.165   1.884   6.388  0.8751  0.1771  0.6414
  121SOPE   H7S12834   5.991   1.908   6.433 -0.3383 -0.3379  1.1969
  121SOPE   C2812835   6.095   2.090   6.381 -0.2601 -0.5914 -0.0893
  121SOPE   H8R12836   6.019   2.159   6.424  1.1887  1.8864 -1.2532
  121SOPE   H8S12837   6.199   2.123   6.399 -1.0633  1.6901  0.6585
  121SOPE   C2912838   6.054   2.090   6.236 -0.4912  0.3515 -0.7543
  121SOPE   H9112839   5.972   2.020   6.216  0.0216 -0.5012  0.0201
  121SOPE  C21012840   6.106   2.166   6.137 -0.2735 -0.2554  0.4266
  121SOPE  H10112841   6.057   2.148   6.040 -1.6441  1.7788  0.6673
  121SOPE  C21112842   6.219   2.278   6.148  0.6024 -0.2901  0.2570
  121SOPE  H11R12843   6.303   2.271   6.076  3.0103  0.3549  2.8327
  121SOPE  H11S12844   6.272   2.282   6.245  2.9987 -1.0833 -0.9197
  121SOPE  C21212845   6.164   2.421   6.124  0.8008  0.1250  0.1409
  121SOPE  H12R12846   6.244   2.497   6.137 -0.0699  0.9470  0.8945
  121SOPE  H12S12847   6.094   2.454   6.204  0.2948 -1.6482  0.4806
  121SOPE  C21312848   6.096   2.448   5.991  0.2655  0.6703  0.4174
  121SOPE  H13R12849   5.989   2.418   5.987  0.5850 -0.4694 -0.2442
  121SOPE  H13S12850   6.141   2.382   5.913  0.0144 -0.4818  1.2228
  121SOPE  C21412851   6.109   2.598   5.967 -0.9720 -0.1897 -0.8976
  121SOPE  H14R12852   6.214   2.627   5.946 -1.3465  1.4707 -0.6074
  121SOPE  H14S12853   6.062   2.645   6.056 -0.3476 -0.0805 -0.6213
  121SOPE  C21512854   6.045   2.658   5.839 -0.1160  0.1428  0.0338
  121SOPE  H15R12855   5.936   2.635   5.846 -0.2056  0.6806  0.4301
  121SOPE  H15S12856   6.085   2.618   5.744 -0.2839  0.9154 -0.3674
  121SOPE  C21612857   6.072   2.809   5.821  0.5540 -0.0076 -0.1228
  121SOPE  H16R12858   6.181   2.827   5.829  0.6525 -0.4854 -0.3393
  121SOPE  H16S12859   6.017   2.864   5.900 -0.5754 -2.6269  1.0402
  121SOPE  C21712860   6.031   2.855   5.684  0.2936  0.0045  0.2896
  121SOPE  H17R12861   5.935   2.801   5.665 -0.1647  0.5222  1.0970
  121SOPE  H17S12862   6.104   2.826   5.605  1.8502 -0.6046  1.8989
  121SOPE  C21812863   6.012   3.006   5.685  0.0140  0.1958  0.1341
  121SOPE  H18R12864   6.114   3.051   5.688  0.4572 -0.4013 -2.7437
  121SOPE  H18S12865   5.940   3.036   5.764 -0.5642  0.0829 -0.3463
  121SOPE  H18T12866   5.973   3.031   5.584  0.8961 -1.7311 -0.7227
  121SOPE   C3312867   5.845   2.445   6.884 -0.2626  0.2554 -0.0244
  121SOPE   H3X12868   5.943   2.496   6.878  0.1295 -0.5061 -0.2528
  121SOPE   H3Y12869   5.779   2.491   6.961  1.6423 -0.1060  1.9136
  121SOPE   C3412870   5.769   2.460   6.750  0.8939 -0.2364 -0.4217
  121SOPE   H4X12871   5.746   2.567   6.732  1.4452 -0.0929 -0.2722
  121SOPE   H4Y12872   5.668   2.413   6.752  1.3180 -1.2464 -1.6799
  121SOPE   C3512873   5.851   2.404   6.637  0.4803  0.8262  1.9815
  121SOPE   H5X12874   5.859   2.293   6.628  2.9471  0.9088  2.4903
  121SOPE   H5Y12875   5.954   2.438   6.661  1.6439 -1.3870  0.4829
  121SOPE   C3612876   5.810   2.460   6.498 -0.2887 -0.0021  0.1226
  121SOPE   H6X12877   5.861   2.553   6.467  0.8699 -0.8305 -0.5451
  121SOPE   H6Y12878   5.703   2.489   6.500 -0.1540  1.2058 -3.6059
  121SOPE   C3712879   5.816   2.362   6.375  0.6010  0.2494  0.1357
  121SOPE   H7X12880   5.769   2.265   6.401  0.2759  0.4500  0.2941
  121SOPE   H7Y12881   5.922   2.330   6.361  0.5046 -0.4890  0.9723
  121SOPE   C3812882   5.767   2.426   6.257  0.2652 -0.4661  0.4264
  121SOPE   H8X12883   5.825   2.520   6.244 -0.0561 -0.0904  1.6158
  121SOPE   H8Y12884   5.665   2.453   6.293  0.4585  0.4705  0.3132
  121SOPE   C3912885   5.774   2.332   6.134  0.0195 -0.1962  0.4604
  121SOPE   H9X12886   5.720   2.239   6.163  2.5748 -1.2483  2.1406
  121SOPE   H9Y12887   5.876   2.293   6.118 -0.4974 -1.9245  1.1623
  121SOPE  C31012888   5.696   2.388   6.018  0.0592 -0.6444  0.1495
  121SOPE  H10X12889   5.724   2.493   5.994 -1.3494 -0.8052 -2.6153
  121SOPE  H10Y12890   5.588   2.395   6.044 -0.6714  1.4702 -2.9296
  121SOPE  C31112891   5.717   2.324   5.876  0.0710  0.1904 -1.2074
  121SOPE  H11X12892   5.737   2.216   5.891 -1.7531 -0.2342 -1.6467
  121SOPE  H11Y12893   5.805   2.370   5.825 -1.3921  1.5075 -2.6654
  121SOPE  C31212894   5.598   2.341   5.779 -0.0204 -0.6815  0.7233
  121SOPE  H12X12895   5.575   2.449   5.766 -1.6331 -1.1512 -0.5485
  121SOPE  H12Y12896   5.515   2.290   5.832  0.1921 -1.3365  0.4289
  121SOPE  C31312897   5.631   2.289   5.637 -0.1501  0.6308 -0.2068
  121SOPE  H13X12898   5.659   2.182   5.643  0.5298  0.8572  1.1282
  121SOPE  H13Y12899   5.713   2.348   5.589  2.0527 -1.2145  1.0827
  121SOPE  C31412900   5.516   2.310   5.544 -0.1471  0.5736  0.7470
  121SOPE  H14X12901   5.486   2.417   5.551 -2.8783  0.1267 -1.9597
  121SOPE  H14Y12902   5.422   2.264   5.581 -0.9478  0.3101 -1.4343
  121SOPE  C31512903   5.547   2.272   5.402 -0.3095 -0.0688  0.1948
  121SOPE  H15X12904   5.452   2.243   5.351 -1.5703  1.1074  1.7527
  121SOPE  H15Y12905   5.613   2.184   5.410 -0.2594 -0.0032  0.4980
  121SOPE  C31612906   5.626   2.376   5.323  0.1458 -0.5865 -0.0641
  121SOPE  H16X12907   5.721   2.396   5.377  0.2673  1.1706 -0.8524
  121SOPE  H16Y12908   5.578   2.476   5.315  1.0032 -0.2325 -1.2221
  121SOPE  C31712909   5.670   2.322   5.188 -0.2944  0.2527  0.3246
  121SOPE  H17X12910   5.698   2.216   5.210 -2.7006 -0.8581 -1.4775
  121SOPE  H17Y12911   5.759   2.376   5.150 -1.2926  0.8144 -1.3422
  121SOPE  C31812912   5.567   2.318   5.077 -0.0398  0.5508  0.2421
  121SOPE  H18X12913   5.620   2.269   4.993  0.6822  1.1688  0.3163
  121SOPE  H18Y12914   5.528   2.420   5.057  1.7884  1.4114  0.7408
  121SOPE  H18Z12915   5.489   2.246   5.109  1.4134 -0.8096  0.8566
  122SOPE     N12916   6.431   3.689   8.076 -0.1735 -0.0494 -0.1460
  122SOPE   HN112917   6.391   3.748   8.001  1.3569  0.9827 -0.2021
  122SOPE   HN212918   6.355   3.655   8.138 -0.3976 -0.9337 -0.8910
  122SOPE   HN312919   6.488   3.757   8.130  0.2338 -1.0040  0.6551
  122SOPE   C1212920   6.519   3.574   8.038  0.4995 -0.1525  0.3644
  122SOPE  H12A12921   6.460   3.495   7.987  0.2576  0.3800 -0.2058
  122SOPE  H12B12922   6.557   3.525   8.130 -3.2383 -0.4120  1.9415
  122SOPE   C1112923   6.634   3.633   7.947 -0.3364  0.1219 -0.1504
  122SOPE  H11A12924   6.594   3.674   7.852 -0.9073  1.0460  0.4771
  122SOPE  H11B12925   6.697   3.545   7.923 -0.4128 -1.0890  3.4400
  122SOPE     P12926   6.866   3.760   7.974 -0.4567  0.0174  0.1586
  122SOPE   O1312927   6.931   3.684   8.083  0.6143 -0.0085  0.1155
  122SOPE   O1412928   6.901   3.901   7.965 -0.2328  0.2171 -0.1165
  122SOPE   O1212929   6.703   3.746   8.000 -0.6159 -0.0055 -0.1798
  122SOPE   O1112930   6.896   3.687   7.834  0.1174 -0.3124  0.5356
  122SOPE    C112931   6.879   3.762   7.710 -0.2566  0.7320  0.8433
  122SOPE    HA12932   6.972   3.771   7.651 -1.2664  0.5581 -0.8550
  122SOPE    HB12933   6.842   3.864   7.730 -0.2630  1.0066 -0.4933
  122SOPE    C212934   6.774   3.696   7.615  0.5419  0.1894  0.8941
  122SOPE    HS12935   6.670   3.699   7.656 -0.8005 -1.3100 -2.0890
  122SOPE   O2112936   6.809   3.557   7.598  0.3924 -0.2125  0.3121
  122SOPE   C2112937   6.712   3.466   7.562 -0.0543  0.4760 -0.0985
  122SOPE   O2212938   6.596   3.496   7.550  0.7951  0.0680  0.1748
  122SOPE   C2212939   6.779   3.337   7.506  0.1677 -0.4009 -0.1092
  122SOPE   H2R12940   6.864   3.310   7.572  0.2858 -2.8099 -1.1247
  122SOPE   H2S12941   6.835   3.363   7.414 -0.8592  1.0941 -0.3528
  122SOPE    C312942   6.773   3.773   7.475  1.2049  0.5801  0.4838
  122SOPE    HX12943   6.869   3.757   7.421 -0.5382 -0.2357 -2.6592
  122SOPE    HY12944   6.770   3.883   7.490  0.5941  0.4909  1.0776
  122SOPE   O3112945   6.673   3.719   7.384  0.3285 -0.4115 -0.4156
  122SOPE   C3112946   6.559   3.788   7.382 -0.1149  0.4545  0.0656
  122SOPE   O3212947   6.541   3.890   7.442 -0.1141  0.2145  0.0418
  122SOPE   C3212948   6.457   3.721   7.293  0.9897 -0.1774  0.0691
  122SOPE   H2X12949   6.436   3.618   7.328  1.5765 -0.2407  0.2445
  122SOPE   H2Y12950   6.519   3.721   7.200  1.6142  3.1433  0.3522
  122SOPE   C2312951   6.680   3.221   7.486 -0.7789  0.4722 -0.0977
  122SOPE   H3R12952   6.612   3.206   7.573 -0.2297 -1.0779  0.1143
  122SOPE   H3S12953   6.735   3.125   7.496  0.3871  1.2989  2.1949
  122SOPE   C2412954   6.610   3.230   7.349 -0.3273 -0.2065  0.5128
  122SOPE   H4R12955   6.502   3.206   7.366 -0.5722 -0.2597 -0.9628
  122SOPE   H4S12956   6.601   3.334   7.311 -1.4153 -0.6728 -0.5771
  122SOPE   C2512957   6.672   3.133   7.248  0.2598  0.0984  0.0095
  122SOPE   H5R12958   6.771   3.168   7.212 -0.5414 -0.3148 -2.8509
  122SOPE   H5S12959   6.687   3.044   7.313  1.6991  0.7837  0.6597
  122SOPE   C2612960   6.581   3.067   7.132 -0.3141 -0.8883 -0.0530
  122SOPE   H6R12961   6.541   3.146   7.065 -0.4520 -3.0373 -2.6447
  122SOPE   H6S12962   6.653   2.998   7.083 -0.1095  0.9139 -2.4789
  122SOPE   C2712963   6.454   2.999   7.189  0.5653 -0.3599  0.7639
  122SOPE   H7R12964   6.470   2.937   7.280 -0.4527 -2.6325 -0.5549
  122SOPE   H7S12965   6.378   3.076   7.215  0.1537 -0.0568 -1.2055
  122SOPE   C2812966   6.378   2.916   7.079  0.1995 -0.4740 -0.5404
  122SOPE   H8R12967   6.352   2.992   7.003  1.9811  1.6267  0.8347
  122SOPE   H8S12968   6.442   2.843   7.023  2.2155  1.6264 -1.1340
  122SOPE   C2912969   6.247   2.858   7.136 -0.4160  0.4894  0.7046
  122SOPE   H9112970   6.218   2.889   7.237  2.0658 -0.1197  1.6798
  122SOPE  C21012971   6.188   2.749   7.084  0.3556  0.3135  0.6147
  122SOPE  H10112972   6.101   2.708   7.137  0.0659 -0.5138 -0.4555
  122SOPE  C21112973   6.225   2.688   6.956 -0.2546  0.5084  0.1200
  122SOPE  H11R12974   6.295   2.747   6.893  1.0672 -1.0454  0.0555
  122SOPE  H11S12975   6.131   2.662   6.903  1.2151  0.1969 -2.4618
  122SOPE  C21212976   6.308   2.560   6.982 -0.6690  0.5837 -0.1280
  122SOPE  H12R12977   6.242   2.486   7.033  0.8340 -0.7077  0.0256
  122SOPE  H12S12978   6.393   2.587   7.049 -1.3920  1.1759  0.5701
  122SOPE  C21312979   6.368   2.492   6.851  0.1197  0.7876 -0.3810
  122SOPE  H13R12980   6.427   2.398   6.863 -1.7356 -0.2054  1.9646
  122SOPE  H13S12981   6.429   2.568   6.798  0.0428  0.3594 -1.0995
  122SOPE  C21412982   6.257   2.435   6.750  0.0027 -0.1730 -0.0331
  122SOPE  H14R12983   6.193   2.522   6.722  0.9437  0.4288 -0.3767
  122SOPE  H14S12984   6.195   2.359   6.801  0.9255 -0.3039  0.9408
  122SOPE  C21512985   6.313   2.381   6.615 -0.2642  0.0331  0.1605
  122SOPE  H15R12986   6.227   2.324   6.573 -1.3793  1.2535  0.7205
  122SOPE  H15S12987   6.391   2.306   6.640 -0.5468 -0.6712 -0.9886
  122SOPE  C21612988   6.376   2.472   6.510  0.2416 -0.7305  0.1345
  122SOPE  H16R12989   6.435   2.411   6.438 -0.0424 -0.4508 -0.3384
  122SOPE  H16S12990   6.439   2.544   6.567 -1.5847  1.4475 -0.4555
  122SOPE  C21712991   6.280   2.558   6.423 -0.0432  0.3578  0.8012
  122SOPE  H17R12992   6.218   2.615   6.496  1.6156  1.4750  1.3915
  122SOPE  H17S12993   6.232   2.479   6.363  1.5355 -0.7132  0.9019
  122SOPE  C21812994   6.376   2.650   6.343  0.3880  0.0298 -0.3434
  122SOPE  H18R12995   6.332   2.745   6.306  1.5799 -0.0139 -1.9876
  122SOPE  H18S12996   6.415   2.595   6.255  2.4383  1.6683 -0.5390
  122SOPE  H18T12997   6.467   2.678   6.401  0.9617 -0.6733 -0.8880
  122SOPE   C3312998   6.332   3.809   7.259 -0.0966 -0.0988  0.3042
  122SOPE   H3X12999   6.363   3.909   7.221 -0.8554 -0.2564 -0.7967
  122SOPE   H3Y13000   6.278   3.825   7.354 -1.4819  3.2441 -0.8806
  122SOPE   C3413001   6.232   3.755   7.155 -0.5969 -0.4745 -0.6322
  122SOPE   H4X13002   6.138   3.810   7.177 -1.6957 -3.3216  2.7397
  122SOPE   H4Y13003   6.220   3.646   7.175 -0.5733 -0.2365  0.7681
  122SOPE   C3513004   6.268   3.761   7.005 -0.3426 -0.1374  0.3631
  122SOPE   H5X13005   6.316   3.667   6.970  3.7633  1.4402  1.2124
  122SOPE   H5Y13006   6.350   3.836   6.999  0.4900 -1.0942 -0.4674
  122SOPE   C3613007   6.143   3.796   6.919  0.2778 -0.0989 -0.1927
  122SOPE   H6X13008   6.100   3.891   6.957  1.1006  0.9948 -1.8587
  122SOPE   H6Y13009   6.070   3.713   6.927  0.6413 -0.6315 -1.9122
  122SOPE   C3713010   6.176   3.818   6.772 -0.0097  0.1236 -1.3036
  122SOPE   H7X13011   6.199   3.722   6.722 -1.0239 -0.0524 -1.4564
  122SOPE   H7Y13012   6.266   3.883   6.768 -0.1237  0.4492  0.4969
  122SOPE   C3813013   6.055   3.887   6.699  0.3044 -0.0927 -0.3847
  122SOPE   H8X13014   6.035   3.976   6.763  1.4744 -1.8143  2.5834
  122SOPE   H8Y13015   5.963   3.824   6.703 -0.9343  1.6834  1.8455
  122SOPE   C3913016   6.086   3.920   6.554  0.7308 -0.2144  0.0346
  122SOPE   H9X13017   6.194   3.940   6.541  0.3113  3.1132  0.7810
  122SOPE   H9Y13018   6.045   4.017   6.519 -1.8396 -1.3775 -0.5057
  122SOPE  C31013019   6.055   3.806   6.463 -0.2065  0.7936  0.2519
  122SOPE  H10X13020   5.952   3.776   6.493  0.7064 -0.4250  2.4062
  122SOPE  H10Y13021   6.133   3.728   6.480 -0.5667 -0.0608 -1.6765
  122SOPE  C31113022   6.037   3.849   6.312  0.2818  0.1110  0.0162
  122SOPE  H11X13023   6.119   3.914   6.275 -0.1908  0.7417  0.0639
  122SOPE  H11Y13024   5.938   3.899   6.308  0.3468  0.1436 -1.6562
  122SOPE  C31213025   6.030   3.731   6.210  0.8412  0.2220  0.1487
  122SOPE  H12X13026   6.126   3.676   6.201  1.2385  0.4389  2.5168
  122SOPE  H12Y13027   6.022   3.783   6.112 -0.0585  2.7416  1.4859
  122SOPE  C31313028   5.911   3.643   6.241  0.9874 -0.1402  0.5117
  122SOPE  H13X13029   5.821   3.703   6.218  1.0692  0.6963  2.2110
  122SOPE  H13Y13030   5.903   3.601   6.344 -1.0738  1.2166  0.9563
  122SOPE  C31413031   5.899   3.522   6.142 -0.0524 -0.0661  0.0435
  122SOPE  H14X13032   5.983   3.450   6.145 -0.5123 -0.5919  0.7867
  122SOPE  H14Y13033   5.886   3.552   6.036  1.6007 -2.4140 -0.8920
  122SOPE  C31513034   5.791   3.426   6.176  0.5322 -0.2347 -0.0861
  122SOPE  H15X13035   5.694   3.481   6.180  0.5826 -0.0777 -1.0174
  122SOPE  H15Y13036   5.813   3.387   6.278 -0.6288  1.0989  0.7131
  122SOPE  C31613037   5.764   3.323   6.059 -0.3222  0.0564 -0.6536
  122SOPE  H16X13038   5.854   3.269   6.022 -1.2590 -0.7426 -1.8339
  122SOPE  H16Y13039   5.736   3.376   5.966 -2.6173 -1.5746 -0.9816
  122SOPE  C31713040   5.649   3.228   6.091  0.1555 -0.2369 -0.3663
  122SOPE  H17X13041   5.568   3.297   6.123  1.2743 -0.1226  2.4955
  122SOPE  H17Y13042   5.666   3.160   6.177 -0.9360  0.8259  0.7349
  122SOPE  C31813043   5.602   3.137   5.978 -0.4236 -0.5569 -0.0058
  122SOPE  H18X13044   5.550   3.048   6.019 -1.8482 -0.3497 -1.3005
  122SOPE  H18Y13045   5.686   3.107   5.910 -0.2259 -0.0292  0.0002
  122SOPE  H18Z13046   5.530   3.190   5.912 -0.0424 -0.1710 -0.1179
  123SOPE     N13047   4.140   6.093   3.007 -0.0348 -0.0182  0.2832
  123SOPE   HN113048   4.177   6.031   2.933 -0.7636 -0.8953  0.6350
  123SOPE   HN213049   4.040   6.115   2.989 -0.6325 -1.7843  1.2432
  123SOPE   HN313050   4.193   6.183   3.001  0.3181 -0.1415  1.3738
  123SOPE   C1213051   4.170   6.010   3.126  0.2145  0.2734 -0.4158
  123SOPE  H12A13052   4.277   5.980   3.124  0.6394  1.2107  2.6787
  123SOPE  H12B13053   4.105   5.920   3.137  0.9271 -0.1890  0.1182
  123SOPE   C1113054   4.148   6.094   3.256  0.1916 -0.2779 -0.0039
  123SOPE  H11A13055   4.197   6.040   3.340 -0.2577  0.9434  1.0830
  123SOPE  H11B13056   4.038   6.099   3.266  0.3177  1.8372  0.9034
  123SOPE     P13057   4.248   6.301   3.366  0.2017  0.0107 -0.1232
  123SOPE   O1313058   4.289   6.441   3.330  0.4732 -0.1576  0.8002
  123SOPE   O1413059   4.349   6.226   3.428 -0.3153  0.5069 -0.0806
  123SOPE   O1213060   4.201   6.226   3.233  0.7718  0.1731  0.0449
  123SOPE   O1113061   4.120   6.299   3.457 -0.7019 -0.2373 -0.6867
  123SOPE    C113062   3.997   6.363   3.424 -0.1235  0.0648 -0.5749
  123SOPE    HA13063   3.949   6.300   3.346 -0.9190 -1.9359  1.4376
  123SOPE    HB13064   4.025   6.463   3.384 -2.7001  0.7581 -0.8104
  123SOPE    C213065   3.898   6.384   3.547  0.2427  0.2578  0.6144
  123SOPE    HS13066   3.799   6.412   3.504 -0.2499  1.1552  2.2304
  123SOPE   O2113067   3.932   6.495   3.636  0.4766  0.4901  0.2507
  123SOPE   C2113068   3.941   6.620   3.580 -0.8053  1.0993  0.6887
  123SOPE   O2213069   3.911   6.661   3.471  0.0048 -0.5404 -0.0065
  123SOPE   C2213070   3.986   6.701   3.706 -0.8015  0.0216  0.0620
  123SOPE   H2R13071   4.003   6.629   3.789 -1.4178 -1.5351 -1.1078
  123SOPE   H2S13072   3.899   6.763   3.736 -3.3294 -2.8420 -0.8891
  123SOPE    C313073   3.879   6.253   3.612  0.4345  0.2598 -0.3599
  123SOPE    HX13074   3.973   6.194   3.619 -0.1558 -0.8962 -1.5748
  123SOPE    HY13075   3.814   6.191   3.547 -2.0419  0.1502  2.0576
  123SOPE   O3113076   3.819   6.267   3.744  0.5984 -0.5837 -0.1361
  123SOPE   C3113077   3.696   6.240   3.757  0.3676  0.1489 -0.1202
  123SOPE   O3213078   3.610   6.216   3.674 -0.2600  0.3622 -0.3975
  123SOPE   C3213079   3.657   6.251   3.907 -0.6641  0.9447  0.2790
  123SOPE   H2X13080   3.698   6.349   3.939 -0.4916  0.9905 -0.0772
  123SOPE   H2Y13081   3.711   6.167   3.956 -1.0672  0.6409  0.2032
  123SOPE   C2313082   4.102   6.799   3.685  0.0398 -0.2575  0.7813
  123SOPE   H3R13083   4.075   6.867   3.601 -0.3443  0.3345  1.3785
  123SOPE   H3S13084   4.194   6.741   3.659  0.9864  0.5507  2.1562
  123SOPE   C2413085   4.142   6.887   3.806 -0.7449  0.1641  0.2902
  123SOPE   H4R13086   4.220   6.956   3.768  0.4205 -1.5630 -0.5648
  123SOPE   H4S13087   4.069   6.955   3.856  2.1994  2.3636  1.9305
  123SOPE   C2513088   4.193   6.799   3.921 -0.3963  0.1583 -0.3441
  123SOPE   H5R13089   4.111   6.743   3.970  0.5116 -1.9167 -1.0638
  123SOPE   H5S13090   4.271   6.727   3.886  0.0682  0.8883 -0.8299
  123SOPE   C2613091   4.262   6.882   4.026 -0.5844 -0.9641 -0.6918
  123SOPE   H6R13092   4.340   6.950   3.985 -1.2175  1.6026  2.0387
  123SOPE   H6S13093   4.184   6.949   4.068  0.4256 -1.3922  2.0257
  123SOPE   C2713094   4.320   6.811   4.150 -0.1955  0.1003 -0.2887
  123SOPE   H7R13095   4.277   6.710   4.163  3.1599 -1.4905 -0.6300
  123SOPE   H7S13096   4.425   6.790   4.121  0.5161  2.5164  0.2299
  123SOPE   C2813097   4.294   6.884   4.283  0.0318  0.7676  0.1136
  123SOPE   H8R13098   4.301   6.995   4.276 -0.0531  0.7755  0.1556
  123SOPE   H8S13099   4.187   6.862   4.303  0.6098 -0.8134  1.8064
  123SOPE   C2913100   4.382   6.846   4.402 -0.1134 -0.1656 -0.2345
  123SOPE   H9113101   4.469   6.913   4.399  0.0920 -0.2110  2.4714
  123SOPE  C21013102   4.360   6.749   4.493 -0.1845  0.4842  0.2249
  123SOPE  H10113103   4.440   6.741   4.569 -0.5089  1.1031  0.6414
  123SOPE  C21113104   4.243   6.653   4.490 -0.1084 -0.2193  0.2366
  123SOPE  H11R13105   4.272   6.546   4.500  1.2835  0.0660 -0.5352
  123SOPE  H11S13106   4.185   6.666   4.396 -0.1619  0.4195  0.3556
  123SOPE  C21213107   4.129   6.699   4.579 -0.0692 -0.1990  0.2048
  123SOPE  H12R13108   4.043   6.633   4.554 -2.1334  2.5511 -0.3160
  123SOPE  H12S13109   4.103   6.804   4.556 -1.0588 -0.3415  0.6410
  123SOPE  C21313110   4.157   6.684   4.730 -0.2348 -0.3722  0.0702
  123SOPE  H13R13111   4.246   6.750   4.745  1.2449 -2.1211 -0.6751
  123SOPE  H13S13112   4.188   6.581   4.755  0.4611 -0.3884 -0.7979
  123SOPE  C21413113   4.042   6.728   4.826 -0.9358  0.0675 -0.2357
  123SOPE  H14R13114   3.954   6.663   4.806  0.0969 -1.8598  1.2053
  123SOPE  H14S13115   4.021   6.834   4.801 -0.0123  0.3491  0.1289
  123SOPE  C21513116   4.098   6.710   4.968 -0.9591  0.3160  0.3058
  123SOPE  H15R13117   4.126   6.605   4.992  0.1704  0.8008  1.1543
  123SOPE  H15S13118   4.019   6.736   5.041 -2.0261 -0.8236 -0.3869
  123SOPE  C21613119   4.223   6.804   4.989  0.9156  0.5926  0.0017
  123SOPE  H16R13120   4.196   6.901   4.941  2.8402  1.0483 -0.2376
  123SOPE  H16S13121   4.311   6.767   4.932  2.3476  0.5595  2.1306
  123SOPE  C21713122   4.253   6.822   5.137  0.1018 -0.4140 -0.1420
  123SOPE  H17R13123   4.360   6.850   5.141  0.4296 -1.7268  0.9658
  123SOPE  H17S13124   4.250   6.728   5.195  2.8568 -0.2543  0.3686
  123SOPE  C21813125   4.171   6.929   5.200  0.1681  0.1560 -0.8996
  123SOPE  H18R13126   4.191   6.933   5.309  0.1924  2.4559 -0.9458
  123SOPE  H18S13127   4.067   6.917   5.162  0.7017 -2.4268 -1.7482
  123SOPE  H18T13128   4.218   7.025   5.171 -0.5761  1.2127  1.1873
  123SOPE   C3313129   3.511   6.235   3.948 -0.2361 -0.8270 -0.4616
  123SOPE   H3X13130   3.473   6.134   3.921  1.8053 -2.3131  1.8446
  123SOPE   H3Y13131   3.442   6.312   3.906  0.3183  0.3317  0.6777
  123SOPE   C3413132   3.513   6.251   4.103  0.2429 -0.0008  0.0906
  123SOPE   H4X13133   3.576   6.336   4.135 -1.8343  1.8821 -0.5067
  123SOPE   H4Y13134   3.566   6.162   4.142 -0.1699 -1.6786 -2.8228
  123SOPE   C3513135   3.379   6.286   4.181  0.6244  0.0847  0.4046
  123SOPE   H5X13136   3.318   6.377   4.158 -1.4916 -0.9945  1.4044
  123SOPE   H5Y13137   3.414   6.311   4.283  1.0064 -2.0082  0.8226
  123SOPE   C3613138   3.289   6.160   4.182  0.5278 -0.3392  0.3394
  123SOPE   H6X13139   3.341   6.078   4.128  1.4719 -0.4285  1.3477
  123SOPE   H6Y13140   3.196   6.183   4.126  1.1188  1.1760 -0.0648
  123SOPE   C3713141   3.238   6.128   4.324 -0.3161  0.2329 -0.2658
  123SOPE   H7X13142   3.162   6.049   4.311  0.0102 -0.1289  0.0253
  123SOPE   H7Y13143   3.192   6.212   4.381  0.9111 -0.8313  2.4344
  123SOPE   C3813144   3.351   6.079   4.414 -0.0487  0.5408 -0.6524
  123SOPE   H8X13145   3.441   6.145   4.419  0.5672 -0.3571  0.9493
  123SOPE   H8Y13146   3.377   5.976   4.382 -1.2539  0.3683 -1.1300
  123SOPE   C3913147   3.310   6.052   4.563  0.7410  0.3955  0.2485
  123SOPE   H9X13148   3.235   5.970   4.560 -1.1216  1.9764  1.3243
  123SOPE   H9Y13149   3.258   6.145   4.592 -1.5334  0.7835 -4.1727
  123SOPE  C31013150   3.431   6.023   4.662  0.1048  0.6645 -0.5003
  123SOPE  H10X13151   3.498   6.111   4.675  2.0331 -0.8908  0.6930
  123SOPE  H10Y13152   3.500   5.947   4.619 -0.8783 -0.2715 -0.4635
  123SOPE  C31113153   3.406   5.966   4.807 -0.1890 -0.7291 -0.3730
  123SOPE  H11X13154   3.500   5.972   4.865 -0.2625  1.0971 -0.3656
  123SOPE  H11Y13155   3.377   5.859   4.798 -0.1039 -0.9150  1.2500
  123SOPE  C31213156   3.296   6.041   4.888 -0.2360  0.6879  0.4609
  123SOPE  H12X13157   3.211   6.038   4.817  1.0103  0.0608 -1.0621
  123SOPE  H12Y13158   3.327   6.147   4.900 -0.7526  0.6259  2.7297
  123SOPE  C31313159   3.270   5.979   5.033 -0.2232  0.0678 -0.0948
  123SOPE  H13X13160   3.357   6.001   5.098  0.5944 -0.7160 -0.8869
  123SOPE  H13Y13161   3.239   5.873   5.018 -0.7018  0.2352 -0.3172
  123SOPE  C31413162   3.143   6.052   5.099 -0.0086 -0.2616 -0.4960
  123SOPE  H14X13163   3.055   6.009   5.046 -1.7614  1.7735  0.6078
  123SOPE  H14Y13164   3.142   6.159   5.071  1.4207  0.7281  2.7787
  123SOPE  C31513165   3.126   6.032   5.255 -0.3923  0.6366  1.0351
  123SOPE  H15X13166   3.158   5.929   5.280  1.9270  0.9982 -0.1860
  123SOPE  H15Y13167   3.023   6.049   5.292 -1.1006 -1.4019  0.0934
  123SOPE  C31613168   3.221   6.119   5.332 -0.1162 -0.0016  0.2586
  123SOPE  H16X13169   3.325   6.112   5.294 -0.6609 -1.9719 -1.0362
  123SOPE  H16Y13170   3.208   6.086   5.437 -1.8748 -0.9241 -0.1918
  123SOPE  C31713171   3.169   6.259   5.328  0.2118 -0.9797 -0.6836
  123SOPE  H17X13172   3.066   6.260   5.368  0.3887 -0.3329 -0.2177
  123SOPE  H17Y13173   3.167   6.305   5.227 -1.2637  2.5164  0.7755
  123SOPE  C31813174   3.245   6.366   5.422  0.3239  0.0930  0.9975
  123SOPE  H18X13175   3.353   6.341   5.409  0.8666  3.1093 -1.5081
  123SOPE  H18Y13176   3.206   6.371   5.526  1.6838  0.7212  1.5136
  123SOPE  H18Z13177   3.238   6.466   5.375  0.3946  0.2397  1.2920
  124SOPE     N13178   6.135   1.980   3.034 -0.6471  0.0913 -0.1369
  124SOPE   HN113179   6.108   1.953   2.937  1.0309 -1.7849 -0.1366
  124SOPE   HN213180   6.236   1.956   3.037 -0.8683 -0.7349  1.3351
  124SOPE   HN313181   6.088   1.927   3.109 -1.9264  1.4051  0.0419
  124SOPE   C1213182   6.123   2.122   3.058 -0.6255 -0.4897 -0.1357
  124SOPE  H12A13183   6.165   2.131   3.161 -0.5521 -1.2759 -0.0886
  124SOPE  H12B13184   6.013   2.142   3.058 -0.9027 -1.8358 -1.5009
  124SOPE   C1113185   6.180   2.199   2.941  0.3109 -0.2608  0.5338
  124SOPE  H11A13186   6.133   2.299   2.940 -2.8574 -1.6360 -0.8620
  124SOPE  H11B13187   6.137   2.147   2.853 -0.4291  0.2047  0.6132
  124SOPE     P13188   6.401   2.324   3.003  0.8243  0.0120 -0.3856
  124SOPE   O1313189   6.354   2.355   3.139  0.4639 -0.1357 -0.2620
  124SOPE   O1413190   6.386   2.428   2.898 -0.2867 -0.0135  0.0267
  124SOPE   O1213191   6.322   2.201   2.945 -0.2114  0.5731 -0.5018
  124SOPE   O1113192   6.550   2.266   3.013  0.5110  0.5838 -0.5379
  124SOPE    C113193   6.569   2.138   3.081  0.1857 -0.0371 -0.7161
  124SOPE    HA13194   6.633   2.074   3.017  0.4969  0.2283 -0.6690
  124SOPE    HB13195   6.469   2.091   3.098 -1.0169  2.4487 -0.4578
  124SOPE    C213196   6.653   2.165   3.210 -0.4039  0.3560 -0.0316
  124SOPE    HS13197   6.696   2.068   3.245 -0.7350  0.7850  1.6530
  124SOPE   O2113198   6.576   2.230   3.308  0.1928 -0.1664  0.3543
  124SOPE   C2113199   6.468   2.169   3.347 -0.7700  0.1592  0.2144
  124SOPE   O2213200   6.434   2.049   3.321  0.3146 -0.0515  0.0064
  124SOPE   C2213201   6.403   2.248   3.459 -0.4275  0.0426  0.0452
  124SOPE   H2R13202   6.300   2.268   3.424 -0.4027 -0.8977 -0.5777
  124SOPE   H2S13203   6.465   2.339   3.477  2.3801 -1.0402 -3.1561
  124SOPE    C313204   6.779   2.250   3.183 -0.3275  0.1084  0.0788
  124SOPE    HX13205   6.742   2.345   3.140  0.8508 -0.8208 -3.3344
  124SOPE    HY13206   6.844   2.202   3.107  1.0342 -0.9949  1.8657
  124SOPE   O3113207   6.858   2.280   3.299  0.2752 -0.4036  0.4483
  124SOPE   C3113208   6.918   2.176   3.351  0.9101  0.3612 -0.7323
  124SOPE   O3213209   6.906   2.055   3.324  0.3065 -0.5691  0.0934
  124SOPE   C3213210   7.001   2.209   3.479  0.3003  0.3264  0.7465
  124SOPE   H2X13211   7.027   2.316   3.467 -2.2045  0.7791 -1.5889
  124SOPE   H2Y13212   7.098   2.155   3.482  1.5097  2.3589  0.1794
  124SOPE   C2313213   6.385   2.160   3.582  0.0890 -0.4217  0.6286
  124SOPE   H3R13214   6.318   2.075   3.558 -0.0709 -0.4274  1.0994
  124SOPE   H3S13215   6.330   2.222   3.656  0.3952 -0.9858  1.3281
  124SOPE   C2413216   6.513   2.129   3.653 -0.5491  0.6209  0.4672
  124SOPE   H4R13217   6.572   2.069   3.580 -0.6359  1.3620 -0.2275
  124SOPE   H4S13218   6.562   2.225   3.678 -1.0107  0.3070  2.8459
  124SOPE   C2513219   6.496   2.045   3.777  0.2669 -0.4703 -1.2672
  124SOPE   H5R13220   6.406   2.082   3.829  1.2043 -0.4316  0.3875
  124SOPE   H5S13221   6.472   1.939   3.754  1.5180 -0.8473 -0.8993
  124SOPE   C2613222   6.609   2.062   3.874 -0.4113 -0.5070 -0.4042
  124SOPE   H6R13223   6.705   2.056   3.819  1.2601  1.0143  2.1196
  124SOPE   H6S13224   6.598   2.165   3.914 -0.8149 -0.8087  0.2717
  124SOPE   C2713225   6.606   1.958   3.981  0.3555  0.0629 -0.2836
  124SOPE   H7R13226   6.618   1.855   3.940  3.2195 -0.3151  1.2397
  124SOPE   H7S13227   6.692   1.977   4.049  0.6871  0.9904 -0.9638
  124SOPE   C2813228   6.484   1.970   4.084 -0.1155  0.1428 -0.6458
  124SOPE   H8R13229   6.390   1.922   4.049 -0.9234  0.7390  0.6456
  124SOPE   H8S13230   6.528   1.904   4.162  2.9627  0.7640 -1.7095
  124SOPE   C2913231   6.450   2.115   4.127  0.5142  0.4785  0.6085
  124SOPE   H9113232   6.400   2.171   4.046 -0.8364 -0.9400  0.4162
  124SOPE  C21013233   6.495   2.175   4.240 -0.1371 -0.2349  0.3903
  124SOPE  H10113234   6.473   2.282   4.234  2.8330  0.3618 -2.1901
  124SOPE  C21113235   6.572   2.128   4.358  0.6554 -0.5181 -0.4868
  124SOPE  H11R13236   6.677   2.110   4.327  1.4148  0.7838  1.1654
  124SOPE  H11S13237   6.540   2.034   4.406 -0.0827  0.6422  1.4087
  124SOPE  C21213238   6.565   2.240   4.466  0.0604  1.0033 -0.3017
  124SOPE  H12R13239   6.456   2.248   4.485 -0.2206 -1.9538 -0.1547
  124SOPE  H12S13240   6.605   2.339   4.437 -0.8302  1.3944 -0.2321
  124SOPE  C21313241   6.628   2.201   4.600 -0.0641 -0.1382  0.0485
  124SOPE  H13R13242   6.737   2.224   4.604 -0.1645  0.2025  1.8615
  124SOPE  H13S13243   6.606   2.094   4.623  0.2363 -0.8106 -2.4804
  124SOPE  C21413244   6.586   2.288   4.721  0.3336 -0.3655  0.1299
  124SOPE  H14R13245   6.478   2.316   4.722  0.3808 -0.1816  1.2279
  124SOPE  H14S13246   6.638   2.385   4.708 -1.7042  0.7327 -0.2143
  124SOPE  C21513247   6.633   2.230   4.851 -0.2291  0.3101 -0.4848
  124SOPE  H15R13248   6.740   2.209   4.869 -0.9943 -1.7948  2.3371
  124SOPE  H15S13249   6.582   2.131   4.856 -0.5867  0.3461 -2.5705
  124SOPE  C21613250   6.597   2.321   4.973 -0.4754  0.0044 -0.0902
  124SOPE  H16R13251   6.487   2.314   4.983 -0.8534 -0.0045 -3.2214
  124SOPE  H16S13252   6.618   2.429   4.955  1.5260 -0.4826 -1.0441
  124SOPE  C21713253   6.672   2.278   5.102  0.3536 -0.0113  0.2716
  124SOPE  H17R13254   6.781   2.296   5.089  0.5510 -1.9599 -1.1831
  124SOPE  H17S13255   6.653   2.169   5.106  2.5635 -0.4928 -0.7925
  124SOPE  C21813256   6.641   2.352   5.229  0.2861 -0.4157 -0.4112
  124SOPE  H18R13257   6.541   2.325   5.269 -0.2668  0.7909 -0.9427
  124SOPE  H18S13258   6.646   2.463   5.223 -1.3339 -0.0781  2.6090
  124SOPE  H18T13259   6.726   2.324   5.296  1.5225  3.0442 -0.3184
  124SOPE   C3313260   6.914   2.192   3.610 -0.5818 -0.0971 -0.0626
  124SOPE   H3X13261   6.887   2.084   3.621  3.4767 -1.3875 -1.0091
  124SOPE   H3Y13262   6.818   2.242   3.588  0.6089  1.9604 -0.9323
  124SOPE   C3413263   6.978   2.265   3.733  0.3045 -0.4474 -0.1662
  124SOPE   H4X13264   6.985   2.374   3.713  1.7162 -0.5160 -0.1516
  124SOPE   H4Y13265   7.080   2.228   3.754  0.8208  0.3474 -1.1801
  124SOPE   C3513266   6.901   2.252   3.858 -0.7920  0.4743 -0.2851
  124SOPE   H5X13267   6.891   2.144   3.885 -3.1072  1.1536  1.9871
  124SOPE   H5Y13268   6.802   2.294   3.833 -0.0578  1.9590 -0.7842
  124SOPE   C3613269   6.955   2.331   3.975 -0.8599 -0.1630 -0.3240
  124SOPE   H6X13270   6.959   2.437   3.940 -0.9614  0.1737  0.6642
  124SOPE   H6Y13271   7.059   2.304   4.003 -0.8708  1.4737  1.4943
  124SOPE   C3713272   6.873   2.333   4.097  0.4687  0.1283 -0.2193
  124SOPE   H7X13273   6.880   2.232   4.144  1.2027  0.4120  0.3066
  124SOPE   H7Y13274   6.768   2.363   4.079  0.1075 -0.4629  0.8508
  124SOPE   C3813275   6.934   2.432   4.199  0.3483 -0.4887 -0.4965
  124SOPE   H8X13276   6.926   2.536   4.160 -0.0219 -0.9243 -1.6272
  124SOPE   H8Y13277   7.038   2.405   4.228  1.2253  0.8897 -2.1081
  124SOPE   C3913278   6.849   2.436   4.325 -0.1256  0.3071 -0.2707
  124SOPE   H9X13279   6.846   2.341   4.382  0.4200  2.3200  3.4656
  124SOPE   H9Y13280   6.741   2.453   4.307 -0.3661 -0.2821  0.5418
  124SOPE  C31013281   6.891   2.546   4.417 -0.2629  0.1632 -1.1517
  124SOPE  H10X13282   6.845   2.637   4.372  0.7948  1.0914 -0.4005
  124SOPE  H10Y13283   6.998   2.577   4.418 -0.7110  1.7993 -0.7513
  124SOPE  C31113284   6.844   2.525   4.567 -0.0064 -0.6389 -0.0846
  124SOPE  H11X13285   6.918   2.449   4.601 -0.3812 -1.4276 -0.9907
  124SOPE  H11Y13286   6.740   2.487   4.564 -1.1254  2.1040  0.5102
  124SOPE  C31213287   6.857   2.646   4.657 -0.2800 -0.9047  0.2469
  124SOPE  H12X13288   6.807   2.738   4.620  0.7253  0.9483  3.1899
  124SOPE  H12Y13289   6.964   2.675   4.667 -1.0060  1.4958  1.9883
  124SOPE  C31313290   6.779   2.606   4.782  0.0946 -0.0405  0.4421
  124SOPE  H13X13291   6.787   2.501   4.816 -0.2681  0.0640  0.8516
  124SOPE  H13Y13292   6.673   2.629   4.761  0.3392  1.5109  0.7588
  124SOPE  C31413293   6.823   2.705   4.895 -0.1054 -0.1441  0.3338
  124SOPE  H14X13294   6.792   2.806   4.860  0.6801  0.0619  0.2328
  124SOPE  H14Y13295   6.933   2.711   4.903  0.0518 -0.9463 -0.8977
  124SOPE  C31513296   6.750   2.685   5.030 -0.8817 -0.2581 -0.3826
  124SOPE  H15X13297   6.760   2.580   5.064 -0.1249 -0.5222 -1.3657
  124SOPE  H15Y13298   6.642   2.695   5.008 -1.4243 -0.4488  1.8968
  124SOPE  C31613299   6.793   2.786   5.132 -0.2571 -0.0121 -0.2858
  124SOPE  H16X13300   6.767   2.887   5.093 -0.7044 -0.4037 -1.0267
  124SOPE  H16Y13301   6.902   2.797   5.152 -0.4003  2.4824 -0.6046
  124SOPE  C31713302   6.718   2.783   5.259 -0.6674  0.1199 -0.3613
  124SOPE  H17X13303   6.759   2.696   5.314  0.2222 -1.2228 -2.9739
  124SOPE  H17Y13304   6.610   2.765   5.245 -0.5287 -0.5352 -0.6241
  124SOPE  C31813305   6.745   2.903   5.354 -0.1125 -0.6005  0.2905
  124SOPE  H18X13306   6.662   2.916   5.426  0.9392  2.5558  1.0916
  124SOPE  H18Y13307   6.736   2.994   5.292  0.4137  0.1921  1.3412
  124SOPE  H18Z13308   6.848   2.899   5.397  0.6785  0.4005 -1.3919
  125SOPE     N13309   0.961   1.415   2.681 -0.4871  0.8083 -0.1261
  125SOPE   HN113310   0.884   1.483   2.665 -2.2012 -0.5699  1.8741
  125SOPE   HN213311   1.045   1.436   2.623  0.7320 -2.1593  0.4228
  125SOPE   HN313312   0.922   1.325   2.648 -0.3775 -0.2134  2.3258
  125SOPE   C1213313   0.998   1.407   2.819 -0.0722 -0.6022 -0.0677
  125SOPE  H12A13314   1.072   1.486   2.844 -0.7837  0.7736 -2.0151
  125SOPE  H12B13315   1.041   1.306   2.838 -1.2415 -1.3496 -1.2195
  125SOPE   C1113316   0.874   1.433   2.912 -0.6136  0.7154  0.6254
  125SOPE  H11A13317   0.911   1.469   3.011  1.2943  0.5355  0.0260
  125SOPE  H11B13318   0.814   1.340   2.922 -1.0624  0.8704 -0.5104
  125SOPE     P13319   0.774   1.685   2.889 -0.0164 -0.0053  0.1804
  125SOPE   O1313320   0.656   1.741   2.824 -0.1660  0.2986 -0.1173
  125SOPE   O1413321   0.909   1.737   2.867 -0.2510  0.6556 -0.6361
  125SOPE   O1213322   0.786   1.532   2.852  0.6965 -0.4353  0.3238
  125SOPE   O1113323   0.757   1.675   3.044 -0.4478  0.1929 -0.1189
  125SOPE    C113324   0.639   1.748   3.090 -0.2096 -0.5635 -0.8432
  125SOPE    HA13325   0.548   1.716   3.036  0.0706 -1.2233 -0.9349
  125SOPE    HB13326   0.653   1.858   3.082 -1.5278 -0.2019  1.0435
  125SOPE    C213327   0.609   1.718   3.237  0.1972  0.1377 -0.2007
  125SOPE    HS13328   0.501   1.736   3.254 -0.3428 -1.1412 -2.0099
  125SOPE   O2113329   0.690   1.799   3.326  0.1508 -0.1325 -0.3141
  125SOPE   C2113330   0.665   1.929   3.337  0.1895  0.1725 -0.0366
  125SOPE   O2213331   0.555   1.976   3.297 -0.5066 -0.1143  0.0074
  125SOPE   C2213332   0.779   2.004   3.417  0.4096  0.3990  0.1190
  125SOPE   H2R13333   0.748   2.110   3.429 -2.0492 -0.3919  1.4410
  125SOPE   H2S13334   0.867   1.996   3.350 -0.4737 -0.7152 -0.9754
  125SOPE    C313335   0.626   1.564   3.273 -0.3624 -0.6055  0.1848
  125SOPE    HX13336   0.735   1.543   3.275 -0.1911  0.1907  2.2127
  125SOPE    HY13337   0.574   1.506   3.194  0.6138  1.2657 -1.9618
  125SOPE   O3113338   0.560   1.551   3.402 -0.5170 -0.6137 -0.7650
  125SOPE   C3113339   0.611   1.449   3.468 -0.8534 -0.4830 -0.5843
  125SOPE   O3213340   0.716   1.388   3.453 -0.4545 -0.5003 -0.2471
  125SOPE   C3213341   0.511   1.410   3.580  0.1557 -0.8720  0.2178
  125SOPE   H2X13342   0.526   1.301   3.598 -0.0661 -0.6618  1.8626
  125SOPE   H2Y13343   0.408   1.419   3.541  0.6985 -1.5941 -1.4824
  125SOPE   C2313344   0.813   1.940   3.553  0.0757 -0.1863 -0.1041
  125SOPE   H3R13345   0.728   1.898   3.611  0.7811  0.6580  1.6083
  125SOPE   H3S13346   0.862   2.019   3.613  1.7424  0.8430 -2.6362
  125SOPE   C2413347   0.922   1.833   3.552 -0.8581  0.7406  0.3034
  125SOPE   H4R13348   0.890   1.751   3.484 -3.4779 -1.3834  3.7406
  125SOPE   H4S13349   1.008   1.881   3.502  0.3259 -2.4563 -1.0012
  125SOPE   C2513350   0.959   1.785   3.691 -0.2989  0.2375 -0.3628
  125SOPE   H5R13351   1.063   1.745   3.689  0.9039  2.8689  2.2182
  125SOPE   H5S13352   0.958   1.877   3.753  0.9904  1.8083 -2.5229
  125SOPE   C2613353   0.856   1.694   3.751 -0.0419  0.0137  0.4359
  125SOPE   H6R13354   0.754   1.713   3.711 -0.1111 -1.6673 -0.2703
  125SOPE   H6S13355   0.882   1.588   3.730  2.5889  0.6212  0.2425
  125SOPE   C2713356   0.841   1.713   3.902  0.0908  0.5320  1.0039
  125SOPE   H7R13357   0.788   1.807   3.929  2.4773  2.2064  0.1989
  125SOPE   H7S13358   0.777   1.625   3.927  1.4676 -1.1013 -0.8820
  125SOPE   C2813359   0.972   1.714   3.980 -0.0148  0.3180  0.1444
  125SOPE   H8R13360   1.029   1.632   3.931 -1.1679 -0.2908 -0.2235
  125SOPE   H8S13361   1.028   1.808   3.963 -0.2488  0.2950 -0.8214
  125SOPE   C2913362   0.976   1.682   4.126 -0.5545 -0.0074  0.3119
  125SOPE   H9113363   1.016   1.584   4.157  1.4098  0.6204 -0.1041
  125SOPE  C21013364   0.949   1.775   4.222  0.3516  0.1508 -0.8701
  125SOPE  H10113365   0.941   1.743   4.327 -0.6152 -0.9793 -1.2649
  125SOPE  C21113366   0.902   1.921   4.206  0.1799  0.1372 -0.4443
  125SOPE  H11R13367   0.925   1.961   4.105  0.0948  0.1042 -0.4764
  125SOPE  H11S13368   0.953   1.980   4.285 -0.9956 -0.1487  0.5567
  125SOPE  C21213369   0.757   1.958   4.224  0.8954  0.6835 -0.6847
  125SOPE  H12R13370   0.711   1.894   4.145  0.6914  2.2918 -1.9271
  125SOPE  H12S13371   0.738   2.064   4.198  0.0761  0.7544  0.1696
  125SOPE  C21313372   0.689   1.913   4.355  0.1543  0.3110 -0.1112
  125SOPE  H13R13373   0.680   1.803   4.354  1.6915  0.1483  0.5612
  125SOPE  H13S13374   0.586   1.954   4.349  0.4404  1.0265 -0.2355
  125SOPE  C21413375   0.745   1.962   4.485 -0.2065  0.4401  0.1124
  125SOPE  H14R13376   0.764   2.072   4.484  0.5447  0.3166  0.2693
  125SOPE  H14S13377   0.838   1.907   4.513 -1.5338 -1.9723  0.0603
  125SOPE  C21513378   0.644   1.950   4.593 -0.6506 -0.6037  0.1578
  125SOPE  H15R13379   0.632   1.843   4.619 -1.4427 -0.5709 -0.0528
  125SOPE  H15S13380   0.547   1.985   4.552  0.3452  0.3156 -1.5309
  125SOPE  C21613381   0.688   2.016   4.724  0.2334  0.0164 -0.1313
  125SOPE  H16R13382   0.625   1.985   4.810  2.3148 -0.0587  1.4409
  125SOPE  H16S13383   0.679   2.126   4.722  0.3613  0.0286 -0.0529
  125SOPE  C21713384   0.833   1.990   4.775  0.9078  0.1747 -0.1230
  125SOPE  H17R13385   0.907   2.064   4.736  1.9706 -1.3672 -1.1456
  125SOPE  H17S13386   0.866   1.891   4.738 -0.8319 -1.1443  1.7089
  125SOPE  C21813387   0.841   1.996   4.932  1.0293  0.4061  0.7331
  125SOPE  H18R13388   0.774   1.922   4.980  0.5050  0.7086  0.4749
  125SOPE  H18S13389   0.822   2.099   4.967 -1.2573  0.0372  0.7237
  125SOPE  H18T13390   0.946   1.965   4.951  0.8933 -0.4663  0.1529
  125SOPE   C3313391   0.548   1.472   3.721  0.2221  0.5561 -0.1462
  125SOPE   H3X13392   0.523   1.580   3.712 -1.8303  0.3168  1.7678
  125SOPE   H3Y13393   0.655   1.464   3.750 -0.2208  0.4795  1.5864
  125SOPE   C3413394   0.464   1.421   3.834  0.1565 -0.4282 -0.2836
  125SOPE   H4X13395   0.431   1.316   3.851 -0.7142 -0.2113 -0.5592
  125SOPE   H4Y13396   0.371   1.479   3.815  1.3502  1.6892  0.0527
  125SOPE   C3513397   0.518   1.487   3.963 -0.7611  0.2830  0.0917
  125SOPE   H5X13398   0.512   1.596   3.943  2.3754  0.5952  0.3724
  125SOPE   H5Y13399   0.625   1.469   3.985 -0.5262  0.4186 -0.8682
  125SOPE   C3613400   0.431   1.473   4.089  0.2351 -0.1614 -0.6163
  125SOPE   H6X13401   0.450   1.371   4.129  0.1267 -0.1334 -0.4948
  125SOPE   H6Y13402   0.322   1.474   4.069 -0.1547  0.5564  1.3592
  125SOPE   C3713403   0.474   1.581   4.187  0.0298 -0.3509 -0.0364
  125SOPE   H7X13404   0.427   1.673   4.148  0.5514 -0.8687 -2.0280
  125SOPE   H7Y13405   0.584   1.594   4.188  0.1082 -0.2858 -2.6335
  125SOPE   C3813406   0.428   1.540   4.329 -0.5218 -0.5431  0.1832
  125SOPE   H8X13407   0.466   1.437   4.348  1.8771  0.4968  1.4232
  125SOPE   H8Y13408   0.319   1.533   4.347 -0.2041  1.0286  3.3845
  125SOPE   C3913409   0.469   1.646   4.441  0.6183 -0.2930 -1.3845
  125SOPE   H9X13410   0.428   1.745   4.413 -1.4697 -0.8939 -0.6218
  125SOPE   H9Y13411   0.580   1.646   4.453  0.3198 -1.3180  3.6742
  125SOPE  C31013412   0.397   1.628   4.577  0.0712  0.3614  0.1243
  125SOPE  H10X13413   0.308   1.566   4.551 -0.6311  1.0287  0.8800
  125SOPE  H10Y13414   0.358   1.724   4.615 -0.6317  0.5338 -0.9956
  125SOPE  C31113415   0.491   1.572   4.679 -0.5463 -0.1231 -0.0352
  125SOPE  H11X13416   0.574   1.640   4.710  1.0719 -1.3441 -1.5131
  125SOPE  H11Y13417   0.528   1.474   4.643 -1.1822 -1.3060  2.3621
  125SOPE  C31213418   0.410   1.530   4.803  0.2365 -0.1135 -0.1016
  125SOPE  H12X13419   0.317   1.483   4.763  0.2311  2.0039 -2.9571
  125SOPE  H12Y13420   0.372   1.623   4.851 -0.4892  0.6507 -2.0274
  125SOPE  C31313421   0.490   1.443   4.907  0.6306 -0.0999  0.1092
  125SOPE  H13X13422   0.514   1.346   4.859 -3.2362 -0.9392 -0.4768
  125SOPE  H13Y13423   0.414   1.411   4.982  0.0319  0.1180 -0.3932
  125SOPE  C31413424   0.614   1.508   4.967 -0.4683 -0.3598  0.4786
  125SOPE  H14X13425   0.674   1.543   4.880 -1.3964 -1.0099 -0.4456
  125SOPE  H14Y13426   0.674   1.432   5.021  0.4058  1.3719  2.0782
  125SOPE  C31513427   0.580   1.615   5.072 -0.0326 -0.4362 -0.1900
  125SOPE  H15X13428   0.499   1.676   5.028 -0.9591  0.1359  2.1676
  125SOPE  H15Y13429   0.668   1.682   5.089 -0.2128 -0.3028  0.2359
  125SOPE  C31613430   0.532   1.552   5.202 -0.4969  0.1936  0.2630
  125SOPE  H16X13431   0.594   1.466   5.236 -0.8903 -0.4550 -0.6271
  125SOPE  H16Y13432   0.426   1.523   5.188 -0.5077 -0.1768  1.0643
  125SOPE  C31713433   0.516   1.653   5.322 -0.0042  0.2316  0.2603
  125SOPE  H17X13434   0.617   1.681   5.359  0.1872  0.7090 -0.5914
  125SOPE  H17Y13435   0.472   1.591   5.403  1.5689 -0.0520  0.9401
  125SOPE  C31813436   0.430   1.783   5.302 -0.0602 -0.0765 -0.4508
  125SOPE  H18X13437   0.485   1.855   5.237 -0.3759  1.2131  0.6587
  125SOPE  H18Y13438   0.406   1.829   5.400 -1.0920  1.5296 -1.4005
  125SOPE  H18Z13439   0.331   1.758   5.259 -0.5821 -2.3596  1.8531
  126SOPE     N13440   2.520   4.823   3.107 -0.4974  1.2711  0.7035
  126SOPE   HN113441   2.445   4.884   3.145 -1.5905  1.0442 -0.9864
  126SOPE   HN213442   2.456   4.746   3.079 -0.0607  0.8388  0.8869
  126SOPE   HN313443   2.581   4.790   3.184  0.6907 -0.0135 -0.7393
  126SOPE   C1213444   2.590   4.891   2.994  0.2907  0.5997  0.4048
  126SOPE  H12A13445   2.518   4.939   2.925 -1.2744 -0.2501  1.3855
  126SOPE  H12B13446   2.659   4.821   2.942 -1.8035 -0.8593 -0.5494
  126SOPE   C1113447   2.670   5.011   3.041  0.9349  0.3788 -0.3514
  126SOPE  H11A13448   2.712   5.077   2.962  0.7195 -0.9897 -1.6549
  126SOPE  H11B13449   2.754   4.969   3.100 -1.4150 -2.2569  1.3626
  126SOPE     P13450   2.655   5.216   3.200  0.1464 -0.4215  0.0010
  126SOPE   O1313451   2.552   5.304   3.268 -0.1292 -0.1713  0.3168
  126SOPE   O1413452   2.740   5.281   3.103  0.0539 -0.0459  0.3029
  126SOPE   O1213453   2.590   5.085   3.136 -0.1468  0.1119  0.1482
  126SOPE   O1113454   2.745   5.153   3.312 -0.0164  0.4474 -0.1733
  126SOPE    C113455   2.689   5.057   3.407  0.3768  0.0886  0.8463
  126SOPE    HA13456   2.778   4.998   3.439  0.8894  0.7114  0.6009
  126SOPE    HB13457   2.616   4.988   3.360 -0.9135  1.0649  1.3607
  126SOPE    C213458   2.628   5.130   3.536 -0.1369  0.1592 -0.2948
  126SOPE    HS13459   2.553   5.197   3.490 -1.1807 -0.0059  1.0917
  126SOPE   O2113460   2.733   5.207   3.593 -0.4212  0.3645  0.3890
  126SOPE   C2113461   2.703   5.328   3.638  0.2332  0.3794  0.2379
  126SOPE   O2213462   2.599   5.389   3.620  0.3939  0.0356  0.2690
  126SOPE   C2213463   2.824   5.390   3.706  0.4007  0.8662 -0.3017
  126SOPE   H2R13464   2.835   5.500   3.701  1.4529  0.7985  0.3220
  126SOPE   H2S13465   2.912   5.338   3.662 -0.7916 -0.7619 -0.8787
  126SOPE    C313466   2.545   5.039   3.638  0.1953  0.5359  0.3956
  126SOPE    HX13467   2.623   4.963   3.660 -0.4145 -0.1284  0.3054
  126SOPE    HY13468   2.460   4.990   3.586  0.7261  0.2572 -0.2293
  126SOPE   O3113469   2.511   5.112   3.759  0.3084 -0.3842 -0.1122
  126SOPE   C3113470   2.401   5.187   3.747  1.0386 -0.6178 -0.4006
  126SOPE   O3213471   2.338   5.194   3.646  0.2271 -0.3647  1.0721
  126SOPE   C3213472   2.369   5.269   3.874 -0.9084 -0.0202  0.0082
  126SOPE   H2X13473   2.259   5.266   3.890 -0.8035 -0.2008  0.7086
  126SOPE   H2Y13474   2.392   5.375   3.853  0.7163 -0.0337  1.4766
  126SOPE   C2313475   2.821   5.356   3.859 -0.5787 -0.1071  0.1053
  126SOPE   H3R13476   2.802   5.247   3.875 -1.5121  0.2942  1.9417
  126SOPE   H3S13477   2.731   5.404   3.901 -0.4900 -1.2356  1.6545
  126SOPE   C2413478   2.952   5.394   3.932  0.7224  0.2098  0.3525
  126SOPE   H4R13479   3.035   5.360   3.866  1.0777  2.0146 -0.1966
  126SOPE   H4S13480   2.977   5.502   3.941  1.8221  0.0615 -0.6618
  126SOPE   C2513481   2.958   5.323   4.066 -0.1049 -0.6702 -0.0274
  126SOPE   H5R13482   2.952   5.213   4.058  0.6518 -0.8047  1.0483
  126SOPE   H5S13483   3.063   5.339   4.097  0.7360 -0.1291 -2.9088
  126SOPE   C2613484   2.862   5.380   4.166  0.4550 -0.1393  0.4627
  126SOPE   H6R13485   2.844   5.484   4.134  0.3369 -0.4336 -0.4710
  126SOPE   H6S13486   2.761   5.335   4.153  1.2206 -1.8185 -0.0216
  126SOPE   C2713487   2.899   5.374   4.310 -0.1012 -0.3831 -0.4547
  126SOPE   H7R13488   2.983   5.440   4.339 -0.9539  0.3770  0.3210
  126SOPE   H7S13489   2.807   5.415   4.358 -0.1323 -1.1081  0.1313
  126SOPE   C2813490   2.924   5.236   4.380 -0.2225  0.3628  0.0586
  126SOPE   H8R13491   2.840   5.166   4.360 -0.0161  0.5355 -1.5578
  126SOPE   H8S13492   3.010   5.189   4.329 -1.4190 -1.2876 -0.5105
  126SOPE   C2913493   2.950   5.254   4.523  0.2083  0.1233 -0.7866
  126SOPE   H9113494   2.992   5.353   4.547  0.1489  0.1281 -0.7004
  126SOPE  C21013495   2.912   5.172   4.623  0.4267 -0.8735  0.1974
  126SOPE  H10113496   2.923   5.216   4.723 -0.6019 -0.4818  0.1511
  126SOPE  C21113497   2.838   5.047   4.603 -0.3728  0.6712 -0.0916
  126SOPE  H11R13498   2.883   4.983   4.524 -0.8151  1.7364 -1.2364
  126SOPE  H11S13499   2.732   5.074   4.583 -0.2889  1.8652  0.9554
  126SOPE  C21213500   2.852   4.946   4.722 -0.7831  0.5235 -0.0249
  126SOPE  H12R13501   2.960   4.920   4.730 -0.3955  1.2568 -2.3780
  126SOPE  H12S13502   2.788   4.860   4.695 -2.9055  1.0318  2.9502
  126SOPE  C21313503   2.798   5.000   4.861  0.0672  0.7010  0.3198
  126SOPE  H13R13504   2.689   5.020   4.856 -0.2218 -0.9552 -0.9497
  126SOPE  H13S13505   2.854   5.093   4.884 -0.9535  1.7072 -1.1061
  126SOPE  C21413506   2.828   4.895   4.973  0.5034 -0.2940  0.4092
  126SOPE  H14R13507   2.806   4.940   5.072 -1.0529 -0.7495  0.3037
  126SOPE  H14S13508   2.928   4.847   4.971  1.2475  1.2098  0.3539
  126SOPE  C21513509   2.735   4.778   4.966 -0.0997 -0.4040 -0.0797
  126SOPE  H15R13510   2.770   4.699   4.896  0.8790  1.3454 -1.6371
  126SOPE  H15S13511   2.632   4.796   4.929 -0.2415 -0.2555  0.3826
  126SOPE  C21613512   2.710   4.706   5.098 -0.5096  0.0261  0.5084
  126SOPE  H16R13513   2.660   4.784   5.159 -0.3746  0.0150  0.6338
  126SOPE  H16S13514   2.804   4.685   5.153 -0.7425  0.9806  1.2963
  126SOPE  C21713515   2.619   4.586   5.089  0.0354  0.7773  1.3351
  126SOPE  H17R13516   2.666   4.517   5.015 -2.4283 -1.5960  1.8570
  126SOPE  H17S13517   2.523   4.622   5.046  1.3040  1.8297 -0.8391
  126SOPE  C21813518   2.609   4.500   5.222  0.6649  0.1811  0.1692
  126SOPE  H18R13519   2.539   4.536   5.301  0.8875  0.9259  0.0361
  126SOPE  H18S13520   2.701   4.500   5.284  0.0647 -1.4251  1.1409
  126SOPE  H18T13521   2.593   4.390   5.212 -0.6037  0.4004 -0.3639
  126SOPE   C3313522   2.448   5.215   3.996  0.3697  0.1308 -0.1315
  126SOPE   H3X13523   2.557   5.213   3.974  0.7613  1.6679  1.4301
  126SOPE   H3Y13524   2.416   5.110   4.015 -1.0793  0.6351  0.3112
  126SOPE   C3413525   2.420   5.301   4.122  0.7057  0.3892  0.1286
  126SOPE   H4X13526   2.310   5.316   4.110  0.9520  3.0717  0.6788
  126SOPE   H4Y13527   2.474   5.398   4.113 -0.7400  1.4841  2.4307
  126SOPE   C3513528   2.456   5.245   4.263 -0.4422 -0.0457 -0.1303
  126SOPE   H5X13529   2.551   5.188   4.259  0.1546  0.9976 -1.8668
  126SOPE   H5Y13530   2.370   5.183   4.297 -1.0065  0.3506 -0.7809
  126SOPE   C3613531   2.474   5.359   4.365 -0.4098 -0.3219 -0.1560
  126SOPE   H6X13532   2.374   5.407   4.369 -1.0074 -1.6068  1.5485
  126SOPE   H6Y13533   2.542   5.438   4.327  0.1086 -1.0913 -0.8616
  126SOPE   C3713534   2.510   5.309   4.508  0.6083 -0.4752 -0.0235
  126SOPE   H7X13535   2.615   5.271   4.510  0.2743 -1.3854  2.1565
  126SOPE   H7Y13536   2.448   5.221   4.534  0.6083 -0.9556 -1.5144
  126SOPE   C3813537   2.481   5.417   4.612 -0.0096  0.2516 -0.6232
  126SOPE   H8X13538   2.376   5.450   4.595  0.0277  0.9162  0.3277
  126SOPE   H8Y13539   2.553   5.499   4.593  3.0040 -0.7993  4.4098
  126SOPE   C3913540   2.492   5.373   4.761 -0.2982 -0.0402 -0.3086
  126SOPE   H9X13541   2.461   5.462   4.819 -0.9950  0.6057 -1.6276
  126SOPE   H9Y13542   2.597   5.356   4.795 -0.0581  2.3756  0.3800
  126SOPE  C31013543   2.410   5.252   4.800  0.3404 -0.1588 -0.1922
  126SOPE  H10X13544   2.440   5.161   4.744 -0.2443 -0.8539  0.5975
  126SOPE  H10Y13545   2.309   5.285   4.770  0.5743  1.2704  0.4806
  126SOPE  C31113546   2.412   5.220   4.953  0.0768  0.3029  0.3193
  126SOPE  H11X13547   2.369   5.310   5.003 -0.9702 -0.1840  0.3191
  126SOPE  H11Y13548   2.517   5.214   4.988 -0.1141 -1.2398  0.6748
  126SOPE  C31213549   2.362   5.082   4.978 -0.0450  0.4967  0.2508
  126SOPE  H12X13550   2.400   4.999   4.916 -0.7947 -0.4407  1.0097
  126SOPE  H12Y13551   2.255   5.079   4.948 -0.0819 -1.1495  0.4593
  126SOPE  C31313552   2.379   5.043   5.124 -0.8033  0.6682  0.1047
  126SOPE  H13X13553   2.325   5.117   5.186 -0.5883 -0.6467  1.9536
  126SOPE  H13Y13554   2.487   5.049   5.151 -0.6480  0.6209 -0.4911
  126SOPE  C31413555   2.334   4.901   5.162 -0.1640  0.4396  0.3277
  126SOPE  H14X13556   2.374   4.821   5.096 -0.2768  0.9997 -0.4273
  126SOPE  H14Y13557   2.223   4.909   5.160 -0.4563 -2.5352 -1.1823
  126SOPE  C31513558   2.388   4.869   5.309 -0.5045  0.4258  0.6815
  126SOPE  H15X13559   2.372   4.961   5.369  2.2239  1.2318  0.2957
  126SOPE  H15Y13560   2.495   4.839   5.310 -1.3916 -3.2376  1.8209
  126SOPE  C31613561   2.315   4.754   5.376  0.0800  0.3000  0.2105
  126SOPE  H16X13562   2.337   4.658   5.325 -0.7297  0.6392 -0.7931
  126SOPE  H16Y13563   2.206   4.767   5.386 -0.0694 -1.4113  1.2996
  126SOPE  C31713564   2.374   4.743   5.517 -0.4834  0.1316  0.1477
  126SOPE  H17X13565   2.374   4.842   5.567  1.0934  0.4884 -0.4975
  126SOPE  H17Y13566   2.480   4.716   5.494 -0.6114 -1.2585  1.0375
  126SOPE  C31813567   2.315   4.635   5.603  0.2464  0.6944  0.3952
  126SOPE  H18X13568   2.216   4.648   5.652 -1.5316 -3.3223 -1.6222
  126SOPE  H18Y13569   2.378   4.609   5.691  1.3958  0.4756 -0.4614
  126SOPE  H18Z13570   2.309   4.540   5.546 -0.9910  0.6823  0.5256
  127SOPE     N13571   3.307   0.017   2.562 -0.0933 -0.2643 -0.0819
  127SOPE   HN113572   3.352  -0.001   2.470  0.4253 -3.3927  0.6613
  127SOPE   HN213573   3.252   0.105   2.553  0.0210 -0.2630 -0.8741
  127SOPE   HN313574   3.379   0.026   2.637 -1.1665 -0.1963  0.9699
  127SOPE   C1213575   3.200  -0.085   2.586 -0.3065  0.2883  0.4202
  127SOPE  H12A13576   3.248  -0.184   2.574  2.2688  1.4292  0.5492
  127SOPE  H12B13577   3.124  -0.072   2.506 -0.5287  3.4966  0.9827
  127SOPE   C1113578   3.140  -0.072   2.731  0.0806 -0.1753 -0.2421
  127SOPE  H11A13579   3.223  -0.056   2.803 -0.0997 -1.3677  0.2490
  127SOPE  H11B13580   3.104  -0.172   2.764 -0.0713  0.3773  1.3546
  127SOPE     P13581   2.894   0.011   2.706 -0.2124 -0.1596  0.0244
  127SOPE   O1313582   2.874  -0.130   2.668  0.4287 -0.0342 -0.6397
  127SOPE   O1413583   2.861   0.112   2.603 -0.1186  0.5790 -0.2585
  127SOPE   O1213584   3.042   0.035   2.738  0.3356 -0.1309 -0.3817
  127SOPE   O1113585   2.828   0.053   2.840  0.1227  0.1302 -0.2228
  127SOPE    C113586   2.822   0.189   2.881  0.0896  0.4698  0.1886
  127SOPE    HA13587   2.729   0.214   2.936  0.6435  0.2124  1.2749
  127SOPE    HB13588   2.824   0.253   2.790  3.2826  0.0681 -0.1422
  127SOPE    C213589   2.940   0.230   2.976  0.1610  0.4015  0.0179
  127SOPE    HS13590   3.029   0.232   2.910  1.4177  0.6703  1.6592
  127SOPE   O2113591   2.950   0.130   3.081 -0.1741 -0.2659  0.4393
  127SOPE   C2113592   3.071   0.066   3.085  0.5172  0.9018 -0.3988
  127SOPE   O2213593   3.171   0.110   3.027 -0.1882 -0.2039  0.4437
  127SOPE   C2213594   3.050  -0.062   3.168 -0.0496 -0.0265  0.1908
  127SOPE   H2R13595   3.027  -0.139   3.092 -2.6374  0.5818  0.2572
  127SOPE   H2S13596   2.963  -0.052   3.236  0.8374  1.4009  1.1838
  127SOPE    C313597   2.920   0.372   3.035 -0.1579 -0.3211 -0.8686
  127SOPE    HX13598   2.833   0.360   3.102  0.1566  0.0285 -0.3897
  127SOPE    HY13599   2.899   0.449   2.957 -1.8423  1.6511  1.3812
  127SOPE   O3113600   3.035   0.417   3.113 -0.1131  0.2398 -0.0014
  127SOPE   C3113601   3.148   0.453   3.057 -0.8340 -0.3237  0.5794
  127SOPE   O3213602   3.168   0.462   2.938 -0.0055  0.2143  0.5932
  127SOPE   C3213603   3.252   0.498   3.156 -0.4544  0.2429 -0.1712
  127SOPE   H2X13604   3.228   0.599   3.197  2.6810  0.4057  1.5851
  127SOPE   H2Y13605   3.347   0.504   3.097 -1.3426  1.3180 -1.5851
  127SOPE   C2313606   3.182  -0.086   3.245  0.4293  0.8871 -0.2805
  127SOPE   H3R13607   3.275  -0.071   3.185 -0.5167 -0.0885 -2.0858
  127SOPE   H3S13608   3.181  -0.193   3.274  0.3125  0.9118 -0.1933
  127SOPE   C2413609   3.196  -0.006   3.373  0.2180 -0.4213  0.7934
  127SOPE   H4R13610   3.300   0.005   3.412  1.5964 -1.3166 -2.3017
  127SOPE   H4S13611   3.167   0.101   3.363 -0.0010 -0.2098  3.0968
  127SOPE   C2513612   3.102  -0.046   3.482 -0.2794 -0.9188 -0.3137
  127SOPE   H5R13613   2.997  -0.026   3.454 -0.7963 -0.6502  1.7290
  127SOPE   H5S13614   3.109  -0.155   3.503  0.3742 -0.6111  1.1632
  127SOPE   C2613615   3.135   0.024   3.616 -0.0766  0.1883  0.2118
  127SOPE   H6R13616   3.243   0.018   3.642 -0.3021  2.1403  1.8385
  127SOPE   H6S13617   3.138   0.135   3.618  1.3161  0.1626  1.0300
  127SOPE   C2713618   3.049  -0.040   3.725  0.1619  0.2143 -0.2010
  127SOPE   H7R13619   2.945  -0.005   3.709  0.3607  0.7415 -0.3623
  127SOPE   H7S13620   3.049  -0.149   3.706 -1.2813 -0.4207  2.8000
  127SOPE   C2813621   3.091  -0.013   3.869 -0.2121  0.7009  1.0667
  127SOPE   H8R13622   3.185  -0.068   3.885 -0.0201  0.3778 -0.8688
  127SOPE   H8S13623   3.112   0.096   3.876 -0.8859  0.8044  1.6206
  127SOPE   C2913624   2.988  -0.056   3.966  0.3014  0.0445  0.7052
  127SOPE   H9113625   2.882  -0.056   3.935  1.2781  1.3997 -3.1982
  127SOPE  C21013626   3.012  -0.125   4.078  0.9820  0.3223 -0.1753
  127SOPE  H10113627   2.925  -0.171   4.128  1.7743 -2.9642 -1.5844
  127SOPE  C21113628   3.144  -0.172   4.137 -0.7300  0.0573 -0.2459
  127SOPE  H11R13629   3.230  -0.112   4.100 -1.3004  0.2148 -1.3875
  127SOPE  H11S13630   3.155  -0.278   4.105 -0.2805  0.1297 -0.3465
  127SOPE  C21213631   3.139  -0.151   4.293  0.3974  0.1786  0.0954
  127SOPE  H12R13632   3.051  -0.214   4.318  0.3063  1.0303  2.0678
  127SOPE  H12S13633   3.117  -0.048   4.327  0.4656 -0.0250  0.7734
  127SOPE  C21313634   3.255  -0.214   4.364  0.2082 -0.1048 -0.5707
  127SOPE  H13R13635   3.344  -0.151   4.344 -0.8135  0.5327 -3.7612
  127SOPE  H13S13636   3.278  -0.312   4.316  0.9976 -0.4806  0.5271
  127SOPE  C21413637   3.232  -0.235   4.517  0.1793  0.4105 -0.1768
  127SOPE  H14R13638   3.131  -0.277   4.537 -0.0484  0.3892 -1.2923
  127SOPE  H14S13639   3.236  -0.136   4.568  0.9604  0.1608  0.2683
  127SOPE  C21513640   3.333  -0.328   4.575 -0.2165 -0.5909 -0.9285
  127SOPE  H15R13641   3.430  -0.286   4.544 -0.5028 -0.4615 -1.6541
  127SOPE  H15S13642   3.326  -0.436   4.549 -0.0328 -0.9853  0.5314
  127SOPE  C21613643   3.331  -0.306   4.728 -0.7670 -0.5240 -0.5058
  127SOPE  H16R13644   3.338  -0.198   4.754  0.1917 -0.4935 -0.8835
  127SOPE  H16S13645   3.424  -0.349   4.770 -0.7414 -1.0246 -1.0744
  127SOPE  C21713646   3.226  -0.382   4.813  0.4260  0.7108  0.0316
  127SOPE  H17R13647   3.245  -0.487   4.841  1.1795  0.9661  0.4966
  127SOPE  H17S13648   3.134  -0.400   4.752  0.4965 -1.8001  0.5661
  127SOPE  C21813649   3.202  -0.321   4.951 -0.3130  0.0744  0.1587
  127SOPE  H18R13650   3.130  -0.379   5.014 -0.5559  0.5863  0.3552
  127SOPE  H18S13651   3.170  -0.215   4.939 -1.3244 -0.3952 -1.7244
  127SOPE  H18T13652   3.298  -0.326   5.006  0.0486 -2.0931 -0.5782
  127SOPE   C3313653   3.264   0.402   3.274  0.6998  0.7509 -0.4095
  127SOPE   H3X13654   3.286   0.302   3.232  1.5083  0.0153  1.6309
  127SOPE   H3Y13655   3.160   0.395   3.313  0.6752  0.6183 -0.4998
  127SOPE   C3413656   3.358   0.447   3.386 -1.2864  0.3188 -0.3118
  127SOPE   H4X13657   3.337   0.551   3.418 -2.3769 -0.3587  1.2786
  127SOPE   H4Y13658   3.461   0.440   3.344 -0.7657 -1.3098  1.1076
  127SOPE   C3513659   3.343   0.346   3.507 -0.4632  0.1629  0.3957
  127SOPE   H5X13660   3.368   0.244   3.469  0.8258  1.1869 -1.7044
  127SOPE   H5Y13661   3.239   0.348   3.544  0.3289  2.4526  2.8467
  127SOPE   C3613662   3.430   0.374   3.634  0.1201 -0.3131 -0.2537
  127SOPE   H6X13663   3.402   0.470   3.681  0.8164 -1.0064  1.6907
  127SOPE   H6Y13664   3.533   0.383   3.595  0.8981  1.8010  2.0539
  127SOPE   C3713665   3.420   0.261   3.736 -0.1604 -0.5132 -0.5257
  127SOPE   H7X13666   3.498   0.182   3.733 -2.8665 -3.3981 -0.2817
  127SOPE   H7Y13667   3.321   0.212   3.722 -0.9110  0.3776  1.2236
  127SOPE   C3813668   3.392   0.314   3.880 -0.1789 -0.5464 -0.0950
  127SOPE   H8X13669   3.305   0.381   3.892 -0.4264 -1.0760  1.2042
  127SOPE   H8Y13670   3.478   0.380   3.906 -0.7485  0.1547  0.0249
  127SOPE   C3913671   3.363   0.209   3.981 -0.2908  0.2324  0.5593
  127SOPE   H9X13672   3.438   0.130   3.956 -0.1226 -0.0831  1.9787
  127SOPE   H9Y13673   3.258   0.175   3.976  0.0984 -0.9176 -0.2559
  127SOPE  C31013674   3.376   0.263   4.124 -0.0520 -0.4287  0.0517
  127SOPE  H10X13675   3.302   0.344   4.145 -1.7566 -1.6342 -1.0856
  127SOPE  H10Y13676   3.481   0.302   4.131 -0.7644  1.4072  1.9747
  127SOPE  C31113677   3.364   0.167   4.235 -0.6962  0.9362  0.0673
  127SOPE  H11X13678   3.420   0.074   4.210 -1.0107  0.8897 -0.4849
  127SOPE  H11Y13679   3.255   0.150   4.249 -0.6916  1.3722  0.6630
  127SOPE  C31213680   3.409   0.224   4.370  0.1319  0.4402  0.5591
  127SOPE  H12X13681   3.329   0.287   4.416  1.2279  1.8862  0.5940
  127SOPE  H12Y13682   3.497   0.293   4.362  0.7419 -0.5399 -1.9573
  127SOPE  C31313683   3.446   0.109   4.466  0.0409 -0.2485  0.7713
  127SOPE  H13X13684   3.511   0.031   4.420  0.3018  0.7904 -0.6838
  127SOPE  H13Y13685   3.354   0.051   4.492  0.6444 -0.4535  2.5625
  127SOPE  C31413686   3.509   0.148   4.592  0.3858 -0.1001 -0.1451
  127SOPE  H14X13687   3.434   0.209   4.648 -0.5776 -0.6795 -0.7800
  127SOPE  H14Y13688   3.587   0.220   4.560 -0.1290  0.0709 -1.0287
  127SOPE  C31513689   3.563   0.030   4.682  0.3004  0.9333 -0.2154
  127SOPE  H15X13690   3.643  -0.026   4.629  0.2549  0.8067 -0.1477
  127SOPE  H15Y13691   3.482  -0.044   4.696  0.8008  0.7755  2.5689
  127SOPE  C31613692   3.593   0.055   4.825  0.0186 -0.3921  0.3368
  127SOPE  H16X13693   3.497   0.097   4.862 -0.4745  1.1547 -2.4109
  127SOPE  H16Y13694   3.680   0.124   4.834 -0.6406  0.3958  0.7644
  127SOPE  C31713695   3.615  -0.080   4.900  0.3640 -0.3311 -0.0414
  127SOPE  H17X13696   3.715  -0.112   4.862  0.2883 -0.7639  0.1251
  127SOPE  H17Y13697   3.530  -0.147   4.874 -0.6027  0.1206  1.7639
  127SOPE  C31813698   3.605  -0.069   5.048  0.1063  0.0800 -0.4608
  127SOPE  H18X13699   3.507  -0.026   5.079  0.1916 -0.1264  0.1069
  127SOPE  H18Y13700   3.678  -0.003   5.099  0.0413 -0.1971 -0.0057
  127SOPE  H18Z13701   3.613  -0.171   5.090 -0.7225  0.5068  0.7989
  128SOPE     N13702   0.907   0.048   2.951 -0.2469  0.0880 -0.2182
  128SOPE   HN113703   0.874   0.090   3.040 -0.0332  1.8246 -0.9336
  128SOPE   HN213704   1.004   0.014   2.967 -0.3092 -0.5886 -1.1723
  128SOPE   HN313705   0.898   0.125   2.882 -2.3016  1.9053  1.9112
  128SOPE   C1213706   0.820  -0.063   2.914  0.9442 -0.9219 -0.0575
  128SOPE  H12A13707   0.794  -0.122   3.005 -0.7441  0.7955  0.6408
  128SOPE  H12B13708   0.864  -0.126   2.833 -1.2875 -1.0276 -1.2708
  128SOPE   C1113709   0.690  -0.009   2.856 -0.4062 -0.2764  0.4479
  128SOPE  H11A13710   0.620  -0.093   2.839  0.2328 -0.6656 -0.3487
  128SOPE  H11B13711   0.724   0.029   2.757  1.3789  0.8742  1.4366
  128SOPE     P13712   0.538   0.194   2.881 -0.2430  0.1217 -0.0668
  128SOPE   O1313713   0.451   0.121   2.783 -0.1327 -0.1819 -0.4001
  128SOPE   O1413714   0.622   0.308   2.819  0.1239  0.0990 -0.1802
  128SOPE   O1213715   0.637   0.094   2.938  0.0514  0.5900  0.2291
  128SOPE   O1113716   0.452   0.240   2.998 -0.8761 -0.5311 -0.7180
  128SOPE    C113717   0.498   0.353   3.081  0.5730  0.1910 -0.7556
  128SOPE    HA13718   0.415   0.376   3.152  2.0063 -0.3886  1.2085
  128SOPE    HB13719   0.511   0.441   3.015 -2.6425 -0.8245 -2.9697
  128SOPE    C213720   0.621   0.326   3.179  0.0727  0.1551  0.4367
  128SOPE    HS13721   0.709   0.325   3.112 -0.3410  2.0654 -0.1884
  128SOPE   O2113722   0.599   0.202   3.256 -0.2453 -0.3824 -0.7516
  128SOPE   C2113723   0.688   0.109   3.242 -0.3814 -0.0835  0.3759
  128SOPE   O2213724   0.797   0.119   3.189  0.0081 -0.0260  0.4513
  128SOPE   C2213725   0.630  -0.022   3.293  0.9739  0.0657 -0.3286
  128SOPE   H2R13726   0.604  -0.083   3.204  1.1395  1.0039 -1.0361
  128SOPE   H2S13727   0.537  -0.014   3.354 -0.1498 -1.1331 -1.8083
  128SOPE    C313728   0.638   0.452   3.276 -0.3294  0.2814  0.6009
  128SOPE    HX13729   0.535   0.463   3.318  0.0636  0.5260  1.5127
  128SOPE    HY13730   0.664   0.539   3.212  4.2423 -0.6382  0.8848
  128SOPE   O3113731   0.736   0.434   3.379  0.2136  0.4392 -0.1273
  128SOPE   C3113732   0.784   0.547   3.431 -0.3446  0.0624  0.0858
  128SOPE   O3213733   0.775   0.658   3.385  0.6514 -0.1762 -0.0147
  128SOPE   C3213734   0.840   0.513   3.574 -0.1112 -0.5942  0.9155
  128SOPE   H2X13735   0.948   0.503   3.548 -0.6893  0.1828 -2.0894
  128SOPE   H2Y13736   0.804   0.411   3.601 -0.5364 -1.0849 -1.3042
  128SOPE   C2313737   0.735  -0.102   3.381  0.5055 -0.0327  0.8903
  128SOPE   H3R13738   0.830  -0.115   3.326 -0.1056  1.2391 -0.5613
  128SOPE   H3S13739   0.677  -0.196   3.390 -1.1423  0.8728  0.2622
  128SOPE   C2413740   0.767  -0.057   3.522  0.0394 -0.2454 -0.2437
  128SOPE   H4R13741   0.680  -0.017   3.578 -0.6651 -0.7682 -0.9290
  128SOPE   H4S13742   0.792  -0.146   3.583 -2.3742  0.7226  2.3414
  128SOPE   C2513743   0.887   0.033   3.526  0.0975 -0.2503 -0.5228
  128SOPE   H5R13744   0.970  -0.006   3.463 -0.0727 -0.1002 -0.8418
  128SOPE   H5S13745   0.863   0.137   3.495  0.6129 -0.6522 -2.4590
  128SOPE   C2613746   0.950   0.047   3.677 -0.3640 -0.3982  0.2783
  128SOPE   H6R13747   0.944  -0.054   3.722 -0.2157  0.4802  2.3641
  128SOPE   H6S13748   1.058   0.069   3.667 -0.0113 -1.5624  1.2978
  128SOPE   C2713749   0.873   0.148   3.764 -0.4198 -0.1705 -0.2489
  128SOPE   H7R13750   0.887   0.256   3.742  2.2170 -0.3390  0.1961
  128SOPE   H7S13751   0.766   0.118   3.761 -1.0531  1.9928 -0.7330
  128SOPE   C2813752   0.930   0.122   3.902 -0.0399  0.6650 -0.5697
  128SOPE   H8R13753   0.920   0.017   3.936  0.7551  0.6286 -0.4267
  128SOPE   H8S13754   1.037   0.150   3.889  0.1463  0.0109 -0.4815
  128SOPE   C2913755   0.869   0.215   4.005 -0.6740  0.0294 -0.3083
  128SOPE   H9113756   0.878   0.322   3.984  2.7060 -0.1293 -0.1287
  128SOPE  C21013757   0.811   0.178   4.124  0.8327 -0.3599  0.2202
  128SOPE  H10113758   0.765   0.259   4.182  0.7506 -0.8712  0.8740
  128SOPE  C21113759   0.790   0.032   4.179 -0.3805 -0.1831 -0.4552
  128SOPE  H11R13760   0.810   0.052   4.286 -0.9104  1.6119 -0.6470
  128SOPE  H11S13761   0.857  -0.047   4.138 -0.3284  0.0565 -0.8451
  128SOPE  C21213762   0.642  -0.015   4.169  0.3397  0.5601  0.1649
  128SOPE  H12R13763   0.571   0.065   4.199 -0.7437  0.7894 -2.7657
  128SOPE  H12S13764   0.625  -0.107   4.229 -0.3013  0.0513 -0.7835
  128SOPE  C21313765   0.606  -0.044   4.022  0.1137  0.1648 -0.7981
  128SOPE  H13R13766   0.674  -0.120   3.980 -1.1069 -0.0876 -2.3979
  128SOPE  H13S13767   0.618   0.048   3.961 -2.9624  1.1681 -0.0824
  128SOPE  C21413768   0.465  -0.091   3.997 -0.0659  0.1102  0.5710
  128SOPE  H14R13769   0.387  -0.019   4.031 -1.5068 -1.2723  0.2630
  128SOPE  H14S13770   0.458  -0.180   4.063  1.6630  0.9695  2.0104
  128SOPE  C21513771   0.446  -0.111   3.851 -0.4991 -0.2204  0.4693
  128SOPE  H15R13772   0.510  -0.188   3.803  1.5072  2.2124 -0.9824
  128SOPE  H15S13773   0.483  -0.021   3.798  0.7489  0.1814  1.9570
  128SOPE  C21613774   0.300  -0.119   3.806 -0.2003 -0.2064  1.2391
  128SOPE  H16R13775   0.252  -0.021   3.826 -2.5016 -0.4480 -2.3332
  128SOPE  H16S13776   0.241  -0.195   3.862  0.3846 -0.2823  1.7671
  128SOPE  C21713777   0.284  -0.149   3.650  0.1269  0.3259  0.3047
  128SOPE  H17R13778   0.175  -0.136   3.638  0.0094 -1.0406 -0.3162
  128SOPE  H17S13779   0.289  -0.259   3.640 -2.1530  0.2055  0.0716
  128SOPE  C21813780   0.372  -0.084   3.543  0.6310  0.5209 -0.8848
  128SOPE  H18R13781   0.375   0.025   3.559  1.8779  0.4338 -0.3988
  128SOPE  H18S13782   0.344  -0.104   3.437  0.8737 -1.1230 -0.6782
  128SOPE  H18T13783   0.480  -0.109   3.557  0.3717 -0.1139  0.0913
  128SOPE   C3313784   0.824   0.620   3.681 -0.6420 -0.3372  0.5164
  128SOPE   H3X13785   0.713   0.626   3.688 -0.4718  1.6864  2.2730
  128SOPE   H3Y13786   0.863   0.717   3.646 -0.0631 -0.6718  0.2242
  128SOPE   C3413787   0.874   0.574   3.822  0.7681 -0.0805  0.2593
  128SOPE   H4X13788   0.971   0.520   3.822  0.8761 -0.0975  3.6766
  128SOPE   H4Y13789   0.811   0.488   3.855  0.9003 -1.1395 -2.0157
  128SOPE   C3513790   0.858   0.689   3.920 -0.2275 -0.0829 -0.4541
  128SOPE   H5X13791   0.757   0.734   3.924  0.5420  1.7985 -1.1590
  128SOPE   H5Y13792   0.932   0.760   3.879  0.7887 -1.5032 -1.1696
  128SOPE   C3613793   0.878   0.641   4.067 -0.6108 -0.5289  0.1354
  128SOPE   H6X13794   0.982   0.600   4.071  0.7222  2.6009  1.4329
  128SOPE   H6Y13795   0.804   0.563   4.092 -0.1324 -2.1103 -2.9854
  128SOPE   C3713796   0.871   0.768   4.161 -0.8809  0.0811 -0.5913
  128SOPE   H7X13797   0.764   0.774   4.189 -1.0524 -3.0715 -0.1494
  128SOPE   H7Y13798   0.913   0.858   4.110  0.4419  0.4472  1.0630
  128SOPE   C3813799   0.955   0.758   4.290 -0.2699 -0.1846  0.4896
  128SOPE   H8X13800   1.062   0.735   4.273 -0.1211  0.0246  1.1204
  128SOPE   H8Y13801   0.923   0.667   4.346 -0.8154 -0.5458 -0.3977
  128SOPE   C3913802   0.949   0.877   4.389 -0.2810 -0.1997 -0.1369
  128SOPE   H9X13803   0.844   0.914   4.394  0.2981  1.4801  0.0619
  128SOPE   H9Y13804   1.008   0.968   4.368  0.3103 -0.9794 -2.1313
  128SOPE  C31013805   0.985   0.822   4.522  0.0980  0.2919 -1.0147
  128SOPE  H10X13806   1.093   0.794   4.525 -0.0667 -0.2804  0.2991
  128SOPE  H10Y13807   0.920   0.740   4.557  0.1818  0.0999 -1.3051
  128SOPE  C31113808   0.985   0.930   4.637 -0.1565  0.1769 -0.2182
  128SOPE  H11X13809   0.992   0.865   4.727 -1.4783 -0.9260 -0.8762
  128SOPE  H11Y13810   0.887   0.980   4.646 -2.1738 -3.1380 -1.8373
  128SOPE  C31213811   1.101   1.037   4.625 -0.2537 -0.3294  0.4446
  128SOPE  H12X13812   1.052   1.137   4.626  2.4000  1.1259 -2.0928
  128SOPE  H12Y13813   1.159   1.017   4.533  0.4028 -0.2408  0.8342
  128SOPE  C31313814   1.200   1.033   4.745 -0.3013 -0.3202  0.4074
  128SOPE  H13X13815   1.300   1.060   4.707 -0.9337  0.5827 -0.6816
  128SOPE  H13Y13816   1.211   0.928   4.779 -0.3665  0.0681  1.6816
  128SOPE  C31413817   1.160   1.118   4.868  0.4400 -0.1940 -0.4768
  128SOPE  H14X13818   1.059   1.086   4.903  0.3335 -1.4254 -1.8433
  128SOPE  H14Y13819   1.161   1.224   4.836  0.1284 -0.8102 -2.7089
  128SOPE  C31513820   1.255   1.095   4.993 -0.2149 -0.3649  0.2731
  128SOPE  H15X13821   1.244   1.186   5.056 -0.9943 -2.0278  2.6995
  128SOPE  H15Y13822   1.362   1.098   4.963  0.4676  0.8169  2.5678
  128SOPE  C31613823   1.219   0.977   5.075  0.0376  0.1568 -0.0352
  128SOPE  H16X13824   1.230   0.890   5.007 -0.4157 -0.2297  0.3791
  128SOPE  H16Y13825   1.114   0.978   5.112  0.4534  1.2736  1.1925
  128SOPE  C31713826   1.305   0.960   5.204 -0.2325 -0.1435  0.5174
  128SOPE  H17X13827   1.295   1.057   5.257  1.6976  0.2928  0.1408
  128SOPE  H17Y13828   1.411   0.953   5.173  0.1862  0.6634  1.6796
  128SOPE  C31813829   1.273   0.839   5.300  0.2020  0.1423  0.9033
  128SOPE  H18X13830   1.340   0.822   5.386  1.1597  1.5481  0.4730
  128SOPE  H18Y13831   1.287   0.747   5.239  0.7601 -1.0644  2.7802
  128SOPE  H18Z13832   1.168   0.832   5.335 -0.6913  0.7867 -1.4343
  129OSM      N13833   3.356   6.630   7.423  0.0183 -0.2544 -0.3913
  129OSM    C1513834   3.314   6.742   7.517  0.2098  0.0237 -0.2363
  129OSM   H15A13835   3.385   6.756   7.597  0.9460 -0.7508 -0.7422
  129OSM   H15B13836   3.217   6.726   7.562 -0.5398  0.4895 -1.6109
  129OSM   H15C13837   3.304   6.829   7.454  2.9568  1.4366  1.0764
  129OSM    C1413838   3.475   6.660   7.346 -0.3097 -0.5069  0.0482
  129OSM   H14A13839   3.567   6.662   7.402 -1.3974 -2.0205  2.0168
  129OSM   H14B13840   3.472   6.753   7.292  1.1116 -0.3290  0.2454
  129OSM   H14C13841   3.492   6.584   7.271 -0.5452 -1.1684  0.6497
  129OSM    C1313842   3.392   6.522   7.513  0.0221  0.1729  0.0672
  129OSM   H13A13843   3.476   6.541   7.577 -1.2574 -2.4442  2.8055
  129OSM   H13B13844   3.417   6.437   7.451 -1.5125  0.6785 -1.2977
  129OSM   H13C13845   3.307   6.490   7.573  0.9221 -2.4536  0.0555
  129OSM    C1213846   3.231   6.595   7.342  0.9197  0.0151  0.3599
  129OSM   H12A13847   3.154   6.555   7.406  0.6181  0.8054  0.5041
  129OSM   H12B13848   3.259   6.510   7.282  1.3908 -1.2446  2.2602
  129OSM    C1113849   3.161   6.705   7.258  0.5448 -0.0267  0.4257
  129OSM   H11A13850   3.091   6.655   7.189  1.1375 -0.5825  0.2133
  129OSM   H11B13851   3.238   6.732   7.183 -0.8770  0.8596 -0.7600
  129OSM      P13852   3.114   6.962   7.313  0.0680 -0.0713 -0.2209
  129OSM    O1313853   2.995   7.024   7.378  0.3994 -0.0266 -0.1930
  129OSM    O1413854   3.256   7.007   7.341  0.1373 -0.1539 -0.1173
  129OSM    O1113855   3.100   6.985   7.158  0.5425  0.7128  0.3626
  129OSM    O1213856   3.104   6.804   7.332 -0.1427  0.2531 -0.7577
  129OSM    C1S13857   3.050   7.113   7.115  0.8498 -0.0860  0.1661
  129OSM    H1S13858   3.124   7.192   7.139 -0.7578  1.5940 -0.1561
  129OSM    H1T13859   2.950   7.135   7.158  0.5890 -1.1796  0.1691
  129OSM     NF13860   2.961   7.253   6.940 -0.7390 -0.0848  0.3664
  129OSM    HNF13861   2.862   7.245   6.938 -1.0549  2.0656  2.3899
  129OSM    C2S13862   3.030   7.126   6.960 -0.4042 -0.1172  0.0388
  129OSM    H2S13863   3.136   7.134   6.926  0.1801 -3.9162  0.6116
  129OSM    C3S13864   2.953   7.005   6.905 -0.0533 -0.0388 -0.2097
  129OSM    H3S13865   2.855   6.999   6.957  1.5107 -2.5792  2.7902
  129OSM     O313866   3.001   6.880   6.944 -0.5606  0.5138 -0.2724
  129OSM    HO313867   3.044   6.897   7.027 -1.0251  0.8710 -0.1002
  129OSM    C4S13868   2.945   7.006   6.758  0.6975 -0.2489 -0.2462
  129OSM    H4S13869   3.043   7.000   6.708  0.9968  0.6018  0.2001
  129OSM    C5S13870   2.825   7.015   6.692 -0.1162 -0.5926  0.2644
  129OSM    H5S13871   2.735   7.032   6.752 -0.0499 -1.2621  0.5654
  129OSM    C6S13872   2.819   7.028   6.540  1.6138 -0.1170 -0.3603
  129OSM    H6S13873   2.770   7.124   6.515  0.3328 -1.3761 -3.0675
  129OSM    H6T13874   2.755   6.946   6.503 -0.6749  1.0136  0.9087
  129OSM    C7S13875   2.949   7.022   6.464 -0.2502 -0.9064 -0.1277
  129OSM    H7S13876   3.002   6.931   6.497  0.1026 -0.6649 -0.0170
  129OSM    H7T13877   3.007   7.109   6.503 -1.0879 -1.1828  1.8752
  129OSM    C8S13878   2.939   7.026   6.313 -0.1830 -0.3285  0.0590
  129OSM    H8S13879   3.037   7.048   6.266  0.4122 -1.3740  0.7580
  129OSM    H8T13880   2.857   7.095   6.284  0.4692 -0.3005 -1.8721
  129OSM    C9S13881   2.895   6.896   6.252  0.7849  0.6055  0.1138
  129OSM    H9S13882   2.798   6.866   6.296 -0.2178  2.0076 -1.0291
  129OSM    H9T13883   2.974   6.819   6.266  1.5389  1.4492  0.6766
  129OSM   C10S13884   2.864   6.903   6.098  0.8364  0.1337 -0.0918
  129OSM   H10S13885   2.810   6.992   6.060 -0.3549 -0.7476 -0.5124
  129OSM   H10T13886   2.810   6.813   6.062 -0.1687  1.5972 -2.5052
  129OSM   C11S13887   2.994   6.902   6.020 -0.4764  0.1119 -0.4449
  129OSM   H11S13888   3.052   6.812   6.049 -3.0250 -0.7504  2.6280
  129OSM   H11T13889   3.055   6.992   6.041 -0.6039  1.0969 -3.6860
  129OSM   C12S13890   2.968   6.888   5.870 -0.3506 -0.4435 -0.1607
  129OSM   H12S13891   3.067   6.906   5.823  0.5341 -2.4042  0.8633
  129OSM   H12T13892   2.897   6.971   5.851  0.0992  0.5802  2.2882
  129OSM   C13S13893   2.920   6.748   5.828  0.4029  0.8618 -0.3398
  129OSM   H13S13894   2.819   6.732   5.871  0.4825 -0.0950 -0.4780
  129OSM   H13T13895   2.992   6.678   5.876 -0.2200 -0.1711 -0.8798
  129OSM   C14S13896   2.916   6.726   5.675  0.3009  0.6472 -0.5007
  129OSM   H14S13897   3.023   6.739   5.648  0.9201  1.1444  1.9794
  129OSM   H14T13898   2.844   6.798   5.631 -2.3641 -0.1821  2.1911
  129OSM   C15S13899   2.855   6.587   5.628  0.2595  0.4102 -0.1609
  129OSM   H15S13900   2.774   6.556   5.698  0.8816 -2.4959 -0.6034
  129OSM   H15T13901   2.940   6.516   5.638 -1.5021 -1.8121 -0.1284
  129OSM   C16S13902   2.826   6.586   5.474  0.3719  0.0501 -0.2443
  129OSM   H16S13903   2.735   6.644   5.449 -1.4240 -2.3774  0.3300
  129OSM   H16T13904   2.801   6.480   5.455 -1.9856  0.7428 -1.3789
  129OSM   C17S13905   2.949   6.624   5.391  0.0783  0.1069 -0.0239
  129OSM   H17S13906   3.031   6.569   5.442 -0.8347  0.0227  1.4070
  129OSM   H17T13907   2.966   6.732   5.412 -1.1387 -0.1043  2.3711
  129OSM   C18S13908   2.932   6.596   5.240  0.1129  0.3618  0.4258
  129OSM   H18S13909   2.942   6.486   5.226  5.7951  0.2271  2.6729
  129OSM   H18T13910   3.015   6.656   5.195  1.9705 -0.4019  2.6112
  129OSM   H18U13911   2.839   6.634   5.194  1.1343 -0.2479 -2.3772
  129OSM    C1F13912   3.015   7.374   6.941 -0.6420  0.0674 -0.1885
  129OSM     OF13913   3.133   7.382   6.977  0.3343  0.6754  0.1819
  129OSM    C2F13914   2.921   7.491   6.920  0.2693  0.8035  0.5038
  129OSM    H2F13915   2.991   7.575   6.936 -0.2353  1.3873 -0.2661
  129OSM    H2G13916   2.847   7.483   7.002 -0.1041  0.7599  0.1697
  129OSM    C3F13917   2.862   7.492   6.776  0.1379 -0.4918  0.4169
  129OSM    H3F13918   2.806   7.588   6.775 -0.7748 -0.9463 -3.3005
  129OSM    H3G13919   2.780   7.417   6.775  1.3876 -1.9297  1.2268
  129OSM    C4F13920   2.972   7.481   6.662  0.2979  0.5818 -0.0380
  129OSM    H4F13921   3.026   7.384   6.670  0.0853  0.2637 -1.9110
  129OSM    H4G13922   3.054   7.556   6.661 -0.7957  1.8252 -1.2489
  129OSM    C5F13923   2.912   7.479   6.516  0.1986 -0.0971  0.4207
  129OSM    H5F13924   2.848   7.568   6.503  2.8191  1.6207 -1.8013
  129OSM    H5G13925   2.852   7.386   6.503  1.0950 -0.5782 -0.3963
  129OSM    C6F13926   3.014   7.496   6.402  0.1816  0.0538  0.3165
  129OSM    H6F13927   3.072   7.404   6.379 -1.5320 -0.7041 -1.1914
  129OSM    H6G13928   3.080   7.583   6.422 -1.4369  1.0741  1.3905
  129OSM    C7F13929   2.929   7.525   6.273 -0.0579 -0.1609 -0.6162
  129OSM    H7F13930   2.891   7.626   6.301  0.8583  0.5201 -1.7156
  129OSM    H7G13931   2.853   7.445   6.264  1.3174 -1.9745  2.2205
  129OSM    C8F13932   3.019   7.551   6.146 -0.0115  0.5190 -0.3178
  129OSM    H8F13933   3.101   7.616   6.183 -0.1567  0.1160  0.7607
  129OSM    H8G13934   2.966   7.602   6.063  0.5109 -2.9300 -3.0167
  129OSM    C9F13935   3.086   7.421   6.099  0.5220  0.4244  0.3665
  129OSM    H9F13936   3.156   7.374   6.169 -1.5133 -3.8218 -0.1097
  129OSM   C10F13937   3.065   7.361   5.977 -0.0054 -0.6889  0.1943
  129OSM   H10F13938   3.117   7.267   5.953  3.0013  0.7932  0.5340
  129OSM   C11F13939   2.979   7.411   5.870  0.1666  1.0057  0.0051
  129OSM   H11F13940   2.961   7.520   5.875 -0.3606  0.9705 -0.9563
  129OSM   H11G13941   2.885   7.353   5.872 -0.1603  1.5451  0.6287
  129OSM   C12F13942   3.057   7.387   5.741  0.1095 -0.2942  0.1121
  129OSM   H12F13943   3.107   7.288   5.737 -0.0515 -0.3298 -1.8778
  129OSM   H12G13944   3.140   7.460   5.730 -0.3997  0.7427  2.4540
  129OSM   C13F13945   2.972   7.394   5.620 -0.0326 -0.3849  0.7702
  129OSM   H13F13946   3.036   7.371   5.532 -0.7117  0.9562 -0.1254
  129OSM   H13G13947   2.929   7.495   5.598 -0.2099 -0.5225  0.4776
  129OSM   C14F13948   2.854   7.287   5.623 -0.3502 -0.0082 -0.8832
  129OSM   H14F13949   2.771   7.335   5.679  1.1777  1.3868  0.3253
  129OSM   H14G13950   2.903   7.205   5.679  1.1212  0.5055 -1.3689
  129OSM   C15F13951   2.815   7.237   5.479  0.1655  0.0722 -0.1242
  129OSM   H15F13952   2.896   7.174   5.435 -0.3130 -0.9690  0.4552
  129OSM   H15G13953   2.791   7.319   5.410 -1.9797  0.1034  0.6035
  129OSM   C16F13954   2.694   7.144   5.492  0.6938 -0.0777  0.0351
  129OSM   H16F13955   2.607   7.202   5.528  1.6961  1.4453  0.0887
  129OSM   H16G13956   2.720   7.070   5.571 -0.9815  0.5412  1.2201
  129OSM   C17F13957   2.649   7.075   5.359  0.1892  0.0180  0.1185
  129OSM   H17F13958   2.582   6.989   5.380  1.1629 -1.1491 -1.2917
  129OSM   H17G13959   2.736   7.025   5.310 -1.1350 -1.5308 -0.7285
  129OSM   C18F13960   2.574   7.170   5.259 -0.0164  0.1314 -0.3377
  129OSM   H18F13961   2.562   7.121   5.161 -1.5947 -0.7985  0.2848
  129OSM   H18G13962   2.637   7.259   5.238 -0.0773  0.6610  1.5584
  129OSM   H18H13963   2.474   7.195   5.301 -0.3070 -1.5076  0.0221
  130OSM      N13964   4.750   3.470   8.186 -0.2225 -0.6097  0.3961
  130OSM    C1513965   4.619   3.541   8.226  0.3283 -0.1696 -0.3553
  130OSM   H15A13966   4.580   3.599   8.144  0.6209  0.6305  0.0681
  130OSM   H15B13967   4.634   3.610   8.307 -2.3040 -1.2161  1.1604
  130OSM   H15C13968   4.538   3.469   8.235 -1.6578  1.8291 -1.3102
  130OSM    C1413969   4.827   3.563   8.099  0.1867 -0.2721  0.2005
  130OSM   H14A13970   4.927   3.526   8.090  0.1762  0.1196 -2.2153
  130OSM   H14B13971   4.815   3.666   8.128 -1.3591  0.3021 -2.1592
  130OSM   H14C13972   4.783   3.553   8.000 -0.8271  0.3723  0.5701
  130OSM    C1313973   4.834   3.436   8.298  0.5798  0.2819  0.7353
  130OSM   H13A13974   4.795   3.356   8.360  2.5829 -0.5410  1.0165
  130OSM   H13B13975   4.850   3.519   8.365  0.6251 -0.9334  2.3073
  130OSM   H13C13976   4.928   3.389   8.274 -0.5898 -3.0378  2.0003
  130OSM    C1213977   4.699   3.356   8.096  0.2037  0.8334  0.7256
  130OSM   H12A13978   4.676   3.385   7.995  1.8030 -1.3415 -0.3358
  130OSM   H12B13979   4.602   3.326   8.132 -0.3546  2.0071  0.2702
  130OSM    C1113980   4.787   3.229   8.086 -0.4294 -0.5191  0.4110
  130OSM   H11A13981   4.727   3.175   8.010  0.0509  1.7327 -1.7025
  130OSM   H11B13982   4.794   3.180   8.185  1.0895 -1.2502 -0.0328
  130OSM      P13983   4.984   3.209   7.912  0.2935 -0.1996  0.2053
  130OSM    O1313984   5.121   3.180   7.955 -0.3099  0.0782  0.0945
  130OSM    O1413985   4.905   3.092   7.861  0.2962 -0.4687 -0.6699
  130OSM    O1113986   4.970   3.329   7.812 -0.3805 -0.3727 -0.5304
  130OSM    O1213987   4.922   3.266   8.040  0.2393  0.4529 -0.1270
  130OSM    C1S13988   5.047   3.329   7.689  0.1583 -0.1407  0.3092
  130OSM    H1S13989   5.001   3.253   7.622 -1.6728  0.1984  1.1311
  130OSM    H1T13990   5.154   3.299   7.696  0.7943  1.6208 -1.2168
  130OSM     NF13991   5.098   3.470   7.493  0.5171 -0.2811  0.0088
  130OSM    HNF13992   5.184   3.519   7.482  0.9459 -0.6635  1.4927
  130OSM    C2S13993   5.038   3.471   7.630 -0.3582 -0.3579  0.1576
  130OSM    H2S13994   4.940   3.519   7.613  0.3744  0.7802 -1.1090
  130OSM    C3S13995   5.100   3.567   7.728  0.3080  0.2920 -0.4088
  130OSM    H3S13996   5.206   3.539   7.742  0.6327  0.4528 -2.3375
  130OSM     O313997   5.039   3.572   7.861  0.0870 -0.2864 -0.4973
  130OSM    HO313998   4.986   3.492   7.867  1.2610 -1.0604  0.1637
  130OSM    C4S13999   5.084   3.713   7.672 -0.2500  0.9603 -0.5046
  130OSM    H4S14000   4.978   3.741   7.665 -0.5867  0.3532  1.5427
  130OSM    C5S14001   5.184   3.801   7.637 -0.1195  0.3838 -0.4587
  130OSM    H5S14002   5.291   3.779   7.644 -0.0370  0.1020 -2.2076
  130OSM    C6S14003   5.156   3.936   7.577 -0.5200  0.5407  0.8052
  130OSM    H6S14004   5.248   3.991   7.549  0.3109 -0.6385  1.1286
  130OSM    H6T14005   5.100   3.998   7.651 -2.2367 -0.7653  0.6776
  130OSM    C7S14006   5.057   3.930   7.458 -1.1489 -0.2988  0.3133
  130OSM    H7S14007   5.056   4.017   7.389  0.9964 -1.7616 -1.7489
  130OSM    H7T14008   4.954   3.922   7.500 -1.4282 -1.6469 -0.5784
  130OSM    C8S14009   5.080   3.806   7.366  0.3405 -0.1331  0.7610
  130OSM    H8S14010   5.034   3.712   7.405 -1.3651  1.3042  2.3657
  130OSM    H8T14011   5.189   3.796   7.349  0.8421  1.8980  2.4125
  130OSM    C9S14012   5.012   3.817   7.231 -0.3565 -0.6586 -0.4531
  130OSM    H9S14013   5.041   3.916   7.189 -3.4828 -0.1554 -1.7201
  130OSM    H9T14014   4.904   3.841   7.238  0.2596  2.4831  0.2032
  130OSM   C10S14015   5.040   3.689   7.149 -0.5356 -0.5731 -0.3234
  130OSM   H10S14016   4.971   3.615   7.195  0.4969 -0.5237  1.3659
  130OSM   H10T14017   5.146   3.657   7.157  0.2170  1.2109 -2.2842
  130OSM   C11S14018   4.996   3.727   7.009 -0.7471  0.2391  0.1785
  130OSM   H11S14019   5.064   3.802   6.962 -1.1843  1.1485  0.9720
  130OSM   H11T14020   4.896   3.774   7.007  0.4610  3.0508 -1.5712
  130OSM   C12S14021   5.002   3.607   6.911  0.5432 -0.6849 -0.9988
  130OSM   H12S14022   4.953   3.519   6.959 -2.6085  1.1740 -0.5843
  130OSM   H12T14023   5.109   3.584   6.889  1.6095  2.8255 -0.0592
  130OSM   C13S14024   4.946   3.644   6.769 -0.4139  0.3170  0.5233
  130OSM   H13S14025   5.004   3.728   6.725 -0.3705  0.9817  1.8014
  130OSM   H13T14026   4.839   3.670   6.783 -0.3119  1.3408 -0.3708
  130OSM   C14S14027   4.965   3.528   6.672 -1.0195 -0.2170  0.6223
  130OSM   H14S14028   4.916   3.435   6.706  1.2398 -2.1856 -1.1860
  130OSM   H14T14029   5.072   3.502   6.661 -1.3558 -2.0293  1.4090
  130OSM   C15S14030   4.917   3.583   6.533  0.4659  0.6442 -0.0031
  130OSM   H15S14031   4.876   3.683   6.558 -0.3187 -0.0369  1.5943
  130OSM   H15T14032   4.834   3.513   6.508 -0.7803  1.8960  0.5132
  130OSM   C16S14033   5.029   3.588   6.430  0.4194 -0.1899 -0.5541
  130OSM   H16S14034   5.081   3.491   6.415 -1.2715 -1.4963  1.5452
  130OSM   H16T14035   5.111   3.646   6.476  0.2689  0.9894 -1.7134
  130OSM   C17S14036   4.982   3.654   6.302 -0.3918 -0.0352 -0.1287
  130OSM   H17S14037   5.066   3.657   6.229  1.3775 -4.3048  1.4021
  130OSM   H17T14038   4.935   3.754   6.314 -0.2482  0.1862 -1.3116
  130OSM   C18S14039   4.879   3.569   6.220  0.0588 -0.3201 -0.7840
  130OSM   H18S14040   4.780   3.574   6.271  0.6670 -0.8039  0.4930
  130OSM   H18T14041   4.908   3.464   6.197 -2.3448 -1.0496 -0.8056
  130OSM   H18U14042   4.869   3.620   6.122 -0.6854  0.9903 -0.0532
  130OSM    C1F14043   5.045   3.400   7.388  0.2000 -0.2288 -0.6199
  130OSM     OF14044   4.934   3.346   7.393  0.2073  0.2539 -0.6006
  130OSM    C2F14045   5.125   3.385   7.269  0.5878  0.9301 -0.5692
  130OSM    H2F14046   5.225   3.430   7.289  1.3733 -1.3150  0.9345
  130OSM    H2G14047   5.067   3.437   7.189 -1.2119 -0.6736 -0.3720
  130OSM    C3F14048   5.126   3.233   7.233 -0.3424 -0.4018 -0.6377
  130OSM    H3F14049   5.020   3.199   7.229 -0.9462  1.3841 -1.2370
  130OSM    H3G14050   5.172   3.161   7.303  1.4599  3.3818  2.4245
  130OSM    C4F14051   5.189   3.226   7.095 -0.4500 -0.1165  0.4324
  130OSM    H4F14052   5.268   3.148   7.103 -2.0038 -1.8023  0.1222
  130OSM    H4G14053   5.223   3.327   7.067 -1.7925  0.1426 -0.3266
  130OSM    C5F14054   5.093   3.165   6.999 -0.6402  0.6271  0.4224
  130OSM    H5F14055   5.008   3.232   6.974 -1.5804 -1.3078 -1.9438
  130OSM    H5G14056   5.051   3.067   7.028  0.3586 -0.5676 -1.8690
  130OSM    C6F14057   5.165   3.147   6.861 -0.8693  0.5778  0.1580
  130OSM    H6F14058   5.208   3.243   6.825 -0.3522 -0.7605 -3.1346
  130OSM    H6G14059   5.081   3.114   6.796  0.8867 -1.0962 -1.3904
  130OSM    C7F14060   5.273   3.044   6.861 -0.4500 -0.0938  0.3049
  130OSM    H7F14061   5.361   3.077   6.920 -0.5499 -0.2682  0.5568
  130OSM    H7G14062   5.317   3.025   6.761 -1.5039  0.9340 -0.3766
  130OSM    C8F14063   5.228   2.904   6.913  0.6897  0.2019  0.1011
  130OSM    H8F14064   5.139   2.892   6.848  0.8625 -1.4655  0.1249
  130OSM    H8G14065   5.195   2.924   7.017 -3.2242 -0.6729 -0.8279
  130OSM    C9F14066   5.305   2.779   6.915 -0.3915 -0.5055  0.2728
  130OSM    H9F14067   5.341   2.755   7.016 -1.5440 -1.1618  0.5515
  130OSM   C10F14068   5.328   2.693   6.810 -0.1744  0.2706  0.2202
  130OSM   H10F14069   5.390   2.603   6.826 -0.7967  0.0840  1.8274
  130OSM   C11F14070   5.272   2.697   6.673  0.1313 -0.0715 -0.8390
  130OSM   H11F14071   5.192   2.773   6.660 -1.0501 -1.1563 -0.1730
  130OSM   H11G14072   5.242   2.595   6.642 -1.5172 -0.6197  2.1456
  130OSM   C12F14073   5.397   2.727   6.589  0.4070 -0.4588 -0.2898
  130OSM   H12F14074   5.472   2.644   6.591 -0.6875 -1.4825  1.7495
  130OSM   H12G14075   5.447   2.818   6.628  0.7442 -1.3824  1.5417
  130OSM   C13F14076   5.360   2.759   6.445 -0.4792 -0.6864  0.8129
  130OSM   H13F14077   5.286   2.841   6.431  1.3381  0.6331 -1.9442
  130OSM   H13G14078   5.308   2.671   6.401 -1.8876  1.6159 -2.5684
  130OSM   C14F14079   5.489   2.796   6.369  0.1192 -0.2897  0.7073
  130OSM   H14F14080   5.558   2.709   6.368 -1.2392 -1.4127  0.3978
  130OSM   H14G14081   5.533   2.880   6.427 -0.8968  0.2350  0.7443
  130OSM   C15F14082   5.460   2.832   6.217 -0.4021 -0.2334 -0.0204
  130OSM   H15F14083   5.550   2.880   6.173 -0.6260 -1.8134 -2.3506
  130OSM   H15G14084   5.385   2.914   6.218 -1.9208 -1.5438  1.6680
  130OSM   C16F14085   5.426   2.722   6.124 -0.1465  0.5850  0.3623
  130OSM   H16F14086   5.339   2.659   6.154  0.9422 -0.3668  1.6439
  130OSM   H16G14087   5.507   2.647   6.133  0.6560  1.2892 -0.7985
  130OSM   C17F14088   5.420   2.765   5.978 -0.4067  0.2056  0.7278
  130OSM   H17F14089   5.421   2.676   5.912 -2.2532 -0.5553  1.6597
  130OSM   H17G14090   5.519   2.816   5.965  0.4253 -1.5373 -0.0911
  130OSM   C18F14091   5.310   2.864   5.924 -0.6186  0.3451 -0.2387
  130OSM   H18F14092   5.329   2.903   5.822 -1.6150 -1.5264 -1.2078
  130OSM   H18G14093   5.292   2.941   6.002  0.1418  0.7287 -0.4393
  130OSM   H18H14094   5.221   2.798   5.930  0.1852 -0.7351  0.0832
  131OSM      N14095   2.756   6.611   7.273  0.0720  0.0959  0.3417
  131OSM    C1514096   2.617   6.617   7.318  0.6609  0.7109  0.7281
  131OSM   H15A14097   2.579   6.717   7.305 -0.4502  0.2083 -0.0105
  131OSM   H15B14098   2.608   6.582   7.420 -0.0926  0.6442  0.6474
  131OSM   H15C14099   2.553   6.551   7.262  2.0728  0.1538 -0.2733
  131OSM    C1414100   2.788   6.697   7.152 -0.2141 -0.8062 -0.0475
  131OSM   H14A14101   2.889   6.682   7.115  0.7609  2.0771  1.1251
  131OSM   H14B14102   2.771   6.803   7.166 -1.6946 -1.0732  0.3404
  131OSM   H14C14103   2.715   6.691   7.073  1.3656  2.6223 -2.0072
  131OSM    C1314104   2.841   6.671   7.387  0.4501  0.6487 -0.1648
  131OSM   H13A14105   2.846   6.618   7.480  2.4783 -0.2452 -0.7314
  131OSM   H13B14106   2.800   6.767   7.415  1.0204  0.7677  0.2723
  131OSM   H13C14107   2.940   6.691   7.348  0.0630  0.8477 -1.0949
  131OSM    C1214108   2.803   6.464   7.266 -0.1447 -0.2125  0.7428
  131OSM   H12A14109   2.787   6.414   7.361 -0.2887  0.6168  1.1645
  131OSM   H12B14110   2.911   6.467   7.266 -0.1575  0.3047  1.0892
  131OSM    C1114111   2.744   6.369   7.159 -0.6141 -0.2787 -0.0645
  131OSM   H11A14112   2.820   6.289   7.170 -1.0006 -0.6247  0.0993
  131OSM   H11B14113   2.756   6.409   7.056  3.0358  0.5138  0.5355
  131OSM      P14114   2.589   6.202   7.268 -0.3028  0.0499 -0.0042
  131OSM    O1314115   2.699   6.177   7.361 -0.1485  0.3424 -0.0185
  131OSM    O1414116   2.450   6.196   7.315  0.2279 -0.2130  0.5590
  131OSM    O1114117   2.607   6.108   7.151  0.5108 -0.0823 -0.3571
  131OSM    O1214118   2.612   6.337   7.187 -0.1472  0.0373  0.4662
  131OSM    C1S14119   2.545   6.119   7.025 -0.5172  0.1500 -0.4940
  131OSM    H1S14120   2.485   6.212   7.014 -0.6935 -0.1370 -2.1939
  131OSM    H1T14121   2.471   6.039   7.008  0.3821 -0.6098 -0.9403
  131OSM     NF14122   2.589   6.115   6.784 -0.0296  0.4335 -0.0893
  131OSM    HNF14123   2.578   6.025   6.743  0.2640  1.6265 -2.9853
  131OSM    C2S14124   2.654   6.108   6.916  0.5196 -0.5896 -0.0486
  131OSM    H2S14125   2.719   6.198   6.916  0.8062 -0.7807 -1.3231
  131OSM    C3S14126   2.756   5.988   6.929  0.1946 -0.4062  0.5306
  131OSM    H3S14127   2.694   5.899   6.907 -0.3925  0.1975 -0.3094
  131OSM     O314128   2.809   5.972   7.059  0.2529 -0.3585 -0.2113
  131OSM    HO314129   2.750   6.016   7.121  0.9911 -3.1194  2.7516
  131OSM    C4S14130   2.871   5.994   6.832 -0.9519 -0.2389  0.2516
  131OSM    H4S14131   2.909   6.094   6.806 -2.2760 -0.0327 -1.0783
  131OSM    C5S14132   2.892   5.906   6.738  0.4994 -0.5823 -0.2973
  131OSM    H5S14133   2.816   5.827   6.737 -1.3680  0.9828  2.5715
  131OSM    C6S14134   2.984   5.917   6.625 -0.0252  0.0554  0.6779
  131OSM    H6S14135   3.075   5.856   6.643 -0.9386 -1.8370 -0.7733
  131OSM    H6T14136   3.018   6.021   6.603  2.0370 -0.3260  1.8283
  131OSM    C7S14137   2.910   5.864   6.498  0.0237 -0.5240  0.3056
  131OSM    H7S14138   2.892   5.754   6.503 -1.1755 -0.3788 -0.4764
  131OSM    H7T14139   2.983   5.879   6.416 -1.4012  1.6002 -0.6413
  131OSM    C8S14140   2.782   5.943   6.459  0.4841  0.4504 -0.3490
  131OSM    H8S14141   2.818   6.047   6.452 -0.6908  0.7831 -1.7973
  131OSM    H8T14142   2.714   5.923   6.545 -0.3918  0.5248 -1.0148
  131OSM    C9S14143   2.705   5.903   6.333 -0.5066  0.3073  0.4157
  131OSM    H9S14144   2.629   5.982   6.313  0.3051  1.7901  2.7468
  131OSM    H9T14145   2.656   5.805   6.347  1.7336 -0.9707 -0.2213
  131OSM   C10S14146   2.797   5.888   6.208 -0.4698 -0.3996 -0.3238
  131OSM   H10S14147   2.864   5.803   6.233 -0.3619 -1.4860 -3.7655
  131OSM   H10T14148   2.858   5.980   6.195 -0.3525 -0.5532 -0.9004
  131OSM   C11S14149   2.729   5.855   6.075 -0.1726  0.1137 -0.4968
  131OSM   H11S14150   2.667   5.938   6.033 -0.6617 -0.7439 -1.5354
  131OSM   H11T14151   2.669   5.765   6.101  3.3514 -1.7115  2.0351
  131OSM   C12S14152   2.832   5.815   5.971 -0.4248 -0.1223  0.6260
  131OSM   H12S14153   2.885   5.728   6.015  1.7366  1.6950  1.8034
  131OSM   H12T14154   2.908   5.896   5.964 -1.7282  1.0668 -0.7260
  131OSM   C13S14155   2.761   5.774   5.835  0.1615 -0.4302 -0.0456
  131OSM   H13S14156   2.704   5.863   5.800 -0.1694 -0.8197 -0.5271
  131OSM   H13T14157   2.680   5.702   5.857  1.4963 -1.3574  2.0690
  131OSM   C14S14158   2.851   5.722   5.725 -0.3388  0.2091  0.2837
  131OSM   H14S14159   2.878   5.616   5.745 -0.7660 -0.0320 -0.3479
  131OSM   H14T14160   2.945   5.779   5.713  0.4432 -1.1184 -0.0870
  131OSM   C15S14161   2.785   5.732   5.586  0.6505 -0.0483  0.2374
  131OSM   H15S14162   2.750   5.837   5.584 -0.3776 -0.3855 -0.4795
  131OSM   H15T14163   2.702   5.659   5.577  1.2306 -0.6772 -0.1334
  131OSM   C16S14164   2.881   5.712   5.464  0.0779  0.1926 -0.0960
  131OSM   H16S14165   2.942   5.619   5.476  1.6545  1.2656  0.5854
  131OSM   H16T14166   2.953   5.796   5.466  1.3912 -0.8414 -1.4629
  131OSM   C17S14167   2.813   5.717   5.324  0.2033 -0.0758  0.8188
  131OSM   H17S14168   2.773   5.820   5.314  2.4086  0.7058 -0.6407
  131OSM   H17T14169   2.735   5.640   5.301  2.5670 -2.5482  0.5060
  131OSM   C18S14170   2.918   5.705   5.204  0.1816  0.1622 -1.2587
  131OSM   H18S14171   3.001   5.779   5.211 -0.4024  1.1190 -3.5604
  131OSM   H18T14172   2.872   5.718   5.104 -1.2048  1.6386 -0.4653
  131OSM   H18U14173   2.955   5.600   5.204 -2.3701 -0.7872 -0.7430
  131OSM    C1F14174   2.524   6.220   6.733  0.9830 -0.2019 -0.5842
  131OSM     OF14175   2.513   6.329   6.799 -0.3431  0.0848  0.0170
  131OSM    C2F14176   2.456   6.196   6.594 -0.3524  0.3685 -0.3641
  131OSM    H2F14177   2.360   6.142   6.611 -0.3694  0.8747  1.4456
  131OSM    H2G14178   2.533   6.134   6.545  0.2380 -0.4883  1.5483
  131OSM    C3F14179   2.410   6.320   6.519 -0.4540  0.7324  0.2183
  131OSM    H3F14180   2.504   6.378   6.509  1.0834 -1.3674  1.4579
  131OSM    H3G14181   2.339   6.378   6.582 -0.1077  0.9629  0.3991
  131OSM    C4F14182   2.349   6.285   6.385 -0.0729  0.1121  0.0524
  131OSM    H4F14183   2.256   6.235   6.417 -0.6121  1.1744  0.1893
  131OSM    H4G14184   2.415   6.211   6.335 -1.8098 -1.1099 -0.5454
  131OSM    C5F14185   2.316   6.402   6.299 -0.1660 -0.4310 -0.4110
  131OSM    H5F14186   2.412   6.452   6.275 -0.1991 -0.8942 -1.5562
  131OSM    H5G14187   2.251   6.467   6.362  0.2674 -1.2560  0.9357
  131OSM    C6F14188   2.255   6.368   6.165  0.6948 -1.0231  0.3875
  131OSM    H6F14189   2.174   6.296   6.189  0.1636  0.2186  2.4959
  131OSM    H6G14190   2.333   6.315   6.105  1.0755 -1.3605  1.1675
  131OSM    C7F14191   2.204   6.483   6.087 -0.5072  0.3448  0.0761
  131OSM    H7F14192   2.286   6.552   6.061 -1.7880  2.7872  2.0486
  131OSM    H7G14193   2.135   6.541   6.152 -3.6378 -2.0452 -0.8605
  131OSM    C8F14194   2.131   6.448   5.949 -0.6680 -0.2940  0.4631
  131OSM    H8F14195   2.081   6.542   5.918 -0.4215 -0.7837 -1.5655
  131OSM    H8G14196   2.046   6.379   5.966 -1.0788 -0.1697 -0.9903
  131OSM    C9F14197   2.219   6.382   5.845 -0.0532 -0.9497  0.8749
  131OSM    H9F14198   2.306   6.326   5.882  0.1901  0.7770  3.1680
  131OSM   C10F14199   2.205   6.396   5.711  0.1817 -0.5098 -0.0649
  131OSM   H10F14200   2.277   6.348   5.642 -0.1158  0.2506 -0.9343
  131OSM   C11F14201   2.100   6.481   5.642 -0.1468  0.6371 -0.5348
  131OSM   H11F14202   2.149   6.559   5.580 -0.0352  0.2349 -0.9538
  131OSM   H11G14203   2.026   6.530   5.708 -3.0674 -1.1414 -2.2872
  131OSM   C12F14204   2.039   6.383   5.537 -0.0946  0.6435  0.0642
  131OSM   H12F14205   1.989   6.299   5.590 -0.1320  1.6676  1.7129
  131OSM   H12G14206   2.114   6.342   5.466  0.2025 -1.8090  1.6871
  131OSM   C13F14207   1.929   6.454   5.451 -0.2221 -0.2564 -1.2307
  131OSM   H13F14208   1.982   6.544   5.412  3.0761 -3.0140 -3.7108
  131OSM   H13G14209   1.845   6.484   5.518  0.7000  4.0288 -1.7009
  131OSM   C14F14210   1.873   6.374   5.339 -0.0229  0.4881  0.1192
  131OSM   H14F14211   1.829   6.280   5.377  2.7587 -0.1831  1.9299
  131OSM   H14G14212   1.938   6.334   5.259  0.9578  0.2862  0.9967
  131OSM   C15F14213   1.778   6.464   5.260 -0.5223  0.2672  0.2223
  131OSM   H15F14214   1.700   6.507   5.327 -0.7691 -0.0875  0.1679
  131OSM   H15G14215   1.724   6.414   5.177 -0.9029  4.1589 -2.1322
  131OSM   C16F14216   1.848   6.589   5.199  0.4633  0.7251 -0.5433
  131OSM   H16F14217   1.951   6.563   5.166  1.2515  2.6525  0.2354
  131OSM   H16G14218   1.857   6.672   5.272 -0.2495  0.4824 -0.1725
  131OSM   C17F14219   1.785   6.629   5.061 -0.0101  0.4743 -0.2211
  131OSM   H17F14220   1.774   6.538   4.996 -0.8975 -0.3907  1.0837
  131OSM   H17G14221   1.860   6.693   5.011  0.8548  1.5446  2.3140
  131OSM   C18F14222   1.659   6.704   5.072  0.3774 -0.6353 -0.4639
  131OSM   H18F14223   1.611   6.724   4.973  0.7021 -0.1956 -0.5364
  131OSM   H18G14224   1.677   6.799   5.127  0.1465 -0.8896  0.0498
  131OSM   H18H14225   1.590   6.650   5.139 -0.5159 -1.2427 -1.8179
  132OSM      N14226   3.581   1.480   7.805  0.2379  0.1042 -0.6633
  132OSM    C1514227   3.491   1.592   7.772  0.6548  0.1895 -0.3085
  132OSM   H15A14228   3.532   1.668   7.706 -0.0135 -0.6430 -1.7242
  132OSM   H15B14229   3.459   1.637   7.865  1.6814  0.5689 -0.1215
  132OSM   H15C14230   3.403   1.562   7.718 -0.6047  1.9628  0.6353
  132OSM    C1414231   3.694   1.533   7.895 -0.4723  0.2588  0.1740
  132OSM   H14A14232   3.747   1.446   7.930  2.1099  1.6810  0.0207
  132OSM   H14B14233   3.658   1.590   7.979 -1.5901  1.3225 -0.9792
  132OSM   H14C14234   3.771   1.590   7.845 -1.9870  2.6347  0.3684
  132OSM    C1314235   3.516   1.372   7.878 -0.1623  0.2994  0.3371
  132OSM   H13A14236   3.582   1.287   7.880  1.0358  1.2157  2.0286
  132OSM   H13B14237   3.420   1.351   7.831 -0.4277  1.0651  0.5192
  132OSM   H13C14238   3.497   1.415   7.975  0.7809  4.4819 -1.0869
  132OSM    C1214239   3.646   1.431   7.674 -0.8268  0.7834  0.5617
  132OSM   H12A14240   3.701   1.511   7.626 -0.0849  0.7024  1.2601
  132OSM   H12B14241   3.566   1.411   7.604 -0.9389 -0.9745  1.1559
  132OSM    C1114242   3.733   1.305   7.670  0.7353  0.9772  0.3870
  132OSM   H11A14243   3.815   1.306   7.745  0.7148  0.7755  0.4111
  132OSM   H11B14244   3.782   1.305   7.570  0.3236  0.7051  0.1808
  132OSM      P14245   3.727   1.047   7.668 -0.2332 -0.2775  0.4725
  132OSM    O1314246   3.838   1.041   7.758  0.4683  0.2161 -0.5573
  132OSM    O1414247   3.633   0.936   7.674 -0.4500  0.0860  0.2064
  132OSM    O1114248   3.784   1.071   7.518  0.2147  1.0005 -0.1016
  132OSM    O1214249   3.655   1.183   7.684 -0.0852  0.1293 -0.0083
  132OSM    C1S14250   3.746   0.997   7.402  0.5440  0.0071 -0.1012
  132OSM    H1S14251   3.647   0.949   7.410  0.4912  0.0478 -0.5145
  132OSM    H1T14252   3.818   0.914   7.388  0.7985  0.1143  0.5196
  132OSM     NF14253   3.690   0.991   7.149  0.5452  0.8198  0.2683
  132OSM    HNF14254   3.758   0.974   7.078  0.8591  1.2696  0.4536
  132OSM    C2S14255   3.727   1.078   7.270 -0.0035 -0.0366  0.4914
  132OSM    H2S14256   3.641   1.143   7.297  0.8999  0.7833  1.5184
  132OSM    C3S14257   3.859   1.159   7.248  0.1618 -0.5369  0.4936
  132OSM    H3S14258   3.945   1.095   7.219  1.6346  1.5135  0.1179
  132OSM     O314259   3.916   1.237   7.356  0.0982  0.3500 -0.2952
  132OSM    HO314260   3.853   1.211   7.424 -2.3106  0.1710 -2.4572
  132OSM    C4S14261   3.832   1.254   7.131 -0.8653 -0.4870 -0.1126
  132OSM    H4S14262   3.852   1.201   7.036  0.0849  0.6201 -0.5473
  132OSM    C5S14263   3.787   1.385   7.123 -0.2042 -0.2645  0.0783
  132OSM    H5S14264   3.765   1.454   7.206 -0.0794  3.7586 -2.9476
  132OSM    C6S14265   3.762   1.449   6.991  0.3290 -0.3311 -0.1826
  132OSM    H6S14266   3.843   1.439   6.916  1.1937 -0.0952  0.6911
  132OSM    H6T14267   3.757   1.559   7.001  1.2053 -0.2905 -0.0617
  132OSM    C7S14268   3.628   1.400   6.933 -0.4644 -0.1958  0.1572
  132OSM    H7S14269   3.542   1.450   6.982  1.5023  0.6760  2.9528
  132OSM    H7T14270   3.620   1.292   6.956 -1.3523 -0.2680 -0.4440
  132OSM    C8S14271   3.616   1.432   6.784 -0.9004 -0.0196 -0.3891
  132OSM    H8S14272   3.642   1.538   6.764 -0.2816  0.1804  1.3253
  132OSM    H8T14273   3.508   1.415   6.765 -1.4303  2.5846 -0.0276
  132OSM    C9S14274   3.695   1.343   6.690 -0.7973  0.3764 -0.4667
  132OSM    H9S14275   3.696   1.240   6.731 -0.6318  0.3631 -0.5038
  132OSM    H9T14276   3.797   1.381   6.714 -1.2941  1.7081 -0.3552
  132OSM   C10S14277   3.649   1.354   6.545 -0.2152  0.3150  0.7072
  132OSM   H10S14278   3.637   1.459   6.511 -2.0187 -0.4079 -1.0878
  132OSM   H10T14279   3.548   1.308   6.538  0.6705 -1.4414 -1.6498
  132OSM   C11S14280   3.749   1.283   6.450  0.3035  0.3343 -0.7620
  132OSM   H11S14281   3.745   1.176   6.479 -1.7484  0.6899  0.4839
  132OSM   H11T14282   3.851   1.326   6.460  0.2385  0.1718  0.7921
  132OSM   C12S14283   3.707   1.305   6.299  0.4078 -0.2170 -0.4229
  132OSM   H12S14284   3.707   1.415   6.284  2.1056 -0.1346  0.0783
  132OSM   H12T14285   3.604   1.267   6.281  0.7522 -1.1070 -0.6108
  132OSM   C13S14286   3.807   1.240   6.197  0.3757  0.3181 -0.5058
  132OSM   H13S14287   3.821   1.131   6.214  1.4678  0.5904  0.5388
  132OSM   H13T14288   3.904   1.292   6.215  1.0943 -0.1042 -2.8908
  132OSM   C14S14289   3.778   1.269   6.038  0.1824  0.1541 -0.5842
  132OSM   H14S14290   3.781   1.379   6.020 -2.2796  0.3881  0.1596
  132OSM   H14T14291   3.681   1.220   6.020  0.4535 -0.8111  0.4599
  132OSM   C15S14292   3.874   1.200   5.936 -0.3227  0.6014 -0.1731
  132OSM   H15S14293   3.858   1.093   5.960 -1.7144  1.2311  2.0962
  132OSM   H15T14294   3.980   1.220   5.961  0.0602 -2.9433  1.6558
  132OSM   C16S14295   3.853   1.243   5.787 -0.3956  0.6761 -0.0390
  132OSM   H16S14296   3.746   1.235   5.757  0.4589 -2.2778 -2.7048
  132OSM   H16T14297   3.899   1.162   5.728  1.3650  1.3933  0.3031
  132OSM   C17S14298   3.934   1.365   5.742 -0.0278 -0.6257 -0.0758
  132OSM   H17S14299   4.044   1.350   5.756  0.6333  2.5130 -1.2177
  132OSM   H17T14300   3.894   1.434   5.819 -1.8412 -1.8560  0.1412
  132OSM   C18S14301   3.890   1.415   5.606  0.0821  0.0507 -0.1476
  132OSM   H18S14302   3.923   1.520   5.586 -2.1512  1.3742  2.4345
  132OSM   H18T14303   3.784   1.395   5.581 -0.0504  0.6818 -0.1076
  132OSM   H18U14304   3.941   1.362   5.523 -1.2617  0.2084 -1.1055
  132OSM    C1F14305   3.561   0.951   7.143 -0.1422 -0.7744 -0.2224
  132OSM     OF14306   3.476   0.984   7.229 -0.7598 -0.2001  0.2695
  132OSM    C2F14307   3.517   0.861   7.033 -0.4949 -0.0682 -0.0677
  132OSM    H2F14308   3.456   0.780   7.080 -0.5123  0.8456  1.5244
  132OSM    H2G14309   3.605   0.806   6.993  0.5398  0.1644  1.7765
  132OSM    C3F14310   3.450   0.930   6.918  0.4582  0.6281  0.3333
  132OSM    H3F14311   3.528   1.002   6.886 -0.8416  2.2855  0.7637
  132OSM    H3G14312   3.362   0.994   6.942 -0.8511 -0.4057 -1.4614
  132OSM    C4F14313   3.422   0.832   6.804 -0.3187  0.3564 -0.1377
  132OSM    H4F14314   3.333   0.770   6.825  0.9573 -1.0217  1.4563
  132OSM    H4G14315   3.511   0.766   6.797 -1.0441 -0.4651 -3.9324
  132OSM    C5F14316   3.396   0.909   6.674  0.6172 -0.0349  0.9568
  132OSM    H5F14317   3.486   0.972   6.655  0.9386 -1.3442 -2.4483
  132OSM    H5G14318   3.305   0.970   6.694  0.8950  0.7670 -0.1571
  132OSM    C6F14319   3.394   0.825   6.547 -0.0154  0.7276  0.1367
  132OSM    H6F14320   3.325   0.745   6.582  1.6453 -1.4789 -1.3198
  132OSM    H6G14321   3.488   0.772   6.521  0.1008  1.2749 -0.5894
  132OSM    C7F14322   3.340   0.889   6.421  0.1700  0.8534 -0.1327
  132OSM    H7F14323   3.255   0.958   6.440 -2.8535 -1.9170 -2.4307
  132OSM    H7G14324   3.308   0.825   6.336  3.4765  0.7168 -1.4275
  132OSM    C8F14325   3.459   0.966   6.362 -0.5612 -0.1568  0.2325
  132OSM    H8F14326   3.547   0.900   6.350  0.7181  1.3957  0.6546
  132OSM    H8G14327   3.493   1.043   6.434  1.0438 -0.9662  0.3832
  132OSM    C9F14328   3.426   1.034   6.234 -0.2864 -0.3039 -0.1118
  132OSM    H9F14329   3.403   1.140   6.249 -1.1094 -0.6005  0.8081
  132OSM   C10F14330   3.435   0.989   6.109 -0.5347 -0.3249  0.1191
  132OSM   H10F14331   3.409   1.045   6.019 -0.3462 -2.5099 -1.3807
  132OSM   C11F14332   3.464   0.848   6.076 -0.0979 -0.3099  1.3036
  132OSM   H11F14333   3.386   0.808   6.008  1.0484  0.3623 -0.4958
  132OSM   H11G14334   3.456   0.790   6.170 -1.1684 -1.0699  0.7581
  132OSM   C12F14335   3.606   0.813   6.018  0.1998  0.5573 -0.3223
  132OSM   H12F14336   3.616   0.705   5.997  1.2479  0.7379 -0.7685
  132OSM   H12G14337   3.675   0.834   6.103  0.9135 -0.6515 -0.5874
  132OSM   C13F14338   3.643   0.907   5.907  0.5722  0.4231 -0.3285
  132OSM   H13F14339   3.754   0.895   5.903  0.9705  1.8645  2.9543
  132OSM   H13G14340   3.620   1.013   5.926 -0.2243  0.2437 -0.2614
  132OSM   C14F14341   3.593   0.846   5.778  0.3625  0.5204  0.2454
  132OSM   H14F14342   3.483   0.860   5.790  0.7746  3.4582  1.6794
  132OSM   H14G14343   3.618   0.738   5.784 -0.4139  0.4196  2.9997
  132OSM   C15F14344   3.649   0.915   5.651 -0.2843 -0.4265 -0.0112
  132OSM   H15F14345   3.758   0.933   5.648 -0.3558  0.0735  0.3190
  132OSM   H15G14346   3.598   1.014   5.646  0.9266  0.2322  0.4636
  132OSM   C16F14347   3.613   0.848   5.517  0.4470  0.2852  0.2839
  132OSM   H16F14348   3.506   0.820   5.526  0.5415  0.2241  1.3271
  132OSM   H16G14349   3.667   0.753   5.499 -0.0663  0.0999 -0.2857
  132OSM   C17F14350   3.637   0.938   5.394  0.1760  0.3329 -0.0934
  132OSM   H17F14351   3.739   0.983   5.394 -0.1198  1.0209  0.3797
  132OSM   H17G14352   3.570   1.027   5.402  1.1100  0.9495  1.3866
  132OSM   C18F14353   3.613   0.888   5.256  0.4447 -0.0346 -0.6282
  132OSM   H18F14354   3.650   0.952   5.173 -2.2519  1.4335 -0.7843
  132OSM   H18G14355   3.506   0.864   5.242  0.3897  0.2971 -0.7909
  132OSM   H18H14356   3.671   0.796   5.235  0.2348  0.4036 -3.5958
  133OSM      N14357   2.676   1.938   7.865  0.3607  0.4362 -0.2748
  133OSM    C1514358   2.650   1.861   7.987  0.1001 -0.3669  0.6235
  133OSM   H15A14359   2.557   1.809   7.975  0.0326  0.4638 -3.8541
  133OSM   H15B14360   2.619   1.934   8.061 -3.2347  0.2450 -1.1912
  133OSM   H15C14361   2.737   1.804   8.016  0.9867  0.4180 -0.4260
  133OSM    C1414362   2.552   1.993   7.818  0.2082  0.1365 -0.3769
  133OSM   H14A14363   2.532   2.007   7.712  0.8902 -0.4442 -0.5831
  133OSM   H14B14364   2.534   2.095   7.850  1.2123  0.2728 -0.2264
  133OSM   H14C14365   2.469   1.931   7.849 -0.6226  0.8925 -1.0251
  133OSM    C1314366   2.778   2.044   7.896  0.1099 -0.3801  0.2432
  133OSM   H13A14367   2.869   1.995   7.927  0.0764  0.1266  1.1876
  133OSM   H13B14368   2.732   2.097   7.978 -0.6018  1.4658 -1.2642
  133OSM   H13C14369   2.797   2.118   7.820  2.6744 -0.4295  0.7473
  133OSM    C1214370   2.725   1.832   7.761  0.2341  0.3255 -0.2055
  133OSM   H12A14371   2.656   1.749   7.771 -0.3863  0.6407 -1.6870
  133OSM   H12B14372   2.826   1.803   7.787  0.2878 -1.0340 -1.7777
  133OSM    C1114373   2.733   1.872   7.609  0.1303 -0.4414 -0.0904
  133OSM   H11A14374   2.786   1.789   7.557 -0.3994 -0.8176 -0.0468
  133OSM   H11B14375   2.790   1.965   7.591  0.8878 -0.8867 -0.0579
  133OSM      P14376   2.517   1.766   7.508 -0.1844  0.4836 -0.3523
  133OSM    O1314377   2.544   1.648   7.598  0.6080 -0.4524 -0.2595
  133OSM    O1414378   2.374   1.802   7.502  0.1083  0.5425 -0.1732
  133OSM    O1114379   2.577   1.742   7.356 -0.0041  0.5781 -1.0012
  133OSM    O1214380   2.608   1.894   7.550 -0.2432  0.2161 -0.5632
  133OSM    C1S14381   2.562   1.836   7.253 -0.0262 -0.4676  0.7110
  133OSM    H1S14382   2.646   1.907   7.268 -1.0297  0.5421  1.7932
  133OSM    H1T14383   2.463   1.888   7.249 -0.1385 -0.7216 -1.9195
  133OSM     NF14384   2.606   1.882   7.014  0.5541  0.1023  0.1100
  133OSM    HNF14385   2.542   1.878   6.938  1.0133 -0.8479 -0.2349
  133OSM    C2S14386   2.602   1.777   7.114 -0.2716  0.5947 -0.3561
  133OSM    H2S14387   2.707   1.742   7.117 -0.6432 -1.1199 -3.2407
  133OSM    C3S14388   2.518   1.656   7.078  0.4864  0.1217  0.1342
  133OSM    H3S14389   2.415   1.696   7.075  1.0342  1.5732 -0.2321
  133OSM     O314390   2.498   1.556   7.183 -0.0149 -0.1799  0.3602
  133OSM    HO314391   2.528   1.608   7.258  0.8924 -1.6177  1.0437
  133OSM    C4S14392   2.562   1.581   6.954  0.3069 -0.3330 -0.4453
  133OSM    H4S14393   2.511   1.628   6.868 -0.8282  1.4496  1.0973
  133OSM    C5S14394   2.643   1.480   6.939 -0.0967  0.3432  0.0649
  133OSM    H5S14395   2.688   1.427   7.025 -0.9471 -0.3025  0.1317
  133OSM    C6S14396   2.699   1.429   6.808 -0.5588 -0.1513  0.1302
  133OSM    H6S14397   2.662   1.329   6.781  1.7377 -0.8667 -0.6380
  133OSM    H6T14398   2.810   1.429   6.818 -0.6697  0.5838  1.6978
  133OSM    C7S14399   2.668   1.516   6.683 -0.2180  0.0196  0.2830
  133OSM    H7S14400   2.705   1.621   6.686 -2.1894  0.7980 -0.7524
  133OSM    H7T14401   2.559   1.538   6.684 -0.1511  0.5405  2.7965
  133OSM    C8S14402   2.713   1.453   6.547  0.8297  0.3201 -0.2402
  133OSM    H8S14403   2.673   1.350   6.543  3.2765 -0.7991  1.6110
  133OSM    H8T14404   2.822   1.432   6.553  0.7603  0.3041  1.4090
  133OSM    C9S14405   2.699   1.542   6.418 -0.9003  0.1195  0.3776
  133OSM    H9S14406   2.751   1.637   6.441 -1.6221  0.2592  1.5073
  133OSM    H9T14407   2.595   1.573   6.395 -0.5281  1.8514  0.9192
  133OSM   C10S14408   2.767   1.477   6.289  0.2091  0.1156 -0.0684
  133OSM   H10S14409   2.751   1.368   6.297 -0.1874  0.1908  0.2178
  133OSM   H10T14410   2.876   1.492   6.297  0.0419  1.3349  0.2748
  133OSM   C11S14411   2.713   1.537   6.155 -0.2098  0.3969 -0.3102
  133OSM   H11S14412   2.736   1.646   6.154  1.2021  0.1737  1.6980
  133OSM   H11T14413   2.603   1.527   6.145 -0.2647  0.7041 -0.0585
  133OSM   C12S14414   2.775   1.476   6.026  0.0108  0.7911  0.0272
  133OSM   H12S14415   2.765   1.366   6.036 -0.2244  0.7230 -0.8618
  133OSM   H12T14416   2.883   1.496   6.013 -0.2603  1.4499 -1.4227
  133OSM   C13S14417   2.703   1.532   5.899  0.2397 -0.0814 -0.0019
  133OSM   H13S14418   2.686   1.641   5.909 -0.3310 -0.1645 -0.0454
  133OSM   H13T14419   2.607   1.476   5.898 -0.2474  0.6523  1.8730
  133OSM   C14S14420   2.783   1.514   5.766 -0.6994  0.0105 -0.3852
  133OSM   H14S14421   2.865   1.590   5.768 -3.0443  2.7811  3.2592
  133OSM   H14T14422   2.724   1.557   5.683 -0.3646  3.7334  1.0986
  133OSM   C15S14423   2.837   1.374   5.738  0.6178 -0.3914  0.1716
  133OSM   H15S14424   2.750   1.316   5.776  0.5229 -0.0356  0.4993
  133OSM   H15T14425   2.937   1.357   5.785  1.1135  0.5737 -0.4944
  133OSM   C16S14426   2.856   1.357   5.591  0.3478 -0.3998  0.5256
  133OSM   H16S14427   2.760   1.392   5.548  1.1722 -0.0540 -1.1238
  133OSM   H16T14428   2.881   1.252   5.565 -2.0362 -0.2352 -3.2112
  133OSM   C17S14429   2.965   1.456   5.535  0.2155 -0.2221 -0.7764
  133OSM   H17S14430   3.059   1.435   5.590 -0.3932 -1.2930 -0.1133
  133OSM   H17T14431   2.922   1.553   5.568 -0.8838 -0.5605 -1.1839
  133OSM   C18S14432   2.977   1.447   5.381  0.3866 -0.4206 -0.3087
  133OSM   H18S14433   2.878   1.479   5.343 -0.3796  1.4929  2.9425
  133OSM   H18T14434   2.987   1.337   5.366 -3.4656 -0.8313 -0.7318
  133OSM   H18U14435   3.061   1.503   5.333  0.3185 -0.8345 -0.9246
  133OSM    C1F14436   2.688   1.984   7.017 -0.0184 -0.0009  0.2071
  133OSM     OF14437   2.787   1.987   7.083  0.0527  0.2476 -0.2731
  133OSM    C2F14438   2.652   2.098   6.925 -0.1552 -0.2956 -0.1736
  133OSM    H2F14439   2.585   2.165   6.984  1.7720  0.5310  1.2049
  133OSM    H2G14440   2.600   2.066   6.832 -0.2847  0.7164 -0.4681
  133OSM    C3F14441   2.782   2.179   6.885 -0.5166  0.3537  0.1612
  133OSM    H3F14442   2.856   2.104   6.850 -0.2495  0.6048  0.1862
  133OSM    H3G14443   2.827   2.229   6.974 -0.4021  0.3491  0.1060
  133OSM    C4F14444   2.749   2.283   6.773 -0.0903  0.3356  0.6895
  133OSM    H4F14445   2.828   2.362   6.765 -1.6749  1.9189  0.0706
  133OSM    H4G14446   2.657   2.341   6.794 -0.4623 -0.5196  1.4738
  133OSM    C5F14447   2.731   2.223   6.635  0.1690 -0.2894  0.3002
  133OSM    H5F14448   2.641   2.158   6.633  1.0863 -1.5921 -1.3509
  133OSM    H5G14449   2.817   2.160   6.605  0.2922  0.2409 -0.5120
  133OSM    C6F14450   2.709   2.326   6.521 -0.3230 -0.1012 -0.4235
  133OSM    H6F14451   2.685   2.269   6.429 -0.7197  1.5049 -1.3615
  133OSM    H6G14452   2.799   2.387   6.497 -0.1918 -0.0952  0.0731
  133OSM    C7F14453   2.588   2.412   6.557 -0.1683 -0.3045 -0.1173
  133OSM    H7F14454   2.619   2.483   6.637 -1.9018 -0.3447  0.6386
  133OSM    H7G14455   2.504   2.352   6.597  0.1957 -1.9719 -1.7102
  133OSM    C8F14456   2.540   2.500   6.440 -0.4450  0.7312  0.9151
  133OSM    H8F14457   2.629   2.556   6.404 -1.9511  2.2052 -0.6702
  133OSM    H8G14458   2.463   2.569   6.480 -0.5565 -0.4736  2.9259
  133OSM    C9F14459   2.488   2.414   6.334 -0.7565 -0.1008 -0.3089
  133OSM    H9F14460   2.405   2.356   6.375  0.8917 -1.6995  0.9160
  133OSM   C10F14461   2.547   2.402   6.216 -0.1064  0.2549 -0.4501
  133OSM   H10F14462   2.488   2.335   6.151 -3.6598  1.2979  1.4430
  133OSM   C11F14463   2.670   2.477   6.163  0.3821  0.0809 -0.0490
  133OSM   H11F14464   2.762   2.415   6.174  0.4642  0.2014 -0.0422
  133OSM   H11G14465   2.692   2.575   6.212  1.6320 -0.0231 -0.3618
  133OSM   C12F14466   2.660   2.509   6.018  0.3600 -0.3792  0.3438
  133OSM   H12F14467   2.635   2.416   5.962  1.0871 -0.1596 -0.3624
  133OSM   H12G14468   2.760   2.531   5.974  0.4779  0.1087  0.8509
  133OSM   C13F14469   2.576   2.626   5.990  0.3392  0.2411  0.0602
  133OSM   H13F14470   2.603   2.719   6.044  1.0906  0.2997 -0.4058
  133OSM   H13G14471   2.478   2.589   6.027  1.2555 -1.2426  1.1372
  133OSM   C14F14472   2.566   2.663   5.845  0.5785 -0.2496 -0.2808
  133OSM   H14F14473   2.465   2.707   5.831 -0.0933 -1.5304  0.2881
  133OSM   H14G14474   2.558   2.572   5.780 -0.6576 -0.2372 -0.1786
  133OSM   C15F14475   2.664   2.773   5.797  0.7133  0.0638  0.5890
  133OSM   H15F14476   2.769   2.739   5.808  0.7178 -0.7073 -1.3794
  133OSM   H15G14477   2.650   2.862   5.862  1.2770 -1.4898  2.9116
  133OSM   C16F14478   2.635   2.806   5.648 -0.2563  0.2666  0.5978
  133OSM   H16F14479   2.524   2.806   5.641 -0.3826  0.3752  2.2409
  133OSM   H16G14480   2.673   2.719   5.591  1.2891 -0.0348  1.9952
  133OSM   C17F14481   2.699   2.933   5.590  0.1759 -0.3455  0.3421
  133OSM   H17F14482   2.808   2.949   5.603  0.2718 -1.4573  0.9758
  133OSM   H17G14483   2.657   3.019   5.646 -0.3321  0.1042 -0.6896
  133OSM   C18F14484   2.667   2.945   5.447 -0.2454  0.2188 -0.2321
  133OSM   H18F14485   2.560   2.972   5.431 -0.4992 -0.7872 -0.3324
  133OSM   H18G14486   2.666   2.842   5.403  1.6416 -0.5777  1.4311
  133OSM   H18H14487   2.733   3.019   5.397 -1.3061  1.7163  0.5269
  134OSM      N14488   6.682   0.558   7.719  0.5926  0.6741  0.1294
  134OSM    C1514489   6.710   0.424   7.788 -0.4501 -0.4538  0.1320
  134OSM   H15A14490   6.631   0.395   7.855  0.7898 -1.1152  1.3593
  134OSM   H15B14491   6.802   0.424   7.844 -0.8609  0.8231  0.8417
  134OSM   H15C14492   6.715   0.346   7.714 -1.4872  0.5330 -1.0344
  134OSM    C1414493   6.562   0.531   7.623 -0.5956 -0.8713  0.1562
  134OSM   H14A14494   6.476   0.491   7.674 -0.2414 -1.3622  0.3800
  134OSM   H14B14495   6.586   0.456   7.548  0.0060 -0.2733 -0.2677
  134OSM   H14C14496   6.539   0.626   7.577 -0.6586 -1.6930 -1.5948
  134OSM    C1314497   6.640   0.654   7.819  0.1462 -0.5460 -0.6851
  134OSM   H13A14498   6.563   0.609   7.879  1.5618 -0.4165  1.2889
  134OSM   H13B14499   6.593   0.746   7.784 -1.2939 -0.0697  2.1891
  134OSM   H13C14500   6.726   0.676   7.879 -1.4450  2.5607  0.7173
  134OSM    C1214501   6.807   0.601   7.646  0.6046 -0.5142  0.7103
  134OSM   H12A14502   6.780   0.703   7.624  0.3240 -0.2910  2.0221
  134OSM   H12B14503   6.817   0.543   7.556 -1.6481 -2.7446  1.7783
  134OSM    C1114504   6.941   0.605   7.728 -0.3167  0.1849 -1.1011
  134OSM   H11A14505   6.920   0.665   7.820  0.3771 -1.0695 -0.0963
  134OSM   H11B14506   7.017   0.667   7.676 -0.7174  1.0442 -0.6934
  134OSM      P14507   7.078   0.409   7.652 -0.1578  0.3775  0.1924
  134OSM    O1314508   7.212   0.482   7.657  0.3138  0.4542  0.7911
  134OSM    O1414509   7.073   0.260   7.669 -0.4078 -0.2097 -0.2638
  134OSM    O1114510   7.017   0.442   7.515  0.5133 -0.1685 -0.5649
  134OSM    O1214511   6.984   0.470   7.762  0.2342 -0.4039  0.0625
  134OSM    C1S14512   7.107   0.435   7.402 -0.0258  0.3245  0.0536
  134OSM    H1S14513   7.154   0.334   7.399 -0.2199  0.2490 -0.5862
  134OSM    H1T14514   7.175   0.522   7.407  1.9029 -1.0648 -0.8925
  134OSM     NF14515   7.127   0.461   7.160 -0.6259  0.7207 -0.4166
  134OSM    HNF14516   7.156   0.552   7.129  0.0636  1.5092  2.2681
  134OSM    C2S14517   7.025   0.451   7.266  0.2440 -0.7793  0.4004
  134OSM    H2S14518   6.956   0.365   7.249 -0.7363  0.2183 -0.9635
  134OSM    C3S14519   6.924   0.571   7.270  0.4057  0.0173 -0.2620
  134OSM    H3S14520   6.967   0.662   7.317 -0.4338  0.1354  0.3144
  134OSM     O314521   6.807   0.547   7.352 -0.7945  0.9948 -0.2070
  134OSM    HO314522   6.819   0.455   7.379 -2.2954  0.4557 -1.2664
  134OSM    C4S14523   6.873   0.597   7.134  0.4084  0.1394  0.7762
  134OSM    H4S14524   6.903   0.514   7.069  1.5548  1.1191  0.0094
  134OSM    C5S14525   6.811   0.704   7.079  0.1697 -0.1248  0.0597
  134OSM    H5S14526   6.785   0.784   7.151 -0.3040 -1.4720  1.4600
  134OSM    C6S14527   6.768   0.714   6.937  0.1942 -0.2834  0.5191
  134OSM    H6S14528   6.661   0.743   6.927  0.2940  0.8789  2.2852
  134OSM    H6T14529   6.763   0.617   6.882 -1.4122  0.7332 -1.2486
  134OSM    C7S14530   6.856   0.812   6.853  0.5203  0.3511 -0.1945
  134OSM    H7S14531   6.964   0.800   6.875  0.4344 -1.1511 -0.4817
  134OSM    H7T14532   6.841   0.915   6.891 -0.5537  0.5305 -1.0683
  134OSM    C8S14533   6.831   0.804   6.702  0.0853 -0.6993 -0.3814
  134OSM    H8S14534   6.730   0.836   6.666 -0.3128 -1.0955  0.3636
  134OSM    H8T14535   6.848   0.699   6.672  3.7345 -0.9292  1.9606
  134OSM    C9S14536   6.924   0.893   6.617 -0.0962 -0.4072  0.3636
  134OSM    H9S14537   7.027   0.901   6.660  0.3122  1.7411 -0.8435
  134OSM    H9T14538   6.892   0.998   6.632  2.5192  0.5727 -0.2858
  134OSM   C10S14539   6.942   0.875   6.466  0.8222  0.1351 -0.5142
  134OSM   H10S14540   6.842   0.887   6.418  2.0916 -0.3631 -3.4758
  134OSM   H10T14541   6.971   0.768   6.453  3.4497  0.7359 -0.1872
  134OSM   C11S14542   7.047   0.963   6.402  0.1918  0.2442 -0.3297
  134OSM   H11S14543   7.142   0.950   6.459 -0.2959 -0.5639  0.3188
  134OSM   H11T14544   7.027   1.072   6.412 -0.4921  0.0559  0.4836
  134OSM   C12S14545   7.063   0.931   6.251 -0.2646 -0.5431 -1.2377
  134OSM   H12S14546   6.967   0.960   6.202 -0.4544  1.4580  0.2008
  134OSM   H12T14547   7.089   0.823   6.245  1.2830 -0.2048 -0.9767
  134OSM   C13S14548   7.182   1.010   6.186  0.3759  0.1032  0.0759
  134OSM   H13S14549   7.274   0.978   6.240  0.3119  1.7618  1.2391
  134OSM   H13T14550   7.164   1.119   6.199 -2.8085 -0.0154 -2.0710
  134OSM   C14S14551   7.207   0.977   6.042  0.0229  0.3981 -0.1036
  134OSM   H14S14552   7.109   0.970   5.990  0.2875  0.0584 -0.5543
  134OSM   H14T14553   7.267   0.884   6.036  1.1962  1.2369 -2.8620
  134OSM   C15S14554   7.298   1.082   5.972 -0.3102  0.1047 -0.6344
  134OSM   H15S14555   7.395   1.076   6.026  0.5930 -1.7007 -2.3537
  134OSM   H15T14556   7.254   1.184   5.976  0.7220  0.5553 -0.3851
  134OSM   C16S14557   7.327   1.031   5.834  0.0734  0.4994  0.1230
  134OSM   H16S14558   7.231   1.002   5.786  0.1394  0.4817  0.0001
  134OSM   H16T14559   7.385   0.937   5.828 -2.4193 -1.0718 -0.9223
  134OSM   C17S14560   7.387   1.136   5.739  0.1522  0.8991 -0.2058
  134OSM   H17S14561   7.304   1.209   5.732 -0.5416  0.2176  0.6505
  134OSM   H17T14562   7.399   1.080   5.644  0.0133  1.4777 -0.5724
  134OSM   C18S14563   7.506   1.205   5.781  0.0448  0.1613  0.0691
  134OSM   H18S14564   7.553   1.269   5.704 -0.3456 -0.2835 -0.5479
  134OSM   H18T14565   7.596   1.144   5.808 -0.2904 -0.1362  0.5235
  134OSM   H18U14566   7.488   1.279   5.862  1.6853 -0.2338  0.8501
  134OSM    C1F14567   7.188   0.341   7.128  0.4386 -0.3786  0.3231
  134OSM     OF14568   7.135   0.231   7.159 -0.3686 -0.2731 -0.1497
  134OSM    C2F14569   7.313   0.347   7.048  0.1445 -0.1046 -0.2758
  134OSM    H2F14570   7.384   0.288   7.111 -0.8299 -1.2135 -0.1778
  134OSM    H2G14571   7.339   0.452   7.024 -2.1241  0.2585 -1.4596
  134OSM    C3F14572   7.290   0.282   6.912  0.0626 -0.5239 -0.1555
  134OSM    H3F14573   7.217   0.336   6.847  2.0984  0.8097 -1.4579
  134OSM    H3G14574   7.250   0.180   6.933 -0.0368 -0.2639  0.9278
  134OSM    C4F14575   7.420   0.255   6.835 -0.0931  0.6423  0.4714
  134OSM    H4F14576   7.387   0.185   6.756  0.4762  0.2420  0.5796
  134OSM    H4G14577   7.494   0.205   6.901  0.4838  0.8796  0.0105
  134OSM    C5F14578   7.481   0.378   6.769  0.6294 -0.6063  0.4471
  134OSM    H5F14579   7.559   0.435   6.824  0.6886  0.3653 -0.6057
  134OSM    H5G14580   7.392   0.443   6.756  0.1372 -1.4786 -0.6141
  134OSM    C6F14581   7.530   0.352   6.627  0.4994 -0.5062 -0.7535
  134OSM    H6F14582   7.519   0.443   6.565 -1.2348  0.2847  0.6311
  134OSM    H6G14583   7.465   0.278   6.575 -1.9054  1.4499 -0.7023
  134OSM    C7F14584   7.676   0.313   6.630  0.0124  0.1143  0.1120
  134OSM    H7F14585   7.699   0.226   6.696 -0.0170  0.1449  0.1629
  134OSM    H7G14586   7.730   0.390   6.690 -0.1554  0.8264 -0.6371
  134OSM    C8F14587   7.738   0.295   6.487  0.1727  0.7863 -0.6218
  134OSM    H8F14588   7.709   0.386   6.430  2.0612  0.3518 -2.3641
  134OSM    H8G14589   7.681   0.212   6.441 -1.6028  1.6830 -0.1389
  134OSM    C9F14590   7.882   0.251   6.491 -0.4823  0.0992 -0.6165
  134OSM    H9F14591   7.912   0.198   6.583 -1.5389 -2.1506 -1.5174
  134OSM   C10F14592   7.972   0.239   6.394  0.1699 -0.1766 -0.1598
  134OSM   H10F14593   8.080   0.220   6.408  0.4182  1.0572 -0.2472
  134OSM   C11F14594   7.955   0.290   6.254  0.0515  0.1474 -0.5616
  134OSM   H11F14595   7.852   0.310   6.217 -0.3166 -1.4723 -0.5017
  134OSM   H11G14596   8.003   0.207   6.197 -0.6275  2.0404 -4.2160
  134OSM   C12F14597   8.031   0.423   6.243 -0.0240 -0.7253 -0.1216
  134OSM   H12F14598   8.141   0.409   6.257  0.2920  1.3071 -0.2295
  134OSM   H12G14599   8.002   0.499   6.319  0.8244  1.5472 -1.9357
  134OSM   C13F14600   7.998   0.495   6.113  0.3692  1.0767 -0.7494
  134OSM   H13F14601   8.043   0.595   6.125 -1.5767  1.8579  0.5061
  134OSM   H13G14602   7.891   0.524   6.101  0.2979  1.1352  0.0042
  134OSM   C14F14603   8.037   0.419   5.987 -0.3357  0.3405  0.1482
  134OSM   H14F14604   8.023   0.310   6.002  0.6149  0.3537  1.3062
  134OSM   H14G14605   8.148   0.426   5.982 -0.3934  0.9993 -0.3460
  134OSM   C15F14606   7.976   0.479   5.859  0.7699 -0.0751 -1.0494
  134OSM   H15F14607   7.991   0.589   5.849  0.9193 -0.1765 -2.0968
  134OSM   H15G14608   7.866   0.467   5.864  0.5736  1.3269 -1.5044
  134OSM   C16F14609   8.023   0.414   5.729  0.6627  0.9004 -0.1046
  134OSM   H16F14610   8.133   0.413   5.740  0.8263 -2.6478 -0.8626
  134OSM   H16G14611   7.994   0.486   5.650 -1.0338  1.5009  1.0050
  134OSM   C17F14612   7.970   0.277   5.691 -0.8257 -0.2144 -0.4710
  134OSM   H17F14613   7.860   0.293   5.680 -0.5100  1.8414 -1.0499
  134OSM   H17G14614   7.990   0.201   5.770 -1.2816 -0.3413 -0.4714
  134OSM   C18F14615   8.015   0.223   5.554  0.1034 -0.1190  0.2437
  134OSM   H18F14616   7.998   0.306   5.482  0.0446 -0.3648 -0.0269
  134OSM   H18G14617   7.942   0.143   5.526  1.1679 -0.6999 -1.0135
  134OSM   H18H14618   8.110   0.166   5.554 -1.4641 -3.0231  2.6283
  135OSM      N14619   0.773   5.424   7.528 -0.0133 -0.2854  0.8184
  135OSM    C1514620   0.901   5.427   7.461  0.9454  0.5691 -0.2959
  135OSM   H15A14621   0.924   5.337   7.406 -1.0635 -1.7407  2.3932
  135OSM   H15B14622   0.979   5.448   7.533  0.0799  1.0446  0.5206
  135OSM   H15C14623   0.894   5.505   7.386  0.6268  1.2930  0.4679
  135OSM    C1414624   0.664   5.372   7.437  0.0174 -0.1114 -0.1555
  135OSM   H14A14625   0.677   5.411   7.337  0.9453  2.3125  0.8282
  135OSM   H14B14626   0.562   5.397   7.462 -0.2974  0.6338 -1.9905
  135OSM   H14C14627   0.678   5.265   7.438  2.2633  0.1082  1.5075
  135OSM    C1314628   0.789   5.338   7.652 -0.2750 -0.4060 -0.2688
  135OSM   H13A14629   0.857   5.382   7.723  0.2222  1.0996 -1.6455
  135OSM   H13B14630   0.821   5.240   7.618  2.0344 -0.0610  0.6930
  135OSM   H13C14631   0.692   5.337   7.700 -0.1173  0.0057  0.0685
  135OSM    C1214632   0.731   5.571   7.573 -0.4681  0.7832 -0.9025
  135OSM   H12A14633   0.790   5.624   7.646 -0.3646  1.7762 -1.6759
  135OSM   H12B14634   0.636   5.549   7.618 -0.2988 -1.6598 -1.5995
  135OSM    C1114635   0.712   5.668   7.465 -0.0718 -0.3952 -0.4829
  135OSM   H11A14636   0.648   5.757   7.484  3.1361  1.8719  0.7537
  135OSM   H11B14637   0.662   5.617   7.380 -2.1492  0.9069 -0.1297
  135OSM      P14638   0.939   5.798   7.514  0.0596 -0.3140  0.4028
  135OSM    O1314639   0.942   5.739   7.649 -0.1591  0.3371  0.1209
  135OSM    O1414640   1.062   5.820   7.437 -0.0051 -0.0873 -0.2135
  135OSM    O1114641   0.870   5.932   7.530 -0.5427  0.3850 -0.0231
  135OSM    O1214642   0.844   5.715   7.428  0.3856  0.2046  0.0432
  135OSM    C1S14643   0.830   6.017   7.418 -0.0700 -0.1070 -0.2076
  135OSM    H1S14644   0.869   5.980   7.320 -0.0772 -0.8420  0.0586
  135OSM    H1T14645   0.888   6.110   7.435  0.7892 -0.6007 -0.3654
  135OSM     NF14646   0.633   6.122   7.304 -0.0938  0.1602  1.1341
  135OSM    HNF14647   0.579   6.205   7.311 -3.0313 -1.3455 -1.1775
  135OSM    C2S14648   0.677   6.046   7.418  0.9573 -0.3235 -0.5600
  135OSM    H2S14649   0.636   5.943   7.411  1.9077 -0.8035  0.6076
  135OSM    C3S14650   0.624   6.097   7.555 -0.1172  0.0219  0.2503
  135OSM    H3S14651   0.668   6.196   7.579  0.8590  0.1021 -1.6476
  135OSM     O314652   0.662   6.021   7.666  0.5011 -0.7231 -0.6988
  135OSM    HO314653   0.736   5.970   7.633  0.6745 -0.7541 -0.2590
  135OSM    C4S14654   0.479   6.111   7.548  0.4636  0.1389  0.5822
  135OSM    H4S14655   0.447   6.210   7.514 -0.2749 -0.8885 -1.9713
  135OSM    C5S14656   0.387   6.014   7.542  0.1676  0.8408  0.2099
  135OSM    H5S14657   0.417   5.911   7.564 -2.1987  0.1143  0.2889
  135OSM    C6S14658   0.241   6.035   7.523  0.3459 -0.6083 -0.4440
  135OSM    H6S14659   0.189   6.055   7.618  1.9370  1.2942  0.0871
  135OSM    H6T14660   0.197   5.940   7.485 -0.8575  0.8273 -2.9121
  135OSM    C7S14661   0.179   6.148   7.429 -0.6250  0.5079  0.3355
  135OSM    H7S14662   0.179   6.252   7.470 -2.0799  0.4332  0.6189
  135OSM    H7T14663   0.068   6.137   7.429 -0.6523  0.7772  0.5054
  135OSM    C8S14664   0.225   6.147   7.285 -0.9174  0.4735 -0.1315
  135OSM    H8S14665   0.202   6.045   7.248  0.9234  0.0564 -0.2087
  135OSM    H8T14666   0.335   6.159   7.280 -1.1197  2.1753 -1.6327
  135OSM    C9S14667   0.157   6.252   7.203 -0.7546 -0.0703 -0.0986
  135OSM    H9S14668   0.191   6.350   7.243 -0.3191  0.4123 -1.5550
  135OSM    H9T14669   0.048   6.241   7.219 -0.8931  1.5569  0.2395
  135OSM   C10S14670   0.188   6.267   7.050  0.1647 -0.0984  0.5669
  135OSM   H10S14671   0.166   6.171   7.000  1.3621  1.0627 -2.4092
  135OSM   H10T14672   0.296   6.288   7.032 -0.3141  1.3057 -0.9066
  135OSM   C11S14673   0.102   6.377   6.989 -0.0699  0.3184 -0.1879
  135OSM   H11S14674   0.128   6.471   7.043  2.1273 -1.3221  1.8202
  135OSM   H11T14675  -0.004   6.356   7.015 -0.5741  1.6145 -1.0835
  135OSM   C12S14676   0.114   6.393   6.839  0.0898 -0.3358 -0.1614
  135OSM   H12S14677   0.141   6.293   6.798 -0.1931 -1.1589  1.5325
  135OSM   H12T14678   0.194   6.466   6.813 -2.5588  2.8807  0.0653
  135OSM   C13S14679  -0.017   6.463   6.789  0.1731 -0.0865 -0.2496
  135OSM   H13S14680  -0.034   6.555   6.850 -1.8091 -1.0752  0.7855
  135OSM   H13T14681  -0.096   6.385   6.791  0.0419  0.0617  1.3155
  135OSM   C14S14682  -0.013   6.521   6.641  0.0913 -0.4763 -0.3002
  135OSM   H14S14683   0.084   6.575   6.632 -0.1930  0.0724 -0.1135
  135OSM   H14T14684  -0.093   6.596   6.627 -0.1751 -0.3582  1.5498
  135OSM   C15S14685  -0.023   6.425   6.526  0.2007 -0.7743  0.0251
  135OSM   H15S14686  -0.131   6.399   6.516 -0.2295  0.1362  1.9033
  135OSM   H15T14687   0.019   6.323   6.543  0.0129 -0.4045  3.3546
  135OSM   C16S14688   0.017   6.471   6.388 -0.5420 -1.1450 -0.3265
  135OSM   H16S14689   0.122   6.505   6.374 -0.9692  0.9530  1.1083
  135OSM   H16T14690  -0.049   6.551   6.347 -1.0060 -2.1756 -1.6568
  135OSM   C17S14691  -0.001   6.364   6.286 -0.5706  1.0342  0.9086
  135OSM   H17S14692  -0.105   6.327   6.279  0.5609 -2.1488 -1.7348
  135OSM   H17T14693   0.058   6.274   6.316 -2.9633 -0.8809  0.2534
  135OSM   C18S14694   0.058   6.395   6.140  1.0162  0.0650 -0.8696
  135OSM   H18S14695   0.159   6.439   6.127  0.4117  1.4005 -1.3040
  135OSM   H18T14696  -0.005   6.476   6.098  0.1091  0.6061  1.3967
  135OSM   H18U14697   0.048   6.309   6.070  1.5090  0.4148 -1.3788
  135OSM    C1F14698   0.639   6.069   7.182 -0.2382 -0.3982  0.4574
  135OSM     OF14699   0.689   5.963   7.160 -0.1886  0.0156 -0.6769
  135OSM    C2F14700   0.563   6.130   7.070  0.7833  0.3132  0.5802
  135OSM    H2F14701   0.604   6.229   7.039  0.6124  1.0372  2.5334
  135OSM    H2G14702   0.458   6.131   7.105  0.3707 -3.9703  0.0451
  135OSM    C3F14703   0.555   6.043   6.935  0.1821 -0.6456  0.6013
  135OSM    H3F14704   0.525   5.939   6.959 -2.6228 -0.4324 -1.4791
  135OSM    H3G14705   0.654   6.047   6.885 -0.5810  0.7666 -0.9146
  135OSM    C4F14706   0.453   6.087   6.823 -0.4136  0.1720  0.4005
  135OSM    H4F14707   0.363   6.089   6.888  0.7252  0.2370  2.0494
  135OSM    H4G14708   0.481   6.191   6.795 -0.2293  1.2331  3.9831
  135OSM    C5F14709   0.459   5.995   6.698  0.6855 -0.8573  0.5649
  135OSM    H5F14710   0.391   5.911   6.722 -1.0528  1.0824  3.0729
  135OSM    H5G14711   0.561   5.954   6.685  0.0844 -2.6337  1.2196
  135OSM    C6F14712   0.432   6.070   6.566 -0.6947  0.0670 -0.8936
  135OSM    H6F14713   0.518   6.136   6.540 -0.5484 -0.5149 -1.9642
  135OSM    H6G14714   0.333   6.119   6.563 -2.6228 -3.4219 -0.0191
  135OSM    C7F14715   0.433   5.969   6.452 -0.5423 -0.6775 -0.6093
  135OSM    H7F14716   0.497   5.879   6.462 -3.3668 -2.7636  0.2472
  135OSM    H7G14717   0.473   6.024   6.365  0.5296 -0.3747  0.0621
  135OSM    C8F14718   0.301   5.923   6.397  0.6176 -0.5077 -0.2496
  135OSM    H8F14719   0.242   6.011   6.365 -3.0707 -2.4115  0.7550
  135OSM    H8G14720   0.242   5.874   6.478 -1.2986  0.3245 -1.0835
  135OSM    C9F14721   0.321   5.819   6.300 -0.3512 -0.3967 -0.4653
  135OSM    H9F14722   0.365   5.724   6.333 -0.9357 -0.2157  0.8879
  135OSM   C10F14723   0.287   5.819   6.168  0.8408 -0.4350 -0.0768
  135OSM   H10F14724   0.309   5.726   6.115 -0.6901 -1.0868  0.3880
  135OSM   C11F14725   0.225   5.933   6.088  0.3178  0.4990 -0.1589
  135OSM   H11F14726   0.172   6.008   6.151 -0.1625 -0.2663  0.3677
  135OSM   H11G14727   0.145   5.890   6.022  0.0802  1.0972 -0.2666
  135OSM   C12F14728   0.317   6.006   5.989  0.2068  1.1150  0.0955
  135OSM   H12F14729   0.251   6.073   5.929  0.7319 -0.4572 -2.4257
  135OSM   H12G14730   0.352   5.937   5.909 -1.8745 -0.5143  0.5077
  135OSM   C13F14731   0.430   6.094   6.037  0.2705 -0.0135  0.0787
  135OSM   H13F14732   0.487   6.122   5.946  1.2791 -0.6189  0.5002
  135OSM   H13G14733   0.488   6.027   6.104  1.5413  1.8597  0.9274
  135OSM   C14F14734   0.381   6.207   6.113  0.5388 -0.1709 -0.0895
  135OSM   H14F14735   0.324   6.182   6.205 -2.7040  1.6380 -1.4520
  135OSM   H14G14736   0.300   6.258   6.056 -0.5557 -0.1748  1.4029
  135OSM   C15F14737   0.490   6.295   6.171  0.3501 -0.4097  0.2865
  135OSM   H15F14738   0.561   6.305   6.086  0.7307 -0.9565  0.5312
  135OSM   H15G14739   0.545   6.239   6.250  0.9148  0.6128  0.6276
  135OSM   C16F14740   0.439   6.431   6.223 -0.5530  0.6138 -0.4282
  135OSM   H16F14741   0.341   6.424   6.275 -0.8845  0.2429 -1.0873
  135OSM   H16G14742   0.413   6.495   6.136 -0.2801  3.1904  1.2744
  135OSM   C17F14743   0.547   6.506   6.310 -0.1117  0.2052 -0.3423
  135OSM   H17F14744   0.502   6.605   6.331 -1.7083 -0.7611  1.0889
  135OSM   H17G14745   0.647   6.523   6.266  1.2264 -2.3055  1.4584
  135OSM   C18F14746   0.575   6.442   6.445 -0.0466  0.3585 -0.3240
  135OSM   H18F14747   0.482   6.430   6.504  1.6668 -1.6605  2.1751
  135OSM   H18G14748   0.648   6.494   6.510  1.4934  0.7275 -2.2460
  135OSM   H18H14749   0.620   6.341   6.444  2.3755  1.3476  0.7072
  136OSM      N14750   3.990   0.730   7.665  0.3125  0.3354 -0.2045
  136OSM    C1514751   4.061   0.609   7.621 -0.4073  0.3057  0.2110
  136OSM   H15A14752   3.995   0.560   7.551 -0.3610 -1.8699  1.6007
  136OSM   H15B14753   4.094   0.539   7.697  1.2112 -0.6454 -1.2874
  136OSM   H15C14754   4.155   0.629   7.570 -0.7176  2.1397  0.3217
  136OSM    C1414755   3.860   0.696   7.738 -0.1640  0.1607 -0.2784
  136OSM   H14A14756   3.893   0.629   7.816  0.6107  0.4917 -0.3207
  136OSM   H14B14757   3.794   0.643   7.671  2.7057 -3.6120 -0.4211
  136OSM   H14C14758   3.817   0.788   7.776 -2.2936  0.0592 -2.2129
  136OSM    C1314759   4.081   0.789   7.774 -0.5264  0.3410  0.1248
  136OSM   H13A14760   4.176   0.819   7.732 -1.7058 -0.7029 -3.6927
  136OSM   H13B14761   4.104   0.717   7.850  1.0215  0.2861 -0.3647
  136OSM   H13C14762   4.031   0.871   7.824 -0.3708 -0.5577  1.8034
  136OSM    C1214763   3.978   0.833   7.556 -0.4585  0.2639 -0.5035
  136OSM   H12A14764   3.950   0.926   7.603  2.7694  1.5840 -0.9513
  136OSM   H12B14765   3.885   0.809   7.507 -0.6141 -2.4887  0.9327
  136OSM    C1114766   4.094   0.869   7.448 -0.0682  0.8448 -0.0435
  136OSM   H11A14767   4.053   0.943   7.376  0.2113  2.9146  1.8087
  136OSM   H11B14768   4.122   0.777   7.394 -0.9408  0.7030 -0.2689
  136OSM      P14769   4.279   1.045   7.502  0.2281 -0.2085  0.0974
  136OSM    O1314770   4.208   1.142   7.587 -0.7187 -0.5774  0.0574
  136OSM    O1414771   4.425   1.042   7.523  0.3646 -0.0636 -0.1837
  136OSM    O1114772   4.251   1.093   7.346  0.3809 -0.4178  0.2309
  136OSM    O1214773   4.209   0.903   7.518 -0.0550 -0.5476  0.2738
  136OSM    C1S14774   4.298   1.005   7.244 -0.2956 -0.5990 -0.1486
  136OSM    H1S14775   4.253   0.904   7.250  0.9374 -1.1629 -0.3140
  136OSM    H1T14776   4.408   0.997   7.248 -0.1778  1.0213  0.8039
  136OSM     NF14777   4.336   0.969   7.002  0.2769  0.1654 -0.3256
  136OSM    HNF14778   4.416   1.014   6.963  0.6166  0.7925  1.0344
  136OSM    C2S14779   4.267   1.053   7.100 -0.1106 -0.0780  1.7170
  136OSM    H2S14780   4.160   1.051   7.072 -0.3436  1.6850  2.3553
  136OSM    C3S14781   4.303   1.205   7.088  0.4452  0.4260 -0.0027
  136OSM    H3S14782   4.411   1.214   7.114  0.3077 -1.9721  1.6496
  136OSM     O314783   4.238   1.285   7.181 -0.0610 -0.1674  0.2949
  136OSM    HO314784   4.214   1.232   7.258  1.2748  1.1106  1.6643
  136OSM    C4S14785   4.283   1.240   6.939  0.3887 -0.1194 -0.4714
  136OSM    H4S14786   4.375   1.225   6.881  1.7625  0.1039  1.5520
  136OSM    C5S14787   4.163   1.279   6.887  0.3912 -0.0832  0.7939
  136OSM    H5S14788   4.081   1.286   6.959  0.1675 -1.1239  0.6498
  136OSM    C6S14789   4.139   1.306   6.735 -0.5652 -0.5299 -0.0940
  136OSM    H6S14790   4.150   1.415   6.719  1.5869 -0.4297  1.7251
  136OSM    H6T14791   4.035   1.276   6.708 -1.1799  1.1893  0.2460
  136OSM    C7S14792   4.236   1.226   6.642 -0.1709 -1.0273 -0.6865
  136OSM    H7S14793   4.216   1.118   6.663 -1.5763 -0.1049  3.7744
  136OSM    H7T14794   4.343   1.248   6.660 -1.0210  1.4470  1.9995
  136OSM    C8S14795   4.223   1.263   6.495 -0.1034 -0.1607 -0.6258
  136OSM    H8S14796   4.267   1.364   6.488 -1.8351  0.7907  1.0375
  136OSM    H8T14797   4.114   1.269   6.475 -0.4505  2.4678  1.4147
  136OSM    C9S14798   4.291   1.168   6.393  0.0621  0.0271 -0.7209
  136OSM    H9S14799   4.231   1.075   6.393  1.8687 -1.2093  0.8278
  136OSM    H9T14800   4.395   1.144   6.420  0.8356  1.2771 -2.3895
  136OSM   C10S14801   4.288   1.212   6.250 -0.3717 -0.5960 -0.4662
  136OSM   H10S14802   4.364   1.292   6.239 -1.0747  0.1058 -0.2935
  136OSM   H10T14803   4.184   1.247   6.227 -0.5949 -1.7174 -1.2589
  136OSM   C11S14804   4.340   1.100   6.154  0.3005 -0.3437  0.4716
  136OSM   H11S14805   4.260   1.023   6.149 -2.0391  1.8604  1.5475
  136OSM   H11T14806   4.435   1.056   6.191  1.3795  0.2660 -1.4536
  136OSM   C12S14807   4.378   1.148   6.007 -0.9054  0.6874 -0.2484
  136OSM   H12S14808   4.443   1.068   5.965 -1.8593 -1.5652  2.2716
  136OSM   H12T14809   4.447   1.235   6.012  0.8137 -0.4131 -2.6236
  136OSM   C13S14810   4.258   1.183   5.919 -0.0747  0.2272  0.0339
  136OSM   H13S14811   4.228   1.287   5.946  0.5227  1.2025 -2.6945
  136OSM   H13T14812   4.171   1.116   5.936  0.0005  0.2065  0.3505
  136OSM   C14S14813   4.292   1.170   5.767 -0.2152 -0.1182  0.8064
  136OSM   H14S14814   4.191   1.172   5.722 -0.3580 -2.1270  0.9745
  136OSM   H14T14815   4.336   1.071   5.746 -1.6929 -0.3549 -1.6006
  136OSM   C15S14816   4.377   1.284   5.701  0.3725  0.0070 -0.0583
  136OSM   H15S14817   4.474   1.284   5.756  0.4642 -0.0357 -0.2185
  136OSM   H15T14818   4.323   1.380   5.712 -0.7729 -0.4047 -1.6232
  136OSM   C16S14819   4.403   1.259   5.552 -0.2364  0.2551  0.3794
  136OSM   H16S14820   4.320   1.279   5.481  1.4040 -1.0664 -2.1014
  136OSM   H16T14821   4.407   1.148   5.547 -2.7312  0.0951  0.5982
  136OSM   C17S14822   4.538   1.319   5.513  0.2982 -0.5192  0.6713
  136OSM   H17S14823   4.613   1.316   5.595 -1.2548 -0.2621  2.1389
  136OSM   H17T14824   4.528   1.428   5.494  2.1701 -0.6669 -1.6380
  136OSM   C18S14825   4.607   1.267   5.387  0.0795 -0.1842 -0.6098
  136OSM   H18S14826   4.620   1.159   5.411  1.9157  0.2369  0.4935
  136OSM   H18T14827   4.712   1.298   5.367 -0.5253  1.0039 -2.1339
  136OSM   H18U14828   4.551   1.280   5.292  0.6474  1.8643 -0.7186
  136OSM    C1F14829   4.310   0.842   6.981 -0.4145 -0.0534 -0.2935
  136OSM     OF14830   4.234   0.776   7.054 -0.2171 -0.0281 -0.0357
  136OSM    C2F14831   4.378   0.780   6.860 -0.5623 -0.0748 -0.2681
  136OSM    H2F14832   4.486   0.780   6.886 -0.1390 -0.4149 -1.9001
  136OSM    H2G14833   4.381   0.843   6.769  1.2806  0.5250  0.1692
  136OSM    C3F14834   4.321   0.637   6.837  0.1759 -0.2338 -0.7683
  136OSM    H3F14835   4.220   0.661   6.798  0.0253  1.7016  0.6786
  136OSM    H3G14836   4.315   0.571   6.926 -0.8917  2.1728  1.0650
  136OSM    C4F14837   4.407   0.580   6.718  0.6204 -0.0202 -0.8135
  136OSM    H4F14838   4.514   0.573   6.745  0.5345  0.3179 -0.3712
  136OSM    H4G14839   4.401   0.659   6.641 -0.5594  1.3241  0.5787
  136OSM    C5F14840   4.350   0.453   6.655  0.0810  0.5334 -0.7028
  136OSM    H5F14841   4.242   0.458   6.630 -0.3209 -1.0334  0.5716
  136OSM    H5G14842   4.364   0.378   6.735 -1.1270  0.5764 -0.4449
  136OSM    C6F14843   4.443   0.402   6.545  0.7582 -0.4752  0.8651
  136OSM    H6F14844   4.441   0.291   6.545 -0.2821 -0.4963 -0.4479
  136OSM    H6G14845   4.548   0.428   6.569  1.3760 -2.5000  0.4949
  136OSM    C7F14846   4.402   0.474   6.414 -0.0903 -0.3606 -0.5454
  136OSM    H7F14847   4.418   0.583   6.429  0.0740 -0.0279 -2.7875
  136OSM    H7G14848   4.297   0.450   6.387 -0.4832 -0.0266  0.6558
  136OSM    C8F14849   4.496   0.448   6.291 -0.3003 -0.1366  0.0963
  136OSM    H8F14850   4.601   0.477   6.312 -0.2580 -0.0900 -0.1698
  136OSM    H8G14851   4.465   0.504   6.200 -0.8038 -2.3251 -1.1651
  136OSM    C9F14852   4.488   0.299   6.257  0.2011 -0.5805  0.2295
  136OSM    H9F14853   4.519   0.235   6.340 -0.7270 -1.4178 -0.0435
  136OSM   C10F14854   4.467   0.245   6.131 -0.2265 -0.3699  0.1495
  136OSM   H10F14855   4.464   0.135   6.120 -0.4992 -0.5621  1.9329
  136OSM   C11F14856   4.416   0.321   6.007 -0.0910 -0.0294  0.5578
  136OSM   H11F14857   4.505   0.349   5.946  0.8208  0.0765  1.8947
  136OSM   H11G14858   4.352   0.411   6.017 -0.6534 -0.3826  0.2051
  136OSM   C12F14859   4.335   0.227   5.916  0.5355 -0.4858 -0.0512
  136OSM   H12F14860   4.229   0.213   5.947  1.0848 -2.7731  0.9944
  136OSM   H12G14861   4.380   0.127   5.905  2.9219  0.7415 -2.7906
  136OSM   C13F14862   4.321   0.284   5.777  0.4586  0.3186  0.5332
  136OSM   H13F14863   4.310   0.395   5.772 -1.6836  0.1021 -1.7627
  136OSM   H13G14864   4.224   0.254   5.732  0.6671  1.4046 -0.7236
  136OSM   C14F14865   4.432   0.243   5.675  0.2223  0.1107 -0.6023
  136OSM   H14F14866   4.532   0.262   5.719 -0.1707 -0.0286  0.3788
  136OSM   H14G14867   4.433   0.306   5.584 -0.4448 -1.0464 -1.4386
  136OSM   C15F14868   4.415   0.094   5.631 -0.2401 -0.3214  0.9675
  136OSM   H15F14869   4.330   0.091   5.559  0.1157  0.3902  0.5019
  136OSM   H15G14870   4.398   0.019   5.710 -2.7344 -1.3635 -0.4573
  136OSM   C16F14871   4.534   0.047   5.551 -0.2013  0.2567  0.2821
  136OSM   H16F14872   4.525  -0.063   5.540  1.4165  0.0616  0.5835
  136OSM   H16G14873   4.627   0.064   5.611 -0.7410  3.5966  0.3911
  136OSM   C17F14874   4.560   0.100   5.407 -0.0635 -0.3677  0.5212
  136OSM   H17F14875   4.571   0.210   5.421 -1.6535 -0.0898 -0.1391
  136OSM   H17G14876   4.472   0.083   5.341 -0.7414 -0.2990  1.3909
  136OSM   C18F14877   4.685   0.042   5.336  1.0381 -0.3573  0.1152
  136OSM   H18F14878   4.685  -0.069   5.330 -1.6045 -0.6724  3.0243
  136OSM   H18G14879   4.777   0.085   5.381  0.2262  0.8864  0.6532
  136OSM   H18H14880   4.683   0.069   5.229  0.8753 -1.7854 -0.2638
  137OSM      N14881   0.411   6.473   7.839 -0.1743  0.8326 -0.8821
  137OSM    C1514882   0.520   6.375   7.889  0.5865  0.5341  0.8981
  137OSM   H15A14883   0.472   6.283   7.918 -0.4378  0.1806 -1.6513
  137OSM   H15B14884   0.576   6.420   7.970  0.6052  0.4724  0.9190
  137OSM   H15C14885   0.581   6.342   7.807 -2.1859 -1.2803 -0.6080
  137OSM    C1414886   0.317   6.508   7.947 -0.6007  0.3490  0.8764
  137OSM   H14A14887   0.261   6.423   7.981  0.9142 -1.1862 -0.3169
  137OSM   H14B14888   0.235   6.572   7.917 -1.5888 -0.5829  1.5342
  137OSM   H14C14889   0.386   6.554   8.018  1.7379 -0.3227 -0.8262
  137OSM    C1314890   0.484   6.595   7.793  0.0716 -0.1090  0.5746
  137OSM   H13A14891   0.420   6.682   7.785 -0.3041 -0.4129  0.1935
  137OSM   H13B14892   0.512   6.567   7.692  0.9728  0.0416  0.7736
  137OSM   H13C14893   0.579   6.606   7.844  0.7013 -2.2603 -0.0380
  137OSM    C1214894   0.337   6.409   7.719 -0.1637  0.2505 -0.4116
  137OSM   H12A14895   0.303   6.311   7.748  0.6720 -0.3116 -1.2718
  137OSM   H12B14896   0.415   6.383   7.649  1.0166  0.8612  0.6510
  137OSM    C1114897   0.226   6.491   7.655 -0.1488  0.7238  0.3321
  137OSM   H11A14898   0.198   6.427   7.569  1.3999 -1.5399  1.4185
  137OSM   H11B14899   0.278   6.585   7.629 -0.1101  0.1876 -1.7053
  137OSM      P14900   0.004   6.396   7.762 -0.0863 -0.4779 -0.2940
  137OSM    O1314901   0.084   6.273   7.799 -0.1051 -0.9469  0.1192
  137OSM    O1414902  -0.110   6.437   7.847 -0.5903 -0.2918  0.0063
  137OSM    O1114903  -0.051   6.367   7.619 -0.4769  0.2651  0.3314
  137OSM    O1214904   0.113   6.514   7.746 -0.5862  0.0176 -0.4225
  137OSM    C1S14905  -0.107   6.469   7.540  0.2530  0.1608 -0.3153
  137OSM    H1S14906  -0.021   6.539   7.534  2.5486 -1.9862  3.4963
  137OSM    H1T14907  -0.203   6.498   7.587  0.4264 -0.7283  0.6136
  137OSM     NF14908  -0.164   6.522   7.310  0.1234  0.0116 -0.1913
  137OSM    HNF14909  -0.254   6.564   7.301  0.2890 -0.0031 -2.1658
  137OSM    C2S14910  -0.135   6.415   7.399 -0.8903  0.7106  0.1301
  137OSM    H2S14911  -0.039   6.374   7.361 -1.0828  0.1236  0.2747
  137OSM    C3S14912  -0.238   6.300   7.404 -0.4088 -0.4726 -0.1357
  137OSM    H3S14913  -0.329   6.341   7.453  0.6193 -0.2580  1.6890
  137OSM     O314914  -0.189   6.187   7.476  0.8422  0.0554 -0.6000
  137OSM    HO314915  -0.115   6.228   7.522  2.5874 -2.3031 -1.0839
  137OSM    C4S14916  -0.264   6.254   7.261 -0.0914 -0.2173 -0.1594
  137OSM    H4S14917  -0.177   6.254   7.194  0.5645  0.5869  0.6609
  137OSM    C5S14918  -0.388   6.250   7.205  0.1779  0.0075  0.5195
  137OSM    H5S14919  -0.474   6.290   7.261 -0.6050 -0.8644 -0.0582
  137OSM    C6S14920  -0.422   6.214   7.062  0.3843 -0.4279 -0.0790
  137OSM    H6S14921  -0.514   6.153   7.067  0.9214 -1.1316  2.4704
  137OSM    H6T14922  -0.331   6.159   7.029  0.2051 -0.2872 -0.8234
  137OSM    C7S14923  -0.457   6.339   6.977 -0.4999  0.4893  0.7508
  137OSM    H7S14924  -0.367   6.405   6.980 -0.7489  0.8574  0.2858
  137OSM    H7T14925  -0.542   6.400   7.015  1.1695  2.4680  1.5119
  137OSM    C8S14926  -0.471   6.299   6.826 -0.3690  0.4502 -0.0763
  137OSM    H8S14927  -0.576   6.265   6.812 -0.6699  0.0080  2.6869
  137OSM    H8T14928  -0.402   6.214   6.806 -2.1391 -1.2566  0.7278
  137OSM    C9S14929  -0.439   6.414   6.729 -0.0488 -0.5407 -0.3602
  137OSM    H9S14930  -0.333   6.437   6.751  0.2460  0.0041 -2.1857
  137OSM    H9T14931  -0.504   6.503   6.744  3.3089  1.7866  1.5112
  137OSM   C10S14932  -0.463   6.372   6.586  0.3973  0.0247  0.0121
  137OSM   H10S14933  -0.570   6.345   6.574  0.3277  0.9251 -1.8189
  137OSM   H10T14934  -0.395   6.288   6.557  2.9814  1.7939  0.6255
  137OSM   C11S14935  -0.432   6.479   6.483 -0.4423 -0.5687  0.3481
  137OSM   H11S14936  -0.327   6.511   6.497 -0.4627  1.9250 -3.5754
  137OSM   H11T14937  -0.494   6.571   6.480  0.7907  0.2674 -0.2022
  137OSM   C12S14938  -0.422   6.417   6.344  0.1646 -0.0837  0.0007
  137OSM   H12S14939  -0.514   6.364   6.312  1.2811 -1.9265 -0.2512
  137OSM   H12T14940  -0.336   6.349   6.335  2.1898  2.3343  0.0102
  137OSM   C13S14941  -0.379   6.527   6.236  0.0889  0.6120  0.4531
  137OSM   H13S14942  -0.284   6.575   6.270 -0.6743  2.2712  0.3687
  137OSM   H13T14943  -0.451   6.612   6.236  0.4239  1.0413 -3.0308
  137OSM   C14S14944  -0.358   6.478   6.090 -0.3911  0.5607  0.1899
  137OSM   H14S14945  -0.465   6.467   6.064 -0.4762  3.1437 -0.8185
  137OSM   H14T14946  -0.302   6.382   6.087  2.5617  1.9804  3.1556
  137OSM   C15S14947  -0.284   6.590   6.000 -0.4279  0.3889  0.4502
  137OSM   H15S14948  -0.179   6.596   6.037 -0.4583  0.1857  0.5754
  137OSM   H15T14949  -0.334   6.681   6.037 -0.8478 -0.3100  1.6762
  137OSM   C16S14950  -0.288   6.558   5.845 -0.6322 -0.4319 -0.2113
  137OSM   H16S14951  -0.386   6.512   5.822 -0.0758 -0.9320 -1.7318
  137OSM   H16T14952  -0.207   6.484   5.823  0.9722  1.0635  0.4662
  137OSM   C17S14953  -0.270   6.685   5.751 -0.2796  0.0395  0.2051
  137OSM   H17S14954  -0.360   6.750   5.755 -1.7763 -1.8198 -1.0724
  137OSM   H17T14955  -0.262   6.652   5.645  0.3040  0.9190 -0.0355
  137OSM   C18S14956  -0.143   6.753   5.779 -0.4564  0.9878  0.0103
  137OSM   H18S14957  -0.054   6.687   5.777 -2.6223 -2.1240 -0.5302
  137OSM   H18T14958  -0.152   6.801   5.879 -1.2301 -2.0610  1.5062
  137OSM   H18U14959  -0.130   6.831   5.701 -3.7719 -0.6309 -2.4274
  137OSM    C1F14960  -0.066   6.606   7.272 -0.4438  0.3175  0.5625
  137OSM     OF14961   0.050   6.578   7.283 -0.1458  0.4525  0.3254
  137OSM    C2F14962  -0.110   6.741   7.207  0.1092 -0.3115  0.0555
  137OSM    H2F14963  -0.048   6.817   7.260 -0.2999 -0.4209  0.7084
  137OSM    H2G14964  -0.217   6.768   7.220  0.7865  2.0686  1.2860
  137OSM    C3F14965  -0.063   6.761   7.062 -0.0082 -0.0157 -0.0115
  137OSM    H3F14966  -0.117   6.689   6.997  1.6484 -0.0044 -1.4552
  137OSM    H3G14967   0.040   6.724   7.046 -0.7459 -0.9129 -3.6010
  137OSM    C4F14968  -0.050   6.904   7.006 -0.0117  0.1894  0.7429
  137OSM    H4F14969   0.028   6.968   7.053  0.1223  0.3894  0.2573
  137OSM    H4G14970  -0.141   6.962   7.033 -0.0623  2.6051 -3.6773
  137OSM    C5F14971  -0.029   6.919   6.855  0.6747  0.7913 -0.4050
  137OSM    H5F14972  -0.122   6.887   6.803  0.2348  2.6513 -0.8774
  137OSM    H5G14973   0.063   6.876   6.809  0.7549  0.6376 -0.1024
  137OSM    C6F14974  -0.040   7.075   6.821  0.1481  0.6157  0.2989
  137OSM    H6F14975   0.055   7.122   6.856  0.5475 -0.0236  0.0883
  137OSM    H6G14976  -0.136   7.109   6.866 -0.5685  0.7036 -1.2286
  137OSM    C7F14977  -0.035   7.109   6.670 -0.2584 -0.2012  0.2623
  137OSM    H7F14978  -0.125   7.076   6.615 -0.3830 -0.1525  0.4370
  137OSM    H7G14979   0.050   7.055   6.623 -1.1574 -3.4927  2.0996
  137OSM    C8F14980  -0.017   7.263   6.654 -0.4890  0.1814 -0.0637
  137OSM    H8F14981   0.079   7.298   6.699 -1.0741  1.8550 -0.0546
  137OSM    H8G14982  -0.101   7.314   6.705  1.1328  2.5029  0.4688
  137OSM    C9F14983  -0.035   7.299   6.509 -0.9616 -0.0710 -0.8014
  137OSM    H9F14984  -0.142   7.295   6.485 -1.1568  0.1034  0.0096
  137OSM   C10F14985   0.059   7.337   6.424  0.4629 -0.6205 -0.0686
  137OSM   H10F14986   0.023   7.371   6.325 -1.6810 -0.3025  0.7703
  137OSM   C11F14987   0.209   7.340   6.455 -0.5228  0.2746  0.3489
  137OSM   H11F14988   0.249   7.241   6.487 -2.8607 -0.5810  0.7852
  137OSM   H11G14989   0.241   7.413   6.533  1.5913  0.5491 -0.6876
  137OSM   C12F14990   0.298   7.359   6.332  0.2094  0.4544  0.5319
  137OSM   H12F14991   0.266   7.447   6.273  2.3713  1.4906  0.7813
  137OSM   H12G14992   0.294   7.274   6.260 -0.2238  0.7778  0.1717
  137OSM   C13F14993   0.451   7.369   6.370 -0.3012 -0.3000 -0.2992
  137OSM   H13F14994   0.463   7.303   6.458  0.6324  0.1659 -0.0568
  137OSM   H13G14995   0.473   7.471   6.409 -2.6107  0.1760 -0.1355
  137OSM   C14F14996   0.554   7.356   6.262  0.5403  0.5316  0.1636
  137OSM   H14F14997   0.548   7.248   6.236  3.4446  0.5074 -0.8231
  137OSM   H14G14998   0.660   7.371   6.291  1.3053 -0.4319 -1.9063
  137OSM   C15F14999   0.520   7.435   6.137 -0.0053 -0.3283 -0.1459
  137OSM   H15F15000   0.509   7.539   6.173  1.4569  1.0441 -3.2853
  137OSM   H15G15001   0.419   7.405   6.103 -0.1650  1.0016 -0.9230
  137OSM   C16F15002   0.620   7.425   6.025 -0.9628 -0.1284 -0.1693
  137OSM   H16F15003   0.688   7.339   6.040 -0.7270 -0.1858 -1.4515
  137OSM   H16G15004   0.676   7.521   6.021 -0.1849 -0.6222 -1.7697
  137OSM   C17F15005   0.567   7.393   5.886  1.0886  0.0719 -0.3229
  137OSM   H17F15006   0.485   7.321   5.910 -0.5013  2.0099  0.3157
  137OSM   H17G15007   0.637   7.337   5.820 -0.5432 -1.5875 -0.7334
  137OSM   C18F15008   0.502   7.513   5.812 -0.1532 -0.8174 -0.5182
  137OSM   H18F15009   0.447   7.470   5.726  2.4450 -3.6858 -0.9317
  137OSM   H18G15010   0.581   7.589   5.795 -0.5563 -0.5568 -1.2441
  137OSM   H18H15011   0.426   7.565   5.875  0.3403 -0.4954 -0.1808
  138OSM      N15012   3.040   4.888   7.329 -0.5669 -0.2683 -0.1070
  138OSM    C1515013   3.103   4.787   7.409 -0.4522 -0.5138  0.2405
  138OSM   H15A15014   3.060   4.787   7.508 -1.3168  2.8304 -0.0106
  138OSM   H15B15015   3.206   4.815   7.420 -1.3283  2.6877  1.3637
  138OSM   H15C15016   3.098   4.687   7.370 -2.2380  0.2038 -1.5327
  138OSM    C1415017   2.899   4.854   7.299 -0.0904  0.3247  0.5657
  138OSM   H14A15018   2.852   4.932   7.241 -1.4391  1.5381  3.1135
  138OSM   H14B15019   2.836   4.852   7.387 -1.7529  2.1350 -0.4987
  138OSM   H14C15020   2.895   4.754   7.258 -0.0806 -0.2198  1.8348
  138OSM    C1315021   3.051   5.025   7.397  0.6192 -0.0703  0.1100
  138OSM   H13A15022   3.013   5.103   7.332 -1.4440 -0.9331  0.2005
  138OSM   H13B15023   3.152   5.060   7.414  1.2443 -0.9341 -1.5611
  138OSM   H13C15024   2.996   5.031   7.489  1.0649 -1.7716  0.5221
  138OSM    C1215025   3.110   4.900   7.196 -0.2697  0.0177  0.1728
  138OSM   H12A15026   3.065   4.991   7.158 -1.4540 -0.1271  1.1862
  138OSM   H12B15027   3.077   4.815   7.139 -0.3505 -0.2344  0.5938
  138OSM    C1115028   3.273   4.916   7.197  1.3262 -0.4456 -0.0190
  138OSM   H11A15029   3.301   4.941   7.092 -1.0640  2.0255 -0.1913
  138OSM   H11B15030   3.310   4.814   7.221 -1.4083 -1.8987 -1.4880
  138OSM      P15031   3.425   5.016   7.378  0.1803  0.0861 -0.3631
  138OSM    O1315032   3.433   5.148   7.447  0.0082 -0.4168 -0.0905
  138OSM    O1415033   3.404   4.902   7.474  0.0215  0.8666 -0.0757
  138OSM    O1115034   3.558   4.992   7.296 -0.7988  0.0236  0.2518
  138OSM    O1215035   3.313   5.027   7.272  0.2721 -0.4054  0.0380
  138OSM    C1S15036   3.604   5.091   7.203 -0.2558  0.1243  0.1194
  138OSM    H1S15037   3.565   5.188   7.240  3.3414  0.7368  2.7388
  138OSM    H1T15038   3.569   5.062   7.101  2.2676  0.7480 -1.0040
  138OSM     NF15039   3.783   5.213   7.096  0.2740  0.0410 -0.2060
  138OSM    HNF15040   3.819   5.176   7.010  0.9851 -2.3986  1.0559
  138OSM    C2S15041   3.757   5.113   7.193  0.1639  1.1796 -0.9315
  138OSM    H2S15042   3.801   5.144   7.290 -1.6646 -1.0499  0.7265
  138OSM    C3S15043   3.826   4.974   7.176 -0.6070  0.1317 -0.2194
  138OSM    H3S15044   3.780   4.928   7.086  1.1532  0.5451 -1.3854
  138OSM     O315045   3.800   4.878   7.281 -0.3076  0.1619  0.1997
  138OSM    HO315046   3.709   4.896   7.306 -0.0937  1.9090 -0.1872
  138OSM    C4S15047   3.974   4.994   7.158 -0.1155 -0.7318  0.0675
  138OSM    H4S15048   4.013   5.037   7.252 -0.8395 -0.6576  0.3414
  138OSM    C5S15049   4.057   4.970   7.053  0.8061 -0.2083  0.7304
  138OSM    H5S15050   4.022   4.902   6.974  1.5902  0.0692  0.1270
  138OSM    C6S15051   4.205   4.995   7.041  0.3580 -0.2386 -0.1222
  138OSM    H6S15052   4.255   4.900   7.015  1.9002  0.5017  0.0186
  138OSM    H6T15053   4.247   5.026   7.139  0.9206  0.0890 -0.4647
  138OSM    C7S15054   4.241   5.109   6.948 -0.0347  0.3951  0.6372
  138OSM    H7S15055   4.195   5.205   6.980  1.4804  0.3452  3.2515
  138OSM    H7T15056   4.194   5.081   6.851 -2.9513  1.2998  1.6620
  138OSM    C8S15057   4.391   5.143   6.941  1.2654  0.1069 -0.1133
  138OSM    H8S15058   4.449   5.050   6.923 -0.3213 -0.3369 -3.6639
  138OSM    H8T15059   4.423   5.186   7.038 -0.4875  0.0293  0.5388
  138OSM    C9S15060   4.419   5.243   6.836 -0.0262  1.1121 -0.4712
  138OSM    H9S15061   4.529   5.251   6.826 -0.0938  3.1528 -0.0201
  138OSM    H9T15062   4.390   5.346   6.864 -1.4429  0.4521  0.5989
  138OSM   C10S15063   4.368   5.201   6.700  0.3389 -0.6507  0.1782
  138OSM   H10S15064   4.259   5.222   6.704  0.7151  1.8621 -0.9475
  138OSM   H10T15065   4.395   5.094   6.684 -1.4641 -0.9818 -0.9289
  138OSM   C11S15066   4.424   5.277   6.573  0.1070 -0.4652  0.4272
  138OSM   H11S15067   4.367   5.237   6.486  2.0377  2.9419 -2.6458
  138OSM   H11T15068   4.534   5.274   6.558  0.0959 -2.3481  0.3756
  138OSM   C12S15069   4.382   5.425   6.575  0.2298 -0.4580  1.2157
  138OSM   H12S15070   4.448   5.496   6.629 -0.4689 -0.0989  1.6154
  138OSM   H12T15071   4.282   5.422   6.624  0.4987 -1.7473  1.7160
  138OSM   C13S15072   4.361   5.474   6.436 -0.1277  0.0165  0.0906
  138OSM   H13S15073   4.273   5.416   6.402 -0.8065  0.7473  0.5669
  138OSM   H13T15074   4.447   5.444   6.373 -0.1230  0.0399  0.0854
  138OSM   C14S15075   4.338   5.623   6.432 -0.1260 -0.1997 -0.1534
  138OSM   H14S15076   4.424   5.673   6.482  0.5405  0.2093 -1.6607
  138OSM   H14T15077   4.246   5.651   6.487 -0.3851  0.3704 -0.8566
  138OSM   C15S15078   4.330   5.664   6.281  0.3989 -0.0242 -0.0464
  138OSM   H15S15079   4.253   5.604   6.227  1.2659 -1.0467 -0.1911
  138OSM   H15T15080   4.425   5.637   6.230  0.0316 -1.1836 -0.1592
  138OSM   C16S15081   4.309   5.818   6.280 -0.2306  0.3581 -0.5235
  138OSM   H16S15082   4.354   5.855   6.375  0.1498 -1.0833 -0.1218
  138OSM   H16T15083   4.201   5.840   6.294 -0.8294 -1.6793 -1.5375
  138OSM   C17S15084   4.381   5.884   6.157 -0.3608  0.2790 -0.4421
  138OSM   H17S15085   4.328   5.857   6.063 -0.1712  0.3660 -0.5748
  138OSM   H17T15086   4.486   5.847   6.149 -0.4614 -0.0281 -0.3636
  138OSM   C18S15087   4.385   6.039   6.172 -0.3132  0.0699  0.4206
  138OSM   H18S15088   4.466   6.089   6.115  0.7246 -2.3289 -0.3250
  138OSM   H18T15089   4.411   6.061   6.277  3.9137 -0.0702 -0.4454
  138OSM   H18U15090   4.288   6.089   6.149 -1.4278 -0.9263  2.6707
  138OSM    C1F15091   3.745   5.344   7.103 -0.3895  0.8705  0.1717
  138OSM     OF15092   3.679   5.394   7.192  0.1802  0.3770  0.5710
  138OSM    C2F15093   3.804   5.429   6.994  0.1359 -0.1088  0.2610
  138OSM    H2F15094   3.891   5.374   6.955  0.0503 -0.4523  0.5460
  138OSM    H2G15095   3.836   5.517   7.055  1.0383 -1.9810  2.6478
  138OSM    C3F15096   3.717   5.443   6.865  0.1215 -0.1736 -0.2497
  138OSM    H3F15097   3.628   5.496   6.904  0.1454 -2.4796  3.3264
  138OSM    H3G15098   3.675   5.349   6.825  0.4826  0.2713 -1.7743
  138OSM    C4F15099   3.785   5.518   6.751 -0.5575 -0.2174 -0.5097
  138OSM    H4F15100   3.863   5.450   6.711 -0.5468 -0.0151 -0.8343
  138OSM    H4G15101   3.840   5.605   6.790  0.4523 -1.0797  0.0472
  138OSM    C5F15102   3.704   5.548   6.628  0.4123  1.0074 -0.6351
  138OSM    H5F15103   3.642   5.637   6.653 -0.3820  0.2634  0.0903
  138OSM    H5G15104   3.634   5.465   6.607 -1.0917  1.9076  0.6207
  138OSM    C6F15105   3.776   5.602   6.510  0.5345  0.1767  0.3570
  138OSM    H6F15106   3.705   5.651   6.440 -1.3158 -2.6692  0.0528
  138OSM    H6G15107   3.808   5.510   6.456 -1.4789 -0.6112  0.3923
  138OSM    C7F15108   3.901   5.690   6.538  0.1939 -0.0227 -0.4816
  138OSM    H7F15109   3.975   5.617   6.578  1.5568  2.1794  1.2354
  138OSM    H7G15110   3.881   5.765   6.618  0.0339  0.8026 -1.2713
  138OSM    C8F15111   3.966   5.760   6.414  1.0195 -0.2567 -0.0642
  138OSM    H8F15112   4.058   5.811   6.451  1.5824 -0.9143 -0.5489
  138OSM    H8G15113   3.891   5.837   6.385  1.1154 -0.3099 -0.4639
  138OSM    C9F15114   3.995   5.660   6.308 -0.3897 -0.0225 -0.1603
  138OSM    H9F15115   4.049   5.570   6.339  0.4384  1.0029  1.5012
  138OSM   C10F15116   3.942   5.656   6.185 -0.6377 -0.0357  0.5541
  138OSM   H10F15117   3.970   5.576   6.114 -0.4244 -1.0335  1.7267
  138OSM   C11F15118   3.864   5.773   6.118 -0.6506  0.4475  0.5030
  138OSM   H11F15119   3.882   5.869   6.170  0.7909  0.4097  0.1316
  138OSM   H11G15120   3.757   5.747   6.131 -0.4759  0.4330  2.1435
  138OSM   C12F15121   3.893   5.785   5.968  0.9114  0.1424 -0.9203
  138OSM   H12F15122   3.838   5.876   5.936  2.6469  1.1762 -1.1025
  138OSM   H12G15123   3.856   5.693   5.919 -3.7779  0.9358  0.5753
  138OSM   C13F15124   4.040   5.804   5.937 -0.3501  0.6878 -0.2440
  138OSM   H13F15125   4.092   5.708   5.958  0.3740  1.1684  0.1775
  138OSM   H13G15126   4.082   5.889   5.994 -0.4759  0.6687 -0.1210
  138OSM   C14F15127   4.074   5.837   5.786  0.1030 -0.0288  0.3231
  138OSM   H14F15128   4.016   5.927   5.754 -0.1903  0.0993  1.2005
  138OSM   H14G15129   4.047   5.742   5.735 -0.9525  0.1529  0.5173
  138OSM   C15F15130   4.211   5.871   5.754  0.0571  0.0729 -0.0146
  138OSM   H15F15131   4.237   5.941   5.837  0.9139  0.0064 -0.2243
  138OSM   H15G15132   4.217   5.940   5.667 -1.8122  0.2620 -0.0288
  138OSM   C16F15133   4.313   5.762   5.762  0.2726  0.0836  0.3877
  138OSM   H16F15134   4.304   5.686   5.682  1.4328 -1.0398  1.2771
  138OSM   H16G15135   4.320   5.715   5.863  2.4406 -0.1975  0.1530
  138OSM   C17F15136   4.451   5.835   5.757 -0.0097 -0.7317 -0.1651
  138OSM   H17F15137   4.458   5.899   5.847 -0.9826  2.0402 -1.9431
  138OSM   H17G15138   4.440   5.890   5.661 -2.5420 -0.5486  0.1486
  138OSM   C18F15139   4.565   5.737   5.760 -0.0240  0.5228  0.2594
  138OSM   H18F15140   4.589   5.698   5.861 -0.4160  0.8604  0.4835
  138OSM   H18G15141   4.662   5.784   5.735  1.4506 -0.9015  2.8186
  138OSM   H18H15142   4.557   5.651   5.689  1.2356  0.1696  0.5220
  139OSM      N15143   6.655   1.668   7.687 -0.1687 -0.1398  0.2885
  139OSM    C1515144   6.750   1.741   7.602  0.4280  0.1787 -0.5392
  139OSM   H15A15145   6.698   1.775   7.514 -1.5438 -1.7152 -0.2011
  139OSM   H15B15146   6.832   1.675   7.574  1.1235 -0.8523  3.3443
  139OSM   H15C15147   6.788   1.831   7.647  1.3498  0.4901 -1.8676
  139OSM    C1415148   6.537   1.759   7.705 -0.2280  0.2015  0.1865
  139OSM   H14A15149   6.482   1.721   7.790 -0.3738 -0.6290 -0.2680
  139OSM   H14B15150   6.468   1.757   7.622  0.0921  0.8775 -0.0976
  139OSM   H14C15151   6.567   1.862   7.714  0.1501  0.2174 -1.0219
  139OSM    C1315152   6.619   1.537   7.622 -0.2091  0.8770  0.8682
  139OSM   H13A15153   6.567   1.554   7.529  0.0974 -1.9182  0.0913
  139OSM   H13B15154   6.553   1.473   7.680  0.5790 -0.0459  0.7766
  139OSM   H13C15155   6.706   1.477   7.599 -1.7376 -1.1642 -0.0232
  139OSM    C1215156   6.715   1.648   7.827 -0.0431  0.3981 -0.1531
  139OSM   H12A15157   6.642   1.589   7.881  0.3427  0.8551  0.9023
  139OSM   H12B15158   6.741   1.745   7.866 -2.8569  0.6189  1.4654
  139OSM    C1115159   6.851   1.570   7.839  0.2378  0.1502 -0.1930
  139OSM   H11A15160   6.839   1.482   7.772  0.0149 -0.4432  0.6000
  139OSM   H11B15161   6.849   1.536   7.945  0.3191  1.7117  0.3290
  139OSM      P15162   7.097   1.573   7.787 -0.4014  0.1301 -0.5865
  139OSM    O1315163   7.218   1.631   7.849  0.2245 -0.1340 -0.3066
  139OSM    O1415164   7.063   1.430   7.813 -0.4103 -0.1486 -0.0117
  139OSM    O1115165   7.122   1.576   7.631  0.2297  0.1157  0.5968
  139OSM    O1215166   6.961   1.658   7.800 -0.3959 -0.2708  0.4005
  139OSM    C1S15167   7.041   1.503   7.542 -0.4612 -0.1803 -0.9245
  139OSM    H1S15168   6.934   1.532   7.551 -0.0854  1.0910 -0.3676
  139OSM    H1T15169   7.059   1.397   7.569  2.5597  0.3745 -0.3499
  139OSM     NF15170   6.984   1.447   7.309  0.0964 -0.3416  0.5084
  139OSM    HNF15171   7.008   1.354   7.282  2.8032  0.3527  0.2631
  139OSM    C2S15172   7.081   1.519   7.395 -0.5446 -0.3597  0.6279
  139OSM    H2S15173   7.070   1.626   7.367  0.6496 -0.1807  0.7627
  139OSM    C3S15174   7.231   1.487   7.364 -0.3707  0.2960  0.9238
  139OSM    H3S15175   7.242   1.377   7.365 -0.8668  0.2297 -0.1169
  139OSM     O315176   7.324   1.537   7.462  0.2063  0.5346 -0.1177
  139OSM    HO315177   7.272   1.602   7.509 -2.5770 -0.4475 -1.6081
  139OSM    C4S15178   7.271   1.532   7.225  0.0592  0.3962  0.1288
  139OSM    H4S15179   7.247   1.456   7.149  1.8646 -1.6801  1.5096
  139OSM    C5S15180   7.352   1.627   7.180 -0.4202  0.4207 -0.0358
  139OSM    H5S15181   7.409   1.686   7.253  2.2030 -1.1672 -0.6719
  139OSM    C6S15182   7.388   1.643   7.033  0.0982  0.2652  0.5419
  139OSM    H6S15183   7.498   1.658   7.033  0.1210  0.1887 -0.8326
  139OSM    H6T15184   7.344   1.736   6.992  3.1961  1.9777  0.7359
  139OSM    C7S15185   7.352   1.527   6.942  0.2075 -0.2591  0.6216
  139OSM    H7S15186   7.243   1.526   6.922  0.0788 -1.7609  1.2866
  139OSM    H7T15187   7.399   1.443   6.998  2.9430 -0.8284 -2.2523
  139OSM    C8S15188   7.420   1.536   6.802  0.9384 -0.6847  0.2552
  139OSM    H8S15189   7.386   1.444   6.750  0.3594 -0.0501 -0.5070
  139OSM    H8T15190   7.529   1.523   6.821  0.9424 -2.0802 -0.5625
  139OSM    C9S15191   7.379   1.662   6.724 -0.4033 -0.0922  0.4075
  139OSM    H9S15192   7.439   1.746   6.766  0.4333 -0.7633  0.5968
  139OSM    H9T15193   7.273   1.690   6.736  0.0419  2.3597 -0.8456
  139OSM   C10S15194   7.407   1.646   6.572  0.0094  0.0888  0.8251
  139OSM   H10S15195   7.345   1.574   6.514  1.2896  0.5369 -1.1855
  139OSM   H10T15196   7.510   1.606   6.556 -0.6357 -2.6010  2.5804
  139OSM   C11S15197   7.391   1.784   6.509 -0.4074  0.4475  0.1352
  139OSM   H11S15198   7.470   1.844   6.559  1.6432 -1.6831 -0.3677
  139OSM   H11T15199   7.297   1.829   6.546 -0.2346 -0.8714  2.3569
  139OSM   C12S15200   7.393   1.794   6.352 -0.2505  0.3608  0.0700
  139OSM   H12S15201   7.297   1.756   6.311 -1.4741  1.6818  1.5390
  139OSM   H12T15202   7.490   1.747   6.326  0.7145  3.0074 -1.6021
  139OSM   C13S15203   7.404   1.938   6.315 -0.2041 -0.3986  0.0507
  139OSM   H13S15204   7.505   1.979   6.338  0.2971 -1.6461  0.1641
  139OSM   H13T15205   7.328   1.997   6.371  2.0102  0.6500  2.1378
  139OSM   C14S15206   7.367   1.961   6.170  1.2280 -0.3462  0.0740
  139OSM   H14S15207   7.269   1.912   6.153  1.0937 -0.3597  0.8324
  139OSM   H14T15208   7.422   1.908   6.090 -2.7730  0.7918 -3.8406
  139OSM   C15S15209   7.356   2.105   6.124 -1.0970 -0.4500  0.8562
  139OSM   H15S15210   7.285   2.157   6.192  0.4930  0.9426  1.5332
  139OSM   H15T15211   7.310   2.122   6.024  1.4323  0.0238 -0.2933
  139OSM   C16S15212   7.492   2.183   6.111  0.4517  0.1274 -0.8733
  139OSM   H16S15213   7.556   2.116   6.050 -0.8453  0.2651 -2.4598
  139OSM   H16T15214   7.537   2.201   6.211 -0.4848 -0.3079 -0.3675
  139OSM   C17S15215   7.497   2.312   6.023  0.3727 -0.0164  0.3865
  139OSM   H17S15216   7.416   2.385   6.042 -0.7370 -0.9643 -0.5759
  139OSM   H17T15217   7.479   2.280   5.918 -1.7139 -0.6806  0.9015
  139OSM   C18S15218   7.639   2.380   6.019  1.3941  0.3133 -0.0146
  139OSM   H18S15219   7.705   2.294   5.995 -0.7795 -1.6590  0.5871
  139OSM   H18T15220   7.657   2.418   6.122  0.2174  2.2996 -0.4981
  139OSM   H18U15221   7.643   2.465   5.948 -1.5175  0.3586 -0.2575
  139OSM    C1F15222   6.859   1.496   7.293 -0.2289  0.9615  0.4661
  139OSM     OF15223   6.818   1.592   7.357 -0.6280  0.6301  0.1502
  139OSM    C2F15224   6.772   1.425   7.190  0.8962 -0.1988 -0.0864
  139OSM    H2F15225   6.742   1.326   7.231 -0.1616 -0.1469 -0.6998
  139OSM    H2G15226   6.819   1.420   7.089 -1.1713  0.6564 -1.1562
  139OSM    C3F15227   6.640   1.497   7.168  0.1223  0.0142 -0.7637
  139OSM    H3F15228   6.659   1.607   7.173 -0.8314  0.1438  1.6370
  139OSM    H3G15229   6.576   1.476   7.256 -0.7888 -0.1197 -1.4420
  139OSM    C4F15230   6.544   1.460   7.048 -0.1098  0.3558 -0.0422
  139OSM    H4F15231   6.450   1.520   7.050  0.4146  1.7192 -4.5167
  139OSM    H4G15232   6.507   1.356   7.041 -2.8915  1.2324  0.3957
  139OSM    C5F15233   6.612   1.479   6.906 -0.1249  0.4440 -0.0392
  139OSM    H5F15234   6.685   1.398   6.883 -0.7678  0.4579 -2.2729
  139OSM    H5G15235   6.676   1.570   6.917 -0.2023  0.6672 -1.3691
  139OSM    C6F15236   6.527   1.490   6.784  0.3548  0.2598  0.4559
  139OSM    H6F15237   6.446   1.563   6.807  0.3592  1.0943 -1.8898
  139OSM    H6G15238   6.480   1.394   6.754 -0.5141  0.7280  0.2970
  139OSM    C7F15239   6.596   1.559   6.668 -0.2289  0.0235  0.3252
  139OSM    H7F15240   6.680   1.495   6.634 -0.7576 -0.2596 -0.4982
  139OSM    H7G15241   6.642   1.655   6.699 -0.1645  0.1518 -0.1684
  139OSM    C8F15242   6.506   1.606   6.555 -0.1247  0.1763  0.7770
  139OSM    H8F15243   6.572   1.656   6.481 -2.1101 -1.2459 -2.1737
  139OSM    H8G15244   6.434   1.681   6.593 -0.1273  0.7061 -0.2378
  139OSM    C9F15245   6.426   1.496   6.489  0.1138 -0.8461 -0.1920
  139OSM    H9F15246   6.414   1.410   6.557  1.9472 -0.3602  0.8173
  139OSM   C10F15247   6.398   1.494   6.362  0.1694 -0.2757  0.5274
  139OSM   H10F15248   6.339   1.411   6.320 -2.0820  1.0222  0.9545
  139OSM   C11F15249   6.408   1.613   6.271  0.0506 -0.2214  0.0241
  139OSM   H11F15250   6.421   1.705   6.332  1.9705 -0.1343 -0.4307
  139OSM   H11G15251   6.316   1.618   6.209  0.5199 -1.2119 -0.7923
  139OSM   C12F15252   6.526   1.595   6.179  0.0252  0.1357 -0.5407
  139OSM   H12F15253   6.529   1.500   6.122 -0.8705  0.1973 -0.7025
  139OSM   H12G15254   6.624   1.595   6.231 -0.0236 -0.8865 -0.4340
  139OSM   C13F15255   6.541   1.711   6.078  0.4695  0.2650  0.1566
  139OSM   H13F15256   6.556   1.812   6.122  1.3625  0.2266 -0.0381
  139OSM   H13G15257   6.435   1.709   6.046  0.4293  0.5118  0.2703
  139OSM   C14F15258   6.639   1.672   5.971 -0.0978 -0.7853 -0.1252
  139OSM   H14F15259   6.610   1.576   5.924 -0.3782 -1.7403  1.9115
  139OSM   H14G15260   6.738   1.665   6.021 -0.3459  2.7904  1.1596
  139OSM   C15F15261   6.641   1.780   5.862  0.0241 -0.2156 -0.2798
  139OSM   H15F15262   6.654   1.879   5.910 -1.6411 -0.7613  1.4292
  139OSM   H15G15263   6.538   1.788   5.821 -0.3253  0.7271  0.7221
  139OSM   C16F15264   6.745   1.733   5.763  0.3165  0.4425  0.7417
  139OSM   H16F15265   6.739   1.622   5.757  1.0958  0.4019  0.6713
  139OSM   H16G15266   6.840   1.762   5.812 -0.6024  2.5158  1.3751
  139OSM   C17F15267   6.731   1.805   5.629  0.2454  0.0460  0.2608
  139OSM   H17F15268   6.738   1.914   5.649  1.3854  0.2769 -1.2269
  139OSM   H17G15269   6.635   1.778   5.579  0.4750 -0.6141  0.1661
  139OSM   C18F15270   6.843   1.781   5.534  0.1362  0.0114 -0.2613
  139OSM   H18F15271   6.851   1.852   5.449  0.3408  0.9631  0.5314
  139OSM   H18G15272   6.840   1.673   5.508  1.7806 -0.5936  1.7824
  139OSM   H18H15273   6.941   1.803   5.582  1.2042  0.7334 -2.6345
  140OSM      N15274   5.371   6.401   7.636  0.1227  0.1788 -0.1821
  140OSM    C1515275   5.285   6.469   7.740 -0.8282 -0.3710  0.0683
  140OSM   H15A15276   5.273   6.398   7.820  1.4199 -1.0839 -0.1637
  140OSM   H15B15277   5.193   6.502   7.693  0.1687  2.0691 -0.3239
  140OSM   H15C15278   5.325   6.561   7.780  2.8640 -2.1857  0.9262
  140OSM    C1415279   5.313   6.269   7.604 -0.1832  0.5434  0.2502
  140OSM   H14A15280   5.212   6.268   7.566 -0.6323  0.7918  1.3825
  140OSM   H14B15281   5.307   6.197   7.685 -0.9389  0.5914  0.2438
  140OSM   H14C15282   5.370   6.228   7.521 -3.3386 -1.0490 -1.3098
  140OSM    C1315283   5.370   6.492   7.511 -0.5488  0.3509 -0.0954
  140OSM   H13A15284   5.403   6.595   7.519 -1.1863  0.5662 -0.1101
  140OSM   H13B15285   5.267   6.493   7.479 -0.7003  2.2629  0.3360
  140OSM   H13C15286   5.427   6.446   7.433  0.4884  1.2457  0.1072
  140OSM    C1215287   5.512   6.379   7.701 -0.5684 -0.1443 -0.0628
  140OSM   H12A15288   5.502   6.309   7.783 -1.5284  0.4574  0.3517
  140OSM   H12B15289   5.541   6.470   7.751 -0.5144 -0.8561  1.2548
  140OSM    C1115290   5.630   6.349   7.607  0.2298 -0.1649 -0.0485
  140OSM   H11A15291   5.605   6.263   7.541 -1.7567  1.0636 -1.0196
  140OSM   H11B15292   5.710   6.295   7.661 -1.1577 -1.0581  1.2072
  140OSM      P15293   5.736   6.582   7.591  0.0890  0.2833 -0.2825
  140OSM    O1315294   5.633   6.656   7.669 -0.3210 -0.5228 -0.0118
  140OSM    O1415295   5.852   6.535   7.661  0.6331 -0.6406  0.1205
  140OSM    O1115296   5.779   6.657   7.467 -0.3168 -0.6935 -0.4502
  140OSM    O1215297   5.664   6.459   7.517 -0.0919 -0.0314 -0.1990
  140OSM    C1S15298   5.869   6.587   7.368  0.5736 -0.3513 -0.1730
  140OSM    H1S15299   5.882   6.479   7.391 -0.2629 -0.7480 -1.4505
  140OSM    H1T15300   5.969   6.634   7.352 -0.3939  2.6669  1.8709
  140OSM     NF15301   5.893   6.534   7.121  0.0103  0.2674 -0.0221
  140OSM    HNF15302   5.943   6.588   7.055 -0.8070  1.6904  0.4720
  140OSM    C2S15303   5.814   6.599   7.223 -0.3418 -0.4301  0.4985
  140OSM    H2S15304   5.711   6.557   7.231 -0.6512  0.1796 -0.1474
  140OSM    C3S15305   5.799   6.747   7.190  0.0450  0.0288  0.2970
  140OSM    H3S15306   5.905   6.779   7.203 -0.0024 -0.2019  1.3558
  140OSM     O315307   5.731   6.829   7.283  0.5241 -0.3100 -0.1160
  140OSM    HO315308   5.726   6.777   7.364  1.6902 -0.2314  0.0255
  140OSM    C4S15309   5.745   6.786   7.051  0.4483 -0.5753  0.0673
  140OSM    H4S15310   5.827   6.796   6.978  0.4422  2.7048  0.3248
  140OSM    C5S15311   5.615   6.816   7.015 -0.2100  0.5385 -0.4127
  140OSM    H5S15312   5.542   6.813   7.098 -0.7967 -3.1053 -0.9326
  140OSM    C6S15313   5.568   6.851   6.882  0.0949 -0.9159  0.0049
  140OSM    H6S15314   5.534   6.956   6.892  1.1232 -0.6778  1.4300
  140OSM    H6T15315   5.479   6.791   6.854  0.8426 -1.3548 -1.5669
  140OSM    C7S15316   5.674   6.853   6.777 -0.2437 -0.2377  0.0190
  140OSM    H7S15317   5.701   6.747   6.757  1.8959  0.1585  0.6239
  140OSM    H7T15318   5.761   6.914   6.807 -0.0091 -1.2054  1.4403
  140OSM    C8S15319   5.632   6.909   6.637  0.0069  0.0012  0.1342
  140OSM    H8S15320   5.608   7.016   6.656 -0.5938  0.3264 -2.1663
  140OSM    H8T15321   5.538   6.863   6.601 -0.9759  0.8685  1.4837
  140OSM    C9S15322   5.738   6.901   6.527  0.0990 -0.4620  0.4787
  140OSM    H9S15323   5.753   6.797   6.490  2.5919 -0.2082  0.5983
  140OSM    H9T15324   5.839   6.940   6.555  0.4715 -2.0214  1.4276
  140OSM   C10S15325   5.704   6.987   6.404 -0.0645  0.4762 -0.1063
  140OSM   H10S15326   5.704   7.096   6.426 -1.1253  1.1967 -3.1787
  140OSM   H10T15327   5.599   6.959   6.380  0.5596 -1.6686 -0.5426
  140OSM   C11S15328   5.799   6.962   6.283 -0.2101 -0.4801 -1.1851
  140OSM   H11S15329   5.780   6.866   6.230  1.9047 -1.0898 -0.9395
  140OSM   H11T15330   5.905   6.947   6.312 -0.6899  0.5728  1.4021
  140OSM   C12S15331   5.794   7.078   6.189  0.2749  0.2604  0.4060
  140OSM   H12S15332   5.791   7.176   6.241 -1.8665  0.5185 -0.0718
  140OSM   H12T15333   5.692   7.068   6.145  0.1404 -1.8181  1.0799
  140OSM   C13S15334   5.895   7.065   6.085  0.0271  0.1213 -0.3267
  140OSM   H13S15335   5.905   6.957   6.063  0.6006 -0.3974  2.1339
  140OSM   H13T15336   5.993   7.077   6.137 -1.3457 -1.2251  2.8255
  140OSM   C14S15337   5.872   7.145   5.961 -0.6393 -0.0520  0.2521
  140OSM   H14S15338   5.851   7.249   5.994 -0.6702 -0.1957  0.6875
  140OSM   H14T15339   5.780   7.116   5.905 -0.2162 -0.3825 -0.2890
  140OSM   C15S15340   5.985   7.141   5.860 -0.2752  0.3014 -0.2796
  140OSM   H15S15341   6.043   7.046   5.869 -2.5823 -1.1551  0.1184
  140OSM   H15T15342   6.050   7.228   5.883  0.5914 -0.0884 -1.1934
  140OSM   C16S15343   5.929   7.165   5.718  0.3652 -0.4230  0.1307
  140OSM   H16S15344   5.878   7.263   5.706 -2.4050 -1.9969 -2.2749
  140OSM   H16T15345   5.849   7.090   5.697 -0.2983  0.2874  0.0910
  140OSM   C17S15346   6.037   7.154   5.610  0.5689 -0.3665  0.8692
  140OSM   H17S15347   5.989   7.179   5.513 -0.3767 -0.8183  1.2090
  140OSM   H17T15348   6.068   7.047   5.619 -1.7516 -1.2963 -1.0668
  140OSM   C18S15349   6.150   7.254   5.643  0.3353  0.3968  0.3161
  140OSM   H18S15350   6.228   7.228   5.717  0.4269 -0.9847 -0.2478
  140OSM   H18T15351   6.111   7.356   5.667 -1.9994 -0.2448 -0.4305
  140OSM   H18U15352   6.211   7.277   5.553 -0.4074  0.2487 -0.2337
  140OSM    C1F15353   5.902   6.401   7.103  0.0490  0.0779 -0.3039
  140OSM     OF15354   5.816   6.331   7.150  0.0971  0.0743  0.0683
  140OSM    C2F15355   6.017   6.335   7.022 -0.2109 -0.5156  0.2369
  140OSM    H2F15356   6.078   6.269   7.088 -0.1102 -0.4935  0.1650
  140OSM    H2G15357   6.087   6.415   6.992 -0.7317  0.4676  1.5095
  140OSM    C3F15358   5.971   6.264   6.900  0.0050  0.5870  0.1680
  140OSM    H3F15359   5.911   6.173   6.920 -2.7531  1.1024 -4.4351
  140OSM    H3G15360   6.063   6.222   6.855  0.4428 -0.8177  2.2185
  140OSM    C4F15361   5.907   6.359   6.792 -0.3457  0.7717 -0.7231
  140OSM    H4F15362   5.831   6.425   6.839 -1.8610 -0.6626 -1.0542
  140OSM    H4G15363   5.850   6.297   6.720 -1.0477 -1.2985  1.4799
  140OSM    C5F15364   6.006   6.433   6.720  0.0553 -0.1500 -0.2698
  140OSM    H5F15365   6.075   6.359   6.674  1.0238  0.5892 -0.0326
  140OSM    H5G15366   6.053   6.511   6.783 -1.8378  1.1534 -0.3822
  140OSM    C6F15367   5.949   6.501   6.594 -0.1398 -0.2025 -0.3627
  140OSM    H6F15368   5.897   6.595   6.622 -0.3467 -0.7405  1.1975
  140OSM    H6G15369   5.880   6.430   6.545 -0.8337 -0.5779  1.1081
  140OSM    C7F15370   6.068   6.527   6.499 -0.0639 -0.3118 -0.3829
  140OSM    H7F15371   6.086   6.432   6.444 -1.2387  0.9932 -3.2716
  140OSM    H7G15372   6.161   6.543   6.556  1.3537 -0.7004 -2.4702
  140OSM    C8F15373   6.060   6.636   6.389 -0.0150  1.2817 -0.5478
  140OSM    H8F15374   6.166   6.633   6.356 -0.8616 -1.7923 -3.5443
  140OSM    H8G15375   6.054   6.731   6.448  1.6419  2.1324 -1.6753
  140OSM    C9F15376   5.965   6.630   6.269 -0.3905 -0.0846 -0.7430
  140OSM    H9F15377   5.859   6.638   6.296 -0.0571 -1.7748  1.2778
  140OSM   C10F15378   6.010   6.633   6.146 -0.4198 -0.0654 -0.2090
  140OSM   H10F15379   5.935   6.661   6.070  0.3337 -1.0847 -1.3597
  140OSM   C11F15380   6.151   6.646   6.087 -0.4172  0.6725 -0.2500
  140OSM   H11F15381   6.197   6.545   6.073  0.0211  0.2723  3.1525
  140OSM   H11G15382   6.212   6.702   6.161 -1.8707  1.6782  0.2156
  140OSM   C12F15383   6.165   6.722   5.954 -0.0524  0.0968 -0.2510
  140OSM   H12F15384   6.273   6.746   5.956  0.6959 -2.9142  0.5060
  140OSM   H12G15385   6.117   6.822   5.953 -0.8182 -0.2632 -0.1798
  140OSM   C13F15386   6.134   6.629   5.841  0.6874  0.5832  0.3506
  140OSM   H13F15387   6.036   6.582   5.863  0.7350 -0.5112 -1.5697
  140OSM   H13G15388   6.205   6.544   5.836 -0.7814 -0.7885  1.7188
  140OSM   C14F15389   6.120   6.702   5.702  0.4201 -0.3113 -0.1436
  140OSM   H14F15390   6.054   6.790   5.718 -0.9187 -1.6078  1.9596
  140OSM   H14G15391   6.075   6.623   5.638  0.0327 -1.2524  1.2460
  140OSM   C15F15392   6.259   6.754   5.658  0.2405 -0.5067  0.4771
  140OSM   H15F15393   6.342   6.680   5.670 -0.9812 -1.9494  0.3958
  140OSM   H15G15394   6.283   6.837   5.727 -0.0988 -0.3942  0.4614
  140OSM   C16F15395   6.252   6.815   5.509 -0.4158 -0.1287 -0.3579
  140OSM   H16F15396   6.159   6.875   5.500 -0.6034 -0.5168 -1.0526
  140OSM   H16G15397   6.239   6.730   5.439 -2.3668 -0.3800  0.2424
  140OSM   C17F15398   6.373   6.908   5.486 -0.3402  1.0375 -0.2075
  140OSM   H17F15399   6.464   6.867   5.534  0.0386  2.1304  0.0387
  140OSM   H17G15400   6.343   6.993   5.551 -2.2179 -0.7459  1.3816
  140OSM   C18F15401   6.400   6.926   5.343  0.1078 -0.2547 -0.1252
  140OSM   H18F15402   6.490   6.989   5.326 -0.2752  0.8852  1.7964
  140OSM   H18G15403   6.319   6.973   5.282  1.8977 -1.3594 -3.6128
  140OSM   H18H15404   6.410   6.832   5.284  1.8774 -0.3294  0.2425
  141OSM      N15405   5.120   5.603   7.988  0.2581  0.2570 -0.8391
  141OSM    C1515406   5.134   5.460   8.032  0.0382 -0.2206 -0.0331
  141OSM   H15A15407   5.200   5.448   8.116 -0.0003 -1.1072 -0.1165
  141OSM   H15B15408   5.175   5.396   7.956 -1.5970  0.5906 -1.6991
  141OSM   H15C15409   5.038   5.413   8.046  0.1353 -0.7517 -1.0577
  141OSM    C1415410   5.059   5.674   8.104 -0.0179 -0.0261  0.5303
  141OSM   H14A15411   5.045   5.775   8.069  2.4997  0.2698  0.2036
  141OSM   H14B15412   5.122   5.665   8.191  2.5798  1.9574 -1.0086
  141OSM   H14C15413   4.969   5.622   8.133  1.0275 -1.2264  1.7706
  141OSM    C1315414   5.253   5.658   7.945  0.1692  0.3244  0.0150
  141OSM   H13A15415   5.234   5.748   7.889 -0.0947  0.6797  0.6612
  141OSM   H13B15416   5.300   5.595   7.870  0.8028  0.8390 -0.0293
  141OSM   H13C15417   5.328   5.666   8.023  3.8522  0.1585 -3.1835
  141OSM    C1215418   5.018   5.602   7.868 -0.5950 -0.4075  0.2458
  141OSM   H12A15419   4.928   5.546   7.891 -0.4939  0.6377  3.6445
  141OSM   H12B15420   5.069   5.545   7.791  2.0737 -0.6765  2.0802
  141OSM    C1115421   4.975   5.734   7.811  0.2562  0.4015  0.2511
  141OSM   H11A15422   4.949   5.803   7.894  0.2075  0.0977  0.4919
  141OSM   H11B15423   4.882   5.722   7.752  1.9077 -0.5494 -2.3227
  141OSM      P15424   5.127   5.719   7.595 -0.4265 -0.3058 -0.6458
  141OSM    O1315425   5.221   5.816   7.533  0.2405 -0.0583 -0.2521
  141OSM    O1415426   5.182   5.586   7.620 -0.6427 -0.1432  0.0929
  141OSM    O1115427   5.008   5.697   7.505 -0.1561  0.2749 -0.3272
  141OSM    O1215428   5.066   5.794   7.723  0.2518 -0.4192  0.3542
  141OSM    C1S15429   4.934   5.796   7.442 -0.4344  0.1066 -0.9929
  141OSM    H1S15430   4.985   5.895   7.440 -1.6786  0.7641 -1.1527
  141OSM    H1T15431   4.844   5.817   7.505 -0.8248  3.2238 -2.3695
  141OSM     NF15432   4.833   5.880   7.234 -0.3007  0.0778  0.6609
  141OSM    HNF15433   4.735   5.878   7.216 -0.5230  1.8935  1.4192
  141OSM    C2S15434   4.892   5.765   7.299 -0.0035  0.2524  0.0177
  141OSM    H2S15435   4.984   5.741   7.241 -1.1304 -3.0513 -0.5680
  141OSM    C3S15436   4.800   5.632   7.292  0.1423  0.4396 -0.0501
  141OSM    H3S15437   4.704   5.644   7.346 -0.5069  1.8364 -1.4127
  141OSM     O315438   4.866   5.528   7.360  0.0424 -0.1378  0.1129
  141OSM    HO315439   4.930   5.583   7.407 -0.7717  0.9075  0.0491
  141OSM    C4S15440   4.767   5.597   7.150 -0.7629  0.5133 -0.0287
  141OSM    H4S15441   4.861   5.604   7.093  0.2979  2.1662  1.8118
  141OSM    C5S15442   4.653   5.557   7.092  0.2738 -0.2170  0.3071
  141OSM    H5S15443   4.556   5.551   7.144  0.4122  1.3184  0.7834
  141OSM    C6S15444   4.636   5.529   6.950 -0.0612  0.4774  0.7987
  141OSM    H6S15445   4.557   5.600   6.917 -2.4716 -1.7062  1.5229
  141OSM    H6T15446   4.583   5.432   6.937 -0.9741  0.7339  2.3393
  141OSM    C7S15447   4.758   5.527   6.855  0.7153 -0.0011  0.3725
  141OSM    H7S15448   4.839   5.458   6.885  0.3772 -0.7388 -0.3468
  141OSM    H7T15449   4.807   5.627   6.858 -1.1248  0.9430  0.4220
  141OSM    C8S15450   4.721   5.508   6.702 -0.0400  0.2831 -0.3116
  141OSM    H8S15451   4.649   5.587   6.673 -0.1129 -0.5547 -2.6497
  141OSM    H8T15452   4.671   5.410   6.696 -1.6081  1.0052  0.4157
  141OSM    C9S15453   4.843   5.512   6.618  0.8206 -0.6285  0.2457
  141OSM    H9S15454   4.914   5.434   6.653 -0.3913 -1.1109  1.7742
  141OSM    H9T15455   4.902   5.605   6.626 -2.2512  1.4272  0.9761
  141OSM   C10S15456   4.800   5.506   6.474  0.2148  0.5840 -0.0756
  141OSM   H10S15457   4.739   5.595   6.449 -0.7317 -0.1163 -0.3261
  141OSM   H10T15458   4.736   5.417   6.458 -0.1307  0.4904  1.6127
  141OSM   C11S15459   4.915   5.525   6.370 -0.5858  0.1399 -0.1506
  141OSM   H11S15460   5.005   5.477   6.415 -0.2273  0.5651 -0.4141
  141OSM   H11T15461   4.945   5.632   6.373  0.3100 -0.1203  0.5753
  141OSM   C12S15462   4.872   5.486   6.235  0.5201 -0.4598 -0.4631
  141OSM   H12S15463   4.789   5.545   6.192  0.6570 -1.4364 -2.1519
  141OSM   H12T15464   4.831   5.382   6.229 -0.5621 -0.0296 -0.7468
  141OSM   C13S15465   4.999   5.487   6.140  0.0385 -0.4428 -0.6588
  141OSM   H13S15466   5.071   5.411   6.177  0.3540 -0.2877 -0.9566
  141OSM   H13T15467   5.050   5.585   6.133 -1.7965  0.6724  0.4476
  141OSM   C14S15468   4.974   5.435   5.995  0.2325  0.3985  0.6959
  141OSM   H14S15469   4.918   5.339   5.999 -1.4489  1.3422  1.2018
  141OSM   H14T15470   5.072   5.410   5.950 -0.9495 -1.5792 -0.9693
  141OSM   C15S15471   4.898   5.531   5.894 -0.1292  0.3462 -0.1104
  141OSM   H15S15472   4.953   5.628   5.894  1.8888 -0.5984  3.2208
  141OSM   H15T15473   4.798   5.550   5.938  0.5642  3.4167  0.3557
  141OSM   C16S15474   4.893   5.485   5.746  0.1524  0.0525 -0.4592
  141OSM   H16S15475   4.999   5.470   5.718  0.1482 -0.7556 -0.0792
  141OSM   H16T15476   4.857   5.568   5.681 -0.5410 -1.7598 -2.4980
  141OSM   C17S15477   4.813   5.354   5.734  0.1131  0.0440 -0.0858
  141OSM   H17S15478   4.708   5.374   5.765  0.7712  2.0877  1.0696
  141OSM   H17T15479   4.844   5.275   5.805 -1.4643 -1.0708 -0.6019
  141OSM   C18S15480   4.810   5.291   5.599  0.1469 -0.6199 -0.3441
  141OSM   H18S15481   4.740   5.206   5.613  1.4095 -1.2233  3.3456
  141OSM   H18T15482   4.906   5.247   5.564  1.3163  1.1216  0.5338
  141OSM   H18U15483   4.762   5.363   5.529  3.1045  1.7852 -0.1326
  141OSM    C1F15484   4.909   5.980   7.193  0.3639 -0.1390 -0.4604
  141OSM     OF15485   5.027   5.984   7.210 -0.0917 -0.3635  0.1455
  141OSM    C2F15486   4.835   6.084   7.118 -0.1502  0.1421  0.1017
  141OSM    H2F15487   4.847   6.173   7.183 -1.7466 -1.5217  2.9351
  141OSM    H2G15488   4.725   6.071   7.107 -0.4127  1.8391  0.4921
  141OSM    C3F15489   4.894   6.108   6.980  0.0137 -0.2749 -0.5073
  141OSM    H3F15490   4.995   6.155   6.984  0.7864 -1.8801 -0.3592
  141OSM    H3G15491   4.834   6.194   6.943  2.8962  1.5385 -1.3337
  141OSM    C4F15492   4.894   5.983   6.879 -0.4189 -0.0350  0.4335
  141OSM    H4F15493   4.945   5.894   6.922  1.3641 -0.0934 -1.5745
  141OSM    H4G15494   4.960   6.017   6.796  0.8768 -1.1558  0.9611
  141OSM    C5F15495   4.752   5.955   6.827  0.1718  0.2410  0.6509
  141OSM    H5F15496   4.693   6.049   6.838  1.4754  1.1782 -0.0446
  141OSM    H5G15497   4.709   5.882   6.899 -0.2889  1.3159  1.4968
  141OSM    C6F15498   4.731   5.895   6.688  0.0684  0.0583 -0.6049
  141OSM    H6F15499   4.645   5.825   6.696  0.3666 -0.1786  0.8220
  141OSM    H6G15500   4.822   5.833   6.675  0.9236  1.4582 -1.6349
  141OSM    C7F15501   4.720   5.991   6.566 -0.4229  0.8502 -0.0690
  141OSM    H7F15502   4.792   6.075   6.569 -2.5539  2.7707  0.5495
  141OSM    H7G15503   4.618   6.036   6.572 -1.4211 -0.8170 -2.7103
  141OSM    C8F15504   4.725   5.916   6.435 -0.0545 -0.4696  0.1933
  141OSM    H8F15505   4.656   5.829   6.434  0.9318 -1.3073  1.6642
  141OSM    H8G15506   4.821   5.866   6.415 -0.4632 -1.3704  0.4366
  141OSM    C9F15507   4.701   6.021   6.324  0.1277  0.0976  0.5002
  141OSM    H9F15508   4.634   6.107   6.340  2.0112  2.2649 -2.4479
  141OSM   C10F15509   4.732   6.002   6.193 -0.5935 -0.6130 -0.6610
  141OSM   H10F15510   4.692   6.085   6.133 -3.3515 -0.7411  0.8341
  141OSM   C11F15511   4.802   5.882   6.125  0.5835 -0.1822  0.1963
  141OSM   H11F15512   4.746   5.854   6.032 -3.5312 -1.5052  2.8107
  141OSM   H11G15513   4.813   5.784   6.176 -1.5201 -0.5218  0.0672
  141OSM   C12F15514   4.942   5.929   6.087  0.0485  0.3257 -0.0607
  141OSM   H12F15515   4.985   5.850   6.023  0.2693  1.0848 -0.8661
  141OSM   H12G15516   5.000   5.947   6.181  0.4917  0.2648 -0.3203
  141OSM   C13F15517   4.959   6.058   6.003 -0.3129 -0.6353  0.2806
  141OSM   H13F15518   5.064   6.092   6.008 -0.0745 -1.2316 -0.4433
  141OSM   H13G15519   4.909   6.149   6.043 -1.6982  0.0439 -2.7147
  141OSM   C14F15520   4.903   6.051   5.859  0.3570  0.2411 -0.2341
  141OSM   H14F15521   4.900   5.944   5.831  1.6474  0.2030 -0.2777
  141OSM   H14G15522   4.977   6.097   5.790 -0.4704 -0.1050 -1.3758
  141OSM   C15F15523   4.769   6.113   5.835 -0.1425 -0.1393  0.2724
  141OSM   H15F15524   4.773   6.222   5.855 -0.4345 -0.3539  1.5542
  141OSM   H15G15525   4.703   6.083   5.919  0.2386  0.5336  0.8180
  141OSM   C16F15526   4.709   6.094   5.695  0.0961 -0.4741  0.4152
  141OSM   H16F15527   4.600   6.116   5.701  0.2191  0.5865 -0.8723
  141OSM   H16G15528   4.716   5.991   5.654  0.7630  0.8005 -3.0353
  141OSM   C17F15529   4.763   6.187   5.580  0.3973 -0.1648  0.4133
  141OSM   H17F15530   4.873   6.172   5.581  0.2034 -2.0200 -1.3780
  141OSM   H17G15531   4.732   6.289   5.613 -0.2838  0.6071 -2.3442
  141OSM   C18F15532   4.702   6.157   5.448  0.5215 -0.0823  0.8640
  141OSM   H18F15533   4.726   6.235   5.373  0.1214 -0.6191  0.1640
  141OSM   H18G15534   4.591   6.156   5.454  0.5197  1.0843  1.2734
  141OSM   H18H15535   4.736   6.058   5.411 -0.0728 -0.0508  0.2102
  142OSM      N15536   5.804   5.192   7.786 -0.4857  0.3081 -0.2241
  142OSM    C1515537   5.658   5.147   7.809 -0.3876  0.0459 -0.4701
  142OSM   H15A15538   5.589   5.226   7.785 -0.8574 -0.3245 -0.3614
  142OSM   H15B15539   5.639   5.122   7.912 -2.4673  1.8388 -0.3450
  142OSM   H15C15540   5.632   5.062   7.747  2.1988  0.1683 -1.8853
  142OSM    C1415541   5.844   5.299   7.883  0.4011 -0.4837 -0.2090
  142OSM   H14A15542   5.949   5.321   7.875  0.4526 -0.9389 -0.8309
  142OSM   H14B15543   5.835   5.266   7.986  2.5622 -1.1365 -0.1882
  142OSM   H14C15544   5.795   5.394   7.868 -1.0420 -1.0895  0.4814
  142OSM    C1315545   5.887   5.072   7.810  0.1319  0.0739 -0.4145
  142OSM   H13A15546   5.890   5.006   7.725 -0.0771 -0.0682 -0.3134
  142OSM   H13B15547   5.842   5.015   7.890  0.3188  0.4122 -0.0665
  142OSM   H13C15548   5.988   5.098   7.838  0.2686  1.3038 -1.8927
  142OSM    C1215549   5.820   5.242   7.647 -0.1530 -0.3434 -0.6330
  142OSM   H12A15550   5.791   5.163   7.579 -0.3687  0.0910 -1.0545
  142OSM   H12B15551   5.918   5.274   7.614 -0.2761  1.1907  0.3816
  142OSM    C1115552   5.722   5.363   7.616  0.2723  0.6222 -0.0111
  142OSM   H11A15553   5.628   5.307   7.598  0.4401  1.0995 -2.8823
  142OSM   H11B15554   5.759   5.403   7.519  1.5917  0.8014  0.5305
  142OSM      P15555   5.568   5.547   7.704  0.4604  0.0952 -0.2626
  142OSM    O1315556   5.465   5.480   7.782 -0.4963 -0.2346 -0.4677
  142OSM    O1415557   5.595   5.688   7.742 -0.3681  0.0668 -0.2299
  142OSM    O1115558   5.531   5.543   7.550 -0.6406  0.6952  0.0787
  142OSM    O1215559   5.699   5.469   7.713  0.1049 -0.2489  0.2747
  142OSM    C1S15560   5.567   5.662   7.473  0.3467 -0.8664 -0.3276
  142OSM    H1S15561   5.667   5.702   7.499 -0.1536  0.6179 -0.5795
  142OSM    H1T15562   5.500   5.744   7.507  0.9504 -0.6770  0.4223
  142OSM     NF15563   5.532   5.772   7.258 -0.3977 -0.3848 -0.0456
  142OSM    HNF15564   5.437   5.801   7.251  0.1115  1.0243 -2.0040
  142OSM    C2S15565   5.543   5.635   7.326 -0.3432 -0.2815 -0.2555
  142OSM    H2S15566   5.640   5.592   7.291  0.0632  0.7930 -0.4843
  142OSM    C3S15567   5.426   5.539   7.305  0.7088  0.0132 -0.2495
  142OSM    H3S15568   5.335   5.571   7.360  2.1374 -1.1358  3.0775
  142OSM     O315569   5.443   5.398   7.334 -0.3432  0.4647 -0.1194
  142OSM    HO315570   5.537   5.400   7.353 -0.5612 -0.8872  1.4147
  142OSM    C4S15571   5.401   5.546   7.164 -0.8177  0.6954 -0.2778
  142OSM    H4S15572   5.474   5.500   7.096 -2.2934  1.9840 -2.9111
  142OSM    C5S15573   5.283   5.588   7.108 -0.7425  0.2048 -0.0548
  142OSM    H5S15574   5.200   5.622   7.172  0.5104 -0.7774  2.2200
  142OSM    C6S15575   5.253   5.605   6.964 -0.1874 -0.8510  0.5876
  142OSM    H6S15576   5.201   5.701   6.942 -0.1368 -0.4674  2.0596
  142OSM    H6T15577   5.167   5.541   6.933 -0.4017 -1.4283  2.2477
  142OSM    C7S15578   5.376   5.595   6.873 -0.1065 -0.8533 -0.4887
  142OSM    H7S15579   5.427   5.496   6.881  0.4920 -0.5839 -0.9724
  142OSM    H7T15580   5.450   5.675   6.895 -0.4876 -1.0179  1.6087
  142OSM    C8S15581   5.326   5.603   6.726 -0.7792  0.1211 -0.5658
  142OSM    H8S15582   5.237   5.536   6.716 -2.0533  1.7883 -0.8437
  142OSM    H8T15583   5.409   5.559   6.667 -0.3997 -0.4787  0.3884
  142OSM    C9S15584   5.321   5.745   6.674 -0.4720 -0.3678  0.3724
  142OSM    H9S15585   5.413   5.807   6.674  0.8063 -2.1693  1.0500
  142OSM    H9T15586   5.246   5.810   6.725 -0.3372 -0.1487  0.2917
  142OSM   C10S15587   5.281   5.741   6.527  0.3319 -0.1890  0.0335
  142OSM   H10S15588   5.200   5.815   6.514  1.1738  0.9373  1.0179
  142OSM   H10T15589   5.239   5.640   6.505  0.6736 -0.2419 -0.3959
  142OSM   C11S15590   5.397   5.776   6.420  0.7994 -0.6511  0.0033
  142OSM   H11S15591   5.483   5.707   6.422 -0.5443 -2.4204 -0.5433
  142OSM   H11T15592   5.443   5.877   6.431 -1.5798  0.6361 -1.0056
  142OSM   C12S15593   5.338   5.775   6.279 -0.1173  0.0805 -0.0055
  142OSM   H12S15594   5.248   5.841   6.275  0.3191  0.6465 -3.2022
  142OSM   H12T15595   5.303   5.671   6.266  2.1552 -0.6862 -0.5043
  142OSM   C13S15596   5.435   5.807   6.162 -0.8166  0.3596  0.5442
  142OSM   H13S15597   5.510   5.727   6.143  2.5728  3.1240  1.1459
  142OSM   H13T15598   5.505   5.885   6.199  0.7205 -1.5457  1.8541
  142OSM   C14S15599   5.354   5.855   6.034  0.1031 -0.1876  0.3640
  142OSM   H14S15600   5.308   5.952   6.061 -0.9153 -0.1048 -1.5092
  142OSM   H14T15601   5.273   5.780   6.016  0.1336 -0.4777  1.3348
  142OSM   C15S15602   5.445   5.883   5.913 -0.8027 -0.5978  0.0307
  142OSM   H15S15603   5.479   5.783   5.879  0.1572 -0.6012  0.9691
  142OSM   H15T15604   5.530   5.947   5.945 -1.4917  1.9366 -2.7531
  142OSM   C16S15605   5.373   5.953   5.792 -0.0943  0.2243 -0.0156
  142OSM   H16S15606   5.454   5.963   5.718  0.9512 -4.6112  0.1125
  142OSM   H16T15607   5.335   6.053   5.822 -0.0430 -0.2665  1.7954
  142OSM   C17S15608   5.256   5.886   5.722  0.1237 -0.2749 -0.5944
  142OSM   H17S15609   5.237   5.944   5.629  1.7770  0.8771 -0.2679
  142OSM   H17T15610   5.172   5.888   5.794 -1.6132  0.2199 -2.5514
  142OSM   C18S15611   5.279   5.742   5.675 -0.8956  0.2991 -0.6308
  142OSM   H18S15612   5.337   5.736   5.581  0.8939  2.5369  0.2271
  142OSM   H18T15613   5.188   5.679   5.677 -1.4916  1.0136 -2.9389
  142OSM   H18U15614   5.348   5.696   5.749 -0.3548 -0.2518 -1.4653
  142OSM    C1F15615   5.641   5.860   7.226  0.1036  0.0239  0.2565
  142OSM     OF15616   5.757   5.824   7.238 -0.3186 -0.3764 -0.2737
  142OSM    C2F15617   5.599   5.995   7.177 -0.1684 -0.2598  0.7314
  142OSM    H2F15618   5.568   6.070   7.253  1.4665  2.5286 -1.1510
  142OSM    H2G15619   5.517   5.983   7.103  1.1584  2.5369 -1.3887
  142OSM    C3F15620   5.717   6.050   7.096 -0.1103 -0.4362  0.0104
  142OSM    H3F15621   5.803   6.065   7.165 -0.8967 -1.3006  1.2275
  142OSM    H3G15622   5.696   6.155   7.067  2.0856  1.2849  3.8918
  142OSM    C4F15623   5.759   5.965   6.968 -0.2519 -0.6282 -0.2927
  142OSM    H4F15624   5.738   5.857   6.982 -1.0105 -0.2849  1.4963
  142OSM    H4G15625   5.869   5.967   6.955 -0.0894  1.4185  0.9246
  142OSM    C5F15626   5.686   6.018   6.843  0.1017  0.7640 -0.2964
  142OSM    H5F15627   5.690   6.129   6.841  2.4262  0.7181 -0.2440
  142OSM    H5G15628   5.580   5.987   6.852 -0.4190  1.4320 -3.1577
  142OSM    C6F15629   5.760   5.986   6.712 -0.1717 -0.2386  0.7396
  142OSM    H6F15630   5.797   5.881   6.716  1.3692  0.2295 -0.1537
  142OSM    H6G15631   5.853   6.047   6.710  0.5803 -1.3692 -0.9706
  142OSM    C7F15632   5.672   6.027   6.595  0.0579  0.2719  0.7578
  142OSM    H7F15633   5.624   6.127   6.608 -2.9983 -0.8309 -0.9208
  142OSM    H7G15634   5.585   5.958   6.596 -0.3766  0.7351 -0.8694
  142OSM    C8F15635   5.749   6.016   6.460 -0.6029  0.5186  0.9318
  142OSM    H8F15636   5.671   6.000   6.383  1.4960 -0.8710 -1.0486
  142OSM    H8G15637   5.800   5.917   6.462 -0.1838  0.7352  1.3037
  142OSM    C9F15638   5.845   6.124   6.437 -0.3473 -0.7046 -0.5190
  142OSM    H9F15639   5.865   6.182   6.528 -1.2969  0.7166 -1.1814
  142OSM   C10F15640   5.900   6.169   6.321 -0.2533  0.0784 -0.7728
  142OSM   H10F15641   5.976   6.247   6.333  0.3902 -0.9269  2.5423
  142OSM   C11F15642   5.866   6.105   6.191 -0.2865  0.6289  0.4315
  142OSM   H11F15643   5.783   6.033   6.201  1.0299 -1.0338 -0.1234
  142OSM   H11G15644   5.952   6.045   6.155  0.8997  1.9313  0.9710
  142OSM   C12F15645   5.834   6.212   6.087  0.0796 -0.6465 -0.2081
  142OSM   H12F15646   5.923   6.273   6.063 -0.4296 -0.1327 -0.8311
  142OSM   H12G15647   5.752   6.282   6.113  1.1112  0.2453  0.7562
  142OSM   C13F15648   5.797   6.138   5.955  0.0674 -0.2453 -0.0879
  142OSM   H13F15649   5.701   6.085   5.969  0.1634 -0.2855  0.4773
  142OSM   H13G15650   5.862   6.048   5.947 -0.0073 -0.2289 -0.9914
  142OSM   C14F15651   5.796   6.230   5.833 -0.3296 -0.5060  0.0624
  142OSM   H14F15652   5.847   6.176   5.750  0.3314  2.5717 -1.7067
  142OSM   H14G15653   5.857   6.320   5.853 -0.3612 -0.3880 -0.3676
  142OSM   C15F15654   5.654   6.284   5.789 -0.6288 -0.2260 -0.1742
  142OSM   H15F15655   5.626   6.360   5.866  0.5384  0.4623 -0.3993
  142OSM   H15G15656   5.586   6.197   5.781 -0.8118 -0.0466 -0.5810
  142OSM   C16F15657   5.665   6.359   5.656  0.1902  0.1854  0.3309
  142OSM   H16F15658   5.729   6.304   5.583 -0.1267  0.6588 -0.3201
  142OSM   H16G15659   5.718   6.453   5.682  2.9953 -0.4098 -2.5800
  142OSM   C17F15660   5.532   6.386   5.591  0.6447 -0.1288  0.7980
  142OSM   H17F15661   5.469   6.456   5.649 -0.4116  0.0751 -0.5406
  142OSM   H17G15662   5.476   6.293   5.567 -1.3066  1.3106 -0.5608
  142OSM   C18F15663   5.562   6.441   5.450 -0.2665 -0.1508  0.0993
  142OSM   H18F15664   5.474   6.424   5.385 -0.5884  1.2352  0.1423
  142OSM   H18G15665   5.650   6.388   5.407  0.3938  1.0032 -0.0044
  142OSM   H18H15666   5.578   6.551   5.449  1.2236 -0.2452  3.0273
  143OSM      N15667   0.466   1.970   7.849 -0.4717  0.4643 -0.2939
  143OSM    C1515668   0.444   1.901   7.974  0.5104 -0.0355  0.5019
  143OSM   H15A15669   0.517   1.825   8.000 -1.7181 -2.0949  1.1693
  143OSM   H15B15670   0.347   1.852   7.970  0.2722  0.4646  0.0424
  143OSM   H15C15671   0.443   1.967   8.059 -0.4300 -1.3990  1.6079
  143OSM    C1415672   0.371   2.082   7.836 -0.1846 -0.3186  0.5347
  143OSM   H14A15673   0.391   2.131   7.741  0.7463  0.4841  1.1345
  143OSM   H14B15674   0.398   2.152   7.912 -0.6590 -1.2307  1.5695
  143OSM   H14C15675   0.269   2.049   7.827 -0.6546  0.9256  1.1091
  143OSM    C1315676   0.600   2.041   7.859 -0.3616 -0.2242  0.0882
  143OSM   H13A15677   0.644   2.057   7.762  1.0379 -2.5483  0.2648
  143OSM   H13B15678   0.675   1.999   7.926 -0.6452  1.4532  1.5271
  143OSM   H13C15679   0.583   2.135   7.910  2.0700 -0.3267  1.2739
  143OSM    C1215680   0.477   1.877   7.734  0.5904 -0.2545 -0.5012
  143OSM   H12A15681   0.424   1.786   7.760 -0.7091  0.3901 -0.7679
  143OSM   H12B15682   0.577   1.838   7.735  1.1252  1.0961  0.1332
  143OSM    C1115683   0.441   1.913   7.585 -0.5078 -0.1199 -0.3143
  143OSM   H11A15684   0.339   1.957   7.595 -0.5434 -0.1965 -0.3398
  143OSM   H11B15685   0.444   1.822   7.520  0.0927 -0.7973  0.6305
  143OSM      P15686   0.508   2.130   7.454  0.0133 -0.1279 -0.5576
  143OSM    O1315687   0.391   2.199   7.493 -0.0821 -0.2142  0.3197
  143OSM    O1415688   0.635   2.205   7.444  0.1319 -0.3028  0.1567
  143OSM    O1115689   0.478   2.049   7.322 -0.9532  0.3978 -0.1807
  143OSM    O1215690   0.539   2.010   7.549  0.1025 -0.9379 -0.3012
  143OSM    C1S15691   0.457   2.109   7.200  0.1366  0.0406  0.4150
  143OSM    H1S15692   0.557   2.145   7.167  1.1860 -0.9091  2.4044
  143OSM    H1T15693   0.390   2.197   7.209  0.4471  0.5794 -1.9124
  143OSM     NF15694   0.415   2.025   6.965  0.0445  0.4362 -1.0741
  143OSM    HNF15695   0.332   2.060   6.923 -1.7078 -0.3578  1.4487
  143OSM    C2S15696   0.407   1.996   7.110 -0.4897  0.2567  0.2131
  143OSM    H2S15697   0.481   1.915   7.124  2.0664  2.0102 -2.1096
  143OSM    C3S15698   0.271   1.945   7.157 -0.1525 -0.3344 -0.8838
  143OSM    H3S15699   0.209   2.036   7.147  0.6647  0.3115 -0.1571
  143OSM     O315700   0.254   1.907   7.295  0.0451 -0.6294 -0.2319
  143OSM    HO315701   0.332   1.952   7.328 -0.1675 -1.0324  0.8693
  143OSM    C4S15702   0.211   1.835   7.072  0.2476 -0.3099  0.3353
  143OSM    H4S15703   0.268   1.744   7.047 -1.2800 -1.1041 -0.4547
  143OSM    C5S15704   0.096   1.854   7.009 -0.3113 -0.2367  0.3218
  143OSM    H5S15705   0.041   1.949   7.010 -0.4875 -0.3401  1.6726
  143OSM    C6S15706   0.013   1.762   6.922 -0.1007  0.1794 -0.1862
  143OSM    H6S15707  -0.089   1.797   6.896 -0.0264 -0.9166 -2.0958
  143OSM    H6T15708   0.000   1.670   6.983  1.3931 -0.9151 -1.4411
  143OSM    C7S15709   0.094   1.730   6.793 -0.2169  0.2352 -0.5334
  143OSM    H7S15710   0.030   1.651   6.747  0.4182  0.3119 -1.5767
  143OSM    H7T15711   0.194   1.691   6.822  0.9275  2.9933 -0.4895
  143OSM    C8S15712   0.097   1.849   6.693 -0.1540 -0.2878 -0.6949
  143OSM    H8S15713   0.179   1.913   6.733 -2.1186  1.9584 -0.0707
  143OSM    H8T15714   0.005   1.910   6.702 -1.2193 -1.5076 -2.6221
  143OSM    C9S15715   0.113   1.800   6.552 -0.3087 -0.1863 -0.4032
  143OSM    H9S15716   0.036   1.731   6.511  0.1894 -0.9712 -0.0316
  143OSM    H9T15717   0.210   1.745   6.549  0.0218  0.1907  1.8154
  143OSM   C10S15718   0.106   1.914   6.450 -0.1130 -0.2714  0.3726
  143OSM   H10S15719   0.203   1.969   6.454  0.9307 -1.9465 -0.8655
  143OSM   H10T15720   0.031   1.991   6.481  1.1004  1.2835 -0.3948
  143OSM   C11S15721   0.063   1.865   6.311 -0.8791  0.1727  0.0494
  143OSM   H11S15722  -0.042   1.831   6.327 -0.1182 -1.5166  1.9945
  143OSM   H11T15723   0.129   1.778   6.292  0.3067  1.0922 -0.1534
  143OSM   C12S15724   0.079   1.972   6.207  0.0735 -0.1852  0.2360
  143OSM   H12S15725   0.181   2.015   6.207 -0.1686  0.4650 -1.4173
  143OSM   H12T15726   0.009   2.056   6.227  1.2934  0.9319 -0.0450
  143OSM   C13S15727   0.046   1.901   6.072 -0.2692 -0.5741  0.0391
  143OSM   H13S15728  -0.057   1.859   6.070 -0.6465 -0.3207  4.0910
  143OSM   H13T15729   0.114   1.818   6.047  0.1032  0.3600 -2.2770
  143OSM   C14S15730   0.067   1.996   5.953  0.4847 -0.7953  0.0476
  143OSM   H14S15731   0.064   2.101   5.989  1.4296 -0.9720  0.6708
  143OSM   H14T15732  -0.020   1.985   5.885  1.0714 -0.1196 -0.8504
  143OSM   C15S15733   0.201   1.980   5.877  0.8618  0.7446 -0.2783
  143OSM   H15S15734   0.200   1.873   5.845  1.1775  0.2922  1.1291
  143OSM   H15T15735   0.278   2.001   5.955 -1.2485 -0.6776  2.3490
  143OSM   C16S15736   0.211   2.070   5.751  0.2093  0.2570  0.6102
  143OSM   H16S15737   0.118   2.048   5.695  1.1582 -1.9766 -0.2288
  143OSM   H16T15738   0.296   2.050   5.682 -0.6246 -0.5586 -0.2112
  143OSM   C17S15739   0.228   2.224   5.778  0.8939 -0.0600  0.0664
  143OSM   H17S15740   0.323   2.229   5.835  2.2477 -2.3222 -1.7886
  143OSM   H17T15741   0.140   2.264   5.832  0.4253  0.2988 -0.9407
  143OSM   C18S15742   0.251   2.311   5.653 -0.6606  0.0726  0.6637
  143OSM   H18S15743   0.318   2.263   5.578  2.3890 -0.8944  3.7485
  143OSM   H18T15744   0.309   2.401   5.680 -1.0870  0.7842 -0.7238
  143OSM   H18U15745   0.155   2.340   5.605 -0.0718 -1.2010 -1.4009
  143OSM    C1F15746   0.533   2.046   6.904  0.1300  0.8686  0.6856
  143OSM     OF15747   0.639   2.006   6.949  0.4522 -0.0574  0.2859
  143OSM    C2F15748   0.521   2.114   6.765  0.1199 -0.4521 -0.5855
  143OSM    H2F15749   0.498   2.219   6.790  1.3550 -0.5830  1.2197
  143OSM    H2G15750   0.434   2.067   6.713 -1.5280  0.5519  1.1590
  143OSM    C3F15751   0.653   2.111   6.678 -0.0751  0.7023 -0.6750
  143OSM    H3F15752   0.688   2.009   6.652  0.6210  1.1277 -1.4595
  143OSM    H3G15753   0.734   2.145   6.746  1.4819 -1.2151 -1.4774
  143OSM    C4F15754   0.647   2.206   6.563  0.0952 -0.5825 -0.7256
  143OSM    H4F15755   0.547   2.182   6.520 -0.5334 -1.5774  1.1757
  143OSM    H4G15756   0.719   2.184   6.481  0.1849 -1.3696 -0.4431
  143OSM    C5F15757   0.656   2.355   6.602 -0.2728  0.2412  1.2257
  143OSM    H5F15758   0.738   2.359   6.676 -0.6003  2.1793  1.5307
  143OSM    H5G15759   0.566   2.389   6.658 -0.2934 -1.2651  2.1879
  143OSM    C6F15760   0.692   2.439   6.485  0.1553  0.0026  0.3229
  143OSM    H6F15761   0.597   2.461   6.431  0.7661  3.3733  0.4126
  143OSM    H6G15762   0.771   2.394   6.422 -0.2241 -1.3314  0.7723
  143OSM    C7F15763   0.753   2.578   6.512 -0.6991 -0.1271  0.8340
  143OSM    H7F15764   0.863   2.571   6.526 -0.6542  1.0988  1.2006
  143OSM    H7G15765   0.708   2.615   6.607 -1.2781 -2.5433  1.5652
  143OSM    C8F15766   0.730   2.676   6.392  0.0863  0.0515 -0.2698
  143OSM    H8F15767   0.744   2.625   6.295 -2.4866 -2.6270  0.6204
  143OSM    H8G15768   0.793   2.767   6.402  0.0766  0.0204  0.0892
  143OSM    C9F15769   0.590   2.728   6.395 -0.1661  1.0085  0.6094
  143OSM    H9F15770   0.563   2.760   6.497  0.7595 -0.6998  1.4431
  143OSM   C10F15771   0.504   2.734   6.285  0.5994  0.4120  0.2029
  143OSM   H10F15772   0.409   2.789   6.290  1.0546  1.2597 -0.2643
  143OSM   C11F15773   0.548   2.705   6.144  0.0855 -0.4802  0.1461
  143OSM   H11F15774   0.544   2.597   6.119 -2.7800 -0.3750 -0.2809
  143OSM   H11G15775   0.643   2.751   6.110  1.0145 -1.7829  0.9462
  143OSM   C12F15776   0.440   2.763   6.051  0.3620 -0.3349  0.2896
  143OSM   H12F15777   0.442   2.873   6.039 -2.3745 -0.1457  0.7366
  143OSM   H12G15778   0.334   2.743   6.080 -0.2541 -0.1351 -1.7026
  143OSM   C13F15779   0.464   2.721   5.904  0.0653  0.4423 -0.1287
  143OSM   H13F15780   0.451   2.610   5.910 -0.3579  0.5536  1.6554
  143OSM   H13G15781   0.567   2.751   5.880 -0.6560  1.7998 -1.6607
  143OSM   C14F15782   0.367   2.779   5.803  0.2417 -0.0938  0.1784
  143OSM   H14F15783   0.414   2.873   5.766  0.6718  0.0961  1.1706
  143OSM   H14G15784   0.266   2.806   5.841  0.5005 -0.4469  1.1366
  143OSM   C15F15785   0.371   2.686   5.679 -0.2564  0.0903  0.1413
  143OSM   H15F15786   0.291   2.610   5.691  0.5596 -0.6134  1.3326
  143OSM   H15G15787   0.461   2.624   5.664  0.1714  0.5550  0.7161
  143OSM   C16F15788   0.323   2.756   5.553 -0.1855  0.0731  1.4567
  143OSM   H16F15789   0.398   2.819   5.499 -1.3038  0.6882  0.5737
  143OSM   H16G15790   0.232   2.817   5.574  0.5905  1.0274  2.2007
  143OSM   C17F15791   0.268   2.654   5.456  0.2819 -0.6560 -0.3681
  143OSM   H17F15792   0.167   2.626   5.494 -0.1277  2.5959  1.3353
  143OSM   H17G15793   0.331   2.564   5.446  0.8700 -0.2601 -0.2955
  143OSM   C18F15794   0.255   2.704   5.313  0.0715  0.5395 -0.6258
  143OSM   H18F15795   0.208   2.624   5.252 -0.8929 -0.8470  1.8089
  143OSM   H18G15796   0.356   2.736   5.280 -0.1362  1.7832 -0.0922
  143OSM   H18H15797   0.200   2.800   5.305  1.5060  1.3902 -0.5600
  144OSM      N15798   0.496   1.208   7.824 -0.1830  0.1142 -0.3379
  144OSM    C1515799   0.567   1.073   7.831 -0.0718  0.4072 -0.3762
  144OSM   H15A15800   0.601   1.054   7.730 -1.4815 -0.2657 -0.7462
  144OSM   H15B15801   0.497   0.992   7.847 -0.7256  0.7361 -1.5136
  144OSM   H15C15802   0.643   1.073   7.908 -2.5652 -0.5612  2.2325
  144OSM    C1415803   0.438   1.249   7.952 -0.0938  0.4366 -0.5577
  144OSM   H14A15804   0.512   1.249   8.030 -0.5665 -1.2987 -0.0704
  144OSM   H14B15805   0.362   1.176   7.976  1.0368 -0.3829  0.6459
  144OSM   H14C15806   0.393   1.347   7.955 -2.8898 -0.5985 -2.7153
  144OSM    C1315807   0.600   1.310   7.783 -0.0712  0.2041  0.1232
  144OSM   H13A15808   0.627   1.291   7.680 -1.1648  1.1663 -0.3591
  144OSM   H13B15809   0.688   1.308   7.844 -0.1245  2.9519  0.4277
  144OSM   H13C15810   0.569   1.413   7.781  0.7532  0.4530 -0.9768
  144OSM    C1215811   0.384   1.200   7.718  0.2885  0.1288 -0.6315
  144OSM   H12A15812   0.340   1.298   7.723 -0.7424 -0.3606  3.4617
  144OSM   H12B15813   0.306   1.134   7.755  0.0819  2.0901  2.8882
  144OSM    C1115814   0.422   1.164   7.574 -0.1243  0.6338 -0.2248
  144OSM   H11A15815   0.511   1.218   7.536  0.3242 -0.7732 -1.2207
  144OSM   H11B15816   0.343   1.211   7.512 -1.0189  1.1216  1.2310
  144OSM      P15817   0.333   0.925   7.526  0.0867 -0.0931  0.0201
  144OSM    O1315818   0.405   0.800   7.504 -0.0985 -0.2171  0.5430
  144OSM    O1415819   0.221   0.935   7.622 -0.1807  0.1795  0.1309
  144OSM    O1115820   0.282   0.984   7.379  0.3456  0.4466 -0.0581
  144OSM    O1215821   0.441   1.030   7.555  0.0500  0.3961  0.1613
  144OSM    C1S15822   0.351   0.940   7.259 -0.2267 -0.5415 -0.3671
  144OSM    H1S15823   0.384   0.834   7.264  3.4147  0.5308  2.6978
  144OSM    H1T15824   0.439   1.006   7.246 -0.8590  0.6616  1.1181
  144OSM     NF15825   0.349   0.923   7.016 -0.1856  0.2680  0.7070
  144OSM    HNF15826   0.388   0.984   6.948  0.3429 -0.5012  0.3067
  144OSM    C2S15827   0.280   0.979   7.129  0.4656 -0.1796 -0.1661
  144OSM    H2S15828   0.180   0.930   7.130  0.2656  0.2375  1.2647
  144OSM    C3S15829   0.273   1.135   7.115 -1.0624 -0.6499  0.1617
  144OSM    H3S15830   0.375   1.169   7.144  0.2100 -2.5091 -1.8165
  144OSM     O315831   0.201   1.201   7.218  0.2838 -0.1388 -0.1783
  144OSM    HO315832   0.193   1.130   7.282  0.2627 -1.6308 -1.7297
  144OSM    C4S15833   0.244   1.188   6.979 -0.5867  0.6084 -0.5817
  144OSM    H4S15834   0.336   1.227   6.933  0.6400 -1.3218  0.1490
  144OSM    C5S15835   0.125   1.222   6.929  0.8883 -0.0726 -0.7323
  144OSM    H5S15836   0.037   1.204   6.994  0.5720 -0.3786 -1.2373
  144OSM    C6S15837   0.097   1.298   6.800 -0.5539  0.6358  0.6170
  144OSM    H6S15838   0.084   1.405   6.828 -0.2423  1.0167 -0.6544
  144OSM    H6T15839  -0.000   1.273   6.752  0.1127  1.4253 -1.2488
  144OSM    C7S15840   0.204   1.283   6.689 -0.5731 -0.2050  0.1118
  144OSM    H7S15841   0.227   1.178   6.660 -1.7632 -0.8746  1.4896
  144OSM    H7T15842   0.296   1.335   6.724  1.1736 -2.1440 -1.3047
  144OSM    C8S15843   0.166   1.363   6.565 -0.5312  0.1948 -0.4706
  144OSM    H8S15844   0.159   1.471   6.591  2.1136 -0.0874  1.8337
  144OSM    H8T15845   0.076   1.317   6.518 -0.3103 -0.8172  0.0896
  144OSM    C9S15846   0.270   1.370   6.453  0.4587  0.4786  0.1439
  144OSM    H9S15847   0.291   1.267   6.418  0.6223  0.0292  1.4935
  144OSM    H9T15848   0.363   1.390   6.509  0.4373 -2.2247  1.3037
  144OSM   C10S15849   0.239   1.469   6.342 -0.7636  0.3492 -0.0219
  144OSM   H10S15850   0.254   1.565   6.396 -0.9919  1.2538 -1.5125
  144OSM   H10T15851   0.132   1.482   6.315 -0.3822  3.4895 -0.3376
  144OSM   C11S15852   0.331   1.458   6.218 -0.6283  0.4466 -0.4966
  144OSM   H11S15853   0.380   1.358   6.213  0.6404  1.0533 -0.5114
  144OSM   H11T15854   0.416   1.527   6.236 -1.1596  0.7345  1.1289
  144OSM   C12S15855   0.271   1.504   6.090  0.1144 -0.1141 -0.6167
  144OSM   H12S15856   0.200   1.588   6.107 -1.1842 -1.1547 -0.6720
  144OSM   H12T15857   0.209   1.425   6.041  0.2637 -0.1437 -0.7567
  144OSM   C13S15858   0.376   1.540   5.982 -0.1918  0.3647  0.0258
  144OSM   H13S15859   0.456   1.463   5.991 -1.6326 -1.0148  1.8826
  144OSM   H13T15860   0.416   1.639   6.014  1.2422 -0.7587  1.9134
  144OSM   C14S15861   0.315   1.562   5.841 -1.0856  0.0409  0.2593
  144OSM   H14S15862   0.229   1.632   5.836 -0.0062  1.4021  0.2483
  144OSM   H14T15863   0.285   1.460   5.808  0.7566 -0.5679  0.3777
  144OSM   C15S15864   0.421   1.621   5.746  0.3602  0.4849  1.0447
  144OSM   H15S15865   0.387   1.609   5.641  0.2463  3.3878  0.6536
  144OSM   H15T15866   0.513   1.560   5.756  0.6898  0.7290 -0.2644
  144OSM   C16S15867   0.451   1.768   5.770 -0.0795  0.7956 -0.2549
  144OSM   H16S15868   0.461   1.780   5.880  1.1910 -2.2203  0.0797
  144OSM   H16T15869   0.367   1.827   5.729 -2.5329 -2.5817 -0.5761
  144OSM   C17S15870   0.586   1.800   5.707 -0.0531  0.3776 -0.0283
  144OSM   H17S15871   0.581   1.785   5.597  0.0095  0.1011  0.0069
  144OSM   H17T15872   0.670   1.737   5.741  0.1443 -0.5952 -2.1687
  144OSM   C18S15873   0.623   1.947   5.745 -0.6254 -0.1963 -0.1565
  144OSM   H18S15874   0.537   2.013   5.722  0.5693  0.6689 -2.5953
  144OSM   H18T15875   0.700   1.984   5.673 -1.2488 -0.7055 -1.1197
  144OSM   H18U15876   0.645   1.957   5.853 -1.1223 -0.3935 -0.0378
  144OSM    C1F15877   0.361   0.791   6.993  0.5748 -0.0370 -0.5324
  144OSM     OF15878   0.325   0.697   7.067  0.4285 -0.6643  0.3354
  144OSM    C2F15879   0.429   0.754   6.861 -0.0490 -0.0582 -0.3415
  144OSM    H2F15880   0.369   0.807   6.784  0.4922  2.0523  0.6277
  144OSM    H2G15881   0.430   0.646   6.835 -1.9561 -0.6922  1.8991
  144OSM    C3F15882   0.587   0.778   6.855  0.3125 -0.3258  0.0363
  144OSM    H3F15883   0.632   0.695   6.914  1.3947  0.3166  0.1470
  144OSM    H3G15884   0.598   0.880   6.897  1.0849  0.1116 -1.1913
  144OSM    C4F15885   0.631   0.785   6.707  0.7225 -0.5667 -0.5479
  144OSM    H4F15886   0.595   0.884   6.672 -0.9061 -1.2217 -0.8415
  144OSM    H4G15887   0.583   0.708   6.644  1.8281  0.0151 -2.1739
  144OSM    C5F15888   0.777   0.763   6.689 -0.5610 -0.6169  0.4278
  144OSM    H5F15889   0.814   0.680   6.752  2.1270 -0.3298 -0.6465
  144OSM    H5G15890   0.828   0.857   6.720  0.6406 -0.1985 -2.5588
  144OSM    C6F15891   0.827   0.727   6.552  0.0120  0.1799  0.4270
  144OSM    H6F15892   0.773   0.636   6.516 -1.6345  1.8441 -1.5239
  144OSM    H6G15893   0.937   0.714   6.545  0.3348  1.4222  2.4284
  144OSM    C7F15894   0.781   0.840   6.453 -0.2903  0.0731  0.6922
  144OSM    H7F15895   0.848   0.922   6.486  0.2009 -0.3153  0.6661
  144OSM    H7G15896   0.675   0.863   6.478 -0.9969  1.2486 -2.7661
  144OSM    C8F15897   0.793   0.808   6.302 -1.0046  0.2782 -0.2437
  144OSM    H8F15898   0.746   0.893   6.248 -0.1789 -0.2761 -1.9070
  144OSM    H8G15899   0.732   0.717   6.289 -1.1593  0.3449  0.0086
  144OSM    C9F15900   0.939   0.777   6.267  0.8277  0.2111 -0.7442
  144OSM    H9F15901   0.981   0.685   6.312 -0.8791  0.8391  2.3915
  144OSM   C10F15902   1.018   0.839   6.177  0.5407 -0.0996 -0.6628
  144OSM   H10F15903   1.125   0.818   6.162  1.1709  2.7549 -0.9164
  144OSM   C11F15904   0.979   0.960   6.098 -0.5492 -0.6515  0.3861
  144OSM   H11F15905   1.056   1.038   6.115 -0.4954 -0.3837 -1.0402
  144OSM   H11G15906   0.881   1.004   6.125 -0.3069 -0.2129  0.5586
  144OSM   C12F15907   0.982   0.928   5.949 -0.2360  0.2486 -0.1833
  144OSM   H12F15908   1.084   0.902   5.912 -1.0727  0.2576 -2.7013
  144OSM   H12G15909   0.952   1.023   5.899 -1.2932 -0.3405 -0.7011
  144OSM   C13F15910   0.884   0.817   5.901  0.4453 -0.0867 -0.0562
  144OSM   H13F15911   0.784   0.863   5.914  0.8247 -0.1512  5.1387
  144OSM   H13G15912   0.892   0.728   5.968  0.1542 -0.1050 -0.0429
  144OSM   C14F15913   0.907   0.780   5.761 -0.0105  0.1216 -0.0721
  144OSM   H14F15914   0.840   0.698   5.728 -1.9675  2.3350 -1.9832
  144OSM   H14G15915   1.015   0.754   5.752 -0.8488 -3.2076 -2.4071
  144OSM   C15F15916   0.883   0.890   5.664 -0.3576 -0.2045 -0.0822
  144OSM   H15F15917   0.918   0.988   5.703  1.9331 -0.1634 -2.0589
  144OSM   H15G15918   0.774   0.910   5.667 -0.2854  0.1422  2.4092
  144OSM   C16F15919   0.928   0.854   5.521 -0.7363 -0.5545 -0.3410
  144OSM   H16F15920   1.030   0.809   5.528 -0.2506  0.6368  0.6984
  144OSM   H16G15921   0.946   0.949   5.467  1.8930 -0.9118 -0.2527
  144OSM   C17F15922   0.840   0.758   5.442  0.0571  1.5920 -0.0295
  144OSM   H17F15923   0.742   0.794   5.403 -0.0188  0.0674 -1.3820
  144OSM   H17G15924   0.806   0.684   5.518 -1.2976  0.5153 -1.5869
  144OSM   C18F15925   0.904   0.683   5.329  0.2580  1.0318 -0.3617
  144OSM   H18F15926   0.939   0.584   5.365 -3.7967 -1.3980 -2.4221
  144OSM   H18G15927   0.990   0.736   5.284 -1.0968  2.0410 -1.8700
  144OSM   H18H15928   0.824   0.654   5.258 -0.8833  0.8020  0.9576
  145OSM      N15929   1.998   2.883   7.719  0.1705 -0.6360  0.0870
  145OSM    C1515930   2.086   2.911   7.838 -0.5125  0.0165 -0.4850
  145OSM   H15A15931   2.076   2.838   7.916  1.3567 -3.1277 -2.9709
  145OSM   H15B15932   2.082   3.016   7.863  0.8551  0.1472 -0.7524
  145OSM   H15C15933   2.188   2.887   7.812 -0.2929 -0.0068  0.3736
  145OSM    C1415934   1.855   2.890   7.760 -0.4029 -0.3268  0.2556
  145OSM   H14A15935   1.803   2.884   7.666 -0.6153  0.4291  0.3217
  145OSM   H14B15936   1.848   2.982   7.817  0.0029  0.7492 -1.3504
  145OSM   H14C15937   1.828   2.805   7.820 -0.2271 -1.5085 -1.2759
  145OSM    C1315938   2.029   2.986   7.613  0.1149  0.0466  0.1451
  145OSM   H13A15939   2.128   2.973   7.572 -1.0111 -0.7773 -2.4926
  145OSM   H13B15940   2.004   3.084   7.651  1.2669  1.1634 -1.8102
  145OSM   H13C15941   1.957   2.963   7.537 -2.1657  0.9637  1.9066
  145OSM    C1215942   2.026   2.746   7.659 -0.5483  0.2781 -0.8930
  145OSM   H12A15943   2.007   2.680   7.743  0.2920  1.3251  0.1604
  145OSM   H12B15944   2.132   2.738   7.643 -0.1464 -0.0688  1.5196
  145OSM    C1115945   1.961   2.706   7.527 -0.7228  0.0910  0.1476
  145OSM   H11A15946   2.009   2.610   7.499  1.3456  1.4361 -1.1633
  145OSM   H11B15947   1.981   2.786   7.453  3.3763 -0.6042  0.2947
  145OSM      P15948   1.731   2.575   7.538  0.0713 -0.3220  0.2853
  145OSM    O1315949   1.802   2.446   7.562 -0.2597  0.0107  0.0842
  145OSM    O1415950   1.611   2.604   7.626 -0.5623 -0.2228  0.4546
  145OSM    O1115951   1.689   2.571   7.387 -0.1449 -0.3591 -0.0100
  145OSM    O1215952   1.823   2.702   7.548  0.6036 -0.1603 -0.3431
  145OSM    C1S15953   1.676   2.685   7.302  0.1861  0.7201 -0.9498
  145OSM    H1S15954   1.769   2.746   7.314  0.2937  0.2491  1.0577
  145OSM    H1T15955   1.592   2.749   7.335 -0.1333 -0.0890 -0.1595
  145OSM     NF15956   1.625   2.780   7.078  0.5696 -0.2494 -0.2497
  145OSM    HNF15957   1.535   2.799   7.040  0.2621  0.5813  0.8547
  145OSM    C2S15958   1.657   2.654   7.150  0.2032 -0.1264  0.1715
  145OSM    H2S15959   1.757   2.624   7.113  1.3176  2.5420  0.7404
  145OSM    C3S15960   1.546   2.546   7.124  0.1543 -0.3703  0.3030
  145OSM    H3S15961   1.448   2.589   7.155 -0.8697 -1.9648 -0.6042
  145OSM     O315962   1.556   2.430   7.204 -0.6585 -0.0924 -0.2828
  145OSM    HO315963   1.609   2.453   7.280  0.7020  1.6062 -1.6563
  145OSM    C4S15964   1.537   2.510   6.980  0.0378 -0.8622  0.6612
  145OSM    H4S15965   1.629   2.464   6.941  0.7319  0.8822  0.1341
  145OSM    C5S15966   1.434   2.524   6.896 -0.8995 -0.6664 -0.4178
  145OSM    H5S15967   1.337   2.563   6.930  0.5301  2.0303  0.8149
  145OSM    C6S15968   1.451   2.502   6.753 -0.5198 -0.0735  0.3141
  145OSM    H6S15969   1.347   2.481   6.721 -0.1048 -1.2273 -0.3575
  145OSM    H6T15970   1.520   2.415   6.744  1.1316  1.2389 -0.3002
  145OSM    C7S15971   1.520   2.614   6.668 -0.2392  0.4413  0.3269
  145OSM    H7S15972   1.623   2.639   6.701 -0.0292 -0.5804  0.4789
  145OSM    H7T15973   1.455   2.704   6.676 -0.4189  0.6219 -2.1402
  145OSM    C8S15974   1.522   2.566   6.516  0.0467  0.1821 -0.0543
  145OSM    H8S15975   1.424   2.527   6.483  0.4649 -0.3819 -0.6606
  145OSM    H8T15976   1.595   2.483   6.513  0.2282  0.3599 -0.8209
  145OSM    C9S15977   1.579   2.669   6.415  0.2088 -0.0583  0.2284
  145OSM    H9S15978   1.665   2.720   6.464  0.4618 -0.0505 -0.2250
  145OSM    H9T15979   1.506   2.752   6.408  2.6899  2.2331  0.0399
  145OSM   C10S15980   1.615   2.597   6.284 -0.2327 -0.1851  0.3721
  145OSM   H10S15981   1.592   2.488   6.289  2.5130 -0.9370 -1.5305
  145OSM   H10T15982   1.726   2.600   6.283 -0.2298 -0.4427 -0.4013
  145OSM   C11S15983   1.564   2.666   6.160 -0.0176  0.5663  0.9555
  145OSM   H11S15984   1.613   2.765   6.156 -0.1012  0.5629 -1.1924
  145OSM   H11T15985   1.454   2.677   6.148  0.1466  0.6906 -0.5448
  145OSM   C12S15986   1.616   2.589   6.032  0.0217  0.1977 -0.1799
  145OSM   H12S15987   1.571   2.488   6.018 -1.0005  0.8729 -2.2739
  145OSM   H12T15988   1.721   2.566   6.057 -0.0731 -2.0127 -1.4687
  145OSM   C13S15989   1.616   2.670   5.902  0.1463 -0.1610  0.4727
  145OSM   H13S15990   1.668   2.764   5.929  1.8255 -0.9427  0.0745
  145OSM   H13T15991   1.511   2.681   5.868 -0.1065 -1.9821  0.5220
  145OSM   C14S15992   1.698   2.601   5.786  0.3408  0.6653 -0.0435
  145OSM   H14S15993   1.661   2.497   5.774 -2.4136  1.5376  0.2804
  145OSM   H14T15994   1.808   2.601   5.804  0.6527  0.2621 -1.7545
  145OSM   C15S15995   1.676   2.673   5.651  0.5795  0.4346  0.3549
  145OSM   H15S15996   1.699   2.781   5.660 -0.2450  0.5655  0.9854
  145OSM   H15T15997   1.570   2.662   5.620  1.2076  1.3890 -2.4937
  145OSM   C16S15998   1.760   2.616   5.532 -0.6549 -0.0485 -0.5831
  145OSM   H16S15999   1.722   2.512   5.519  1.8621 -0.8761 -2.2313
  145OSM   H16T16000   1.868   2.616   5.559 -1.1190 -0.1233  1.4560
  145OSM   C17S16001   1.744   2.699   5.402  0.0800 -0.4705 -0.0229
  145OSM   H17S16002   1.789   2.800   5.417 -0.3866 -0.6833  3.8895
  145OSM   H17T16003   1.638   2.723   5.378 -0.3503 -1.2121  1.0436
  145OSM   C18S16004   1.813   2.635   5.286 -0.3705 -0.6637 -0.2141
  145OSM   H18S16005   1.817   2.694   5.192 -0.7148 -1.3223 -0.6497
  145OSM   H18T16006   1.765   2.539   5.258 -0.3190  0.2328 -3.9087
  145OSM   H18U16007   1.912   2.602   5.323 -0.8401 -1.8462  0.0567
  145OSM    C1F16008   1.724   2.867   7.058 -0.8972 -0.1584  0.5620
  145OSM     OF16009   1.836   2.842   7.100 -0.9141 -0.9909 -0.0233
  145OSM    C2F16010   1.703   2.979   6.972  0.2541  0.5624 -0.0201
  145OSM    H2F16011   1.798   3.037   6.973  1.2327 -0.9418 -1.6663
  145OSM    H2G16012   1.622   3.040   7.019 -0.9980 -2.0625  1.4779
  145OSM    C3F16013   1.673   2.933   6.830 -0.8815  0.2439 -0.5672
  145OSM    H3F16014   1.579   2.875   6.827 -1.0544  0.5259 -0.6497
  145OSM    H3G16015   1.747   2.864   6.784 -0.3273  1.3804 -1.4395
  145OSM    C4F16016   1.671   3.043   6.724 -0.1818  0.6327 -0.2497
  145OSM    H4F16017   1.771   3.092   6.730  0.9999 -1.0449 -3.6438
  145OSM    H4G16018   1.590   3.117   6.738  0.3328  2.1354 -3.9673
  145OSM    C5F16019   1.642   2.988   6.581 -0.3571 -0.2437 -0.4928
  145OSM    H5F16020   1.534   2.962   6.569 -0.4308 -0.4132  0.4815
  145OSM    H5G16021   1.700   2.893   6.577  0.8625  0.5185 -1.5373
  145OSM    C6F16022   1.688   3.092   6.471 -0.5316  0.8093  0.6846
  145OSM    H6F16023   1.785   3.140   6.497 -0.1174 -0.0846  0.8638
  145OSM    H6G16024   1.608   3.166   6.451 -0.0898  1.6323  1.8450
  145OSM    C7F16025   1.720   3.015   6.339 -0.6543  0.9117  0.0227
  145OSM    H7F16026   1.625   2.973   6.301 -1.6468  2.0575  1.1856
  145OSM    H7G16027   1.795   2.936   6.364  1.5833  2.6292 -0.8403
  145OSM    C8F16028   1.763   3.109   6.224  0.9545  0.2953  0.8110
  145OSM    H8F16029   1.683   3.183   6.204  1.3333  0.3717 -0.5123
  145OSM    H8G16030   1.767   3.045   6.133  0.3769  0.5918  0.5750
  145OSM    C9F16031   1.889   3.181   6.253 -0.6760 -0.5231 -0.0466
  145OSM    H9F16032   1.928   3.176   6.355  1.3850 -0.3243 -0.7676
  145OSM   C10F16033   1.970   3.236   6.157 -0.3776  0.4759  0.0635
  145OSM   H10F16034   2.048   3.307   6.187 -0.5502  0.7248 -0.0765
  145OSM   C11F16035   1.925   3.259   6.015  0.9907  0.1734 -0.2616
  145OSM   H11F16036   1.816   3.279   6.006  1.1335  1.3358  0.3577
  145OSM   H11G16037   1.933   3.164   5.959 -0.4561  0.3128 -0.7557
  145OSM   C12F16038   2.003   3.373   5.947  0.5264  0.3003 -0.0729
  145OSM   H12F16039   1.986   3.465   6.008  0.1278  0.8429 -0.9893
  145OSM   H12G16040   1.958   3.382   5.846 -3.1829 -0.2925  1.3534
  145OSM   C13F16041   2.151   3.356   5.927 -0.2319  0.1437 -0.1800
  145OSM   H13F16042   2.172   3.273   5.856 -0.5444  0.5255 -0.7325
  145OSM   H13G16043   2.203   3.322   6.018  1.4764 -0.9509 -1.5024
  145OSM   C14F16044   2.216   3.491   5.888  1.0731  0.2139 -0.4344
  145OSM   H14F16045   2.197   3.571   5.963 -0.7432  1.1353 -1.7675
  145OSM   H14G16046   2.165   3.518   5.793 -0.3449  0.6597  0.4232
  145OSM   C15F16047   2.367   3.478   5.858  0.5004  0.0265 -0.1563
  145OSM   H15F16048   2.375   3.410   5.770 -1.1224  0.1872 -0.4488
  145OSM   H15G16049   2.399   3.434   5.955 -1.5261  1.4421  1.2303
  145OSM   C16F16050   2.447   3.608   5.833  0.0896 -0.6172 -0.4815
  145OSM   H16F16051   2.556   3.592   5.821  0.5425  1.1796  0.9685
  145OSM   H16G16052   2.430   3.664   5.927 -0.2296 -0.4464 -0.6385
  145OSM   C17F16053   2.399   3.685   5.705  0.8815  0.3592 -0.1177
  145OSM   H17F16054   2.293   3.714   5.716  0.2774 -0.9581 -2.0475
  145OSM   H17G16055   2.387   3.612   5.623 -0.1081 -0.3951  0.6751
  145OSM   C18F16056   2.472   3.814   5.670 -0.1863 -0.0368  1.1354
  145OSM   H18F16057   2.580   3.796   5.653 -0.0782 -0.2778  2.0369
  145OSM   H18G16058   2.455   3.903   5.733  0.9597  0.2334  1.0778
  145OSM   H18H16059   2.434   3.845   5.571  4.3124  1.4716 -0.3687
  146OSM      N16060   6.146   4.545   8.023  0.0466 -0.1541 -0.0669
  146OSM    C1516061   6.032   4.622   8.081  0.4903  0.3269 -0.1656
  146OSM   H15A16062   5.951   4.621   8.009  1.2062 -0.1917 -0.9978
  146OSM   H15B16063   6.048   4.728   8.090  1.4405  0.2470 -0.7981
  146OSM   H15C16064   6.002   4.575   8.173 -0.4276  1.7187  0.2714
  146OSM    C1416065   6.123   4.394   8.022  0.3258  0.4107 -0.7843
  146OSM   H14A16066   6.206   4.338   7.983 -1.2369 -0.8756 -2.4744
  146OSM   H14B16067   6.033   4.373   7.966 -0.1259 -0.6913  0.3158
  146OSM   H14C16068   6.115   4.361   8.124 -0.3622  1.1844 -0.5753
  146OSM    C1316069   6.157   4.588   7.884 -0.2180 -0.4480 -0.1511
  146OSM   H13A16070   6.076   4.558   7.820 -0.6882  0.8366 -0.1941
  146OSM   H13B16071   6.251   4.561   7.839 -0.0892  1.7742 -1.3614
  146OSM   H13C16072   6.152   4.695   7.873  1.2480 -0.3671 -0.1800
  146OSM    C1216073   6.277   4.581   8.091 -0.0231 -0.1922 -0.7528
  146OSM   H12A16074   6.273   4.552   8.195  1.2735 -1.2440 -0.9775
  146OSM   H12B16075   6.279   4.689   8.095 -1.2599 -0.1724 -0.1932
  146OSM    C1116076   6.410   4.538   8.028  0.1147  0.1105  0.7341
  146OSM   H11A16077   6.398   4.455   7.955 -2.7382  0.6404  0.4572
  146OSM   H11B16078   6.491   4.514   8.099  0.6738  0.0531  0.0874
  146OSM      P16079   6.597   4.655   7.882  0.6409  0.0824 -0.3348
  146OSM    O1316080   6.625   4.790   7.825 -0.4029  0.6800 -0.1879
  146OSM    O1416081   6.690   4.607   7.988  1.0008  0.0109 -0.1333
  146OSM    O1116082   6.590   4.545   7.772 -0.7306 -0.4436 -0.1734
  146OSM    O1216083   6.452   4.655   7.949 -0.0654  0.4270 -0.1359
  146OSM    C1S16084   6.477   4.508   7.689 -0.4481  0.2666 -0.1588
  146OSM    H1S16085   6.382   4.516   7.744  0.1345 -1.9160  1.3034
  146OSM    H1T16086   6.483   4.401   7.657 -0.7884  0.4043 -0.6917
  146OSM     NF16087   6.349   4.556   7.481  0.2444  1.0983  0.5952
  146OSM    HNF16088   6.355   4.494   7.404  1.4157 -1.5517  2.6563
  146OSM    C2S16089   6.479   4.575   7.550  0.0272 -0.5448  0.4087
  146OSM    H2S16090   6.490   4.682   7.577  2.1105 -0.7708  0.6495
  146OSM    C3S16091   6.604   4.539   7.464  0.2004 -0.1385  0.5138
  146OSM    H3S16092   6.594   4.436   7.425  1.8100  0.5974 -2.1004
  146OSM     O316093   6.731   4.538   7.529 -0.3325  0.1493  0.3243
  146OSM    HO316094   6.710   4.504   7.617  0.6033 -1.9077 -0.1959
  146OSM    C4S16095   6.610   4.630   7.336 -0.0554  0.1067  0.3344
  146OSM    H4S16096   6.593   4.737   7.358  0.0955 -0.1933  2.0697
  146OSM    C5S16097   6.602   4.581   7.207  0.6689  0.8886 -0.2985
  146OSM    H5S16098   6.566   4.478   7.194 -0.8538  1.2532  0.7984
  146OSM    C6S16099   6.585   4.665   7.082  0.3477 -0.2452  1.4958
  146OSM    H6S16100   6.622   4.769   7.098 -2.5707  1.5942 -2.1886
  146OSM    H6T16101   6.475   4.678   7.071  0.4584 -1.1074 -1.8031
  146OSM    C7S16102   6.644   4.617   6.942  0.6518  0.4895 -0.1760
  146OSM    H7S16103   6.755   4.625   6.931  0.5955 -0.1821 -1.4033
  146OSM    H7T16104   6.609   4.685   6.862 -0.1350 -0.8290 -0.9801
  146OSM    C8S16105   6.599   4.472   6.909  0.1423 -0.7603 -0.2106
  146OSM    H8S16106   6.488   4.473   6.901  0.0610 -1.1705  0.7267
  146OSM    H8T16107   6.632   4.400   6.987  1.4169 -0.1931 -0.2144
  146OSM    C9S16108   6.646   4.429   6.763  0.0745  0.0765 -1.0874
  146OSM    H9S16109   6.602   4.329   6.743  0.5566 -0.9061  2.2108
  146OSM    H9T16110   6.754   4.426   6.738  0.3650 -1.8235  0.1570
  146OSM   C10S16111   6.599   4.532   6.657 -0.1676  0.2181 -0.5377
  146OSM   H10S16112   6.672   4.615   6.650  0.1518  0.1529  1.4822
  146OSM   H10T16113   6.497   4.573   6.672  0.3593  1.1186  0.8450
  146OSM   C11S16114   6.605   4.477   6.520 -0.0227 -0.1735 -0.2330
  146OSM   H11S16115   6.551   4.380   6.513 -0.6699  0.1398  0.2893
  146OSM   H11T16116   6.708   4.443   6.496 -0.6970 -2.5114 -0.0641
  146OSM   C12S16117   6.547   4.568   6.408 -0.6001  0.3400  0.1752
  146OSM   H12S16118   6.593   4.666   6.434  1.1826 -0.5324  0.4250
  146OSM   H12T16119   6.440   4.598   6.410 -0.8002 -0.3955  1.7936
  146OSM   C13S16120   6.576   4.522   6.261  0.0089 -0.4525  0.2697
  146OSM   H13S16121   6.520   4.430   6.234 -1.6877 -0.5613  3.5506
  146OSM   H13T16122   6.684   4.503   6.246  0.3615 -0.5863  2.5448
  146OSM   C14S16123   6.546   4.640   6.168  0.3972  0.2769 -0.4917
  146OSM   H14S16124   6.606   4.727   6.204  0.3914 -0.2095  0.7377
  146OSM   H14T16125   6.438   4.664   6.175  0.3338 -0.3621  0.8859
  146OSM   C15S16126   6.582   4.614   6.023  0.9069 -0.2357  0.2588
  146OSM   H15S16127   6.583   4.504   6.007  0.9401 -0.2786  0.5549
  146OSM   H15T16128   6.690   4.633   6.006  0.9114  1.5897  1.9373
  146OSM   C16S16129   6.498   4.688   5.920  0.4756 -0.8652  0.7615
  146OSM   H16S16130   6.501   4.794   5.954 -0.5560 -0.6424  0.1897
  146OSM   H16T16131   6.389   4.663   5.924 -0.0758  1.1472 -0.5147
  146OSM   C17S16132   6.555   4.674   5.776 -0.1826 -0.4420 -0.2901
  146OSM   H17S16133   6.545   4.569   5.742 -0.1715 -0.9168  1.1117
  146OSM   H17T16134   6.663   4.700   5.777  0.0712 -1.4761  0.2296
  146OSM   C18S16135   6.486   4.785   5.679  0.4556 -0.6879  0.3891
  146OSM   H18S16136   6.376   4.770   5.680  0.4065 -0.3658  1.4681
  146OSM   H18T16137   6.539   4.778   5.582  0.8350 -2.0060  0.6644
  146OSM   H18U16138   6.503   4.890   5.709  0.0414 -0.7509  0.8784
  146OSM    C1F16139   6.237   4.615   7.515  0.1485  0.3157 -0.6076
  146OSM     OF16140   6.239   4.701   7.606  1.2640  0.3056  0.6608
  146OSM    C2F16141   6.113   4.585   7.423 -0.2804 -0.8286 -0.0257
  146OSM    H2F16142   6.032   4.597   7.499  1.5180  1.4491  1.6748
  146OSM    H2G16143   6.123   4.479   7.393  0.7651 -0.8580  0.3725
  146OSM    C3F16144   6.090   4.693   7.316  0.2949 -0.3750  0.5372
  146OSM    H3F16145   6.153   4.781   7.340  1.2887 -0.7050 -0.7329
  146OSM    H3G16146   5.983   4.724   7.312 -0.3949 -2.6636 -0.0833
  146OSM    C4F16147   6.142   4.657   7.174 -0.5077  0.4780 -0.1270
  146OSM    H4F16148   6.078   4.578   7.128 -0.4768  0.3987 -0.0341
  146OSM    H4G16149   6.249   4.627   7.179 -0.5807 -0.0166 -1.1302
  146OSM    C5F16150   6.131   4.763   7.074  0.9438 -0.4498 -0.7414
  146OSM    H5F16151   6.178   4.859   7.104 -1.8062  1.0636 -0.9198
  146OSM    H5G16152   6.023   4.787   7.087  0.6196 -1.6518 -1.0657
  146OSM    C6F16153   6.161   4.713   6.937  0.3923  0.1661  0.3694
  146OSM    H6F16154   6.093   4.626   6.927 -0.3516  0.6630  1.0095
  146OSM    H6G16155   6.265   4.674   6.933  0.2865 -0.0396 -0.8743
  146OSM    C7F16156   6.111   4.817   6.834 -1.0480  0.3203 -0.3115
  146OSM    H7F16157   6.169   4.911   6.847  0.3231 -0.7651  2.0011
  146OSM    H7G16158   6.006   4.840   6.861 -0.2787  1.1963  2.2192
  146OSM    C8F16159   6.115   4.787   6.685  0.3840 -0.3772 -0.5836
  146OSM    H8F16160   6.039   4.707   6.669  0.7050 -0.4756 -1.6426
  146OSM    H8G16161   6.218   4.751   6.664  0.0379 -2.1025  0.4477
  146OSM    C9F16162   6.071   4.895   6.591 -0.6500 -0.0282 -0.4355
  146OSM    H9F16163   5.991   4.958   6.633 -1.1983  0.6131 -2.3227
  146OSM   C10F16164   6.079   4.905   6.459 -0.0640  0.4338  0.7052
  146OSM   H10F16165   6.022   4.990   6.419  0.3512  0.7296  0.7440
  146OSM   C11F16166   6.175   4.829   6.369  0.8694  0.0600 -0.3477
  146OSM   H11F16167   6.115   4.752   6.314 -0.8924 -0.6869  2.3983
  146OSM   H11G16168   6.245   4.763   6.425 -0.0557 -1.0899 -0.4898
  146OSM   C12F16169   6.238   4.930   6.269 -0.3225  0.1835  0.1559
  146OSM   H12F16170   6.320   4.878   6.216  0.4316  2.8526 -1.5170
  146OSM   H12G16171   6.294   5.009   6.323 -0.9558  0.2769  0.6777
  146OSM   C13F16172   6.138   4.995   6.171 -0.0011  0.3980  0.0722
  146OSM   H13F16173   6.072   5.068   6.223  0.9058  0.7937  0.6975
  146OSM   H13G16174   6.081   4.909   6.130  1.0601  0.1076 -0.8375
  146OSM   C14F16175   6.198   5.057   6.044  0.3182  0.2052 -0.2625
  146OSM   H14F16176   6.279   5.124   6.079 -1.0636  0.9367  1.6566
  146OSM   H14G16177   6.229   4.972   5.978 -1.4152 -0.4718 -0.2579
  146OSM   C15F16178   6.104   5.150   5.970 -0.2682 -0.2408  0.0018
  146OSM   H15F16179   6.157   5.185   5.879  0.7183 -0.2996  0.5431
  146OSM   H15G16180   6.077   5.231   6.041 -0.8188 -0.8188  0.4717
  146OSM   C16F16181   5.970   5.082   5.930  0.0626  0.4791  1.1904
  146OSM   H16F16182   5.907   5.062   6.019 -2.4741 -0.1231 -0.6430
  146OSM   H16G16183   5.992   4.988   5.875  0.4152  0.5199  1.2592
  146OSM   C17F16184   5.888   5.166   5.832  0.5840 -0.1753  0.2585
  146OSM   H17F16185   5.948   5.179   5.740 -1.3154  3.3220 -0.6596
  146OSM   H17G16186   5.878   5.263   5.886  2.7013 -0.4395  1.2456
  146OSM   C18F16187   5.743   5.117   5.807 -0.5710 -0.4887  0.1147
  146OSM   H18F16188   5.676   5.098   5.894 -0.6330 -1.2927 -0.1033
  146OSM   H18G16189   5.739   5.016   5.762 -0.7552 -0.2850 -0.3351
  146OSM   H18H16190   5.687   5.190   5.744 -0.7201 -1.2238 -0.6179
  147OSM      N16191   2.394   1.478   2.680  0.0377 -0.6037 -0.0253
  147OSM    C1516192   2.418   1.619   2.723 -0.4602  0.5557  0.2793
  147OSM   H15A16193   2.524   1.635   2.737  0.3429 -3.4235  0.0409
  147OSM   H15B16194   2.358   1.651   2.807  1.2943  1.8427  1.0916
  147OSM   H15C16195   2.384   1.690   2.648 -0.0280  0.7308  0.2492
  147OSM    C1416196   2.256   1.451   2.652 -0.6442  0.2233 -0.7798
  147OSM   H14A16197   2.195   1.458   2.741  1.3152  2.3653  0.5442
  147OSM   H14B16198   2.251   1.351   2.611 -0.7016 -0.4571  0.8076
  147OSM   H14C16199   2.211   1.512   2.576 -0.6499 -0.5133 -1.3773
  147OSM    C1316200   2.474   1.454   2.555 -0.1746  0.3998  0.1698
  147OSM   H13A16201   2.420   1.496   2.472  0.6760  3.7530  1.1911
  147OSM   H13B16202   2.493   1.351   2.526  0.6592  0.8404 -0.9243
  147OSM   H13C16203   2.572   1.497   2.571  0.3656 -0.6855 -0.0611
  147OSM    C1216204   2.445   1.384   2.787 -0.7514  0.3500  0.7168
  147OSM   H12A16205   2.553   1.377   2.784 -0.7156 -0.6708  2.6600
  147OSM   H12B16206   2.420   1.283   2.758  1.9463 -0.1282 -0.2497
  147OSM    C1116207   2.399   1.387   2.931 -0.2063 -0.2313  0.5790
  147OSM   H11A16208   2.416   1.493   2.958  0.5383 -0.5833  1.6066
  147OSM   H11B16209   2.478   1.326   2.981  2.8792  2.4013 -0.7212
  147OSM      P16210   2.238   1.207   3.011 -0.0957 -0.2628 -0.1636
  147OSM    O1316211   2.093   1.200   3.033  0.1184 -0.2641 -0.6194
  147OSM    O1416212   2.299   1.121   2.906  0.3416 -0.1650 -0.6133
  147OSM    O1116213   2.322   1.198   3.142 -0.0793 -0.5154  0.1419
  147OSM    O1216214   2.271   1.352   2.958 -0.2958 -0.3059 -0.0785
  147OSM    C1S16215   2.282   1.286   3.244 -0.1880 -0.1619 -0.0342
  147OSM    H1S16216   2.173   1.287   3.267  0.4795  0.3101  3.8289
  147OSM    H1T16217   2.301   1.394   3.228 -0.7636 -0.3481 -2.2527
  147OSM     NF16218   2.310   1.319   3.490  0.2053  0.2485  0.3314
  147OSM    HNF16219   2.354   1.407   3.505  2.0185 -0.2327 -1.6870
  147OSM    C2S16220   2.357   1.244   3.371  0.0575 -0.1999  0.1674
  147OSM    H2S16221   2.339   1.138   3.395  2.2242 -1.2950 -2.5149
  147OSM    C3S16222   2.507   1.270   3.343  0.1782 -0.1936  0.5614
  147OSM    H3S16223   2.510   1.377   3.314 -1.3814 -0.7481 -1.9846
  147OSM     O316224   2.562   1.206   3.229  0.5616 -0.4794  0.0643
  147OSM    HO316225   2.481   1.186   3.181  0.7539  0.7384 -0.8273
  147OSM    C4S16226   2.596   1.240   3.458  1.0073  0.0593 -0.5188
  147OSM    H4S16227   2.583   1.139   3.500 -1.0503  1.6434  3.0849
  147OSM    C5S16228   2.678   1.317   3.530 -0.1610  0.5255 -0.0621
  147OSM    H5S16229   2.710   1.416   3.495  2.4604 -0.6598 -1.3339
  147OSM    C6S16230   2.747   1.275   3.656 -0.5070  0.0578  0.2682
  147OSM    H6S16231   2.837   1.332   3.689  0.3786 -1.9055  1.3804
  147OSM    H6T16232   2.795   1.175   3.659  0.0541  0.3346  1.8864
  147OSM    C7S16233   2.655   1.264   3.780 -0.2963  0.8893 -0.8146
  147OSM    H7S16234   2.556   1.218   3.756 -0.4843  0.8639 -0.0271
  147OSM    H7T16235   2.636   1.370   3.804  0.3947  0.3138  2.8190
  147OSM    C8S16236   2.723   1.208   3.905  0.3730 -0.4873 -0.1858
  147OSM    H8S16237   2.811   1.267   3.938 -0.7503  0.3204  1.5522
  147OSM    H8T16238   2.744   1.105   3.869 -1.9166 -2.3115  3.0482
  147OSM    C9S16239   2.643   1.204   4.032 -0.7479  1.3264  0.3284
  147OSM    H9S16240   2.550   1.150   4.003  0.7655 -0.7606 -0.8212
  147OSM    H9T16241   2.625   1.311   4.057  0.0252  1.4170  0.5112
  147OSM   C10S16242   2.704   1.120   4.141  0.3426 -0.1372 -1.2943
  147OSM   H10S16243   2.815   1.131   4.145  0.2500  0.7077  1.9188
  147OSM   H10T16244   2.676   1.013   4.142 -1.0146  0.1971 -1.0412
  147OSM   C11S16245   2.660   1.178   4.277 -0.2151 -0.3960  0.5606
  147OSM   H11S16246   2.554   1.207   4.262 -0.5414 -1.2500  1.1362
  147OSM   H11T16247   2.711   1.273   4.303  1.7919 -1.2165 -0.1822
  147OSM   C12S16248   2.696   1.081   4.392 -0.9613 -0.3654 -0.1669
  147OSM   H12S16249   2.800   1.046   4.381 -1.4283 -1.3099 -2.0495
  147OSM   H12T16250   2.634   0.989   4.383  0.5052 -1.3878  0.0284
  147OSM   C13S16251   2.673   1.136   4.534 -0.8215  0.4350  1.0468
  147OSM   H13S16252   2.562   1.125   4.543 -1.1600  0.3467 -2.2559
  147OSM   H13T16253   2.695   1.245   4.532 -2.4761  0.8170  1.3075
  147OSM   C14S16254   2.759   1.055   4.635  0.2912 -0.6727 -0.0519
  147OSM   H14S16255   2.858   1.105   4.641 -0.0932 -0.0191  1.2233
  147OSM   H14T16256   2.759   0.952   4.593  1.8548  0.4842 -3.2173
  147OSM   C15S16257   2.701   1.055   4.781 -0.0232  0.1315 -0.2567
  147OSM   H15S16258   2.704   0.948   4.813  0.5715  0.0209 -0.6540
  147OSM   H15T16259   2.592   1.074   4.782  0.2981  2.1725 -0.4123
  147OSM   C16S16260   2.779   1.135   4.883 -0.7034 -0.1879  0.7619
  147OSM   H16S16261   2.888   1.132   4.863 -0.7720 -1.9544  0.4566
  147OSM   H16T16262   2.774   1.090   4.984 -3.0910  0.1510  0.8640
  147OSM   C17S16263   2.735   1.283   4.893 -0.1339 -0.0308  0.2945
  147OSM   H17S16264   2.626   1.282   4.912 -0.1112 -3.2446  0.8515
  147OSM   H17T16265   2.747   1.330   4.793  3.5782 -0.4137  0.3900
  147OSM   C18S16266   2.802   1.370   4.997  0.5803  1.0074  0.0002
  147OSM   H18S16267   2.797   1.315   5.094 -0.1753 -1.6340 -1.4320
  147OSM   H18T16268   2.768   1.475   4.997  0.3864  0.9808 -2.3175
  147OSM   H18U16269   2.911   1.358   4.980  0.3964  0.6389 -0.9532
  147OSM    C1F16270   2.193   1.292   3.550 -0.3876  0.2006 -0.5867
  147OSM     OF16271   2.127   1.194   3.514 -0.3898 -0.0390 -0.2289
  147OSM    C2F16272   2.137   1.396   3.652 -0.7926 -0.1756 -0.1064
  147OSM    H2F16273   2.084   1.474   3.594 -1.0251  1.3664  2.0704
  147OSM    H2G16274   2.220   1.445   3.707 -0.6261 -0.2309 -0.3073
  147OSM    C3F16275   2.041   1.317   3.736  0.4079  0.3476 -0.9041
  147OSM    H3F16276   2.090   1.230   3.784 -0.6968 -0.4586 -1.1865
  147OSM    H3G16277   1.962   1.273   3.672  0.6718 -0.4228 -0.7110
  147OSM    C4F16278   1.980   1.405   3.847  0.0658  0.5488 -0.1004
  147OSM    H4F16279   1.932   1.493   3.799  0.2139  1.1042  0.7291
  147OSM    H4G16280   2.066   1.436   3.911  0.4106  0.9621 -0.7576
  147OSM    C5F16281   1.882   1.336   3.946 -0.4234 -0.5262 -0.0677
  147OSM    H5F16282   1.922   1.242   3.990  0.9805  0.0206 -0.1323
  147OSM    H5G16283   1.789   1.315   3.889 -1.7393  2.2314  0.8734
  147OSM    C6F16284   1.843   1.432   4.059  0.3631  0.6818 -0.8726
  147OSM    H6F16285   1.795   1.522   4.015  0.1060  0.1411 -1.7118
  147OSM    H6G16286   1.938   1.460   4.110  0.0744  1.1851 -0.6024
  147OSM    C7F16287   1.753   1.356   4.158  0.9924  0.0497  0.1299
  147OSM    H7F16288   1.815   1.270   4.190  1.9392  1.2246  1.5728
  147OSM    H7G16289   1.665   1.311   4.108  2.1107 -1.2298 -0.7413
  147OSM    C8F16290   1.705   1.440   4.278  0.2017 -0.3388  0.1991
  147OSM    H8F16291   1.620   1.387   4.324 -0.4297 -1.1147 -1.7478
  147OSM    H8G16292   1.653   1.528   4.235  0.6356  0.4998  1.3310
  147OSM    C9F16293   1.822   1.479   4.369 -0.6549 -0.0552 -0.6243
  147OSM    H9F16294   1.914   1.511   4.317 -0.2520 -0.7104 -0.3253
  147OSM   C10F16295   1.827   1.472   4.502 -0.4952 -0.3758 -0.5299
  147OSM   H10F16296   1.917   1.504   4.557  0.7021 -0.3701 -2.3983
  147OSM   C11F16297   1.723   1.422   4.597 -0.3893  0.0458 -0.3934
  147OSM   H11F16298   1.759   1.330   4.647  0.6251  0.8062  0.3111
  147OSM   H11G16299   1.634   1.386   4.542  0.6870 -1.2068 -1.3647
  147OSM   C12F16300   1.683   1.518   4.709 -0.2724 -0.4351  0.5699
  147OSM   H12F16301   1.607   1.465   4.770  0.7246 -1.8304  0.6578
  147OSM   H12G16302   1.646   1.614   4.667 -0.1843  0.6297  2.7881
  147OSM   C13F16303   1.789   1.557   4.815  0.6804 -0.4908  0.1490
  147OSM   H13F16304   1.885   1.593   4.773  0.5791 -0.6820 -0.2558
  147OSM   H13G16305   1.813   1.470   4.880 -1.9750 -2.1074 -0.8730
  147OSM   C14F16306   1.736   1.679   4.904  0.1467  0.2540  0.3680
  147OSM   H14F16307   1.631   1.653   4.928  0.4314 -1.8867 -0.4450
  147OSM   H14G16308   1.724   1.762   4.831 -2.3704 -0.8707 -0.6014
  147OSM   C15F16309   1.817   1.722   5.024  0.2715 -0.0903  0.1046
  147OSM   H15F16310   1.909   1.774   4.991  1.4744 -0.7843  2.2063
  147OSM   H15G16311   1.838   1.629   5.080 -2.5635 -1.2774 -0.6137
  147OSM   C16F16312   1.733   1.825   5.104 -0.4381  0.2973 -0.4702
  147OSM   H16F16313   1.639   1.779   5.139 -0.9404  0.5613 -1.4593
  147OSM   H16G16314   1.708   1.915   5.044  0.8436  0.4020 -0.8894
  147OSM   C17F16315   1.817   1.875   5.228  0.8017  0.3469 -0.3316
  147OSM   H17F16316   1.911   1.914   5.184 -0.6406  1.5888 -2.5551
  147OSM   H17G16317   1.832   1.789   5.296  0.4655  0.7749  0.2983
  147OSM   C18F16318   1.750   1.988   5.309  0.0106  0.3234  0.2828
  147OSM   H18F16319   1.828   2.040   5.369  0.9125 -1.0816  0.3777
  147OSM   H18G16320   1.681   1.947   5.386 -0.2510  2.1103  1.0628
  147OSM   H18H16321   1.710   2.063   5.237 -0.2586  0.6754  0.7958
  148OSM      N16322   2.289   6.865   2.713 -0.1763 -0.2810  0.1198
  148OSM    C1516323   2.428   6.908   2.747 -0.2839  0.4379 -1.0532
  148OSM   H15A16324   2.455   6.969   2.662  0.5306  1.7402  0.0945
  148OSM   H15B16325   2.493   6.826   2.773 -1.3909  0.6279  3.1078
  148OSM   H15C16326   2.421   6.970   2.835  0.2467 -0.8859 -0.0531
  148OSM    C1416327   2.295   6.775   2.598 -0.1247 -0.8737  0.3658
  148OSM   H14A16328   2.193   6.747   2.574 -0.0277 -1.3734  0.5414
  148OSM   H14B16329   2.347   6.683   2.618  0.1993 -1.1861 -1.7216
  148OSM   H14C16330   2.341   6.831   2.518  0.0373  0.7982  1.5619
  148OSM    C1316331   2.228   6.793   2.832  0.3291 -0.8354 -0.3403
  148OSM   H13A16332   2.293   6.717   2.872  1.7376  0.7315  0.5091
  148OSM   H13B16333   2.130   6.749   2.820  0.0747 -1.1335  2.1664
  148OSM   H13C16334   2.200   6.853   2.918 -2.3863 -1.9189 -0.3653
  148OSM    C1216335   2.202   6.986   2.669  0.4324  0.4889 -0.1029
  148OSM   H12A16336   2.181   7.041   2.760  1.8276  0.3385  0.3438
  148OSM   H12B16337   2.110   6.948   2.627 -0.5323 -0.2969  2.4669
  148OSM    C1116338   2.251   7.087   2.575 -0.3679 -0.6696 -0.4602
  148OSM   H11A16339   2.160   7.145   2.551 -0.5655 -0.8241 -0.1017
  148OSM   H11B16340   2.306   7.042   2.490  1.2452 -0.8836  0.6383
  148OSM      P16341   2.327   7.273   2.752 -0.2757 -0.1426  0.3167
  148OSM    O1316342   2.445   7.348   2.787 -0.3349  0.1083 -0.3454
  148OSM    O1416343   2.209   7.347   2.706 -0.4080 -0.4905  0.1711
  148OSM    O1116344   2.282   7.188   2.876 -0.7199 -0.0718  0.1717
  148OSM    O1216345   2.353   7.163   2.644  0.1702 -0.2932  0.1258
  148OSM    C1S16346   2.374   7.153   2.981 -0.4480 -0.2787  0.0064
  148OSM    H1S16347   2.474   7.193   2.954 -0.1805 -2.0310 -1.8872
  148OSM    H1T16348   2.383   7.042   2.980 -0.1240 -0.2497 -1.0460
  148OSM     NF16349   2.434   7.140   3.216  0.3375  0.0548 -0.1904
  148OSM    HNF16350   2.431   7.044   3.242 -0.7264 -0.0177 -0.5410
  148OSM    C2S16351   2.333   7.191   3.129 -0.3388 -0.4101  0.5892
  148OSM    H2S16352   2.329   7.300   3.151 -1.5960 -0.0246 -1.2671
  148OSM    C3S16353   2.187   7.135   3.149 -0.1233  0.5805 -0.1166
  148OSM    H3S16354   2.176   7.025   3.139 -0.0422  0.5750 -0.1412
  148OSM     O316355   2.095   7.194   3.059 -0.7285  0.1080 -0.6752
  148OSM    HO316356   2.154   7.231   2.992  0.7592 -1.5425 -0.3495
  148OSM    C4S16357   2.156   7.168   3.287  0.0613 -0.4938 -0.3031
  148OSM    H4S16358   2.135   7.271   3.319 -1.1328 -1.8770  4.1139
  148OSM    C5S16359   2.125   7.088   3.388 -0.8420 -0.0519  0.1076
  148OSM    H5S16360   2.132   6.980   3.365  2.2637  0.3391 -1.2656
  148OSM    C6S16361   2.083   7.123   3.528 -0.1485  0.2532  0.4831
  148OSM    H6S16362   1.980   7.084   3.545  0.1439 -0.8725 -0.2003
  148OSM    H6T16363   2.067   7.231   3.546 -2.3727  0.3684 -1.6171
  148OSM    C7S16364   2.173   7.051   3.631  0.2635 -0.0771 -0.4291
  148OSM    H7S16365   2.281   7.077   3.627  0.4813 -1.0051 -1.3485
  148OSM    H7T16366   2.154   6.944   3.604 -1.9943  0.6746 -2.1229
  148OSM    C8S16367   2.132   7.082   3.780 -0.3200 -0.7200 -0.4237
  148OSM    H8S16368   2.031   7.038   3.794  0.8193 -3.1648  0.8229
  148OSM    H8T16369   2.137   7.191   3.802  1.4252 -1.0432  1.0210
  148OSM    C9S16370   2.214   7.014   3.889 -0.2073  0.2119  0.2080
  148OSM    H9S16371   2.311   7.065   3.900 -0.0163 -0.1039  0.0208
  148OSM    H9T16372   2.238   6.909   3.861 -0.8354  0.0666  0.1942
  148OSM   C10S16373   2.150   7.024   4.017 -0.0686  0.8784  0.4213
  148OSM   H10S16374   2.055   6.966   4.014 -1.3547  2.8609 -3.0402
  148OSM   H10T16375   2.124   7.129   4.038 -2.4572  0.2955  0.5881
  148OSM   C11S16376   2.244   6.982   4.135 -0.1630 -0.0229  0.1943
  148OSM   H11S16377   2.342   7.031   4.119 -0.0503 -0.0540  0.7519
  148OSM   H11T16378   2.272   6.875   4.125  0.1627  0.1171 -0.4511
  148OSM   C12S16379   2.183   7.032   4.268  0.5263  0.0475 -0.0699
  148OSM   H12S16380   2.081   6.989   4.263  0.4725 -0.3245  2.5895
  148OSM   H12T16381   2.169   7.143   4.266 -0.6388 -0.0886  0.1607
  148OSM   C13S16382   2.267   7.004   4.390  0.2336 -0.2171 -0.1902
  148OSM   H13S16383   2.355   7.067   4.364 -2.3856  2.8757 -2.4142
  148OSM   H13T16384   2.291   6.899   4.362  1.2991  0.4886 -2.2156
  148OSM   C14S16385   2.191   7.037   4.519 -0.6754  0.2623  0.0864
  148OSM   H14S16386   2.109   6.963   4.530  1.6480 -2.8913 -2.0348
  148OSM   H14T16387   2.156   7.142   4.515  1.5805  1.0427 -0.8951
  148OSM   C15S16388   2.284   7.017   4.646 -0.0674  0.0771 -0.0145
  148OSM   H15S16389   2.234   7.064   4.734  2.2959  1.3660  0.7494
  148OSM   H15T16390   2.371   7.083   4.621  0.5624  0.3559  2.6013
  148OSM   C16S16391   2.328   6.871   4.656  0.0478 -0.9075 -0.5658
  148OSM   H16S16392   2.354   6.827   4.558 -0.3795  0.8075 -1.4854
  148OSM   H16T16393   2.231   6.829   4.690 -2.0369  1.6242 -2.9900
  148OSM   C17S16394   2.449   6.846   4.754  0.9180 -1.0186 -0.2204
  148OSM   H17S16395   2.462   6.736   4.752  0.1727 -1.1063 -1.8311
  148OSM   H17T16396   2.426   6.880   4.857  0.7420 -0.1540 -0.5386
  148OSM   C18S16397   2.579   6.923   4.714  1.2592  0.0236 -0.1621
  148OSM   H18S16398   2.666   6.886   4.773  0.2605 -0.7964  0.8255
  148OSM   H18T16399   2.569   7.033   4.732  1.7752 -0.1211  1.0991
  148OSM   H18U16400   2.591   6.910   4.604 -0.6734 -1.2449 -0.2516
  148OSM    C1F16401   2.535   7.205   3.251  0.1927  0.6650  0.1089
  148OSM     OF16402   2.563   7.313   3.201 -0.2319 -0.6869  0.2202
  148OSM    C2F16403   2.628   7.151   3.359 -0.0738 -0.0943  0.0897
  148OSM    H2F16404   2.680   7.060   3.321 -1.7216 -1.1352  0.2136
  148OSM    H2G16405   2.564   7.126   3.446  0.9628 -2.8791  0.1516
  148OSM    C3F16406   2.721   7.261   3.428 -0.8885 -0.8218 -0.4025
  148OSM    H3F16407   2.659   7.340   3.473  1.5371  0.3049  1.1673
  148OSM    H3G16408   2.797   7.312   3.365  1.1396 -3.6866 -0.4704
  148OSM    C4F16409   2.798   7.210   3.560  0.0829 -0.6190  0.3606
  148OSM    H4F16410   2.869   7.284   3.603 -0.2315  2.0953 -3.3210
  148OSM    H4G16411   2.846   7.112   3.541 -0.4130 -0.7431 -0.2795
  148OSM    C5F16412   2.700   7.189   3.676  0.3813 -0.1125 -0.1643
  148OSM    H5F16413   2.624   7.112   3.647 -2.1314  2.1478  0.0481
  148OSM    H5G16414   2.628   7.273   3.686  1.2149  0.6345 -0.3621
  148OSM    C6F16415   2.775   7.153   3.806 -0.1057  0.3541 -0.6510
  148OSM    H6F16416   2.846   7.237   3.826  0.2220  0.2579 -1.4069
  148OSM    H6G16417   2.838   7.063   3.789 -1.5507 -0.9192  0.4182
  148OSM    C7F16418   2.676   7.113   3.917 -0.0195 -0.1476 -0.2105
  148OSM    H7F16419   2.622   7.019   3.895 -2.3554  1.2318 -0.7333
  148OSM    H7G16420   2.591   7.184   3.924  0.0226 -0.2282  1.5202
  148OSM    C8F16421   2.741   7.115   4.060  0.0108  0.6343  0.3255
  148OSM    H8F16422   2.770   7.219   4.082  0.4414  0.5357  0.2364
  148OSM    H8G16423   2.838   7.062   4.058 -1.0778 -1.4943  0.6779
  148OSM    C9F16424   2.663   7.058   4.174  0.2685  0.2311  0.2452
  148OSM    H9F16425   2.555   7.082   4.172  0.6698  2.2111  0.7665
  148OSM   C10F16426   2.708   7.014   4.296  0.3056 -1.3119  0.0189
  148OSM   H10F16427   2.643   6.963   4.369 -0.8298 -0.3833 -0.3027
  148OSM   C11F16428   2.858   7.014   4.334  0.7627  1.1828 -0.5026
  148OSM   H11F16429   2.904   7.100   4.281 -1.3488  1.4071 -2.0824
  148OSM   H11G16430   2.906   6.917   4.309 -1.5943  0.8274 -4.4461
  148OSM   C12F16431   2.873   7.026   4.484 -0.1375 -0.0208 -0.4901
  148OSM   H12F16432   2.820   6.939   4.528 -0.6348  1.0781  1.1487
  148OSM   H12G16433   2.828   7.120   4.523 -0.3455 -1.0674  1.9502
  148OSM   C13F16434   3.017   7.029   4.534 -0.6277 -0.1219  0.3488
  148OSM   H13F16435   3.052   7.135   4.532 -0.4599 -0.1927 -1.2781
  148OSM   H13G16436   3.077   6.975   4.458 -2.8564 -0.5663 -1.1668
  148OSM   C14F16437   3.045   6.965   4.674 -0.6922  0.4383  0.5824
  148OSM   H14F16438   3.151   6.986   4.698 -0.7135 -0.8097  1.9061
  148OSM   H14G16439   3.030   6.856   4.663 -0.0369  0.1434  2.2515
  148OSM   C15F16440   2.952   7.010   4.785  0.4377  0.0217  0.5674
  148OSM   H15F16441   2.847   7.006   4.751 -0.0750 -1.5944  2.1800
  148OSM   H15G16442   2.986   7.115   4.800  2.5667 -0.4789 -0.3632
  148OSM   C16F16443   2.954   6.917   4.915  0.3571  0.0620 -0.5532
  148OSM   H16F16444   3.055   6.888   4.951 -0.3363 -1.1724  0.4634
  148OSM   H16G16445   2.900   6.824   4.889 -2.2346  1.5390 -0.8172
  148OSM   C17F16446   2.883   6.980   5.036  0.4393 -0.2655 -0.2734
  148OSM   H17F16447   2.872   6.908   5.121  2.0621 -1.8698 -1.3473
  148OSM   H17G16448   2.783   6.997   4.991  1.2622  1.1839 -1.6634
  148OSM   C18F16449   2.943   7.108   5.085 -0.1719 -0.3121 -0.4764
  148OSM   H18F16450   3.046   7.093   5.123 -0.7264 -0.5294  1.0475
  148OSM   H18G16451   2.887   7.153   5.170  0.6762 -0.8532  0.3897
  148OSM   H18H16452   2.939   7.183   5.003  0.3570 -2.1119 -2.2183
  149OSM      N16453   3.032   6.036   2.563  0.6453 -0.0985  0.2873
  149OSM    C1516454   2.957   6.001   2.441 -0.1784 -0.9711 -0.8131
  149OSM   H15A16455   2.878   5.932   2.463  0.3328 -1.0133  0.9831
  149OSM   H15B16456   3.022   5.949   2.371  0.4542 -1.4537  0.1143
  149OSM   H15C16457   2.919   6.091   2.395 -0.7920 -1.3352 -1.0230
  149OSM    C1416458   3.101   5.916   2.618  0.5462  0.1316 -0.1862
  149OSM   H14A16459   3.185   5.896   2.553  0.7208 -0.1189  0.1128
  149OSM   H14B16460   3.034   5.832   2.630  0.6308  0.1167  0.1962
  149OSM   H14C16461   3.135   5.932   2.719  0.9135  1.5328 -0.5168
  149OSM    C1316462   3.152   6.124   2.539  0.1828  0.3258 -0.4666
  149OSM   H13A16463   3.227   6.075   2.479  2.5661  3.3344 -0.1656
  149OSM   H13B16464   3.200   6.154   2.631 -1.5035 -3.6687  2.0018
  149OSM   H13C16465   3.125   6.209   2.478  2.7647  0.1150 -2.0352
  149OSM    C1216466   2.934   6.093   2.664  0.2768  0.0062  0.8500
  149OSM   H12A16467   2.867   6.014   2.693  0.6042 -0.0640  1.4243
  149OSM   H12B16468   2.880   6.171   2.613  0.2085 -1.0493 -0.7561
  149OSM    C1116469   2.996   6.153   2.787  0.0936  0.0518  0.0668
  149OSM   H11A16470   2.913   6.177   2.856 -0.6634  0.4197 -0.9548
  149OSM   H11B16471   3.043   6.247   2.751  0.8574  0.5740  2.2749
  149OSM      P16472   3.224   6.108   2.905  0.6317 -0.0506  0.0750
  149OSM    O1316473   3.304   5.983   2.915 -0.0946 -0.1547  0.4791
  149OSM    O1416474   3.275   6.221   2.821  0.3556  0.3246  0.1075
  149OSM    O1116475   3.194   6.168   3.054 -0.5508 -0.1565 -0.7071
  149OSM    O1216476   3.076   6.064   2.860 -0.8052 -0.0777 -0.3639
  149OSM    C1S16477   3.094   6.097   3.132  0.3465  0.6459 -0.1413
  149OSM    H1S16478   3.114   5.988   3.123  1.3841  0.8307 -0.2592
  149OSM    H1T16479   2.991   6.121   3.097  1.1802  2.2313 -1.7014
  149OSM     NF16480   3.004   6.032   3.355  0.2163 -0.0183 -0.0386
  149OSM    HNF16481   2.914   6.061   3.388 -0.2186 -0.9612 -0.3624
  149OSM    C2S16482   3.094   6.128   3.279  1.1146 -0.1236 -0.1778
  149OSM    H2S16483   3.194   6.110   3.322  0.2362 -0.7100  1.7250
  149OSM    C3S16484   3.058   6.280   3.309 -0.4692 -0.3395 -0.1278
  149OSM    H3S16485   2.956   6.299   3.268  0.4383  1.0225 -1.8683
  149OSM     O316486   3.139   6.367   3.232  0.1072 -0.1822 -0.4058
  149OSM    HO316487   3.166   6.306   3.163  1.3519 -0.4825  0.3037
  149OSM    C4S16488   3.064   6.326   3.450  0.0967 -1.0773 -0.1088
  149OSM    H4S16489   3.166   6.313   3.489  0.3500 -0.3938 -0.5214
  149OSM    C5S16490   2.970   6.365   3.536  0.3374 -0.8158 -0.3553
  149OSM    H5S16491   2.863   6.369   3.512  0.5574  2.2818 -1.2648
  149OSM    C6S16492   2.998   6.393   3.682 -0.0899 -0.6732 -0.2493
  149OSM    H6S16493   2.946   6.488   3.708 -0.7405 -0.7843 -1.1187
  149OSM    H6T16494   3.107   6.406   3.699 -0.3229  1.7130 -0.1408
  149OSM    C7S16495   2.937   6.285   3.779 -0.2900  0.6208  0.3299
  149OSM    H7S16496   2.998   6.194   3.763  0.1998  0.5481  2.3958
  149OSM    H7T16497   2.833   6.262   3.748  0.2836  0.8937 -1.9918
  149OSM    C8S16498   2.960   6.333   3.926  0.7096 -0.3572 -0.6342
  149OSM    H8S16499   2.910   6.432   3.922 -1.9551 -1.5904  0.0578
  149OSM    H8T16500   3.070   6.341   3.943  1.0271 -1.5541 -1.9948
  149OSM    C9S16501   2.897   6.246   4.040 -0.7441  0.2631  0.1458
  149OSM    H9S16502   2.787   6.262   4.047 -0.7348 -0.0614  1.1803
  149OSM    H9T16503   2.943   6.276   4.137  2.0550 -0.9295 -0.7065
  149OSM   C10S16504   2.926   6.095   4.019  0.8910  0.2167 -0.4714
  149OSM   H10S16505   3.034   6.076   4.003  0.3731 -1.9992 -1.7824
  149OSM   H10T16506   2.873   6.060   3.928  1.2340  0.6947 -0.8563
  149OSM   C11S16507   2.898   6.007   4.141  0.2502  0.1366  0.5757
  149OSM   H11S16508   2.794   6.019   4.177  0.4454  0.1154  1.1515
  149OSM   H11T16509   2.968   6.047   4.217  2.7872 -1.4710 -0.7476
  149OSM   C12S16510   2.941   5.864   4.110 -0.3582  0.8524  0.4963
  149OSM   H12S16511   3.052   5.872   4.103 -0.3184  0.4057  0.6250
  149OSM   H12T16512   2.892   5.838   4.014  1.7714 -2.2920  0.1089
  149OSM   C13S16513   2.912   5.760   4.218 -0.1719 -0.3228  0.0290
  149OSM   H13S16514   2.975   5.669   4.205  0.1006 -0.4705  2.0797
  149OSM   H13T16515   2.806   5.726   4.216  0.3806 -2.1891 -0.0068
  149OSM   C14S16516   2.940   5.803   4.359 -0.1601 -0.0631  0.0195
  149OSM   H14S16517   2.871   5.886   4.387  0.5857  1.3832 -2.1667
  149OSM   H14T16518   3.040   5.850   4.369  1.1634 -2.8884  0.8648
  149OSM   C15S16519   2.940   5.684   4.451 -0.1646  0.1787  0.1127
  149OSM   H15S16520   3.026   5.615   4.439  1.1882  1.8777 -0.3834
  149OSM   H15T16521   2.851   5.621   4.434 -0.1254  0.4750 -1.2323
  149OSM   C16S16522   2.949   5.725   4.599 -0.1868 -0.0977  0.1581
  149OSM   H16S16523   2.862   5.787   4.630 -1.3003 -1.2639 -0.5101
  149OSM   H16T16524   3.048   5.774   4.612  0.1587 -1.2717  2.3934
  149OSM   C17S16525   2.941   5.611   4.696  0.6138  0.9684 -0.1026
  149OSM   H17S16526   2.954   5.645   4.801 -3.2577 -0.0545  0.8858
  149OSM   H17T16527   3.020   5.537   4.672 -0.1259  0.1850 -0.1706
  149OSM   C18S16528   2.794   5.555   4.707 -0.7874 -0.5945 -1.3868
  149OSM   H18S16529   2.725   5.636   4.675  0.3011  1.0141  0.1247
  149OSM   H18T16530   2.769   5.529   4.812 -0.7626  2.0877 -0.6403
  149OSM   H18U16531   2.776   5.464   4.646 -1.2358 -0.6665 -1.1499
  149OSM    C1F16532   3.031   5.905   3.360  0.7305  0.0392  1.1195
  149OSM     OF16533   3.118   5.857   3.294  0.0328 -0.2476  0.0391
  149OSM    C2F16534   2.944   5.829   3.447 -0.2287 -0.3930  0.0808
  149OSM    H2F16535   2.969   5.721   3.432 -0.4976 -0.4451  0.0107
  149OSM    H2G16536   2.837   5.843   3.419  0.0188 -1.1244 -1.3309
  149OSM    C3F16537   2.969   5.842   3.599  0.4955 -0.0266  0.3162
  149OSM    H3F16538   2.891   5.773   3.637  0.9925 -0.8862 -0.1884
  149OSM    H3G16539   2.949   5.942   3.643  3.0518 -0.2946  2.2874
  149OSM    C4F16540   3.107   5.794   3.639  0.4621  0.1504  1.0252
  149OSM    H4F16541   3.182   5.865   3.598 -1.3899  2.2039  0.9782
  149OSM    H4G16542   3.140   5.697   3.596 -0.5310  0.5321 -0.7157
  149OSM    C5F16543   3.124   5.776   3.793 -0.1888  0.1575  0.8442
  149OSM    H5F16544   3.053   5.703   3.837 -1.6257 -0.1923 -1.8081
  149OSM    H5G16545   3.106   5.873   3.844 -3.2966 -1.3058  2.8089
  149OSM    C6F16546   3.267   5.730   3.835  0.5038  0.7108 -0.2102
  149OSM    H6F16547   3.284   5.624   3.805 -1.6699  0.9550 -2.6873
  149OSM    H6G16548   3.285   5.744   3.944 -3.7441  2.5896  0.4136
  149OSM    C7F16549   3.371   5.823   3.782  0.3425 -0.2471 -0.1443
  149OSM    H7F16550   3.321   5.921   3.772 -1.2696 -1.0350 -0.0324
  149OSM    H7G16551   3.413   5.786   3.686 -1.3666 -1.2081 -0.5499
  149OSM    C8F16552   3.484   5.854   3.887 -0.4426  0.0390 -0.1126
  149OSM    H8F16553   3.425   5.895   3.972  0.0935  0.2149  0.1790
  149OSM    H8G16554   3.544   5.939   3.849  0.9067 -0.4171  0.9024
  149OSM    C9F16555   3.574   5.737   3.913 -0.3513 -0.6371 -0.6710
  149OSM    H9F16556   3.541   5.645   3.863 -0.1098  1.3552 -4.9657
  149OSM   C10F16557   3.653   5.722   4.022 -0.0937  0.3947  0.7045
  149OSM   H10F16558   3.707   5.626   4.023 -1.3701 -0.5041 -2.7594
  149OSM   C11F16559   3.701   5.822   4.123 -0.3983 -0.0691  0.0404
  149OSM   H11F16560   3.672   5.924   4.090  2.2276 -0.0812 -2.8009
  149OSM   H11G16561   3.811   5.804   4.125 -0.0671  1.8301  0.6691
  149OSM   C12F16562   3.640   5.786   4.261 -0.3714  0.0721 -0.3695
  149OSM   H12F16563   3.675   5.682   4.277 -0.7552 -0.2487 -1.5109
  149OSM   H12G16564   3.532   5.803   4.244 -0.0408  0.1944 -2.7155
  149OSM   C13F16565   3.699   5.858   4.382 -0.3144  0.3121  0.1849
  149OSM   H13F16566   3.645   5.952   4.408 -1.0309 -0.7217  2.7279
  149OSM   H13G16567   3.807   5.873   4.361 -0.1308 -3.7537 -3.0462
  149OSM   C14F16568   3.695   5.771   4.516  0.0537 -0.3820  0.4270
  149OSM   H14F16569   3.711   5.663   4.498  1.4415 -0.1874  0.3887
  149OSM   H14G16570   3.591   5.789   4.552 -0.8407  0.8789 -2.4764
  149OSM   C15F16571   3.788   5.828   4.618 -0.2497 -0.2303  0.0767
  149OSM   H15F16572   3.782   5.937   4.637  4.0613 -0.1772  2.2966
  149OSM   H15G16573   3.890   5.808   4.579 -0.8262 -0.4182 -1.4054
  149OSM   C16F16574   3.772   5.753   4.748  0.0474 -0.2417 -0.1262
  149OSM   H16F16575   3.788   5.644   4.739  0.3036 -0.1852 -0.3992
  149OSM   H16G16576   3.665   5.761   4.776 -0.0786  2.1091 -1.0105
  149OSM   C17F16577   3.853   5.815   4.860 -0.4837 -0.1034 -0.0333
  149OSM   H17F16578   3.795   5.907   4.881  0.2931 -0.1386  2.6422
  149OSM   H17G16579   3.956   5.842   4.826 -0.3153 -1.2103 -0.4466
  149OSM   C18F16580   3.859   5.730   4.987  0.3855 -0.0529 -0.2377
  149OSM   H18F16581   3.885   5.794   5.074  1.1050  1.0977 -1.2713
  149OSM   H18G16582   3.932   5.646   4.979  1.2297  0.7491 -1.2484
  149OSM   H18H16583   3.758   5.684   4.993  0.1841  0.3360 -0.6615
  150OSM      N16584   6.504   1.935   2.622 -0.3936 -0.4976  0.8760
  150OSM    C1516585   6.434   1.803   2.656 -0.5341 -0.3434  0.4384
  150OSM   H15A16586   6.426   1.790   2.763 -1.9854  0.0054  0.4014
  150OSM   H15B16587   6.488   1.721   2.612  0.4679  0.2749  0.4905
  150OSM   H15C16588   6.336   1.806   2.610 -0.5540  2.1586  0.5310
  150OSM    C1416589   6.471   1.970   2.481  0.1466 -0.0205  0.7397
  150OSM   H14A16590   6.515   1.888   2.425  0.2352  0.0927  0.6436
  150OSM   H14B16591   6.523   2.057   2.443  0.4520  0.4919  2.2717
  150OSM   H14C16592   6.366   1.960   2.459  0.2790 -0.3584  0.2519
  150OSM    C1316593   6.438   2.037   2.718  0.6554 -0.1066 -0.1005
  150OSM   H13A16594   6.331   2.021   2.710  0.3750  2.3068 -3.4353
  150OSM   H13B16595   6.461   2.139   2.691 -1.5490  0.7803  1.0485
  150OSM   H13C16596   6.452   2.018   2.823 -1.3719  1.7025  0.5799
  150OSM    C1216597   6.653   1.925   2.656 -0.6868 -0.4044 -0.0721
  150OSM   H12A16598   6.691   2.026   2.646  0.2459 -0.6549  0.7819
  150OSM   H12B16599   6.704   1.862   2.586 -0.3924 -1.2447  0.8697
  150OSM    C1116600   6.690   1.872   2.793 -0.1936 -0.4984  0.2210
  150OSM   H11A16601   6.627   1.915   2.873  0.8748  0.0106  0.8029
  150OSM   H11B16602   6.797   1.895   2.813  0.4541 -2.2337 -0.9499
  150OSM      P16603   6.790   1.633   2.800 -0.7382  0.4638  0.3483
  150OSM    O1316604   6.736   1.494   2.809  0.0764 -0.3445  0.2771
  150OSM    O1416605   6.880   1.657   2.684 -0.2159  0.0507 -0.3442
  150OSM    O1116606   6.875   1.665   2.934  0.1853  0.4295 -0.2797
  150OSM    O1216607   6.667   1.732   2.794 -0.2704 -0.1204 -0.1331
  150OSM    C1S16608   6.827   1.743   3.034 -0.0649 -0.6824 -0.3928
  150OSM    H1S16609   6.720   1.721   3.051  0.6574 -3.2890  1.2830
  150OSM    H1T16610   6.850   1.849   3.007 -0.9030 -1.0135 -2.5702
  150OSM     NF16611   6.829   1.772   3.282  0.2166 -0.0364  0.4864
  150OSM    HNF16612   6.876   1.856   3.307 -0.1970 -0.3783  2.5912
  150OSM    C2S16613   6.900   1.705   3.170 -0.2280 -0.5003 -0.1679
  150OSM    H2S16614   6.890   1.595   3.182 -2.6868 -0.2494  0.7493
  150OSM    C3S16615   7.051   1.739   3.161  0.1483  0.6263  0.6371
  150OSM    H3S16616   7.063   1.845   3.131  0.4576  0.7495  1.1884
  150OSM     O316617   7.116   1.661   3.063 -0.4686 -0.0446 -0.4647
  150OSM    HO316618   7.046   1.620   3.013 -0.8816 -0.9798  0.8168
  150OSM    C4S16619   7.106   1.716   3.293 -0.2731  1.1561  0.1297
  150OSM    H4S16620   7.078   1.619   3.336  0.1828  0.7225 -0.5196
  150OSM    C5S16621   7.162   1.804   3.380 -0.4362 -0.4174  0.4994
  150OSM    H5S16622   7.178   1.911   3.361  0.3755 -0.5522  0.3803
  150OSM    C6S16623   7.200   1.768   3.519  0.1831 -0.2442 -0.1053
  150OSM    H6S16624   7.308   1.776   3.545  0.1747  1.8201 -0.4957
  150OSM    H6T16625   7.174   1.662   3.537  1.0388 -0.3923  0.3203
  150OSM    C7S16626   7.127   1.853   3.630  0.0316 -0.4576 -0.5223
  150OSM    H7S16627   7.017   1.842   3.620 -0.2620  0.2648  1.5246
  150OSM    H7T16628   7.149   1.961   3.616 -2.9716  0.1279 -1.2896
  150OSM    C8S16629   7.170   1.827   3.775 -0.0401 -0.0202  0.9033
  150OSM    H8S16630   7.280   1.843   3.781 -0.0481 -0.3770  2.4569
  150OSM    H8T16631   7.167   1.718   3.796  0.1965 -0.7039 -2.2012
  150OSM    C9S16632   7.088   1.913   3.870  0.3998  0.1229  0.2729
  150OSM    H9S16633   6.981   1.892   3.852 -0.5336  2.7829  2.0801
  150OSM    H9T16634   7.101   2.020   3.845 -0.9195  0.1374 -0.4427
  150OSM   C10S16635   7.129   1.892   4.017 -0.2794  0.0392  0.6208
  150OSM   H10S16636   7.239   1.885   4.018 -0.2046  0.9763  0.0385
  150OSM   H10T16637   7.092   1.797   4.062 -0.2412 -0.4806 -0.4256
  150OSM   C11S16638   7.073   2.001   4.109 -0.0559  0.1629  0.3133
  150OSM   H11S16639   6.964   2.009   4.092  0.1672 -0.8547 -1.8898
  150OSM   H11T16640   7.128   2.094   4.080  0.7097 -1.2854 -3.4130
  150OSM   C12S16641   7.109   1.958   4.259  0.1110  0.1850 -0.2295
  150OSM   H12S16642   7.219   1.949   4.276 -0.0295  0.1170  0.6991
  150OSM   H12T16643   7.058   1.863   4.286  2.3033 -0.6194  1.3730
  150OSM   C13S16644   7.057   2.055   4.361 -0.3251  0.7800 -0.7528
  150OSM   H13S16645   6.947   2.058   4.350 -0.3127  0.4726 -0.9878
  150OSM   H13T16646   7.108   2.152   4.343  0.1215  0.9662  1.2950
  150OSM   C14S16647   7.096   1.998   4.503 -0.0562 -0.4692  0.3898
  150OSM   H14S16648   7.196   1.949   4.492  0.0988 -0.1340  0.3101
  150OSM   H14T16649   7.052   1.901   4.536 -1.6130 -0.7459 -2.1726
  150OSM   C15S16650   7.081   2.108   4.614 -0.2441 -0.3649  0.5270
  150OSM   H15S16651   6.973   2.119   4.639 -0.1622 -1.9345  1.7275
  150OSM   H15T16652   7.117   2.200   4.564 -0.0659 -1.4237 -1.4099
  150OSM   C16S16653   7.157   2.073   4.734  0.5776  0.3591  0.2031
  150OSM   H16S16654   7.267   2.065   4.715  0.6876  1.9618  0.0153
  150OSM   H16T16655   7.126   1.974   4.773  0.0966 -0.3630 -1.8628
  150OSM   C17S16656   7.134   2.174   4.853 -0.5561 -0.0957  0.0300
  150OSM   H17S16657   7.026   2.180   4.878 -0.6581 -2.2621  0.3168
  150OSM   H17T16658   7.165   2.276   4.822 -0.7492  0.2254  0.8791
  150OSM   C18S16659   7.216   2.148   4.979  1.0716  0.6056 -0.0333
  150OSM   H18S16660   7.217   2.040   5.006 -1.4952 -0.2559 -2.7957
  150OSM   H18T16661   7.169   2.207   5.060  2.2958  1.9288 -0.2483
  150OSM   H18U16662   7.321   2.184   4.971  0.7128  2.7289  2.9587
  150OSM    C1F16663   6.710   1.732   3.328 -0.2606  0.5501 -0.2852
  150OSM     OF16664   6.647   1.642   3.271  0.3631 -0.6046 -0.2067
  150OSM    C2F16665   6.650   1.804   3.441 -0.0562 -0.4910 -0.3525
  150OSM    H2F16666   6.572   1.869   3.397 -1.3257 -1.5518  0.2827
  150OSM    H2G16667   6.734   1.861   3.486 -0.7822  0.9764 -0.7733
  150OSM    C3F16668   6.577   1.723   3.552  0.1978  1.0708  0.4025
  150OSM    H3F16669   6.555   1.789   3.639 -0.7720  1.1424  0.1127
  150OSM    H3G16670   6.645   1.646   3.594  0.2820  0.5937 -0.5828
  150OSM    C4F16671   6.447   1.645   3.503  0.3802  0.4605 -0.3765
  150OSM    H4F16672   6.470   1.571   3.423  0.9875  0.2417 -0.0015
  150OSM    H4G16673   6.365   1.714   3.474 -0.3192 -0.2565 -0.1209
  150OSM    C5F16674   6.413   1.561   3.624  0.7215 -0.4117  0.3533
  150OSM    H5F16675   6.411   1.617   3.719  1.5822  0.1807  0.0338
  150OSM    H5G16676   6.488   1.480   3.636 -0.0382 -1.2232 -0.1869
  150OSM    C6F16677   6.279   1.491   3.613  0.0687  0.6124  0.1330
  150OSM    H6F16678   6.266   1.461   3.507  0.2490  0.4359  0.1601
  150OSM    H6G16679   6.190   1.546   3.650 -0.4680 -0.7546  0.9687
  150OSM    C7F16680   6.292   1.362   3.703 -0.8752  0.5532 -0.0285
  150OSM    H7F16681   6.380   1.303   3.670  0.2205  1.1872  1.6434
  150OSM    H7G16682   6.214   1.289   3.673 -1.5570  0.9826  0.6466
  150OSM    C8F16683   6.286   1.383   3.862 -0.8421 -0.2961  0.0027
  150OSM    H8F16684   6.350   1.469   3.890  0.1834 -1.2014  0.5149
  150OSM    H8G16685   6.324   1.292   3.914  0.5538  0.0365 -0.3828
  150OSM    C9F16686   6.153   1.397   3.910  1.0100 -0.2047 -0.0101
  150OSM    H9F16687   6.077   1.355   3.843  0.1011 -0.3751  1.0998
  150OSM   C10F16688   6.119   1.431   4.035  0.0635  0.4762 -0.6911
  150OSM   H10F16689   6.011   1.439   4.055 -0.0125  0.8095 -1.2097
  150OSM   C11F16690   6.200   1.454   4.157  0.4774 -0.0089 -0.2600
  150OSM   H11F16691   6.308   1.432   4.143  0.4156 -0.8787  0.5221
  150OSM   H11G16692   6.165   1.376   4.227  1.2071  0.2322  0.4012
  150OSM   C12F16693   6.189   1.587   4.234  1.1852 -0.0085 -0.7884
  150OSM   H12F16694   6.230   1.568   4.336 -0.1434 -0.5888 -0.3351
  150OSM   H12G16695   6.082   1.602   4.260  1.2807 -2.3304  1.4469
  150OSM   C13F16696   6.259   1.716   4.178  0.0027  0.6537 -0.8567
  150OSM   H13F16697   6.207   1.727   4.081 -0.5839  0.8503 -0.5267
  150OSM   H13G16698   6.365   1.692   4.157  0.4461  1.9042 -0.1577
  150OSM   C14F16699   6.234   1.833   4.274 -0.1419  0.0655  0.3993
  150OSM   H14F16700   6.127   1.823   4.300 -0.2881 -0.4603 -0.3750
  150OSM   H14G16701   6.250   1.926   4.216 -0.7707 -2.3473 -4.0075
  150OSM   C15F16702   6.345   1.833   4.387 -0.4330 -0.1394 -0.3638
  150OSM   H15F16703   6.444   1.860   4.345  0.3557 -2.6504 -0.2818
  150OSM   H15G16704   6.343   1.731   4.432  1.6845 -0.1752 -0.2822
  150OSM   C16F16705   6.309   1.940   4.491  0.0360 -0.0383  0.2172
  150OSM   H16F16706   6.199   1.944   4.505 -0.0449  0.2616 -0.4899
  150OSM   H16G16707   6.330   2.045   4.460 -0.0955  0.3654  1.4118
  150OSM   C17F16708   6.361   1.913   4.634 -0.2312  0.0708 -0.5956
  150OSM   H17F16709   6.472   1.920   4.637 -0.2898  0.7676  0.4670
  150OSM   H17G16710   6.343   1.807   4.661  1.9696 -0.1380  0.2459
  150OSM   C18F16711   6.291   2.016   4.727 -0.2669  0.5337 -0.4087
  150OSM   H18F16712   6.326   1.994   4.830  1.9899  0.2861 -1.1693
  150OSM   H18G16713   6.180   2.016   4.720 -0.2387  1.5101 -1.0309
  150OSM   H18H16714   6.334   2.117   4.707  3.2505 -0.4840  1.1213
  151OSM      N16715   6.513   0.958   2.845 -0.4711 -0.3421  0.2275
  151OSM    C1516716   6.456   0.857   2.753 -0.2464  0.3373  0.2912
  151OSM   H15A16717   6.409   0.898   2.665  2.1961 -1.3967 -1.9827
  151OSM   H15B16718   6.387   0.789   2.800 -0.9411 -0.1878 -1.4092
  151OSM   H15C16719   6.535   0.802   2.704  0.9624 -0.4384  2.9656
  151OSM    C1416720   6.595   1.053   2.763 -0.4414  0.0018 -0.1580
  151OSM   H14A16721   6.531   1.117   2.703 -1.3006  0.3556  1.0857
  151OSM   H14B16722   6.663   1.000   2.698 -0.8884 -1.0203  0.1965
  151OSM   H14C16723   6.646   1.116   2.835 -1.0472  0.4987 -0.1534
  151OSM    C1316724   6.395   1.016   2.914  0.2730 -0.4877  0.0160
  151OSM   H13A16725   6.304   1.022   2.855 -0.0788  1.2348  0.6786
  151OSM   H13B16726   6.403   1.111   2.965  1.1307 -0.6687  0.2291
  151OSM   H13C16727   6.361   0.949   2.992  0.2734 -1.6392 -0.9421
  151OSM    C1216728   6.609   0.888   2.945 -0.6590 -0.4445 -0.1969
  151OSM   H12A16729   6.687   0.842   2.886 -0.2415 -0.7669  0.5976
  151OSM   H12B16730   6.554   0.816   3.004 -1.7110 -0.0224 -0.6394
  151OSM    C1116731   6.677   0.982   3.047 -0.6645  0.1044  0.3931
  151OSM   H11A16732   6.699   0.925   3.139  0.8628 -2.1992 -1.2971
  151OSM   H11B16733   6.594   1.047   3.081  0.9612  2.0185  0.8813
  151OSM      P16734   6.862   1.158   3.085 -0.6469 -0.0820 -0.0684
  151OSM    O1316735   6.999   1.176   3.024 -0.1720  0.0546  0.2723
  151OSM    O1416736   6.788   1.283   3.101 -0.5568 -0.1885 -0.1446
  151OSM    O1116737   6.879   1.077   3.221  0.2317 -0.1644 -0.8536
  151OSM    O1216738   6.788   1.056   2.993  0.5486  0.1458  0.6594
  151OSM    C1S16739   7.008   1.031   3.263 -0.2584 -0.4993 -0.1370
  151OSM    H1S16740   7.083   1.113   3.258 -1.0781  0.6984  3.9822
  151OSM    H1T16741   7.053   0.959   3.191 -1.4334 -1.2761 -0.1231
  151OSM     NF16742   7.138   0.886   3.432  0.0667  0.0278 -1.0502
  151OSM    HNF16743   7.128   0.796   3.475  0.4362 -0.0554 -1.1362
  151OSM    C2S16744   7.018   0.964   3.410  0.5612 -0.3942  0.6894
  151OSM    H2S16745   7.034   1.048   3.482 -2.3771  1.4180 -0.5660
  151OSM    C3S16746   6.883   0.901   3.456 -0.3609  0.1677  0.1293
  151OSM    H3S16747   6.855   0.821   3.384  1.4003 -0.8554  0.5281
  151OSM     O316748   6.778   0.998   3.450 -0.3349  0.4396 -0.3164
  151OSM    HO316749   6.795   1.064   3.383 -0.8551  2.0226  1.0378
  151OSM    C4S16750   6.896   0.846   3.594 -0.0720  0.0396  0.0121
  151OSM    H4S16751   6.898   0.919   3.676 -0.7095 -0.9976  0.9704
  151OSM    C5S16752   6.893   0.710   3.623  0.0654 -0.4735  0.2219
  151OSM    H5S16753   6.897   0.635   3.542  0.9579 -0.7455  0.5108
  151OSM    C6S16754   6.902   0.652   3.760 -0.1916 -0.0413 -0.2905
  151OSM    H6S16755   6.990   0.584   3.759  0.1022  0.3313 -1.1299
  151OSM    H6T16756   6.823   0.578   3.784  1.0863 -1.8163 -1.2973
  151OSM    C7S16757   6.926   0.756   3.871 -0.5695 -0.2772 -0.3876
  151OSM    H7S16758   6.857   0.843   3.870  0.7029  0.7754 -0.0179
  151OSM    H7T16759   7.025   0.802   3.852  0.6400 -2.1263  1.0942
  151OSM    C8S16760   6.938   0.703   4.009 -0.5161 -0.7744  0.7454
  151OSM    H8S16761   7.029   0.639   4.018 -0.2213 -0.3671  0.6729
  151OSM    H8T16762   6.852   0.641   4.040  0.1296 -1.6679  0.8094
  151OSM    C9S16763   6.948   0.813   4.121 -0.1177 -0.5584  0.1587
  151OSM    H9S16764   6.849   0.864   4.118 -0.9393 -2.0822  0.6465
  151OSM    H9T16765   7.024   0.889   4.094 -0.8179  0.1227  0.0565
  151OSM   C10S16766   6.976   0.738   4.252 -0.7924  0.3056 -0.1470
  151OSM   H10S16767   7.083   0.712   4.246 -0.8302  0.1446 -0.1329
  151OSM   H10T16768   6.907   0.651   4.250 -0.3919 -0.0322  0.4504
  151OSM   C11S16769   6.937   0.807   4.381 -0.4436 -0.1131  0.0798
  151OSM   H11S16770   6.840   0.860   4.374  0.7833  2.3375  0.8254
  151OSM   H11T16771   7.005   0.893   4.400 -2.1225  1.6801 -1.6150
  151OSM   C12S16772   6.941   0.720   4.506 -0.3048  0.4808 -0.1497
  151OSM   H12S16773   7.037   0.664   4.505  0.6213  1.9983 -1.3832
  151OSM   H12T16774   6.858   0.647   4.499 -0.9038  1.0566  0.7541
  151OSM   C13S16775   6.926   0.788   4.643  0.0843  0.4451  0.4111
  151OSM   H13S16776   6.862   0.877   4.658  0.5821  0.9968 -0.6157
  151OSM   H13T16777   7.024   0.831   4.673  1.2117 -0.9588 -1.0675
  151OSM   C14S16778   6.880   0.685   4.749 -0.9340  0.5887 -0.4897
  151OSM   H14S16779   6.965   0.614   4.752 -1.1148  0.2509 -2.3543
  151OSM   H14T16780   6.788   0.624   4.730 -0.2850 -0.6568  0.2431
  151OSM   C15S16781   6.856   0.747   4.893  0.0413  0.2536 -0.0011
  151OSM   H15S16782   6.815   0.661   4.951  0.6758 -0.2744 -0.3134
  151OSM   H15T16783   6.778   0.823   4.873 -0.7509 -0.7848 -1.0567
  151OSM   C16S16784   6.977   0.819   4.959  0.7274 -0.3139  0.3121
  151OSM   H16S16785   7.010   0.915   4.914 -1.3533  0.6044  0.6180
  151OSM   H16T16786   7.056   0.741   4.948  1.4438  0.1162  1.9911
  151OSM   C17S16787   6.974   0.836   5.114  0.0414  0.5599 -0.1660
  151OSM   H17S16788   7.076   0.852   5.155 -0.3886 -0.9417  1.6470
  151OSM   H17T16789   6.939   0.735   5.146  0.3884 -0.0353 -1.5791
  151OSM   C18S16790   6.868   0.935   5.164  0.0523 -1.0485  0.8519
  151OSM   H18S16791   6.906   1.035   5.135  2.2081 -2.1833 -0.4992
  151OSM   H18T16792   6.861   0.938   5.275 -0.2418  0.1738  0.8066
  151OSM   H18U16793   6.772   0.916   5.111  1.3504 -2.0782 -1.2891
  151OSM    C1F16794   7.265   0.932   3.413 -0.2503  0.0134 -0.2853
  151OSM     OF16795   7.285   1.038   3.356 -0.1595  0.1955  0.3133
  151OSM    C2F16796   7.382   0.857   3.470 -0.6820 -0.0004 -0.2038
  151OSM    H2F16797   7.440   0.811   3.387  0.4622  2.4534 -0.8676
  151OSM    H2G16798   7.351   0.767   3.527  0.2523  0.3604  0.8986
  151OSM    C3F16799   7.478   0.948   3.552  0.1886  0.0348  0.2270
  151OSM    H3F16800   7.514   1.027   3.483 -1.0899  1.1035  0.7380
  151OSM    H3G16801   7.559   0.881   3.588 -0.5145  0.5164  2.8997
  151OSM    C4F16802   7.426   1.001   3.682  0.6130  0.0977 -0.1755
  151OSM    H4F16803   7.353   1.081   3.656  1.1560  0.7977  0.4132
  151OSM    H4G16804   7.509   1.041   3.744  0.3431  0.3285  0.0442
  151OSM    C5F16805   7.345   0.905   3.778  0.3549  0.2495  0.4224
  151OSM    H5F16806   7.402   0.810   3.791 -0.8989 -0.4118  1.4134
  151OSM    H5G16807   7.257   0.875   3.717  0.1648  0.9450  0.3452
  151OSM    C6F16808   7.291   0.970   3.903  1.1168  0.2305 -0.1942
  151OSM    H6F16809   7.212   0.905   3.949 -0.0796  1.7761  0.0183
  151OSM    H6G16810   7.238   1.064   3.875 -0.3902 -0.0567  1.5181
  151OSM    C7F16811   7.400   1.001   3.998  0.5521 -0.0884 -0.4454
  151OSM    H7F16812   7.459   1.089   3.964  3.9019 -1.4650  1.3341
  151OSM    H7G16813   7.481   0.926   4.004  1.4567  0.8715 -0.4777
  151OSM    C8F16814   7.353   1.030   4.147 -0.0066 -0.5449 -0.1056
  151OSM    H8F16815   7.265   1.097   4.135  0.4274 -0.2557 -1.9989
  151OSM    H8G16816   7.430   1.092   4.197 -1.5063 -0.0262  1.6431
  151OSM    C9F16817   7.312   0.917   4.229  0.2595 -0.0967 -0.2220
  151OSM    H9F16818   7.233   0.854   4.184  0.2220 -0.0896 -0.1655
  151OSM   C10F16819   7.327   0.908   4.362  0.2784 -0.0491 -0.2780
  151OSM   H10F16820   7.285   0.831   4.429  0.2233  1.7684  1.8925
  151OSM   C11F16821   7.407   1.013   4.444 -0.3918  0.1395 -0.5244
  151OSM   H11F16822   7.491   1.053   4.384  1.6407 -1.9835  0.7347
  151OSM   H11G16823   7.448   0.956   4.530 -1.7617 -1.6911 -1.0353
  151OSM   C12F16824   7.320   1.134   4.494 -0.8542 -0.0750  0.5042
  151OSM   H12F16825   7.285   1.196   4.409 -0.5342 -0.6893 -0.0855
  151OSM   H12G16826   7.392   1.205   4.540 -1.0273  0.1373  0.4489
  151OSM   C13F16827   7.205   1.096   4.591  0.4675 -0.2263  0.7112
  151OSM   H13F16828   7.233   1.037   4.681  0.0503 -1.2938  0.1565
  151OSM   H13G16829   7.131   1.045   4.526 -0.0485  0.4470  0.7515
  151OSM   C14F16830   7.116   1.215   4.638  0.5731  0.6473 -0.3326
  151OSM   H14F16831   7.117   1.287   4.553  2.3779  2.1609  0.8697
  151OSM   H14G16832   7.173   1.273   4.714  0.5783  0.3775 -0.1308
  151OSM   C15F16833   6.971   1.185   4.676  0.5474  1.0709 -0.0268
  151OSM   H15F16834   6.974   1.081   4.715 -1.5626  0.5942 -0.9765
  151OSM   H15G16835   6.910   1.176   4.583 -1.4190  0.1914  1.2686
  151OSM   C16F16836   6.900   1.288   4.776  0.1608  0.1703 -0.5368
  151OSM   H16F16837   6.919   1.387   4.729 -1.4122  0.1916 -1.2087
  151OSM   H16G16838   6.950   1.293   4.875  1.3474  0.5469 -1.1356
  151OSM   C17F16839   6.749   1.249   4.776  0.2075  0.6289  0.8612
  151OSM   H17F16840   6.740   1.154   4.832 -2.2705  0.0814 -0.3013
  151OSM   H17G16841   6.714   1.230   4.672 -1.6325 -0.4347  1.6165
  151OSM   C18F16842   6.660   1.357   4.837  0.5263  0.2899 -0.0526
  151OSM   H18F16843   6.581   1.297   4.886  2.5766 -1.3969  1.4279
  151OSM   H18G16844   6.624   1.424   4.756 -0.9082 -0.9565 -0.4855
  151OSM   H18H16845   6.728   1.407   4.911 -0.8841  0.3008  1.2795
  152OSM      N16846   1.492   3.052   2.779 -0.5760 -0.6449  0.1381
  152OSM    C1516847   1.597   2.981   2.713  0.6808 -0.4517 -0.2442
  152OSM   H15A16848   1.688   3.001   2.768 -1.1489 -1.8459  3.6424
  152OSM   H15B16849   1.609   3.024   2.615  1.4037 -1.1565 -0.4816
  152OSM   H15C16850   1.587   2.873   2.706  1.7619 -0.4461 -2.8937
  152OSM    C1416851   1.500   3.201   2.758  0.1218  0.2975 -0.2239
  152OSM   H14A16852   1.598   3.231   2.794 -0.1854 -1.5399  2.4753
  152OSM   H14B16853   1.437   3.255   2.826  0.9532  0.6924  0.2537
  152OSM   H14C16854   1.481   3.230   2.656  2.4430  1.9424 -0.2766
  152OSM    C1316855   1.360   2.992   2.724 -0.4457 -0.1895  0.3288
  152OSM   H13A16856   1.271   3.038   2.764 -2.1562 -1.9414 -1.2241
  152OSM   H13B16857   1.349   2.891   2.761 -0.4130 -0.9974 -1.7197
  152OSM   H13C16858   1.345   2.997   2.617 -0.7850  0.8351  0.4114
  152OSM    C1216859   1.498   3.015   2.929  0.2976 -0.2316  0.4425
  152OSM   H12A16860   1.554   2.923   2.917 -1.3570 -1.0110 -1.8778
  152OSM   H12B16861   1.400   3.007   2.973  0.2504  1.2674  0.6698
  152OSM    C1116862   1.586   3.096   3.025 -0.9765  0.0475  0.8730
  152OSM   H11A16863   1.609   3.033   3.114  3.0262 -1.3147 -0.9041
  152OSM   H11B16864   1.532   3.188   3.056 -1.9396  0.1508 -0.9822
  152OSM      P16865   1.788   3.267   3.001  0.1978 -0.4001  0.6926
  152OSM    O1316866   1.906   3.275   2.902 -0.1657 -0.5720 -0.2897
  152OSM    O1416867   1.699   3.383   3.009  0.4431 -0.3647  0.2257
  152OSM    O1116868   1.839   3.236   3.144  0.3706  0.0077 -0.3375
  152OSM    O1216869   1.706   3.143   2.961 -0.3465 -0.2345  0.6796
  152OSM    C1S16870   1.905   3.121   3.183 -0.2794  0.4411 -0.0946
  152OSM    H1S16871   2.003   3.124   3.133  0.7398 -2.0421  1.5267
  152OSM    H1T16872   1.851   3.033   3.140 -1.8376  1.5710 -0.5617
  152OSM     NF16873   2.008   2.994   3.355  0.0922 -0.2417  0.1079
  152OSM    HNF16874   1.965   2.912   3.394 -0.3953  0.3731  0.8951
  152OSM    C2S16875   1.929   3.108   3.335 -0.0553  0.2159  0.0485
  152OSM    H2S16876   1.990   3.195   3.366  0.5539 -0.5661  1.1149
  152OSM    C3S16877   1.793   3.101   3.405  0.6146 -0.0114 -0.3393
  152OSM    H3S16878   1.751   3.002   3.380  3.2488 -1.0057 -1.2007
  152OSM     O316879   1.703   3.199   3.363  0.8421 -0.1272  0.1557
  152OSM    HO316880   1.743   3.222   3.279  2.2563  0.7516  1.0393
  152OSM    C4S16881   1.805   3.091   3.558 -0.2326 -0.8056  0.6510
  152OSM    H4S16882   1.838   2.992   3.591  0.4542 -0.4832  0.9452
  152OSM    C5S16883   1.817   3.195   3.646  0.3639  0.2265 -0.4581
  152OSM    H5S16884   1.826   3.299   3.609 -0.5558  1.2733  2.0550
  152OSM    C6S16885   1.866   3.172   3.787 -0.3249 -0.4667 -0.6737
  152OSM    H6S16886   1.863   3.065   3.815  3.1909 -0.1191  1.6768
  152OSM    H6T16887   1.806   3.230   3.859  1.8198 -0.8123  1.5220
  152OSM    C7S16888   2.019   3.197   3.811 -0.2667  0.0182  0.0111
  152OSM    H7S16889   2.048   3.304   3.808  0.2276 -0.0963  0.4155
  152OSM    H7T16890   2.057   3.146   3.720  1.9446  0.4216  0.6378
  152OSM    C8S16891   2.072   3.133   3.947  0.9674 -0.3922  0.0731
  152OSM    H8S16892   2.181   3.153   3.940  0.3559  3.1237 -1.7293
  152OSM    H8T16893   2.054   3.026   3.969 -0.3900  0.0261  1.1546
  152OSM    C9S16894   2.009   3.204   4.069 -0.2253 -0.2876 -0.0765
  152OSM    H9S16895   1.914   3.150   4.089 -0.5361  1.0373  2.4063
  152OSM    H9T16896   1.993   3.307   4.032  0.6101 -0.1369 -0.0532
  152OSM   C10S16897   2.092   3.170   4.197 -0.0101 -0.9029  0.7354
  152OSM   H10S16898   2.185   3.228   4.181 -1.1345  0.6178 -0.5782
  152OSM   H10T16899   2.116   3.062   4.189 -2.0490 -1.3979  0.7747
  152OSM   C11S16900   2.026   3.208   4.330 -0.0421  0.0792 -0.0365
  152OSM   H11S16901   1.933   3.152   4.354 -0.7510  1.4466  0.5207
  152OSM   H11T16902   2.002   3.316   4.329  2.5488  0.7884  2.7369
  152OSM   C12S16903   2.121   3.188   4.454 -0.3826 -0.1475 -0.0532
  152OSM   H12S16904   2.197   3.269   4.449  0.6269 -1.0989 -0.4804
  152OSM   H12T16905   2.176   3.092   4.444 -0.2271  0.1294 -2.3860
  152OSM   C13S16906   2.045   3.187   4.579  0.7218  0.7037 -0.0091
  152OSM   H13S16907   1.940   3.159   4.554  1.3358 -0.6853 -1.1780
  152OSM   H13T16908   2.034   3.282   4.635 -1.6513  0.6001 -0.1976
  152OSM   C14S16909   2.097   3.095   4.685  0.1730  0.2986  0.8137
  152OSM   H14S16910   2.200   3.130   4.710 -0.0268  0.7857  0.9771
  152OSM   H14T16911   2.114   3.001   4.628  1.1950 -0.0642  1.6816
  152OSM   C15S16912   2.014   3.075   4.811  0.4362 -0.3089  0.5276
  152OSM   H15S16913   1.909   3.054   4.782  0.7844 -1.1581 -0.1479
  152OSM   H15T16914   2.029   3.159   4.883 -0.9225  0.4886 -0.0752
  152OSM   C16S16915   2.069   2.947   4.875 -0.1060 -0.1847  0.2892
  152OSM   H16S16916   2.178   2.961   4.890  0.0803  0.7908 -1.5862
  152OSM   H16T16917   2.064   2.870   4.795  0.1316  1.4885 -1.4474
  152OSM   C17S16918   2.015   2.922   5.011  0.0151 -0.4715  0.3784
  152OSM   H17S16919   2.079   2.839   5.048  4.5165  1.9237 -1.2703
  152OSM   H17T16920   1.910   2.888   5.006 -0.6870  1.4893  1.1065
  152OSM   C18S16921   2.046   3.024   5.123  0.0776  0.0866 -0.5590
  152OSM   H18S16922   2.156   3.023   5.137  0.3300 -0.3074 -2.2535
  152OSM   H18T16923   1.999   2.991   5.218 -1.1597  1.4974 -0.6249
  152OSM   H18U16924   2.016   3.130   5.103  1.5247  0.7522  0.6385
  152OSM    C1F16925   2.134   2.977   3.320  0.8380 -0.4512 -0.8048
  152OSM     OF16926   2.201   3.069   3.284 -0.8821  0.4618  0.1120
  152OSM    C2F16927   2.185   2.836   3.348  0.2549  0.5702  0.6807
  152OSM    H2F16928   2.237   2.791   3.261 -1.8103 -1.0416  0.2088
  152OSM    H2G16929   2.098   2.772   3.374 -0.4179  0.8458 -0.7610
  152OSM    C3F16930   2.260   2.827   3.474 -0.8777  0.9999  0.0030
  152OSM    H3F16931   2.347   2.895   3.458  1.5659 -2.0460 -0.7519
  152OSM    H3G16932   2.313   2.730   3.485  0.8359  1.9410  0.5029
  152OSM    C4F16933   2.195   2.850   3.607  0.3061  0.0563  0.1505
  152OSM    H4F16934   2.140   2.755   3.626  0.9491 -0.2065  0.7515
  152OSM    H4G16935   2.107   2.915   3.590  1.3145  1.7069  0.9721
  152OSM    C5F16936   2.288   2.907   3.715 -0.0932 -0.0695 -0.4183
  152OSM    H5F16937   2.221   2.948   3.793  0.6234  0.3992 -0.0430
  152OSM    H5G16938   2.345   2.991   3.670  0.8924 -1.2289 -1.4216
  152OSM    C6F16939   2.380   2.804   3.778 -0.4319 -0.0456 -0.8492
  152OSM    H6F16940   2.462   2.801   3.703  0.1401 -0.8664 -0.1974
  152OSM    H6G16941   2.339   2.701   3.769 -0.9295 -0.1570  1.9460
  152OSM    C7F16942   2.426   2.834   3.921  0.5315  0.0708 -0.1648
  152OSM    H7F16943   2.335   2.849   3.982 -0.7012  0.7645 -2.0837
  152OSM    H7G16944   2.479   2.932   3.915  2.9407 -1.1933 -0.8431
  152OSM    C8F16945   2.517   2.727   3.983  0.2324  0.8881  0.0958
  152OSM    H8F16946   2.535   2.757   4.089  1.2128 -2.6491  1.0610
  152OSM    H8G16947   2.616   2.740   3.934  1.8838  0.9309  3.1896
  152OSM    C9F16948   2.466   2.588   3.977 -0.1514 -0.0942 -0.0770
  152OSM    H9F16949   2.445   2.560   3.873  0.7019  0.2766 -0.3626
  152OSM   C10F16950   2.461   2.496   4.084 -0.4975 -0.9293  0.7319
  152OSM   H10F16951   2.408   2.401   4.065  0.8176 -1.8235  1.3680
  152OSM   C11F16952   2.500   2.518   4.229  0.5992  0.3775 -0.3629
  152OSM   H11F16953   2.598   2.570   4.230  0.0230  1.5870 -2.2900
  152OSM   H11G16954   2.514   2.414   4.268  4.1369  0.1607 -1.8360
  152OSM   C12F16955   2.400   2.611   4.299  0.0955  0.2224 -0.0079
  152OSM   H12F16956   2.311   2.551   4.330 -1.1246  2.5795  1.3179
  152OSM   H12G16957   2.360   2.688   4.230  1.4046  2.2436  1.3730
  152OSM   C13F16958   2.460   2.690   4.419 -0.7207  0.3746 -0.7015
  152OSM   H13F16959   2.379   2.733   4.481  1.3899  1.6963  1.2941
  152OSM   H13G16960   2.525   2.772   4.383  2.0713 -1.7767 -0.9319
  152OSM   C14F16961   2.529   2.608   4.519 -0.5895  0.7585  0.4673
  152OSM   H14F16962   2.630   2.577   4.483 -0.1078  0.0292  2.3064
  152OSM   H14G16963   2.478   2.514   4.550  0.6257 -0.2073 -0.3777
  152OSM   C15F16964   2.576   2.682   4.645 -0.0719 -0.0150  0.3175
  152OSM   H15F16965   2.491   2.746   4.676  0.5899  1.8396 -1.4803
  152OSM   H15G16966   2.666   2.745   4.627 -1.7758  1.7412 -2.7808
  152OSM   C16F16967   2.616   2.590   4.767  0.4304 -0.3220 -0.2966
  152OSM   H16F16968   2.534   2.516   4.780  0.8769 -0.6027  1.0316
  152OSM   H16G16969   2.612   2.661   4.852  2.2959 -2.0153  1.3241
  152OSM   C17F16970   2.754   2.530   4.765 -0.2384 -0.4247 -0.0410
  152OSM   H17F16971   2.813   2.612   4.718 -1.1455 -0.1115 -0.6477
  152OSM   H17G16972   2.763   2.439   4.701 -0.8882 -1.7797  1.7178
  152OSM   C18F16973   2.803   2.505   4.903 -0.2817  0.3398 -0.5044
  152OSM   H18F16974   2.777   2.584   4.977  0.5408 -0.8068  1.0765
  152OSM   H18G16975   2.913   2.506   4.892 -0.1125 -0.4180  0.8829
  152OSM   H18H16976   2.775   2.407   4.948 -0.0718  0.7885  0.6176
  153OSM      N16977   1.859   2.380   2.798  0.0286  0.6817 -0.1010
  153OSM    C1516978   1.721   2.408   2.842 -0.4166 -0.3924 -0.4679
  153OSM   H15A16979   1.724   2.505   2.891 -1.1380 -0.0447 -1.0798
  153OSM   H15B16980   1.684   2.334   2.911  0.3251 -3.2737 -2.9864
  153OSM   H15C16981   1.655   2.417   2.758  0.4408 -0.0992 -1.1265
  153OSM    C1416982   1.948   2.372   2.922  0.0799  0.2798  0.6194
  153OSM   H14A16983   1.973   2.471   2.957 -1.7605  0.5610  1.2833
  153OSM   H14B16984   2.027   2.305   2.893 -1.6219 -0.6822 -2.2033
  153OSM   H14C16985   1.895   2.326   3.004  2.1410 -0.0065  1.8399
  153OSM    C1316986   1.865   2.245   2.723  0.2135 -0.2107 -0.1223
  153OSM   H13A16987   1.966   2.223   2.691  0.0987  1.0593 -1.5123
  153OSM   H13B16988   1.808   2.253   2.631 -2.0250  1.0559  1.2697
  153OSM   H13C16989   1.830   2.160   2.778  1.5038 -0.3132  0.5841
  153OSM    C1216990   1.908   2.496   2.712 -0.4818  0.4643 -0.4315
  153OSM   H12A16991   1.837   2.499   2.632  2.6414 -1.1885 -3.5686
  153OSM   H12B16992   2.008   2.476   2.677  0.4670  1.9421  1.2280
  153OSM    C1116993   1.906   2.643   2.753  0.6313 -0.5226 -0.5906
  153OSM   H11A16994   1.802   2.670   2.778  0.4858 -0.6596 -1.0450
  153OSM   H11B16995   1.926   2.704   2.663  2.0291  1.8745  1.2133
  153OSM      P16996   2.009   2.798   2.940  0.3527  0.0068 -0.4452
  153OSM    O1316997   2.138   2.792   3.017  0.0514 -0.3620 -0.2848
  153OSM    O1416998   1.996   2.909   2.848  0.5174 -0.4179 -0.6492
  153OSM    O1116999   1.886   2.809   3.046 -0.7427  0.5044  0.7280
  153OSM    O1217000   1.984   2.660   2.869  0.7744  0.2186 -0.6626
  153OSM    C1S17001   1.870   2.714   3.150  0.2953  0.3517  0.3971
  153OSM    H1S17002   1.948   2.727   3.228  1.2175 -0.3556 -0.3889
  153OSM    H1T17003   1.874   2.610   3.110 -2.3841 -0.0211  0.9395
  153OSM     NF17004   1.734   2.632   3.338 -0.1297  0.1113  0.5891
  153OSM    HNF17005   1.702   2.538   3.329  1.3716 -0.4525  0.9318
  153OSM    C2S17006   1.734   2.715   3.228  0.2237  0.2498  0.3361
  153OSM    H2S17007   1.702   2.818   3.253 -0.4592 -0.3327  2.0548
  153OSM    C3S17008   1.632   2.671   3.124  0.4850  0.2241 -0.2166
  153OSM    H3S17009   1.644   2.566   3.090 -0.9996 -0.0482  0.0312
  153OSM     O317010   1.630   2.739   3.001 -0.2136 -0.5476  0.0570
  153OSM    HO317011   1.714   2.785   3.002  0.3702 -1.5777  0.2388
  153OSM    C4S17012   1.494   2.699   3.183  0.4519  0.0371  0.1537
  153OSM    H4S17013   1.463   2.804   3.171 -0.3045 -0.4335 -2.9198
  153OSM    C5S17014   1.412   2.609   3.240  0.1619  0.0650  0.1413
  153OSM    H5S17015   1.439   2.502   3.238 -0.5889 -0.1287 -1.4887
  153OSM    C6S17016   1.278   2.654   3.300 -0.3307  0.3981 -0.3733
  153OSM    H6S17017   1.194   2.615   3.238  0.5721  0.3633 -1.5994
  153OSM    H6T17018   1.273   2.765   3.300 -2.1008  0.4136  2.5140
  153OSM    C7S17019   1.260   2.610   3.454  0.3869  0.0778  0.4652
  153OSM    H7S17020   1.348   2.650   3.510  1.0542  0.6678 -0.9670
  153OSM    H7T17021   1.254   2.499   3.458 -2.4520  0.2053  2.0713
  153OSM    C8S17022   1.120   2.655   3.504 -0.6964 -0.2358 -0.3192
  153OSM    H8S17023   1.034   2.616   3.446 -0.6607 -0.9907  0.1107
  153OSM    H8T17024   1.114   2.763   3.482  0.2781 -0.6171 -2.7321
  153OSM    C9S17025   1.076   2.610   3.651 -0.6116  0.3085  0.1718
  153OSM    H9S17026   1.086   2.499   3.653 -0.7753  0.3031  0.8573
  153OSM    H9T17027   0.966   2.619   3.668 -0.5751 -0.4160  0.8414
  153OSM   C10S17028   1.149   2.676   3.768 -0.3543  0.4259 -0.4350
  153OSM   H10S17029   1.125   2.784   3.770 -0.3542  0.4305  1.2615
  153OSM   H10T17030   1.259   2.662   3.763 -0.1968  1.1617  0.6289
  153OSM   C11S17031   1.099   2.621   3.905  0.3039  0.2040  0.4311
  153OSM   H11S17032   1.095   2.511   3.923 -1.5780  0.3339  1.0677
  153OSM   H11T17033   0.990   2.641   3.894  0.2867 -0.8805 -2.3574
  153OSM   C12S17034   1.156   2.696   4.024 -0.2817  0.2019  0.2199
  153OSM   H12S17035   1.119   2.800   4.012 -0.6068  0.2096  1.2220
  153OSM   H12T17036   1.267   2.687   4.023 -0.1420  1.5264  1.3425
  153OSM   C13S17037   1.099   2.633   4.149  0.0559  0.0847 -0.0327
  153OSM   H13S17038   1.126   2.525   4.150  1.6959  0.4646  0.6888
  153OSM   H13T17039   0.988   2.631   4.143  0.1060  1.3831 -2.3926
  153OSM   C14S17040   1.159   2.701   4.273 -0.2771 -0.1274 -0.0078
  153OSM   H14S17041   1.092   2.789   4.280 -1.0463 -0.8170  1.8384
  153OSM   H14T17042   1.264   2.737   4.264  0.2654 -0.9967  2.0586
  153OSM   C15S17043   1.145   2.610   4.389  1.0916 -1.0486 -0.2836
  153OSM   H15S17044   1.199   2.516   4.366  1.5656 -0.6383 -0.8550
  153OSM   H15T17045   1.039   2.593   4.419  0.8473 -0.8400 -0.9929
  153OSM   C16S17046   1.216   2.666   4.523 -0.2119 -0.1361  0.9799
  153OSM   H16S17047   1.155   2.747   4.567 -0.2815  0.6142 -0.4621
  153OSM   H16T17048   1.320   2.695   4.496 -0.8466  0.3439 -1.1017
  153OSM   C17S17049   1.238   2.559   4.634  0.4961  0.1742  0.0070
  153OSM   H17S17050   1.253   2.621   4.725 -1.5789  0.3644  0.2590
  153OSM   H17T17051   1.324   2.493   4.609  0.1903  0.2609 -1.3204
  153OSM   C18S17052   1.122   2.458   4.663  0.0643 -0.3028  0.3771
  153OSM   H18S17053   1.098   2.391   4.578 -2.6947  3.0033 -1.7365
  153OSM   H18T17054   1.033   2.521   4.683 -0.9507 -1.4121 -0.5759
  153OSM   H18U17055   1.149   2.403   4.756 -1.3951  2.4691  2.5911
  153OSM    C1F17056   1.795   2.672   3.451 -0.5127  0.7865 -0.2493
  153OSM     OF17057   1.838   2.786   3.459 -0.2854  0.0951 -0.2819
  153OSM    C2F17058   1.801   2.570   3.567  0.0087 -0.0823 -0.5287
  153OSM    H2F17059   1.876   2.492   3.541  0.1250 -0.5451  1.0816
  153OSM    H2G17060   1.701   2.522   3.576 -1.3956  2.7844  0.0695
  153OSM    C3F17061   1.836   2.643   3.699 -0.1820  0.1956 -0.0128
  153OSM    H3F17062   1.754   2.715   3.717 -0.8411 -0.3572 -0.7304
  153OSM    H3G17063   1.938   2.686   3.682 -0.4259  0.4469 -0.9072
  153OSM    C4F17064   1.843   2.563   3.826 -0.1382  0.8132  0.5217
  153OSM    H4F17065   1.928   2.492   3.820 -0.5412  0.3306  0.4609
  153OSM    H4G17066   1.754   2.499   3.842  0.1495  0.4068  0.5108
  153OSM    C5F17067   1.875   2.647   3.952  0.5168  0.5304 -0.2868
  153OSM    H5F17068   1.887   2.573   4.034  1.1354 -1.1250 -1.7972
  153OSM    H5G17069   1.809   2.732   3.976  1.4465  1.2017 -0.0406
  153OSM    C6F17070   2.020   2.706   3.955  0.6936 -0.3243  0.3925
  153OSM    H6F17071   2.037   2.761   3.860 -0.6397 -2.5292 -1.2288
  153OSM    H6G17072   2.092   2.623   3.940  0.5662  0.0138 -2.6739
  153OSM    C7F17073   2.045   2.790   4.090  0.4975  0.4852  0.5313
  153OSM    H7F17074   1.975   2.877   4.091  0.2745  0.3201 -0.2150
  153OSM    H7G17075   2.146   2.834   4.074  0.5728  0.6405  1.3896
  153OSM    C8F17076   2.031   2.714   4.218 -0.4570  0.0109 -0.5055
  153OSM    H8F17077   2.085   2.618   4.206 -0.1996  0.1400 -0.4084
  153OSM    H8G17078   1.924   2.695   4.239 -0.3741  0.9721  0.9160
  153OSM    C9F17079   2.072   2.788   4.343 -0.1478 -0.0561  0.5628
  153OSM    H9F17080   2.122   2.884   4.324  0.4286 -0.7663 -1.8712
  153OSM   C10F17081   2.058   2.741   4.466 -0.8417  0.1970  0.1720
  153OSM   H10F17082   2.114   2.799   4.541  0.7310  1.4263 -1.8212
  153OSM   C11F17083   1.991   2.623   4.522  0.0728  0.1829 -0.4443
  153OSM   H11F17084   1.949   2.565   4.438  1.3471 -0.2493 -0.7925
  153OSM   H11G17085   1.910   2.655   4.592  0.8451  0.4248  0.3604
  153OSM   C12F17086   2.073   2.527   4.614  0.6414  0.6740  0.5779
  153OSM   H12F17087   2.163   2.482   4.568  1.4406  0.0916  2.6106
  153OSM   H12G17088   2.017   2.439   4.651  3.7611 -1.4833  0.4858
  153OSM   C13F17089   2.110   2.598   4.747  0.1360 -0.6273 -0.4973
  153OSM   H13F17090   2.017   2.621   4.804  0.6553 -1.1776  0.5905
  153OSM   H13G17091   2.170   2.689   4.725  2.3356 -2.3346 -1.9237
  153OSM   C14F17092   2.201   2.505   4.830 -0.3556 -0.3243 -0.3111
  153OSM   H14F17093   2.282   2.471   4.762  0.9485  1.3361  0.3398
  153OSM   H14G17094   2.138   2.424   4.873 -0.1386 -0.3775 -0.0942
  153OSM   C15F17095   2.263   2.590   4.944  0.4228 -0.6458 -1.4593
  153OSM   H15F17096   2.194   2.650   5.008  0.1946 -1.8300 -0.5734
  153OSM   H15G17097   2.323   2.672   4.899 -0.9995  1.4411  0.2239
  153OSM   C16F17098   2.354   2.511   5.044 -0.2809 -0.5103 -0.1727
  153OSM   H16F17099   2.419   2.439   4.990 -1.5154 -1.7369 -0.0740
  153OSM   H16G17100   2.296   2.457   5.122  0.8349 -0.5340  0.6624
  153OSM   C17F17101   2.441   2.599   5.131 -0.7485 -0.2929 -0.4329
  153OSM   H17F17102   2.374   2.662   5.192 -0.2626  1.8944 -2.0235
  153OSM   H17G17103   2.511   2.653   5.064 -0.4743 -1.2565 -0.9489
  153OSM   C18F17104   2.530   2.509   5.227 -0.1679 -0.2157  0.7650
  153OSM   H18F17105   2.607   2.461   5.162 -1.9483 -3.2326  0.7132
  153OSM   H18G17106   2.464   2.432   5.273  0.1548 -0.2974  1.0893
  153OSM   H18H17107   2.574   2.574   5.305 -0.8426  0.9345  0.2308
  154OSM      N17108   0.575   0.975   2.957 -0.9095  0.0496  0.2379
  154OSM    C1517109   0.709   0.986   3.017 -0.6137 -0.0880 -0.5733
  154OSM   H15A17110   0.772   1.050   2.956  0.0763 -0.6452 -0.4505
  154OSM   H15B17111   0.756   0.889   3.021 -0.2023  0.1446  0.3255
  154OSM   H15C17112   0.706   1.040   3.110  0.2445  0.8882 -1.0954
  154OSM    C1417113   0.539   1.118   2.910 -0.3077 -0.3473 -0.2824
  154OSM   H14A17114   0.540   1.188   2.992 -1.8036  0.0523 -0.5854
  154OSM   H14B17115   0.437   1.117   2.877 -0.9298  0.6675  1.4909
  154OSM   H14C17116   0.602   1.153   2.830  0.1683  0.5516  0.4686
  154OSM    C1317117   0.577   0.892   2.825  0.2417 -0.3146 -0.3776
  154OSM   H13A17118   0.480   0.891   2.778 -0.0413 -2.1141  0.1639
  154OSM   H13B17119   0.608   0.792   2.851  2.7163  0.9845  2.0978
  154OSM   H13C17120   0.651   0.929   2.756  1.1902 -2.5754 -0.6437
  154OSM    C1217121   0.458   0.923   3.044 -0.4379  0.3842  0.3013
  154OSM   H12A17122   0.373   0.933   2.977 -0.3346  0.8272  0.2326
  154OSM   H12B17123   0.436   0.994   3.122 -5.0005  0.2319 -0.5348
  154OSM    C1117124   0.464   0.778   3.095 -0.5363 -0.3275  0.2165
  154OSM   H11A17125   0.400   0.756   3.184  1.6666 -0.3113  1.8698
  154OSM   H11B17126   0.569   0.756   3.121 -0.9475 -0.8594  1.5222
  154OSM      P17127   0.286   0.684   2.912 -0.0050  0.0666 -0.0831
  154OSM    O1317128   0.268   0.811   2.836  0.2738 -0.1112 -0.1416
  154OSM    O1417129   0.292   0.563   2.826 -0.3516 -0.0921  0.0211
  154OSM    O1117130   0.173   0.663   3.025 -0.0535 -0.5388 -0.2684
  154OSM    O1217131   0.431   0.697   2.984  0.5769 -0.3548 -0.3454
  154OSM    C1S17132   0.187   0.555   3.115 -0.3381 -0.9062 -0.2262
  154OSM    H1S17133   0.292   0.548   3.151 -0.4433  2.2942  0.9606
  154OSM    H1T17134   0.175   0.462   3.054 -2.6318  0.8121 -2.6041
  154OSM     NF17135   0.152   0.466   3.333  0.2881  0.3755 -0.4415
  154OSM    HNF17136   0.132   0.369   3.322  1.4607 -0.3968  2.8785
  154OSM    C2S17137   0.094   0.560   3.241  0.0993  0.0372 -0.3862
  154OSM    H2S17138   0.097   0.663   3.283  0.5291 -0.7598  1.6806
  154OSM    C3S17139  -0.048   0.528   3.198  0.1487 -0.1916 -0.1065
  154OSM    H3S17140  -0.046   0.428   3.151  0.1376  0.2659 -1.1101
  154OSM     O317141  -0.091   0.610   3.090  0.1082 -0.5087 -0.2058
  154OSM    HO317142  -0.013   0.657   3.061  1.1757 -1.1518  1.4601
  154OSM    C4S17143  -0.138   0.534   3.316  0.1152  0.1275 -0.2322
  154OSM    H4S17144  -0.136   0.635   3.358  0.6038  0.4670 -1.0327
  154OSM    C5S17145  -0.230   0.436   3.351  1.2303 -0.1495 -0.3678
  154OSM    H5S17146  -0.251   0.347   3.289 -2.5391 -0.2155  0.7500
  154OSM    C6S17147  -0.327   0.458   3.473 -0.5665 -0.1328  0.2492
  154OSM    H6S17148  -0.418   0.395   3.477 -1.3364  0.7845 -1.4602
  154OSM    H6T17149  -0.364   0.563   3.463  1.4742  0.7288  1.1261
  154OSM    C7S17150  -0.259   0.446   3.604 -0.2398  0.2147 -0.1735
  154OSM    H7S17151  -0.179   0.522   3.622 -0.2611 -0.2779  2.4225
  154OSM    H7T17152  -0.214   0.344   3.609 -0.1319  0.3119  1.3961
  154OSM    C8S17153  -0.361   0.472   3.715  0.3428  0.0881  0.3472
  154OSM    H8S17154  -0.417   0.376   3.723 -0.9698  0.8829  1.0190
  154OSM    H8T17155  -0.425   0.555   3.680  0.2528 -0.4620 -0.8669
  154OSM    C9S17156  -0.300   0.494   3.850  0.2872 -0.6326  0.3406
  154OSM    H9S17157  -0.239   0.586   3.844 -0.7540  0.0205 -3.0291
  154OSM    H9T17158  -0.230   0.414   3.881 -0.2922 -1.0457  0.6112
  154OSM   C10S17159  -0.414   0.516   3.950  0.1401 -0.3408 -0.3315
  154OSM   H10S17160  -0.494   0.441   3.933  1.0077 -0.8932 -2.1756
  154OSM   H10T17161  -0.457   0.617   3.931  0.0542 -0.4603 -0.7710
  154OSM   C11S17162  -0.350   0.515   4.095 -0.2408  0.0856  0.3628
  154OSM   H11S17163  -0.270   0.592   4.095 -0.4923  0.3467  0.0972
  154OSM   H11T17164  -0.313   0.412   4.110 -0.3046 -0.3894 -2.2628
  154OSM   C12S17165  -0.452   0.558   4.203 -0.1796  0.1343 -0.1669
  154OSM   H12S17166  -0.538   0.487   4.207  0.5030 -0.8003 -1.4084
  154OSM   H12T17167  -0.495   0.658   4.184 -2.2377  0.5495  4.8906
  154OSM   C13S17168  -0.402   0.564   4.348 -0.0728  0.7782  0.3635
  154OSM   H13S17169  -0.306   0.620   4.342  0.0408  0.4996 -0.5346
  154OSM   H13T17170  -0.387   0.456   4.365  0.5242  0.4793 -1.7407
  154OSM   C14S17171  -0.500   0.616   4.457  0.8110  0.3338 -0.0869
  154OSM   H14S17172  -0.574   0.539   4.489  0.5185  0.9137  0.6648
  154OSM   H14T17173  -0.543   0.710   4.418 -1.1120 -0.7255 -0.6343
  154OSM   C15S17174  -0.410   0.667   4.577  0.3501 -0.2478 -0.2284
  154OSM   H15S17175  -0.330   0.740   4.552 -0.4291  0.0991 -1.8497
  154OSM   H15T17176  -0.366   0.578   4.628 -1.3838 -0.5042  0.8742
  154OSM   C16S17177  -0.494   0.751   4.671 -0.0605 -0.4669 -0.9203
  154OSM   H16S17178  -0.581   0.689   4.701 -0.7846  0.6023 -0.7591
  154OSM   H16T17179  -0.546   0.839   4.627 -1.5236 -0.2506  1.1118
  154OSM   C17S17180  -0.414   0.787   4.793 -1.0746 -0.6274 -0.5890
  154OSM   H17S17181  -0.343   0.870   4.771 -2.7299  0.9527 -0.2215
  154OSM   H17T17182  -0.357   0.696   4.821 -1.1128 -0.6987 -0.7408
  154OSM   C18S17183  -0.511   0.829   4.911  0.1702 -0.0913  0.2007
  154OSM   H18S17184  -0.576   0.906   4.865  0.8710 -1.1849 -2.9092
  154OSM   H18T17185  -0.452   0.850   5.003  1.1971  0.6368 -0.6047
  154OSM   H18U17186  -0.573   0.738   4.926  1.7921 -1.5586 -1.3955
  154OSM    C1F17187   0.256   0.483   3.401 -0.4058 -0.9084 -0.8449
  154OSM     OF17188   0.316   0.591   3.400  0.1456 -0.0414  0.0931
  154OSM    C2F17189   0.313   0.361   3.472  0.0894  0.5422  0.8732
  154OSM    H2F17190   0.364   0.299   3.395 -1.8801  0.2649 -0.2871
  154OSM    H2G17191   0.229   0.294   3.501  1.2148 -2.5078 -2.1770
  154OSM    C3F17192   0.398   0.400   3.599 -0.1632 -0.1996 -0.0780
  154OSM    H3F17193   0.326   0.447   3.668  1.3630 -2.3469  3.2248
  154OSM    H3G17194   0.476   0.475   3.576  0.6729 -0.7611  0.8344
  154OSM    C4F17195   0.462   0.280   3.671 -0.1387  0.4008 -0.5941
  154OSM    H4F17196   0.518   0.218   3.599  1.2290  0.8645  0.0363
  154OSM    H4G17197   0.372   0.227   3.710  0.0982 -0.4808 -1.2314
  154OSM    C5F17198   0.548   0.320   3.787 -0.5316  0.5643 -0.0266
  154OSM    H5F17199   0.642   0.366   3.751 -0.1784 -0.9883 -1.2124
  154OSM    H5G17200   0.586   0.225   3.830 -0.1651 -0.2202 -1.9742
  154OSM    C6F17201   0.476   0.405   3.902  0.1363 -0.0003 -0.1922
  154OSM    H6F17202   0.394   0.338   3.933 -1.1380  1.2739 -0.7012
  154OSM    H6G17203   0.432   0.503   3.875  0.4710  0.7270  1.7393
  154OSM    C7F17204   0.570   0.434   4.020  0.6297  0.2845  0.1111
  154OSM    H7F17205   0.652   0.501   3.988  1.0699 -0.1677  0.2705
  154OSM    H7G17206   0.615   0.343   4.066 -3.4183 -2.2221 -0.3800
  154OSM    C8F17207   0.498   0.503   4.134 -0.3396 -0.1202 -0.0954
  154OSM    H8F17208   0.441   0.593   4.103 -0.5200  0.6460  2.2356
  154OSM    H8G17209   0.577   0.553   4.196  1.9308 -2.4509 -0.9526
  154OSM    C9F17210   0.405   0.426   4.222  0.3316 -0.3087  0.2514
  154OSM    H9F17211   0.299   0.422   4.193  0.5411  0.3750 -0.6135
  154OSM   C10F17212   0.433   0.368   4.339 -0.4346  0.1825 -0.5498
  154OSM   H10F17213   0.349   0.320   4.392  0.8222  0.4653  1.8092
  154OSM   C11F17214   0.568   0.364   4.412  1.3130  0.6134 -0.0168
  154OSM   H11F17215   0.653   0.411   4.358  0.9859  1.8869  0.5449
  154OSM   H11G17216   0.593   0.258   4.436 -0.1965  0.4295  0.8688
  154OSM   C12F17217   0.559   0.427   4.551  1.1730  0.0096  0.0462
  154OSM   H12F17218   0.657   0.410   4.601  1.9106  0.4283 -1.2005
  154OSM   H12G17219   0.478   0.376   4.606  0.6017 -1.0266 -1.6764
  154OSM   C13F17220   0.531   0.578   4.539  0.2955  0.2440 -0.2220
  154OSM   H13F17221   0.435   0.593   4.484 -0.7199 -1.8717  0.8698
  154OSM   H13G17222   0.600   0.629   4.468 -0.3668  0.3204 -0.8186
  154OSM   C14F17223   0.513   0.641   4.679  0.0851  0.6699 -0.2050
  154OSM   H14F17224   0.437   0.587   4.738  0.0759 -0.7241 -1.4407
  154OSM   H14G17225   0.486   0.747   4.659 -2.0779  0.4791  1.4076
  154OSM   C15F17226   0.644   0.641   4.758  0.2122 -0.3205  0.0123
  154OSM   H15F17227   0.735   0.640   4.695  1.2166  1.7591  1.2952
  154OSM   H15G17228   0.650   0.546   4.815 -1.6842 -1.0675 -0.9511
  154OSM   C16F17229   0.655   0.736   4.877  0.4331 -0.2435  0.4607
  154OSM   H16F17230   0.563   0.724   4.938 -1.1210 -0.2417 -1.7736
  154OSM   H16G17231   0.675   0.840   4.844  0.2573 -0.4624 -0.3450
  154OSM   C17F17232   0.768   0.701   4.988  0.2458  0.1956 -0.3416
  154OSM   H17F17233   0.738   0.598   5.016 -1.4780 -0.2159 -3.2393
  154OSM   H17G17234   0.755   0.779   5.066 -1.4202 -0.1052 -0.2863
  154OSM   C18F17235   0.913   0.679   4.942  0.4250  0.4445 -0.9448
  154OSM   H18F17236   0.920   0.642   4.837 -2.2745  1.2436 -1.4691
  154OSM   H18G17237   0.973   0.623   5.017 -1.6156 -2.0470 -1.0295
  154OSM   H18H17238   0.962   0.779   4.937  0.5155  0.3485 -3.9544
  155OSM      N17239   1.917   4.814   2.866  0.1898  0.2608  0.3241
  155OSM    C1517240   2.013   4.818   2.983 -0.5685  0.5683  0.7091
  155OSM   H15A17241   2.090   4.743   2.973 -0.2967  0.9132  0.2198
  155OSM   H15B17242   1.957   4.805   3.075 -2.0814  1.8375  0.0133
  155OSM   H15C17243   2.063   4.914   2.985 -0.7405  0.7871 -1.9782
  155OSM    C1417244   1.997   4.832   2.739  0.0459  0.1415  0.1996
  155OSM   H14A17245   2.047   4.928   2.736 -0.8998  0.6254 -1.3749
  155OSM   H14B17246   1.931   4.836   2.654 -1.3977 -0.9024  1.2247
  155OSM   H14C17247   2.072   4.760   2.711 -0.2385  0.7283 -2.3195
  155OSM    C1317248   1.845   4.684   2.875 -0.2245 -0.1129 -0.0800
  155OSM   H13A17249   1.911   4.600   2.888  0.3466  0.2562 -0.5109
  155OSM   H13B17250   1.784   4.672   2.787 -0.6223 -0.7829  0.2821
  155OSM   H13C17251   1.785   4.687   2.965  1.7241 -0.7401  1.3142
  155OSM    C1217252   1.804   4.916   2.883  0.9584  0.3218 -0.2237
  155OSM   H12A17253   1.743   4.909   2.795  2.5901 -0.3417 -1.3523
  155OSM   H12B17254   1.839   5.018   2.882  0.4010  0.5058 -0.7184
  155OSM    C1117255   1.709   4.903   3.011  1.4938  0.7438  0.0190
  155OSM   H11A17256   1.636   4.985   2.997 -0.1309 -0.5305  0.6693
  155OSM   H11B17257   1.775   4.921   3.099  1.9819 -0.6080 -0.0320
  155OSM      P17258   1.542   4.750   3.144  0.1046  0.3104 -0.0048
  155OSM    O1317259   1.432   4.854   3.157 -0.1399  1.2203  0.3627
  155OSM    O1417260   1.503   4.609   3.143 -0.0207 -0.5195  0.1154
  155OSM    O1117261   1.648   4.776   3.260 -0.2874 -0.0169 -0.6936
  155OSM    O1217262   1.630   4.784   3.018  0.0965 -1.0860 -0.1940
  155OSM    C1S17263   1.618   4.736   3.397  0.4327  0.1674 -0.3937
  155OSM    H1S17264   1.606   4.626   3.404 -1.7374  0.4453  1.4785
  155OSM    H1T17265   1.521   4.776   3.435  2.2690  1.3140  3.6672
  155OSM     NF17266   1.686   4.790   3.641  0.3718  0.1020 -0.1607
  155OSM    HNF17267   1.682   4.882   3.679  1.9778 -0.5107  1.6288
  155OSM    C2S17268   1.729   4.789   3.506  0.2399 -0.6342  0.6159
  155OSM    H2S17269   1.814   4.718   3.506 -0.0025 -0.9254  1.1225
  155OSM    C3S17270   1.779   4.932   3.459 -0.5642 -0.6412 -0.2945
  155OSM    H3S17271   1.688   4.996   3.455 -0.1969 -0.1367 -0.8771
  155OSM     O317272   1.842   4.940   3.330 -0.3766  0.3565  0.5815
  155OSM    HO317273   1.784   4.876   3.288  3.2960 -1.9805 -1.4712
  155OSM    C4S17274   1.885   4.985   3.557 -0.0210  0.0064 -0.0740
  155OSM    H4S17275   1.972   4.920   3.571  1.0112  1.2946 -0.2726
  155OSM    C5S17276   1.871   5.100   3.624 -0.4309 -0.5980  0.0293
  155OSM    H5S17277   1.778   5.159   3.615 -0.5662 -0.7405  0.4264
  155OSM    C6S17278   1.976   5.156   3.712 -0.5584 -0.3044  0.0874
  155OSM    H6S17279   2.010   5.261   3.694  0.3170 -0.5446  0.2896
  155OSM    H6T17280   2.064   5.088   3.716  0.0754  0.3214 -1.8596
  155OSM    C7S17281   1.931   5.178   3.861 -0.5373  0.5484  0.7362
  155OSM    H7S17282   1.846   5.249   3.856  0.0985  1.2358 -1.5733
  155OSM    H7T17283   2.014   5.226   3.916 -1.5130  3.3485 -0.1008
  155OSM    C8S17284   1.893   5.048   3.928  0.9923  0.3094  0.6738
  155OSM    H8S17285   1.973   4.976   3.900 -0.7096 -1.4782  0.1676
  155OSM    H8T17286   1.798   5.010   3.886  0.8142  0.7850  0.6385
  155OSM    C9S17287   1.882   5.074   4.078 -0.2332  0.1977 -0.5165
  155OSM    H9S17288   1.839   4.985   4.128 -0.7243  0.4992 -0.3871
  155OSM    H9T17289   1.820   5.166   4.086  0.5976  0.9725 -2.4079
  155OSM   C10S17290   2.013   5.126   4.147 -0.5869  0.5113 -0.4344
  155OSM   H10S17291   2.043   5.221   4.098  0.2870 -0.0543 -1.0124
  155OSM   H10T17292   2.093   5.050   4.135  0.7066  1.4507  1.7682
  155OSM   C11S17293   2.020   5.162   4.292  0.4088  0.0563  0.0697
  155OSM   H11S17294   1.963   5.254   4.318 -0.5609 -0.6024  0.3400
  155OSM   H11T17295   2.127   5.176   4.320  0.2988 -0.5384  0.8193
  155OSM   C12S17296   1.967   5.054   4.395  0.1438  0.0245  0.0994
  155OSM   H12S17297   2.042   4.972   4.397  1.4401  1.1801  1.6700
  155OSM   H12T17298   1.871   5.023   4.347  1.0455 -1.3726 -0.9017
  155OSM   C13S17299   1.955   5.100   4.534 -0.4092 -0.1187 -0.2855
  155OSM   H13S17300   1.884   5.034   4.589 -2.0339  2.2314  0.6050
  155OSM   H13T17301   1.906   5.199   4.547  1.3303  0.6281  0.9560
  155OSM   C14S17302   2.091   5.105   4.608  0.3261 -0.0070  0.3484
  155OSM   H14S17303   2.081   5.180   4.690 -0.9941  1.4162 -1.0547
  155OSM   H14T17304   2.172   5.143   4.542  0.6928  2.6876  2.1622
  155OSM   C15S17305   2.120   4.970   4.676 -0.0743 -0.2537  0.1202
  155OSM   H15S17306   2.227   4.949   4.698  0.0317  0.8094  0.6925
  155OSM   H15T17307   2.104   4.890   4.601  2.2916 -0.5137 -0.1966
  155OSM   C16S17308   2.025   4.937   4.803 -0.4201 -0.1434 -0.7975
  155OSM   H16S17309   1.920   4.967   4.783 -1.7246 -2.8597  1.3429
  155OSM   H16T17310   2.063   4.997   4.889 -0.1092 -0.5167 -0.6710
  155OSM   C17S17311   2.029   4.787   4.834  0.7088 -0.9286  0.4276
  155OSM   H17S17312   2.000   4.739   4.737  0.3311  0.5794 -0.2323
  155OSM   H17T17313   1.940   4.778   4.900  1.3825 -0.3493  1.4206
  155OSM   C18S17314   2.147   4.716   4.903 -0.3545 -0.0880  1.1654
  155OSM   H18S17315   2.128   4.608   4.922 -1.2295 -0.3225 -0.7302
  155OSM   H18T17316   2.169   4.759   5.002 -0.4931  2.3847  0.1855
  155OSM   H18U17317   2.237   4.719   4.838 -1.2690  0.4251 -0.1234
  155OSM    C1F17318   1.656   4.688   3.708  0.5086 -0.3140  0.3626
  155OSM     OF17319   1.677   4.577   3.653  0.4354 -0.3622 -0.2606
  155OSM    C2F17320   1.613   4.707   3.860  0.2058  0.4900 -0.3595
  155OSM    H2F17321   1.543   4.793   3.864 -2.8460 -1.8667  0.2512
  155OSM    H2G17322   1.706   4.746   3.907  0.3498 -1.3917  1.0076
  155OSM    C3F17323   1.549   4.578   3.923  0.0600 -0.1029 -0.5007
  155OSM    H3F17324   1.624   4.497   3.924  1.9567  1.5616  0.8785
  155OSM    H3G17325   1.460   4.541   3.867 -1.2256 -0.6980  1.8035
  155OSM    C4F17326   1.500   4.597   4.064  0.6753 -0.0223  0.0014
  155OSM    H4F17327   1.426   4.517   4.085 -1.1913  1.1093 -1.8135
  155OSM    H4G17328   1.435   4.687   4.063 -1.8031 -1.6973  0.5033
  155OSM    C5F17329   1.617   4.591   4.164  0.7461 -0.3515  0.0712
  155OSM    H5F17330   1.660   4.694   4.162 -0.3754  0.3142  3.8646
  155OSM    H5G17331   1.699   4.522   4.134  0.9179  0.8189 -2.5062
  155OSM    C6F17332   1.576   4.574   4.313  0.1243 -0.2788 -0.5106
  155OSM    H6F17333   1.513   4.485   4.336 -2.0893  1.2727 -0.2354
  155OSM    H6G17334   1.500   4.643   4.356 -1.8044 -2.4704 -0.2023
  155OSM    C7F17335   1.692   4.592   4.415  0.1237 -0.1201  0.2718
  155OSM    H7F17336   1.720   4.699   4.407  0.8214 -0.0800  2.5447
  155OSM    H7G17337   1.761   4.511   4.382 -0.4288  0.1751 -1.7170
  155OSM    C8F17338   1.638   4.573   4.555  0.6277 -0.0033  0.4188
  155OSM    H8F17339   1.548   4.509   4.550  0.1595  0.7172 -0.8488
  155OSM    H8G17340   1.602   4.675   4.582 -0.7539 -0.3080 -0.2026
  155OSM    C9F17341   1.753   4.521   4.649  0.5683  0.1723  0.0876
  155OSM    H9F17342   1.856   4.539   4.613  0.5994 -0.9366 -0.4116
  155OSM   C10F17343   1.736   4.466   4.772  0.8883  0.3467 -0.3943
  155OSM   H10F17344   1.820   4.429   4.833  0.1612 -3.6769 -1.5066
  155OSM   C11F17345   1.603   4.432   4.835  0.1850  0.2820  0.9316
  155OSM   H11F17346   1.620   4.324   4.850  2.3872  0.7100  1.8353
  155OSM   H11G17347   1.512   4.461   4.777  0.0732  2.9035  2.2420
  155OSM   C12F17348   1.561   4.491   4.975 -0.2130  0.1588 -0.0005
  155OSM   H12F17349   1.550   4.601   4.970 -0.8452  0.0385 -1.8730
  155OSM   H12G17350   1.649   4.488   5.044 -0.5974  1.5959  0.5900
  155OSM   C13F17351   1.433   4.434   5.045  0.0085  0.8205  0.2848
  155OSM   H13F17352   1.440   4.323   5.046 -0.9433  0.7607  1.0294
  155OSM   H13G17353   1.344   4.465   4.986  0.0922 -0.4385 -0.5441
  155OSM   C14F17354   1.414   4.483   5.195 -0.1717 -0.1609  0.0065
  155OSM   H14F17355   1.458   4.584   5.209 -2.7259  1.2600 -1.3348
  155OSM   H14G17356   1.472   4.420   5.265  0.9482  1.3110  0.4537
  155OSM   C15F17357   1.266   4.496   5.224 -0.6444 -0.3715 -0.1690
  155OSM   H15F17358   1.225   4.542   5.132 -0.3829  0.0824 -0.0586
  155OSM   H15G17359   1.236   4.551   5.315  0.0323 -0.1013 -0.1035
  155OSM   C16F17360   1.206   4.352   5.247  0.0833  0.8037  0.1696
  155OSM   H16F17361   1.260   4.312   5.335 -0.7890 -1.5570 -0.2991
  155OSM   H16G17362   1.214   4.286   5.158  0.9121  0.7021  0.3154
  155OSM   C17F17363   1.056   4.359   5.281 -0.5487 -0.4496 -0.4206
  155OSM   H17F17364   0.997   4.407   5.200 -2.1752 -0.4360  0.7271
  155OSM   H17G17365   1.041   4.416   5.376 -0.1411 -0.2260 -0.4870
  155OSM   C18F17366   1.007   4.212   5.292  0.6533 -0.8735 -0.5954
  155OSM   H18F17367   0.906   4.195   5.249 -0.2542  0.9735  0.6591
  155OSM   H18G17368   1.007   4.180   5.398 -0.1143 -0.6067 -0.5017
  155OSM   H18H17369   1.072   4.152   5.226 -1.3330 -2.3774 -1.2991
  156OSM      N17370   4.052   2.948   3.344  0.0643 -0.2448 -0.5553
  156OSM    C1517371   4.058   2.912   3.491 -0.7925  0.0088  0.0976
  156OSM   H15A17372   4.047   2.807   3.510  0.5258  0.1575  1.8815
  156OSM   H15B17373   3.965   2.957   3.523  0.6934  4.0934 -0.6743
  156OSM   H15C17374   4.143   2.952   3.545 -0.9922  0.5165  0.0373
  156OSM    C1417375   3.925   2.895   3.281 -0.6779 -0.1551 -0.3163
  156OSM   H14A17376   3.841   2.921   3.343  1.0546  0.1832  2.0296
  156OSM   H14B17377   3.934   2.788   3.275 -0.4272 -0.1266 -0.4904
  156OSM   H14C17378   3.906   2.945   3.187 -0.0790  0.2488 -0.2282
  156OSM    C1317379   4.046   3.101   3.343 -0.3540 -0.1996 -0.2052
  156OSM   H13A17380   4.044   3.142   3.243 -1.2249  1.9434  0.6464
  156OSM   H13B17381   4.138   3.136   3.387 -1.2636  1.0138  0.7891
  156OSM   H13C17382   3.959   3.137   3.396 -0.6595 -0.3485 -0.5984
  156OSM    C1217383   4.179   2.903   3.268  0.1751  0.4264  0.7108
  156OSM   H12A17384   4.162   2.939   3.168  1.3972 -1.3869 -0.1935
  156OSM   H12B17385   4.180   2.795   3.260 -0.8283  0.4382  0.2863
  156OSM    C1117386   4.316   2.951   3.323  0.2547  0.2456  0.0679
  156OSM   H11A17387   4.399   2.908   3.263  1.5548  1.8358  0.6508
  156OSM   H11B17388   4.324   2.913   3.427  1.0615 -1.6536 -0.6318
  156OSM      P17389   4.394   3.187   3.238 -0.6394 -0.3174  0.1404
  156OSM    O1317390   4.391   3.124   3.104 -0.0594 -0.4035 -0.3051
  156OSM    O1417391   4.334   3.322   3.254 -0.2589 -0.3904  0.0917
  156OSM    O1117392   4.545   3.188   3.302 -0.1007 -0.5928  0.2120
  156OSM    O1217393   4.326   3.091   3.335  0.1550 -0.3121  0.3062
  156OSM    C1S17394   4.568   3.287   3.405 -0.2607  0.1058  0.4168
  156OSM    H1S17395   4.523   3.387   3.385  1.9374  0.7648 -1.7691
  156OSM    H1T17396   4.678   3.307   3.406  0.1252 -0.9989 -3.5980
  156OSM     NF17397   4.536   3.337   3.644  0.0741  0.6935  0.3296
  156OSM    HNF17398   4.621   3.324   3.694 -0.3829 -1.4437  0.6714
  156OSM    C2S17399   4.528   3.238   3.540  0.3357  0.5081 -0.5938
  156OSM    H2S17400   4.419   3.217   3.534  0.2290  0.9925 -0.4678
  156OSM    C3S17401   4.604   3.102   3.578  0.1468 -0.3027  1.3998
  156OSM    H3S17402   4.714   3.111   3.587  0.4372 -2.1359  0.2706
  156OSM     O317403   4.597   2.997   3.481  0.1887  0.3962  0.5725
  156OSM    HO317404   4.575   3.045   3.401 -0.7135 -2.0490 -0.7261
  156OSM    C4S17405   4.545   3.057   3.705 -0.4777 -0.1773 -0.0079
  156OSM    H4S17406   4.435   3.060   3.696 -0.3791 -0.8170 -1.7382
  156OSM    C5S17407   4.607   3.011   3.818 -0.2127  0.2058 -0.7549
  156OSM    H5S17408   4.717   3.002   3.826 -0.2622  0.2165  0.0362
  156OSM    C6S17409   4.536   2.964   3.940  0.1738  0.4251 -0.1191
  156OSM    H6S17410   4.607   2.978   4.025 -1.4588  1.1433  1.1811
  156OSM    H6T17411   4.514   2.857   3.920 -1.1198  0.8944 -1.3373
  156OSM    C7S17412   4.398   3.027   3.965 -0.4017  0.0075  0.3510
  156OSM    H7S17413   4.347   2.981   4.053 -3.4088  0.6089 -0.9439
  156OSM    H7T17414   4.334   2.995   3.880  0.2051 -1.7372  0.5206
  156OSM    C8S17415   4.395   3.179   3.977  0.8317  0.1107 -0.3055
  156OSM    H8S17416   4.289   3.212   3.979  0.9567  0.6833 -1.9037
  156OSM    H8T17417   4.439   3.237   3.893  1.5240  4.0500  2.4827
  156OSM    C9S17418   4.470   3.219   4.111 -0.3763  0.1583 -0.1538
  156OSM    H9S17419   4.578   3.201   4.098 -0.0685  0.6881  1.4417
  156OSM    H9T17420   4.432   3.156   4.195 -2.0755  1.2583 -0.0409
  156OSM   C10S17421   4.458   3.369   4.145  0.0215  0.6999 -0.1526
  156OSM   H10S17422   4.356   3.384   4.186 -0.4050 -0.1507 -0.8821
  156OSM   H10T17423   4.458   3.430   4.052 -0.7247 -0.4671 -0.9526
  156OSM   C11S17424   4.574   3.411   4.238 -0.4386 -0.3804 -0.3759
  156OSM   H11S17425   4.672   3.413   4.185  0.0258 -1.5125  0.4017
  156OSM   H11T17426   4.579   3.329   4.313 -0.8684  0.1777  0.2672
  156OSM   C12S17427   4.550   3.542   4.319 -0.0777 -0.1534 -0.0043
  156OSM   H12S17428   4.440   3.543   4.337 -0.1314  2.2663 -0.0843
  156OSM   H12T17429   4.578   3.638   4.271 -1.4004  0.1374 -0.2488
  156OSM   C13S17430   4.628   3.528   4.449  0.2063 -0.2954 -0.4879
  156OSM   H13S17431   4.737   3.519   4.434  0.5150  1.4768  0.3817
  156OSM   H13T17432   4.600   3.436   4.504 -0.6610  1.1559  1.6709
  156OSM   C14S17433   4.583   3.641   4.537  0.3252  0.1394  0.5402
  156OSM   H14S17434   4.472   3.650   4.536  0.2770  0.8990 -3.7373
  156OSM   H14T17435   4.610   3.740   4.496  0.5852  0.5391  1.6523
  156OSM   C15S17436   4.649   3.627   4.680  0.0395 -0.6197 -0.2730
  156OSM   H15S17437   4.759   3.618   4.672  0.0259 -0.7068 -0.3527
  156OSM   H15T17438   4.602   3.542   4.734 -3.5922  0.7975 -0.9576
  156OSM   C16S17439   4.626   3.745   4.777  0.7266  0.2673 -0.0645
  156OSM   H16S17440   4.519   3.773   4.785  0.3700 -1.1858  0.6182
  156OSM   H16T17441   4.681   3.835   4.743  1.9818 -0.3674  0.1973
  156OSM   C17S17442   4.680   3.716   4.919  0.0060  0.9684 -0.6803
  156OSM   H17S17443   4.782   3.760   4.928 -0.9506  3.0454  0.7822
  156OSM   H17T17444   4.671   3.606   4.935  1.2392  0.8882 -0.4234
  156OSM   C18S17445   4.606   3.786   5.034 -0.0978 -0.1666 -0.0673
  156OSM   H18S17446   4.613   3.896   5.039 -2.0146  0.0353 -0.7711
  156OSM   H18T17447   4.664   3.761   5.125  0.7559  2.2909  0.1090
  156OSM   H18U17448   4.498   3.770   5.055 -0.9261  3.2389 -1.1295
  156OSM    C1F17449   4.461   3.438   3.656  0.2361 -0.6069  0.2529
  156OSM     OF17450   4.370   3.457   3.573 -0.3857  0.2544 -0.1584
  156OSM    C2F17451   4.488   3.533   3.767  0.6630 -0.2809  0.1425
  156OSM    H2F17452   4.595   3.528   3.794  0.0871 -1.3771  2.5283
  156OSM    H2G17453   4.423   3.499   3.851 -0.5019 -0.2416 -0.7103
  156OSM    C3F17454   4.439   3.679   3.735 -0.1452 -0.4822  0.1098
  156OSM    H3F17455   4.330   3.691   3.713  0.0713 -0.2245 -0.8807
  156OSM    H3G17456   4.488   3.702   3.638  4.4472 -0.0172  2.2636
  156OSM    C4F17457   4.470   3.779   3.846 -0.0108  0.4009  0.0734
  156OSM    H4F17458   4.443   3.882   3.814  0.1158  0.3780 -0.1067
  156OSM    H4G17459   4.577   3.784   3.873  0.1260  0.6545 -0.5094
  156OSM    C5F17460   4.387   3.741   3.974  0.0465 -0.6619 -0.8640
  156OSM    H5F17461   4.416   3.640   4.010 -1.4443 -1.4419 -1.7717
  156OSM    H5G17462   4.279   3.742   3.951 -0.1957 -1.6874  0.1621
  156OSM    C6F17463   4.404   3.843   4.091 -0.0354 -0.1012  0.5454
  156OSM    H6F17464   4.413   3.945   4.049 -1.3730  0.9974  2.7794
  156OSM    H6G17465   4.498   3.820   4.147  0.7873 -0.8428 -1.0723
  156OSM    C7F17466   4.292   3.849   4.193  0.6713  0.4445  0.0573
  156OSM    H7F17467   4.293   3.750   4.243 -1.6988  0.8897  1.1563
  156OSM    H7G17468   4.193   3.842   4.142  1.1293 -1.7427 -0.6314
  156OSM    C8F17469   4.293   3.965   4.290 -0.2910 -0.5531  0.4809
  156OSM    H8F17470   4.288   4.067   4.247  1.5118  0.3639  2.2674
  156OSM    H8G17471   4.394   3.963   4.337 -1.1492  2.4002  2.7830
  156OSM    C9F17472   4.175   3.968   4.388  0.4235 -0.3844  0.5915
  156OSM    H9F17473   4.074   4.005   4.363 -0.9475 -3.0358  1.7806
  156OSM   C10F17474   4.190   3.946   4.522 -0.6487 -1.0774 -0.1024
  156OSM   H10F17475   4.105   3.954   4.591  0.3744 -1.3117  1.2220
  156OSM   C11F17476   4.313   3.896   4.596 -0.4598 -0.5010  0.6196
  156OSM   H11F17477   4.396   3.868   4.527 -0.0314 -0.8834  1.2782
  156OSM   H11G17478   4.300   3.802   4.653 -0.4685  0.3629  2.1048
  156OSM   C12F17479   4.367   4.003   4.699 -0.1367  0.3225 -0.4671
  156OSM   H12F17480   4.366   4.101   4.646 -0.9565 -0.1698 -1.4143
  156OSM   H12G17481   4.473   3.996   4.730 -1.2143 -0.3959  3.6992
  156OSM   C13F17482   4.279   4.003   4.829 -0.2474 -0.6045 -0.7116
  156OSM   H13F17483   4.302   3.912   4.887  0.0201 -0.0426  0.0888
  156OSM   H13G17484   4.177   4.006   4.786 -0.6113 -0.7241  0.1297
  156OSM   C14F17485   4.305   4.125   4.928 -0.2437  0.5810  0.2401
  156OSM   H14F17486   4.289   4.223   4.877  0.5920  1.6185  1.8792
  156OSM   H14G17487   4.409   4.114   4.967 -0.3663  0.0060  0.4049
  156OSM   C15F17488   4.209   4.121   5.045  0.2884 -1.0390 -0.0045
  156OSM   H15F17489   4.105   4.144   5.012  0.6783  0.6612 -0.0991
  156OSM   H15G17490   4.231   4.209   5.109 -2.0019 -1.4608  1.5015
  156OSM   C16F17491   4.204   3.993   5.127 -0.5680 -0.0388  0.1022
  156OSM   H16F17492   4.310   3.975   5.158  0.3750 -0.0549 -2.8245
  156OSM   H16G17493   4.173   3.919   5.050  1.0286  0.1166 -0.7456
  156OSM   C17F17494   4.100   4.003   5.241  0.0797 -0.2190  0.2263
  156OSM   H17F17495   4.112   4.105   5.282  2.0828 -0.5164  0.4807
  156OSM   H17G17496   4.128   3.938   5.327  1.1760 -0.0595  0.0032
  156OSM   C18F17497   3.953   3.973   5.192  0.4011 -0.5181  0.0326
  156OSM   H18F17498   3.929   3.870   5.159 -3.3568  0.2298 -0.0229
  156OSM   H18G17499   3.947   4.035   5.101  1.5625 -0.8649 -0.3006
  156OSM   H18H17500   3.874   4.004   5.264  0.4577  1.1784 -0.5835
  157OSM      N17501   4.629   4.083   2.788  0.0115  0.3291  0.1265
  157OSM    C1517502   4.756   4.002   2.766 -0.4077  1.0645 -0.2821
  157OSM   H15A17503   4.783   4.003   2.662  0.4833  1.6015 -0.0557
  157OSM   H15B17504   4.739   3.904   2.807  1.1715  0.6467 -0.5568
  157OSM   H15C17505   4.837   4.047   2.821  1.3914 -2.2291  0.0074
  157OSM    C1417506   4.615   4.109   2.929  0.1931  0.4721 -0.2160
  157OSM   H14A17507   4.546   4.189   2.951 -3.5785 -2.8254  1.0814
  157OSM   H14B17508   4.706   4.140   2.979  0.8181 -1.9824  0.3046
  157OSM   H14C17509   4.597   4.024   2.992  1.1818  1.6868  1.8232
  157OSM    C1317510   4.653   4.213   2.730 -0.2396 -0.3493 -0.1659
  157OSM   H13A17511   4.563   4.273   2.721  0.2675  0.3956 -0.3873
  157OSM   H13B17512   4.693   4.208   2.629  2.1027  1.7091  0.5630
  157OSM   H13C17513   4.734   4.252   2.789 -0.0352 -1.9358  0.6496
  157OSM    C1217514   4.502   4.016   2.733 -0.1464  0.0812 -0.7104
  157OSM   H12A17515   4.489   4.051   2.632  3.2974  0.6568 -1.0831
  157OSM   H12B17516   4.422   4.052   2.796 -0.7822 -0.8540 -0.9758
  157OSM    C1117517   4.504   3.859   2.746  0.1701  0.2924  0.2874
  157OSM   H11A17518   4.590   3.814   2.691  0.8426  0.0220  1.4981
  157OSM   H11B17519   4.411   3.820   2.701  0.0486 -1.4962  1.9323
  157OSM      P17520   4.388   3.828   2.972 -0.1582  0.0501 -0.5157
  157OSM    O1317521   4.268   3.881   2.910  0.1190 -0.0830  0.2224
  157OSM    O1417522   4.371   3.694   3.033  0.2997  0.1774 -0.5237
  157OSM    O1117523   4.451   3.920   3.091 -0.2474  0.1405  0.4699
  157OSM    O1217524   4.511   3.819   2.879  0.1204 -0.6386 -0.1097
  157OSM    C1S17525   4.360   3.944   3.204 -0.0461 -0.0886 -0.6629
  157OSM    H1S17526   4.255   3.912   3.186  0.0603 -1.1323  0.4754
  157OSM    H1T17527   4.342   4.053   3.202 -1.6035 -0.3073 -0.1062
  157OSM     NF17528   4.334   3.954   3.441  0.4738 -0.1694 -0.3425
  157OSM    HNF17529   4.328   4.044   3.483  1.4023 -1.2897  2.4513
  157OSM    C2S17530   4.431   3.919   3.339  0.0808  0.2371 -0.3373
  157OSM    H2S17531   4.464   3.813   3.352  1.3828  0.8244  1.4650
  157OSM    C3S17532   4.564   3.993   3.360 -0.0212  0.1644 -0.0447
  157OSM    H3S17533   4.552   4.103   3.349  1.1836  0.1136 -2.4322
  157OSM     O317534   4.665   3.965   3.264  0.1147  0.4746 -0.3180
  157OSM    HO317535   4.630   3.899   3.205 -1.5415 -0.8184  1.9441
  157OSM    C4S17536   4.617   3.965   3.496 -0.3249 -0.2150  0.1060
  157OSM    H4S17537   4.628   3.862   3.533  0.4889  0.1825  1.0368
  157OSM    C5S17538   4.656   4.056   3.595 -0.1410 -0.6097 -0.3529
  157OSM    H5S17539   4.668   4.162   3.570  2.5116 -0.8798 -0.5015
  157OSM    C6S17540   4.705   4.030   3.736  0.3934 -0.3929 -0.6334
  157OSM    H6S17541   4.808   4.069   3.729  0.0625  0.5833 -0.1296
  157OSM    H6T17542   4.713   3.921   3.756 -2.1963 -0.7490 -1.1275
  157OSM    C7S17543   4.634   4.104   3.850  0.4701 -0.3493  0.2881
  157OSM    H7S17544   4.524   4.084   3.850  0.3496  0.2945 -0.0319
  157OSM    H7T17545   4.652   4.210   3.821  1.1647 -1.6055 -4.7667
  157OSM    C8S17546   4.687   4.075   3.992 -0.3601  0.6051 -0.2996
  157OSM    H8S17547   4.795   4.098   4.006  0.0215 -1.4512  0.4028
  157OSM    H8T17548   4.669   3.968   4.016 -1.3190  0.7761 -0.2018
  157OSM    C9S17549   4.613   4.155   4.099 -0.3831 -0.5377 -0.1121
  157OSM    H9S17550   4.508   4.123   4.113 -0.7475  0.8636  0.4617
  157OSM    H9T17551   4.615   4.260   4.065 -0.3669 -0.8137 -0.9758
  157OSM   C10S17552   4.677   4.132   4.236  0.0297  0.2894 -0.1724
  157OSM   H10S17553   4.788   4.142   4.230  0.4412 -2.6696  0.5579
  157OSM   H10T17554   4.646   4.028   4.262 -1.8865  1.6274  3.7830
  157OSM   C11S17555   4.610   4.221   4.342  0.2920  0.2171 -0.1321
  157OSM   H11S17556   4.500   4.223   4.327  0.1263 -1.3143  0.6829
  157OSM   H11T17557   4.642   4.327   4.327 -1.1533  0.8270  0.7809
  157OSM   C12S17558   4.649   4.181   4.490  0.6645 -1.2852 -0.0313
  157OSM   H12S17559   4.759   4.173   4.496  0.7383 -0.8122 -0.7106
  157OSM   H12T17560   4.605   4.081   4.514 -0.2991 -0.8912 -0.1165
  157OSM   C13S17561   4.601   4.296   4.579 -0.3953  0.6459  0.6613
  157OSM   H13S17562   4.490   4.292   4.584 -0.6399  0.9785 -2.3288
  157OSM   H13T17563   4.639   4.395   4.546  1.0369 -0.9783 -3.0789
  157OSM   C14S17564   4.648   4.278   4.725 -0.0645  0.2192  0.5700
  157OSM   H14S17565   4.757   4.296   4.741 -0.0588 -2.3196  4.8256
  157OSM   H14T17566   4.627   4.173   4.754  3.0893 -2.7611 -5.6765
  157OSM   C15S17567   4.605   4.396   4.823 -0.1152  0.4892  0.3033
  157OSM   H15S17568   4.495   4.383   4.814  0.1215 -0.8906 -0.9305
  157OSM   H15T17569   4.639   4.496   4.787  0.5814  0.4204  0.7505
  157OSM   C16S17570   4.657   4.376   4.964 -0.2877  0.8042 -0.1952
  157OSM   H16S17571   4.766   4.396   4.972 -0.0221 -0.9059  1.2109
  157OSM   H16T17572   4.652   4.269   4.996  1.0472  1.1086  1.1720
  157OSM   C17S17573   4.594   4.468   5.074 -0.3364  0.4243 -0.4062
  157OSM   H17S17574   4.635   4.439   5.173  2.3293 -0.3225 -1.6288
  157OSM   H17T17575   4.485   4.448   5.071 -0.2375 -0.3716  0.6968
  157OSM   C18S17576   4.619   4.617   5.055 -0.4627 -0.5086  0.4326
  157OSM   H18S17577   4.562   4.655   4.967 -0.5215  0.5191  0.8953
  157OSM   H18T17578   4.725   4.642   5.031  0.2105 -2.4019  1.2818
  157OSM   H18U17579   4.590   4.665   5.151  0.1663 -0.8309  0.7830
  157OSM    C1F17580   4.225   3.882   3.459 -0.5278  0.7364  0.4316
  157OSM     OF17581   4.219   3.767   3.417 -0.6669  0.3447  0.3045
  157OSM    C2F17582   4.112   3.936   3.547 -0.1131 -0.4956 -0.1279
  157OSM    H2F17583   4.025   3.958   3.481 -1.2781 -1.9578  0.8430
  157OSM    H2G17584   4.141   4.032   3.595 -0.2446 -0.3476 -0.3398
  157OSM    C3F17585   4.067   3.826   3.653  0.0534 -0.6165  0.2387
  157OSM    H3F17586   4.147   3.816   3.729 -0.1077  2.1675  0.8908
  157OSM    H3G17587   4.040   3.737   3.592  0.9769 -0.0853 -0.9824
  157OSM    C4F17588   3.945   3.871   3.737 -0.1188  0.0189  0.4465
  157OSM    H4F17589   3.905   3.773   3.772  1.6338 -0.3913  1.4109
  157OSM    H4G17590   3.871   3.925   3.674 -0.0898  0.3206  0.6697
  157OSM    C5F17591   3.976   3.956   3.855  0.6313  0.2498  0.3129
  157OSM    H5F17592   4.018   4.055   3.827 -0.2518  0.2093 -1.2471
  157OSM    H5G17593   4.045   3.893   3.916 -0.3912 -0.5329  0.6909
  157OSM    C6F17594   3.864   3.979   3.956  0.3468 -0.2926 -0.3180
  157OSM    H6F17595   3.829   3.877   3.981  0.6106 -0.6798 -1.4788
  157OSM    H6G17596   3.781   4.031   3.902 -0.3048 -1.9106 -0.9368
  157OSM    C7F17597   3.903   4.050   4.082 -0.3764 -0.3096 -1.1703
  157OSM    H7F17598   3.911   4.160   4.064  0.4919 -0.0677  0.4685
  157OSM    H7G17599   4.001   4.010   4.115 -0.6343 -1.5125 -1.8232
  157OSM    C8F17600   3.804   4.033   4.205 -0.6864 -1.0519  0.5413
  157OSM    H8F17601   3.710   4.081   4.170  0.5843  1.7326  0.6673
  157OSM    H8G17602   3.840   4.095   4.291 -2.5358  1.0463 -0.1051
  157OSM    C9F17603   3.765   3.897   4.253  0.8197  0.4271 -0.6388
  157OSM    H9F17604   3.731   3.831   4.172 -3.0105 -0.5365  1.5174
  157OSM   C10F17605   3.759   3.859   4.379  0.5123 -0.0030 -0.6823
  157OSM   H10F17606   3.713   3.763   4.406 -1.5059  0.8600 -0.8542
  157OSM   C11F17607   3.793   3.949   4.496  0.1730  0.1167  0.7987
  157OSM   H11F17608   3.825   4.054   4.477 -1.3187  0.7554  1.5983
  157OSM   H11G17609   3.876   3.891   4.542  0.4184 -0.0632  0.1384
  157OSM   C12F17610   3.670   3.960   4.592 -0.3791  0.4692 -0.0568
  157OSM   H12F17611   3.634   3.855   4.605 -2.1447  0.9430 -0.8062
  157OSM   H12G17612   3.585   4.016   4.548  0.2069  0.4157 -1.2994
  157OSM   C13F17613   3.713   4.008   4.727  0.7650 -0.5064 -0.3587
  157OSM   H13F17614   3.738   4.113   4.701 -2.5840  0.2157 -1.1699
  157OSM   H13G17615   3.800   3.948   4.761  0.5651 -1.7165 -1.9137
  157OSM   C14F17616   3.603   4.006   4.833 -0.6648  0.1672 -0.6566
  157OSM   H14F17617   3.513   3.958   4.790  0.1477 -1.0260 -1.0762
  157OSM   H14G17618   3.584   4.111   4.865 -0.2034  0.6218 -1.8244
  157OSM   C15F17619   3.650   3.924   4.953 -0.7381  0.1184  0.3247
  157OSM   H15F17620   3.736   3.966   5.010  0.2618 -0.6802 -0.5639
  157OSM   H15G17621   3.667   3.821   4.916  1.8114 -0.4661  2.7466
  157OSM   C16F17622   3.541   3.917   5.060 -0.3564  0.4510 -1.0969
  157OSM   H16F17623   3.444   3.903   5.006 -1.1345  1.5813 -0.0538
  157OSM   H16G17624   3.537   4.016   5.110 -0.4496  0.1478 -0.4925
  157OSM   C17F17625   3.569   3.816   5.165 -1.0802 -0.6085 -0.5205
  157OSM   H17F17626   3.671   3.836   5.202 -1.1090  1.7732 -1.5478
  157OSM   H17G17627   3.560   3.714   5.120 -0.6790 -1.2449  0.8136
  157OSM   C18F17628   3.473   3.825   5.281  0.0351  0.3630  0.3387
  157OSM   H18F17629   3.462   3.931   5.310  0.6287  0.3746  0.5190
  157OSM   H18G17630   3.497   3.767   5.372 -0.2826 -1.8766 -0.9234
  157OSM   H18H17631   3.377   3.775   5.253  0.9461 -1.0675 -0.3930
  158OSM      N17632   1.170   3.704   3.214  0.2611  0.3917 -0.4041
  158OSM    C1517633   1.271   3.683   3.102 -0.1077  0.1448  0.5100
  158OSM   H15A17634   1.304   3.779   3.067 -0.3988  0.5224  1.2621
  158OSM   H15B17635   1.228   3.619   3.026  1.2429 -2.4303  1.7777
  158OSM   H15C17636   1.362   3.631   3.130  0.1391  1.7228  2.8557
  158OSM    C1417637   1.242   3.752   3.341  0.3634  0.7102  0.2374
  158OSM   H14A17638   1.168   3.787   3.412  0.7967  1.8440  0.1429
  158OSM   H14B17639   1.308   3.833   3.313  0.7601  0.0586 -0.7900
  158OSM   H14C17640   1.300   3.673   3.386  0.5018  0.2650 -0.6989
  158OSM    C1317641   1.074   3.814   3.180 -0.9895  0.7643 -0.2050
  158OSM   H13A17642   1.135   3.890   3.134  0.5787 -0.9597 -1.1118
  158OSM   H13B17643   1.017   3.835   3.269 -0.5611 -2.0788  0.8397
  158OSM   H13C17644   0.999   3.787   3.108 -0.8034  0.4806 -0.2937
  158OSM    C1217645   1.095   3.576   3.233 -0.2095 -0.0729  0.4227
  158OSM   H12A17646   1.025   3.597   3.312 -0.6841  1.7943 -0.4236
  158OSM   H12B17647   1.166   3.501   3.263  2.5754  1.9458 -0.6629
  158OSM    C1117648   1.024   3.498   3.112  0.5653 -0.3756 -0.5562
  158OSM   H11A17649   0.941   3.565   3.080  0.3080 -0.1301  0.5582
  158OSM   H11B17650   0.973   3.407   3.152  1.7892 -0.7371  0.2502
  158OSM      P17651   1.198   3.347   2.987  0.0400  0.4157 -0.1580
  158OSM    O1317652   1.108   3.254   2.919 -0.2869  0.8249  0.2817
  158OSM    O1417653   1.328   3.383   2.932  0.6639 -0.2735  0.4967
  158OSM    O1117654   1.210   3.303   3.134  0.0578  0.3636  0.2652
  158OSM    O1217655   1.113   3.478   3.002  0.0452  0.3232 -0.3078
  158OSM    C1S17656   1.330   3.326   3.211  0.2084  0.5210  0.3045
  158OSM    H1S17657   1.344   3.435   3.222  0.1575  0.5850 -0.2133
  158OSM    H1T17658   1.414   3.283   3.152 -0.9157  0.8172 -1.6362
  158OSM     NF17659   1.430   3.314   3.436 -0.0951 -0.2381 -0.2522
  158OSM    HNF17660   1.523   3.277   3.441 -0.6978 -2.1721 -2.0535
  158OSM    C2S17661   1.332   3.247   3.348  0.9300  0.1377 -0.7294
  158OSM    H2S17662   1.232   3.252   3.397 -0.4068 -1.6468 -3.0841
  158OSM    C3S17663   1.352   3.094   3.319 -0.0506 -0.7010  0.1941
  158OSM    H3S17664   1.452   3.085   3.273  0.9313  0.9350  1.8664
  158OSM     O317665   1.256   3.050   3.224  0.2333  0.2516  0.4006
  158OSM    HO317666   1.215   3.131   3.192 -2.4340 -1.0345  0.2951
  158OSM    C4S17667   1.341   3.012   3.440  0.0191  0.4403 -0.2264
  158OSM    H4S17668   1.234   2.991   3.458 -0.7663  3.7176 -0.3766
  158OSM    C5S17669   1.443   2.974   3.515  0.2493 -0.7998  0.3165
  158OSM    H5S17670   1.543   3.002   3.478  0.1800 -2.0965 -0.9344
  158OSM    C6S17671   1.446   2.898   3.644  0.1384 -0.6478  0.1423
  158OSM    H6S17672   1.529   2.825   3.635  0.3825 -0.3092 -0.3881
  158OSM    H6T17673   1.346   2.861   3.674 -0.0932  0.9159  1.4678
  158OSM    C7S17674   1.482   2.995   3.767 -0.0508 -0.8660 -0.2225
  158OSM    H7S17675   1.416   3.084   3.762  0.3986 -0.5386 -0.3587
  158OSM    H7T17676   1.586   3.034   3.759 -0.0350 -0.8922 -0.1464
  158OSM    C8S17677   1.485   2.925   3.901  0.3646 -0.1002 -0.3126
  158OSM    H8S17678   1.545   2.831   3.894  1.4351  0.3946  1.5833
  158OSM    H8T17679   1.382   2.897   3.930  0.4931  1.8360  2.3098
  158OSM    C9S17680   1.532   3.007   4.017  0.1011  0.6287  0.4640
  158OSM    H9S17681   1.475   3.102   4.011 -0.8317  0.0383 -0.4648
  158OSM    H9T17682   1.637   3.040   3.998  0.7399 -0.8066  1.2829
  158OSM   C10S17683   1.533   2.927   4.145  0.1673  0.5109  0.3664
  158OSM   H10S17684   1.583   2.828   4.131  0.7088 -0.0268  4.6575
  158OSM   H10T17685   1.433   2.912   4.191  0.9114 -0.6178  1.6749
  158OSM   C11S17686   1.622   2.998   4.250  0.5331  0.2112  0.1675
  158OSM   H11S17687   1.586   3.102   4.266  0.7886  0.2154  0.7293
  158OSM   H11T17688   1.728   2.996   4.216  0.4063 -1.2786 -0.2145
  158OSM   C12S17689   1.614   2.920   4.381  0.1497  0.5689 -0.0113
  158OSM   H12S17690   1.677   2.829   4.371  2.1050  1.8556  0.0617
  158OSM   H12T17691   1.512   2.892   4.416  1.4689 -3.5279  1.0573
  158OSM   C13S17692   1.679   2.995   4.499  0.4535  0.8085  0.0646
  158OSM   H13S17693   1.620   3.087   4.521 -1.1641 -0.7306  2.7852
  158OSM   H13T17694   1.783   3.015   4.466  0.5182  1.7164  0.7870
  158OSM   C14S17695   1.684   2.903   4.629  0.3253 -0.2532 -0.3341
  158OSM   H14S17696   1.764   2.935   4.699  0.6387 -1.5399 -0.0812
  158OSM   H14T17697   1.707   2.797   4.604 -1.3195 -1.2053  1.8368
  158OSM   C15S17698   1.559   2.914   4.714  0.2835 -0.0298  0.4371
  158OSM   H15S17699   1.470   2.929   4.649 -0.3727  1.2044  1.5633
  158OSM   H15T17700   1.559   3.012   4.766 -1.3149  0.3384 -0.1982
  158OSM   C16S17701   1.554   2.803   4.820 -0.1313 -0.0148 -0.3181
  158OSM   H16S17702   1.554   2.701   4.777 -0.6025 -0.4704  0.7184
  158OSM   H16T17703   1.455   2.826   4.866 -0.9991  1.2602 -2.6700
  158OSM   C17S17704   1.654   2.819   4.934  0.7452 -0.2826  0.1034
  158OSM   H17S17705   1.752   2.832   4.883  0.4105  2.3952 -0.0013
  158OSM   H17T17706   1.661   2.732   5.003 -0.2552 -0.9387 -0.5887
  158OSM   C18S17707   1.639   2.940   5.027  0.8267  0.0288 -0.3532
  158OSM   H18S17708   1.652   3.038   4.975  1.2237  0.0635 -0.1907
  158OSM   H18T17709   1.723   2.942   5.100 -0.6728  0.1671  1.4461
  158OSM   H18U17710   1.547   2.934   5.089  1.2045 -1.0835  0.1284
  158OSM    C1F17711   1.391   3.429   3.485  0.5587 -0.8717  0.0719
  158OSM     OF17712   1.278   3.480   3.458  0.3165  0.3101 -0.0522
  158OSM    C2F17713   1.487   3.492   3.587  0.0095 -0.4684 -0.0192
  158OSM    H2F17714   1.442   3.591   3.609 -0.1179 -0.1433 -1.6258
  158OSM    H2G17715   1.582   3.521   3.538 -0.4964  2.0680  0.3805
  158OSM    C3F17716   1.509   3.406   3.716 -0.4900 -0.8525  0.0924
  158OSM    H3F17717   1.559   3.321   3.666  1.1774  0.0292  0.2111
  158OSM    H3G17718   1.417   3.371   3.768 -0.3257  0.1158  1.0661
  158OSM    C4F17719   1.580   3.476   3.838  0.0144 -0.1892 -0.1701
  158OSM    H4F17720   1.573   3.587   3.834 -1.4726 -0.3019 -2.3389
  158OSM    H4G17721   1.689   3.459   3.824 -0.1834 -0.6848 -1.2730
  158OSM    C5F17722   1.543   3.420   3.972  0.3020  0.1812 -0.2561
  158OSM    H5F17723   1.575   3.313   3.980  0.9772  0.4746  1.3291
  158OSM    H5G17724   1.435   3.432   3.994  0.4986 -1.2639  1.8007
  158OSM    C6F17725   1.614   3.485   4.091 -0.2285  0.2989 -0.2049
  158OSM    H6F17726   1.582   3.591   4.090  0.8944  0.7000  1.6031
  158OSM    H6G17727   1.723   3.478   4.069  0.0428 -0.8489  1.3502
  158OSM    C7F17728   1.560   3.417   4.226  0.3192 -0.0944 -0.8767
  158OSM    H7F17729   1.581   3.308   4.221 -2.3168 -0.8012  0.9583
  158OSM    H7G17730   1.449   3.421   4.225  0.3343  0.3801 -1.1042
  158OSM    C8F17731   1.607   3.487   4.358 -0.2273 -0.4294  0.5813
  158OSM    H8F17732   1.545   3.474   4.449  3.4499 -1.0990  3.2312
  158OSM    H8G17733   1.606   3.597   4.343 -1.6968 -0.1249  2.5034
  158OSM    C9F17734   1.742   3.438   4.388  0.5028 -0.5717 -1.6460
  158OSM    H9F17735   1.787   3.394   4.298 -0.2559 -0.4936 -2.0709
  158OSM   C10F17736   1.793   3.425   4.514  0.0179 -0.4962 -0.0163
  158OSM   H10F17737   1.900   3.401   4.517  1.1048  3.6036  1.0857
  158OSM   C11F17738   1.723   3.471   4.642 -0.6807 -0.1848 -0.0730
  158OSM   H11F17739   1.612   3.466   4.638 -0.8448 -0.2004  2.6907
  158OSM   H11G17740   1.749   3.577   4.664  1.7653 -0.8786  0.7438
  158OSM   C12F17741   1.763   3.376   4.757 -0.1135  0.0155  0.0291
  158OSM   H12F17742   1.872   3.361   4.766 -0.0455  0.9376  0.7822
  158OSM   H12G17743   1.710   3.279   4.741 -0.7926  0.4053 -0.1708
  158OSM   C13F17744   1.718   3.429   4.896  0.0151  0.3467  0.3073
  158OSM   H13F17745   1.607   3.425   4.895  0.0112  0.4357 -0.1849
  158OSM   H13G17746   1.744   3.537   4.901  0.8394  0.2281 -0.8138
  158OSM   C14F17747   1.777   3.350   5.013 -0.3735 -0.7373 -0.8149
  158OSM   H14F17748   1.884   3.364   5.040 -0.3966  2.3552 -1.9620
  158OSM   H14G17749   1.763   3.240   5.008 -0.2688 -0.7187 -1.7884
  158OSM   C15F17750   1.706   3.395   5.137 -1.1057  0.7000  0.2624
  158OSM   H15F17751   1.758   3.351   5.225 -0.8691 -0.5442 -0.4789
  158OSM   H15G17752   1.618   3.328   5.126  0.6852 -1.8386  0.4968
  158OSM   C16F17753   1.672   3.543   5.157  0.3833 -0.2405  0.3835
  158OSM   H16F17754   1.599   3.579   5.081  0.6386 -0.3372  0.0910
  158OSM   H16G17755   1.766   3.602   5.148  0.2854 -0.1140  0.1511
  158OSM   C17F17756   1.619   3.566   5.300  0.3296 -0.5292  0.0827
  158OSM   H17F17757   1.705   3.545   5.367  3.2187  2.6366 -2.3080
  158OSM   H17G17758   1.535   3.494   5.317  0.3985 -0.6916 -0.2640
  158OSM   C18F17759   1.577   3.714   5.324 -0.9440  0.2161  0.4836
  158OSM   H18F17760   1.654   3.787   5.294 -1.4770 -0.3604 -2.6087
  158OSM   H18G17761   1.551   3.734   5.430  1.5576 -3.3850  1.9635
  158OSM   H18H17762   1.489   3.739   5.261  0.3056  0.7865 -1.1000
  159OSM      N17763   4.009   4.236   2.845  0.0856  0.4752 -0.1873
  159OSM    C1517764   3.881   4.165   2.884  0.0423  0.1173 -0.6271
  159OSM   H15A17765   3.886   4.059   2.865 -0.2808  0.3113 -1.8650
  159OSM   H15B17766   3.800   4.193   2.819 -0.4750 -0.3207 -0.1812
  159OSM   H15C17767   3.859   4.191   2.987  0.1363 -2.1068 -0.0103
  159OSM    C1417768   4.024   4.219   2.696  0.5528  0.2316  0.7660
  159OSM   H14A17769   3.938   4.259   2.644  2.1299  0.5697 -1.7663
  159OSM   H14B17770   4.025   4.114   2.669 -1.3991  0.2893  0.3160
  159OSM   H14C17771   4.111   4.267   2.654  0.3623  1.5404  1.8219
  159OSM    C1317772   3.983   4.379   2.848 -0.0318  0.1074 -0.1665
  159OSM   H13A17773   3.980   4.406   2.953  0.7411 -1.2512  0.2408
  159OSM   H13B17774   3.893   4.412   2.798 -0.3423  0.0996  0.3819
  159OSM   H13C17775   4.065   4.436   2.806 -0.2531 -0.4059 -1.3424
  159OSM    C1217776   4.124   4.184   2.930 -0.2343  0.4196  0.0187
  159OSM   H12A17777   4.142   4.081   2.904  3.1689  0.1363  2.7102
  159OSM   H12B17778   4.093   4.182   3.033 -1.0638  0.0633 -0.2347
  159OSM    C1117779   4.255   4.261   2.907  0.0360  0.7080 -0.4839
  159OSM   H11A17780   4.267   4.278   2.797 -1.7616  1.0317 -0.6617
  159OSM   H11B17781   4.333   4.193   2.946 -0.3074  0.7869  0.3569
  159OSM      P17782   4.395   4.442   3.027  0.2764  0.0553  0.0108
  159OSM    O1317783   4.495   4.406   2.927 -0.3266  0.2452  1.0271
  159OSM    O1417784   4.374   4.588   3.055  0.3575  0.0949  0.5701
  159OSM    O1117785   4.429   4.370   3.158 -0.0972 -0.1875 -0.3913
  159OSM    O1217786   4.254   4.383   2.990 -0.2114 -0.0072  0.4568
  159OSM    C1S17787   4.352   4.367   3.277  0.3427 -0.2105  0.4831
  159OSM    H1S17788   4.308   4.266   3.292 -0.5411  0.1375  0.2881
  159OSM    H1T17789   4.267   4.438   3.281  0.4431  0.1130 -1.9426
  159OSM     NF17790   4.345   4.411   3.518  0.1747  0.1937 -0.5682
  159OSM    HNF17791   4.318   4.505   3.539 -1.0150 -0.5338  1.4087
  159OSM    C2S17792   4.438   4.398   3.407  0.0729  0.6055  0.2544
  159OSM    H2S17793   4.502   4.309   3.424 -2.0696 -0.7237  1.8974
  159OSM    C3S17794   4.527   4.531   3.383 -0.3596 -0.0168  0.7104
  159OSM    H3S17795   4.455   4.612   3.360  2.2312  1.8672 -1.3475
  159OSM     O317796   4.625   4.528   3.274  0.4393 -0.8449 -0.9898
  159OSM    HO317797   4.605   4.445   3.231 -0.6793 -0.2347 -1.6920
  159OSM    C4S17798   4.600   4.552   3.515  0.6878 -0.1519  0.1904
  159OSM    H4S17799   4.534   4.580   3.598 -2.3887  1.7340 -2.6334
  159OSM    C5S17800   4.722   4.512   3.545 -0.2595  0.5594  0.0731
  159OSM    H5S17801   4.788   4.458   3.476 -2.4405  0.4098 -2.0165
  159OSM    C6S17802   4.779   4.502   3.683  0.2533  0.0318 -0.1831
  159OSM    H6S17803   4.887   4.521   3.661 -0.1432  1.0078 -1.4399
  159OSM    H6T17804   4.764   4.393   3.699  0.1928 -0.2054 -1.6843
  159OSM    C7S17805   4.733   4.586   3.798 -0.1274 -0.2655 -0.2630
  159OSM    H7S17806   4.797   4.556   3.885 -2.2699 -4.6466  0.0954
  159OSM    H7T17807   4.627   4.565   3.822 -0.0973 -0.0459  0.0799
  159OSM    C8S17808   4.745   4.739   3.772 -0.3210  0.9234 -0.4269
  159OSM    H8S17809   4.734   4.756   3.663  0.4527  1.7069 -0.3953
  159OSM    H8T17810   4.853   4.760   3.790 -0.2862 -0.6975  1.5698
  159OSM    C9S17811   4.652   4.819   3.862  0.1263  0.2145 -0.8520
  159OSM    H9S17812   4.674   4.927   3.853  1.4555  0.0303 -0.0406
  159OSM    H9T17813   4.677   4.786   3.965  0.6244 -1.0167 -1.3473
  159OSM   C10S17814   4.506   4.793   3.830 -0.6438  0.3524 -0.3569
  159OSM   H10S17815   4.463   4.691   3.836 -0.0965  0.2211  3.1619
  159OSM   H10T17816   4.498   4.827   3.724 -1.1598 -0.0335 -0.4452
  159OSM   C11S17817   4.415   4.875   3.917 -0.1798 -0.0196  0.4305
  159OSM   H11S17818   4.334   4.927   3.860  1.0163  0.6563 -0.7157
  159OSM   H11T17819   4.482   4.952   3.962 -0.6639  0.5342  0.2233
  159OSM   C12S17820   4.353   4.797   4.033  0.2820  0.4602 -0.7578
  159OSM   H12S17821   4.274   4.733   3.989 -0.0683 -0.8707  1.6244
  159OSM   H12T17822   4.288   4.870   4.086  0.6073 -1.2835  2.2667
  159OSM   C13S17823   4.443   4.716   4.136  0.1770  0.2139  0.7669
  159OSM   H13S17824   4.497   4.643   4.071 -0.8700 -1.8080  2.0409
  159OSM   H13T17825   4.381   4.647   4.198  0.4968 -0.9335 -0.1446
  159OSM   C14S17826   4.538   4.798   4.225  0.2126  0.2893 -0.5177
  159OSM   H14S17827   4.468   4.861   4.285  0.5385  1.6266 -1.4784
  159OSM   H14T17828   4.611   4.864   4.174  0.9237  0.9060  1.2273
  159OSM   C15S17829   4.609   4.696   4.318 -0.7406  0.2560  0.4299
  159OSM   H15S17830   4.676   4.632   4.256 -1.6660 -0.3055 -0.0200
  159OSM   H15T17831   4.533   4.640   4.377 -0.9674 -0.3213 -0.3837
  159OSM   C16S17832   4.687   4.769   4.429 -0.0160 -0.4031 -0.2231
  159OSM   H16S17833   4.728   4.863   4.388 -0.7769 -1.1876 -2.9634
  159OSM   H16T17834   4.769   4.708   4.473 -0.5248 -0.2481  0.9765
  159OSM   C17S17835   4.607   4.811   4.548 -0.0399  0.2008 -0.6469
  159OSM   H17S17836   4.544   4.729   4.589  2.4918 -1.0948  0.8960
  159OSM   H17T17837   4.545   4.900   4.521  0.0691  1.0778  1.7193
  159OSM   C18S17838   4.696   4.858   4.665 -0.8564 -0.3881 -0.3223
  159OSM   H18S17839   4.776   4.929   4.637  0.0189 -1.6648 -1.1883
  159OSM   H18T17840   4.744   4.766   4.707 -0.7696 -0.3402 -0.3170
  159OSM   H18U17841   4.633   4.900   4.746 -0.7714 -2.3259  0.8258
  159OSM    C1F17842   4.285   4.315   3.587 -0.2097 -0.0592 -0.7993
  159OSM     OF17843   4.300   4.206   3.552  0.1306 -0.0507 -0.0559
  159OSM    C2F17844   4.205   4.343   3.711 -0.3317 -0.5885  0.3956
  159OSM    H2F17845   4.100   4.328   3.680 -0.0204 -3.6779  0.5183
  159OSM    H2G17846   4.227   4.447   3.744 -1.0462 -0.1423 -0.4905
  159OSM    C3F17847   4.245   4.244   3.820 -0.6454 -0.5283  0.6307
  159OSM    H3F17848   4.353   4.255   3.842 -0.8422  1.5932  0.7224
  159OSM    H3G17849   4.213   4.140   3.797  1.6401 -1.2573  0.5426
  159OSM    C4F17850   4.176   4.273   3.954 -0.1918  0.1984 -0.4663
  159OSM    H4F17851   4.167   4.189   4.026  1.5361 -0.7001 -1.2319
  159OSM    H4G17852   4.070   4.292   3.926  0.2087  0.6772 -1.7098
  159OSM    C5F17853   4.238   4.393   4.025  0.0865  0.3086  0.0205
  159OSM    H5F17854   4.296   4.453   3.952  0.7312 -2.0749 -1.5294
  159OSM    H5G17855   4.316   4.355   4.095 -0.1016  0.3672  0.2647
  159OSM    C6F17856   4.133   4.480   4.098 -0.2961  0.4858  0.1119
  159OSM    H6F17857   4.040   4.480   4.036  0.3332 -1.0696 -0.9077
  159OSM    H6G17858   4.166   4.585   4.110  2.9549 -0.2936 -0.8167
  159OSM    C7F17859   4.094   4.417   4.226 -0.6296  0.1399  0.9085
  159OSM    H7F17860   4.073   4.308   4.217  1.0474 -0.0527 -2.6877
  159OSM    H7G17861   4.016   4.473   4.281  0.4771  1.8458  0.8384
  159OSM    C8F17862   4.213   4.434   4.327  0.5269  0.7658  0.1887
  159OSM    H8F17863   4.258   4.535   4.334  0.6699  0.7153  0.0060
  159OSM    H8G17864   4.292   4.371   4.283 -1.1053 -0.4162 -1.1831
  159OSM    C9F17865   4.198   4.372   4.461  0.4632  0.1752  0.2828
  159OSM    H9F17866   4.156   4.271   4.453 -0.6428  0.6700 -0.3185
  159OSM   C10F17867   4.224   4.420   4.581 -0.1665  0.6208  0.1671
  159OSM   H10F17868   4.217   4.352   4.667 -0.4253  0.2416 -0.1553
  159OSM   C11F17869   4.274   4.554   4.612 -0.0410  0.2216 -0.0121
  159OSM   H11F17870   4.289   4.610   4.517  0.3647 -0.5070 -0.3846
  159OSM   H11G17871   4.378   4.546   4.650  0.4762  2.0466 -0.9167
  159OSM   C12F17872   4.197   4.634   4.720 -0.3158  0.5481 -0.4816
  159OSM   H12F17873   4.093   4.642   4.683 -0.8717 -0.7286  0.7131
  159OSM   H12G17874   4.236   4.738   4.722 -0.4744  0.5985  0.1935
  159OSM   C13F17875   4.187   4.579   4.865 -0.3453 -0.6847  0.5258
  159OSM   H13F17876   4.295   4.561   4.889  0.1030 -0.3150 -1.1093
  159OSM   H13G17877   4.134   4.481   4.866 -1.6446  0.0021 -0.0705
  159OSM   C14F17878   4.128   4.678   4.956  0.1931  0.0970  0.0064
  159OSM   H14F17879   4.039   4.724   4.907 -0.4660 -1.0125  0.1272
  159OSM   H14G17880   4.203   4.753   4.988  2.5780 -1.9497 -0.4673
  159OSM   C15F17881   4.076   4.623   5.096 -0.4437 -0.4425 -0.6304
  159OSM   H15F17882   4.009   4.538   5.071  1.4292 -1.9365 -0.8443
  159OSM   H15G17883   4.020   4.699   5.153  1.8660 -0.1683  1.4618
  159OSM   C16F17884   4.186   4.581   5.195  0.5393 -0.3752 -0.1387
  159OSM   H16F17885   4.238   4.671   5.234  0.7362 -0.5908  0.1030
  159OSM   H16G17886   4.260   4.518   5.141 -1.0713 -0.6062 -2.2288
  159OSM   C17F17887   4.126   4.499   5.305 -0.4385 -0.2234 -0.2808
  159OSM   H17F17888   4.064   4.413   5.271 -1.4863 -0.6457  2.4469
  159OSM   H17G17889   4.057   4.565   5.361  1.0513  0.0074  1.3774
  159OSM   C18F17890   4.228   4.442   5.407  0.1324  0.2316 -0.3765
  159OSM   H18F17891   4.166   4.411   5.494 -3.1253  0.5276 -2.4160
  159OSM   H18G17892   4.301   4.515   5.447 -0.3067 -0.1470  1.1814
  159OSM   H18H17893   4.281   4.350   5.374  0.9411  0.2361  0.8517
  160OSM      N17894   0.424   4.935   2.621 -0.7828 -0.4606 -0.8005
  160OSM    C1517895   0.489   5.068   2.641  0.3697 -0.5457  0.3063
  160OSM   H15A17896   0.597   5.060   2.637  0.3641 -0.1883 -1.8681
  160OSM   H15B17897   0.465   5.097   2.742  0.9716 -0.4136  0.4148
  160OSM   H15C17898   0.457   5.150   2.579  2.0190  0.6012  0.9094
  160OSM    C1417899   0.273   4.933   2.645 -0.2675 -0.3159  0.5567
  160OSM   H14A17900   0.239   4.909   2.745  0.3390  1.2636  1.1654
  160OSM   H14B17901   0.224   4.851   2.593 -1.4718  0.0553  1.0617
  160OSM   H14C17902   0.246   5.026   2.598 -1.9780 -0.7084  0.7003
  160OSM    C1317903   0.449   4.878   2.489  0.4599 -0.2272  0.7433
  160OSM   H13A17904   0.402   4.782   2.475  2.5130 -1.0039 -1.4456
  160OSM   H13B17905   0.552   4.853   2.469  0.1777  0.2518 -1.5242
  160OSM   H13C17906   0.409   4.949   2.418 -3.5086 -2.7774  0.1577
  160OSM    C1217907   0.494   4.849   2.728 -0.0712  0.2311 -0.0861
  160OSM   H12A17908   0.597   4.841   2.697  0.7344  2.9826  1.5400
  160OSM   H12B17909   0.459   4.747   2.727  0.8649 -0.1436  1.5977
  160OSM    C1117910   0.488   4.891   2.879  0.2252 -0.1327  0.3216
  160OSM   H11A17911   0.502   4.802   2.944 -0.3601 -0.0092  0.6252
  160OSM   H11B17912   0.388   4.935   2.896  0.3260 -0.3756  1.6845
  160OSM      P17913   0.737   4.959   2.875  0.3497  0.0350  0.3813
  160OSM    O1317914   0.761   4.832   2.806 -0.3191  0.9624 -0.1527
  160OSM    O1417915   0.783   5.074   2.794 -0.1040  0.1150  0.3795
  160OSM    O1117916   0.799   4.951   3.020  0.0941 -0.0936  0.2975
  160OSM    O1217917   0.585   4.991   2.903  0.0883 -0.5351  0.4809
  160OSM    C1S17918   0.760   5.043   3.119  0.3796 -0.2333 -0.1667
  160OSM    H1S17919   0.655   5.015   3.140  0.4286 -1.1662 -1.1188
  160OSM    H1T17920   0.747   5.147   3.081 -1.4259 -0.9024 -1.5330
  160OSM     NF17921   0.781   5.119   3.346 -0.0992  0.3896 -0.4165
  160OSM    HNF17922   0.837   5.184   3.397  0.0528  0.5826 -0.8211
  160OSM    C2S17923   0.838   5.036   3.248  0.1828  0.3187 -0.9700
  160OSM    H2S17924   0.827   4.932   3.284 -1.9928  0.3180 -1.5355
  160OSM    C3S17925   0.997   5.047   3.225 -0.7059 -0.3284  0.0340
  160OSM    H3S17926   1.016   5.151   3.192  1.9871 -0.9853 -0.6842
  160OSM     O317927   1.046   4.964   3.119  0.4978  0.4621  0.0144
  160OSM    HO317928   0.970   4.935   3.067 -0.2092  0.0265  1.2535
  160OSM    C4S17929   1.076   5.013   3.352 -0.0336 -0.3521 -0.0380
  160OSM    H4S17930   1.120   5.106   3.390 -1.6689  0.8978 -1.0775
  160OSM    C5S17931   1.128   4.904   3.397  0.0526  0.4356 -0.7911
  160OSM    H5S17932   1.117   4.817   3.331  0.6896  0.1024 -0.4621
  160OSM    C6S17933   1.226   4.887   3.508 -0.3781  0.3393  0.2611
  160OSM    H6S17934   1.293   4.975   3.523  1.0543 -0.8960  1.4322
  160OSM    H6T17935   1.295   4.804   3.481 -1.6438 -0.4807 -0.5583
  160OSM    C7S17936   1.160   4.856   3.641  0.4890 -0.7450 -0.0446
  160OSM    H7S17937   1.105   4.762   3.617 -2.1983  0.8990 -0.8747
  160OSM    H7T17938   1.089   4.937   3.668  0.2175 -0.6148 -1.0695
  160OSM    C8S17939   1.257   4.811   3.750 -0.4416  0.7835 -1.0739
  160OSM    H8S17940   1.318   4.900   3.780  0.7533  0.2054 -1.7044
  160OSM    H8T17941   1.320   4.729   3.709 -1.3027  0.1928 -1.2208
  160OSM    C9S17942   1.182   4.756   3.877  0.2243 -0.0912 -0.5323
  160OSM    H9S17943   1.262   4.709   3.937  0.5628  2.0075  0.7404
  160OSM    H9T17944   1.106   4.678   3.854 -0.4026 -1.3445  4.5351
  160OSM   C10S17945   1.106   4.850   3.974 -0.3402 -0.3005  0.4649
  160OSM   H10S17946   1.028   4.907   3.919  1.0413  0.9892 -0.2486
  160OSM   H10T17947   1.179   4.918   4.023 -1.1168 -0.5235  1.9767
  160OSM   C11S17948   1.025   4.767   4.084  0.3011 -0.3821  0.2097
  160OSM   H11S17949   0.999   4.671   4.034 -1.1561  1.2048 -2.2705
  160OSM   H11T17950   0.933   4.823   4.111  0.0556 -0.4558 -0.4640
  160OSM   C12S17951   1.105   4.747   4.213 -0.5408 -0.7672  0.6724
  160OSM   H12S17952   1.165   4.838   4.231 -0.7523 -0.5447  0.2540
  160OSM   H12T17953   1.174   4.661   4.197 -0.6650 -0.2292 -4.7092
  160OSM   C13S17954   1.015   4.719   4.330 -0.9744 -0.0972 -0.1143
  160OSM   H13S17955   0.950   4.632   4.308 -1.2859  0.4724 -1.5759
  160OSM   H13T17956   0.941   4.801   4.342  0.7265  1.1673  2.6542
  160OSM   C14S17957   1.091   4.701   4.459 -0.2177  0.3772  0.1675
  160OSM   H14S17958   1.113   4.593   4.471 -2.3943  0.0273  1.6542
  160OSM   H14T17959   1.000   4.706   4.523 -0.6535 -2.7587 -0.0514
  160OSM   C15S17960   1.192   4.815   4.491 -0.5576  0.5286 -1.3043
  160OSM   H15S17961   1.149   4.917   4.481  0.2592  1.0305  0.0947
  160OSM   H15T17962   1.279   4.804   4.422  1.5027  0.2302  1.1860
  160OSM   C16S17963   1.258   4.815   4.632  0.2564  0.5168  0.0008
  160OSM   H16S17964   1.293   4.916   4.661 -1.5220  1.0751  0.3229
  160OSM   H16T17965   1.328   4.729   4.619  1.3501  1.7003 -2.6453
  160OSM   C17S17966   1.160   4.757   4.741  0.1565  0.7114 -0.0499
  160OSM   H17S17967   1.123   4.659   4.705 -2.6073  0.9560  1.7897
  160OSM   H17T17968   1.069   4.819   4.726  0.8615  1.2566 -2.5066
  160OSM   C18S17969   1.211   4.744   4.890  0.5244 -0.0021  0.1134
  160OSM   H18S17970   1.207   4.839   4.947 -0.8704 -0.0857  0.2011
  160OSM   H18T17971   1.320   4.727   4.881  0.2001 -1.3085 -2.1945
  160OSM   H18U17972   1.166   4.661   4.948 -2.1901  2.1399  1.2917
  160OSM    C1F17973   0.654   5.106   3.386  0.3218  0.1445 -0.2565
  160OSM     OF17974   0.589   5.001   3.362 -0.3458  0.1156  0.5941
  160OSM    C2F17975   0.593   5.217   3.463 -0.0833 -0.4446 -0.1246
  160OSM    H2F17976   0.660   5.305   3.463 -0.3704 -0.1536  2.4548
  160OSM    H2G17977   0.577   5.178   3.566  0.1219 -3.5329 -1.1483
  160OSM    C3F17978   0.453   5.262   3.411 -0.0562 -0.1088  0.4945
  160OSM    H3F17979   0.395   5.167   3.416 -0.1593  0.0183  2.7314
  160OSM    H3G17980   0.473   5.279   3.303  3.0348 -0.4083  0.9411
  160OSM    C4F17981   0.370   5.380   3.477  0.1859  0.1405  0.9143
  160OSM    H4F17982   0.273   5.395   3.425  0.2899  0.8687  0.9082
  160OSM    H4G17983   0.438   5.468   3.465 -0.0286  0.0384 -1.6068
  160OSM    C5F17984   0.344   5.359   3.623  0.4629  0.3454 -0.2538
  160OSM    H5F17985   0.432   5.329   3.685 -1.1207 -2.5359  0.7689
  160OSM    H5G17986   0.272   5.275   3.628  2.1305 -1.2032 -1.1685
  160OSM    C6F17987   0.284   5.488   3.697  0.5127  0.1431 -0.1574
  160OSM    H6F17988   0.176   5.499   3.670  0.1869  0.5881  1.2312
  160OSM    H6G17989   0.344   5.576   3.665  0.6144  0.1076 -0.0607
  160OSM    C7F17990   0.287   5.460   3.850  0.8740  0.4505  0.4829
  160OSM    H7F17991   0.390   5.456   3.891  0.1901  1.2281  2.4024
  160OSM    H7G17992   0.231   5.366   3.868  0.3519  0.8718  1.1031
  160OSM    C8F17993   0.217   5.580   3.910  0.1309  0.4715 -1.0714
  160OSM    H8F17994   0.182   5.544   4.009  0.1719 -2.3900 -1.9850
  160OSM    H8G17995   0.129   5.605   3.847  1.6956  0.2615 -3.5170
  160OSM    C9F17996   0.303   5.705   3.920  0.3618  0.0564 -0.7776
  160OSM    H9F17997   0.278   5.782   3.845 -1.6278  1.7493  1.4662
  160OSM   C10F17998   0.404   5.727   4.004 -0.2732  0.4159  0.2961
  160OSM   H10F17999   0.469   5.816   3.999  0.3403  0.4536  4.7411
  160OSM   C11F18000   0.428   5.637   4.123 -0.1329  0.1270 -0.2228
  160OSM   H11F18001   0.529   5.594   4.140 -1.0159 -2.0697 -0.2640
  160OSM   H11G18002   0.363   5.547   4.112 -2.0804  1.3907  0.3538
  160OSM   C12F18003   0.365   5.697   4.250  0.2855  0.2747  0.0023
  160OSM   H12F18004   0.336   5.614   4.317  0.3306  0.9479  0.8704
  160OSM   H12G18005   0.279   5.764   4.231  0.8767  0.9474 -0.3634
  160OSM   C13F18006   0.456   5.787   4.345  0.3110  0.1488  0.1096
  160OSM   H13F18007   0.387   5.820   4.426  0.6533  2.2006 -0.3760
  160OSM   H13G18008   0.483   5.883   4.297 -2.6473  1.0434  0.0152
  160OSM   C14F18009   0.564   5.711   4.418  0.6330 -0.0306 -0.1156
  160OSM   H14F18010   0.664   5.721   4.371  1.0742  0.3858  0.8695
  160OSM   H14G18011   0.543   5.602   4.424  2.4923 -0.3537  3.4545
  160OSM   C15F18012   0.586   5.751   4.567 -0.2245 -0.3786 -0.0417
  160OSM   H15F18013   0.485   5.741   4.612 -0.1650 -0.9821 -0.0295
  160OSM   H15G18014   0.619   5.856   4.577 -1.6860  0.5715 -3.7030
  160OSM   C16F18015   0.677   5.648   4.638 -0.3203 -1.0308 -1.1399
  160OSM   H16F18016   0.778   5.692   4.631 -0.2534 -1.0618 -0.4576
  160OSM   H16G18017   0.678   5.551   4.585  0.4403 -1.7732  0.1914
  160OSM   C17F18018   0.647   5.627   4.787 -1.4014  0.4129  0.1062
  160OSM   H17F18019   0.560   5.558   4.790  0.5369 -2.2578 -1.2126
  160OSM   H17G18020   0.634   5.727   4.835 -1.3115  1.0791 -1.2108
  160OSM   C18F18021   0.763   5.545   4.857  0.0001 -0.1879  0.5704
  160OSM   H18F18022   0.783   5.450   4.802 -0.8644 -0.1740  0.2226
  160OSM   H18G18023   0.735   5.510   4.958 -1.6591 -1.9022 -0.4209
  160OSM   H18H18024   0.859   5.601   4.855  1.5729 -2.7061 -2.2555
  161OSM      N18025   4.856   3.208   3.055 -0.2520 -0.2310  0.1053
  161OSM    C1518026   4.743   3.228   2.961  0.3855  0.3110 -0.6356
  161OSM   H15A18027   4.782   3.246   2.862 -0.0941 -1.4633 -1.1909
  161OSM   H15B18028   4.684   3.316   2.981  0.3300 -0.1961  1.7511
  161OSM   H15C18029   4.680   3.141   2.950 -0.3053  0.3493  2.2778
  161OSM    C1418030   4.916   3.071   3.022  0.0544  0.2136 -0.2249
  161OSM   H14A18031   4.844   2.994   3.045  0.3693  0.2057  0.7862
  161OSM   H14B18032   5.001   3.042   3.082  0.5077  0.2058 -0.8596
  161OSM   H14C18033   4.944   3.078   2.918 -2.7452 -0.7806 -1.1393
  161OSM    C1318034   4.956   3.315   3.038  0.2682 -0.5579  0.2246
  161OSM   H13A18035   5.024   3.310   3.121 -0.8617  0.6697  1.2782
  161OSM   H13B18036   4.897   3.406   3.038  2.0650  0.6654 -0.6512
  161OSM   H13C18037   5.008   3.310   2.944 -0.6592  1.2648 -0.4356
  161OSM    C1218038   4.810   3.214   3.206  0.0745 -0.3524  0.5103
  161OSM   H12A18039   4.726   3.146   3.216 -0.0730 -0.4190 -0.8689
  161OSM   H12B18040   4.771   3.314   3.218  0.5838  0.3453 -2.6843
  161OSM    C1118041   4.911   3.184   3.313  0.6858  0.9077  0.1904
  161OSM   H11A18042   4.958   3.084   3.303 -0.1817  0.4180  0.8683
  161OSM   H11B18043   4.852   3.176   3.406 -0.9834 -1.7090 -0.9752
  161OSM      P18044   4.996   3.411   3.413  0.3722  0.1220 -0.0375
  161OSM    O1318045   5.131   3.471   3.412 -0.0387  0.3176 -0.0287
  161OSM    O1418046   4.887   3.502   3.375 -0.1795 -0.3277 -0.1090
  161OSM    O1118047   4.965   3.354   3.552  0.5087 -0.1294 -0.3314
  161OSM    O1218048   5.011   3.281   3.315  0.3817  0.4451  0.7026
  161OSM    C1S18049   5.060   3.268   3.621  0.5062  0.4588  0.1209
  161OSM    H1S18050   5.162   3.286   3.583  0.9302 -2.8712 -0.6152
  161OSM    H1T18051   5.037   3.162   3.596 -0.5576  0.4006  1.2183
  161OSM     NF18052   5.163   3.210   3.825  0.0825  0.3038  0.1940
  161OSM    HNF18053   5.146   3.124   3.871  0.9967 -1.3564 -2.3348
  161OSM    C2S18054   5.048   3.284   3.776  0.0573 -0.4228  0.1249
  161OSM    H2S18055   5.069   3.392   3.787 -0.7837  0.3427 -3.9724
  161OSM    C3S18056   4.903   3.248   3.821  0.0342  0.1168 -0.4562
  161OSM    H3S18057   4.866   3.152   3.778  0.7535  0.6855 -2.4574
  161OSM     O318058   4.805   3.343   3.786 -0.0417  0.2759  0.8743
  161OSM    HO318059   4.861   3.406   3.740  0.4810 -0.1496  0.9093
  161OSM    C4S18060   4.897   3.232   3.971  0.0302  1.1341  0.1403
  161OSM    H4S18061   4.874   3.329   4.015 -0.4689  2.6627 -3.1461
  161OSM    C5S18062   4.901   3.121   4.045 -0.7076  0.4241  0.9280
  161OSM    H5S18063   4.892   3.022   3.996  1.1535  1.2266 -1.2348
  161OSM    C6S18064   4.903   3.106   4.192 -0.8120 -0.2148  0.2774
  161OSM    H6S18065   4.978   3.026   4.212 -0.2124 -0.4341 -2.5373
  161OSM    H6T18066   4.809   3.073   4.241 -0.0421 -0.9261  1.3439
  161OSM    C7S18067   4.953   3.238   4.260 -0.2364  0.2948  0.3565
  161OSM    H7S18068   4.872   3.313   4.247 -0.8446 -0.5465 -0.8136
  161OSM    H7T18069   5.051   3.263   4.214  0.5624  0.4555  2.0606
  161OSM    C8S18070   4.974   3.229   4.408 -0.0391  1.2114  0.1243
  161OSM    H8S18071   5.039   3.142   4.431 -2.4379 -0.7002  0.1040
  161OSM    H8T18072   4.883   3.193   4.461  0.6145  0.9935  1.1276
  161OSM    C9S18073   5.019   3.363   4.479 -0.3940  0.3584  0.3469
  161OSM    H9S18074   4.939   3.438   4.463  0.5292  0.8282 -2.8964
  161OSM    H9T18075   5.107   3.410   4.428 -0.4756 -0.8336 -0.9431
  161OSM   C10S18076   5.055   3.350   4.625 -0.1246 -0.1092  0.3913
  161OSM   H10S18077   5.137   3.279   4.649 -0.4987 -0.0625  1.8867
  161OSM   H10T18078   4.969   3.297   4.671 -1.6741 -0.2516 -2.3964
  161OSM   C11S18079   5.087   3.484   4.681  0.4999 -0.2294 -0.0433
  161OSM   H11S18080   5.000   3.551   4.668  1.0439  0.4635 -0.2098
  161OSM   H11T18081   5.184   3.519   4.639  0.3568 -1.6349 -1.6784
  161OSM   C12S18082   5.107   3.470   4.831 -0.3075  0.1278  0.9029
  161OSM   H12S18083   5.215   3.450   4.851  0.6587 -0.6269 -3.7876
  161OSM   H12T18084   5.053   3.379   4.865  1.3432 -2.0898 -1.8702
  161OSM   C13S18085   5.077   3.600   4.909 -0.0391 -0.0461 -0.7004
  161OSM   H13S18086   4.972   3.614   4.875 -0.5569  1.1613  1.2836
  161OSM   H13T18087   5.155   3.675   4.886  0.4458  0.6964  2.8496
  161OSM   C14S18088   5.089   3.578   5.061 -0.6688 -0.3748  0.1645
  161OSM   H14S18089   5.195   3.560   5.086  0.0762 -3.4205 -4.0839
  161OSM   H14T18090   5.019   3.499   5.097 -0.1379 -0.1220  1.8332
  161OSM   C15S18091   5.033   3.704   5.127  0.1325  0.5697  0.3478
  161OSM   H15S18092   4.937   3.726   5.077 -0.0946  2.0387  1.3717
  161OSM   H15T18093   5.098   3.793   5.119 -0.0205  0.6185 -0.4327
  161OSM   C16S18094   4.998   3.675   5.273  0.1909  0.7486 -0.3925
  161OSM   H16S18095   5.094   3.673   5.329 -0.1623  0.1670  0.2058
  161OSM   H16T18096   4.931   3.590   5.298 -0.1383  0.6105 -1.6818
  161OSM   C17S18097   4.919   3.794   5.332 -0.4146  0.2711 -0.0760
  161OSM   H17S18098   4.900   3.765   5.438  2.0310  1.0848  0.6657
  161OSM   H17T18099   4.826   3.814   5.276 -1.0024 -1.3666  0.2707
  161OSM   C18S18100   5.016   3.921   5.357  0.2129  0.0481  0.3236
  161OSM   H18S18101   4.970   4.010   5.406 -0.7540 -0.9010  1.1877
  161OSM   H18T18102   5.050   3.950   5.255 -1.4632 -3.4613 -1.4233
  161OSM   H18U18103   5.103   3.895   5.420 -1.5216 -1.4787  2.2109
  161OSM    C1F18104   5.292   3.256   3.815  1.2112 -0.8813  0.4791
  161OSM     OF18105   5.320   3.364   3.767  0.0712 -0.8870 -0.4423
  161OSM    C2F18106   5.398   3.170   3.871 -0.4408  0.6297 -0.2218
  161OSM    H2F18107   5.456   3.128   3.786  2.0847  1.0683  1.2155
  161OSM    H2G18108   5.359   3.092   3.941 -1.1196  2.3178  1.3584
  161OSM    C3F18109   5.505   3.235   3.949 -0.5929  0.0632 -0.5316
  161OSM    H3F18110   5.558   3.313   3.889  0.9010 -2.0450 -2.1319
  161OSM    H3G18111   5.579   3.158   3.977  0.7751  1.9336  1.2746
  161OSM    C4F18112   5.459   3.297   4.078  0.3649 -0.0824  0.0030
  161OSM    H4F18113   5.380   3.373   4.062 -0.3371 -0.3763  1.8106
  161OSM    H4G18114   5.547   3.343   4.129  1.3505 -2.5214  0.6536
  161OSM    C5F18115   5.395   3.194   4.171  0.0005 -0.7200 -0.3360
  161OSM    H5F18116   5.470   3.114   4.190  2.7762  1.7222 -0.3692
  161OSM    H5G18117   5.309   3.144   4.122 -2.3665  0.0687  2.7118
  161OSM    C6F18118   5.356   3.251   4.307 -0.0292 -0.4379 -0.4453
  161OSM    H6F18119   5.286   3.181   4.357  0.4169  0.5954  1.7623
  161OSM    H6G18120   5.294   3.339   4.281  0.4222  0.0595  0.1236
  161OSM    C7F18121   5.481   3.306   4.387  0.2417 -0.3396 -0.0180
  161OSM    H7F18122   5.458   3.406   4.431 -1.0324 -0.1589 -1.0283
  161OSM    H7G18123   5.577   3.306   4.331  0.8323  2.5513  0.8177
  161OSM    C8F18124   5.525   3.213   4.506 -0.1035 -0.5678  0.5034
  161OSM    H8F18125   5.623   3.251   4.544  0.5079 -0.3488 -1.2262
  161OSM    H8G18126   5.559   3.119   4.458 -1.1930 -0.3524 -0.7482
  161OSM    C9F18127   5.422   3.195   4.616 -0.3168  0.6629  0.5135
  161OSM    H9F18128   5.326   3.146   4.594  0.1399  0.2957 -0.7414
  161OSM   C10F18129   5.436   3.246   4.741  0.4123  0.1614 -0.6756
  161OSM   H10F18130   5.356   3.220   4.811  2.7514 -0.7486  1.8596
  161OSM   C11F18131   5.544   3.325   4.810 -0.5563  0.5643 -0.1568
  161OSM   H11F18132   5.513   3.431   4.821 -0.8601  0.4922 -0.3147
  161OSM   H11G18133   5.634   3.319   4.745 -1.0078  0.9198 -0.8297
  161OSM   C12F18134   5.567   3.269   4.950 -0.3246 -0.4588  0.2338
  161OSM   H12F18135   5.662   3.310   4.991 -0.2260 -0.9352  0.4984
  161OSM   H12G18136   5.589   3.160   4.940 -0.6901 -0.4339 -0.9936
  161OSM   C13F18137   5.452   3.312   5.050  0.6529 -1.0104  0.2895
  161OSM   H13F18138   5.350   3.285   5.015 -0.2527  1.2510  0.9836
  161OSM   H13G18139   5.448   3.423   5.039  0.7629 -1.1623 -1.6738
  161OSM   C14F18140   5.485   3.282   5.197  0.1871  0.2213  0.4682
  161OSM   H14F18141   5.595   3.298   5.201  0.1440  1.3948 -1.4673
  161OSM   H14G18142   5.473   3.174   5.219 -3.9630  0.8829  2.5065
  161OSM   C15F18143   5.407   3.374   5.291 -0.5107  0.1176  0.1067
  161OSM   H15F18144   5.298   3.355   5.285 -0.2346 -1.3313 -0.8934
  161OSM   H15G18145   5.421   3.482   5.271 -0.9873  0.0942 -0.3522
  161OSM   C16F18146   5.431   3.347   5.442  0.2505  0.1399  0.5467
  161OSM   H16F18147   5.425   3.238   5.464  0.0745  0.0487  0.0574
  161OSM   H16G18148   5.354   3.398   5.504 -1.3901  0.5991 -1.7284
  161OSM   C17F18149   5.576   3.390   5.475  0.2857 -0.0595 -0.2802
  161OSM   H17F18150   5.592   3.497   5.449  0.0654  0.5138  1.8321
  161OSM   H17G18151   5.649   3.330   5.415  2.2925  1.2345  0.7624
  161OSM   C18F18152   5.598   3.369   5.628  0.2669  0.6859 -0.1732
  161OSM   H18F18153   5.705   3.381   5.652  1.2510 -0.9911 -3.1331
  161OSM   H18G18154   5.573   3.264   5.656 -1.6880  1.5015  1.3725
  161OSM   H18H18155   5.524   3.433   5.681 -0.1912  0.3077 -0.3419
  162OSM      N18156   6.047   3.190   3.322 -0.7399  0.4313 -0.0547
  162OSM    C1518157   5.981   3.106   3.214  0.5460 -0.0246 -0.7034
  162OSM   H15A18158   6.027   3.111   3.117 -1.0871 -2.0844 -1.6834
  162OSM   H15B18159   5.876   3.130   3.222  0.9667  1.3981  1.2607
  162OSM   H15C18160   5.981   3.003   3.247  0.2963  0.1050 -0.2887
  162OSM    C1418161   6.036   3.339   3.279 -0.0213 -0.2806 -0.0106
  162OSM   H14A18162   5.938   3.366   3.243  0.9199  0.2254 -2.4054
  162OSM   H14B18163   6.101   3.370   3.198 -0.0991 -0.3586 -0.1037
  162OSM   H14C18164   6.060   3.402   3.363  0.5157 -0.9996  0.3871
  162OSM    C1318165   5.988   3.171   3.456 -0.0495  0.3399 -0.2903
  162OSM   H13A18166   6.020   3.247   3.525 -0.3945  1.0290 -0.8618
  162OSM   H13B18167   6.012   3.074   3.494 -3.1077  0.5376  2.5489
  162OSM   H13C18168   5.880   3.170   3.456 -0.1120 -0.8073 -2.6488
  162OSM    C1218169   6.193   3.149   3.329 -0.5115 -0.1719 -0.5042
  162OSM   H12A18170   6.233   3.153   3.228  0.2614  0.6450 -0.1791
  162OSM   H12B18171   6.204   3.046   3.357  0.6407 -0.2374 -1.1257
  162OSM    C1118172   6.291   3.233   3.415 -0.2221 -0.0546  0.4433
  162OSM   H11A18173   6.395   3.194   3.402 -0.9624 -1.7598 -0.7696
  162OSM   H11B18174   6.286   3.224   3.526  0.6698  2.0994  0.7032
  162OSM      P18175   6.381   3.422   3.261 -0.1962  0.0215 -0.3193
  162OSM    O1318176   6.377   3.316   3.163  0.0250 -0.5054  0.5785
  162OSM    O1418177   6.341   3.556   3.223  0.1391 -0.4321  0.7255
  162OSM    O1118178   6.520   3.430   3.329 -0.0075  0.2485  0.1568
  162OSM    O1218179   6.289   3.373   3.384 -0.4871 -0.0854 -0.0692
  162OSM    C1S18180   6.543   3.500   3.451 -0.2180 -0.0480  0.1317
  162OSM    H1S18181   6.453   3.555   3.484  0.1804  1.4498 -1.1195
  162OSM    H1T18182   6.618   3.578   3.424  1.2186 -2.3224 -3.1715
  162OSM     NF18183   6.584   3.473   3.692  0.0358  0.1800  0.2356
  162OSM    HNF18184   6.665   3.486   3.750 -1.1499  1.2693  1.7374
  162OSM    C2S18185   6.599   3.402   3.565 -0.4146  0.1607  0.3849
  162OSM    H2S18186   6.539   3.308   3.571  0.1817 -0.2530  0.0201
  162OSM    C3S18187   6.743   3.361   3.530 -0.3186  0.3381  0.7844
  162OSM    H3S18188   6.806   3.451   3.545  1.6192 -0.6315 -0.9968
  162OSM     O318189   6.753   3.320   3.391  0.0360  0.6368  0.1152
  162OSM    HO318190   6.670   3.343   3.349 -0.1628  0.0790  0.1859
  162OSM    C4S18191   6.804   3.247   3.607 -0.5028  0.7038 -0.3950
  162OSM    H4S18192   6.757   3.148   3.591  0.8742 -0.0227 -0.0464
  162OSM    C5S18193   6.908   3.256   3.689  0.2201  0.3700  0.7860
  162OSM    H5S18194   6.948   3.358   3.695  0.4644  0.3699 -0.5473
  162OSM    C6S18195   6.998   3.149   3.760 -0.3194  0.2258 -0.1458
  162OSM    H6S18196   7.024   3.184   3.863  0.8094 -1.0194  0.0256
  162OSM    H6T18197   7.098   3.156   3.711  0.4210  0.8798  1.3628
  162OSM    C7S18198   6.950   3.005   3.761  0.0020  0.4307  0.1079
  162OSM    H7S18199   6.921   2.981   3.657  0.2913  2.0019 -0.3514
  162OSM    H7T18200   6.849   3.006   3.808 -0.0987 -1.1320  0.0020
  162OSM    C8S18201   7.037   2.888   3.815 -0.0062  0.5384  0.6846
  162OSM    H8S18202   7.147   2.890   3.798  0.1684  0.8247  1.7949
  162OSM    H8T18203   6.992   2.790   3.789 -1.4769  1.1393  0.8259
  162OSM    C9S18204   7.031   2.887   3.971  0.5734  0.0715 -0.5341
  162OSM    H9S18205   6.927   2.863   4.002  0.1532 -0.2820 -2.1416
  162OSM    H9T18206   7.071   2.984   4.008 -1.8160  0.7658  0.4074
  162OSM   C10S18207   7.113   2.778   4.040  0.4505  0.1595 -0.3018
  162OSM   H10S18208   7.211   2.793   3.992  0.4842 -1.5766 -0.8269
  162OSM   H10T18209   7.091   2.673   4.013 -0.9023  0.0073  1.1710
  162OSM   C11S18210   7.099   2.773   4.193  0.0180 -0.1112  0.0071
  162OSM   H11S18211   7.135   2.674   4.230 -1.0760 -0.8747 -0.8920
  162OSM   H11T18212   6.993   2.786   4.225  0.8953  0.0841  3.2299
  162OSM   C12S18213   7.187   2.885   4.254  0.0923  0.2046  0.7095
  162OSM   H12S18214   7.142   2.975   4.208  0.9293  1.0307  1.4520
  162OSM   H12T18215   7.291   2.855   4.228 -0.8836 -1.6877 -1.2162
  162OSM   C13S18216   7.149   2.878   4.410 -0.2036  0.3647 -0.3905
  162OSM   H13S18217   7.171   2.777   4.449 -1.6842  0.4916  0.8525
  162OSM   H13T18218   7.040   2.896   4.423 -0.2186 -0.1685  0.2362
  162OSM   C14S18219   7.231   2.977   4.492  0.5281 -0.5640 -0.1906
  162OSM   H14S18220   7.229   3.083   4.459  2.6316 -0.4173 -0.0270
  162OSM   H14T18221   7.337   2.944   4.488  0.1798 -1.6108 -1.6177
  162OSM   C15S18222   7.183   3.005   4.646 -0.1059  0.4826  0.3735
  162OSM   H15S18223   7.072   3.014   4.652 -0.1213 -0.4153  2.4684
  162OSM   H15T18224   7.235   3.095   4.684  0.1317  0.0267  1.1623
  162OSM   C16S18225   7.234   2.892   4.732  0.3699 -0.0510  0.7136
  162OSM   H16S18226   7.343   2.874   4.714 -0.2467 -0.3836 -3.8787
  162OSM   H16T18227   7.190   2.803   4.683 -0.0906  0.3054  0.4802
  162OSM   C17S18228   7.193   2.901   4.880 -0.7001  0.4097  0.4427
  162OSM   H17S18229   7.082   2.908   4.879 -0.7387 -0.1744  0.3855
  162OSM   H17T18230   7.240   2.994   4.919 -0.2138  0.4222 -0.1450
  162OSM   C18S18231   7.237   2.779   4.967 -0.7419  0.7648 -0.1608
  162OSM   H18S18232   7.215   2.804   5.073  2.5427  0.7600  0.6342
  162OSM   H18T18233   7.348   2.778   4.954 -0.5568 -0.8077  1.2110
  162OSM   H18U18234   7.199   2.680   4.936 -1.4890  0.6363  1.0820
  162OSM    C1F18235   6.467   3.511   3.745 -0.4851  0.0803 -0.9571
  162OSM     OF18236   6.363   3.477   3.698  0.4455 -0.3552 -0.0547
  162OSM    C2F18237   6.477   3.604   3.862  0.5626  0.2063  0.0754
  162OSM    H2F18238   6.467   3.711   3.834 -1.5978  0.2257  0.7649
  162OSM    H2G18239   6.570   3.573   3.914  0.1421 -0.8095  0.2386
  162OSM    C3F18240   6.359   3.584   3.960 -0.3530 -0.3087  0.2784
  162OSM    H3F18241   6.361   3.481   4.002 -0.2130 -0.0110  1.0203
  162OSM    H3G18242   6.265   3.605   3.904 -0.3548 -0.3087  0.2817
  162OSM    C4F18243   6.372   3.682   4.081 -0.9013  0.2523  0.7778
  162OSM    H4F18244   6.275   3.694   4.134 -1.3766  2.5736 -0.4680
  162OSM    H4G18245   6.415   3.776   4.040  1.8874 -0.1652  2.5082
  162OSM    C5F18246   6.474   3.658   4.192  0.3581 -0.0518 -0.3830
  162OSM    H5F18247   6.579   3.667   4.155  0.3929 -1.4633 -0.6784
  162OSM    H5G18248   6.453   3.553   4.223  1.9245  0.2189  1.8514
  162OSM    C6F18249   6.459   3.757   4.306  0.1204 -0.1481 -1.2641
  162OSM    H6F18250   6.355   3.791   4.327  1.1938  1.6628  1.8137
  162OSM    H6G18251   6.514   3.851   4.285 -1.2888  0.6899 -1.3828
  162OSM    C7F18252   6.530   3.704   4.438  0.1172 -0.8385  0.7081
  162OSM    H7F18253   6.515   3.788   4.509  0.3001  0.8726 -1.1656
  162OSM    H7G18254   6.638   3.702   4.414  0.1198 -0.9718  0.7345
  162OSM    C8F18255   6.473   3.581   4.501 -0.4740  0.0975 -0.6159
  162OSM    H8F18256   6.464   3.492   4.435  2.0854 -0.8535  0.2039
  162OSM    H8G18257   6.367   3.596   4.530 -0.6205  0.8259 -1.4745
  162OSM    C9F18258   6.563   3.533   4.612 -0.1860 -0.5366  0.5941
  162OSM    H9F18259   6.647   3.474   4.572  0.7298  1.4881 -0.5972
  162OSM   C10F18260   6.544   3.554   4.741 -0.2607  0.0970  0.2123
  162OSM   H10F18261   6.623   3.514   4.807  0.8406  1.0573 -0.4743
  162OSM   C11F18262   6.439   3.633   4.806 -0.2849  0.1003  0.5638
  162OSM   H11F18263   6.369   3.552   4.836 -0.2901 -1.8699 -3.9363
  162OSM   H11G18264   6.389   3.700   4.733  2.4708  0.6213 -1.0092
  162OSM   C12F18265   6.489   3.708   4.935  0.0937  0.1356  0.4031
  162OSM   H12F18266   6.549   3.793   4.898 -0.4710 -0.3383 -1.7386
  162OSM   H12G18267   6.535   3.639   5.010 -0.2740  0.6036  1.0680
  162OSM   C13F18268   6.366   3.771   5.008 -0.2875  0.6262  0.0206
  162OSM   H13F18269   6.296   3.690   5.036  2.0086 -0.7091  2.3768
  162OSM   H13G18270   6.306   3.835   4.939 -1.0693  1.7255  1.6559
  162OSM   C14F18271   6.412   3.861   5.118  0.7503  0.2526  0.1328
  162OSM   H14F18272   6.479   3.819   5.197 -0.4846 -3.3179 -0.5305
  162OSM   H14G18273   6.315   3.887   5.165 -1.1851 -0.7598 -3.0169
  162OSM   C15F18274   6.471   3.996   5.079 -0.4725  0.1586 -0.0201
  162OSM   H15F18275   6.399   4.049   5.014  0.3769  0.8294 -0.4441
  162OSM   H15G18276   6.563   3.983   5.019 -0.6217  0.2545 -0.2689
  162OSM   C16F18277   6.522   4.081   5.201  0.0756  0.2002 -0.3465
  162OSM   H16F18278   6.581   4.024   5.275  0.3091  2.7068  1.4975
  162OSM   H16G18279   6.432   4.113   5.258 -0.5302  1.4109 -1.9017
  162OSM   C17F18280   6.604   4.204   5.155  0.4128 -0.2159 -0.2985
  162OSM   H17F18281   6.519   4.277   5.150  0.0955 -0.6171 -0.8870
  162OSM   H17G18282   6.642   4.192   5.051 -0.6853 -2.9938 -0.4475
  162OSM   C18F18283   6.713   4.245   5.259 -0.1516  0.5035  0.3377
  162OSM   H18F18284   6.758   4.149   5.292  2.8467  0.5871 -2.9193
  162OSM   H18G18285   6.669   4.296   5.348 -1.6971 -0.9386  0.4595
  162OSM   H18H18286   6.798   4.301   5.216  1.0928 -0.6212  1.2435
  163OSM      N18287   5.073   3.824   3.320  0.0048  0.2786  0.5056
  163OSM    C1518288   4.975   3.795   3.216  0.0982  0.1314  0.7579
  163OSM   H15A18289   5.019   3.831   3.124 -0.1588  0.4869  0.7733
  163OSM   H15B18290   4.888   3.859   3.225 -1.8884 -2.0659 -1.2666
  163OSM   H15C18291   4.946   3.691   3.214  1.8227 -0.3972  1.6635
  163OSM    C1418292   5.115   3.970   3.316 -0.2517 -1.0852 -0.1097
  163OSM   H14A18293   5.178   3.988   3.230 -0.9933  0.4064 -0.3805
  163OSM   H14B18294   5.168   3.993   3.407  1.7416 -2.0381 -0.9747
  163OSM   H14C18295   5.037   4.044   3.305  2.1052  1.4657 -1.0509
  163OSM    C1318296   5.007   3.798   3.448 -0.1977 -0.1889  0.0387
  163OSM   H13A18297   4.908   3.842   3.446 -1.0365 -1.9172  0.6729
  163OSM   H13B18298   5.058   3.843   3.532  1.2882 -0.1036 -0.8871
  163OSM   H13C18299   4.988   3.693   3.468 -3.7442  0.4268  0.6855
  163OSM    C1218300   5.196   3.735   3.301 -0.3205 -0.6238 -0.6786
  163OSM   H12A18301   5.167   3.632   3.318  1.1295 -0.8968  0.3765
  163OSM   H12B18302   5.267   3.751   3.381 -0.9611 -0.1985 -0.1827
  163OSM    C1118303   5.269   3.737   3.167 -0.2079  0.3599 -0.2202
  163OSM   H11A18304   5.199   3.710   3.086 -1.2250  0.4555  0.5966
  163OSM   H11B18305   5.340   3.653   3.153  0.0051  0.5612 -0.3424
  163OSM      P18306   5.478   3.878   3.202 -0.1995 -0.3414  0.2083
  163OSM    O1318307   5.570   3.784   3.135 -0.1273 -0.3670 -0.0774
  163OSM    O1418308   5.525   4.019   3.204 -0.3574  0.8918  0.0171
  163OSM    O1118309   5.462   3.835   3.352 -0.2901  0.2629  0.1416
  163OSM    O1218310   5.333   3.862   3.140 -0.0733 -0.1695 -0.3912
  163OSM    C1S18311   5.445   3.932   3.457 -0.2485  0.7650  0.1950
  163OSM    H1S18312   5.368   4.006   3.426  1.1871  1.7015 -1.3110
  163OSM    H1T18313   5.536   3.992   3.478 -0.0709  1.0583 -1.2784
  163OSM     NF18314   5.384   3.997   3.676 -0.0400 -0.4531 -0.0639
  163OSM    HNF18315   5.451   4.041   3.735 -1.2048 -1.7935  2.4010
  163OSM    C2S18316   5.409   3.874   3.599  0.4105  0.7347 -0.1491
  163OSM    H2S18317   5.320   3.814   3.570 -0.5397  2.0731 -0.0782
  163OSM    C3S18318   5.532   3.779   3.648 -0.6162  0.4362  0.2574
  163OSM    H3S18319   5.623   3.841   3.667  0.6343 -1.2302 -0.0883
  163OSM     O318320   5.566   3.681   3.547 -0.5358 -0.3927  0.4532
  163OSM    HO318321   5.510   3.705   3.473 -0.6177  0.9083  0.9097
  163OSM    C4S18322   5.498   3.709   3.777 -0.3600 -0.1599  0.1570
  163OSM    H4S18323   5.435   3.618   3.778  1.2853 -1.3525  1.5796
  163OSM    C5S18324   5.573   3.721   3.891  0.4703 -0.2446  0.0753
  163OSM    H5S18325   5.671   3.770   3.885  0.1344  0.3523 -0.7365
  163OSM    C6S18326   5.556   3.637   4.019 -0.7710 -0.7237 -0.1696
  163OSM    H6S18327   5.646   3.574   4.033 -0.4780 -0.2316  0.1972
  163OSM    H6T18328   5.469   3.570   3.998 -0.0265 -1.1182 -2.3486
  163OSM    C7S18329   5.536   3.714   4.145 -0.3560 -0.1515  0.1872
  163OSM    H7S18330   5.449   3.782   4.136  0.7540  1.1144 -1.5495
  163OSM    H7T18331   5.627   3.772   4.169 -0.0142 -0.7838  0.4618
  163OSM    C8S18332   5.520   3.622   4.266 -0.2589 -0.8864  0.2224
  163OSM    H8S18333   5.608   3.555   4.267  0.0175 -0.5315  1.9897
  163OSM    H8T18334   5.437   3.552   4.243  0.5780 -2.0889  0.7540
  163OSM    C9S18335   5.491   3.695   4.399  0.1586 -0.1570 -0.5504
  163OSM    H9S18336   5.436   3.627   4.468  1.4128 -0.9006 -0.2479
  163OSM    H9T18337   5.426   3.779   4.368 -0.2157 -0.7296 -1.3541
  163OSM   C10S18338   5.625   3.742   4.463 -0.1878 -0.2858  0.2551
  163OSM   H10S18339   5.666   3.816   4.391  0.9394  0.4205  1.5655
  163OSM   H10T18340   5.698   3.660   4.480 -1.3815 -1.6139 -0.7770
  163OSM   C11S18341   5.601   3.833   4.586  0.4861 -0.2726  0.5436
  163OSM   H11S18342   5.537   3.916   4.551 -0.4209 -1.5359 -0.9452
  163OSM   H11T18343   5.697   3.884   4.607  1.5303 -0.8693 -2.2101
  163OSM   C12S18344   5.547   3.752   4.709 -0.4134 -0.3853 -0.1829
  163OSM   H12S18345   5.605   3.657   4.715 -0.0643 -0.1577  0.0390
  163OSM   H12T18346   5.444   3.711   4.696 -0.6933  0.1400  0.3436
  163OSM   C13S18347   5.536   3.835   4.845  0.1012  0.3917 -0.4175
  163OSM   H13S18348   5.451   3.908   4.844 -0.2224  0.0377  0.4789
  163OSM   H13T18349   5.634   3.885   4.860 -0.1158  0.4839  0.7687
  163OSM   C14S18350   5.526   3.745   4.961  0.4849  0.2553  0.6821
  163OSM   H14S18351   5.625   3.694   4.965 -0.1543 -1.2392 -1.2496
  163OSM   H14T18352   5.439   3.677   4.952  1.3494 -0.9268  0.9768
  163OSM   C15S18353   5.519   3.831   5.085 -0.2809 -0.2606 -0.0894
  163OSM   H15S18354   5.455   3.920   5.067  1.9417  1.0556 -1.8756
  163OSM   H15T18355   5.621   3.870   5.105 -1.0731  1.2281  1.2780
  163OSM   C16S18356   5.470   3.759   5.212  1.0473  0.4179  0.5793
  163OSM   H16S18357   5.520   3.660   5.218 -0.3008 -0.2446  1.5885
  163OSM   H16T18358   5.366   3.723   5.194  1.5474 -1.5719  1.3880
  163OSM   C17S18359   5.491   3.843   5.339  0.3171  0.5789 -0.3223
  163OSM   H17S18360   5.448   3.945   5.333 -0.7958  0.0683 -1.2734
  163OSM   H17T18361   5.601   3.848   5.358  0.4491 -1.0090 -0.5779
  163OSM   C18S18362   5.440   3.774   5.466  0.2864  0.2183 -0.1039
  163OSM   H18S18363   5.502   3.687   5.497 -0.7212 -0.2635  0.5976
  163OSM   H18T18364   5.335   3.744   5.448  0.0177  1.2119 -0.2555
  163OSM   H18U18365   5.454   3.847   5.548  2.4228  0.2175 -0.3953
  163OSM    C1F18366   5.276   4.064   3.662 -0.0306  0.2553  0.2083
  163OSM     OF18367   5.190   4.029   3.585 -0.5836  0.3520 -0.2775
  163OSM    C2F18368   5.251   4.187   3.747  0.2811 -0.4586  0.4110
  163OSM    H2F18369   5.255   4.280   3.686 -1.2351  0.9483  2.3299
  163OSM    H2G18370   5.325   4.190   3.829 -3.9685 -0.1725  4.6611
  163OSM    C3F18371   5.117   4.192   3.815  0.2756  0.0584  0.5739
  163OSM    H3F18372   5.085   4.098   3.865  0.1771  0.5535  1.4724
  163OSM    H3G18373   5.039   4.212   3.738 -1.1604  2.2081  2.4468
  163OSM    C4F18374   5.113   4.304   3.922  0.1371 -0.3314  0.3718
  163OSM    H4F18375   5.131   4.399   3.867  2.1632  0.7906  2.7684
  163OSM    H4G18376   5.183   4.293   4.008 -1.1290 -0.7954  1.3825
  163OSM    C5F18377   4.986   4.304   4.004  0.3188  0.4533 -0.9135
  163OSM    H5F18378   4.965   4.207   4.053 -0.0196  0.0112 -1.9068
  163OSM    H5G18379   4.903   4.314   3.931  0.6765 -0.3877 -1.4456
  163OSM    C6F18380   4.966   4.415   4.108 -0.0269  0.1966  0.9083
  163OSM    H6F18381   4.859   4.416   4.139 -1.0809 -0.1519 -2.3740
  163OSM    H6G18382   4.989   4.512   4.060  0.8834  0.6740  2.2419
  163OSM    C7F18383   5.059   4.402   4.225 -0.0054 -0.0917 -0.1352
  163OSM    H7F18384   5.161   4.428   4.192  0.6353  1.1209  2.5446
  163OSM    H7G18385   5.056   4.295   4.255 -0.0164 -0.3590 -1.0718
  163OSM    C8F18386   5.034   4.507   4.340  0.3588  0.2416 -0.0735
  163OSM    H8F18387   4.985   4.593   4.289  0.0438  0.3739  0.4527
  163OSM    H8G18388   5.131   4.542   4.381  0.3932 -0.4278  0.4314
  163OSM    C9F18389   4.937   4.465   4.442  0.3058 -0.8614  0.0294
  163OSM    H9F18390   4.850   4.408   4.407 -1.0251  0.6177  0.8075
  163OSM   C10F18391   4.940   4.503   4.577  0.1114  0.5721 -0.4779
  163OSM   H10F18392   4.862   4.457   4.638 -0.1380  1.3032 -0.2383
  163OSM   C11F18393   5.036   4.584   4.656  0.1816 -0.2156 -0.6933
  163OSM   H11F18394   5.022   4.687   4.618 -1.3499 -0.3021 -0.4480
  163OSM   H11G18395   5.144   4.560   4.650  0.7947  1.7032  1.2092
  163OSM   C12F18396   5.005   4.580   4.806 -0.3394  0.2662 -0.2949
  163OSM   H12F18397   5.077   4.511   4.854  0.8952  1.1643 -0.7911
  163OSM   H12G18398   4.902   4.544   4.824 -1.0978  1.0579 -2.5926
  163OSM   C13F18399   5.018   4.717   4.873  0.2076 -0.4334 -0.9411
  163OSM   H13F18400   4.951   4.719   4.962  1.4391 -0.4403  0.0051
  163OSM   H13G18401   4.953   4.782   4.810 -1.6676 -2.5472 -1.2971
  163OSM   C14F18402   5.151   4.783   4.894  0.5284 -0.2124  0.7558
  163OSM   H14F18403   5.147   4.888   4.932  1.2716 -0.2570  0.9650
  163OSM   H14G18404   5.206   4.784   4.798  0.3707  0.8324  0.6586
  163OSM   C15F18405   5.240   4.709   5.002  0.1622  0.0814 -0.4800
  163OSM   H15F18406   5.276   4.612   4.963 -0.1895 -0.1417 -0.2532
  163OSM   H15G18407   5.180   4.698   5.095  1.0610  0.1529  0.1232
  163OSM   C16F18408   5.363   4.789   5.048 -0.1546 -0.4612  0.1697
  163OSM   H16F18409   5.328   4.888   5.083 -0.5986 -0.0650 -1.3358
  163OSM   H16G18410   5.427   4.787   4.957 -0.4229 -1.9442 -0.0114
  163OSM   C17F18411   5.430   4.732   5.173  0.2886  0.1475 -0.5116
  163OSM   H17F18412   5.476   4.634   5.147  0.4724 -0.0602  0.5630
  163OSM   H17G18413   5.356   4.721   5.255  1.3571 -1.4984  0.2688
  163OSM   C18F18414   5.534   4.827   5.229 -0.0207 -0.3111 -0.1134
  163OSM   H18F18415   5.607   4.766   5.287 -0.4055 -2.1299 -1.4418
  163OSM   H18G18416   5.496   4.914   5.287 -3.1207 -0.0131 -2.3464
  163OSM   H18H18417   5.599   4.872   5.151 -2.0662  1.4654 -0.8990
  164OSM      N18418   0.479   4.056   2.988 -0.5738 -0.5394 -0.0059
  164OSM    C1518419   0.595   4.094   2.893 -0.0458 -0.5651  0.0912
  164OSM   H15A18420   0.666   4.014   2.876  1.5034  0.9177 -0.7605
  164OSM   H15B18421   0.641   4.172   2.951 -1.2678  0.2195  0.0476
  164OSM   H15C18422   0.564   4.141   2.801  0.1315 -0.5252  0.0520
  164OSM    C1418423   0.416   3.936   2.930 -0.0608 -0.3371  0.5756
  164OSM   H14A18424   0.335   3.905   2.996 -0.8091  2.8200  1.2964
  164OSM   H14B18425   0.479   3.848   2.923 -1.5236 -1.3307 -1.1141
  164OSM   H14C18426   0.376   3.956   2.831 -1.0285  0.0865  1.0347
  164OSM    C1318427   0.534   4.014   3.116  0.2639 -0.3593 -0.1647
  164OSM   H13A18428   0.451   3.976   3.174 -2.1257  1.4922 -2.1963
  164OSM   H13B18429   0.579   4.102   3.159 -0.9036  1.2334 -2.0580
  164OSM   H13C18430   0.609   3.938   3.100 -0.1328 -1.0434  1.0219
  164OSM    C1218431   0.388   4.176   3.006 -0.1364 -1.0201  0.2091
  164OSM   H12A18432   0.297   4.133   3.045  0.6322 -3.2018 -0.2805
  164OSM   H12B18433   0.365   4.227   2.913 -0.5942  0.7470  1.2377
  164OSM    C1118434   0.446   4.297   3.094 -0.7003 -0.2767  0.2625
  164OSM   H11A18435   0.450   4.267   3.201 -0.4307  3.5679  1.4715
  164OSM   H11B18436   0.370   4.377   3.084 -1.1435 -0.7521 -0.2457
  164OSM      P18437   0.706   4.365   3.126  0.1554 -0.2077 -0.2688
  164OSM    O1318438   0.699   4.315   3.268  0.3864  0.0552  0.0064
  164OSM    O1418439   0.828   4.324   3.045 -0.0778 -0.1142 -0.8505
  164OSM    O1118440   0.717   4.516   3.133  0.6741 -0.3821 -0.6330
  164OSM    O1218441   0.574   4.343   3.044 -0.4082  0.2836  0.2065
  164OSM    C1S18442   0.606   4.601   3.178  0.7814  0.4240  0.5474
  164OSM    H1S18443   0.514   4.577   3.120  1.5245 -1.5412  0.1156
  164OSM    H1T18444   0.629   4.702   3.138 -0.2106  1.2134  1.8767
  164OSM     NF18445   0.485   4.732   3.352  0.7982 -0.4949  0.6932
  164OSM    HNF18446   0.524   4.823   3.369 -0.5024  0.1719  0.2142
  164OSM    C2S18447   0.597   4.639   3.327 -0.0196  0.1609 -0.3372
  164OSM    H2S18448   0.576   4.540   3.374  0.7791 -0.1037 -0.5207
  164OSM    C3S18449   0.738   4.664   3.385 -0.0875  0.1416  0.0839
  164OSM    H3S18450   0.791   4.725   3.309 -1.7270 -1.0232 -2.1336
  164OSM     O318451   0.822   4.544   3.400 -0.0878  0.2265  0.5745
  164OSM    HO318452   0.774   4.476   3.353 -1.7229  3.0330 -2.2084
  164OSM    C4S18453   0.724   4.730   3.519  0.4661 -0.2043  0.1660
  164OSM    H4S18454   0.631   4.703   3.572 -1.0844 -0.0509 -2.3132
  164OSM    C5S18455   0.811   4.818   3.568  0.4436 -0.0904  0.4536
  164OSM    H5S18456   0.889   4.853   3.498  1.5163 -1.1693  1.0768
  164OSM    C6S18457   0.800   4.890   3.694 -0.3257 -0.7424 -0.1602
  164OSM    H6S18458   0.778   4.996   3.672 -0.6326 -0.8803 -0.5209
  164OSM    H6T18459   0.894   4.876   3.752 -1.5856 -0.4746  2.0423
  164OSM    C7S18460   0.690   4.846   3.801 -0.7576  0.4488 -0.1058
  164OSM    H7S18461   0.700   4.743   3.841 -1.3151  1.1049  1.8340
  164OSM    H7T18462   0.586   4.858   3.765 -1.1303 -0.1235  0.7539
  164OSM    C8S18463   0.704   4.947   3.917  0.4483 -0.7763  0.3404
  164OSM    H8S18464   0.645   5.037   3.887  1.4457 -0.0511  0.5026
  164OSM    H8T18465   0.810   4.974   3.935 -0.1654  3.2953 -1.0278
  164OSM    C9S18466   0.645   4.904   4.053  0.2118  0.7159  0.4964
  164OSM    H9S18467   0.688   4.803   4.074  0.1593  0.7745  0.9012
  164OSM    H9T18468   0.535   4.889   4.047  0.1338  1.7149 -0.7626
  164OSM   C10S18469   0.684   5.001   4.166  0.2947 -0.6151  0.0420
  164OSM   H10S18470   0.647   5.103   4.144  0.0519 -0.4900  1.0011
  164OSM   H10T18471   0.793   5.025   4.167  0.0196  0.6986  0.4510
  164OSM   C11S18472   0.629   4.965   4.300 -0.0683  0.1787  0.0443
  164OSM   H11S18473   0.686   4.878   4.338 -1.6703 -1.8630 -1.9705
  164OSM   H11T18474   0.526   4.926   4.286 -0.2473 -0.9560  3.5593
  164OSM   C12S18475   0.639   5.078   4.408 -0.0791 -0.2299 -0.1566
  164OSM   H12S18476   0.599   5.167   4.354  1.1799 -0.2169 -1.1298
  164OSM   H12T18477   0.743   5.106   4.438 -0.5458  1.9758 -0.4423
  164OSM   C13S18478   0.553   5.050   4.537  0.3289  0.4469  0.3482
  164OSM   H13S18479   0.575   4.949   4.578 -1.9060 -1.7503 -3.3175
  164OSM   H13T18480   0.449   5.039   4.500  0.3545  2.8737 -0.6354
  164OSM   C14S18481   0.556   5.163   4.634  0.2627 -0.6493  0.0481
  164OSM   H14S18482   0.513   5.242   4.569  2.2906 -1.0570 -1.9160
  164OSM   H14T18483   0.654   5.207   4.662 -1.3860  2.0901  2.0620
  164OSM   C15S18484   0.465   5.152   4.756 -0.2208 -0.6232 -0.1110
  164OSM   H15S18485   0.514   5.094   4.837 -0.4238  0.9329  1.1855
  164OSM   H15T18486   0.369   5.106   4.725 -0.0647 -0.8231 -0.3001
  164OSM   C16S18487   0.439   5.289   4.830  0.3587 -0.5409  0.5444
  164OSM   H16S18488   0.408   5.368   4.759  0.2086 -0.0440  1.1526
  164OSM   H16T18489   0.538   5.318   4.871 -0.0807  1.7138  0.1388
  164OSM   C17S18490   0.341   5.278   4.946 -0.2724  0.4750 -0.3625
  164OSM   H17S18491   0.267   5.199   4.920 -0.3825 -0.7438  3.0793
  164OSM   H17T18492   0.297   5.376   4.972 -0.6201 -0.4363  2.9792
  164OSM   C18S18493   0.409   5.219   5.074 -0.6035 -0.8816  0.1517
  164OSM   H18S18494   0.346   5.243   5.162 -2.7141  1.0715 -1.7708
  164OSM   H18T18495   0.503   5.276   5.091 -0.7364 -0.6059 -0.0463
  164OSM   H18U18496   0.428   5.110   5.060 -1.4958 -0.7922 -2.1187
  164OSM    C1F18497   0.357   4.712   3.329  0.2761 -0.0298 -0.3835
  164OSM     OF18498   0.316   4.603   3.288 -0.2610  0.1826  0.2399
  164OSM    C2F18499   0.263   4.829   3.349  0.4628  0.2785 -0.4197
  164OSM    H2F18500   0.198   4.832   3.259  1.1905  2.1013 -0.9318
  164OSM    H2G18501   0.320   4.921   3.374  0.3171  0.6355 -1.3711
  164OSM    C3F18502   0.161   4.810   3.469 -0.1154 -0.3817  0.4424
  164OSM    H3F18503   0.122   4.706   3.474  0.5332 -0.6885 -0.6074
  164OSM    H3G18504   0.072   4.872   3.444  0.5202  0.0253 -0.9182
  164OSM    C4F18505   0.230   4.827   3.599 -0.1747 -0.2990 -0.2421
  164OSM    H4F18506   0.306   4.751   3.627 -0.6971  0.4442  3.8765
  164OSM    H4G18507   0.153   4.807   3.676  2.5061  1.9542  3.3815
  164OSM    C5F18508   0.281   4.964   3.624 -0.5001 -0.1147  1.0083
  164OSM    H5F18509   0.234   5.038   3.554 -1.4951 -1.1869  0.5094
  164OSM    H5G18510   0.389   4.956   3.597 -0.4303 -1.5364  1.6662
  164OSM    C6F18511   0.256   5.018   3.761 -1.1378 -0.2597  0.1464
  164OSM    H6F18512   0.147   5.031   3.779 -1.4875 -0.1954 -1.8456
  164OSM    H6G18513   0.289   5.124   3.765 -0.9637 -0.3288  0.5976
  164OSM    C7F18514   0.308   4.942   3.883  0.3073 -0.4284 -0.7661
  164OSM    H7F18515   0.412   4.906   3.868  0.2339 -1.3496  0.8251
  164OSM    H7G18516   0.238   4.856   3.884 -2.2924  1.5710 -0.7863
  164OSM    C8F18517   0.302   5.015   4.019  0.1233 -0.6995  0.3750
  164OSM    H8F18518   0.331   4.939   4.096  1.3205 -0.3441  0.3000
  164OSM    H8G18519   0.198   5.049   4.033  0.3483  1.6082 -2.7037
  164OSM    C9F18520   0.385   5.145   4.011  0.5387  0.1839  0.9332
  164OSM    H9F18521   0.458   5.156   3.930  0.1280  0.2523  0.5686
  164OSM   C10F18522   0.395   5.228   4.114 -0.1263  0.3780 -0.0909
  164OSM   H10F18523   0.457   5.318   4.100  2.2210 -0.8468  1.7708
  164OSM   C11F18524   0.322   5.217   4.249 -0.0424  0.8636 -0.1891
  164OSM   H11F18525   0.374   5.147   4.318 -0.1519  0.8399 -0.1308
  164OSM   H11G18526   0.220   5.177   4.231  0.6277 -1.1315  0.2346
  164OSM   C12F18527   0.314   5.347   4.339 -0.1379  0.1907  0.0337
  164OSM   H12F18528   0.262   5.415   4.268  1.4084 -0.2968 -1.6337
  164OSM   H12G18529   0.413   5.394   4.353  0.4189 -1.3278  1.5670
  164OSM   C13F18530   0.235   5.342   4.472 -0.2511 -0.5163 -0.1497
  164OSM   H13F18531   0.269   5.256   4.534 -1.3376 -1.8223 -1.2898
  164OSM   H13G18532   0.129   5.317   4.449 -0.3520 -0.6142  0.4151
  164OSM   C14F18533   0.233   5.482   4.550  0.2494  0.0079  0.1661
  164OSM   H14F18534   0.183   5.561   4.489 -1.1200 -1.0040 -0.0559
  164OSM   H14G18535   0.333   5.528   4.566  0.1516 -0.2957  1.7586
  164OSM   C15F18536   0.150   5.479   4.675  0.1650 -0.1280  0.5554
  164OSM   H15F18537   0.173   5.409   4.758 -0.2968  1.0052  1.6878
  164OSM   H15G18538   0.056   5.437   4.634  0.2387  1.2513 -1.1571
  164OSM   C16F18539   0.117   5.617   4.739  0.3876 -0.1741 -0.5181
  164OSM   H16F18540   0.022   5.602   4.794 -1.2388  0.1852 -3.0669
  164OSM   H16G18541   0.102   5.701   4.668  0.7265  1.1251  0.8897
  164OSM   C17F18542   0.220   5.672   4.838 -0.3780  0.3240  0.9340
  164OSM   H17F18543   0.317   5.665   4.784 -0.0337  0.9222  1.4618
  164OSM   H17G18544   0.216   5.623   4.938 -0.5086  0.9981  1.2653
  164OSM   C18F18545   0.204   5.822   4.859 -0.3620 -0.1173  0.4319
  164OSM   H18F18546   0.115   5.849   4.919  0.6742 -2.2096  3.0658
  164OSM   H18G18547   0.197   5.868   4.758  0.1551 -0.0354  0.4297
  164OSM   H18H18548   0.300   5.850   4.906  1.0577 -1.3500 -1.5951
  165SAPS     N18549   3.431   0.752   7.624  0.4268  0.4049 -0.4232
  165SAPS   HN118550   3.370   0.776   7.704  3.6978  0.3749  2.3113
  165SAPS   HN218551   3.521   0.801   7.644  0.8600 -0.2077 -0.8326
  165SAPS   HN318552   3.387   0.793   7.539  1.6861  3.3954  0.2061
  165SAPS   C1218553   3.437   0.599   7.617 -0.3950  0.6179 -0.1751
  165SAPS  H12A18554   3.492   0.571   7.706 -0.3785  0.9863 -0.0658
  165SAPS   C1318555   3.299   0.537   7.617 -0.2042  0.3587 -0.1982
  165SAPS  O13A18556   3.197   0.602   7.633  0.2277  0.4085 -0.0605
  165SAPS  O13B18557   3.304   0.417   7.637  0.2689  0.1170  0.1907
  165SAPS   C1118558   3.515   0.553   7.484  0.2399  0.1952  0.1776
  165SAPS  H11A18559   3.457   0.572   7.391 -1.3046  0.0075  1.0587
  165SAPS  H11B18560   3.533   0.446   7.503  0.0670  0.5167  2.4284
  165SAPS     P18561   3.768   0.552   7.404 -0.2887  0.0184 -0.0284
  165SAPS   O1318562   3.862   0.651   7.360 -0.1618 -0.1195 -0.2935
  165SAPS   O1418563   3.811   0.449   7.497  0.1995  0.4983 -0.6135
  165SAPS   O1218564   3.642   0.620   7.469 -0.1153  0.0176  0.1635
  165SAPS   O1118565   3.708   0.478   7.282 -0.3400  0.8905  0.2613
  165SAPS    C118566   3.685   0.542   7.160 -0.2321 -0.7752  0.4894
  165SAPS    HA18567   3.614   0.627   7.168 -0.3444 -0.7693 -0.4610
  165SAPS    HB18568   3.783   0.572   7.117  0.3787 -1.0643  1.6593
  165SAPS    C218569   3.618   0.442   7.071  0.7308 -0.3250  0.0168
  165SAPS    HS18570   3.694   0.363   7.055  1.5388  0.3198  0.5436
  165SAPS   O2118571   3.573   0.504   6.954  0.1914  0.4426  0.2279
  165SAPS   C2118572   3.579   0.427   6.849  0.0964 -0.1729 -0.3384
  165SAPS   O2218573   3.631   0.317   6.849 -0.0960 -0.1280  0.4990
  165SAPS   C2218574   3.495   0.493   6.740  0.0998 -0.4884 -0.4350
  165SAPS   H2R18575   3.409   0.546   6.787 -1.0915 -1.6389 -1.2370
  165SAPS   H2S18576   3.550   0.574   6.688 -0.4005  0.7671  0.9164
  165SAPS    C318577   3.499   0.366   7.144  0.0504  0.3684 -0.3184
  165SAPS    HX18578   3.418   0.433   7.179 -1.3359 -2.4260  2.3393
  165SAPS    HY18579   3.547   0.331   7.238  1.7275  3.2274  0.0090
  165SAPS   O3118580   3.437   0.270   7.054  0.4833  0.4510  0.2563
  165SAPS   C3118581   3.494   0.155   7.039  0.3659  0.0412 -0.0988
  165SAPS   O3218582   3.599   0.124   7.082 -0.2997  0.3099 -0.4520
  165SAPS   C3218583   3.418   0.072   6.936  0.1866 -0.4625 -0.0622
  165SAPS   H2X18584   3.353   0.135   6.870 -0.7747 -1.4196 -0.0599
  165SAPS   H2Y18585   3.341   0.010   6.986 -0.8738 -0.3802 -1.5250
  165SAPS   C2318586   3.444   0.384   6.638 -0.7769 -0.1751 -0.0538
  165SAPS   H3R18587   3.420   0.288   6.689  2.0856 -0.3995  1.0466
  165SAPS   H3S18588   3.527   0.367   6.566 -0.3923  0.5247  0.2193
  165SAPS   C2418589   3.329   0.440   6.560 -0.0763  0.1984 -0.3337
  165SAPS   H4R18590   3.355   0.544   6.531 -0.2123  0.7269  1.3058
  165SAPS   H4S18591   3.237   0.433   6.622  0.0820  0.4295 -0.0731
  165SAPS   C2518592   3.306   0.354   6.442 -0.1132  0.6413  0.3625
  165SAPS   H5R18593   3.231   0.276   6.464  1.3778 -1.0899 -0.4749
  165SAPS   C2618594   3.342   0.377   6.313  0.0662  0.5752 -0.0612
  165SAPS   H6R18595   3.307   0.303   6.239 -2.4785  2.1094 -0.4921
  165SAPS   C2718596   3.435   0.492   6.267  0.2258 -0.0788 -0.6257
  165SAPS   H7R18597   3.469   0.560   6.348 -0.8455  1.3936 -1.3825
  165SAPS   H7S18598   3.381   0.556   6.195  1.6561  0.6546 -1.0727
  165SAPS   C2818599   3.541   0.409   6.203 -1.0217 -0.1349  0.5227
  165SAPS   H8R18600   3.619   0.352   6.256 -0.7865  1.8296  2.4502
  165SAPS   C2918601   3.556   0.399   6.067 -0.4451 -0.5533 -0.5308
  165SAPS   H9R18602   3.643   0.342   6.032 -1.7483 -3.6552  0.9399
  165SAPS  C21018603   3.459   0.450   5.957 -0.2269  0.1421 -0.2321
  165SAPS  H10R18604   3.502   0.517   5.879 -2.4537  0.4490 -1.2844
  165SAPS  H10S18605   3.372   0.507   5.997 -1.6674 -1.9255 -0.2426
  165SAPS  C21118606   3.404   0.327   5.882 -0.1989 -0.8371 -0.2633
  165SAPS  H11R18607   3.353   0.260   5.953 -2.0751  1.8671  1.1139
  165SAPS  C21218608   3.411   0.292   5.753 -0.1331  0.1572  0.1466
  165SAPS  H12R18609   3.362   0.198   5.725 -0.9733  0.4561  0.5773
  165SAPS  C21318610   3.485   0.362   5.640 -0.2048 -0.0423 -0.4588
  165SAPS  H13R18611   3.516   0.304   5.551 -0.5606 -2.0708  0.6867
  165SAPS  H13S18612   3.583   0.389   5.683 -0.7445  1.7040 -0.2466
  165SAPS  C21418613   3.424   0.490   5.593 -0.8506  0.0883  0.5251
  165SAPS  H14R18614   3.426   0.579   5.658 -1.5026 -0.3521  1.1504
  165SAPS  C21518615   3.367   0.505   5.468 -0.7247  0.2580  0.0308
  165SAPS  H15R18616   3.345   0.608   5.437  0.8283  0.5930 -0.0029
  165SAPS  C21618617   3.360   0.393   5.365 -0.4766 -0.0587 -0.3861
  165SAPS  H16R18618   3.255   0.393   5.327 -1.7742 -0.7066  2.8425
  165SAPS  H16S18619   3.365   0.298   5.422 -2.0105  1.5551  2.7321
  165SAPS  C21718620   3.459   0.400   5.254  0.2233 -0.8202  0.0574
  165SAPS  H17R18621   3.458   0.302   5.201 -4.0804 -0.1132 -1.5723
  165SAPS  H17S18622   3.561   0.400   5.298 -0.6643 -0.4422  2.2465
  165SAPS  C21818623   3.439   0.517   5.149  0.2790 -0.2118 -0.1149
  165SAPS  H18R18624   3.402   0.609   5.199 -0.8456  1.0758 -3.0782
  165SAPS  H18S18625   3.354   0.484   5.086 -1.8073 -0.2151  2.5349
  165SAPS  C21918626   3.565   0.535   5.065  0.8501 -0.0158 -0.0723
  165SAPS  H19R18627   3.593   0.445   5.006 -3.0811  0.4223 -3.0704
  165SAPS  H19S18628   3.644   0.556   5.140  2.4705 -2.0951 -1.0999
  165SAPS  C22018629   3.549   0.659   4.983  0.1366  0.0072 -0.4996
  165SAPS  H20R18630   3.543   0.746   5.052 -0.9865 -2.3964  2.7098
  165SAPS  H20S18631   3.456   0.652   4.923  0.2977  2.1652 -1.0706
  165SAPS  H20T18632   3.636   0.671   4.915  1.7683 -0.2986  1.4332
  165SAPS   C3318633   3.499  -0.016   6.843 -0.2298 -0.5281  0.5588
  165SAPS   H3X18634   3.559  -0.082   6.909 -0.3707  0.9041  2.1900
  165SAPS   H3Y18635   3.578   0.053   6.806 -0.5256 -0.7876 -0.5985
  165SAPS   C3418636   3.432  -0.078   6.728 -0.2633  0.0520  0.8574
  165SAPS   H4X18637   3.339  -0.127   6.764  0.8823 -0.1037  3.9837
  165SAPS   H4Y18638   3.501  -0.152   6.682  1.2512  0.7865  1.8657
  165SAPS   C3518639   3.388   0.023   6.625  0.0358 -0.5300  0.3156
  165SAPS   H5X18640   3.479   0.053   6.568  0.1527 -2.1600 -0.4063
  165SAPS   H5Y18641   3.325   0.108   6.659  2.0471  0.9523  0.5138
  165SAPS   C3618642   3.293  -0.039   6.509  0.3697  0.1211 -0.6819
  165SAPS   H6X18643   3.268   0.046   6.442  0.8627 -0.2348 -1.3270
  165SAPS   H6Y18644   3.195  -0.085   6.534 -0.0604  0.1638 -2.2105
  165SAPS   C3718645   3.368  -0.139   6.418  0.6463 -0.2801 -0.6907
  165SAPS   H7X18646   3.350  -0.245   6.446  1.8280 -0.5780 -1.0440
  165SAPS   H7Y18647   3.470  -0.096   6.418  0.2422  0.7969  1.2684
  165SAPS   C3818648   3.317  -0.125   6.270  0.3854  0.3492 -0.4225
  165SAPS   H8X18649   3.311  -0.021   6.234  1.5924  0.9621  1.0167
  165SAPS   H8Y18650   3.209  -0.152   6.272  0.7577 -1.6738  3.2738
  165SAPS   C3918651   3.390  -0.217   6.166 -0.1701  0.0255 -0.4636
  165SAPS   H9X18652   3.367  -0.323   6.190 -1.0061  0.1815 -0.5304
  165SAPS   H9Y18653   3.500  -0.210   6.178  0.0089  0.1385 -2.0375
  165SAPS  C31018654   3.358  -0.186   6.018 -0.3026  0.3253 -0.1047
  165SAPS  H10X18655   3.426  -0.104   5.988 -0.7060  0.7318  0.0773
  165SAPS  H10Y18656   3.252  -0.153   6.016  0.0468  1.4864 -2.3475
  165SAPS  C31118657   3.366  -0.312   5.931 -0.1191 -0.3603  0.0516
  165SAPS  H11X18658   3.313  -0.398   5.977  0.5200 -1.0204 -0.4054
  165SAPS  H11Y18659   3.476  -0.328   5.934  0.1946  0.4790 -3.2222
  165SAPS  C31218660   3.327  -0.294   5.783  0.1111 -0.6971  0.2352
  165SAPS  H12X18661   3.221  -0.264   5.773 -0.6756 -2.6231  2.1052
  165SAPS  H12Y18662   3.332  -0.390   5.728 -1.3516 -0.7763  0.2017
  165SAPS  C31318663   3.415  -0.180   5.717  0.2748 -0.6796 -0.0920
  165SAPS  H13X18664   3.525  -0.194   5.710  0.2774  0.1563 -3.0802
  165SAPS  H13Y18665   3.400  -0.085   5.772  2.2899 -0.4226  0.1088
  165SAPS  C31418666   3.364  -0.156   5.572 -0.1123 -0.1450 -0.0152
  165SAPS  H14X18667   3.256  -0.132   5.575  0.2343  1.7147 -0.8240
  165SAPS  H14Y18668   3.389  -0.245   5.509 -0.7424 -0.1931 -0.2028
  165SAPS  C31518669   3.435  -0.036   5.511 -0.2142 -0.4606  0.6515
  165SAPS  H15X18670   3.542  -0.067   5.514  0.3704  1.0655 -1.8674
  165SAPS  H15Y18671   3.427   0.057   5.570  3.4586  0.8659 -0.6270
  165SAPS  C31618672   3.410  -0.025   5.365 -0.0113  0.3739  0.1505
  165SAPS  H16X18673   3.440  -0.121   5.318  0.5879  0.6979 -0.1500
  165SAPS  H16Y18674   3.473   0.058   5.325 -0.5761 -0.1810 -2.0553
  165SAPS  C31718675   3.261  -0.007   5.336 -0.5341 -0.0170  0.7437
  165SAPS  H17X18676   3.222   0.079   5.394 -0.9835  0.1484  0.2061
  165SAPS  H17Y18677   3.193  -0.092   5.361 -1.2638  0.9979  2.4337
  165SAPS  C31818678   3.242   0.010   5.182 -0.2636  0.2545 -0.0871
  165SAPS  H18X18679   3.255  -0.087   5.130  0.5395  1.0746 -1.4636
  165SAPS  H18Y18680   3.320   0.077   5.141 -0.5164  0.4576 -0.2378
  165SAPS  H18Z18681   3.139   0.045   5.160 -0.3723  0.2800  0.4512
  166SAPS     N18682   0.914   0.750   7.549 -0.3250 -0.4594  0.4294
  166SAPS   HN118683   0.841   0.809   7.504  0.3140  1.8811  2.2754
  166SAPS   HN218684   0.914   0.666   7.488  1.3645 -1.5266  1.8041
  166SAPS   HN318685   0.898   0.727   7.650  0.3540 -0.0674  0.6310
  166SAPS   C1218686   1.038   0.829   7.539  0.1544 -0.1084  0.7693
  166SAPS  H12A18687   1.037   0.903   7.618 -0.1397  1.3346 -0.5461
  166SAPS   C1318688   1.164   0.738   7.558  1.0765 -0.0743 -0.0695
  166SAPS  O13A18689   1.155   0.615   7.553 -0.5927 -0.1585  0.6641
  166SAPS  O13B18690   1.275   0.793   7.556  0.2524  0.1309 -0.4529
  166SAPS   C1118691   1.040   0.917   7.415  0.5312  0.6733  0.0230
  166SAPS  H11A18692   1.049   0.856   7.323  0.0424  1.0127 -0.2535
  166SAPS  H11B18693   1.132   0.979   7.415  1.8325 -1.1822 -0.4625
  166SAPS     P18694   0.888   1.104   7.520  0.1587 -0.1312  0.3698
  166SAPS   O1318695   0.810   1.039   7.626 -0.1019  0.1187  0.0014
  166SAPS   O1418696   1.012   1.176   7.555 -0.0048  0.1843 -0.3681
  166SAPS   O1218697   0.922   0.999   7.407 -0.0369  0.5462 -0.0524
  166SAPS   O1118698   0.791   1.208   7.454  0.4432 -0.0760 -0.3152
  166SAPS    C118699   0.709   1.166   7.342  0.5648  0.7541  0.3130
  166SAPS    HA18700   0.682   1.058   7.342  1.3816  0.5367  1.4623
  166SAPS    HB18701   0.617   1.229   7.343  1.3232  2.0074 -1.5001
  166SAPS    C218702   0.769   1.208   7.196 -0.4721  0.4587 -0.2772
  166SAPS    HS18703   0.863   1.150   7.185 -0.0003  1.5450 -2.4578
  166SAPS   O2118704   0.779   1.354   7.197 -0.3831 -0.7164  0.3163
  166SAPS   C2118705   0.902   1.403   7.168  0.1861 -0.1344 -0.5013
  166SAPS   O2218706   0.998   1.337   7.136 -0.3020  0.3502  0.5191
  166SAPS   C2218707   0.904   1.551   7.190 -0.2132  0.3404 -0.0843
  166SAPS   H2R18708   0.807   1.589   7.150 -1.2762 -4.2330 -2.5014
  166SAPS   H2S18709   0.891   1.580   7.296 -0.7771 -1.9851  0.5268
  166SAPS    C318710   0.669   1.155   7.089 -1.0472 -0.3593  0.1568
  166SAPS    HX18711   0.565   1.188   7.111 -1.3774  0.1202 -1.9198
  166SAPS    HY18712   0.673   1.045   7.108  1.4610 -0.3382 -0.0243
  166SAPS   O3118713   0.718   1.192   6.961  0.6815 -0.0908  0.1326
  166SAPS   C3118714   0.630   1.151   6.861 -0.5618 -0.4683 -0.0766
  166SAPS   O3218715   0.520   1.102   6.872  0.2180 -0.0310 -0.2157
  166SAPS   C3218716   0.700   1.178   6.733 -0.2750 -0.0390 -0.2763
  166SAPS   H2X18717   0.775   1.097   6.718  0.6358  1.2144 -3.2897
  166SAPS   H2Y18718   0.751   1.276   6.745 -0.4022  0.2791 -2.0932
  166SAPS   C2318719   1.020   1.615   7.108 -0.2877 -0.1030 -0.2808
  166SAPS   H3R18720   1.110   1.557   7.137 -0.5627 -2.0836 -3.0243
  166SAPS   H3S18721   1.028   1.715   7.156 -1.8081  0.7634 -1.7617
  166SAPS   C2418722   1.016   1.611   6.960  0.1800 -1.0066 -0.0301
  166SAPS   H4R18723   0.977   1.515   6.920  1.1777 -1.0796 -0.8487
  166SAPS   H4S18724   1.110   1.643   6.911 -0.7582  0.9904 -0.6610
  166SAPS   C2518725   0.919   1.724   6.918  0.1512  0.2437  0.2636
  166SAPS   H5R18726   0.862   1.779   6.995  4.0112  1.5505  2.4454
  166SAPS   C2618727   0.876   1.738   6.788 -0.3068 -0.0253 -0.2873
  166SAPS   H6R18728   0.817   1.827   6.761 -2.3112 -0.4818  2.2684
  166SAPS   C2718729   0.938   1.673   6.669  0.1436 -0.1109 -0.0083
  166SAPS   H7R18730   0.864   1.658   6.587  0.0689 -1.4513  0.2737
  166SAPS   H7S18731   0.976   1.571   6.692 -1.5459 -0.0660  3.7488
  166SAPS   C2818732   1.050   1.762   6.613  0.6602  0.1951  0.5068
  166SAPS   H8R18733   1.136   1.759   6.681  0.9174  0.1354  0.1775
  166SAPS   C2918734   1.059   1.820   6.491  0.2269 -0.8715 -0.0764
  166SAPS   H9R18735   1.146   1.883   6.469 -1.5805  1.2862 -1.4950
  166SAPS  C21018736   0.965   1.794   6.373  0.0563 -0.0774  0.0387
  166SAPS  H10R18737   0.921   1.892   6.347  3.3158  1.5939  0.2177
  166SAPS  H10S18738   0.884   1.722   6.396  0.1351  0.0499  0.7244
  166SAPS  C21118739   1.047   1.741   6.260 -0.8800 -0.5467  0.4105
  166SAPS  H11R18740   1.099   1.645   6.274 -0.5470 -0.2967  0.9037
  166SAPS  C21218741   1.068   1.793   6.140  0.0036 -0.5057  1.1222
  166SAPS  H12R18742   1.137   1.739   6.073 -0.1855 -0.9167  1.2554
  166SAPS  C21318743   1.005   1.918   6.074 -0.5135  0.5862  0.5083
  166SAPS  H13R18744   1.069   2.008   6.085  0.5190  0.0780 -1.1627
  166SAPS  H13S18745   0.910   1.950   6.123 -0.1736  1.2923  0.7236
  166SAPS  C21418746   0.986   1.895   5.926  0.5438  0.3446 -0.0975
  166SAPS  H14R18747   0.904   1.822   5.917  0.6841  0.4482 -2.6822
  166SAPS  C21518748   1.051   1.948   5.824  0.5818 -0.2130  0.7524
  166SAPS  H15R18749   1.029   1.927   5.718  0.8879  1.7585  0.2554
  166SAPS  C21618750   1.169   2.039   5.836  0.2950  0.1965 -0.2658
  166SAPS  H16R18751   1.249   1.992   5.775 -0.5733  0.6745 -1.8444
  166SAPS  H16S18752   1.213   2.042   5.938  0.0771 -0.0119 -0.1652
  166SAPS  C21718753   1.148   2.189   5.785  0.3689  0.3839  1.0076
  166SAPS  H17R18754   1.210   2.261   5.841  1.4130 -0.0811  0.4750
  166SAPS  H17S18755   1.041   2.216   5.800 -0.5213 -1.2423 -1.5680
  166SAPS  C21818756   1.171   2.217   5.635 -0.0515  0.1281  0.6021
  166SAPS  H18R18757   1.105   2.152   5.572  1.1201  0.0745 -0.6126
  166SAPS  H18S18758   1.273   2.188   5.602  0.0482  0.0513  0.9753
  166SAPS  C21918759   1.135   2.362   5.597 -0.2021  0.0641 -0.0858
  166SAPS  H19R18760   1.228   2.423   5.597 -0.0385 -0.1360  1.4357
  166SAPS  H19S18761   1.074   2.404   5.680  0.7145 -0.8496  1.0739
  166SAPS  C22018762   1.062   2.380   5.458 -0.6143 -0.0317 -0.5642
  166SAPS  H20R18763   0.978   2.308   5.456  1.1708 -2.3147  0.8506
  166SAPS  H20S18764   1.127   2.348   5.374 -2.0440  0.4896 -1.9138
  166SAPS  H20T18765   1.032   2.483   5.429  2.9535  1.5153  0.6967
  166SAPS   C3318766   0.612   1.188   6.603 -0.5598  0.0638 -0.4107
  166SAPS   H3X18767   0.530   1.262   6.607  0.2385  0.9792 -0.6148
  166SAPS   H3Y18768   0.562   1.089   6.594  1.2938 -0.7906 -2.0265
  166SAPS   C3418769   0.702   1.203   6.478 -0.4457  0.3061  0.1516
  166SAPS   H4X18770   0.644   1.182   6.386 -0.7548 -1.2420  0.6809
  166SAPS   H4Y18771   0.781   1.125   6.472  0.4138  1.0128  1.6656
  166SAPS   C3518772   0.768   1.339   6.458 -0.1232 -0.7077  1.0780
  166SAPS   H5X18773   0.848   1.350   6.535  0.9231  1.0873 -0.1871
  166SAPS   H5Y18774   0.693   1.416   6.485 -0.4508 -0.5849 -0.1280
  166SAPS   C3618775   0.831   1.358   6.316 -0.0281 -0.3909 -0.0938
  166SAPS   H6X18776   0.905   1.276   6.299  1.5869  0.9268  0.3069
  166SAPS   H6Y18777   0.879   1.458   6.328 -4.3477  1.7842  0.9103
  166SAPS   C3718778   0.736   1.380   6.198  0.1723  0.0941 -0.1017
  166SAPS   H7X18779   0.645   1.431   6.238 -0.3483 -0.0707 -1.0604
  166SAPS   H7Y18780   0.706   1.287   6.146  0.4838 -0.4405  0.6455
  166SAPS   C3818781   0.789   1.472   6.084  0.0226  0.2570 -0.1466
  166SAPS   H8X18782   0.834   1.563   6.130  0.8561 -0.5383  0.6401
  166SAPS   H8Y18783   0.704   1.503   6.019 -1.0870 -0.5847  0.8605
  166SAPS   C3918784   0.892   1.396   6.001  0.4491 -1.0496 -0.1503
  166SAPS   H9X18785   0.829   1.328   5.940  0.3029 -0.5749 -0.5297
  166SAPS   H9Y18786   0.959   1.341   6.071  1.0516  1.4495  1.3734
  166SAPS  C31018787   0.988   1.477   5.902 -0.1671  0.6361 -0.6360
  166SAPS  H10X18788   1.069   1.404   5.879 -0.5700  0.8217 -2.9251
  166SAPS  H10Y18789   1.034   1.561   5.959  0.2447  0.3142 -0.4827
  166SAPS  C31118790   0.921   1.540   5.778 -0.0685 -0.0938 -0.0338
  166SAPS  H11X18791   0.845   1.612   5.814  0.0005 -0.9126  1.8417
  166SAPS  H11Y18792   0.869   1.458   5.724  0.1405  1.7025 -3.2238
  166SAPS  C31218793   1.031   1.598   5.687  0.3108  0.4822  0.4870
  166SAPS  H12X18794   1.113   1.524   5.681  0.9565  1.2438 -0.4105
  166SAPS  H12Y18795   1.075   1.690   5.732  0.3246  1.3276 -1.1636
  166SAPS  C31318796   0.980   1.652   5.551 -0.4064  0.0583  0.1620
  166SAPS  H13X18797   0.888   1.713   5.565 -0.1538  0.5478 -0.2755
  166SAPS  H13Y18798   0.947   1.569   5.485  1.6560  0.1029 -1.0092
  166SAPS  C31418799   1.068   1.737   5.471  0.2138 -0.4990  0.1203
  166SAPS  H14X18800   1.088   1.828   5.531 -0.9355 -0.5329  0.5832
  166SAPS  H14Y18801   1.030   1.771   5.372  4.1401  0.5757 -1.1984
  166SAPS  C31518802   1.192   1.663   5.424 -0.4899 -0.1940 -0.5093
  166SAPS  H15X18803   1.172   1.574   5.360 -3.8940  0.7994 -1.0129
  166SAPS  H15Y18804   1.237   1.621   5.517 -0.3936 -3.3495 -1.8379
  166SAPS  C31618805   1.289   1.757   5.369  0.5136 -0.7014 -0.1266
  166SAPS  H16X18806   1.304   1.841   5.441 -0.4908 -0.6859  0.0758
  166SAPS  H16Y18807   1.243   1.802   5.279 -2.3088 -0.7677  1.1712
  166SAPS  C31718808   1.429   1.713   5.318  0.1549  0.5620 -0.6125
  166SAPS  H17X18809   1.499   1.795   5.289 -0.9999  2.5895  1.8665
  166SAPS  H17Y18810   1.430   1.648   5.229 -0.3803 -0.0938 -0.1506
  166SAPS  C31818811   1.510   1.638   5.419  0.6618 -0.1846  0.5906
  166SAPS  H18X18812   1.514   1.695   5.514 -0.2004  2.2072 -0.7000
  166SAPS  H18Y18813   1.614   1.629   5.379 -0.2903 -2.4354 -1.6827
  166SAPS  H18Z18814   1.475   1.533   5.427  1.2372 -0.6655 -2.1080
  167SAPS     N18815   5.964   3.770   8.247 -1.2061 -0.1741 -0.8933
  167SAPS   HN118816   6.022   3.854   8.227  0.9117 -1.0517  1.0783
  167SAPS   HN218817   5.864   3.794   8.259 -0.9949  0.2227  0.1706
  167SAPS   HN318818   6.000   3.740   8.340 -2.5627  2.3506  0.5383
  167SAPS   C1218819   5.975   3.670   8.143 -0.2076  0.4587 -0.7474
  167SAPS  H12A18820   5.962   3.721   8.048  0.0818  2.2681  0.1540
  167SAPS   C1318821   6.109   3.585   8.132 -0.4490 -0.5557 -0.2478
  167SAPS  O13A18822   6.202   3.603   8.216  0.1123  0.2910  0.2118
  167SAPS  O13B18823   6.118   3.497   8.043 -0.0195  0.6143  0.2545
  167SAPS   C1118824   5.856   3.571   8.150 -0.0718 -0.5342 -0.1208
  167SAPS  H11A18825   5.861   3.503   8.237 -1.2295  0.9241  1.1511
  167SAPS  H11B18826   5.866   3.514   8.055  3.3130 -2.3397  1.1442
  167SAPS     P18827   5.597   3.555   8.121  0.1228 -0.1001  0.3323
  167SAPS   O1318828   5.615   3.429   8.191 -0.7935 -0.1273 -0.3935
  167SAPS   O1418829   5.477   3.638   8.159 -0.2213  0.1909 -0.5022
  167SAPS   O1218830   5.734   3.639   8.148  0.0205 -0.2017  0.1701
  167SAPS   O1118831   5.596   3.522   7.964  0.5903 -0.1208 -0.1760
  167SAPS    C118832   5.610   3.632   7.873 -0.6796  0.6096 -0.0300
  167SAPS    HA18833   5.549   3.719   7.906 -1.2867 -0.0983  0.7828
  167SAPS    HB18834   5.716   3.663   7.878 -0.4605  0.2935 -2.0487
  167SAPS    C218835   5.569   3.585   7.734 -0.2090 -0.1120  0.1372
  167SAPS    HS18836   5.484   3.650   7.705  0.6159  0.6141 -0.7381
  167SAPS   O2118837   5.542   3.443   7.721  0.2579  0.4003 -0.2707
  167SAPS   C2118838   5.475   3.412   7.613 -0.9463  0.6698  0.1729
  167SAPS   O2218839   5.397   3.481   7.558 -0.4340 -0.2235  0.4012
  167SAPS   C2218840   5.502   3.271   7.583  0.1512  0.1274 -0.3342
  167SAPS   H2R18841   5.604   3.243   7.619  2.2768  1.2649 -4.8455
  167SAPS   H2S18842   5.429   3.212   7.644 -2.5620  2.7711 -0.7988
  167SAPS    C318843   5.687   3.626   7.638 -0.6575  0.2692 -0.0115
  167SAPS    HX18844   5.772   3.560   7.666  0.3467  2.3246  2.1411
  167SAPS    HY18845   5.709   3.733   7.661 -0.1216 -0.0144  0.8728
  167SAPS   O3118846   5.657   3.615   7.494  0.2542 -0.0368 -0.2322
  167SAPS   C3118847   5.611   3.714   7.422 -0.1699 -0.0823  0.6302
  167SAPS   O3218848   5.572   3.821   7.462 -0.4893  0.0826 -0.1258
  167SAPS   C3218849   5.610   3.678   7.271  0.3834  0.0945 -0.9150
  167SAPS   H2X18850   5.644   3.573   7.268 -0.6072 -0.4168  2.0390
  167SAPS   H2Y18851   5.667   3.758   7.218  0.6972  1.2152  1.0351
  167SAPS   C2318852   5.484   3.235   7.431 -0.2834  0.2197 -0.2462
  167SAPS   H3R18853   5.397   3.289   7.388  0.1759  0.6227 -0.6735
  167SAPS   H3S18854   5.458   3.128   7.417  0.0472  0.0859  0.1304
  167SAPS   C2418855   5.623   3.256   7.363  0.3241  0.3980 -0.0973
  167SAPS   H4R18856   5.692   3.176   7.397  1.1055 -0.2388 -2.9627
  167SAPS   H4S18857   5.666   3.354   7.394  0.5661  0.2735 -0.0318
  167SAPS   C2518858   5.605   3.233   7.212  0.3369  0.0276 -0.7759
  167SAPS   H5R18859   5.505   3.195   7.188  0.5668 -0.0839 -1.5671
  167SAPS   C2618860   5.686   3.269   7.111 -0.2335  0.0577 -0.6718
  167SAPS   H6R18861   5.655   3.261   7.005 -1.6445  0.2866 -0.3008
  167SAPS   C2718862   5.822   3.323   7.152 -0.0742 -0.1189 -0.2081
  167SAPS   H7R18863   5.896   3.266   7.092 -1.4611 -0.9002 -1.2308
  167SAPS   H7S18864   5.856   3.290   7.253  0.9836  3.1293  0.6227
  167SAPS   C2818865   5.867   3.468   7.133  0.1154  0.1007 -0.3253
  167SAPS   H8R18866   5.911   3.511   7.224  2.5374 -2.2313 -0.2840
  167SAPS   C2918867   5.864   3.537   7.018 -0.4070 -0.9334 -1.0132
  167SAPS   H9R18868   5.885   3.645   7.017  1.3808 -1.2217  0.6357
  167SAPS  C21018869   5.823   3.473   6.890  0.1204 -0.4195 -0.5517
  167SAPS  H10R18870   5.714   3.473   6.872 -0.1638  1.6850  0.8726
  167SAPS  H10S18871   5.857   3.367   6.891 -0.1777 -0.5118 -0.4118
  167SAPS  C21118872   5.889   3.517   6.764  0.3948  1.2894  0.7354
  167SAPS  H11R18873   5.974   3.586   6.773 -0.5371  2.4278  1.0511
  167SAPS  C21218874   5.843   3.487   6.636  0.1865  0.0794 -0.0874
  167SAPS  H12R18875   5.901   3.534   6.555  1.1187 -0.1010  0.4555
  167SAPS  C21318876   5.725   3.404   6.599 -0.0831 -0.0207  0.8709
  167SAPS  H13R18877   5.682   3.445   6.505  0.2206 -2.0729 -0.2084
  167SAPS  H13S18878   5.655   3.428   6.681 -0.2164  1.2817  0.4076
  167SAPS  C21418879   5.753   3.253   6.584  0.3136 -0.8751 -0.4071
  167SAPS  H14R18880   5.859   3.223   6.585  1.0499  1.4669  1.0229
  167SAPS  C21518881   5.662   3.166   6.561 -0.3408  0.1540  0.3921
  167SAPS  H15R18882   5.690   3.061   6.544  1.4904  0.6639 -0.0725
  167SAPS  C21618883   5.514   3.190   6.554  0.2474 -0.3420 -0.4000
  167SAPS  H16R18884   5.474   3.260   6.629  0.6245 -1.2446  0.6739
  167SAPS  H16S18885   5.473   3.088   6.570 -0.2863 -0.1350 -0.4301
  167SAPS  C21718886   5.473   3.232   6.406  0.5822 -0.8118 -0.6475
  167SAPS  H17R18887   5.518   3.161   6.334 -0.0314  0.2179 -2.0897
  167SAPS  H17S18888   5.533   3.324   6.393  0.3064 -0.2316  1.7056
  167SAPS  C21818889   5.326   3.253   6.376  0.7005  0.0235  0.4588
  167SAPS  H18R18890   5.321   3.291   6.272 -2.3566 -1.0625  0.0844
  167SAPS  H18S18891   5.286   3.332   6.444 -1.3441 -0.8553  0.3596
  167SAPS  C21918892   5.238   3.128   6.375 -0.2322 -0.3037  0.5471
  167SAPS  H19R18893   5.214   3.091   6.477  1.0002  0.9033  1.3067
  167SAPS  H19S18894   5.286   3.042   6.324 -2.8276 -1.8881  0.5841
  167SAPS  C22018895   5.106   3.160   6.306  0.0118 -0.0812  0.2385
  167SAPS  H20R18896   5.031   3.079   6.316  1.0316 -1.0929 -0.1493
  167SAPS  H20S18897   5.109   3.180   6.197  0.5534 -1.0838  0.0623
  167SAPS  H20T18898   5.060   3.248   6.356  1.5611  0.1013  1.4357
  167SAPS   C3318899   5.461   3.663   7.222 -0.0989 -0.0146 -0.0115
  167SAPS   H3X18900   5.401   3.756   7.235  0.7584  0.3598  1.4022
  167SAPS   H3Y18901   5.426   3.601   7.307  0.8863  0.5656  0.8398
  167SAPS   C3418902   5.437   3.611   7.078 -0.0943 -0.2116  0.7176
  167SAPS   H4X18903   5.333   3.576   7.063  0.1140  0.1168 -1.8525
  167SAPS   H4Y18904   5.503   3.523   7.059  0.5482  0.6070 -0.9803
  167SAPS   C3518905   5.477   3.711   6.969 -0.2109 -0.2181  0.4034
  167SAPS   H5X18906   5.586   3.733   6.970 -0.6232  2.3341 -1.3385
  167SAPS   H5Y18907   5.422   3.804   6.995  1.3986  0.4900  1.4580
  167SAPS   C3618908   5.439   3.664   6.824  0.1241  0.3930 -0.1538
  167SAPS   H6X18909   5.329   3.650   6.814 -0.0554  1.7069 -0.2005
  167SAPS   H6Y18910   5.489   3.568   6.799 -0.7948  0.1159 -0.9653
  167SAPS   C3718911   5.487   3.768   6.716 -0.0138 -0.8448 -0.8539
  167SAPS   H7X18912   5.597   3.783   6.708  0.1331 -1.5938 -0.3485
  167SAPS   H7Y18913   5.449   3.868   6.746 -2.6385 -2.0961  0.3293
  167SAPS   C3818914   5.443   3.715   6.583  0.6188 -0.2789  0.0669
  167SAPS   H8X18915   5.333   3.704   6.572  0.7819 -1.1724 -0.8748
  167SAPS   H8Y18916   5.495   3.618   6.568  1.8098  0.4019 -0.3470
  167SAPS   C3918917   5.481   3.820   6.471  0.0020 -0.0473  0.0496
  167SAPS   H9X18918   5.573   3.878   6.491 -0.6718  1.5314 -1.1691
  167SAPS   H9Y18919   5.401   3.896   6.452  0.4198 -0.0465 -1.9462
  167SAPS  C31018920   5.504   3.748   6.340 -1.0817  0.1855 -0.3619
  167SAPS  H10X18921   5.584   3.673   6.355  0.7448  1.6174 -2.2636
  167SAPS  H10Y18922   5.564   3.812   6.271  2.7542 -1.3294  1.3445
  167SAPS  C31118923   5.383   3.666   6.288 -0.2011 -0.3625  0.5827
  167SAPS  H11X18924   5.299   3.737   6.272  0.2163 -0.1389 -0.7233
  167SAPS  H11Y18925   5.363   3.592   6.369  1.8479 -1.7925 -0.1413
  167SAPS  C31218926   5.418   3.592   6.153 -0.3758  0.1475  0.9440
  167SAPS  H12X18927   5.484   3.504   6.169  0.0020 -0.1130 -1.5994
  167SAPS  H12Y18928   5.473   3.665   6.090  1.3873 -2.7180 -1.1180
  167SAPS  C31318929   5.286   3.557   6.087 -0.4547  0.6149 -0.3156
  167SAPS  H13X18930   5.228   3.648   6.061  0.6276  1.4569  0.1673
  167SAPS  H13Y18931   5.212   3.501   6.148 -1.2569  2.4759  0.4989
  167SAPS  C31418932   5.319   3.481   5.957 -0.0486 -0.8153  0.3464
  167SAPS  H14X18933   5.355   3.383   5.993  1.4216 -0.2314  0.5490
  167SAPS  H14Y18934   5.414   3.520   5.916  0.0859  2.8719  3.5937
  167SAPS  C31518935   5.207   3.467   5.856  0.3223  0.2307 -0.5138
  167SAPS  H15X18936   5.108   3.483   5.904 -0.5501 -1.7731 -1.5275
  167SAPS  H15Y18937   5.214   3.367   5.808  0.8182 -0.8906  1.7387
  167SAPS  C31618938   5.197   3.572   5.744  0.2781  1.1675  0.3937
  167SAPS  H16X18939   5.289   3.566   5.682 -0.8222 -1.4464 -1.1606
  167SAPS  H16Y18940   5.182   3.668   5.798 -1.3169 -0.0406  2.2059
  167SAPS  C31718941   5.082   3.541   5.653  0.3973 -0.2601 -0.2539
  167SAPS  H17X18942   5.096   3.447   5.595  2.2229  0.1457 -0.5481
  167SAPS  H17Y18943   5.073   3.621   5.575 -0.6729 -0.1881 -0.0651
  167SAPS  C31818944   4.934   3.548   5.718  0.0469 -0.0796 -0.7194
  167SAPS  H18X18945   4.909   3.446   5.754  1.9474 -0.3998 -0.1860
  167SAPS  H18Y18946   4.863   3.571   5.635 -0.3155  1.5514  0.0065
  167SAPS  H18Z18947   4.926   3.630   5.793  0.9191 -0.3280 -0.3443
  168SAPS     N18948   3.673   2.177   7.673 -0.5493  0.0852  0.4210
  168SAPS   HN118949   3.719   2.187   7.580  0.9665 -1.3082  0.9650
  168SAPS   HN218950   3.732   2.126   7.742  0.2595  0.2945 -0.0907
  168SAPS   HN318951   3.595   2.111   7.656  1.5700 -2.2350 -1.0927
  168SAPS   C1218952   3.640   2.316   7.722 -0.3037 -0.9083  0.0394
  168SAPS  H12A18953   3.613   2.303   7.825 -0.9534 -2.0810 -0.2615
  168SAPS   C1318954   3.754   2.416   7.718 -0.4127  0.0835 -0.0145
  168SAPS  O13A18955   3.870   2.377   7.687 -0.4360  0.1112  0.0563
  168SAPS  O13B18956   3.728   2.540   7.740 -0.7984 -0.0368  0.6382
  168SAPS   C1118957   3.529   2.371   7.635 -0.4346  0.2667 -0.1631
  168SAPS  H11A18958   3.518   2.479   7.660 -0.7655  0.7828 -2.3701
  168SAPS  H11B18959   3.438   2.319   7.672 -0.3399  0.3290  0.1661
  168SAPS     P18960   3.452   2.425   7.396  0.1115  0.1166 -0.2853
  168SAPS   O1318961   3.339   2.476   7.472 -0.4029  0.3505  0.1894
  168SAPS   O1418962   3.529   2.525   7.319 -0.3215 -0.0824 -0.6372
  168SAPS   O1218963   3.550   2.351   7.496  0.1612  0.3660 -0.0109
  168SAPS   O1118964   3.409   2.306   7.297  0.1270 -0.6145 -0.2164
  168SAPS    C118965   3.319   2.347   7.188  0.0398 -0.3478  0.1740
  168SAPS    HA18966   3.217   2.328   7.229  0.5349  1.0922  2.2317
  168SAPS    HB18967   3.320   2.457   7.174 -1.9991 -0.2350  0.5318
  168SAPS    C218968   3.341   2.284   7.051 -0.5942 -0.4370 -0.4254
  168SAPS    HS18969   3.333   2.177   7.079 -2.2540 -0.4259 -0.7315
  168SAPS   O2118970   3.470   2.326   7.011 -0.1774  0.1116 -0.1028
  168SAPS   C2118971   3.513   2.246   6.909  0.0385 -0.2515  0.3814
  168SAPS   O2218972   3.461   2.138   6.883 -0.3380 -0.3253  0.3079
  168SAPS   C2218973   3.635   2.297   6.832  0.0635 -0.3983 -0.3300
  168SAPS   H2R18974   3.665   2.388   6.887  1.1069 -1.4487  0.8911
  168SAPS   H2S18975   3.723   2.231   6.851  0.4809  0.1512 -0.3151
  168SAPS    C318976   3.222   2.327   6.955  0.1565  0.2459  0.8497
  168SAPS    HX18977   3.231   2.438   6.953 -1.2330  0.3736  0.8433
  168SAPS    HY18978   3.129   2.297   7.007  0.1322  0.2535  0.8105
  168SAPS   O3118979   3.240   2.282   6.821  0.1437  0.2207  0.0253
  168SAPS   C3118980   3.204   2.152   6.810 -0.6525 -0.5464 -0.1641
  168SAPS   O3218981   3.154   2.081   6.893 -0.3311 -0.4051 -0.2869
  168SAPS   C3218982   3.239   2.107   6.664 -0.0128 -0.3252  0.7283
  168SAPS   H2X18983   3.201   2.003   6.652 -0.1105 -0.1339 -0.7551
  168SAPS   H2Y18984   3.349   2.093   6.662  0.0754  0.3663 -0.5436
  168SAPS   C2318985   3.599   2.330   6.686 -0.4795 -0.0096 -0.8417
  168SAPS   H3R18986   3.531   2.417   6.696  1.1024  1.1896  0.1348
  168SAPS   H3S18987   3.550   2.240   6.643  2.0705 -1.0958 -1.6810
  168SAPS   C2418988   3.717   2.382   6.608 -0.1137 -0.2738 -0.1370
  168SAPS   H4R18989   3.778   2.449   6.672  2.5712 -1.0414 -1.6982
  168SAPS   H4S18990   3.686   2.453   6.528 -0.7485  0.3651  0.6675
  168SAPS   C2518991   3.821   2.279   6.555 -0.0247 -0.1981 -0.7769
  168SAPS   H5R18992   3.908   2.262   6.619  0.6287 -2.7229 -2.1827
  168SAPS   C2618993   3.802   2.188   6.464 -0.2042  0.9235  0.1943
  168SAPS   H6R18994   3.884   2.123   6.430 -0.3801  0.3921  0.7542
  168SAPS   C2718995   3.681   2.160   6.378  0.5832  0.2378 -0.4656
  168SAPS   H7R18996   3.589   2.198   6.428 -0.6167 -1.8698 -0.9589
  168SAPS   H7S18997   3.672   2.052   6.353  1.8920  0.4994 -2.2653
  168SAPS   C2818998   3.686   2.224   6.241 -0.0143  0.5467  0.2218
  168SAPS   H8R18999   3.765   2.298   6.220  1.9275 -1.4464  0.1585
  168SAPS   C2919000   3.612   2.184   6.134  0.0865  0.0600  0.0205
  168SAPS   H9R19001   3.604   2.249   6.046  2.0000 -1.0147 -1.0137
  168SAPS  C21019002   3.508   2.074   6.132 -0.6684 -0.4291  0.8935
  168SAPS  H10R19003   3.413   2.119   6.167 -0.0753 -0.1304  2.1781
  168SAPS  H10S19004   3.541   1.999   6.208  0.0734  1.3865  2.4463
  168SAPS  C21119005   3.504   2.015   5.992  0.7610  0.1721  0.1292
  168SAPS  H11R19006   3.442   2.076   5.925  1.2731  0.9069  0.3100
  168SAPS  C21219007   3.580   1.913   5.946  0.8459 -0.0736 -0.2939
  168SAPS  H12R19008   3.570   1.889   5.840 -1.1189 -0.9694  0.0449
  168SAPS  C21319009   3.666   1.823   6.036 -0.1409 -0.4384 -0.2519
  168SAPS  H13R19010   3.680   1.722   5.992  0.3918  1.0788 -3.8819
  168SAPS  H13S19011   3.628   1.809   6.140 -1.6675  0.5474 -0.6456
  168SAPS  C21419012   3.805   1.890   6.052 -0.0720  0.1461 -0.2667
  168SAPS  H14R19013   3.802   1.984   6.108 -0.9145  1.0233 -1.7265
  168SAPS  C21519014   3.928   1.832   6.040  0.5513 -0.4500 -0.0964
  168SAPS  H15R19015   4.015   1.895   6.063 -0.7230  0.8069  1.5820
  168SAPS  C21619016   3.960   1.684   6.007  0.1967  0.0482  0.7468
  168SAPS  H16R19017   4.038   1.675   5.928  1.0143  0.3101  1.5086
  168SAPS  H16S19018   3.873   1.631   5.962  1.7121 -0.0030 -2.3369
  168SAPS  C21719019   4.027   1.601   6.121  0.1915 -0.8520  0.3680
  168SAPS  H17R19020   4.127   1.643   6.144 -0.4850  0.7206  0.5298
  168SAPS  H17S19021   4.038   1.497   6.082  0.1963 -1.0685  0.9376
  168SAPS  C21819022   3.961   1.591   6.257 -0.0335  0.4526 -0.5898
  168SAPS  H18R19023   3.975   1.488   6.296 -0.6086  0.1421 -1.1738
  168SAPS  H18S19024   3.850   1.593   6.252 -0.0892  0.0995  0.4130
  168SAPS  C21919025   4.009   1.706   6.358  0.0783 -0.3844 -0.0357
  168SAPS  H19R19026   3.992   1.805   6.312  0.9988  0.0512  0.5355
  168SAPS  H19S19027   4.120   1.707   6.363  0.0729  0.4652 -0.0617
  168SAPS  C22019028   3.950   1.679   6.492 -0.2746  0.2780 -0.7927
  168SAPS  H20R19029   3.839   1.672   6.484 -0.4911  1.0272  1.0197
  168SAPS  H20S19030   3.970   1.767   6.556  1.0807 -0.3683 -0.3177
  168SAPS  H20T19031   3.970   1.581   6.539 -0.2892  0.0928 -1.1712
  168SAPS   C3319032   3.182   2.207   6.556  0.3364  0.0761 -1.3817
  168SAPS   H3X19033   3.206   2.314   6.573 -2.6283  0.9714 -2.2064
  168SAPS   H3Y19034   3.071   2.213   6.559  0.3436  2.0754  2.7929
  168SAPS   C3419035   3.223   2.179   6.417 -0.4061 -0.1920  1.1752
  168SAPS   H4X19036   3.242   2.070   6.410  1.9727  0.2575 -2.1065
  168SAPS   H4Y19037   3.317   2.236   6.401 -1.9498  2.0489 -0.6891
  168SAPS   C3519038   3.123   2.209   6.306  0.3824 -1.1344  0.1860
  168SAPS   H5X19039   3.024   2.160   6.314  0.3366 -0.8859  1.4167
  168SAPS   H5Y19040   3.169   2.168   6.214  0.6063  0.9386 -0.6826
  168SAPS   C3619041   3.104   2.358   6.285 -0.5771  0.0833  0.7044
  168SAPS   H6X19042   3.204   2.403   6.276 -0.6235 -0.2051 -2.0508
  168SAPS   H6Y19043   3.052   2.405   6.371  0.7440  0.5626  1.2591
  168SAPS   C3719044   3.045   2.381   6.144 -0.1881  0.7394  0.0751
  168SAPS   H7X19045   3.007   2.485   6.132 -1.9354  0.0591 -0.5596
  168SAPS   H7Y19046   2.958   2.313   6.135 -1.4421  2.0238  1.8109
  168SAPS   C3819047   3.150   2.356   6.026 -0.5493 -0.2616  0.4234
  168SAPS   H8X19048   3.140   2.245   6.022 -2.6368 -0.0757 -0.6343
  168SAPS   H8Y19049   3.252   2.388   6.056 -0.4648  1.9620 -1.9305
  168SAPS   C3919050   3.115   2.413   5.886 -0.4386  0.3392  0.5258
  168SAPS   H9X19051   3.204   2.414   5.820  0.0400  3.0063  1.1024
  168SAPS   H9Y19052   3.101   2.523   5.894  0.0162  0.7256 -2.5739
  168SAPS  C31019053   2.997   2.350   5.821 -0.0437  0.2867 -0.2229
  168SAPS  H10X19054   2.921   2.375   5.898  0.4961  0.1936  0.3455
  168SAPS  H10Y19055   2.990   2.240   5.808 -2.5374  0.4574 -0.7516
  168SAPS  C31119056   2.960   2.417   5.687 -0.7556  0.4690  0.4493
  168SAPS  H11X19057   3.051   2.456   5.636 -1.5205 -0.1874 -1.5201
  168SAPS  H11Y19058   2.886   2.499   5.701 -1.5641  0.0946 -1.2705
  168SAPS  C31219059   2.880   2.322   5.592  0.1250 -0.0684  0.2041
  168SAPS  H12X19060   2.804   2.264   5.650 -1.6126  1.1327 -0.7845
  168SAPS  H12Y19061   2.944   2.239   5.555  0.9408  0.4501  0.4298
  168SAPS  C31319062   2.809   2.388   5.475  0.2381 -0.1302 -0.0602
  168SAPS  H13X19063   2.720   2.438   5.520 -0.9365 -0.4959 -1.8646
  168SAPS  H13Y19064   2.764   2.308   5.413 -0.4800  0.0388  0.2254
  168SAPS  C31419065   2.902   2.475   5.396  0.2023 -0.7966  0.4462
  168SAPS  H14X19066   2.941   2.555   5.462  2.9459 -2.0267  0.4602
  168SAPS  H14Y19067   2.841   2.526   5.318  1.2758 -0.0311  0.0974
  168SAPS  C31519068   3.028   2.409   5.338 -0.3402 -0.0819 -0.6430
  168SAPS  H15X19069   3.080   2.358   5.422 -2.4474 -2.5513 -0.6872
  168SAPS  H15Y19070   3.089   2.494   5.301 -1.9971  1.2687 -0.3962
  168SAPS  C31619071   2.998   2.296   5.231 -0.1055  0.1065  0.1538
  168SAPS  H16X19072   2.929   2.329   5.151  1.2180  1.8075 -0.3523
  168SAPS  H16Y19073   2.960   2.204   5.280  1.2930 -0.5165  0.1140
  168SAPS  C31719074   3.118   2.251   5.159  0.6098 -0.2682  0.3083
  168SAPS  H17X19075   3.200   2.215   5.225 -0.4294  1.6468  2.8207
  168SAPS  H17Y19076   3.161   2.339   5.108 -0.8643  1.0144  1.1819
  168SAPS  C31819077   3.092   2.138   5.056  0.0683 -0.0684 -0.0731
  168SAPS  H18X19078   3.185   2.115   5.001 -1.5613 -2.6909 -1.9681
  168SAPS  H18Y19079   3.010   2.160   4.985  2.1686  1.0117 -2.2835
  168SAPS  H18Z19080   3.054   2.047   5.108  0.8584 -0.9749 -1.0571
  169SAPS     N19081   5.296   5.326   7.566 -0.2699 -0.2483  0.1964
  169SAPS   HN119082   5.271   5.419   7.605  0.3645  1.0425 -2.2653
  169SAPS   HN219083   5.384   5.337   7.511  0.6810 -3.0488  1.0169
  169SAPS   HN319084   5.224   5.304   7.494  0.5266 -0.6588 -0.4907
  169SAPS   C1219085   5.304   5.226   7.675 -0.6187 -0.0618 -0.0356
  169SAPS  H12A19086   5.373   5.260   7.751 -1.6704  1.7374  0.1776
  169SAPS   C1319087   5.170   5.228   7.756  0.0579  0.0711 -0.1305
  169SAPS  O13A19088   5.082   5.319   7.739 -0.2445 -0.1094  0.1217
  169SAPS  O13B19089   5.166   5.164   7.864  0.1550  1.1092  0.2440
  169SAPS   C1119090   5.352   5.093   7.629  0.0346 -0.3880  0.6179
  169SAPS  H11A19091   5.286   5.047   7.553  3.3267 -2.4567 -1.2499
  169SAPS  H11B19092   5.349   5.015   7.708  1.1650 -1.2382 -0.1485
  169SAPS     P19093   5.562   5.002   7.475  0.3536  0.3495  0.0481
  169SAPS   O1319094   5.677   5.083   7.428  0.2747  0.2225  0.1128
  169SAPS   O1419095   5.597   4.879   7.549  0.4542 -0.1107 -0.5455
  169SAPS   O1219096   5.484   5.107   7.570  0.1303 -0.4406  0.1258
  169SAPS   O1119097   5.472   4.968   7.360 -0.3164 -0.0532  0.8554
  169SAPS    C119098   5.432   5.049   7.251 -0.0655  0.4509 -0.3571
  169SAPS    HA19099   5.466   5.154   7.267 -0.3110  0.4037  0.5110
  169SAPS    HB19100   5.475   5.016   7.155 -2.4850 -1.7076 -0.8025
  169SAPS    C219101   5.279   5.055   7.223 -0.3186  0.0415 -0.4873
  169SAPS    HS19102   5.230   5.102   7.311 -0.5300 -0.7250 -0.1913
  169SAPS   O2119103   5.229   4.921   7.197  0.2967 -0.4606  0.2423
  169SAPS   C2119104   5.180   4.850   7.299 -0.0838  0.6366 -0.2975
  169SAPS   O2219105   5.146   4.887   7.408  0.7493 -0.0325 -0.9138
  169SAPS   C2219106   5.177   4.701   7.245 -0.0025 -0.1675  0.1396
  169SAPS   H2R19107   5.249   4.703   7.160 -0.9116  0.7185 -0.6181
  169SAPS   H2S19108   5.236   4.638   7.316  4.0253  1.9589 -1.0244
  169SAPS    C319109   5.250   5.153   7.109  0.5046  0.4552 -0.3659
  169SAPS    HX19110   5.287   5.253   7.141  1.9811  0.4685 -1.9463
  169SAPS    HY19111   5.141   5.166   7.095  0.5281  1.3495  0.2012
  169SAPS   O3119112   5.319   5.105   6.987  0.0793 -0.0454 -0.4672
  169SAPS   C3119113   5.282   5.166   6.872  0.2218 -0.8510 -0.0834
  169SAPS   O3219114   5.192   5.248   6.865 -0.0589 -1.0589  0.4255
  169SAPS   C3219115   5.352   5.100   6.747  1.0097 -0.4263  0.4853
  169SAPS   H2X19116   5.277   5.020   6.728 -1.1007  0.7287  3.2441
  169SAPS   H2Y19117   5.444   5.050   6.785 -0.1326 -0.2981  3.7063
  169SAPS   C2319118   5.037   4.647   7.207  0.2076  0.3683  0.2384
  169SAPS   H3R19119   4.976   4.710   7.138 -0.1887 -1.0319 -0.7330
  169SAPS   H3S19120   4.975   4.637   7.298  0.0537 -1.4837 -0.0370
  169SAPS   C2419121   5.044   4.505   7.152 -0.3628 -0.2723  0.3260
  169SAPS   H4R19122   5.086   4.440   7.232  0.5944  0.1685  0.1984
  169SAPS   H4S19123   5.116   4.497   7.067  1.4444 -1.1886  1.8578
  169SAPS   C2519124   4.916   4.465   7.098  0.0213 -0.1068  0.3777
  169SAPS   H5R19125   4.836   4.461   7.173  1.2521 -0.0158  1.7580
  169SAPS   C2619126   4.892   4.427   6.968  0.5091  0.1790  0.0424
  169SAPS   H6R19127   4.792   4.407   6.927  0.9332  3.1715 -2.8331
  169SAPS   C2719128   4.980   4.443   6.842  0.4187 -0.4777 -1.1009
  169SAPS   H7R19129   4.948   4.375   6.761  3.5846 -2.7947 -0.6022
  169SAPS   H7S19130   5.084   4.413   6.868  0.4579 -0.3197 -1.0772
  169SAPS   C2819131   4.995   4.582   6.787  0.6586 -0.2677  0.2728
  169SAPS   H8R19132   5.046   4.639   6.866  2.7860 -3.0549  1.0536
  169SAPS   C2919133   4.928   4.626   6.681 -0.3422  0.1058  0.0651
  169SAPS   H9R19134   4.911   4.733   6.659 -0.0722 -0.0028 -0.6925
  169SAPS  C21019135   4.862   4.532   6.581 -0.3509 -0.4993 -0.1934
  169SAPS  H10R19136   4.783   4.467   6.625 -0.6814 -0.7093 -1.0811
  169SAPS  H10S19137   4.934   4.449   6.564  0.7508  0.3354  0.3091
  169SAPS  C21119138   4.807   4.600   6.460  0.0146  0.1869 -0.0151
  169SAPS  H11R19139   4.721   4.666   6.481 -1.4306 -1.1995 -1.2846
  169SAPS  C21219140   4.844   4.583   6.332  0.0716 -0.0613  0.3053
  169SAPS  H12R19141   4.780   4.635   6.259  0.0525  0.3708  0.6291
  169SAPS  C21319142   4.964   4.511   6.277  0.3545  0.8999  0.2952
  169SAPS  H13R19143   4.938   4.434   6.201 -0.3557  2.0782 -0.6926
  169SAPS  H13S19144   5.021   4.452   6.352  2.9432 -0.3360 -2.4324
  169SAPS  C21419145   5.069   4.605   6.222 -0.2219  0.1983 -0.1732
  169SAPS  H14R19146   5.056   4.702   6.272  2.3473  0.8922 -0.7195
  169SAPS  C21519147   5.155   4.578   6.118  0.4069  0.2830  0.1786
  169SAPS  H15R19148   5.221   4.660   6.085 -0.2659  1.0772  0.7758
  169SAPS  C21619149   5.167   4.445   6.046  0.0463  0.5603  0.5793
  169SAPS  H16R19150   5.095   4.366   6.075  1.5617 -0.7636  0.9123
  169SAPS  H16S19151   5.268   4.401   6.063 -0.0711  0.3265  0.6755
  169SAPS  C21719152   5.134   4.461   5.890 -1.0886 -0.2614  0.4932
  169SAPS  H17R19153   5.155   4.363   5.843  1.7672 -0.1633  1.3587
  169SAPS  H17S19154   5.215   4.530   5.856 -1.7686 -0.4263 -1.5934
  169SAPS  C21819155   4.996   4.515   5.850 -0.7430 -0.2874 -0.2759
  169SAPS  H18R19156   5.001   4.623   5.876  0.4626 -0.8519  2.1016
  169SAPS  H18S19157   4.914   4.467   5.906 -1.6066 -0.9836 -2.0708
  169SAPS  C21919158   4.961   4.492   5.702 -0.1710 -0.0863  0.6730
  169SAPS  H19R19159   5.004   4.394   5.672  1.7729  0.9977 -0.2979
  169SAPS  H19S19160   5.019   4.567   5.644  1.0470 -1.7019 -0.2709
  169SAPS  C22019161   4.811   4.496   5.678 -0.5269  0.2796  0.2932
  169SAPS  H20R19162   4.749   4.442   5.754 -0.7698  0.5984  0.3235
  169SAPS  H20S19163   4.792   4.448   5.579 -0.8797 -3.1294  1.8585
  169SAPS  H20T19164   4.768   4.598   5.676  2.1049  1.4930  1.2726
  169SAPS   C3319165   5.361   5.197   6.631 -0.3749 -0.2889 -0.2540
  169SAPS   H3X19166   5.432   5.151   6.559  0.7114 -1.2504  1.3680
  169SAPS   H3Y19167   5.401   5.295   6.667 -1.5740  0.2364 -0.3053
  169SAPS   C3419168   5.243   5.208   6.539  0.4841 -0.2204  0.4643
  169SAPS   H4X19169   5.162   5.263   6.590  0.2022 -1.8775  1.9051
  169SAPS   H4Y19170   5.210   5.103   6.528 -1.2502  0.0969  2.1851
  169SAPS   C3519171   5.266   5.278   6.409  0.7373 -0.1000  0.2180
  169SAPS   H5X19172   5.297   5.383   6.428  0.8530 -0.1871  0.5078
  169SAPS   H5Y19173   5.168   5.290   6.357  0.6529 -1.4854  0.0149
  169SAPS   C3619174   5.349   5.189   6.318  0.6039 -0.3843  0.1106
  169SAPS   H6X19175   5.305   5.087   6.326 -1.3985  0.3063 -1.3679
  169SAPS   H6Y19176   5.457   5.198   6.343  0.5658  1.9183 -0.3423
  169SAPS   C3719177   5.342   5.231   6.173 -0.1637  0.8419 -0.4370
  169SAPS   H7X19178   5.244   5.281   6.159  0.7535  3.1020  0.7471
  169SAPS   H7Y19179   5.344   5.135   6.117 -1.3245  0.9348 -0.6582
  169SAPS   C3819180   5.460   5.316   6.133  0.5180 -0.4259  0.0981
  169SAPS   H8X19181   5.556   5.259   6.126  1.3610  0.9822 -0.0999
  169SAPS   H8Y19182   5.475   5.392   6.213  0.3241 -0.8529  0.5467
  169SAPS   C3919183   5.438   5.398   6.004 -0.2677  0.3992  0.1563
  169SAPS   H9X19184   5.515   5.477   5.997  1.7689 -1.6489 -3.2995
  169SAPS   H9Y19185   5.340   5.449   6.018 -1.3313 -1.7695  1.2156
  169SAPS  C31019186   5.431   5.313   5.879  0.1979 -0.3959  0.2923
  169SAPS  H10X19187   5.355   5.234   5.894  0.2096 -0.4533  0.0583
  169SAPS  H10Y19188   5.525   5.255   5.868  2.0020  1.9233  2.3894
  169SAPS  C31119189   5.406   5.396   5.751  0.3511  0.5643 -0.1389
  169SAPS  H11X19190   5.498   5.456   5.735  0.0963  1.2152  0.7359
  169SAPS  H11Y19191   5.324   5.470   5.761  1.0772  1.3923 -0.1642
  169SAPS  C31219192   5.401   5.306   5.625  0.3833  0.7795  1.0356
  169SAPS  H12X19193   5.334   5.218   5.634  1.9674 -0.7281 -0.9922
  169SAPS  H12Y19194   5.501   5.259   5.618  0.1737  0.3399  0.9911
  169SAPS  C31319195   5.365   5.389   5.501 -0.0123  0.3467  0.6558
  169SAPS  H13X19196   5.400   5.326   5.416 -0.9773  0.7033 -0.0166
  169SAPS  H13Y19197   5.416   5.487   5.491 -4.2854  2.7587  0.3712
  169SAPS  C31419198   5.213   5.403   5.478  0.1477  0.0563  1.3892
  169SAPS  H14X19199   5.172   5.453   5.569 -2.1255 -1.3866  1.2468
  169SAPS  H14Y19200   5.165   5.303   5.484  0.1938 -0.1439 -0.9600
  169SAPS  C31519201   5.165   5.488   5.352 -0.1126  0.2654 -0.4295
  169SAPS  H15X19202   5.179   5.423   5.262  2.5043 -0.3014  0.3076
  169SAPS  H15Y19203   5.214   5.588   5.351 -0.4427  0.4426  0.7325
  169SAPS  C31619204   5.013   5.517   5.370  0.0070  0.5667  0.0504
  169SAPS  H16X19205   4.987   5.569   5.464  0.0843  0.9979 -0.1656
  169SAPS  H16Y19206   4.961   5.419   5.383  1.7530 -0.2958  0.9232
  169SAPS  C31719207   4.950   5.573   5.242 -0.4295  0.0314 -0.5133
  169SAPS  H17X19208   4.840   5.555   5.239 -0.2431 -1.3261  0.3292
  169SAPS  H17Y19209   5.004   5.528   5.156 -1.2342 -0.8740 -0.5559
  169SAPS  C31819210   4.963   5.725   5.235 -0.6608  0.2084 -0.3044
  169SAPS  H18X19211   5.070   5.754   5.235 -0.6844  0.3489 -1.5361
  169SAPS  H18Y19212   4.907   5.773   5.318  2.8405  1.3265  1.6137
  169SAPS  H18Z19213   4.919   5.745   5.135  0.7458 -2.2557 -1.5049
  170SAPS     N19214   0.033   2.185   7.755 -0.5862 -0.2749  0.3358
  170SAPS   HN119215   0.111   2.250   7.734 -0.1239 -1.3373 -1.4893
  170SAPS   HN219216   0.057   2.085   7.774 -1.7024 -0.4486  0.9076
  170SAPS   HN319217  -0.031   2.186   7.674 -2.1969 -1.3955  1.5237
  170SAPS   C1219218  -0.059   2.238   7.864  0.3711 -0.0449 -0.2753
  170SAPS  H12A19219  -0.129   2.156   7.873  1.5971 -0.8737  3.2930
  170SAPS   C1319220   0.000   2.228   8.009  0.5118  0.2650  0.0362
  170SAPS  O13A19221   0.118   2.182   8.023 -0.1070 -0.2081  0.1386
  170SAPS  O13B19222  -0.075   2.268   8.099 -0.1575 -0.1783 -0.0265
  170SAPS   C1119223  -0.131   2.374   7.834  0.2805  0.1756 -0.2672
  170SAPS  H11A19224  -0.061   2.450   7.874 -0.1761  0.6034 -0.2619
  170SAPS  H11B19225  -0.217   2.376   7.904  0.5224 -0.9311  0.0756
  170SAPS     P19226  -0.289   2.477   7.656  0.4577  0.0163 -0.4242
  170SAPS   O1319227  -0.405   2.398   7.705  0.5198 -0.7807 -0.2694
  170SAPS   O1419228  -0.267   2.617   7.704 -0.1193  0.6468  0.0371
  170SAPS   O1219229  -0.158   2.396   7.698  0.2796  0.2543  0.2610
  170SAPS   O1119230  -0.288   2.480   7.501  0.2159  0.4478  0.5254
  170SAPS    C119231  -0.192   2.404   7.420 -0.3352 -0.0980 -0.1328
  170SAPS    HA19232  -0.087   2.430   7.445 -0.3023 -0.9663  0.6883
  170SAPS    HB19233  -0.206   2.299   7.454 -2.4277  0.0666 -0.3698
  170SAPS    C219234  -0.214   2.398   7.273 -0.1767  0.5304  0.2915
  170SAPS    HS19235  -0.144   2.318   7.238 -0.1994  0.9591 -0.7861
  170SAPS   O2119236  -0.176   2.522   7.210  0.1732 -0.5760 -0.0619
  170SAPS   C2119237  -0.149   2.518   7.085  0.7116 -0.6356  0.6335
  170SAPS   O2219238  -0.148   2.415   7.024 -0.3417 -0.1144 -0.1898
  170SAPS   C2219239  -0.125   2.662   7.040 -0.1712 -0.4906 -0.4220
  170SAPS   H2R19240  -0.211   2.720   7.080  0.6507 -0.5620  1.5501
  170SAPS   H2S19241  -0.034   2.705   7.087 -0.1882  0.7543 -1.4675
  170SAPS    C319242  -0.362   2.362   7.241  0.4625 -0.4770  1.1252
  170SAPS    HX19243  -0.415   2.459   7.258  1.1652  0.0263  0.4923
  170SAPS    HY19244  -0.399   2.291   7.318 -1.0188 -0.3145  0.5895
  170SAPS   O3119245  -0.382   2.311   7.107  0.4345  1.0411 -0.0163
  170SAPS   C3119246  -0.320   2.195   7.079 -0.3430  0.4454 -0.3943
  170SAPS   O3219247  -0.264   2.128   7.167 -0.6512  0.0039 -0.1039
  170SAPS   C3219248  -0.339   2.161   6.932 -0.2972 -0.4976 -0.4522
  170SAPS   H2X19249  -0.292   2.243   6.873  0.0340 -1.1193 -1.0633
  170SAPS   H2Y19250  -0.448   2.153   6.910 -0.6304  0.7929  0.5706
  170SAPS   C2319251  -0.120   2.669   6.887 -0.5559  0.3066  0.5451
  170SAPS   H3R19252  -0.204   2.607   6.849 -0.9862  0.6280  0.9576
  170SAPS   H3S19253  -0.027   2.620   6.851 -0.1964  0.7254  0.8821
  170SAPS   C2419254  -0.134   2.813   6.840  0.2500 -0.6339 -0.4215
  170SAPS   H4R19255  -0.045   2.875   6.861  0.0694 -0.2519 -0.7558
  170SAPS   H4S19256  -0.218   2.867   6.889  0.6164 -0.2937 -0.1729
  170SAPS   C2519257  -0.173   2.813   6.693 -0.4154  0.9281  0.1908
  170SAPS   H5R19258  -0.132   2.727   6.637 -0.3816  0.7523  0.4847
  170SAPS   C2619259  -0.234   2.913   6.628 -1.9505  0.0248 -0.3267
  170SAPS   H6R19260  -0.258   2.902   6.521 -2.9455 -3.2475  0.1336
  170SAPS   C2719261  -0.281   3.038   6.690  0.0980  0.3440  0.6601
  170SAPS   H7R19262  -0.331   3.005   6.784 -1.0774  1.6132  0.5117
  170SAPS   H7S19263  -0.359   3.098   6.639  0.7916  0.8549  0.1860
  170SAPS   C2819264  -0.172   3.136   6.725 -0.3831 -0.0677  0.4192
  170SAPS   H8R19265  -0.143   3.151   6.830  3.4333 -1.9116 -0.1932
  170SAPS   C2919266  -0.096   3.202   6.634  0.2646 -0.2501 -0.1695
  170SAPS   H9R19267  -0.007   3.253   6.673  0.3883 -1.5415  1.3368
  170SAPS  C21019268  -0.119   3.195   6.487 -0.4742 -0.1442 -0.2456
  170SAPS  H10R19269  -0.223   3.214   6.454  0.0548  0.3848 -1.6529
  170SAPS  H10S19270  -0.103   3.092   6.451 -0.0604  0.2825 -1.3026
  170SAPS  C21119271  -0.030   3.299   6.417 -0.4174 -0.2227 -0.3125
  170SAPS  H11R19272  -0.042   3.405   6.445 -2.7321 -0.8638  1.4292
  170SAPS  C21219273   0.072   3.263   6.333  0.1056 -0.5547  0.4197
  170SAPS  H12R19274   0.138   3.343   6.296  0.3115 -0.2728  1.3593
  170SAPS  C21319275   0.094   3.136   6.259 -0.2650 -0.1902 -0.2808
  170SAPS  H13R19276   0.105   3.161   6.151 -0.5930  3.3573  0.4116
  170SAPS  H13S19277  -0.001   3.078   6.267 -0.1529 -0.2642  0.5878
  170SAPS  C21419278   0.217   3.087   6.330 -0.2882 -0.0290 -0.1907
  170SAPS  H14R19279   0.202   3.070   6.437 -0.8363  1.7371  0.0456
  170SAPS  C21519280   0.347   3.095   6.288  0.2361  0.2105 -0.7474
  170SAPS  H15R19281   0.435   3.074   6.352  0.0583 -0.5714 -0.7479
  170SAPS  C21619282   0.404   3.150   6.164  0.3627 -0.3623  0.2836
  170SAPS  H16R19283   0.324   3.138   6.087  1.3800  0.2975 -0.9165
  170SAPS  H16S19284   0.490   3.097   6.117 -1.4448 -0.8451 -2.7241
  170SAPS  C21719285   0.445   3.294   6.178 -0.1599 -0.2482  0.6725
  170SAPS  H17R19286   0.548   3.306   6.217  0.4263 -0.1618 -0.8432
  170SAPS  H17S19287   0.387   3.364   6.241  0.6514  2.4215 -1.3813
  170SAPS  C21819288   0.462   3.374   6.047 -0.4910 -1.0100 -0.1547
  170SAPS  H18R19289   0.547   3.353   5.978 -0.7285 -0.9018 -0.4846
  170SAPS  H18S19290   0.489   3.476   6.079 -1.1784 -1.1042  0.7511
  170SAPS  C21919291   0.337   3.371   5.957  0.4514 -0.3070 -0.6788
  170SAPS  H19R19292   0.245   3.407   6.007  0.0037  1.8222 -2.8325
  170SAPS  H19S19293   0.316   3.271   5.914  0.1470  0.3091 -2.0309
  170SAPS  C22019294   0.352   3.462   5.837  0.9271 -0.1652 -0.1382
  170SAPS  H20R19295   0.261   3.458   5.773  0.7422 -0.4158  0.1328
  170SAPS  H20S19296   0.435   3.429   5.772 -1.2098 -0.5221 -2.8874
  170SAPS  H20T19297   0.358   3.568   5.870  0.2701  0.8364 -2.9418
  170SAPS   C3319298  -0.284   2.025   6.900  0.1481  0.8360  0.2069
  170SAPS   H3X19299  -0.312   1.943   6.970  1.2245 -0.1891 -0.5062
  170SAPS   H3Y19300  -0.174   2.033   6.912  0.6031 -1.3721 -1.7010
  170SAPS   C3419301  -0.305   1.973   6.759  0.4578  1.1759 -0.3055
  170SAPS   H4X19302  -0.414   1.975   6.736  0.0389 -0.9683  1.2106
  170SAPS   H4Y19303  -0.269   1.870   6.741 -1.8394 -0.2633  2.6127
  170SAPS   C3519304  -0.253   2.068   6.645 -0.0167 -0.2414 -0.1124
  170SAPS   H5X19305  -0.142   2.066   6.637 -0.1108  0.9727 -4.5058
  170SAPS   H5Y19306  -0.288   2.170   6.672  0.4637  0.1639 -0.9708
  170SAPS   C3619307  -0.302   2.031   6.500  0.5524  0.0655 -0.6772
  170SAPS   H6X19308  -0.413   2.029   6.505  0.5418  1.8605  1.4232
  170SAPS   H6Y19309  -0.275   1.924   6.491 -1.6451 -0.8392  1.9394
  170SAPS   C3719310  -0.257   2.130   6.398  0.5379 -0.0093  0.1207
  170SAPS   H7X19311  -0.147   2.132   6.389  0.4468 -1.6050 -2.8751
  170SAPS   H7Y19312  -0.293   2.228   6.434  0.1379 -0.5348  1.1862
  170SAPS   C3819313  -0.312   2.094   6.255 -0.3256  0.3737 -0.5075
  170SAPS   H8X19314  -0.421   2.075   6.260  0.0349 -1.6577  1.1487
  170SAPS   H8Y19315  -0.280   1.997   6.211  0.6421 -0.3025  1.5223
  170SAPS   C3919316  -0.269   2.207   6.159 -0.0087  0.2704 -0.3002
  170SAPS   H9X19317  -0.160   2.186   6.156  0.0397  0.3803  0.4667
  170SAPS   H9Y19318  -0.296   2.307   6.200  0.3176  0.6033 -0.8899
  170SAPS  C31019319  -0.319   2.181   6.018 -0.1102  0.1938 -0.6619
  170SAPS  H10X19320  -0.424   2.147   6.024  0.3736 -1.1104  1.5897
  170SAPS  H10Y19321  -0.267   2.087   5.986 -0.6529  0.0799 -1.2264
  170SAPS  C31119322  -0.310   2.300   5.916  0.1992  0.8951  0.3479
  170SAPS  H11X19323  -0.204   2.333   5.909  0.6790 -0.3238  1.3712
  170SAPS  H11Y19324  -0.359   2.389   5.959  0.1990  1.3358 -0.5449
  170SAPS  C31219325  -0.355   2.261   5.772  0.0507 -1.0495  0.0354
  170SAPS  H12X19326  -0.316   2.338   5.702 -2.1580  0.0526 -0.0461
  170SAPS  H12Y19327  -0.466   2.268   5.772  0.1325  0.4982 -0.0547
  170SAPS  C31319328  -0.293   2.131   5.715 -0.3417 -0.6831  0.1186
  170SAPS  H13X19329  -0.326   2.046   5.779  1.4904 -2.2776 -0.9564
  170SAPS  H13Y19330  -0.187   2.124   5.745 -1.3201 -2.0531  3.9072
  170SAPS  C31419331  -0.325   2.102   5.571  0.5522 -0.5382 -0.0864
  170SAPS  H14X19332  -0.262   2.018   5.534  0.1965 -0.7194 -0.2799
  170SAPS  H14Y19333  -0.289   2.188   5.511  1.0787 -1.0116 -0.4660
  170SAPS  C31519334  -0.471   2.076   5.552  0.2466 -0.0346  0.2128
  170SAPS  H15X19335  -0.518   2.176   5.567  1.8755  0.8534 -0.3117
  170SAPS  H15Y19336  -0.504   2.002   5.628  0.1344 -0.0341  0.1646
  170SAPS  C31619337  -0.509   2.015   5.418 -0.0136  0.6322  0.1754
  170SAPS  H16X19338  -0.616   1.991   5.434  0.4591 -0.5558  1.8235
  170SAPS  H16Y19339  -0.462   1.915   5.421 -1.0123  0.1429  3.2396
  170SAPS  C31719340  -0.472   2.083   5.292 -0.1969  0.1360  0.5704
  170SAPS  H17X19341  -0.362   2.097   5.295 -0.0473 -0.8422  0.0607
  170SAPS  H17Y19342  -0.532   2.177   5.290 -2.5485 -1.2603  1.9518
  170SAPS  C31819343  -0.510   2.004   5.161  0.0260 -0.0945 -0.5409
  170SAPS  H18X19344  -0.422   1.983   5.098  0.5788 -3.9816  1.2395
  170SAPS  H18Y19345  -0.586   2.060   5.102 -1.2639  0.7751  1.8210
  170SAPS  H18Z19346  -0.555   1.908   5.195  0.9719 -0.0077  1.0451
  171SAPS     N19347   0.432   3.126   7.670  0.4263 -0.3038  0.0659
  171SAPS   HN119348   0.416   3.224   7.701 -0.3472 -0.3538 -0.1772
  171SAPS   HN219349   0.365   3.093   7.598  1.0926 -0.7280 -0.3673
  171SAPS   HN319350   0.414   3.073   7.758 -1.6035  0.0030 -0.1213
  171SAPS   C1219351   0.568   3.099   7.616  0.3118 -0.2099 -0.4400
  171SAPS  H12A19352   0.581   3.162   7.530  0.6682 -2.5857 -2.2383
  171SAPS   C1319353   0.689   3.142   7.709 -0.0695 -0.5719 -0.4450
  171SAPS  O13A19354   0.674   3.191   7.827 -0.1171  0.9116  0.4052
  171SAPS  O13B19355   0.807   3.152   7.656  0.7504 -0.1073  0.0134
  171SAPS   C1119356   0.578   2.949   7.580  0.2361  0.6212 -0.1844
  171SAPS  H11A19357   0.680   2.942   7.537  0.5617 -1.0901  0.7614
  171SAPS  H11B19358   0.497   2.927   7.507 -0.4851  0.5400  0.6222
  171SAPS     P19359   0.558   2.710   7.713  0.0420  0.3444  0.1839
  171SAPS   O1319360   0.608   2.660   7.845  0.1550 -0.1149  0.3441
  171SAPS   O1419361   0.416   2.679   7.681  0.3781  0.0147 -0.0995
  171SAPS   O1219362   0.570   2.867   7.699  0.5105 -0.9329 -0.0271
  171SAPS   O1119363   0.646   2.646   7.596  0.0920  0.4068 -0.1681
  171SAPS    C119364   0.603   2.557   7.494 -0.8287  0.4334 -0.3662
  171SAPS    HA19365   0.674   2.471   7.493 -0.3858  0.7442  1.3161
  171SAPS    HB19366   0.500   2.520   7.512  0.1520 -3.1455 -1.2446
  171SAPS    C219367   0.603   2.634   7.357 -0.8747  0.0243 -0.1918
  171SAPS    HS19368   0.519   2.707   7.359 -1.1331 -0.2752 -0.0820
  171SAPS   O2119369   0.600   2.541   7.251 -0.2601 -0.0701  0.5050
  171SAPS   C2119370   0.488   2.513   7.194  0.6276 -0.4206  0.4979
  171SAPS   O2219371   0.376   2.538   7.232  0.0286  0.3222 -0.1565
  171SAPS   C2219372   0.522   2.433   7.065 -0.0844  0.5491  0.3238
  171SAPS   H2R19373   0.620   2.381   7.071  1.1617  2.8933  1.7923
  171SAPS   H2S19374   0.439   2.362   7.047  1.0272 -0.1676 -2.4467
  171SAPS    C319375   0.740   2.711   7.344 -0.2994  0.1629 -0.0386
  171SAPS    HX19376   0.828   2.653   7.377 -0.9439 -1.0693 -0.4308
  171SAPS    HY19377   0.738   2.795   7.417 -0.6758  0.0916  0.0354
  171SAPS   O3119378   0.760   2.772   7.205  0.4558  0.4425  0.0264
  171SAPS   C3119379   0.786   2.899   7.192 -0.0171  0.5533  0.5138
  171SAPS   O3219380   0.823   2.972   7.281  0.4297  0.7373  0.7914
  171SAPS   C3219381   0.778   2.948   7.048 -0.7722 -0.0225 -0.5078
  171SAPS   H2X19382   0.670   2.930   7.027 -0.8600 -0.0704 -0.0296
  171SAPS   H2Y19383   0.836   2.885   6.978  0.6078 -0.0009  0.5596
  171SAPS   C2319384   0.529   2.523   6.944  0.2010 -0.4680  0.2300
  171SAPS   H3R19385   0.585   2.460   6.871  1.5357 -0.1023  0.9030
  171SAPS   H3S19386   0.584   2.620   6.952  1.0963 -0.9796  0.4883
  171SAPS   C2419387   0.396   2.554   6.872 -0.5094  0.2272 -0.6021
  171SAPS   H4R19388   0.360   2.453   6.844  0.6826 -0.4804  0.3387
  171SAPS   H4S19389   0.422   2.599   6.774 -2.9102 -1.5432 -2.1603
  171SAPS   C2519390   0.296   2.618   6.959 -0.0093 -0.1742 -0.1453
  171SAPS   H5R19391   0.242   2.549   7.026  0.9241 -1.7648 -0.9453
  171SAPS   C2619392   0.266   2.748   6.958  0.8082  0.3529  0.6112
  171SAPS   H6R19393   0.186   2.779   7.027  0.2797  0.5656 -0.0756
  171SAPS   C2719394   0.320   2.854   6.868  0.4119 -0.4475  0.6239
  171SAPS   H7R19395   0.406   2.814   6.811 -0.0407 -0.6911  0.0950
  171SAPS   H7S19396   0.364   2.937   6.927 -0.7302 -0.3248  1.3450
  171SAPS   C2819397   0.222   2.930   6.779 -0.4111  0.0431 -0.3050
  171SAPS   H8R19398   0.139   2.869   6.741 -0.6649 -0.9075  1.6620
  171SAPS   C2919399   0.231   3.057   6.740 -0.3297 -0.5081  0.5875
  171SAPS   H9R19400   0.158   3.091   6.665  0.0426  2.3173  1.3673
  171SAPS  C21019401   0.345   3.150   6.759 -0.6212  0.1128  0.7861
  171SAPS  H10R19402   0.440   3.098   6.785  0.7626  1.7206 -0.8209
  171SAPS  H10S19403   0.329   3.211   6.850  0.3865 -2.1096  2.5667
  171SAPS  C21119404   0.363   3.242   6.633  0.8283  0.6014 -0.1508
  171SAPS  H11R19405   0.453   3.209   6.578 -0.9928 -1.7052 -1.9199
  171SAPS  C21219406   0.296   3.356   6.605 -0.0455 -0.0775  0.1061
  171SAPS  H12R19407   0.305   3.406   6.508  0.5382  2.6674  1.4714
  171SAPS  C21319408   0.189   3.422   6.681  1.0523  0.1357  0.2984
  171SAPS  H13R19409   0.178   3.377   6.782 -1.2850  1.9297  0.9426
  171SAPS  H13S19410   0.095   3.402   6.626  0.8906 -1.4735  1.1189
  171SAPS  C21419411   0.215   3.568   6.714  0.5798  1.3835 -0.0840
  171SAPS  H14R19412   0.258   3.580   6.814  0.1851 -0.0084  0.2801
  171SAPS  C21519413   0.180   3.675   6.648 -0.1963  0.3283 -0.5076
  171SAPS  H15R19414   0.210   3.772   6.688  0.5667 -0.0209 -0.2072
  171SAPS  C21619415   0.110   3.676   6.512 -0.2566  0.2298  0.0466
  171SAPS  H16R19416   0.022   3.743   6.500 -2.2213 -2.2365 -0.0987
  171SAPS  H16S19417   0.054   3.581   6.501 -0.6289 -0.0623  3.4641
  171SAPS  C21719418   0.202   3.700   6.392 -0.6721  0.2992  0.2237
  171SAPS  H17R19419   0.266   3.610   6.402 -0.4574  0.5536  1.2830
  171SAPS  H17S19420   0.265   3.792   6.391  2.0411 -1.4545 -1.8025
  171SAPS  C21819421   0.135   3.665   6.253  0.8699 -0.0892  0.1826
  171SAPS  H18R19422   0.042   3.726   6.246  0.2634 -0.9994 -0.0210
  171SAPS  H18S19423   0.103   3.558   6.247  1.7415 -0.2821 -2.0547
  171SAPS  C21919424   0.222   3.681   6.130  0.0305 -0.1697 -0.2989
  171SAPS  H19R19425   0.168   3.647   6.038 -2.5636 -1.5951  1.6101
  171SAPS  H19S19426   0.296   3.599   6.135 -1.6235 -1.6369  1.3108
  171SAPS  C22019427   0.276   3.820   6.110  0.0737 -0.2356 -0.5481
  171SAPS  H20R19428   0.325   3.829   6.010  1.4741  1.1741  0.2215
  171SAPS  H20S19429   0.354   3.840   6.187  2.9990 -0.8995 -3.1225
  171SAPS  H20T19430   0.193   3.893   6.108  0.7616  0.5766 -0.1694
  171SAPS   C3319431   0.817   3.095   7.027  0.4788  0.4649 -0.0650
  171SAPS   H3X19432   0.926   3.113   7.036  0.6543 -0.9369  0.9987
  171SAPS   H3Y19433   0.751   3.157   7.090 -1.2414 -0.5284 -0.8073
  171SAPS   C3419434   0.767   3.155   6.894  0.0144  0.2091 -1.1072
  171SAPS   H4X19435   0.839   3.240   6.880  2.2018 -1.0871  1.3090
  171SAPS   H4Y19436   0.667   3.201   6.906 -0.5175 -1.1895  0.0285
  171SAPS   C3519437   0.765   3.068   6.772  0.1589  0.1531  0.8009
  171SAPS   H5X19438   0.688   2.992   6.798 -1.8503  1.3995 -1.1149
  171SAPS   H5Y19439   0.863   3.021   6.747  0.3359  1.0375 -0.2389
  171SAPS   C3619440   0.718   3.141   6.647 -0.1592  0.0536 -0.2167
  171SAPS   H6X19441   0.785   3.228   6.632 -0.4432  0.3662  0.2968
  171SAPS   H6Y19442   0.620   3.192   6.660 -0.2662 -0.2066  0.0081
  171SAPS   C3719443   0.708   3.046   6.526  0.1047 -0.1563  0.0932
  171SAPS   H7X19444   0.607   3.000   6.526 -0.3489  0.7622  1.7472
  171SAPS   H7Y19445   0.783   2.963   6.530  0.0944 -0.1196  1.7627
  171SAPS   C3819446   0.723   3.125   6.391 -0.2188  0.0150  0.3476
  171SAPS   H8X19447   0.787   3.215   6.408 -2.0788  1.4931 -0.1696
  171SAPS   H8Y19448   0.628   3.181   6.375 -0.5423 -0.1857  1.4688
  171SAPS   C3919449   0.773   3.042   6.270 -0.3445 -0.4622 -0.4324
  171SAPS   H9X19450   0.702   2.958   6.252  0.1332 -0.4397 -2.6610
  171SAPS   H9Y19451   0.868   2.991   6.296 -1.3700 -1.6276  1.2074
  171SAPS  C31019452   0.795   3.122   6.137 -0.3863  0.1957  0.1340
  171SAPS  H10X19453   0.887   3.180   6.160 -1.0054  0.3028  2.6065
  171SAPS  H10Y19454   0.712   3.195   6.124 -1.1391 -0.4429  1.1932
  171SAPS  C31119455   0.810   3.024   6.015 -0.3926  0.0740  0.2154
  171SAPS  H11X19456   0.725   2.955   6.034  1.6468 -2.5102  0.5091
  171SAPS  H11Y19457   0.903   2.965   6.029  0.0190  1.0319  1.6854
  171SAPS  C31219458   0.784   3.082   5.879  0.0357  0.5332 -0.0355
  171SAPS  H12X19459   0.694   3.145   5.894 -0.5557 -0.2652 -0.1952
  171SAPS  H12Y19460   0.782   3.006   5.798 -0.4317 -1.0837  1.4472
  171SAPS  C31319461   0.901   3.168   5.837 -0.5898 -0.7221 -0.2455
  171SAPS  H13X19462   0.995   3.110   5.821  0.0005  0.5950 -1.7893
  171SAPS  H13Y19463   0.924   3.242   5.916  1.0175 -0.5948 -0.8063
  171SAPS  C31419464   0.881   3.237   5.698  0.3531 -0.6960 -0.5680
  171SAPS  H14X19465   0.785   3.293   5.699  0.9180  0.3019 -0.3606
  171SAPS  H14Y19466   0.848   3.153   5.633 -0.9115  1.0781 -2.3721
  171SAPS  C31519467   0.979   3.328   5.628  0.7264  0.3685  0.0445
  171SAPS  H15X19468   0.982   3.423   5.686  1.9963  1.0962 -1.1607
  171SAPS  H15Y19469   0.945   3.357   5.526 -0.2535  0.8830  0.5014
  171SAPS  C31619470   1.121   3.268   5.614  0.2489  0.6161 -0.0504
  171SAPS  H16X19471   1.164   3.250   5.715 -1.6102 -3.9753  0.1704
  171SAPS  H16Y19472   1.164   3.354   5.558  0.6909  0.5622  0.2031
  171SAPS  C31719473   1.128   3.142   5.527 -0.2498 -0.1673  0.4779
  171SAPS  H17X19474   1.057   3.066   5.567  0.7900 -0.5112  1.7477
  171SAPS  H17Y19475   1.223   3.090   5.549  0.0227 -0.7643 -1.8490
  171SAPS  C31819476   1.105   3.162   5.372  0.8931  0.1744 -0.4763
  171SAPS  H18X19477   1.110   3.067   5.314 -0.2731  0.4963 -1.1511
  171SAPS  H18Y19478   1.164   3.248   5.336  0.0455  0.3511 -1.4982
  171SAPS  H18Z19479   0.998   3.187   5.352  0.4778 -1.4783 -0.4818
  172SAPS     N19480   1.248   4.096   7.971  0.1667  0.6901  0.3648
  172SAPS   HN119481   1.271   4.002   7.934  0.4464 -0.3364  2.9316
  172SAPS   HN219482   1.319   4.172   7.962  0.8614 -0.1202 -1.4379
  172SAPS   HN319483   1.239   4.089   8.074  1.7951  2.4869  0.6856
  172SAPS   C1219484   1.117   4.138   7.900 -0.3343  1.0249 -0.3421
  172SAPS  H12A19485   1.040   4.071   7.936  0.0255  1.3570  1.1265
  172SAPS   C1319486   1.065   4.287   7.937 -1.2662 -0.3407  0.3943
  172SAPS  O13A19487   1.128   4.344   8.037  0.0098  0.2347  0.3465
  172SAPS  O13B19488   0.952   4.316   7.898  0.1820  0.2165  0.3260
  172SAPS   C1119489   1.120   4.093   7.755 -0.0176 -0.1076 -0.0281
  172SAPS  H11A19490   1.216   4.126   7.711 -0.2105 -1.1136 -1.2813
  172SAPS  H11B19491   1.047   4.151   7.694 -0.6849  0.3554  1.1814
  172SAPS     P19492   0.988   3.878   7.672 -0.1888 -0.5119 -0.4102
  172SAPS   O1319493   1.017   3.733   7.676  0.1659 -0.0271  0.5443
  172SAPS   O1419494   0.865   3.921   7.743  0.4349 -0.5002 -0.4327
  172SAPS   O1219495   1.113   3.957   7.740  0.0981  0.1817  0.8477
  172SAPS   O1119496   0.981   3.930   7.524  0.2288 -0.8190  0.0534
  172SAPS    C119497   1.089   3.902   7.435 -0.4789 -0.2756  0.9744
  172SAPS    HA19498   1.151   3.814   7.463 -1.7591 -0.7844  2.3457
  172SAPS    HB19499   1.039   3.892   7.336  0.4673  0.4567  0.4044
  172SAPS    C219500   1.185   4.018   7.405  0.5882 -0.1586 -0.0466
  172SAPS    HS19501   1.246   4.037   7.495  2.4024 -3.1583 -0.5064
  172SAPS   O2119502   1.118   4.140   7.384  0.4809 -0.3992  0.3470
  172SAPS   C2119503   1.186   4.252   7.374  0.5685 -0.2528 -0.1874
  172SAPS   O2219504   1.308   4.268   7.387  0.5555 -0.1901  0.3519
  172SAPS   C2219505   1.092   4.368   7.354  0.4431 -0.3902  0.1944
  172SAPS   H2R19506   0.993   4.332   7.390 -0.3336 -0.7690 -2.1363
  172SAPS   H2S19507   1.127   4.451   7.419 -0.6663  0.9975 -0.9288
  172SAPS    C319508   1.274   3.976   7.284  0.2689 -0.4348 -0.1866
  172SAPS    HX19509   1.330   3.882   7.302 -1.0004 -1.4833 -1.4635
  172SAPS    HY19510   1.359   4.048   7.279 -1.3337  1.8574  2.2957
  172SAPS   O3119511   1.189   3.966   7.175 -0.3494 -0.0667  0.6093
  172SAPS   C3119512   1.250   3.961   7.053  0.1062  0.3427 -0.0362
  172SAPS   O3219513   1.370   3.973   7.036 -0.0944  0.0589 -0.3429
  172SAPS   C3219514   1.149   3.939   6.942  0.1067 -0.1239  0.4988
  172SAPS   H2X19515   1.086   4.030   6.934  0.0691 -0.0277  1.7233
  172SAPS   H2Y19516   1.095   3.845   6.969 -0.4721  0.6478  2.1603
  172SAPS   C2319517   1.078   4.416   7.207  0.0229  0.1231  0.0254
  172SAPS   H3R19518   1.172   4.460   7.167  0.8219 -0.5467  1.0966
  172SAPS   H3S19519   1.004   4.497   7.217 -1.9577 -1.6832  0.7595
  172SAPS   C2419520   1.021   4.313   7.107  0.0507 -0.4419  0.3717
  172SAPS   H4R19521   1.093   4.231   7.087  0.6322 -0.8300  3.4375
  172SAPS   H4S19522   1.018   4.371   7.013  0.6886  0.5133  0.9266
  172SAPS   C2519523   0.887   4.266   7.154 -0.1865  0.0841  0.4454
  172SAPS   H5R19524   0.887   4.194   7.237 -0.7768  0.2430  0.5863
  172SAPS   C2619525   0.774   4.333   7.128 -0.3747  0.2665 -0.9907
  172SAPS   H6R19526   0.672   4.299   7.152 -0.7326  0.7636 -1.7537
  172SAPS   C2719527   0.758   4.459   7.043 -0.0301  0.5828 -0.1874
  172SAPS   H7R19528   0.838   4.530   7.073  0.6221 -0.0279 -0.4386
  172SAPS   H7S19529   0.659   4.499   7.074  0.7099  1.8233  0.6781
  172SAPS   C2819530   0.747   4.427   6.893  0.3984 -0.3378 -0.4634
  172SAPS   H8R19531   0.677   4.351   6.858 -0.3417  0.3684 -0.5468
  172SAPS   C2919532   0.819   4.485   6.799 -0.3390 -0.0590 -0.2483
  172SAPS   H9R19533   0.813   4.449   6.695  0.8385 -1.8840  0.2542
  172SAPS  C21019534   0.930   4.586   6.823 -0.1190  0.0961 -0.5553
  172SAPS  H10R19535   0.982   4.588   6.921  0.4913 -0.5348 -0.8613
  172SAPS  H10S19536   0.876   4.683   6.823 -0.1747  0.0653 -0.4170
  172SAPS  C21119537   1.049   4.604   6.721 -0.0674 -0.5212 -0.6587
  172SAPS  H11R19538   1.142   4.613   6.780 -0.6968 -2.4229  0.7423
  172SAPS  C21219539   1.046   4.602   6.582 -0.0318  0.0189 -0.4365
  172SAPS  H12R19540   1.142   4.607   6.529  0.9464 -0.9513  1.1860
  172SAPS  C21319541   0.925   4.596   6.494  0.0906  0.8904  0.2435
  172SAPS  H13R19542   0.947   4.670   6.414  3.3563  0.0148  0.1789
  172SAPS  H13S19543   0.847   4.634   6.563 -0.5883  0.2161 -0.1314
  172SAPS  C21419544   0.863   4.466   6.443 -0.3147  0.1488 -0.3523
  172SAPS  H14R19545   0.916   4.379   6.486 -1.3674  0.9971  2.9680
  172SAPS  C21519546   0.791   4.452   6.330  0.0301  0.5214  0.2147
  172SAPS  H15R19547   0.771   4.349   6.296  1.5397 -0.4070  1.9602
  172SAPS  C21619548   0.746   4.556   6.241  0.4269 -0.1740 -0.0875
  172SAPS  H16R19549   0.783   4.651   6.285 -0.1933 -0.4840  1.1516
  172SAPS  H16S19550   0.636   4.572   6.239  0.3449 -0.6756 -2.3687
  172SAPS  C21719551   0.791   4.544   6.095  0.1350  0.5974  0.9249
  172SAPS  H17R19552   0.775   4.439   6.061  1.1262 -0.3104  3.0512
  172SAPS  H17S19553   0.897   4.576   6.086  0.5361 -0.5892  1.2755
  172SAPS  C21819554   0.711   4.635   5.995  0.1776  0.7314  0.6243
  172SAPS  H18R19555   0.758   4.632   5.894 -0.8255  1.2584  0.1316
  172SAPS  H18S19556   0.704   4.740   6.030  0.7780  1.3371 -0.9621
  172SAPS  C21919557   0.571   4.573   5.979  0.4350 -0.2708  0.4368
  172SAPS  H19R19558   0.503   4.642   6.032  1.5084  1.4353 -0.3331
  172SAPS  H19S19559   0.555   4.468   6.011  0.1355 -1.4512 -3.1014
  172SAPS  C22019560   0.514   4.569   5.834 -0.6880  0.1454 -0.0395
  172SAPS  H20R19561   0.536   4.666   5.784 -1.8836  1.8320  2.5024
  172SAPS  H20S19562   0.403   4.561   5.831 -0.6212 -0.8860 -2.5419
  172SAPS  H20T19563   0.558   4.486   5.775 -0.0314 -0.6024  1.4524
  172SAPS   C3319564   1.214   3.926   6.803 -0.5829  0.3084  0.5863
  172SAPS   H3X19565   1.301   3.858   6.812 -1.6117 -1.0151  0.9180
  172SAPS   H3Y19566   1.242   4.028   6.769  2.1019  0.4979  2.9605
  172SAPS   C3419567   1.125   3.845   6.707  0.7212  0.1629  0.5356
  172SAPS   H4X19568   1.040   3.911   6.679  1.4788  0.8223 -0.2295
  172SAPS   H4Y19569   1.084   3.751   6.751  0.8760 -2.3760 -4.0702
  172SAPS   C3519570   1.193   3.802   6.577  0.9479  0.7064 -0.0723
  172SAPS   H5X19571   1.124   3.739   6.518  2.2425  0.1279 -1.0023
  172SAPS   H5Y19572   1.281   3.741   6.607 -0.0989 -0.7588  0.0961
  172SAPS   C3619573   1.236   3.915   6.490  0.2226 -0.0685  0.1685
  172SAPS   H6X19574   1.280   3.867   6.400  1.4965  1.0153  0.1923
  172SAPS   H6Y19575   1.312   3.983   6.534 -0.9314 -0.1091  2.3669
  172SAPS   C3719576   1.133   4.015   6.442 -0.0880 -0.3460 -0.6639
  172SAPS   H7X19577   1.121   4.095   6.519 -0.3744  1.0464 -2.1109
  172SAPS   H7Y19578   1.035   3.964   6.435 -0.0003 -0.5124 -0.6810
  172SAPS   C3819579   1.179   4.079   6.308  0.3051  0.6827  0.2863
  172SAPS   H8X19580   1.184   3.997   6.233  1.8592  1.5703 -0.6283
  172SAPS   H8Y19581   1.277   4.131   6.307 -0.3462  1.9435 -1.2026
  172SAPS   C3919582   1.078   4.189   6.250 -0.0714 -0.0240  0.2091
  172SAPS   H9X19583   1.136   4.275   6.212 -0.3456  1.0666  2.1284
  172SAPS   H9Y19584   1.021   4.233   6.335 -1.6238  0.6675 -1.1449
  172SAPS  C31019585   0.988   4.133   6.141  0.9433 -0.1446 -1.0459
  172SAPS  H10X19586   0.909   4.211   6.137  1.8563  0.8752  0.1253
  172SAPS  H10Y19587   0.944   4.041   6.186  0.7928  1.2471  1.9217
  172SAPS  C31119588   1.053   4.099   6.009  0.4818 -0.1932  0.0892
  172SAPS  H11X19589   0.971   4.061   5.944  0.2274 -1.4762  1.1062
  172SAPS  H11Y19590   1.125   4.014   6.008 -0.2305 -0.8179  0.4152
  172SAPS  C31219591   1.126   4.213   5.938 -0.0944 -0.2153 -0.2391
  172SAPS  H12X19592   1.140   4.168   5.837 -1.8877 -1.5088  0.0489
  172SAPS  H12Y19593   1.225   4.249   5.975  1.2411 -0.9728 -2.8146
  172SAPS  C31319594   1.037   4.342   5.913 -0.6077 -0.0307  0.4854
  172SAPS  H13X19595   1.042   4.413   5.999 -0.7468  0.9475 -0.3018
  172SAPS  H13Y19596   0.930   4.317   5.898 -0.3862 -0.6035 -0.1560
  172SAPS  C31419597   1.076   4.400   5.779  0.4045 -0.3963  0.7408
  172SAPS  H14X19598   1.087   4.322   5.700  0.0830 -0.9877  1.2718
  172SAPS  H14Y19599   1.177   4.443   5.791  0.1269  0.2413  0.8091
  172SAPS  C31519600   0.985   4.519   5.739 -0.3054  0.8179  1.2471
  172SAPS  H15X19601   0.957   4.572   5.833  0.3953  0.8278  1.4577
  172SAPS  H15Y19602   0.894   4.483   5.688  1.6477 -1.0623 -1.1737
  172SAPS  C31619603   1.054   4.607   5.629  0.3155  0.5707  0.3794
  172SAPS  H16X19604   1.157   4.637   5.659  1.2890 -0.9075 -1.3530
  172SAPS  H16Y19605   1.070   4.543   5.540 -1.2441  0.9617 -0.2215
  172SAPS  C31719606   0.976   4.727   5.582  0.1255  0.1007  0.5175
  172SAPS  H17X19607   0.965   4.798   5.667 -0.9017 -0.9460  1.2978
  172SAPS  H17Y19608   0.876   4.692   5.551 -0.0872  1.1658 -0.0422
  172SAPS  C31819609   1.025   4.795   5.456  0.1634 -0.0210  0.1227
  172SAPS  H18X19610   0.951   4.870   5.419  0.1434 -1.0589 -2.0749
  172SAPS  H18Y19611   1.045   4.736   5.364 -0.7972  0.7907 -0.6401
  172SAPS  H18Z19612   1.116   4.856   5.472 -1.1932  2.2475 -0.2739
  173SAPS     N19613   4.107   2.343   2.754  0.6640  0.1443  0.6537
  173SAPS   HN119614   4.194   2.317   2.805 -0.8299 -0.3242  3.1384
  173SAPS   HN219615   4.132   2.383   2.662  1.8780  0.9244  1.2994
  173SAPS   HN319616   4.065   2.408   2.824  0.4686 -0.3402  0.9923
  173SAPS   C1219617   4.011   2.226   2.753  0.2023  0.4569  0.5460
  173SAPS  H12A19618   3.923   2.259   2.700 -0.7612  0.6713  2.1905
  173SAPS   C1319619   4.059   2.096   2.690  0.0769  0.2816 -0.2369
  173SAPS  O13A19620   4.175   2.090   2.635 -0.5824 -0.3651 -0.5542
  173SAPS  O13B19621   3.974   2.001   2.686 -0.1392 -0.0308 -0.0155
  173SAPS   C1119622   3.968   2.194   2.898  0.2423  0.1729 -0.8402
  173SAPS  H11A19623   4.064   2.167   2.948 -2.0267 -1.8641  2.8248
  173SAPS  H11B19624   3.902   2.105   2.907  1.0548 -0.5187 -1.5299
  173SAPS     P19625   3.874   2.315   3.118  0.2181  0.4198  0.0971
  173SAPS   O1319626   3.988   2.381   3.190  0.3618 -0.4503  0.3927
  173SAPS   O1419627   3.743   2.379   3.142  0.5419 -0.1496 -0.1492
  173SAPS   O1219628   3.909   2.307   2.957 -0.1922 -0.6506  0.3938
  173SAPS   O1119629   3.865   2.162   3.156  0.8290  0.0104 -0.2443
  173SAPS    C119630   3.739   2.090   3.169 -0.7272 -0.6267  0.3092
  173SAPS    HA19631   3.648   2.155   3.161  0.3136  0.7461 -1.2922
  173SAPS    HB19632   3.731   2.021   3.083  0.6453  0.9402 -1.1619
  173SAPS    C219633   3.745   2.022   3.311 -0.3984 -0.0059  0.3969
  173SAPS    HS19634   3.639   2.000   3.336 -0.0679 -1.9261  0.2608
  173SAPS   O2119635   3.796   2.119   3.410  0.5378  0.3448 -0.5001
  173SAPS   C2119636   3.711   2.217   3.439  0.0087  0.5871  0.1014
  173SAPS   O2219637   3.603   2.240   3.395  0.5183  0.1470  0.0620
  173SAPS   C2219638   3.771   2.298   3.551 -0.5211  0.5419 -0.8620
  173SAPS   H2R19639   3.822   2.388   3.511  1.0309  0.7541  1.3963
  173SAPS   H2S19640   3.686   2.331   3.614  0.6643 -0.6648  1.4952
  173SAPS    C319641   3.814   1.891   3.319 -0.3887  0.6138 -0.4002
  173SAPS    HX19642   3.921   1.912   3.335 -0.2684 -0.5049  0.3761
  173SAPS    HY19643   3.804   1.838   3.222  0.0712 -0.7579  0.2778
  173SAPS   O3119644   3.760   1.818   3.426 -0.8839  0.0871  1.0884
  173SAPS   C3119645   3.820   1.703   3.460  0.0516  0.2453 -0.1258
  173SAPS   O3219646   3.908   1.643   3.406  0.1989 -0.4420 -0.5813
  173SAPS   C3219647   3.759   1.657   3.584 -0.1685  0.4270  0.1878
  173SAPS   H2X19648   3.766   1.546   3.586  0.1740  0.4282 -0.6509
  173SAPS   H2Y19649   3.650   1.680   3.574 -0.4938 -0.9056  0.4971
  173SAPS   C2319650   3.880   2.219   3.628  0.3812  0.2163  0.3369
  173SAPS   H3R19651   3.955   2.179   3.557  0.9940  1.9022  0.0024
  173SAPS   H3S19652   3.826   2.133   3.672 -1.9404 -0.6284 -3.6633
  173SAPS   C2419653   3.978   2.295   3.729 -0.4372 -0.1733 -0.0722
  173SAPS   H4R19654   4.027   2.371   3.665 -0.1215  0.4901  0.9364
  173SAPS   H4S19655   4.060   2.224   3.756  0.9418  1.1789 -0.5753
  173SAPS   C2519656   3.913   2.359   3.849 -0.0576  0.0120 -0.4536
  173SAPS   H5R19657   3.880   2.462   3.830 -0.3940 -0.0532 -0.2418
  173SAPS   C2619658   3.880   2.306   3.967 -0.4503  0.6449  0.2644
  173SAPS   H6R19659   3.848   2.376   4.046 -2.2058  1.0498 -0.7296
  173SAPS   C2719660   3.910   2.162   4.014 -0.1402 -0.8274 -0.1430
  173SAPS   H7R19661   4.018   2.152   4.037  0.5846  0.6331 -2.5889
  173SAPS   H7S19662   3.894   2.096   3.926 -0.9317  1.7838 -2.0458
  173SAPS   C2819663   3.840   2.104   4.133 -0.2537 -0.1452  0.2536
  173SAPS   H8R19664   3.751   2.045   4.109 -0.7333 -0.5449  2.7335
  173SAPS   C2919665   3.859   2.144   4.266 -0.1942  0.9134  0.9181
  173SAPS   H9R19666   3.791   2.093   4.335  1.0211 -0.6969  0.9802
  173SAPS  C21019667   3.974   2.220   4.318 -0.4536 -0.0999 -0.8441
  173SAPS  H10R19668   3.983   2.320   4.269 -0.4561 -0.2773 -1.2093
  173SAPS  H10S19669   4.058   2.161   4.277 -2.4660 -1.4434 -3.3074
  173SAPS  C21119670   3.979   2.236   4.467  0.4569  1.1566 -1.2384
  173SAPS  H11R19671   3.935   2.329   4.506 -0.2675  0.7774 -1.1294
  173SAPS  C21219672   4.031   2.140   4.554 -0.2105  0.4358 -0.2313
  173SAPS  H12R19673   4.038   2.167   4.661  0.8834 -0.5299 -0.0394
  173SAPS  C21319674   4.100   2.007   4.515 -0.7385  1.1306  0.6172
  173SAPS  H13R19675   4.045   1.950   4.437  1.3772 -0.3559  0.1213
  173SAPS  H13S19676   4.092   1.944   4.607 -1.0693  0.9047  0.4357
  173SAPS  C21419677   4.241   2.032   4.468  0.6965  0.2719  0.1829
  173SAPS  H14R19678   4.288   2.123   4.507 -2.6581  1.4032  2.0311
  173SAPS  C21519679   4.306   1.939   4.396  0.4042 -0.6525 -0.3278
  173SAPS  H15R19680   4.404   1.967   4.354  1.5784 -3.1813  0.5313
  173SAPS  C21619681   4.255   1.807   4.346  0.1163 -0.4006  0.6774
  173SAPS  H16R19682   4.182   1.785   4.427 -1.5625  1.8254 -0.1504
  173SAPS  H16S19683   4.340   1.735   4.348  1.0775  0.6948  0.3295
  173SAPS  C21719684   4.180   1.807   4.206 -0.1040  0.1527  0.4769
  173SAPS  H17R19685   4.103   1.886   4.217 -0.2435  0.0062  0.5518
  173SAPS  H17S19686   4.145   1.702   4.192 -1.3116  0.3897  1.5458
  173SAPS  C21819687   4.267   1.838   4.091 -0.1150  0.1009  0.3129
  173SAPS  H18R19688   4.354   1.770   4.101  1.0197  0.8729 -2.9176
  173SAPS  H18S19689   4.311   1.939   4.106 -0.4841  0.5904 -1.5898
  173SAPS  C21919690   4.208   1.817   3.946  0.0591  0.0645 -0.0803
  173SAPS  H19R19691   4.179   1.710   3.944  0.5808 -0.0903  0.4152
  173SAPS  H19S19692   4.289   1.852   3.878 -0.5210  1.8350  0.0652
  173SAPS  C22019693   4.086   1.910   3.911  0.1909 -0.0272  0.5068
  173SAPS  H20R19694   4.031   1.874   3.821  1.3866  0.7964 -0.5749
  173SAPS  H20S19695   4.122   2.010   3.879 -0.2099 -0.3952 -1.1905
  173SAPS  H20T19696   4.012   1.911   3.994 -0.2843  1.0290  0.0847
  173SAPS   C3319697   3.809   1.720   3.710 -0.1777 -0.1018 -0.0349
  173SAPS   H3X19698   3.776   1.826   3.709 -1.1482 -0.3949 -0.2437
  173SAPS   H3Y19699   3.919   1.727   3.721 -0.3521  2.4864  0.6918
  173SAPS   C3419700   3.752   1.642   3.831  0.0384 -0.8254  0.0534
  173SAPS   H4X19701   3.772   1.534   3.813  1.2154 -0.4595 -0.9189
  173SAPS   H4Y19702   3.642   1.653   3.833 -0.0851 -0.9378 -2.6668
  173SAPS   C3519703   3.817   1.680   3.965  0.4857 -0.6008  0.4439
  173SAPS   H5X19704   3.821   1.790   3.974 -0.3960 -0.6091  1.1310
  173SAPS   H5Y19705   3.918   1.634   3.967 -0.2010 -2.2007  2.2074
  173SAPS   C3619706   3.752   1.619   4.093  0.1048 -0.1915  0.2592
  173SAPS   H6X19707   3.747   1.509   4.079 -1.9862  0.0708 -1.7801
  173SAPS   H6Y19708   3.653   1.671   4.098  1.8624  3.4795  0.3114
  173SAPS   C3719709   3.834   1.661   4.221  0.1212  0.3482 -0.3218
  173SAPS   H7X19710   3.782   1.750   4.261 -1.5424 -1.0727  0.8398
  173SAPS   H7Y19711   3.937   1.683   4.186  0.8018 -2.1200 -0.0935
  173SAPS   C3819712   3.828   1.558   4.329  0.6162  0.2001 -0.2079
  173SAPS   H8X19713   3.872   1.458   4.307  1.9129  0.4484  1.0791
  173SAPS   H8Y19714   3.726   1.522   4.351  1.3690 -2.2371 -0.3937
  173SAPS   C3919715   3.897   1.607   4.451 -0.5507  0.1256 -0.0254
  173SAPS   H9X19716   3.839   1.691   4.496  0.3316 -0.3140  2.0323
  173SAPS   H9Y19717   3.992   1.655   4.420 -1.5062  1.2980 -1.2416
  173SAPS  C31019718   3.912   1.500   4.555  0.6763  0.8208  0.2256
  173SAPS  H10X19719   3.958   1.410   4.509  1.4321  0.6181  1.3368
  173SAPS  H10Y19720   3.811   1.472   4.592  0.1452  0.6961 -1.2387
  173SAPS  C31119721   3.993   1.534   4.673 -0.4667  0.1386 -0.9623
  173SAPS  H11X19722   4.085   1.573   4.625  0.5140  0.9557  1.4402
  173SAPS  H11Y19723   4.014   1.445   4.736  1.7697 -0.7102 -2.7669
  173SAPS  C31219724   3.948   1.658   4.756  0.0511  0.1251 -0.1465
  173SAPS  H12X19725   3.843   1.640   4.789  0.2177 -0.4423  0.0859
  173SAPS  H12Y19726   3.947   1.752   4.697 -0.4363 -0.2409 -0.7338
  173SAPS  C31319727   4.044   1.688   4.867  0.4137 -0.1678  0.2267
  173SAPS  H13X19728   4.146   1.680   4.825  0.0106  0.0000 -0.8231
  173SAPS  H13Y19729   4.034   1.636   4.965 -0.9436 -1.4967 -0.5684
  173SAPS  C31419730   4.032   1.842   4.907  0.0181  0.5483 -0.0201
  173SAPS  H14X19731   4.041   1.893   4.809 -1.2432 -0.5324 -0.7338
  173SAPS  H14Y19732   4.118   1.875   4.969  0.9875  2.4543 -2.2080
  173SAPS  C31519733   3.895   1.862   4.983  0.4412  0.5039 -0.3238
  173SAPS  H15X19734   3.927   1.821   5.082  2.7845  0.9202 -0.8429
  173SAPS  H15Y19735   3.822   1.789   4.942  0.0189  0.9879 -0.4362
  173SAPS  C31619736   3.854   2.010   4.994 -0.6327 -0.3096 -0.0262
  173SAPS  H16X19737   3.851   2.072   4.902 -4.5152  1.9058  1.3900
  173SAPS  H16Y19738   3.922   2.063   5.064 -0.4503 -0.1267 -0.3354
  173SAPS  C31719739   3.718   2.022   5.064 -0.0342  0.9821  0.4084
  173SAPS  H17X19740   3.716   1.983   5.168 -2.6584 -0.1645  0.0284
  173SAPS  H17Y19741   3.651   1.952   5.008 -2.0363  1.5629  1.9340
  173SAPS  C31819742   3.647   2.157   5.073 -0.0188  0.3922  0.6458
  173SAPS  H18X19743   3.669   2.214   4.981  1.5553 -1.1946 -0.0268
  173SAPS  H18Y19744   3.706   2.218   5.145  1.6454  0.3801 -0.6667
  173SAPS  H18Z19745   3.543   2.154   5.112  0.1870  0.0381  1.1756
  174SAPS     N19746   1.455   0.155   2.843  0.2604  0.2836 -0.4247
  174SAPS   HN119747   1.478   0.243   2.892  1.1872  0.3255 -0.9128
  174SAPS   HN219748   1.377   0.174   2.778 -0.8358  0.4217  0.8932
  174SAPS   HN319749   1.429   0.085   2.916  2.4137  0.9829  1.1288
  174SAPS   C1219750   1.578   0.113   2.773 -0.7875 -0.1259 -0.0221
  174SAPS  H12A19751   1.653   0.096   2.848 -1.3981  1.5255  0.9951
  174SAPS   C1319752   1.573  -0.014   2.692 -0.5662 -0.0253  0.0209
  174SAPS  O13A19753   1.463  -0.070   2.678  0.6170 -0.0043  0.5424
  174SAPS  O13B19754   1.681  -0.051   2.631  0.4713  0.0272 -0.0664
  174SAPS   C1119755   1.625   0.234   2.694  0.0401 -0.6145  0.3387
  174SAPS  H11A19756   1.555   0.255   2.609  1.1867 -0.9053 -0.7033
  174SAPS  H11B19757   1.727   0.211   2.656  1.2691  1.3717  2.1997
  174SAPS     P19758   1.683   0.494   2.717  0.4353  0.4470 -0.4816
  174SAPS   O1319759   1.833   0.495   2.741  0.1709  0.2841  0.2075
  174SAPS   O1419760   1.629   0.506   2.586 -1.1281  0.1669  0.5949
  174SAPS   O1219761   1.628   0.355   2.774 -0.5042 -0.5856 -0.0821
  174SAPS   O1119762   1.610   0.594   2.811  0.1370  0.1910 -0.1258
  174SAPS    C119763   1.524   0.581   2.920  0.4661 -0.0067  0.2204
  174SAPS    HA19764   1.487   0.685   2.931  0.2936  0.2543 -2.2216
  174SAPS    HB19765   1.438   0.517   2.892 -0.1051  0.4426  0.9075
  174SAPS    C219766   1.603   0.538   3.042  0.0980 -0.2087 -0.8339
  174SAPS    HS19767   1.702   0.589   3.041 -0.2335  0.6021  1.3787
  174SAPS   O2119768   1.622   0.394   3.037  0.0952 -0.5219  0.0694
  174SAPS   C2119769   1.722   0.346   3.100  0.6773 -0.8905  0.2309
  174SAPS   O2219770   1.817   0.406   3.142 -0.0953 -0.2445  0.1446
  174SAPS   C2219771   1.698   0.203   3.134 -0.1949  0.5559 -0.2061
  174SAPS   H2R19772   1.588   0.193   3.148 -0.1674 -0.2805 -0.5263
  174SAPS   H2S19773   1.733   0.138   3.050 -0.8260 -0.6689  0.4417
  174SAPS    C319774   1.538   0.587   3.175  0.3051 -0.6527 -0.6141
  174SAPS    HX19775   1.428   0.571   3.182 -0.0151 -0.0541 -3.3028
  174SAPS    HY19776   1.541   0.697   3.182  0.4068 -0.6603 -0.5317
  174SAPS   O3119777   1.594   0.519   3.291  0.0337 -0.1861  0.5089
  174SAPS   C3119778   1.684   0.589   3.364 -0.4222  0.3064  0.1502
  174SAPS   O3219779   1.714   0.706   3.340 -0.2347  0.2235 -0.0769
  174SAPS   C3219780   1.737   0.497   3.474  0.0698  0.6273 -0.0754
  174SAPS   H2X19781   1.807   0.443   3.406 -2.5624  0.2236 -2.6497
  174SAPS   H2Y19782   1.662   0.423   3.507  1.1825 -0.2059  0.6729
  174SAPS   C2319783   1.779   0.147   3.253  0.3419 -0.3329 -0.2563
  174SAPS   H3R19784   1.742   0.188   3.349 -0.2200  0.8477 -0.9455
  174SAPS   H3S19785   1.884   0.181   3.237  0.9161 -2.4932 -1.4774
  174SAPS   C2419786   1.758  -0.003   3.261 -1.0748  0.2338  0.1735
  174SAPS   H4R19787   1.764  -0.039   3.156  0.9520  0.2020  0.2600
  174SAPS   H4S19788   1.653  -0.028   3.287 -1.6988  1.1315 -1.3841
  174SAPS   C2519789   1.863  -0.078   3.345  0.5009 -0.3604 -0.0912
  174SAPS   H5R19790   1.925  -0.141   3.279 -0.7599 -1.3095 -0.4120
  174SAPS   C2619791   1.879  -0.073   3.469 -0.2205 -0.2093 -0.1554
  174SAPS   H6R19792   1.955  -0.141   3.511  0.6427  0.5220 -0.5093
  174SAPS   C2719793   1.786  -0.001   3.563 -1.0299  0.4003  0.1397
  174SAPS   H7R19794   1.712   0.050   3.497 -1.8494 -2.0722 -0.9814
  174SAPS   H7S19795   1.849   0.070   3.619  1.2701 -0.7848 -0.8228
  174SAPS   C2819796   1.714  -0.099   3.650 -0.8289 -0.1207 -0.0685
  174SAPS   H8R19797   1.650  -0.153   3.579 -1.2924  1.2081 -0.6989
  174SAPS   C2919798   1.712  -0.123   3.782  0.0505 -0.1952 -0.8926
  174SAPS   H9R19799   1.644  -0.193   3.832  0.9069  0.3969  1.2128
  174SAPS  C21019800   1.802  -0.050   3.882 -0.3326 -0.4964  0.0474
  174SAPS  H10R19801   1.904  -0.038   3.839 -0.4533  0.2346 -0.0550
  174SAPS  H10S19802   1.807  -0.128   3.961 -1.1927 -1.6151 -0.9622
  174SAPS  C21119803   1.744   0.084   3.931  0.0349  0.0329  1.3536
  174SAPS  H11R19804   1.718   0.149   3.846 -0.8690 -3.4468 -1.2679
  174SAPS  C21219805   1.721   0.116   4.055 -0.3099  0.1654 -0.8900
  174SAPS  H12R19806   1.708   0.224   4.071  0.0030 -0.0317  0.9390
  174SAPS  C21319807   1.751   0.031   4.180  0.0205  0.0340  0.5458
  174SAPS  H13R19808   1.848   0.057   4.228  0.0824  0.1090  0.3806
  174SAPS  H13S19809   1.768  -0.075   4.153  1.1421 -0.0307  1.3870
  174SAPS  C21419810   1.635   0.042   4.285  0.0438  0.7840  0.7443
  174SAPS  H14R19811   1.539   0.075   4.242  0.1363 -0.9829 -1.0127
  174SAPS  C21519812   1.641  -0.015   4.408  0.6989 -0.5643 -0.1259
  174SAPS  H15R19813   1.550  -0.013   4.470  1.0010 -2.1104  0.4035
  174SAPS  C21619814   1.757  -0.097   4.458  0.5070 -0.8606  0.1679
  174SAPS  H16R19815   1.825  -0.129   4.376  0.2154  2.1663 -1.4219
  174SAPS  H16S19816   1.733  -0.187   4.518  0.6767 -0.9292  0.1325
  174SAPS  C21719817   1.841  -0.021   4.559  0.0817  0.4361 -0.0086
  174SAPS  H17R19818   1.877   0.073   4.511  0.5537  1.1651  1.6669
  174SAPS  H17S19819   1.933  -0.077   4.586 -0.1170 -0.5571 -1.3392
  174SAPS  C21819820   1.765   0.028   4.688 -0.5169 -0.0883  0.1115
  174SAPS  H18R19821   1.723  -0.054   4.749 -1.1983 -1.4329 -2.0647
  174SAPS  H18S19822   1.675   0.084   4.654  0.1721  0.3526 -1.0415
  174SAPS  C21919823   1.852   0.120   4.776 -0.0376 -0.0340  0.7497
  174SAPS  H19R19824   1.900   0.200   4.716  1.6266 -0.0834  1.9729
  174SAPS  H19S19825   1.932   0.056   4.819 -0.2087 -1.3651 -0.8001
  174SAPS  C22019826   1.762   0.180   4.881  0.4325 -0.1410  0.1510
  174SAPS  H20R19827   1.677   0.113   4.906  1.1879 -1.1150  0.1853
  174SAPS  H20S19828   1.721   0.279   4.853  1.7607  0.2835 -0.3373
  174SAPS  H20T19829   1.814   0.176   4.979  1.2377  0.6943 -0.2275
  174SAPS   C3319830   1.804   0.577   3.582  0.0809 -0.3036  0.5625
  174SAPS   H3X19831   1.735   0.653   3.625  0.8389 -0.1201  1.4915
  174SAPS   H3Y19832   1.882   0.643   3.538 -2.2776  1.4245 -1.2834
  174SAPS   C3419833   1.860   0.498   3.697  0.9997  0.1891  0.9929
  174SAPS   H4X19834   1.970   0.502   3.679  0.5607  1.5963 -1.9184
  174SAPS   H4Y19835   1.822   0.396   3.678  4.6293 -0.9570 -1.2733
  174SAPS   C3519836   1.840   0.549   3.841  0.1373 -0.7985 -0.5355
  174SAPS   H5X19837   1.732   0.572   3.857  0.2409  0.2679 -1.2517
  174SAPS   H5Y19838   1.895   0.643   3.862 -1.3157 -0.1567  0.5852
  174SAPS   C3619839   1.870   0.450   3.945 -0.2871 -0.1360 -0.3255
  174SAPS   H6X19840   1.977   0.421   3.954 -0.1763  0.7576  2.3420
  174SAPS   H6Y19841   1.813   0.360   3.916 -0.2967 -0.9483  2.0057
  174SAPS   C3719842   1.841   0.492   4.090 -0.2402 -0.2015 -0.1480
  174SAPS   H7X19843   1.732   0.506   4.101  0.2077  2.1387  2.5299
  174SAPS   H7Y19844   1.871   0.599   4.093 -2.1350  0.4246 -1.4299
  174SAPS   C3819845   1.902   0.399   4.194 -0.2109 -0.4031  0.1808
  174SAPS   H8X19846   2.010   0.422   4.188 -0.1871 -0.8466 -2.9826
  174SAPS   H8Y19847   1.887   0.289   4.186  2.5657 -0.9482  1.3764
  174SAPS   C3919848   1.865   0.440   4.343 -0.0466  0.1142 -0.0006
  174SAPS   H9X19849   1.924   0.530   4.370  1.9103 -0.9190 -0.6881
  174SAPS   H9Y19850   1.896   0.362   4.415 -1.7661  1.1803  1.9959
  174SAPS  C31019851   1.714   0.459   4.368  0.7924 -0.4456 -0.4839
  174SAPS  H10X19852   1.656   0.439   4.276  0.5359 -0.4553 -0.3232
  174SAPS  H10Y19853   1.693   0.566   4.393  1.2726 -0.3282 -0.5817
  174SAPS  C31119854   1.668   0.372   4.483  0.7963 -0.2496  0.9088
  174SAPS  H11X19855   1.732   0.387   4.573 -0.4586  3.1742  1.3857
  174SAPS  H11Y19856   1.667   0.266   4.449 -0.0547  0.2240 -0.6259
  174SAPS  C31219857   1.522   0.414   4.517  0.3039  0.6119  0.1162
  174SAPS  H12X19858   1.464   0.405   4.423 -2.1827 -0.5380  1.6506
  174SAPS  H12Y19859   1.521   0.521   4.548  3.5908  0.6260  0.5154
  174SAPS  C31319860   1.455   0.321   4.622 -0.5741 -0.1383  0.2429
  174SAPS  H13X19861   1.540   0.312   4.693 -0.5867 -2.3864  0.0516
  174SAPS  H13Y19862   1.433   0.221   4.578  1.7554 -0.2570 -0.8039
  174SAPS  C31419863   1.332   0.365   4.704 -0.7436  0.5257  0.5276
  174SAPS  H14X19864   1.242   0.337   4.646 -0.2753 -0.9682  0.4950
  174SAPS  H14Y19865   1.339   0.474   4.725  0.0364  0.4814  0.5223
  174SAPS  C31519866   1.314   0.294   4.834  0.4483  0.2415 -0.0116
  174SAPS  H15X19867   1.384   0.208   4.832  0.5449  0.3044  0.5490
  174SAPS  H15Y19868   1.208   0.266   4.850  0.8254 -0.9254  0.5162
  174SAPS  C31619869   1.366   0.388   4.949 -0.2744  0.9080  0.2837
  174SAPS  H16X19870   1.315   0.486   4.942 -0.4653  0.6973 -1.9668
  174SAPS  H16Y19871   1.473   0.409   4.930  0.4024 -0.9921  1.5952
  174SAPS  C31719872   1.342   0.327   5.093  0.1250  0.7033 -0.2074
  174SAPS  H17X19873   1.400   0.233   5.088 -1.2633 -0.1863 -0.3809
  174SAPS  H17Y19874   1.232   0.308   5.094  0.0206  1.2936  0.1751
  174SAPS  C31819875   1.393   0.406   5.205 -0.2437 -0.0278  0.1652
  174SAPS  H18X19876   1.501   0.425   5.189 -0.6791  1.1309 -1.6922
  174SAPS  H18Y19877   1.376   0.363   5.306  0.4723 -1.0847 -0.1520
  174SAPS  H18Z19878   1.341   0.504   5.215 -1.4671 -0.8592  3.3422
  175SAPS     N19879   4.981   0.463   3.198 -0.7083 -0.2969  0.0925
  175SAPS   HN119880   4.922   0.517   3.264 -0.4762 -0.7705  0.6952
  175SAPS   HN219881   5.000   0.368   3.236 -0.6503 -0.0264  0.7486
  175SAPS   HN319882   5.070   0.515   3.185  0.4743 -2.3040 -0.3155
  175SAPS   C1219883   4.889   0.451   3.080 -0.4500  0.9100 -0.2387
  175SAPS  H12A19884   4.797   0.501   3.109 -0.9055 -0.2836  0.4480
  175SAPS   C1319885   4.937   0.509   2.946  0.6194  0.0177  0.2181
  175SAPS  O13A19886   5.043   0.577   2.946  1.1340 -0.2538 -0.6109
  175SAPS  O13B19887   4.855   0.512   2.850  0.5997  0.3583  0.1707
  175SAPS   C1119888   4.858   0.299   3.070 -0.0109  0.3368 -1.2545
  175SAPS  H11A19889   4.777   0.285   2.995 -1.8117  0.6841  0.5701
  175SAPS  H11B19890   4.804   0.257   3.157  0.8240  0.1269 -0.8218
  175SAPS     P19891   4.984   0.071   3.085  0.2747  0.0346  0.0411
  175SAPS   O1319892   4.864  -0.007   3.048 -0.3084 -0.1734  0.3388
  175SAPS   O1419893   5.115   0.009   3.062  0.0671 -0.0799  0.0280
  175SAPS   O1219894   4.975   0.220   3.029 -0.3612 -0.1903 -0.0291
  175SAPS   O1119895   4.964   0.118   3.235  0.2976  0.2575 -0.3690
  175SAPS    C119896   4.970   0.005   3.325  0.2790  0.1704  0.0212
  175SAPS    HA19897   4.920  -0.089   3.292  2.2646 -1.5762  1.6216
  175SAPS    HB19898   5.074  -0.031   3.341  0.3692  0.6895  0.6359
  175SAPS    C219899   4.925   0.044   3.467 -0.0274  0.1262 -0.6388
  175SAPS    HS19900   4.849   0.123   3.448 -1.8281 -1.1457  0.8850
  175SAPS   O2119901   5.031   0.096   3.544  0.2195  0.3253 -0.0407
  175SAPS   C2119902   5.004   0.203   3.617 -0.4677 -0.7040 -0.4031
  175SAPS   O2219903   4.901   0.267   3.606 -0.2810  0.5042  0.6882
  175SAPS   C2219904   5.111   0.225   3.720 -0.1488  0.1723 -0.4006
  175SAPS   H2R19905   5.213   0.219   3.677  0.4227 -1.2415  1.0355
  175SAPS   H2S19906   5.100   0.332   3.747  0.0969  0.3139 -0.8593
  175SAPS    C319907   4.861  -0.074   3.547  0.0636 -0.2944  0.4105
  175SAPS    HX19908   4.935  -0.157   3.548 -0.2541 -0.6563 -1.6030
  175SAPS    HY19909   4.766  -0.101   3.496 -2.0618  3.0473  2.2124
  175SAPS   O3119910   4.828  -0.019   3.670  0.2557  0.3050 -0.2207
  175SAPS   C3119911   4.795  -0.110   3.768 -0.6945  1.1109  0.8392
  175SAPS   O3219912   4.808  -0.230   3.745  0.0718  0.1844  0.0089
  175SAPS   C3219913   4.738  -0.041   3.884  0.3791  0.7205  0.7667
  175SAPS   H2X19914   4.647   0.019   3.861 -0.2394  0.4678  2.4466
  175SAPS   H2Y19915   4.808   0.027   3.936 -0.6833  0.3885  2.6964
  175SAPS   C2319916   5.078   0.136   3.846  0.1742 -1.2146  0.1596
  175SAPS   H3R19917   5.110   0.032   3.822  1.0169 -1.0985  0.7628
  175SAPS   H3S19918   4.967   0.132   3.852  0.0683 -0.2050 -0.6733
  175SAPS   C2419919   5.145   0.172   3.980 -0.4061 -0.0698 -0.0377
  175SAPS   H4R19920   5.255   0.175   3.962 -0.1781 -1.3881  0.9538
  175SAPS   H4S19921   5.118   0.083   4.041 -1.1384 -0.0714 -0.3559
  175SAPS   C2519922   5.112   0.307   4.036  0.1175 -0.3218  0.0088
  175SAPS   H5R19923   5.163   0.388   3.981 -1.0239 -1.0723 -2.3282
  175SAPS   C2619924   5.023   0.334   4.131  0.2495 -0.1986 -0.4230
  175SAPS   H6R19925   5.007   0.440   4.157  1.3741  0.8952 -3.7614
  175SAPS   C2719926   4.952   0.230   4.213  0.0203 -0.2951 -0.1108
  175SAPS   H7R19927   4.972   0.259   4.318  0.5665  1.4186 -0.6463
  175SAPS   H7S19928   5.000   0.130   4.211 -0.3324 -0.4848  0.6612
  175SAPS   C2819929   4.803   0.232   4.185  0.1438 -0.2866  0.0993
  175SAPS   H8R19930   4.771   0.249   4.082  2.2623  1.6673 -0.3144
  175SAPS   C2919931   4.721   0.162   4.264  0.3843  0.8737 -0.6251
  175SAPS   H9R19932   4.615   0.150   4.238  0.5175 -0.8438 -0.5298
  175SAPS  C21019933   4.765   0.107   4.400  1.0331 -0.4015  0.0931
  175SAPS  H10R19934   4.685   0.096   4.476 -0.7307  1.4190 -1.4113
  175SAPS  H10S19935   4.821   0.184   4.458 -2.0139  0.3140  2.3363
  175SAPS  C21119936   4.824  -0.031   4.396  0.4343 -0.0779  0.7581
  175SAPS  H11R19937   4.765  -0.095   4.328  1.9490  1.2385 -1.9761
  175SAPS  C21219938   4.935  -0.072   4.459 -0.9940  0.3270 -0.4406
  175SAPS  H12R19939   4.972  -0.174   4.443  1.8320  1.5758 -2.8516
  175SAPS  C21319940   5.030   0.013   4.550 -0.2748 -0.2142  0.7858
  175SAPS  H13R19941   5.063   0.096   4.484  0.9425  2.3784  4.3270
  175SAPS  H13S19942   5.129  -0.035   4.567  2.3204  4.0075 -0.9538
  175SAPS  C21419943   4.971   0.052   4.686  0.2714  0.5615  0.2983
  175SAPS  H14R19944   4.873   0.100   4.673 -0.5125 -0.2439  2.7219
  175SAPS  C21519945   5.014   0.044   4.809  0.3584  0.3082 -0.5018
  175SAPS  H15R19946   4.939   0.054   4.889  1.4117 -1.1466  0.7155
  175SAPS  C21619947   5.138  -0.019   4.861 -0.5862  0.4128  0.1098
  175SAPS  H16R19948   5.211  -0.048   4.783 -1.4691  0.4309 -0.7363
  175SAPS  H16S19949   5.113  -0.121   4.898  1.4879  0.4282  1.7432
  175SAPS  C21719950   5.195   0.054   4.984 -0.0600  0.2725  0.4721
  175SAPS  H17R19951   5.211   0.162   4.966 -0.2928  0.3847  0.9141
  175SAPS  H17S19952   5.288  -0.000   5.011 -0.3804 -0.6764 -0.2642
  175SAPS  C21819953   5.105   0.055   5.108 -0.1025 -0.0645 -0.0626
  175SAPS  H18R19954   5.060  -0.046   5.116  0.2620 -0.1114  1.8928
  175SAPS  H18S19955   5.018   0.122   5.088 -0.6634 -0.7665 -0.0041
  175SAPS  C21919956   5.181   0.105   5.231  1.0884  0.2642  0.5222
  175SAPS  H19R19957   5.276   0.047   5.241  0.8970 -0.3716 -1.0690
  175SAPS  H19S19958   5.123   0.068   5.318  2.2221 -2.6360  0.1488
  175SAPS  C22019959   5.193   0.255   5.216  0.2973 -0.5885 -0.2316
  175SAPS  H20R19960   5.107   0.315   5.254 -1.5869 -1.2837 -3.0411
  175SAPS  H20S19961   5.206   0.295   5.113 -0.6451  1.5343  0.4132
  175SAPS  H20T19962   5.281   0.295   5.270 -0.2858 -0.2860  0.5057
  175SAPS   C3319963   4.670  -0.147   3.972  0.8609 -0.9394  0.0653
  175SAPS   H3X19964   4.591  -0.201   3.915  0.5359 -1.1522  0.7105
  175SAPS   H3Y19965   4.616  -0.092   4.051  1.3388 -0.5142  0.1016
  175SAPS   C3419966   4.772  -0.231   4.053 -0.4801  0.4094 -0.4518
  175SAPS   H4X19967   4.843  -0.156   4.094  0.1756  0.1388 -1.0751
  175SAPS   H4Y19968   4.829  -0.297   3.985  1.9285  2.6359 -0.7155
  175SAPS   C3519969   4.697  -0.311   4.166 -0.4492  0.3661 -0.3782
  175SAPS   H5X19970   4.626  -0.371   4.105  1.0712 -1.4534 -0.4681
  175SAPS   H5Y19971   4.641  -0.247   4.237  2.0370  3.2331 -0.8101
  175SAPS   C3619972   4.779  -0.416   4.237  0.3126 -0.7211 -0.3087
  175SAPS   H6X19973   4.841  -0.361   4.311 -1.0930  3.2473 -1.8361
  175SAPS   H6Y19974   4.841  -0.474   4.165  1.1056  1.9824 -1.9519
  175SAPS   C3719975   4.699  -0.502   4.335  0.2365  0.5176  0.5192
  175SAPS   H7X19976   4.768  -0.560   4.400 -0.9691 -0.2293  1.1599
  175SAPS   H7Y19977   4.641  -0.579   4.280  1.1441  0.4154 -0.3258
  175SAPS   C3819978   4.615  -0.424   4.434  0.3860  0.1763 -0.2044
  175SAPS   H8X19979   4.516  -0.397   4.391 -1.2969 -3.3639  1.0435
  175SAPS   H8Y19980   4.662  -0.328   4.464 -2.5985  1.9067 -0.6485
  175SAPS   C3919981   4.568  -0.510   4.551  0.1331  0.3249  0.2368
  175SAPS   H9X19982   4.658  -0.552   4.602  1.0024  1.5355 -0.2523
  175SAPS   H9Y19983   4.505  -0.597   4.521  2.5233 -1.4217 -0.0983
  175SAPS  C31019984   4.501  -0.433   4.668 -0.5520 -0.2367 -0.5006
  175SAPS  H10X19985   4.397  -0.395   4.656 -0.9551  0.5773  3.9353
  175SAPS  H10Y19986   4.561  -0.340   4.681  0.3409 -0.6287 -1.6341
  175SAPS  C31119987   4.503  -0.498   4.806  0.0869 -0.1681 -0.2342
  175SAPS  H11X19988   4.481  -0.425   4.887 -1.4166 -0.3275 -0.4810
  175SAPS  H11Y19989   4.608  -0.520   4.835  0.1494 -0.5277 -0.7250
  175SAPS  C31219990   4.409  -0.614   4.811 -0.0064 -0.8616 -0.4227
  175SAPS  H12X19991   4.445  -0.694   4.742  0.5653  0.4886 -1.7419
  175SAPS  H12Y19992   4.311  -0.590   4.764 -0.0172 -1.3868 -0.6857
  175SAPS  C31319993   4.383  -0.698   4.944 -0.7516 -0.6014  0.1965
  175SAPS  H13X19994   4.348  -0.632   5.027 -3.8363  0.4411 -1.7864
  175SAPS  H13Y19995   4.474  -0.760   4.962 -0.4231  0.3138  2.0284
  175SAPS  C31419996   4.266  -0.798   4.930  0.2578 -0.2896  0.1807
  175SAPS  H14X19997   4.278  -0.846   4.831 -1.5912 -1.7833  0.6223
  175SAPS  H14Y19998   4.171  -0.741   4.920 -1.6616 -3.2432  0.4051
  175SAPS  C31519999   4.260  -0.901   5.036  0.1336  0.4553  0.3497
  175SAPS  H15X20000   4.317  -0.989   4.999  0.9489  1.8476 -1.7972
  175SAPS  H15Y20001   4.156  -0.940   5.046 -0.4624  1.0140 -2.7385
  175SAPS  C31620002   4.321  -0.870   5.175 -0.2393  0.1074 -0.3563
  175SAPS  H16X20003   4.281  -0.770   5.203 -0.5298  0.4997 -2.0341
  175SAPS  H16Y20004   4.431  -0.865   5.163 -0.2095 -1.4723 -0.9475
  175SAPS  C31720005   4.293  -0.958   5.294  0.1915  0.2978 -0.5563
  175SAPS  H17X20006   4.364  -0.927   5.373 -0.5724  0.8536 -0.0687
  175SAPS  H17Y20007   4.312  -1.065   5.270  2.1550 -0.0714  2.1840
  175SAPS  C31820008   4.152  -0.948   5.340  0.6144  0.3499 -0.0884
  175SAPS  H18X20009   4.122  -0.842   5.351  1.6853  0.5796  0.7522
  175SAPS  H18Y20010   4.139  -0.998   5.438 -0.4352  3.0930  1.2735
  175SAPS  H18Z20011   4.085  -0.992   5.262  1.4200  2.7794 -2.2807
  176SAPS     N20012   4.559   5.245   3.066  0.1293  0.3979 -0.3211
  176SAPS   HN120013   4.625   5.287   2.998  1.0522 -0.8497 -0.2458
  176SAPS   HN220014   4.563   5.308   3.148  0.7472  1.3411 -1.0545
  176SAPS   HN320015   4.601   5.156   3.100 -0.3098  0.5125  0.5500
  176SAPS   C1220016   4.422   5.245   3.020 -0.4319  0.1513  0.4678
  176SAPS  H12A20017   4.348   5.261   3.096  1.4333  0.5197  2.2951
  176SAPS   C1320018   4.399   5.343   2.905 -0.0192  1.1642  0.3158
  176SAPS  O13A20019   4.499   5.397   2.858 -0.0842  0.0238  0.1165
  176SAPS  O13B20020   4.279   5.386   2.896  0.1284  0.0530 -0.3714
  176SAPS   C1120021   4.401   5.101   2.965  0.1103  0.5902 -0.0994
  176SAPS  H11A20022   4.485   5.065   2.902 -1.7679 -0.3152 -2.2406
  176SAPS  H11B20023   4.323   5.102   2.886  0.5787  0.7360 -0.5588
  176SAPS     P20024   4.215   4.962   3.087  0.1730  0.2880 -0.2943
  176SAPS   O1320025   4.119   5.070   3.054 -0.3378  0.3189  0.1531
  176SAPS   O1420026   4.191   4.830   3.023 -0.6628 -0.2770  0.1534
  176SAPS   O1220027   4.367   5.011   3.069  0.0934  0.2332  0.2998
  176SAPS   O1120028   4.206   4.936   3.243 -0.6362 -0.4640 -0.1362
  176SAPS    C120029   4.306   4.843   3.302  0.8839 -0.5798  0.6686
  176SAPS    HA20030   4.248   4.754   3.334 -0.6522  0.7358  1.7441
  176SAPS    HB20031   4.388   4.818   3.232  0.8759  1.7264 -0.2599
  176SAPS    C220032   4.360   4.916   3.432  0.2007  0.0053  0.6015
  176SAPS    HS20033   4.453   4.867   3.470  1.7984  1.9849 -0.5528
  176SAPS   O2120034   4.254   4.918   3.531 -0.4307 -0.3319  0.1399
  176SAPS   C2120035   4.223   4.798   3.576 -0.1408 -0.2782 -0.0359
  176SAPS   O2220036   4.290   4.696   3.571 -0.9305 -0.5808  0.1456
  176SAPS   C2220037   4.095   4.816   3.669 -0.0537  0.1773 -0.1561
  176SAPS   H2R20038   4.117   4.917   3.710  0.0212  0.5130 -0.9888
  176SAPS   H2S20039   4.010   4.815   3.597  2.7130  0.0364 -3.7599
  176SAPS    C320040   4.405   5.069   3.413  0.0785  0.5920 -0.2398
  176SAPS    HX20041   4.326   5.111   3.347  0.1814 -3.1875 -3.0694
  176SAPS    HY20042   4.492   5.072   3.344 -0.1185  0.8237 -0.4821
  176SAPS   O3120043   4.435   5.130   3.535  0.6379 -0.3003 -0.0143
  176SAPS   C3120044   4.558   5.124   3.582  0.5779  0.2898  0.4199
  176SAPS   O3220045   4.641   5.044   3.550  0.0607  0.2181  0.1284
  176SAPS   C3220046   4.585   5.237   3.682 -0.3485 -0.0064 -0.0759
  176SAPS   H2X20047   4.515   5.318   3.651 -1.1533 -1.1618 -1.3933
  176SAPS   H2Y20048   4.694   5.257   3.689 -0.4528 -0.0478  2.2112
  176SAPS   C2320049   4.076   4.696   3.768 -0.1968 -0.2479  0.1082
  176SAPS   H3R20050   4.173   4.678   3.818 -0.3681  1.1808  1.0324
  176SAPS   H3S20051   4.051   4.616   3.696 -0.5597 -0.2214  0.2023
  176SAPS   C2420052   3.960   4.716   3.868  0.0370 -0.3448  0.3622
  176SAPS   H4R20053   3.992   4.782   3.952  1.7638 -1.7560  0.8800
  176SAPS   H4S20054   3.936   4.629   3.932  1.3102  0.3904  1.9271
  176SAPS   C2520055   3.839   4.764   3.795 -0.5253  0.3681  0.3973
  176SAPS   H5R20056   3.809   4.692   3.717 -0.6954 -0.4537  1.2086
  176SAPS   C2620057   3.753   4.861   3.831  0.1759 -0.0177 -0.2197
  176SAPS   H6R20058   3.672   4.887   3.762  0.8397  0.0947 -0.9747
  176SAPS   C2720059   3.771   4.943   3.954 -0.0936  0.3359 -0.8058
  176SAPS   H7R20060   3.731   5.044   3.928 -0.2550  0.3600 -0.4560
  176SAPS   H7S20061   3.877   4.973   3.973 -0.2663  0.2481  0.3088
  176SAPS   C2820062   3.705   4.892   4.073 -0.3245  0.5813  0.1844
  176SAPS   H8R20063   3.616   4.830   4.055 -0.8469  1.0818  0.9718
  176SAPS   C2920064   3.760   4.896   4.198  0.7765  0.2104 -0.3734
  176SAPS   H9R20065   3.688   4.870   4.277 -2.3952  1.1572 -2.7479
  176SAPS  C21020066   3.892   4.956   4.244  0.3433  0.0948  0.4558
  176SAPS  H10R20067   3.870   5.022   4.330  0.2096  0.7039 -0.0381
  176SAPS  H10S20068   3.943   5.023   4.171  1.1447  1.1104  1.9124
  176SAPS  C21120069   3.988   4.843   4.280 -0.1192  0.1643  0.4460
  176SAPS  H11R20070   4.070   4.834   4.207 -0.0982 -1.0696  0.6032
  176SAPS  C21220071   3.980   4.771   4.392 -0.6587 -0.0697  0.0432
  176SAPS  H12R20072   4.059   4.696   4.406  1.2604  1.7016 -0.7519
  176SAPS  C21320073   3.876   4.772   4.498 -0.5558  0.4653  0.6080
  176SAPS  H13R20074   3.825   4.871   4.492  1.7901  1.6641 -1.1979
  176SAPS  H13S20075   3.930   4.765   4.595 -1.5159 -0.3078  1.0981
  176SAPS  C21420076   3.769   4.674   4.473  0.1955  0.1529  0.2763
  176SAPS  H14R20077   3.721   4.683   4.375 -1.4526  1.3523  1.1547
  176SAPS  C21520078   3.712   4.591   4.562 -0.2751  0.6053  0.7045
  176SAPS  H15R20079   3.627   4.529   4.529  0.1194 -0.9240  2.3759
  176SAPS  C21620080   3.742   4.568   4.706  0.0706  0.0613  0.3481
  176SAPS  H16R20081   3.658   4.611   4.764 -1.0549 -2.1360  0.4555
  176SAPS  H16S20082   3.834   4.621   4.738  1.6548 -3.5152  2.3166
  176SAPS  C21720083   3.770   4.422   4.743  0.3385 -0.5380  0.1939
  176SAPS  H17R20084   3.861   4.397   4.684 -0.1668 -2.2960  0.0848
  176SAPS  H17S20085   3.682   4.364   4.706 -0.0161 -0.2404  0.5598
  176SAPS  C21820086   3.789   4.387   4.892  0.5258  0.2191  0.8604
  176SAPS  H18R20087   3.862   4.458   4.934  0.3237  0.8534  0.1698
  176SAPS  H18S20088   3.817   4.280   4.885 -0.7833 -0.0417 -2.2274
  176SAPS  C21920089   3.650   4.388   4.967 -0.1603 -0.5537 -0.5617
  176SAPS  H19R20090   3.570   4.335   4.912  0.3677 -3.6859  1.4190
  176SAPS  H19S20091   3.618   4.493   4.982 -2.2306 -1.3470  1.1033
  176SAPS  C22020092   3.672   4.341   5.107  0.1774 -0.1652 -0.6272
  176SAPS  H20R20093   3.676   4.231   5.125 -1.4230  0.0843  1.6159
  176SAPS  H20S20094   3.585   4.375   5.167 -0.1986 -1.0576 -0.6570
  176SAPS  H20T20095   3.765   4.390   5.144 -2.0253  4.2645 -0.2806
  176SAPS   C3320096   4.555   5.207   3.828  0.0513 -0.3927  0.4384
  176SAPS   H3X20097   4.636   5.141   3.865 -0.0789 -0.9251 -0.1946
  176SAPS   H3Y20098   4.467   5.140   3.831 -0.7382  0.2512 -3.0569
  176SAPS   C3420099   4.541   5.331   3.915 -0.2841  0.5220  0.5603
  176SAPS   H4X20100   4.467   5.394   3.861 -1.0332 -1.8030 -1.2912
  176SAPS   H4Y20101   4.640   5.381   3.914 -0.6815  1.3193  0.1043
  176SAPS   C3520102   4.482   5.314   4.055  0.0461  0.3461 -0.0496
  176SAPS   H5X20103   4.476   5.410   4.111 -2.1530 -0.1894  0.7272
  176SAPS   H5Y20104   4.551   5.242   4.104  0.0309 -0.4368 -1.1507
  176SAPS   C3620105   4.344   5.248   4.053 -0.0145  0.2776 -0.3101
  176SAPS   H6X20106   4.350   5.142   4.021 -1.5384 -0.3439  1.2404
  176SAPS   H6Y20107   4.276   5.305   3.986  0.5887 -0.5269 -1.6304
  176SAPS   C3720108   4.269   5.255   4.189 -0.1096  0.4183 -1.2596
  176SAPS   H7X20109   4.174   5.197   4.182 -0.2959  0.5848 -0.2556
  176SAPS   H7Y20110   4.255   5.358   4.228  1.6994 -0.5932  2.4604
  176SAPS   C3820111   4.339   5.185   4.308 -0.1797 -1.2296 -0.3601
  176SAPS   H8X20112   4.426   5.247   4.339  0.3588 -1.1519 -1.9540
  176SAPS   H8Y20113   4.390   5.091   4.278 -0.9510 -1.0003 -2.5567
  176SAPS   C3920114   4.248   5.168   4.430 -0.9623  0.0357 -0.3017
  176SAPS   H9X20115   4.170   5.090   4.412 -0.2626 -1.5453  2.8724
  176SAPS   H9Y20116   4.193   5.263   4.450  2.3284  2.1951 -0.8019
  176SAPS  C31020117   4.323   5.123   4.558 -1.0415  0.0121  0.0631
  176SAPS  H10X20118   4.397   5.202   4.582 -0.1404 -0.8216  0.0626
  176SAPS  H10Y20119   4.384   5.041   4.515 -0.3260  0.9370 -0.7376
  176SAPS  C31120120   4.248   5.102   4.687  0.4505  0.0696 -0.4770
  176SAPS  H11X20121   4.180   5.016   4.671 -0.7262  1.2335 -2.1543
  176SAPS  H11Y20122   4.180   5.188   4.707 -0.5256 -1.1410  1.8574
  176SAPS  C31220123   4.333   5.050   4.805 -1.3003 -0.0730  0.5024
  176SAPS  H12X20124   4.424   5.113   4.803 -0.8063 -0.7825 -0.9435
  176SAPS  H12Y20125   4.361   4.944   4.789  0.6230  0.3670  0.6814
  176SAPS  C31320126   4.260   5.060   4.935  0.4601  0.2480 -0.8626
  176SAPS  H13X20127   4.154   5.026   4.933  0.5785 -0.1752 -0.2993
  176SAPS  H13Y20128   4.247   5.170   4.947  0.4113  0.2007 -0.4647
  176SAPS  C31420129   4.356   5.014   5.047 -0.3752 -0.3366  0.6197
  176SAPS  H14X20130   4.454   5.065   5.037 -1.8319  2.1293 -4.4239
  176SAPS  H14Y20131   4.376   4.905   5.041  0.0689 -0.2576  0.6345
  176SAPS  C31520132   4.302   5.038   5.191  0.7341  0.3057 -0.2377
  176SAPS  H15X20133   4.208   4.979   5.189  0.1319  1.2480 -2.8120
  176SAPS  H15Y20134   4.266   5.143   5.196 -0.0415 -0.0159  1.5101
  176SAPS  C31620135   4.394   5.008   5.312 -0.0653 -0.2979 -0.2978
  176SAPS  H16X20136   4.469   5.090   5.314 -0.9917  0.5947 -1.0348
  176SAPS  H16Y20137   4.458   4.917   5.312 -1.2450 -1.1934  1.6095
  176SAPS  C31720138   4.311   4.987   5.443  0.1016 -0.1540 -0.2488
  176SAPS  H17X20139   4.248   4.898   5.425 -1.8182  1.0135  0.4525
  176SAPS  H17Y20140   4.256   5.083   5.448  0.8646  0.4331 -2.1257
  176SAPS  C31820141   4.393   4.958   5.569  0.2410  0.4215 -0.0995
  176SAPS  H18X20142   4.334   4.913   5.651 -0.3019  1.3783  0.0517
  176SAPS  H18Y20143   4.447   5.052   5.592 -0.8506  1.8546 -2.8163
  176SAPS  H18Z20144   4.462   4.875   5.542 -2.2157 -1.4516 -0.9999
  177SAPS     N20145   5.824   0.157   3.352 -0.1896  0.7009 -0.2480
  177SAPS   HN120146   5.774   0.196   3.434  0.1582  0.9750 -0.1674
  177SAPS   HN220147   5.914   0.108   3.371 -2.0747 -2.9870  0.0513
  177SAPS   HN320148   5.855   0.226   3.281  0.7474 -0.1729 -0.7247
  177SAPS   C1220149   5.724   0.064   3.287 -0.2621 -0.6616  0.3810
  177SAPS  H12A20150   5.676   0.131   3.218 -0.3916 -1.0830  0.0599
  177SAPS   C1320151   5.776  -0.049   3.199 -0.1487  0.2506  0.0708
  177SAPS  O13A20152   5.902  -0.080   3.195  0.1047  0.1746 -0.0302
  177SAPS  O13B20153   5.694  -0.131   3.160 -0.7231 -0.6208 -0.1020
  177SAPS   C1120154   5.624   0.020   3.394 -0.4291 -0.1189  0.6346
  177SAPS  H11A20155   5.655  -0.071   3.451 -2.1511 -0.9640  0.2841
  177SAPS  H11B20156   5.535  -0.004   3.332 -0.3865 -0.8750  0.8585
  177SAPS     P20157   5.459   0.181   3.515  0.1786  0.2146 -0.0625
  177SAPS   O1320158   5.494   0.294   3.602 -0.1735  0.3735 -0.0586
  177SAPS   O1420159   5.389   0.202   3.388  0.0020  0.0535  0.2439
  177SAPS   O1220160   5.598   0.125   3.476  0.3056  0.1218  0.2930
  177SAPS   O1120161   5.397   0.061   3.596  0.3573  0.4894 -0.0402
  177SAPS    C120162   5.432   0.040   3.737 -0.4963  0.7416 -0.1925
  177SAPS    HA20163   5.533   0.078   3.764 -0.2093  0.7618 -1.2386
  177SAPS    HB20164   5.355   0.087   3.802 -0.7748  1.5999 -1.1013
  177SAPS    C220165   5.416  -0.107   3.779 -0.2088  0.3955  0.2936
  177SAPS    HS20166   5.466  -0.157   3.693 -1.8728 -0.7456 -0.0807
  177SAPS   O2120167   5.274  -0.136   3.780 -0.2566  0.4121  0.1537
  177SAPS   C2120168   5.247  -0.260   3.779 -0.3585  0.8007  0.7709
  177SAPS   O2220169   5.332  -0.349   3.760 -0.2335  0.6372 -0.4052
  177SAPS   C2220170   5.105  -0.284   3.789  0.4725  0.8193  0.4078
  177SAPS   H2R20171   5.055  -0.200   3.842 -2.7279 -0.0201 -1.0228
  177SAPS   H2S20172   5.055  -0.296   3.690  2.3997 -1.6247 -0.3895
  177SAPS    C320173   5.493  -0.138   3.916  0.8238 -0.3204  0.6589
  177SAPS    HX20174   5.596  -0.138   3.875  0.6092 -1.0521  0.1052
  177SAPS    HY20175   5.468  -0.241   3.950 -0.8259 -0.0326  0.3506
  177SAPS   O3120176   5.468  -0.042   4.021  0.0013 -0.7010  0.7613
  177SAPS   C3120177   5.455  -0.077   4.142  0.5569  0.1024 -0.2254
  177SAPS   O3220178   5.457  -0.187   4.194  0.5229  0.6830  1.2809
  177SAPS   C3220179   5.429   0.054   4.218  0.1683 -0.5159 -0.1796
  177SAPS   H2X20180   5.338   0.103   4.175 -0.0343 -0.6895  0.0500
  177SAPS   H2Y20181   5.517   0.121   4.202 -0.4625  0.7603  1.3599
  177SAPS   C2320182   5.082  -0.419   3.872 -0.0022 -0.3622  0.3965
  177SAPS   H3R20183   5.132  -0.508   3.829 -1.8238 -1.0800 -0.3037
  177SAPS   H3S20184   4.974  -0.445   3.873  0.4839 -2.5330  0.9488
  177SAPS   C2420185   5.115  -0.406   4.022  0.2183 -0.6916  0.2888
  177SAPS   H4R20186   5.048  -0.329   4.064  3.5267  1.7855  1.4690
  177SAPS   H4S20187   5.215  -0.359   4.032 -0.3583  1.0579 -1.5356
  177SAPS   C2520188   5.104  -0.534   4.094  0.3615 -0.2954 -0.5815
  177SAPS   H5R20189   5.048  -0.610   4.039 -1.2721  0.9284 -0.6629
  177SAPS   C2620190   5.165  -0.575   4.212  0.3987  0.3886 -0.0227
  177SAPS   H6R20191   5.137  -0.674   4.249  0.6529 -1.4403 -4.1747
  177SAPS   C2720192   5.255  -0.480   4.297  0.6131  0.5944 -0.0284
  177SAPS   H7R20193   5.292  -0.393   4.239 -4.7140  3.7519  0.6364
  177SAPS   H7S20194   5.351  -0.530   4.322 -0.1450 -1.7498 -1.5293
  177SAPS   C2820195   5.191  -0.409   4.412  0.8848  0.0604 -1.0811
  177SAPS   H8R20196   5.082  -0.393   4.409  0.7632 -0.4838  0.0142
  177SAPS   C2920197   5.252  -0.375   4.527 -0.0223 -0.3059  0.5177
  177SAPS   H9R20198   5.193  -0.322   4.604 -1.8789 -0.8430 -0.4552
  177SAPS  C21020199   5.401  -0.386   4.548 -0.2934  0.2147  0.5629
  177SAPS  H10R20200   5.446  -0.473   4.494 -1.2514 -0.2082  0.4356
  177SAPS  H10S20201   5.415  -0.418   4.654  0.3102 -0.2453  0.3549
  177SAPS  C21120202   5.485  -0.265   4.534  0.4940 -0.0451 -0.7067
  177SAPS  H11R20203   5.487  -0.235   4.428 -0.6531  1.8711 -0.2297
  177SAPS  C21220204   5.553  -0.197   4.631  0.6859 -0.0506 -1.3784
  177SAPS  H12R20205   5.623  -0.114   4.614  1.5944 -0.1252  1.4708
  177SAPS  C21320206   5.560  -0.247   4.776 -0.3961  0.4754 -0.0032
  177SAPS  H13R20207   5.551  -0.357   4.773  0.8958  0.3629 -0.4690
  177SAPS  H13S20208   5.471  -0.215   4.834 -0.8413 -2.0500  0.8164
  177SAPS  C21420209   5.693  -0.216   4.846  0.2014  0.3331 -0.1266
  177SAPS  H14R20210   5.786  -0.214   4.787  0.4046  2.2259  0.1899
  177SAPS  C21520211   5.707  -0.199   4.981 -0.7170 -0.1373  0.9457
  177SAPS  H15R20212   5.809  -0.183   5.021 -0.1936 -1.8132  0.3628
  177SAPS  C21620213   5.598  -0.194   5.081  0.2162 -0.0378 -0.5014
  177SAPS  H16R20214   5.605  -0.283   5.147 -2.7484  0.0975  0.1633
  177SAPS  H16S20215   5.499  -0.203   5.031  0.0424  1.3091 -0.4304
  177SAPS  C21720216   5.593  -0.059   5.154  0.5557 -0.0776 -0.2894
  177SAPS  H17R20217   5.514  -0.064   5.232  0.1696  0.2487 -0.6583
  177SAPS  H17S20218   5.562   0.022   5.084 -0.0694  1.2839  1.4934
  177SAPS  C21820219   5.720  -0.026   5.233 -0.3320  0.0590 -0.3781
  177SAPS  H18R20220   5.716   0.068   5.292  0.7802 -0.2962  0.2861
  177SAPS  H18S20221   5.805  -0.020   5.162  0.2086 -0.7850  0.1752
  177SAPS  C21920222   5.758  -0.136   5.334 -0.0540 -0.5183 -0.0645
  177SAPS  H19R20223   5.779  -0.232   5.282  0.6076 -0.2078 -0.3780
  177SAPS  H19S20224   5.678  -0.151   5.410  0.2314  0.2636  0.3969
  177SAPS  C22020225   5.877  -0.088   5.415  0.3317 -0.1511 -0.6178
  177SAPS  H20R20226   5.843   0.006   5.463  2.1836 -0.4274  1.3734
  177SAPS  H20S20227   5.976  -0.075   5.366  1.7551 -1.3876  1.7684
  177SAPS  H20T20228   5.896  -0.141   5.511  0.3598  0.0369 -0.5202
  177SAPS   C3320229   5.416   0.035   4.372 -0.4813  0.5020  0.3092
  177SAPS   H3X20230   5.520   0.019   4.409  0.1488  1.4848 -0.9211
  177SAPS   H3Y20231   5.371  -0.056   4.416 -0.4448  0.2737 -0.1160
  177SAPS   C3420232   5.359   0.156   4.444 -0.5227 -0.9599  0.1137
  177SAPS   H4X20233   5.254   0.159   4.410 -0.2146  0.7957 -0.8167
  177SAPS   H4Y20234   5.414   0.243   4.403 -0.1835 -0.5127  1.4619
  177SAPS   C3520235   5.370   0.148   4.598 -0.1512  0.6690  0.0097
  177SAPS   H5X20236   5.324   0.052   4.629  0.8834  0.9910  2.8630
  177SAPS   H5Y20237   5.312   0.234   4.637 -1.1626 -0.5497  1.2535
  177SAPS   C3620238   5.511   0.181   4.646  0.1052  0.4842  0.5934
  177SAPS   H6X20239   5.522   0.281   4.599 -3.2527  0.7419  0.0955
  177SAPS   H6Y20240   5.572   0.095   4.612 -0.1930  1.1961 -1.8875
  177SAPS   C3720241   5.521   0.164   4.799  0.1804  0.2708  0.2578
  177SAPS   H7X20242   5.625   0.140   4.827 -0.3218  0.5080  2.4553
  177SAPS   H7Y20243   5.463   0.075   4.834  1.9987 -0.9771  0.2141
  177SAPS   C3820244   5.488   0.296   4.874 -0.1340  0.3674 -0.1158
  177SAPS   H8X20245   5.385   0.337   4.869 -0.4849 -0.3575  0.8344
  177SAPS   H8Y20246   5.548   0.370   4.816 -0.3504 -0.1252 -1.0037
  177SAPS   C3920247   5.531   0.282   5.020  0.1072 -0.2715 -0.1877
  177SAPS   H9X20248   5.636   0.247   5.022  0.3859  0.4752 -1.1260
  177SAPS   H9Y20249   5.472   0.199   5.066 -0.5441 -0.3650 -1.1753
  177SAPS  C31020250   5.525   0.405   5.111  0.7779 -0.1567 -0.1896
  177SAPS  H10X20251   5.420   0.434   5.135  0.0018 -0.6422 -2.7371
  177SAPS  H10Y20252   5.568   0.492   5.057 -0.2560  0.9954  0.7705
  177SAPS  C31120253   5.593   0.376   5.244 -0.1053  0.3689 -0.5328
  177SAPS  H11X20254   5.701   0.362   5.224 -0.4274  0.4382 -2.5764
  177SAPS  H11Y20255   5.553   0.285   5.293 -1.6805  1.6521  0.6969
  177SAPS  C31220256   5.558   0.484   5.355  0.0645 -0.2905 -0.4859
  177SAPS  H12X20257   5.455   0.467   5.392 -0.7063 -0.6829 -2.6557
  177SAPS  H12Y20258   5.544   0.587   5.317 -0.5045  0.9764  2.7975
  177SAPS  C31320259   5.665   0.495   5.459 -0.1568  0.4360 -0.1884
  177SAPS  H13X20260   5.706   0.397   5.492 -3.4515 -0.2984  2.2342
  177SAPS  H13Y20261   5.623   0.534   5.554 -0.5992  0.3916 -0.3674
  177SAPS  C31420262   5.776   0.582   5.410 -0.2960 -0.6269  0.3322
  177SAPS  H14X20263   5.743   0.685   5.386 -1.2117 -1.1740 -0.8750
  177SAPS  H14Y20264   5.819   0.550   5.313  0.6893  3.6420 -0.8171
  177SAPS  C31520265   5.901   0.605   5.497  0.1557 -0.1625 -0.6181
  177SAPS  H15X20266   5.961   0.512   5.499 -0.5820 -0.6540 -0.8485
  177SAPS  H15Y20267   5.868   0.621   5.601 -0.0390  0.4475 -0.7686
  177SAPS  C31620268   5.993   0.716   5.451  0.0068 -0.2206  0.0753
  177SAPS  H16X20269   6.080   0.725   5.520  3.3078  1.2571 -3.8709
  177SAPS  H16Y20270   5.932   0.806   5.471  0.3648 -0.4809  2.6485
  177SAPS  C31720271   6.055   0.699   5.307  0.0597  0.3570  0.3367
  177SAPS  H17X20272   5.985   0.695   5.221  2.6415  2.9688 -2.1215
  177SAPS  H17Y20273   6.116   0.608   5.291 -2.9940 -1.7851  0.0980
  177SAPS  C31820274   6.144   0.812   5.276 -0.5540 -0.0979 -0.1692
  177SAPS  H18X20275   6.087   0.907   5.282 -1.0650 -0.3349 -1.0292
  177SAPS  H18Y20276   6.174   0.803   5.170 -0.0694  0.0926 -0.0520
  177SAPS  H18Z20277   6.226   0.809   5.352 -1.3143  1.3237  0.7396
  178SAPS     N20278   3.164   3.304   3.002 -0.5360  0.2831  0.0233
  178SAPS   HN120279   3.228   3.233   3.041 -0.6983  0.2397  0.2123
  178SAPS   HN220280   3.122   3.355   3.082 -0.0387  0.4834  0.1621
  178SAPS   HN320281   3.090   3.258   2.945  0.6227 -0.7968 -0.6703
  178SAPS   C1220282   3.232   3.419   2.936 -0.3578 -0.1850  0.3177
  178SAPS  H12A20283   3.301   3.382   2.861  0.2947  1.6066 -0.0206
  178SAPS   C1320284   3.143   3.524   2.872  0.0421 -0.4966  0.6445
  178SAPS  O13A20285   3.020   3.498   2.843  0.0398  0.1579  0.0292
  178SAPS  O13B20286   3.202   3.619   2.810 -0.2297 -0.4837 -0.6932
  178SAPS   C1120287   3.323   3.497   3.045  0.3176  0.2037  0.6717
  178SAPS  H11A20288   3.259   3.523   3.133  1.2447 -1.0107  1.7364
  178SAPS  H11B20289   3.362   3.589   2.997 -0.5005 -0.0217 -0.4880
  178SAPS     P20290   3.527   3.452   3.206 -0.5072  0.2005 -0.3860
  178SAPS   O1320291   3.626   3.346   3.190  0.2444  0.5292 -0.2117
  178SAPS   O1420292   3.579   3.585   3.183 -0.4792 -0.2534  0.4050
  178SAPS   O1220293   3.423   3.413   3.093  0.6186 -0.5026  1.1455
  178SAPS   O1120294   3.442   3.451   3.337  0.1559  0.2620  0.3158
  178SAPS    C120295   3.381   3.335   3.379  0.2731  0.3402 -0.4298
  178SAPS    HA20296   3.294   3.360   3.442  0.6233 -0.4880  0.4041
  178SAPS    HB20297   3.334   3.280   3.294  0.5579  0.1453 -0.4670
  178SAPS    C220298   3.471   3.231   3.443 -0.1218 -0.3987 -0.5141
  178SAPS    HS20299   3.563   3.216   3.384 -0.4928 -1.4272 -0.8516
  178SAPS   O2120300   3.394   3.107   3.428 -0.2304 -0.3522  0.1928
  178SAPS   C2120301   3.437   3.001   3.479  0.3215 -0.3433  0.0666
  178SAPS   O2220302   3.548   2.979   3.529  0.2186 -0.4767 -0.0678
  178SAPS   C2220303   3.333   2.884   3.456  0.6902 -0.6871  0.0541
  178SAPS   H2R20304   3.243   2.932   3.499  0.8403 -0.6152  0.2885
  178SAPS   H2S20305   3.315   2.869   3.347 -1.7342 -1.4122  0.4987
  178SAPS    C320306   3.514   3.261   3.584 -0.1221 -0.4819  0.4781
  178SAPS    HX20307   3.562   3.360   3.592 -2.1457  0.4607  1.8659
  178SAPS    HY20308   3.590   3.198   3.636 -1.4437 -0.6815  2.3011
  178SAPS   O3120309   3.394   3.262   3.669  0.1524  1.2630 -0.4147
  178SAPS   C3120310   3.412   3.263   3.798  0.1669  0.3479  0.1511
  178SAPS   O3220311   3.518   3.274   3.860  1.1875 -0.2915 -0.1688
  178SAPS   C3220312   3.270   3.224   3.861 -0.0499  0.2861  1.0355
  178SAPS   H2X20313   3.255   3.115   3.850  0.1404  0.1831  1.7733
  178SAPS   H2Y20314   3.191   3.289   3.817  0.6131 -0.8025 -2.0014
  178SAPS   C2320315   3.358   2.755   3.530 -0.5074  0.5603 -0.0406
  178SAPS   H3R20316   3.338   2.767   3.639  0.3603  1.3130  0.0469
  178SAPS   H3S20317   3.466   2.732   3.522 -0.7284 -1.7126  2.2481
  178SAPS   C2420318   3.285   2.633   3.474  0.6626  0.1470 -0.0817
  178SAPS   H4R20319   3.283   2.626   3.363 -0.9410  0.3418 -0.0808
  178SAPS   H4S20320   3.180   2.645   3.509 -0.2513 -0.7450 -2.3081
  178SAPS   C2520321   3.358   2.506   3.520 -0.0698  0.2219 -0.1395
  178SAPS   H5R20322   3.451   2.489   3.463  0.6565  0.8240  0.8370
  178SAPS   C2620323   3.341   2.422   3.625 -0.5356 -0.0132  0.2017
  178SAPS   H6R20324   3.405   2.334   3.634 -1.5122 -0.7376  0.2116
  178SAPS   C2720325   3.226   2.442   3.714 -0.6951 -1.0548  0.6990
  178SAPS   H7R20326   3.196   2.549   3.707  2.3332 -0.1178  0.4732
  178SAPS   H7S20327   3.273   2.439   3.814  1.2674 -0.1538 -0.1470
  178SAPS   C2820328   3.107   2.358   3.690 -0.3460 -0.3158  0.2119
  178SAPS   H8R20329   3.078   2.357   3.584  0.9407 -0.9990 -0.1422
  178SAPS   C2920330   3.043   2.281   3.778 -0.3311 -0.6208  0.8964
  178SAPS   H9R20331   2.954   2.229   3.739  0.2811  0.5804 -2.4518
  178SAPS  C21020332   3.063   2.274   3.926 -0.0772 -0.5544  0.9232
  178SAPS  H10R20333   3.158   2.320   3.962 -0.7468  0.0131  2.0509
  178SAPS  H10S20334   3.064   2.168   3.960  0.2756 -0.8110  0.1403
  178SAPS  C21120335   2.943   2.334   3.994  0.1715 -0.4786 -0.5531
  178SAPS  H11R20336   2.879   2.405   3.939  1.7358  0.6051 -1.0541
  178SAPS  C21220337   2.929   2.314   4.129  0.0044  0.0577  0.5783
  178SAPS  H12R20338   2.844   2.365   4.178 -0.0985  1.6423 -1.1301
  178SAPS  C21320339   3.019   2.222   4.208  0.0800  0.7549  0.0513
  178SAPS  H13R20340   3.017   2.249   4.316  0.6150  0.8215  0.0471
  178SAPS  H13S20341   3.122   2.261   4.201 -0.7344  3.3889  1.4544
  178SAPS  C21420342   3.007   2.072   4.191  0.1807  0.0595  0.6655
  178SAPS  H14R20343   2.918   2.030   4.142  0.9862 -0.7095 -0.1855
  178SAPS  C21520344   3.087   1.978   4.247 -0.1616 -0.7784 -0.2204
  178SAPS  H15R20345   3.060   1.875   4.222 -0.2251 -0.6597 -0.6588
  178SAPS  C21620346   3.200   1.995   4.337 -0.2024  0.6788 -0.3386
  178SAPS  H16R20347   3.245   2.097   4.334  1.3259  0.1001  1.1708
  178SAPS  H16S20348   3.284   1.934   4.296 -0.2564 -0.2270  0.8625
  178SAPS  C21720349   3.187   1.947   4.486  0.8117 -0.5241 -0.2908
  178SAPS  H17R20350   3.293   1.937   4.516  0.2977 -3.8812  0.7358
  178SAPS  H17S20351   3.143   1.845   4.493  1.4536 -0.7975 -0.2021
  178SAPS  C21820352   3.128   2.051   4.582 -0.0188 -0.1542  0.3785
  178SAPS  H18R20353   3.188   2.145   4.585 -0.9497  0.4508  2.2545
  178SAPS  H18S20354   3.142   2.022   4.689  3.3027  3.8810  1.3547
  178SAPS  C21920355   2.978   2.082   4.563 -0.7502  0.5394  0.7045
  178SAPS  H19R20356   2.920   1.999   4.608 -0.3177  0.2315  0.7044
  178SAPS  H19S20357   2.963   2.083   4.453  1.1454 -1.3789  0.3447
  178SAPS  C22020358   2.926   2.215   4.614 -0.3777  0.5843 -0.2576
  178SAPS  H20R20359   2.955   2.234   4.719  0.2134 -1.2378 -0.0649
  178SAPS  H20S20360   2.816   2.202   4.622 -0.0462 -1.4919  1.6766
  178SAPS  H20T20361   2.959   2.294   4.542  1.8534  1.1519  1.2964
  178SAPS   C3320362   3.271   3.255   4.009  0.1354  0.0356  0.0725
  178SAPS   H3X20363   3.164   3.257   4.039  1.0046  1.0324  3.4827
  178SAPS   H3Y20364   3.306   3.356   4.037  0.8338 -0.4990  1.1911
  178SAPS   C3420365   3.341   3.152   4.097 -0.3943 -0.2001  0.2900
  178SAPS   H4X20366   3.449   3.154   4.071 -0.4625  1.4497  0.0275
  178SAPS   H4Y20367   3.300   3.050   4.079 -1.3543  0.2569 -0.2182
  178SAPS   C3520368   3.330   3.189   4.249 -0.2574  0.3789  0.0571
  178SAPS   H5X20369   3.229   3.198   4.294 -1.6465 -1.9530 -2.3386
  178SAPS   H5Y20370   3.381   3.288   4.255 -0.6081  0.5371  0.5048
  178SAPS   C3620371   3.411   3.085   4.334  0.7487  0.2910 -0.2317
  178SAPS   H6X20372   3.519   3.089   4.307  0.9494 -0.2681  0.4476
  178SAPS   H6Y20373   3.378   2.985   4.301  1.0635  0.3736 -0.8064
  178SAPS   C3720374   3.388   3.094   4.489 -0.3028 -0.2732 -0.0194
  178SAPS   H7X20375   3.424   2.998   4.534  0.7364 -1.0146 -2.2887
  178SAPS   H7Y20376   3.279   3.101   4.509  0.1638  2.1696  2.2826
  178SAPS   C3820377   3.468   3.208   4.545  0.3059 -0.0997 -0.1075
  178SAPS   H8X20378   3.426   3.303   4.506 -0.3456 -1.2376 -2.3130
  178SAPS   H8Y20379   3.571   3.207   4.503  1.2813 -1.1544  2.1306
  178SAPS   C3920380   3.469   3.200   4.702 -0.3526 -0.1288  0.0578
  178SAPS   H9X20381   3.525   3.109   4.731  0.3342 -0.0107 -0.8609
  178SAPS   H9Y20382   3.364   3.179   4.730 -0.4976 -0.3376 -0.6095
  178SAPS  C31020383   3.512   3.331   4.772 -0.2636  0.2757  0.1353
  178SAPS  H10X20384   3.431   3.403   4.746  0.7211  1.5614  0.5200
  178SAPS  H10Y20385   3.608   3.365   4.725  1.6100 -0.2395  3.3369
  178SAPS  C31120386   3.509   3.317   4.921 -0.0645 -1.2536  0.4547
  178SAPS  H11X20387   3.562   3.223   4.944  2.4518  0.0040  0.0922
  178SAPS  H11Y20388   3.405   3.311   4.962 -0.2655 -0.1080  0.1538
  178SAPS  C31220389   3.584   3.431   4.999  0.4980  0.3169  0.8728
  178SAPS  H12X20390   3.532   3.529   4.992  1.4047  0.7191 -0.7509
  178SAPS  H12Y20391   3.681   3.452   4.949 -0.4324  0.1799 -1.0744
  178SAPS  C31320392   3.601   3.397   5.148 -0.6567  0.1471 -0.5500
  178SAPS  H13X20393   3.618   3.287   5.155  0.7742  0.3238 -1.0079
  178SAPS  H13Y20394   3.512   3.419   5.211  0.8473  0.4705  1.5408
  178SAPS  C31420395   3.727   3.468   5.206  0.0953 -0.1678 -0.5234
  178SAPS  H14X20396   3.687   3.570   5.227 -1.6474 -0.8213 -0.4994
  178SAPS  H14Y20397   3.814   3.482   5.139  3.3344 -1.6610  2.9802
  178SAPS  C31520398   3.796   3.405   5.326 -0.1261  0.1761  0.1026
  178SAPS  H15X20399   3.874   3.467   5.375 -1.6528  1.1966  1.3485
  178SAPS  H15Y20400   3.843   3.313   5.288  2.2016  1.7649 -1.0745
  178SAPS  C31620401   3.699   3.364   5.436  1.5971 -0.0157  0.2716
  178SAPS  H16X20402   3.612   3.304   5.403  1.1942 -0.8657  2.6801
  178SAPS  H16Y20403   3.661   3.455   5.487 -0.4594 -0.9204  0.4417
  178SAPS  C31720404   3.776   3.283   5.546  1.3174  0.0197  0.0981
  178SAPS  H17X20405   3.852   3.351   5.591  0.3088  1.4507 -0.2729
  178SAPS  H17Y20406   3.833   3.203   5.495  0.3502 -0.6744  0.0837
  178SAPS  C31820407   3.684   3.209   5.645 -0.0375  0.3902  0.3167
  178SAPS  H18X20408   3.604   3.155   5.591 -1.5928  2.9925 -0.1599
  178SAPS  H18Y20409   3.634   3.286   5.708  0.2569  0.3841  0.5597
  178SAPS  H18Z20410   3.740   3.137   5.709 -0.8126 -0.7432 -0.2580
  179SAPS     N20411   5.651   5.619   3.102  0.3039 -1.0760 -0.4721
  179SAPS   HN120412   5.735   5.631   3.162  1.1859 -0.9919 -1.6775
  179SAPS   HN220413   5.631   5.716   3.071  0.3761 -0.7012  0.6028
  179SAPS   HN320414   5.573   5.589   3.163 -0.9670 -0.0319 -1.5293
  179SAPS   C1220415   5.670   5.538   2.986 -0.8113  0.1846  0.6399
  179SAPS  H12A20416   5.623   5.590   2.904  2.1609 -0.8255 -1.8964
  179SAPS   C1320417   5.818   5.531   2.943 -0.7714 -0.1459  0.1918
  179SAPS  O13A20418   5.912   5.581   3.005 -0.0946  0.2624 -0.0415
  179SAPS  O13B20419   5.839   5.470   2.837  0.4871 -0.0697 -0.2920
  179SAPS   C1120420   5.618   5.395   3.014 -0.2737 -0.4447  0.7987
  179SAPS  H11A20421   5.694   5.346   3.078  1.7646 -1.2586 -2.0559
  179SAPS  H11B20422   5.608   5.351   2.912 -3.1561  1.0638  0.3234
  179SAPS     P20423   5.375   5.302   3.060  0.3998  0.2011 -0.3164
  179SAPS   O1320424   5.268   5.314   3.158  0.1415 -0.1126 -0.1550
  179SAPS   O1420425   5.338   5.302   2.917  0.3067  0.1000 -0.1590
  179SAPS   O1220426   5.490   5.407   3.076 -0.5657 -0.6077 -0.4859
  179SAPS   O1120427   5.448   5.167   3.098 -0.3419 -0.1458  0.6951
  179SAPS    C120428   5.391   5.064   3.179  0.1432 -0.1983  0.4769
  179SAPS    HA20429   5.290   5.092   3.218 -0.5193  0.4272 -1.5640
  179SAPS    HB20430   5.377   4.966   3.129 -0.5840 -0.6459  1.5150
  179SAPS    C220431   5.473   5.054   3.306  0.0753 -0.6366 -0.2473
  179SAPS    HS20432   5.495   5.154   3.348  0.3025 -1.2998  1.3011
  179SAPS   O2120433   5.604   4.992   3.277  0.0879 -0.1397 -0.3177
  179SAPS   C2120434   5.690   5.020   3.373  0.5400 -0.0615 -0.1285
  179SAPS   O2220435   5.677   5.113   3.444 -0.3482 -0.4855 -0.1544
  179SAPS   C2220436   5.803   4.925   3.373 -0.0572  0.0600  0.0780
  179SAPS   H2R20437   5.802   4.871   3.276 -2.1890  1.4574 -0.7594
  179SAPS   H2S20438   5.898   4.982   3.377 -0.8775  1.7567 -2.3865
  179SAPS    C320439   5.403   4.980   3.421  0.6177  0.4820 -0.3777
  179SAPS    HX20440   5.305   5.028   3.443  1.6323  2.7111 -0.3967
  179SAPS    HY20441   5.442   4.982   3.524 -4.0229  1.1463  1.6254
  179SAPS   O3120442   5.388   4.839   3.385  0.6302 -0.7630  0.0831
  179SAPS   C3120443   5.271   4.799   3.334  0.2324  0.4294  0.4601
  179SAPS   O3220444   5.177   4.867   3.311 -0.2181 -0.7515  0.1529
  179SAPS   C3220445   5.276   4.645   3.333 -0.2921 -0.5616  0.1551
  179SAPS   H2X20446   5.382   4.614   3.321  0.1767  0.7919  0.5518
  179SAPS   H2Y20447   5.218   4.614   3.244 -0.0966  2.2384 -1.0826
  179SAPS   C2320448   5.803   4.834   3.500 -0.7472 -0.0281  0.5312
  179SAPS   H3R20449   5.810   4.890   3.596  3.1795 -1.3998  1.2473
  179SAPS   H3S20450   5.897   4.775   3.501  0.1755  1.3165 -1.3510
  179SAPS   C2420451   5.684   4.744   3.510  0.2705  0.4230 -0.2325
  179SAPS   H4R20452   5.678   4.683   3.418  2.1161 -0.5146  0.2212
  179SAPS   H4S20453   5.589   4.802   3.520 -0.0278 -0.1968  0.7033
  179SAPS   C2520454   5.711   4.650   3.624 -0.4965  0.5173 -0.9088
  179SAPS   H5R20455   5.771   4.562   3.597  0.0508  0.5786  0.0568
  179SAPS   C2620456   5.670   4.652   3.754 -0.0803  0.4001 -0.4106
  179SAPS   H6R20457   5.707   4.571   3.818  0.0122  1.2060  0.5699
  179SAPS   C2720458   5.584   4.753   3.819  0.0468 -0.1220  0.1390
  179SAPS   H7R20459   5.523   4.697   3.893 -1.6362  0.7142 -0.5550
  179SAPS   H7S20460   5.513   4.795   3.743 -0.6316  1.5626  1.6287
  179SAPS   C2820461   5.653   4.859   3.898 -0.0622 -0.4382 -0.0462
  179SAPS   H8R20462   5.660   4.956   3.845  0.3452 -1.1147 -1.2728
  179SAPS   C2920463   5.709   4.847   4.026  0.1217  0.6260 -0.2329
  179SAPS   H9R20464   5.760   4.938   4.060  1.5225  0.8429 -2.6780
  179SAPS  C21020465   5.708   4.722   4.113 -0.4592 -0.2607  0.4954
  179SAPS  H10R20466   5.706   4.633   4.046  0.5898  0.6703 -0.8250
  179SAPS  H10S20467   5.621   4.725   4.182 -1.1679  0.0385 -0.3869
  179SAPS  C21120468   5.841   4.702   4.191 -0.3442 -0.0786  0.2581
  179SAPS  H11R20469   5.919   4.642   4.143 -0.6154  0.0674 -0.3818
  179SAPS  C21220470   5.865   4.776   4.304  0.0623  0.8459  0.2200
  179SAPS  H12R20471   5.968   4.764   4.340 -0.1059 -1.3735  0.1231
  179SAPS  C21320472   5.774   4.877   4.374 -0.3544  0.3966 -0.1921
  179SAPS  H13R20473   5.696   4.830   4.438 -0.7469 -0.2921 -1.1333
  179SAPS  H13S20474   5.712   4.931   4.299 -0.2677 -0.6383 -1.0449
  179SAPS  C21420475   5.860   4.964   4.465  0.3547 -0.6011 -0.3642
  179SAPS  H14R20476   5.954   4.998   4.420 -0.4338  2.0012 -0.1953
  179SAPS  C21520477   5.831   5.004   4.596  0.5661 -0.1067  0.0120
  179SAPS  H15R20478   5.899   5.075   4.645  0.3269 -0.0546  0.2712
  179SAPS  C21620479   5.706   4.966   4.679 -0.0960 -0.1410  0.5693
  179SAPS  H16R20480   5.682   4.868   4.634 -1.5556 -0.8701  2.7648
  179SAPS  H16S20481   5.621   5.031   4.649 -0.5107 -1.3444 -0.9638
  179SAPS  C21720482   5.720   4.959   4.831 -0.1773 -0.9927 -0.3456
  179SAPS  H17R20483   5.796   4.884   4.862  1.2540  1.4243  2.6162
  179SAPS  H17S20484   5.613   4.939   4.853 -0.3025 -1.1504 -1.0751
  179SAPS  C21820485   5.756   5.097   4.898 -0.0284 -0.2162  0.2289
  179SAPS  H18R20486   5.692   5.180   4.862  0.6492 -0.0652 -0.6364
  179SAPS  H18S20487   5.861   5.117   4.872 -0.5050 -1.0420 -2.6515
  179SAPS  C21920488   5.732   5.114   5.048 -0.2837 -0.0482  0.2869
  179SAPS  H19R20489   5.805   5.045   5.095 -0.5572  0.2990  1.2303
  179SAPS  H19S20490   5.636   5.069   5.082  0.2563 -1.2543  0.2838
  179SAPS  C22020491   5.742   5.264   5.089 -0.3699 -0.6471  0.1037
  179SAPS  H20R20492   5.836   5.300   5.043 -1.3027  1.2900 -0.3884
  179SAPS  H20S20493   5.742   5.279   5.199  0.3409  2.3478 -0.2214
  179SAPS  H20T20494   5.653   5.313   5.043 -0.7992 -2.2290 -0.8223
  179SAPS   C3320495   5.220   4.579   3.460  0.3427 -0.3658 -0.8481
  179SAPS   H3X20496   5.254   4.473   3.459 -0.6250 -0.7929  1.8558
  179SAPS   H3Y20497   5.113   4.592   3.434  1.0151  3.2359 -2.4255
  179SAPS   C3420498   5.257   4.651   3.593 -0.2463  0.4510  0.0795
  179SAPS   H4X20499   5.358   4.693   3.572 -0.6915  1.5199 -0.0022
  179SAPS   H4Y20500   5.281   4.573   3.667  1.5901  0.2151 -0.7094
  179SAPS   C3520501   5.153   4.754   3.641 -0.0162 -0.0658  0.2868
  179SAPS   H5X20502   5.048   4.719   3.647  0.0524 -0.2809  0.2642
  179SAPS   H5Y20503   5.151   4.836   3.566  1.1694 -0.7062 -0.4757
  179SAPS   C3620504   5.182   4.813   3.771  0.1381  0.3127  0.1520
  179SAPS   H6X20505   5.100   4.884   3.794 -0.5357 -0.4144  0.0320
  179SAPS   H6Y20506   5.279   4.867   3.765  0.8693 -0.7810  1.4888
  179SAPS   C3720507   5.175   4.722   3.895 -0.2994  0.6289  0.2693
  179SAPS   H7X20508   5.269   4.664   3.898 -0.5712  0.2066  2.0207
  179SAPS   H7Y20509   5.090   4.652   3.881 -0.5277  1.1876 -1.3761
  179SAPS   C3820510   5.150   4.797   4.026 -0.7536  0.1630  0.0237
  179SAPS   H8X20511   5.135   4.717   4.101 -1.5337  0.1325 -0.1586
  179SAPS   H8Y20512   5.054   4.852   4.015 -0.4447  0.7382  0.1429
  179SAPS   C3920513   5.265   4.890   4.074 -0.2620 -0.4643 -0.0965
  179SAPS   H9X20514   5.270   4.965   3.992  1.0202  0.4933  0.8120
  179SAPS   H9Y20515   5.357   4.830   4.059  1.3316  2.1748 -1.8969
  179SAPS  C31020516   5.237   4.953   4.217  0.3234 -0.5355  0.1519
  179SAPS  H10X20517   5.128   4.978   4.219  0.8767  2.5893 -1.9465
  179SAPS  H10Y20518   5.297   5.045   4.236 -0.2525 -0.0854 -0.1565
  179SAPS  C31120519   5.274   4.848   4.322  0.1594 -0.2969  0.2062
  179SAPS  H11X20520   5.381   4.819   4.314 -0.1373 -1.0586 -1.1545
  179SAPS  H11Y20521   5.229   4.747   4.314  1.3137 -1.2638  3.8791
  179SAPS  C31220522   5.245   4.890   4.462  0.3130  0.0008  0.6979
  179SAPS  H12X20523   5.287   4.811   4.527 -0.5413 -0.8823  0.2093
  179SAPS  H12Y20524   5.137   4.872   4.481  0.5749 -0.9314  1.3506
  179SAPS  C31320525   5.287   5.027   4.526 -0.3601 -0.2319  1.1200
  179SAPS  H13X20526   5.224   5.104   4.476  0.8485 -0.6469 -1.1651
  179SAPS  H13Y20527   5.392   5.045   4.493  0.2006 -1.5082  2.1480
  179SAPS  C31420528   5.258   5.026   4.678  0.3269 -0.0110 -0.2135
  179SAPS  H14X20529   5.316   4.949   4.734 -1.1874  0.8205  2.7072
  179SAPS  H14Y20530   5.154   4.998   4.705  0.6219 -0.8786  0.0638
  179SAPS  C31520531   5.297   5.159   4.753 -0.7137 -0.6343  0.7816
  179SAPS  H15X20532   5.222   5.239   4.734 -0.1975 -0.4699 -0.6999
  179SAPS  H15Y20533   5.399   5.190   4.720 -1.7006  1.4582 -0.4888
  179SAPS  C31620534   5.303   5.132   4.908 -0.5173 -0.2691 -0.4813
  179SAPS  H16X20535   5.391   5.064   4.920 -0.1959  0.1197 -0.6368
  179SAPS  H16Y20536   5.214   5.073   4.939  0.1577 -0.6231  0.8696
  179SAPS  C31720537   5.319   5.258   4.988 -0.7028 -0.8739 -0.1355
  179SAPS  H17X20538   5.231   5.326   4.982  0.5014  0.9742  1.9716
  179SAPS  H17Y20539   5.402   5.316   4.943  0.0359 -0.4503  1.6810
  179SAPS  C31820540   5.359   5.229   5.137  0.1645  0.3032  0.2345
  179SAPS  H18X20541   5.280   5.169   5.187 -1.9544  1.6184 -1.3565
  179SAPS  H18Y20542   5.381   5.326   5.186 -1.7251  3.4853 -4.4826
  179SAPS  H18Z20543   5.453   5.168   5.137  0.5366  0.8703  0.2342
  180SAPS     N20544   5.647   4.115   2.978  0.3402  0.8316 -0.6086
  180SAPS   HN120545   5.617   4.051   3.054 -1.8474 -1.0431 -2.8378
  180SAPS   HN220546   5.655   4.211   3.018  0.8107  2.0765 -3.4297
  180SAPS   HN320547   5.566   4.131   2.914 -1.4422  2.0933  1.7782
  180SAPS   C1220548   5.766   4.073   2.902  0.5730 -0.1387 -0.0298
  180SAPS  H12A20549   5.723   3.984   2.859 -4.3884  0.8268  2.2132
  180SAPS   C1320550   5.805   4.155   2.786  0.1158  0.3915  0.6972
  180SAPS  O13A20551   5.732   4.248   2.742 -0.2456 -0.0544 -0.3823
  180SAPS  O13B20552   5.898   4.104   2.714 -0.1736  0.0376 -1.0944
  180SAPS   C1120553   5.885   4.057   3.000  0.4405  0.3804 -0.3594
  180SAPS  H11A20554   5.895   4.154   3.054 -2.7065  1.5918 -1.6698
  180SAPS  H11B20555   5.983   4.046   2.949  0.2436 -0.9018 -0.4781
  180SAPS     P20556   5.983   3.921   3.203 -0.4499 -0.0602  0.1057
  180SAPS   O1320557   5.953   3.794   3.274  0.4937  0.0884 -0.5832
  180SAPS   O1420558   6.122   3.946   3.151  0.4742 -0.3601 -0.1232
  180SAPS   O1220559   5.871   3.944   3.085 -0.1092 -0.2955  0.0014
  180SAPS   O1120560   5.952   4.041   3.295  0.1652  0.7399  0.2749
  180SAPS    C120561   5.831   4.031   3.380 -0.4318  0.2132 -0.2914
  180SAPS    HA20562   5.767   4.120   3.364 -0.0599  0.6317  0.4762
  180SAPS    HB20563   5.773   3.939   3.360  0.4146 -0.3916 -0.0427
  180SAPS    C220564   5.853   4.039   3.538  0.1895  0.0020  0.1364
  180SAPS    HS20565   5.755   4.034   3.591  0.2796 -0.4404  0.2560
  180SAPS   O2120566   5.915   4.164   3.560 -0.4632 -0.0536 -0.3082
  180SAPS   C2120567   5.911   4.237   3.677  0.3301  0.4899 -0.0739
  180SAPS   O2220568   5.847   4.202   3.774  0.0218  0.3402  0.2273
  180SAPS   C2220569   6.015   4.340   3.663 -0.9360 -0.0667 -1.4402
  180SAPS   H2R20570   6.116   4.296   3.672 -0.1677  2.0169  2.4842
  180SAPS   H2S20571   5.999   4.392   3.565 -0.4093  1.5705 -0.7008
  180SAPS    C320572   5.941   3.924   3.583  0.4436  0.4832  0.0168
  180SAPS    HX20573   6.044   3.923   3.541  1.1845 -2.7487  1.5450
  180SAPS    HY20574   5.889   3.837   3.537 -0.1274  0.5489  0.5244
  180SAPS   O3120575   5.944   3.906   3.728 -0.2076 -0.4145 -0.0446
  180SAPS   C3120576   6.060   3.938   3.785  0.0772 -0.1179  0.0171
  180SAPS   O3220577   6.163   3.969   3.727 -0.7614  0.4912  0.2777
  180SAPS   C3220578   6.046   3.961   3.933 -0.7528 -0.4998  0.2158
  180SAPS   H2X20579   5.958   4.026   3.952  0.4605  1.3570 -0.2852
  180SAPS   H2Y20580   6.134   4.013   3.975 -1.6541  0.8270  0.5206
  180SAPS   C2320581   5.992   4.449   3.766 -0.1629 -0.1111 -0.1640
  180SAPS   H3R20582   5.884   4.448   3.792 -0.3216 -0.3723 -0.8005
  180SAPS   H3S20583   5.981   4.551   3.724  0.7270 -0.1008 -0.3968
  180SAPS   C2420584   6.088   4.461   3.886  0.5224  0.6523 -0.1385
  180SAPS   H4R20585   6.059   4.552   3.943  1.6520  0.1192  1.3715
  180SAPS   H4S20586   6.191   4.478   3.848  0.9037  2.8459  1.6437
  180SAPS   C2520587   6.088   4.346   3.990 -0.4356  0.5186 -0.8558
  180SAPS   H5R20588   6.032   4.257   3.958 -0.5643  1.0957 -2.3231
  180SAPS   C2620589   6.159   4.342   4.103  0.5665 -0.0113  0.2406
  180SAPS   H6R20590   6.156   4.259   4.175 -0.5798  0.0617  0.2841
  180SAPS   C2720591   6.252   4.446   4.159  0.0818  0.0927  0.3794
  180SAPS   H7R20592   6.261   4.531   4.087  2.3207  0.4549  1.0317
  180SAPS   H7S20593   6.357   4.411   4.152 -0.4088 -1.0513 -2.2572
  180SAPS   C2820594   6.210   4.487   4.294  0.5648 -0.2028 -0.5972
  180SAPS   H8R20595   6.111   4.533   4.309  0.0732 -1.2220 -0.5932
  180SAPS   C2920596   6.275   4.460   4.409 -0.2010 -0.9348 -0.3798
  180SAPS   H9R20597   6.241   4.504   4.503  2.1834 -2.2910  1.2285
  180SAPS  C21020598   6.414   4.391   4.420  0.7488 -0.9734 -0.2928
  180SAPS  H10R20599   6.434   4.341   4.323  2.9434  1.0420 -0.9598
  180SAPS  H10S20600   6.400   4.308   4.493 -0.1717 -2.4082 -2.0409
  180SAPS  C21120601   6.517   4.493   4.461 -0.3040 -0.2670  0.1522
  180SAPS  H11R20602   6.566   4.542   4.375 -1.0564  1.7270  0.8047
  180SAPS  C21220603   6.549   4.543   4.584 -0.3580 -0.3407 -0.5422
  180SAPS  H12R20604   6.628   4.619   4.591 -0.5353 -0.2260  0.3945
  180SAPS  C21320605   6.487   4.515   4.724  0.3269  0.8148  0.0737
  180SAPS  H13R20606   6.398   4.451   4.712  0.6796  0.2247  0.5332
  180SAPS  H13S20607   6.447   4.613   4.761 -2.7484 -0.2833 -0.0714
  180SAPS  C21420608   6.583   4.446   4.828  0.2874 -0.4804 -0.4332
  180SAPS  H14R20609   6.592   4.337   4.816 -1.2600 -0.5765 -1.0524
  180SAPS  C21520610   6.669   4.504   4.920  0.3317 -1.3265  0.3876
  180SAPS  H15R20611   6.737   4.434   4.971  1.5990 -0.8206 -0.5585
  180SAPS  C21620612   6.688   4.651   4.949 -0.0661 -0.0615 -0.2163
  180SAPS  H16R20613   6.653   4.718   4.868 -0.0901  0.0042 -0.1511
  180SAPS  H16S20614   6.795   4.668   4.976  0.2841 -2.6003  0.2780
  180SAPS  C21720615   6.609   4.686   5.080 -0.9070  0.8159  0.0372
  180SAPS  H17R20616   6.657   4.630   5.163  0.8959  0.3722 -1.2302
  180SAPS  H17S20617   6.511   4.638   5.061 -0.4365  0.0677 -0.6058
  180SAPS  C21820618   6.592   4.830   5.117 -0.6432 -0.3666 -0.2070
  180SAPS  H18R20619   6.563   4.890   5.028  1.9464  0.9013 -0.2889
  180SAPS  H18S20620   6.693   4.861   5.151 -0.4932 -1.9118  0.8916
  180SAPS  C21920621   6.495   4.854   5.229  0.7334  0.1031  0.7237
  180SAPS  H19R20622   6.529   4.788   5.311  0.9495  0.1252  0.6510
  180SAPS  H19S20623   6.398   4.818   5.187  1.5010 -0.7985 -0.3386
  180SAPS  C22020624   6.482   4.997   5.282  0.0186 -0.1677 -0.4573
  180SAPS  H20R20625   6.466   5.070   5.199  0.9840  1.5560  0.8056
  180SAPS  H20S20626   6.395   5.000   5.350 -1.4308 -1.7452 -2.1606
  180SAPS  H20T20627   6.569   5.027   5.345  0.5392 -0.3485 -1.0779
  180SAPS   C3320628   6.012   3.826   4.000  0.5162 -0.2221  0.2995
  180SAPS   H3X20629   6.104   3.762   3.998 -0.4307 -1.6414  0.5066
  180SAPS   H3Y20630   5.929   3.776   3.946  0.8156  0.2479 -0.6172
  180SAPS   C3420631   5.960   3.865   4.142  0.6960 -0.2309  0.1872
  180SAPS   H4X20632   5.887   3.795   4.189 -1.0679  1.8093  0.6602
  180SAPS   H4Y20633   5.909   3.963   4.129  0.1587 -0.2642  1.7734
  180SAPS   C3520634   6.073   3.875   4.231 -0.6662 -0.0313 -0.3110
  180SAPS   H5X20635   6.155   3.931   4.181 -1.9964  2.2324 -0.0868
  180SAPS   H5Y20636   6.122   3.780   4.261 -1.6575 -0.8788 -1.3069
  180SAPS   C3620637   6.029   3.966   4.351 -0.8506 -0.0800  0.5138
  180SAPS   H6X20638   5.928   3.957   4.397 -0.3690  0.4295  1.7206
  180SAPS   H6Y20639   6.027   4.071   4.315  0.8557 -0.7130 -1.6636
  180SAPS   C3720640   6.125   3.953   4.470 -0.0093 -0.1440  0.2015
  180SAPS   H7X20641   6.230   3.980   4.444  0.1973  0.3548  1.4761
  180SAPS   H7Y20642   6.128   3.849   4.511  4.0160 -0.0744  0.5730
  180SAPS   C3820643   6.099   4.056   4.577 -0.3628  0.8034 -0.2583
  180SAPS   H8X20644   5.992   4.063   4.606 -0.8480  0.0560 -1.7858
  180SAPS   H8Y20645   6.127   4.155   4.534  0.9270 -0.0601 -1.4946
  180SAPS   C3920646   6.188   4.021   4.689 -0.0036  0.4235  0.1804
  180SAPS   H9X20647   6.291   4.043   4.653  0.2134  1.5554  1.3813
  180SAPS   H9Y20648   6.179   3.914   4.717 -0.3487  0.2532 -0.5621
  180SAPS  C31020649   6.164   4.110   4.811 -1.0013  0.2487  0.0533
  180SAPS  H10X20650   6.137   4.213   4.778  1.3012  0.6409 -0.8276
  180SAPS  H10Y20651   6.256   4.120   4.872 -1.4058 -0.1318  0.7353
  180SAPS  C31120652   6.061   4.033   4.893  0.5304 -0.6638  0.5906
  180SAPS  H11X20653   6.093   3.929   4.915 -1.3150 -1.0175  1.9279
  180SAPS  H11Y20654   5.974   4.016   4.826  1.9626 -0.5882 -1.3356
  180SAPS  C31220655   6.025   4.087   5.029 -0.3779 -0.2848 -0.3410
  180SAPS  H12X20656   6.012   4.198   5.023 -0.1834 -0.2183  0.3670
  180SAPS  H12Y20657   6.112   4.080   5.098 -1.2023  3.4528  1.3974
  180SAPS  C31320658   5.913   4.006   5.096 -0.1452 -0.0494  0.6454
  180SAPS  H13X20659   5.943   3.899   5.102 -0.1602  0.0208  4.4475
  180SAPS  H13Y20660   5.822   4.015   5.032 -0.4627 -0.3539  1.0399
  180SAPS  C31420661   5.873   4.057   5.235  0.0842 -0.6704 -0.8528
  180SAPS  H14X20662   5.773   4.017   5.263  0.7896 -2.5046 -0.8180
  180SAPS  H14Y20663   5.844   4.164   5.224 -0.8887 -1.1395 -3.8307
  180SAPS  C31520664   5.969   4.036   5.346  1.1357  0.1756 -0.1241
  180SAPS  H15X20665   6.074   4.045   5.312  0.8625  2.9888 -0.4938
  180SAPS  H15Y20666   5.954   3.931   5.380  1.0176  1.3390  4.0745
  180SAPS  C31620667   5.939   4.112   5.474 -0.4126  0.0083  0.0482
  180SAPS  H16X20668   5.952   4.222   5.466  0.4095 -0.2349 -3.3605
  180SAPS  H16Y20669   5.999   4.099   5.566 -2.7488  3.3011  2.2535
  180SAPS  C31720670   5.792   4.087   5.524  0.2918 -0.2036  0.3996
  180SAPS  H17X20671   5.780   3.978   5.540  0.0005 -0.6079 -2.0901
  180SAPS  H17Y20672   5.719   4.121   5.448 -0.1874  0.2875  1.0709
  180SAPS  C31820673   5.760   4.173   5.652  0.5099 -0.2021  0.8010
  180SAPS  H18X20674   5.771   4.282   5.632 -0.3264 -0.2409  0.0606
  180SAPS  H18Y20675   5.829   4.154   5.737  0.2803  0.5560  1.1626
  180SAPS  H18Z20676   5.653   4.159   5.676 -0.3660  0.7566 -2.0999
  181POPC     N20677   2.723   5.654   7.554  0.0030 -0.2091  0.2549
  181POPC   C1220678   2.579   5.679   7.527  0.1334  0.0120 -0.0059
  181POPC  H12A20679   2.532   5.742   7.601 -1.1581 -1.6287  0.6204
  181POPC  H12B20680   2.526   5.589   7.551 -0.5603  0.9972  2.5188
  181POPC   C1320681   2.774   5.559   7.447  0.3123  0.1955  0.2711
  181POPC  H13A20682   2.721   5.468   7.472  1.4633 -1.0423 -1.5461
  181POPC  H13B20683   2.750   5.583   7.344  3.0865 -1.1790 -0.7929
  181POPC  H13C20684   2.879   5.534   7.456  0.3098  0.2020  0.3153
  181POPC   C1420685   2.805   5.774   7.560 -0.0503  0.0022  0.3689
  181POPC  H14A20686   2.909   5.755   7.536 -0.4927 -1.7854 -0.2907
  181POPC  H14B20687   2.785   5.835   7.473  3.3959 -2.3198 -2.3791
  181POPC  H14C20688   2.790   5.830   7.651 -0.1076 -1.2586  1.1580
  181POPC   C1520689   2.736   5.585   7.684  0.4287 -0.0419  0.0078
  181POPC  H15A20690   2.696   5.485   7.675 -1.2232  0.6558 -0.7934
  181POPC  H15B20691   2.688   5.637   7.765 -0.3305  2.3873 -1.8869
  181POPC  H15C20692   2.839   5.572   7.715  0.2897  0.0242  0.5051
  181POPC   C1120693   2.544   5.729   7.392  1.0995  0.3420  0.2349
  181POPC  H11A20694   2.582   5.658   7.316 -0.7814 -0.7953  0.3006
  181POPC  H11B20695   2.595   5.828   7.385  1.7710 -0.1222 -3.9958
  181POPC     P20696   2.295   5.655   7.324  0.0886  0.2254 -0.0313
  181POPC   O1320697   2.165   5.728   7.330 -0.1356 -0.6455 -0.1976
  181POPC   O1420698   2.292   5.511   7.368  0.1920 -0.2182 -0.1603
  181POPC   O1220699   2.402   5.745   7.394 -0.1167  0.3705 -0.4388
  181POPC   O1120700   2.353   5.658   7.179  0.0770 -0.1906  0.9683
  181POPC    C120701   2.382   5.779   7.098  0.7733  0.3697  0.2003
  181POPC    HA20702   2.491   5.783   7.078  0.4826  0.8015 -1.3862
  181POPC    HB20703   2.362   5.876   7.149 -0.1169 -0.1682  0.8905
  181POPC    C220704   2.310   5.779   6.963 -0.1830 -0.2903 -0.4004
  181POPC    HS20705   2.330   5.877   6.914 -1.1805  0.3445  0.4291
  181POPC   O2120706   2.170   5.749   6.972  0.3551 -0.2538  0.0598
  181POPC   C2120707   2.102   5.827   7.051  0.1279  0.4074  0.4816
  181POPC   O2220708   2.140   5.935   7.092 -0.0171 -0.1241  0.3880
  181POPC   C2220709   1.961   5.770   7.068 -1.4841 -0.2740  0.0021
  181POPC   H2R20710   1.929   5.812   7.166  1.0011  0.1750  0.7054
  181POPC   H2S20711   1.976   5.660   7.072 -0.1159 -0.1093  0.1692
  181POPC    C320712   2.384   5.676   6.871 -0.0058  0.5442  0.4160
  181POPC    HX20713   2.339   5.578   6.894 -2.2586  1.3458 -0.2829
  181POPC    HY20714   2.494   5.674   6.888 -0.1563 -1.1431  1.3919
  181POPC   O3120715   2.356   5.690   6.730  0.2168 -0.4337 -0.0346
  181POPC   C3120716   2.414   5.785   6.671  0.1355 -0.9465 -0.2568
  181POPC   O3220717   2.478   5.878   6.724  0.5257 -0.2971  0.2143
  181POPC   C3220718   2.376   5.781   6.523  0.2364  0.5932 -0.3274
  181POPC   H2X20719   2.387   5.673   6.498  1.9501  1.0873 -2.0265
  181POPC   H2Y20720   2.450   5.830   6.456 -0.1721  0.4188 -0.9168
  181POPC   C2320721   1.859   5.814   6.948 -0.6581 -0.0264 -0.0958
  181POPC   H3R20722   1.863   5.924   6.936  1.4632  0.2291  2.1736
  181POPC   H3S20723   1.755   5.787   6.977  0.3007 -0.7177  3.1379
  181POPC   C2420724   1.901   5.756   6.817  0.4821  0.0876 -0.7122
  181POPC   H4R20725   1.898   5.648   6.841  0.3613  0.7066  2.6002
  181POPC   H4S20726   2.007   5.778   6.792  0.3219  0.1143 -1.3988
  181POPC   C2520727   1.809   5.785   6.695 -0.7364  0.3664  0.6523
  181POPC   H5R20728   1.825   5.889   6.659 -2.3056 -0.2874 -2.2380
  181POPC   H5S20729   1.700   5.787   6.718 -1.4764 -0.5724 -2.3329
  181POPC   C2620730   1.850   5.686   6.579 -0.1572 -0.3677  0.5832
  181POPC   H6R20731   1.836   5.578   6.601  0.4468 -1.4993 -3.5898
  181POPC   H6S20732   1.959   5.694   6.562 -0.1092  0.2560  1.1577
  181POPC   C2720733   1.774   5.722   6.448  0.3200 -0.2833 -0.2617
  181POPC   H7R20734   1.799   5.827   6.422  0.4146 -0.5089 -1.1132
  181POPC   H7S20735   1.671   5.725   6.489  0.3603 -0.2095 -0.1671
  181POPC   C2820736   1.783   5.620   6.333 -0.3222  0.6912  0.0958
  181POPC   H8R20737   1.762   5.515   6.363 -0.1090  0.4744 -0.5016
  181POPC   H8S20738   1.892   5.627   6.310  0.0391 -0.1348  1.4263
  181POPC   C2920739   1.689   5.662   6.221  0.2168 -0.0523  0.0154
  181POPC   H9120740   1.582   5.679   6.240  0.3884 -0.5672  1.6320
  181POPC  C21020741   1.738   5.716   6.107 -1.0906 -0.0418 -0.7529
  181POPC  H10120742   1.663   5.751   6.035 -1.3912  1.2772  0.1658
  181POPC  C21120743   1.886   5.713   6.058 -0.1309 -0.4678 -0.9697
  181POPC  H11R20744   1.925   5.610   6.047  2.7713  0.2663  1.2513
  181POPC  H11S20745   1.951   5.777   6.122  1.7099 -0.3239 -2.8826
  181POPC  C21220746   1.901   5.774   5.913  0.1074  0.4443  0.0987
  181POPC  H12R20747   1.870   5.697   5.839 -0.6667  0.6592  0.1920
  181POPC  H12S20748   2.010   5.784   5.891  0.1522  0.9885  0.5377
  181POPC  C21320749   1.834   5.905   5.892 -0.2599 -0.6694  0.5110
  181POPC  H13R20750   1.914   5.968   5.848  1.1878 -1.0165  2.5176
  181POPC  H13S20751   1.806   5.965   5.981 -2.3145 -0.3690 -0.2719
  181POPC  C21420752   1.725   5.912   5.777 -0.0355  0.1503 -0.6118
  181POPC  H14R20753   1.699   6.020   5.787  0.1455  0.1450 -0.0362
  181POPC  H14S20754   1.638   5.849   5.807 -0.2584 -0.1307 -1.8266
  181POPC  C21520755   1.764   5.881   5.637 -0.4222  0.1342  0.6372
  181POPC  H15R20756   1.807   5.779   5.631 -1.5367 -0.3943  1.2695
  181POPC  H15S20757   1.842   5.951   5.601  1.0272 -0.2984  2.7775
  181POPC  C21620758   1.642   5.901   5.544  0.1572 -0.0814  0.6010
  181POPC  H16R20759   1.601   6.004   5.546  0.1840 -0.0559 -0.0940
  181POPC  H16S20760   1.568   5.828   5.582 -0.6079  0.8576  0.9636
  181POPC  C21720761   1.658   5.850   5.394 -0.2034 -0.0682 -0.0053
  181POPC  H17R20762   1.630   5.744   5.379 -0.2558  0.2018 -2.0350
  181POPC  H17S20763   1.759   5.874   5.353 -0.3555  3.0995  1.1723
  181POPC  C21820764   1.558   5.916   5.306 -0.0088 -0.2278  0.1298
  181POPC  H18R20765   1.458   5.901   5.353 -0.8629  1.6367 -0.9597
  181POPC  H18S20766   1.559   5.871   5.205  1.9533 -0.6246  0.2967
  181POPC  H18T20767   1.572   6.026   5.306 -0.6192 -0.1023  2.3561
  181POPC   C3320768   2.234   5.845   6.494  0.0958  0.1071 -0.1760
  181POPC   H3X20769   2.234   5.951   6.529  1.2071  0.3505 -0.8497
  181POPC   H3Y20770   2.158   5.787   6.552 -0.2580  2.6537  2.1361
  181POPC   C3420771   2.181   5.850   6.348 -0.1531 -0.0361 -0.4849
  181POPC   H4X20772   2.102   5.927   6.339  0.3903  0.8146  1.4587
  181POPC   H4Y20773   2.135   5.757   6.306 -0.2636 -0.5758  0.7898
  181POPC   C3520774   2.293   5.893   6.252  0.3578 -0.4470 -0.2186
  181POPC   H5X20775   2.354   5.801   6.236  0.7417 -0.3985  0.9202
  181POPC   H5Y20776   2.367   5.958   6.302  0.2388  0.6192 -1.3839
  181POPC   C3620777   2.237   5.945   6.118  0.0552  0.4539 -0.2735
  181POPC   H6X20778   2.185   6.042   6.136  0.1064  0.5150 -0.4547
  181POPC   H6Y20779   2.169   5.865   6.082 -1.2408  2.1167 -1.6931
  181POPC   C3720780   2.354   5.969   6.019  0.6820  0.7559 -0.4315
  181POPC   H7X20781   2.424   5.884   6.033  0.3243  0.2932 -1.3733
  181POPC   H7Y20782   2.404   6.068   6.033  0.1853  1.1660 -1.4377
  181POPC   C3820783   2.306   5.981   5.879 -0.7596  0.4566  0.0951
  181POPC   H8X20784   2.280   6.088   5.864 -0.2595  0.8062  1.6150
  181POPC   H8Y20785   2.220   5.912   5.861  0.6279 -0.8508 -2.1149
  181POPC   C3920786   2.416   5.945   5.770 -0.7172  0.0296 -0.0991
  181POPC   H9X20787   2.430   5.835   5.761 -0.2314  0.2311 -2.5985
  181POPC   H9Y20788   2.508   6.000   5.798 -0.0389 -0.4728 -1.2521
  181POPC  C31020789   2.368   5.991   5.627  0.3303  0.1113  0.1384
  181POPC  H10X20790   2.446   5.969   5.551 -0.6335  0.6069 -1.0371
  181POPC  H10Y20791   2.355   6.102   5.631  0.7661  0.2979 -2.0666
  181POPC  C31120792   2.235   5.929   5.583  0.5112  0.6171 -0.0808
  181POPC  H11X20793   2.200   5.990   5.497  1.5046 -1.5089 -2.1201
  181POPC  H11Y20794   2.165   5.947   5.668  0.6511 -1.0481  0.4263
  181POPC  C31220795   2.245   5.786   5.542 -0.2952 -0.3064  0.0596
  181POPC  H12X20796   2.276   5.722   5.628  0.2685 -1.2879 -0.8505
  181POPC  H12Y20797   2.329   5.779   5.469  0.2629  0.9262  0.5495
  181POPC  C31320798   2.113   5.731   5.485 -0.5190  0.0579  0.5373
  181POPC  H13X20799   2.038   5.755   5.563 -0.1403  2.2105  0.3045
  181POPC  H13Y20800   2.133   5.622   5.484  1.7961  0.4135  1.1215
  181POPC  C31420801   2.080   5.780   5.343 -0.1142  0.6505  0.4098
  181POPC  H14X20802   2.168   5.778   5.275 -0.9954  1.7106 -0.8135
  181POPC  H14Y20803   2.052   5.887   5.357  2.3364  1.3809  0.1656
  181POPC  C31520804   1.962   5.704   5.289 -0.0393 -0.0603 -0.4311
  181POPC  H15X20805   1.890   5.692   5.372  1.0015  0.9954  0.6638
  181POPC  H15Y20806   1.987   5.598   5.265 -1.2201  0.0498 -2.3408
  181POPC  C31620807   1.899   5.760   5.165 -0.7403  0.3563 -0.7137
  181POPC  H16X20808   1.963   5.747   5.075 -0.5178 -2.5756 -0.2288
  181POPC  H16Y20809   1.860   5.864   5.172 -0.5834  0.3403  0.5273
  181POPC  H16Z20810   1.807   5.702   5.145 -1.2995  1.1954 -0.6281
  182POPC     N20811   0.153   5.128   7.764 -0.1092  0.7036  0.3122
  182POPC   C1220812   0.182   5.084   7.615 -0.3616  0.2270  0.2129
  182POPC  H12A20813   0.226   5.169   7.563 -0.7626  0.5170  0.3470
  182POPC  H12B20814   0.095   5.063   7.554 -0.8905 -1.3631  1.4490
  182POPC   C1320815   0.263   5.098   7.860 -0.0537  0.2807  0.0983
  182POPC  H13A20816   0.242   5.141   7.957 -0.6226 -1.6563  0.8808
  182POPC  H13B20817   0.276   4.991   7.871  1.0582  0.4412  0.4290
  182POPC  H13C20818   0.349   5.140   7.810 -0.4488 -1.6459 -2.4448
  182POPC   C1420819   0.136   5.276   7.760  0.2565 -0.2924 -0.1177
  182POPC  H14A20820   0.220   5.313   7.704 -0.7915  0.7017 -1.0691
  182POPC  H14B20821   0.055   5.287   7.690 -1.6590 -2.0677  1.6718
  182POPC  H14C20822   0.116   5.329   7.851  0.1372 -4.8028  2.8262
  182POPC   C1520823   0.035   5.056   7.815 -0.5135 -0.1259 -0.0595
  182POPC  H15A20824  -0.047   5.093   7.755 -1.0468 -2.0219 -0.5743
  182POPC  H15B20825   0.018   5.071   7.920 -0.6962 -1.9610  0.2099
  182POPC  H15C20826   0.041   4.949   7.798 -1.4451 -0.0130 -1.2111
  182POPC   C1120827   0.270   4.954   7.594  0.1062  0.1925 -0.3468
  182POPC  H11A20828   0.281   4.906   7.495  0.7057 -0.1665 -0.1115
  182POPC  H11B20829   0.222   4.870   7.648  0.1961  1.1316  1.2755
  182POPC     P20830   0.498   5.097   7.591 -0.1872 -0.2433  0.1547
  182POPC   O1320831   0.545   5.173   7.712 -0.2261  0.2460  0.1149
  182POPC   O1420832   0.433   5.183   7.490  0.6062  0.0838  0.3080
  182POPC   O1220833   0.403   4.981   7.646 -0.1022 -0.0491  0.4331
  182POPC   O1120834   0.621   5.015   7.529 -0.5330 -0.3307 -0.4237
  182POPC    C120835   0.602   4.888   7.467 -0.5874 -0.0143 -0.1611
  182POPC    HA20836   0.512   4.833   7.501 -0.1579 -0.9532 -0.5155
  182POPC    HB20837   0.685   4.821   7.495  1.6837  2.2887 -0.9514
  182POPC    C220838   0.600   4.899   7.311 -0.3426  0.1356  0.5642
  182POPC    HS20839   0.692   4.942   7.266 -1.4181  0.3789 -1.5283
  182POPC   O2120840   0.478   4.966   7.274  0.1780 -0.4358 -0.2014
  182POPC   C2120841   0.487   5.070   7.194 -0.5180  0.5045  0.0892
  182POPC   O2220842   0.590   5.118   7.150  0.4111 -0.1863 -0.1867
  182POPC   C2220843   0.340   5.116   7.159  0.4239 -0.2925  0.5194
  182POPC   H2R20844   0.340   5.223   7.130 -1.4438 -0.5030 -0.3875
  182POPC   H2S20845   0.288   5.110   7.257  2.5971 -1.5832  1.6774
  182POPC    C320846   0.586   4.758   7.243 -0.0039 -0.3090  0.2349
  182POPC    HX20847   0.491   4.721   7.286 -0.4708 -0.4057 -0.8672
  182POPC    HY20848   0.677   4.697   7.263 -0.1567 -1.0840 -1.2840
  182POPC   O3120849   0.568   4.770   7.100 -0.1986 -0.2488  0.1044
  182POPC   C3120850   0.674   4.807   7.034  0.4789  0.5288  0.1111
  182POPC   O3220851   0.785   4.826   7.076 -0.2718 -0.6540  0.5109
  182POPC   C3220852   0.619   4.832   6.897  0.0013 -0.6627 -0.9925
  182POPC   H2X20853   0.509   4.819   6.889  0.0445 -1.2927 -0.6579
  182POPC   H2Y20854   0.659   4.755   6.827  0.8977 -1.9494  0.8641
  182POPC   C2320855   0.282   5.025   7.045  0.2717 -0.4086 -0.1457
  182POPC   H3R20856   0.285   4.918   7.075  0.2876 -0.9265 -1.8754
  182POPC   H3S20857   0.332   5.028   6.946 -0.7412  0.4968 -0.6529
  182POPC   C2420858   0.129   5.035   7.035  0.5232 -0.0509 -0.8267
  182POPC   H4R20859   0.095   5.138   7.012  1.0873 -0.2029 -2.5130
  182POPC   H4S20860   0.076   4.991   7.122 -1.0401 -1.3864 -2.3730
  182POPC   C2520861   0.065   4.951   6.922  0.4760  0.2069  1.2027
  182POPC   H5R20862  -0.043   4.971   6.933  0.5264  3.1253 -1.8784
  182POPC   H5S20863   0.089   4.845   6.941  0.1328 -0.4406 -1.5267
  182POPC   C2620864   0.108   4.992   6.782  0.7750  0.9247 -0.5339
  182POPC   H6R20865   0.214   4.967   6.758  0.5216  1.3028 -2.2107
  182POPC   H6S20866   0.107   5.103   6.773  2.3048  1.1504  1.3466
  182POPC   C2720867   0.015   4.927   6.673  0.4709  0.0364 -0.3998
  182POPC   H7R20868   0.011   4.817   6.687  0.2392 -0.2000 -2.1481
  182POPC   H7S20869   0.075   4.950   6.582  1.3413  1.4807  0.4971
  182POPC   C2820870  -0.126   4.985   6.680 -0.9584 -0.0327 -0.6124
  182POPC   H8R20871  -0.117   5.089   6.640 -0.8175 -0.9476 -3.1495
  182POPC   H8S20872  -0.164   4.981   6.784 -0.3737 -1.3325 -0.4260
  182POPC   C2920873  -0.221   4.921   6.587 -0.6387  0.5299  0.2815
  182POPC   H9120874  -0.260   4.820   6.609  1.0046 -0.2298 -0.1676
  182POPC  C21020875  -0.251   4.965   6.464  0.4092  0.3068  0.3127
  182POPC  H10120876  -0.305   4.893   6.400  1.0383 -3.1595  3.3408
  182POPC  C21120877  -0.209   5.090   6.405 -0.2353 -0.0041  0.1274
  182POPC  H11R20878  -0.100   5.112   6.405 -0.5108  1.4923 -0.0933
  182POPC  H11S20879  -0.233   5.169   6.480 -1.4342 -0.3259  0.0936
  182POPC  C21220880  -0.267   5.138   6.268  0.1472 -0.2245 -0.0189
  182POPC  H12R20881  -0.236   5.241   6.242  3.9418 -0.8056  1.4945
  182POPC  H12S20882  -0.377   5.136   6.279  0.2008  0.8146  0.8586
  182POPC  C21320883  -0.209   5.053   6.151  0.3869 -0.0949  0.8263
  182POPC  H13R20884  -0.231   4.945   6.158 -1.4352  0.2811  1.3239
  182POPC  H13S20885  -0.098   5.068   6.147  0.2146  1.7682  1.7349
  182POPC  C21420886  -0.277   5.102   6.017  0.6030 -0.4048  0.5709
  182POPC  H14R20887  -0.273   5.213   6.023  0.0538 -0.4113  1.1497
  182POPC  H14S20888  -0.385   5.077   6.011 -0.4148  3.6464 -2.3841
  182POPC  C21520889  -0.204   5.070   5.888 -0.1346  0.1446  0.9121
  182POPC  H15R20890  -0.196   4.960   5.873  2.2657  0.3417  0.2824
  182POPC  H15S20891  -0.099   5.102   5.905  0.9285 -3.0921  1.1042
  182POPC  C21620892  -0.245   5.143   5.755  0.8902  0.0019 -0.7432
  182POPC  H16R20893  -0.347   5.123   5.717  0.3502  1.0473  0.1215
  182POPC  H16S20894  -0.185   5.114   5.666  0.3370  0.9683 -1.4477
  182POPC  C21720895  -0.224   5.297   5.767 -0.0993 -0.5523 -0.4610
  182POPC  H17R20896  -0.132   5.306   5.830  0.2565 -1.6959 -0.8075
  182POPC  H17S20897  -0.304   5.348   5.825  0.5525  1.3455 -1.1632
  182POPC  C21820898  -0.213   5.368   5.630 -0.4977 -0.1380 -0.2399
  182POPC  H18R20899  -0.117   5.338   5.582 -1.1953 -0.8935 -1.1896
  182POPC  H18S20900  -0.213   5.477   5.652  1.5577 -0.1150 -0.1236
  182POPC  H18T20901  -0.302   5.342   5.568 -0.3508  1.1065 -1.0092
  182POPC   C3320902   0.657   4.976   6.845 -0.1782 -0.1345 -0.2644
  182POPC   H3X20903   0.762   4.976   6.809  0.1134 -0.6633  0.5662
  182POPC   H3Y20904   0.661   5.056   6.922  3.2976 -0.7748  0.3857
  182POPC   C3420905   0.558   5.017   6.734  0.2022 -0.2708  0.6266
  182POPC   H4X20906   0.597   5.110   6.686 -1.0646  0.1955  0.4444
  182POPC   H4Y20907   0.466   5.051   6.786  0.3825  1.8616 -0.3113
  182POPC   C3520908   0.530   4.902   6.637 -0.9249  0.3787  0.4258
  182POPC   H5X20909   0.452   4.935   6.564 -0.4309 -1.9864 -1.2747
  182POPC   H5Y20910   0.481   4.816   6.687  0.7233  0.0329  1.5191
  182POPC   C3620911   0.641   4.854   6.539  0.0814 -0.8398  0.4184
  182POPC   H6X20912   0.625   4.750   6.501  1.9848 -1.1258  0.2794
  182POPC   H6Y20913   0.728   4.831   6.604 -0.3987  1.4534  1.9687
  182POPC   C3720914   0.677   4.950   6.417  0.3264 -0.1678  0.2326
  182POPC   H7X20915   0.775   4.919   6.375  0.1208 -0.0222 -0.3673
  182POPC   H7Y20916   0.678   5.055   6.451  0.9321 -0.3266  0.7079
  182POPC   C3820917   0.589   4.922   6.298 -0.2199 -0.1292 -0.1668
  182POPC   H8X20918   0.482   4.944   6.317  0.3429  1.3746  1.5941
  182POPC   H8Y20919   0.601   4.816   6.269 -1.7913 -0.0345 -1.2986
  182POPC   C3920920   0.636   5.001   6.178 -0.6094 -0.1837 -0.0922
  182POPC   H9X20921   0.740   4.969   6.153  0.1255  0.4385  1.9760
  182POPC   H9Y20922   0.654   5.106   6.210  0.0087 -0.5205  0.6973
  182POPC  C31020923   0.538   4.982   6.056 -0.4328  0.1314  0.3276
  182POPC  H10X20924   0.443   5.033   6.082 -0.4422  0.2768  0.0098
  182POPC  H10Y20925   0.517   4.873   6.055  0.6567 -0.0854 -0.2838
  182POPC  C31120926   0.592   5.012   5.916  0.1270 -0.4686  0.0305
  182POPC  H11X20927   0.692   4.967   5.896  0.3000  0.0267 -0.2453
  182POPC  H11Y20928   0.620   5.119   5.917  0.5084 -0.5698  0.8282
  182POPC  C31220929   0.502   4.982   5.797 -0.5560  0.2697 -0.1720
  182POPC  H12X20930   0.398   5.019   5.813 -0.8891 -0.7599  0.1522
  182POPC  H12Y20931   0.478   4.874   5.805 -0.8165  0.3822  0.5863
  182POPC  C31320932   0.563   5.003   5.658  0.6963 -0.2073 -0.8382
  182POPC  H13X20933   0.593   4.903   5.621 -1.8634 -1.1812 -0.4887
  182POPC  H13Y20934   0.653   5.067   5.669 -0.0571  0.4385  3.2270
  182POPC  C31420935   0.454   5.066   5.567  0.1734  0.4182 -0.5283
  182POPC  H14X20936   0.444   5.168   5.610  0.0642 -0.2533  1.1285
  182POPC  H14Y20937   0.360   5.011   5.588  1.3662 -1.4395  0.1545
  182POPC  C31520938   0.510   5.064   5.428 -0.3906 -0.4517 -0.3129
  182POPC  H15X20939   0.609   5.116   5.427 -0.2196 -0.7459 -2.0356
  182POPC  H15Y20940   0.450   5.131   5.362 -0.0988 -0.1651 -0.2925
  182POPC  C31620941   0.511   4.932   5.352  0.5334  0.0958  0.2245
  182POPC  H16X20942   0.596   4.875   5.396 -1.2619 -1.8278  1.3882
  182POPC  H16Y20943   0.527   4.940   5.242  0.0539 -1.5438  0.0030
  182POPC  H16Z20944   0.413   4.881   5.370  0.5365 -0.8513 -2.0498
  183POPC     N20945   3.311   4.339   7.840  0.1500  0.5456  0.1582
  183POPC   C1220946   3.249   4.414   7.730  0.5451 -0.0217  0.2200
  183POPC  H12A20947   3.315   4.495   7.702 -0.9028  1.5761  1.2096
  183POPC  H12B20948   3.158   4.462   7.762 -1.3863 -2.7053 -0.9671
  183POPC   C1320949   3.207   4.259   7.907  0.2573  0.2066  0.2731
  183POPC  H13A20950   3.174   4.186   7.833 -0.4186  0.8336 -0.0603
  183POPC  H13B20951   3.255   4.206   7.987  1.1158  0.4044 -0.1031
  183POPC  H13C20952   3.128   4.319   7.949 -0.1035  0.1978 -0.3752
  183POPC   C1420953   3.417   4.249   7.798  0.6015 -0.2109  0.4820
  183POPC  H14A20954   3.378   4.177   7.727  0.4842 -1.2162  1.5318
  183POPC  H14B20955   3.501   4.293   7.746 -0.2249  0.8126 -0.0225
  183POPC  H14C20956   3.471   4.204   7.879  1.1736  0.7791  0.6654
  183POPC   C1520957   3.371   4.426   7.944 -0.1672  0.0749  0.5978
  183POPC  H15A20958   3.307   4.508   7.975  2.4538  4.4698 -4.1442
  183POPC  H15B20959   3.463   4.476   7.920  0.2672 -0.3432  1.3468
  183POPC  H15C20960   3.397   4.366   8.030  0.8366  0.6506  0.7135
  183POPC   C1120961   3.214   4.347   7.593  0.0438  0.2634 -0.2104
  183POPC  H11A20962   3.310   4.327   7.540  0.7625  2.2097  0.2332
  183POPC  H11B20963   3.157   4.417   7.528  1.0293 -0.3636 -1.8087
  183POPC     P20964   3.184   4.088   7.585  0.3884 -0.5679  0.0188
  183POPC   O1320965   3.149   4.020   7.709 -0.4477 -0.3812  0.2136
  183POPC   O1420966   3.326   4.078   7.547  0.4831  0.3310 -0.0406
  183POPC   O1220967   3.138   4.232   7.603  0.5172 -0.1460 -0.5506
  183POPC   O1120968   3.096   4.028   7.468  0.8440  0.8283 -0.2384
  183POPC    C120969   3.032   4.114   7.368 -0.0895 -0.0503  0.3843
  183POPC    HA20970   3.029   4.220   7.402 -2.3969  0.2062 -0.4340
  183POPC    HB20971   2.926   4.082   7.357  0.5023 -2.4244  1.0930
  183POPC    C220972   3.104   4.113   7.230 -0.1865  0.6444 -0.5913
  183POPC    HS20973   3.070   4.209   7.186  2.6939  1.3929 -1.3941
  183POPC   O2120974   3.071   3.998   7.161 -0.0220  0.5902 -0.0781
  183POPC   C2120975   2.966   4.000   7.090  0.8210  0.0214 -0.0956
  183POPC   O2220976   2.891   4.099   7.083  0.7180  0.4788  0.5296
  183POPC   C2220977   2.965   3.881   6.997 -0.3859 -0.0368  0.6340
  183POPC   H2R20978   2.971   3.788   7.059  2.9344  0.9311  2.0259
  183POPC   H2S20979   3.058   3.889   6.937  0.7862 -1.4259  2.1531
  183POPC    C320980   3.256   4.129   7.225 -0.2512 -0.2780 -0.2530
  183POPC    HX20981   3.310   4.046   7.276  0.6827  1.3598  1.5541
  183POPC    HY20982   3.286   4.220   7.282 -1.0895  1.8914 -3.0494
  183POPC   O3120983   3.306   4.130   7.086  0.5185 -0.2246  0.3406
  183POPC   C3120984   3.340   4.246   7.037  0.2331 -0.9765 -0.0149
  183POPC   O3220985   3.308   4.353   7.091 -0.3392 -0.4578 -0.6642
  183POPC   C3220986   3.408   4.236   6.897  0.2184 -0.4549 -0.4970
  183POPC   H2X20987   3.489   4.161   6.913  1.6167  1.2351  0.8257
  183POPC   H2Y20988   3.442   4.338   6.871 -2.6120  0.7398  0.1307
  183POPC   C2320989   2.839   3.873   6.913 -0.1091  0.1103  1.2354
  183POPC   H3R20990   2.838   3.951   6.835 -0.1650 -0.9997  0.0858
  183POPC   H3S20991   2.744   3.882   6.971 -2.0483  0.8482 -1.8379
  183POPC   C2420992   2.835   3.736   6.838 -0.8853 -0.8815 -0.6764
  183POPC   H4R20993   2.816   3.648   6.903 -2.1238  0.2101  0.5084
  183POPC   H4S20994   2.938   3.720   6.802 -1.0364 -0.1237 -1.4790
  183POPC   C2520995   2.726   3.745   6.730  0.6826  0.1642  1.0513
  183POPC   H5R20996   2.764   3.808   6.646 -0.4722 -0.4811  0.0097
  183POPC   H5S20997   2.627   3.787   6.757 -0.0731  0.0989 -1.3808
  183POPC   C2620998   2.700   3.611   6.673  0.4544  0.1178  0.2521
  183POPC   H6R20999   2.670   3.531   6.745  0.7992  1.4400  1.9465
  183POPC   H6S21000   2.799   3.581   6.634  0.4763 -0.2706  0.6045
  183POPC   C2721001   2.601   3.619   6.562 -0.3812 -0.4823  1.5687
  183POPC   H7R21002   2.509   3.656   6.612  0.5250  0.5475  2.5217
  183POPC   H7S21003   2.596   3.513   6.528  0.3909 -0.0559  0.0316
  183POPC   C2821004   2.632   3.719   6.448 -0.6342  0.1673  0.6438
  183POPC   H8R21005   2.641   3.820   6.493 -2.1502 -0.2508  2.0100
  183POPC   H8S21006   2.546   3.728   6.379 -0.8956 -0.2776  0.9060
  183POPC   C2921007   2.763   3.692   6.377  0.3071 -0.0079  0.3507
  183POPC   H9121008   2.848   3.680   6.446  0.0002 -0.7575  0.6007
  183POPC  C21021009   2.795   3.677   6.241  0.3073  0.0064 -0.1649
  183POPC  H10121010   2.901   3.672   6.212  0.0985 -0.5508 -0.8486
  183POPC  C21121011   2.705   3.702   6.126  0.4053 -0.0898  0.2671
  183POPC  H11R21012   2.608   3.745   6.158  1.1274  1.1863  0.8096
  183POPC  H11S21013   2.683   3.603   6.080 -0.8252 -0.1010  0.8477
  183POPC  C21221014   2.757   3.795   6.014 -0.3748 -0.5632  0.6186
  183POPC  H12R21015   2.791   3.888   6.064 -2.3189  1.7555 -2.0174
  183POPC  H12S21016   2.661   3.826   5.966  0.1366  0.1712  0.0326
  183POPC  C21321017   2.859   3.741   5.919 -0.2793 -0.3459  0.4718
  183POPC  H13R21018   2.824   3.644   5.879  1.2193 -0.7919  0.2074
  183POPC  H13S21019   2.951   3.720   5.977  0.0234  3.3409  1.5926
  183POPC  C21421020   2.889   3.831   5.799  1.0226 -0.6449  0.4738
  183POPC  H14R21021   2.811   3.909   5.787  0.4236 -1.1247  1.1470
  183POPC  H14S21022   2.907   3.759   5.717 -1.7013 -2.8388  1.6395
  183POPC  C21521023   3.011   3.915   5.818  0.3768 -0.9503 -0.1386
  183POPC  H15R21024   3.101   3.868   5.864 -0.9013 -0.4974  3.0843
  183POPC  H15S21025   2.975   3.982   5.899  1.4460 -2.4405  1.6436
  183POPC  C21621026   3.061   3.996   5.698  0.4078  0.1564  0.1186
  183POPC  H16R21027   2.975   4.058   5.666 -0.0845  0.5207  2.0553
  183POPC  H16S21028   3.091   3.931   5.613 -0.7386 -0.1727 -0.0567
  183POPC  C21721029   3.174   4.086   5.735  0.5850 -0.0632  0.2321
  183POPC  H17R21030   3.257   4.022   5.771  1.9219  1.6149  0.2670
  183POPC  H17S21031   3.148   4.160   5.814  1.2187  0.6529 -0.2179
  183POPC  C21821032   3.214   4.171   5.620 -0.0856  0.4706  0.0248
  183POPC  H18R21033   3.140   4.252   5.605  0.7660  1.5333  1.4116
  183POPC  H18S21034   3.222   4.099   5.535  0.1239 -0.8641  1.1425
  183POPC  H18T21035   3.311   4.222   5.634  0.0577  1.1503 -2.8076
  183POPC   C3321036   3.312   4.190   6.787 -1.0556 -0.3006  0.1359
  183POPC   H3X21037   3.214   4.215   6.834 -0.5191  1.3641  0.4238
  183POPC   H3Y21038   3.319   4.080   6.775 -0.4070 -0.0614 -2.1112
  183POPC   C3421039   3.335   4.261   6.651  0.1803 -0.4505  0.5575
  183POPC   H4X21040   3.317   4.370   6.663  0.3667 -0.2330 -0.9584
  183POPC   H4Y21041   3.248   4.226   6.592 -0.1325  0.3790  0.5085
  183POPC   C3521042   3.477   4.246   6.586 -0.8071  0.1565 -0.4686
  183POPC   H5X21043   3.555   4.263   6.664  0.4965 -1.1063 -1.4444
  183POPC   H5Y21044   3.492   4.320   6.505  0.7711  0.2259 -0.1407
  183POPC   C3621045   3.507   4.106   6.522 -0.0728 -0.3722 -0.2962
  183POPC   H6X21046   3.438   4.099   6.436 -0.8430  0.0447  0.2773
  183POPC   H6Y21047   3.486   4.029   6.599  0.8747  2.0209  2.5933
  183POPC   C3721048   3.645   4.088   6.474  0.0185  0.0142 -0.4505
  183POPC   H7X21049   3.721   4.095   6.555  0.4643 -1.9638 -0.6531
  183POPC   H7Y21050   3.665   4.177   6.410 -0.1451  2.1150  2.2259
  183POPC   C3821051   3.669   3.959   6.398 -0.6310  0.3420 -0.3845
  183POPC   H8X21052   3.573   3.906   6.383  0.6707 -2.1269 -0.5441
  183POPC   H8Y21053   3.724   3.890   6.466 -1.6582 -0.0489  0.0647
  183POPC   C3921054   3.753   3.953   6.270  1.9359  1.0036  0.1994
  183POPC   H9X21055   3.856   3.988   6.293  2.3929 -0.2772  0.1935
  183POPC   H9Y21056   3.710   4.019   6.191  0.2898 -0.4203 -0.1565
  183POPC  C31021057   3.757   3.810   6.217 -0.2330  0.0378  0.7804
  183POPC  H10X21058   3.658   3.759   6.218  0.2648 -1.0517 -0.9902
  183POPC  H10Y21059   3.805   3.744   6.292  1.4990 -0.8433 -1.0090
  183POPC  C31121060   3.814   3.803   6.077 -0.2702  0.2393 -0.0176
  183POPC  H11X21061   3.751   3.846   5.997  1.4793 -0.4398 -1.8619
  183POPC  H11Y21062   3.822   3.696   6.046 -0.8775  0.3324 -0.5172
  183POPC  C31221063   3.963   3.854   6.069  0.2010  0.1006 -0.3015
  183POPC  H12X21064   4.030   3.805   6.143  0.4490  0.5927 -0.1927
  183POPC  H12Y21065   3.964   3.964   6.086  1.7332  0.4755 -2.3758
  183POPC  C31321066   4.034   3.824   5.938  0.7802  0.0942  0.8249
  183POPC  H13X21067   4.043   3.713   5.935  0.3865  0.0523  1.1604
  183POPC  H13Y21068   4.139   3.860   5.929  0.7589 -0.2329 -1.2834
  183POPC  C31421069   3.960   3.870   5.814  0.0685  0.0429 -0.1955
  183POPC  H14X21070   3.937   3.978   5.819 -0.2075 -0.0247  0.0576
  183POPC  H14Y21071   3.858   3.824   5.813  0.1653 -0.1959 -1.6208
  183POPC  C31521072   4.034   3.831   5.685  0.4483  0.5913 -0.6150
  183POPC  H15X21073   4.045   3.721   5.698  1.3880  0.8140  0.7099
  183POPC  H15Y21074   4.134   3.878   5.688 -0.0408  1.7477  3.6683
  183POPC  C31621075   3.954   3.863   5.556  0.4690 -0.1025  0.4563
  183POPC  H16X21076   3.846   3.843   5.568 -0.0003  0.9808 -1.5517
  183POPC  H16Y21077   3.991   3.816   5.462 -1.3827  1.0314 -0.8912
  183POPC  H16Z21078   3.968   3.971   5.536  0.3697 -0.4847 -1.9586
  184POPC     N21079   4.636   3.179   7.597  0.0629  0.0693 -0.1475
  184POPC   C1221080   4.684   3.316   7.529  0.0955  0.8698 -0.2192
  184POPC  H12A21081   4.736   3.290   7.438  1.7944  0.3742  0.8501
  184POPC  H12B21082   4.760   3.361   7.591 -1.4730  2.9817  0.2700
  184POPC   C1321083   4.520   3.127   7.520  0.4828  0.3569 -0.1393
  184POPC  H13A21084   4.485   3.029   7.547  0.1949  0.2168 -0.9740
  184POPC  H13B21085   4.435   3.194   7.523  0.4653  0.5032 -2.2996
  184POPC  H13C21086   4.553   3.108   7.419  3.8817 -1.0319  1.1014
  184POPC   C1421087   4.750   3.089   7.601  0.4978  0.0328 -0.1791
  184POPC  H14A21088   4.802   3.080   7.507 -1.2461 -1.7278 -1.0496
  184POPC  H14B21089   4.825   3.121   7.672 -0.8287  1.7234  0.5280
  184POPC  H14C21090   4.717   2.988   7.620  0.1021  0.2313  0.2308
  184POPC   C1521091   4.599   3.200   7.739  0.1654 -0.7454 -0.1400
  184POPC  H15A21092   4.521   3.275   7.740 -0.4390 -1.3605 -0.1415
  184POPC  H15B21093   4.688   3.230   7.791  0.9899 -4.0861  0.5835
  184POPC  H15C21094   4.561   3.109   7.783 -2.7588  0.8846  1.0011
  184POPC   C1121095   4.587   3.428   7.502  0.2308  0.7430  0.9833
  184POPC  H11A21096   4.512   3.399   7.425  1.9443 -1.3102 -0.0420
  184POPC  H11B21097   4.636   3.513   7.450 -2.0781  1.1426 -0.6978
  184POPC     P21098   4.592   3.561   7.727 -0.2668 -0.3563 -0.0101
  184POPC   O1321099   4.664   3.483   7.828 -0.1507 -0.1226  0.2032
  184POPC   O1421100   4.483   3.653   7.777  0.3845  0.2650 -0.5618
  184POPC   O1221101   4.519   3.465   7.622  0.3233  0.1909  0.2129
  184POPC   O1121102   4.688   3.651   7.646  0.1133 -0.0322 -0.2962
  184POPC    C121103   4.656   3.779   7.598 -0.1890 -0.1596 -0.0805
  184POPC    HA21104   4.738   3.825   7.538 -0.0679 -1.7562 -1.1770
  184POPC    HB21105   4.621   3.852   7.675 -3.2199 -0.9197 -0.6016
  184POPC    C221106   4.539   3.777   7.499  0.2961  0.7892  0.4751
  184POPC    HS21107   4.471   3.693   7.526  0.2476  1.3652  2.3052
  184POPC   O2121108   4.596   3.761   7.362  0.1877 -0.0230  0.5434
  184POPC   C2121109   4.525   3.679   7.281  0.4036 -0.4394  0.1473
  184POPC   O2221110   4.422   3.622   7.319 -0.2386 -0.0460  0.5385
  184POPC   C2221111   4.582   3.679   7.142 -0.9980 -0.4584  0.8371
  184POPC   H2R21112   4.665   3.605   7.138 -0.0310  0.6612 -1.3732
  184POPC   H2S21113   4.625   3.777   7.112 -0.3138 -0.9628  0.1238
  184POPC    C321114   4.449   3.907   7.501  0.5714 -0.3943 -0.3362
  184POPC    HX21115   4.511   3.999   7.494 -1.1127  1.0006  1.6333
  184POPC    HY21116   4.409   3.894   7.604 -2.8152  0.2146 -1.4542
  184POPC   O3121117   4.334   3.905   7.406 -0.3940  0.0438  0.3069
  184POPC   C3121118   4.235   3.981   7.447  0.6155 -0.5012 -0.3814
  184POPC   O3221119   4.230   4.054   7.548 -0.5612  0.0301 -0.2264
  184POPC   C3221120   4.121   3.972   7.342 -0.0970 -0.0419 -0.3656
  184POPC   H2X21121   4.031   4.015   7.389 -0.4518 -1.0301 -0.1230
  184POPC   H2Y21122   4.107   3.862   7.330 -3.3153 -0.1827  3.0230
  184POPC   C2321123   4.476   3.644   7.040 -0.2859  0.1806  0.4270
  184POPC   H3R21124   4.384   3.708   7.043  1.0437  2.1506  1.0681
  184POPC   H3S21125   4.443   3.539   7.056 -0.6540 -0.1823 -2.2304
  184POPC   C2421126   4.546   3.643   6.904 -0.1555 -0.4961 -0.1094
  184POPC   H4R21127   4.626   3.566   6.914 -2.4266 -3.1938 -1.3339
  184POPC   H4S21128   4.587   3.743   6.880 -3.1427  1.4374  2.1415
  184POPC   C2521129   4.445   3.597   6.790 -0.1722 -0.5328 -0.1033
  184POPC   H5R21130   4.358   3.667   6.801 -1.2857 -2.0914  1.6916
  184POPC   H5S21131   4.404   3.494   6.791 -4.5957  0.9478 -2.3164
  184POPC   C2621132   4.511   3.627   6.652  0.1424 -0.7343 -0.6623
  184POPC   H6R21133   4.617   3.596   6.643  0.3647  0.5252 -3.8396
  184POPC   H6S21134   4.518   3.735   6.626  1.9786 -0.4085  0.9324
  184POPC   C2721135   4.434   3.558   6.536  0.1320 -0.4406  0.5906
  184POPC   H7R21136   4.327   3.588   6.532  0.6562  1.6503  0.9656
  184POPC   H7S21137   4.461   3.451   6.546  1.9016 -0.0035  0.8529
  184POPC   C2821138   4.490   3.598   6.394  0.5827 -0.6272 -0.2737
  184POPC   H8R21139   4.599   3.582   6.402  0.6037 -0.6012 -0.5174
  184POPC   H8S21140   4.453   3.701   6.375 -5.3814 -2.3730 -0.2712
  184POPC   C2921141   4.416   3.513   6.296 -0.2466 -0.0089 -0.3020
  184POPC   H9121142   4.346   3.442   6.343  0.4608  0.4466  1.5081
  184POPC  C21021143   4.433   3.503   6.161  0.7364  0.4685  0.0400
  184POPC  H10121144   4.352   3.453   6.106  2.0498 -0.3541 -1.2352
  184POPC  C21121145   4.538   3.580   6.084 -0.5125 -0.0672 -0.0051
  184POPC  H11R21146   4.635   3.525   6.085 -0.7216 -0.4332  0.5203
  184POPC  H11S21147   4.566   3.675   6.134 -0.0955  0.9822 -2.1047
  184POPC  C21221148   4.493   3.621   5.942 -0.5768  0.1602  0.1341
  184POPC  H12R21149   4.568   3.698   5.911 -1.4459  0.7377 -0.5790
  184POPC  H12S21150   4.397   3.676   5.952 -0.2006  0.5186  2.1022
  184POPC  C21321151   4.494   3.509   5.841 -0.3608  0.6198  0.6916
  184POPC  H13R21152   4.415   3.432   5.860 -0.8638 -0.0799 -3.4454
  184POPC  H13S21153   4.586   3.447   5.839 -0.2809  0.7456  0.5554
  184POPC  C21421154   4.476   3.568   5.700  0.1808 -0.2231  0.4357
  184POPC  H14R21155   4.566   3.628   5.673 -0.5052  0.5680 -0.1641
  184POPC  H14S21156   4.381   3.626   5.702 -1.2033 -2.2862 -0.9355
  184POPC  C21521157   4.449   3.462   5.588 -0.7336 -0.0556 -0.3105
  184POPC  H15R21158   4.368   3.388   5.607 -0.8121  0.5037  1.7558
  184POPC  H15S21159   4.544   3.406   5.582 -0.6182  0.2210 -1.1927
  184POPC  C21621160   4.426   3.527   5.448 -0.6031 -0.0829 -0.2068
  184POPC  H16R21161   4.433   3.446   5.372 -2.4154  0.1989 -0.7274
  184POPC  H16S21162   4.496   3.611   5.432  0.1024 -0.3144  1.4544
  184POPC  C21721163   4.282   3.576   5.428 -0.0154  0.0048 -0.0603
  184POPC  H17R21164   4.277   3.657   5.504  1.0796  0.4839 -0.4738
  184POPC  H17S21165   4.212   3.491   5.444  0.2391 -0.0900  0.5912
  184POPC  C21821166   4.236   3.646   5.299 -0.3650  0.8779 -0.6201
  184POPC  H18R21167   4.289   3.744   5.301  0.4413  0.4588 -1.1828
  184POPC  H18S21168   4.129   3.673   5.310 -0.8403 -0.5923 -1.3436
  184POPC  H18T21169   4.243   3.580   5.210 -0.1716 -3.0061  2.0338
  184POPC   C3321170   4.153   4.035   7.209 -0.8134 -0.3271  0.1711
  184POPC   H3X21171   4.194   4.138   7.211 -3.1959  0.7100  0.0597
  184POPC   H3Y21172   4.054   4.050   7.161 -1.0389 -0.0642  0.7080
  184POPC   C3421173   4.251   3.960   7.115  0.0536 -1.1506 -0.1303
  184POPC   H4X21174   4.224   3.853   7.131 -0.5785 -0.8825  0.6579
  184POPC   H4Y21175   4.356   3.974   7.148  0.1139  0.4064 -0.9400
  184POPC   C3521176   4.242   4.000   6.962 -0.4885 -0.4046  0.7713
  184POPC   H5X21177   4.143   3.972   6.921 -0.8517 -1.0643  2.0261
  184POPC   H5Y21178   4.328   3.950   6.912  0.3285  2.4520 -0.8818
  184POPC   C3621179   4.259   4.149   6.934  0.2908  0.2479 -0.3919
  184POPC   H6X21180   4.333   4.171   7.014 -0.3042 -0.2317  0.3156
  184POPC   H6Y21181   4.167   4.211   6.945  0.1224  0.6674 -3.4405
  184POPC   C3721182   4.321   4.182   6.801  0.0275  0.5581  0.4736
  184POPC   H7X21183   4.246   4.186   6.719 -0.0301 -0.6211  0.4608
  184POPC   H7Y21184   4.385   4.093   6.785 -1.2424 -0.3018 -0.0249
  184POPC   C3821185   4.398   4.316   6.797  0.4808 -0.5443 -1.1643
  184POPC   H8X21186   4.477   4.304   6.874 -3.0313  1.3013  3.1779
  184POPC   H8Y21187   4.327   4.398   6.824  0.7297 -0.5251 -0.5486
  184POPC   C3921188   4.486   4.346   6.674 -0.6506  0.4401 -0.6289
  184POPC   H9X21189   4.556   4.264   6.647 -0.0124 -0.7984  3.9416
  184POPC   H9Y21190   4.551   4.432   6.702  1.8263 -1.3132 -0.6569
  184POPC  C31021191   4.403   4.393   6.552  0.2597  0.7916  0.6853
  184POPC  H10X21192   4.348   4.487   6.576 -0.3025  0.2218  1.6607
  184POPC  H10Y21193   4.330   4.319   6.514  0.0785  2.1246 -1.7544
  184POPC  C31121194   4.486   4.422   6.424  0.5330 -0.0373 -0.0175
  184POPC  H11X21195   4.564   4.343   6.424  0.3557 -0.3292 -2.8452
  184POPC  H11Y21196   4.544   4.514   6.443  0.6873 -0.0653 -0.3490
  184POPC  C31221197   4.402   4.443   6.295 -0.9378  0.1145 -0.0499
  184POPC  H12X21198   4.334   4.528   6.319  1.4318  1.6134  1.9173
  184POPC  H12Y21199   4.336   4.355   6.284  1.5832 -1.9627  0.5062
  184POPC  C31321200   4.480   4.467   6.164 -0.7030 -0.4567 -0.6905
  184POPC  H13X21201   4.546   4.378   6.155 -0.4945 -0.5253  1.0825
  184POPC  H13Y21202   4.547   4.552   6.190  1.4678 -1.9644 -1.0450
  184POPC  C31421203   4.391   4.507   6.042  0.1546  0.4480  0.0320
  184POPC  H14X21204   4.319   4.582   6.081  0.0506  0.0110  0.7023
  184POPC  H14Y21205   4.322   4.423   6.020 -0.1412  1.1228 -1.7638
  184POPC  C31521206   4.462   4.533   5.912 -0.1073 -0.1229 -0.2502
  184POPC  H15X21207   4.531   4.449   5.890 -1.5596 -0.9162 -2.0487
  184POPC  H15Y21208   4.528   4.622   5.920 -1.2567  0.6560  1.0026
  184POPC  C31621209   4.367   4.549   5.791  0.6725 -0.7670 -0.2461
  184POPC  H16X21210   4.440   4.558   5.708 -0.5543  1.1571 -1.1942
  184POPC  H16Y21211   4.308   4.641   5.815 -0.7688 -1.4683 -0.9956
  184POPC  H16Z21212   4.300   4.461   5.782  1.4147 -1.3467 -0.2177
  185POPC     N21213   4.622   6.582   3.158  0.2186 -0.0115 -0.6254
  185POPC   C1221214   4.588   6.669   3.273  0.2312 -0.7173 -0.1493
  185POPC  H12A21215   4.647   6.645   3.360 -0.7942 -1.9254  0.2322
  185POPC  H12B21216   4.487   6.648   3.303 -0.3882  0.9753 -0.9200
  185POPC   C1321217   4.562   6.633   3.038  0.3652 -0.0728 -0.0403
  185POPC  H13A21218   4.555   6.567   2.953 -2.5854 -0.4679  0.3968
  185POPC  H13B21219   4.460   6.658   3.062  0.2685  0.1165 -0.6140
  185POPC  H13C21220   4.610   6.725   3.006  1.2671 -0.6258 -0.3248
  185POPC   C1421221   4.771   6.572   3.136 -0.1817  1.1390  0.3811
  185POPC  H14A21222   4.820   6.661   3.099  0.4640  0.8713  0.5776
  185POPC  H14B21223   4.826   6.532   3.220 -2.3244 -0.0700  1.3063
  185POPC  H14C21224   4.793   6.497   3.061  1.2222  2.4315 -0.5499
  185POPC   C1521225   4.574   6.445   3.186 -0.1766 -0.7598  0.3081
  185POPC  H15A21226   4.468   6.429   3.176 -0.2844  0.5375 -0.9149
  185POPC  H15B21227   4.592   6.422   3.290  2.4610 -2.8653 -0.4924
  185POPC  H15C21228   4.627   6.374   3.124 -0.5971  0.5239 -1.6265
  185POPC   C1121229   4.593   6.827   3.259 -0.1383 -1.1232 -0.0785
  185POPC  H11A21230   4.696   6.867   3.247  0.6410 -3.1734 -0.5601
  185POPC  H11B21231   4.572   6.860   3.363  0.5222  0.1903 -0.3463
  185POPC     P21232   4.345   6.914   3.203 -0.1562 -0.3576 -0.6424
  185POPC   O1321233   4.286   6.784   3.239 -0.3400  0.1181 -0.0824
  185POPC   O1421234   4.274   6.977   3.083 -0.1606  0.1618  0.0590
  185POPC   O1221235   4.493   6.883   3.165 -0.8986  0.4644  0.9477
  185POPC   O1121236   4.356   7.003   3.336 -0.5774 -0.0535 -0.5490
  185POPC    C121237   4.244   7.074   3.382  0.2786  0.3932  0.2642
  185POPC    HA21238   4.190   7.008   3.453  0.7971 -0.6406 -0.2714
  185POPC    HB21239   4.175   7.100   3.299 -0.1100 -0.5195  0.2935
  185POPC    C221240   4.294   7.209   3.456 -0.0893 -0.2027 -0.3912
  185POPC    HS21241   4.339   7.275   3.378 -2.3175 -0.5884 -2.1112
  185POPC   O2121242   4.382   7.165   3.564 -0.4641  0.0057  0.7791
  185POPC   C2121243   4.481   7.249   3.597  0.5850  0.0713  0.4168
  185POPC   O2221244   4.510   7.355   3.546  0.1551  0.0107  0.1705
  185POPC   C2221245   4.549   7.190   3.718  0.2285 -0.1945 -0.3747
  185POPC   H2R21246   4.647   7.242   3.733  0.9833 -1.1044 -1.8556
  185POPC   H2S21247   4.571   7.084   3.692  0.4502  0.0947 -1.4221
  185POPC    C321248   4.170   7.286   3.523 -0.6693 -0.2385 -0.7025
  185POPC    HX21249   4.135   7.204   3.590 -0.0246  0.5981  0.6890
  185POPC    HY21250   4.105   7.329   3.444 -0.1423 -0.0468 -1.0347
  185POPC   O3121251   4.204   7.388   3.622  0.0782  0.1259 -0.1587
  185POPC   C3121252   4.254   7.503   3.570 -0.1283  0.2450 -0.0344
  185POPC   O3221253   4.281   7.522   3.452  0.5587 -0.6918 -0.3470
  185POPC   C3221254   4.273   7.601   3.687  0.2019 -0.0572  0.2370
  185POPC   H2X21255   4.308   7.699   3.650 -0.4439  0.2651  0.4508
  185POPC   H2Y21256   4.360   7.566   3.746  0.2146  1.8129  1.4137
  185POPC   C2321257   4.465   7.206   3.844 -0.4803 -0.4303  0.7329
  185POPC   H3R21258   4.494   7.128   3.918 -3.5700 -0.6135  1.8890
  185POPC   H3S21259   4.356   7.193   3.821 -0.6537  2.6140 -0.6054
  185POPC   C2421260   4.507   7.344   3.904 -0.0415 -0.4525 -0.0317
  185POPC   H4R21261   4.498   7.424   3.827 -1.6970 -0.9806 -0.4199
  185POPC   H4S21262   4.614   7.344   3.934  0.1241  1.0531 -0.5512
  185POPC   C2521263   4.423   7.374   4.030 -0.2248 -0.2590 -0.3498
  185POPC   H5R21264   4.313   7.366   4.021 -0.6985 -0.3127  3.6869
  185POPC   H5S21265   4.448   7.477   4.064  2.2009 -1.3358  1.4607
  185POPC   C2621266   4.458   7.285   4.152 -0.2555  0.2503 -0.2243
  185POPC   H6R21267   4.565   7.255   4.159 -0.1637  0.5442 -0.3478
  185POPC   H6S21268   4.399   7.192   4.137  0.0973  0.3335 -2.4416
  185POPC   C2721269   4.432   7.347   4.291  0.1479 -0.3394 -0.4822
  185POPC   H7R21270   4.324   7.374   4.285  0.5711  2.2091  1.5460
  185POPC   H7S21271   4.492   7.438   4.309  0.7661 -0.5360 -1.5050
  185POPC   C2821272   4.453   7.257   4.407 -0.4638  0.2007 -0.1535
  185POPC   H8R21273   4.427   7.154   4.375 -1.1248 -0.3074  1.8744
  185POPC   H8S21274   4.374   7.284   4.480  0.2479  0.7264  0.4383
  185POPC   C2921275   4.593   7.263   4.470  0.4678 -0.1029  0.0821
  185POPC   H9121276   4.683   7.259   4.407 -0.2389 -2.6990 -0.9000
  185POPC  C21021277   4.609   7.274   4.605  0.1125 -0.6204 -0.5525
  185POPC  H10121278   4.715   7.283   4.632  0.2691  0.2083 -1.3982
  185POPC  C21121279   4.503   7.274   4.712 -0.1970 -0.1903 -0.6279
  185POPC  H11R21280   4.408   7.319   4.675  0.1607 -0.5488 -2.0258
  185POPC  H11S21281   4.540   7.320   4.806  0.6442  0.5462 -1.3167
  185POPC  C21221282   4.465   7.130   4.744 -0.5437 -0.7165  0.0529
  185POPC  H12R21283   4.419   7.081   4.656  0.7205 -3.0605  0.6247
  185POPC  H12S21284   4.393   7.126   4.828 -1.8364 -1.4048 -1.0553
  185POPC  C21321285   4.577   7.047   4.796 -0.9794 -0.5332  0.1762
  185POPC  H13R21286   4.633   7.102   4.875 -1.6439  0.4973 -0.0560
  185POPC  H13S21287   4.648   7.026   4.713  0.1923 -1.2087  1.3102
  185POPC  C21421288   4.535   6.914   4.861 -0.4966  0.5814  0.0640
  185POPC  H14R21289   4.489   6.851   4.782 -1.5410 -1.7177  2.3908
  185POPC  H14S21290   4.472   6.916   4.952  0.4096 -0.9486  0.7690
  185POPC  C21521291   4.657   6.833   4.900  0.2554  0.3683  0.6004
  185POPC  H15R21292   4.739   6.888   4.952  0.2310 -0.9715  2.1504
  185POPC  H15S21293   4.688   6.814   4.795 -0.8518  0.5809  0.2269
  185POPC  C21621294   4.642   6.700   4.968 -0.6515  0.6934  0.5784
  185POPC  H16R21295   4.575   6.641   4.902  0.1777  0.9508 -0.5229
  185POPC  H16S21296   4.585   6.712   5.062 -1.2216  0.0861  0.3183
  185POPC  C21721297   4.777   6.623   5.003  0.9901 -0.8051 -0.4760
  185POPC  H17R21298   4.755   6.526   5.053 -1.5758  0.2366  0.6118
  185POPC  H17S21299   4.837   6.681   5.076  1.8059 -0.5826 -1.3095
  185POPC  C21821300   4.859   6.592   4.879  0.1394 -0.4153  0.6298
  185POPC  H18R21301   4.811   6.514   4.815 -0.3189 -0.0783  0.5525
  185POPC  H18S21302   4.960   6.557   4.909  1.3831  2.2280 -0.1370
  185POPC  H18T21303   4.879   6.684   4.821  0.1856 -0.7405  0.1271
  185POPC   C3321304   4.142   7.628   3.765  0.4072  0.4232 -0.3914
  185POPC   H3X21305   4.092   7.534   3.799  2.8912 -1.1735 -0.8665
  185POPC   H3Y21306   4.062   7.664   3.698 -0.4414  0.8973  0.8395
  185POPC   C3421307   4.156   7.742   3.872 -0.6070  0.4328 -0.5304
  185POPC   H4X21308   4.056   7.753   3.919 -0.1101  1.4269  0.3483
  185POPC   H4Y21309   4.178   7.839   3.821  0.9025  0.1383 -0.4891
  185POPC   C3521310   4.262   7.703   3.977  0.5622 -0.0298  0.4416
  185POPC   H5X21311   4.353   7.680   3.918 -0.0864  1.0372 -1.0580
  185POPC   H5Y21312   4.236   7.614   4.037 -0.0971  0.3798  0.7779
  185POPC   C3621313   4.293   7.824   4.057  0.1747 -0.1121 -0.1522
  185POPC   H6X21314   4.202   7.847   4.116  0.7873 -1.6411  1.4666
  185POPC   H6Y21315   4.319   7.909   3.990 -2.1410  0.7200 -0.1008
  185POPC   C3721316   4.404   7.799   4.163 -0.6100  0.5946  0.6385
  185POPC   H7X21317   4.454   7.893   4.195 -0.9962  0.0675  3.0553
  185POPC   H7Y21318   4.483   7.730   4.125 -0.2728  0.6573  1.2114
  185POPC   C3821319   4.360   7.740   4.296 -0.1111 -0.3259  0.1723
  185POPC   H8X21320   4.308   7.647   4.266  0.2289 -0.1776 -0.9344
  185POPC   H8Y21321   4.275   7.801   4.335  0.6375 -0.2435  1.7548
  185POPC   C3921322   4.468   7.723   4.399 -0.8773 -0.7895 -0.1170
  185POPC   H9X21323   4.523   7.819   4.403 -2.2990  0.0808 -0.6266
  185POPC   H9Y21324   4.534   7.640   4.367 -0.0220 -1.4279  2.9335
  185POPC  C31021325   4.423   7.690   4.533  0.3655  0.3498 -0.2200
  185POPC  H10X21326   4.396   7.583   4.527  1.4771  0.1420 -2.0798
  185POPC  H10Y21327   4.330   7.745   4.561 -0.3989 -0.5600 -0.8946
  185POPC  C31121328   4.532   7.692   4.647  0.4421  0.7770 -0.1271
  185POPC  H11X21329   4.591   7.785   4.632  1.7880 -0.3221 -2.1363
  185POPC  H11Y21330   4.608   7.612   4.630 -0.5240  0.0830 -1.4139
  185POPC  C31221331   4.480   7.674   4.796  0.4015 -0.3005 -0.2960
  185POPC  H12X21332   4.409   7.591   4.818 -1.4287  0.6920 -2.0432
  185POPC  H12Y21333   4.420   7.766   4.814  0.3298 -0.6203  1.2334
  185POPC  C31321334   4.587   7.677   4.902 -0.2850 -0.4482 -0.8526
  185POPC  H13X21335   4.631   7.575   4.899 -0.2051 -0.4542  0.3811
  185POPC  H13Y21336   4.554   7.687   5.007  0.2343  0.5166 -0.7762
  185POPC  C31421337   4.699   7.775   4.885 -0.2998  0.3696 -0.2953
  185POPC  H14X21338   4.646   7.871   4.902 -0.1408  0.3099  0.5713
  185POPC  H14Y21339   4.742   7.783   4.783  1.3152 -0.7767  0.2559
  185POPC  C31521340   4.819   7.751   4.978 -0.6587  0.0929 -0.1299
  185POPC  H15X21341   4.873   7.656   4.957 -0.3666  0.3188 -0.4071
  185POPC  H15Y21342   4.768   7.738   5.076 -1.6948  0.6055 -0.5857
  185POPC  C31621343   4.913   7.874   4.974  0.2192 -0.4473 -0.3350
  185POPC  H16X21344   4.847   7.963   4.972  1.7331  0.7095 -0.6208
  185POPC  H16Y21345   4.969   7.876   4.878  2.2632  1.8502  0.7955
  185POPC  H16Z21346   4.986   7.871   5.057  0.3435 -1.7425 -0.4780
  186POPC     N21347   5.347   2.576   3.150 -0.0144 -0.0545  0.1714
  186POPC   C1221348   5.237   2.560   3.253  0.9115  0.4758 -0.8624
  186POPC  H12A21349   5.188   2.464   3.249  0.7507  0.2486  2.8998
  186POPC  H12B21350   5.162   2.630   3.219  0.9792  1.4674  0.9276
  186POPC   C1321351   5.407   2.714   3.151 -0.4325 -0.2606  0.5602
  186POPC  H13A21352   5.330   2.789   3.140  1.1859  1.4152 -0.0769
  186POPC  H13B21353   5.460   2.737   3.242 -0.5263  0.2166  0.4972
  186POPC  H13C21354   5.470   2.729   3.064 -1.1877  0.5462  0.1401
  186POPC   C1421355   5.463   2.486   3.171 -0.0862  0.5518 -0.0788
  186POPC  H14A21356   5.549   2.495   3.105  0.4728 -0.3513  0.5072
  186POPC  H14B21357   5.501   2.518   3.267 -1.2596  2.6875 -0.2571
  186POPC  H14C21358   5.433   2.383   3.168 -1.5674  0.9448 -3.2150
  186POPC   C1521359   5.286   2.555   3.012 -0.0948  0.2916  0.1484
  186POPC  H15A21360   5.229   2.463   3.008 -1.5097  1.0594  1.8482
  186POPC  H15B21361   5.360   2.563   2.933  2.1896  0.6726  2.2007
  186POPC  H15C21362   5.209   2.629   3.002 -0.3913 -0.0118  0.1733
  186POPC   C1121363   5.284   2.583   3.402 -0.1756  0.4591 -0.3808
  186POPC  H11A21364   5.354   2.505   3.437 -1.4051 -1.4024 -1.8480
  186POPC  H11B21365   5.192   2.575   3.464  0.2435 -0.7227  0.1253
  186POPC     P21366   5.256   2.838   3.449 -0.5066 -0.3981 -0.3074
  186POPC   O1321367   5.197   2.894   3.326  0.6016  0.8386  0.1259
  186POPC   O1421368   5.347   2.934   3.522 -0.6686  0.1650  0.1595
  186POPC   O1221369   5.341   2.714   3.413 -0.1728  0.2314 -0.0805
  186POPC   O1121370   5.145   2.784   3.549  0.6602 -0.0973  0.1054
  186POPC    C121371   5.113   2.868   3.662 -0.2028 -0.0504  0.4567
  186POPC    HA21372   5.025   2.929   3.633 -0.0404  0.8191  1.6729
  186POPC    HB21373   5.186   2.941   3.704  0.4238 -0.9096  0.8858
  186POPC    C221374   5.055   2.773   3.777 -0.4553 -0.1282 -0.4884
  186POPC    HS21375   4.983   2.826   3.843  2.4366  1.8991  1.2764
  186POPC   O2121376   5.160   2.734   3.858  0.2790  0.0367 -1.0589
  186POPC   C2121377   5.214   2.827   3.940 -0.4708 -0.0217  0.2881
  186POPC   O2221378   5.173   2.942   3.954  0.0777  0.0115 -0.2874
  186POPC   C2221379   5.324   2.757   4.018 -0.9539 -1.2586 -0.0542
  186POPC   H2R21380   5.410   2.743   3.949 -0.5442  0.6504  0.0238
  186POPC   H2S21381   5.285   2.659   4.055  1.9258 -1.3552  3.2010
  186POPC    C321382   4.971   2.657   3.718 -0.7814  0.6708 -0.1607
  186POPC    HX21383   5.042   2.601   3.653 -0.5958  2.5779 -1.6967
  186POPC    HY21384   4.890   2.694   3.652 -0.2399  3.3367  0.5628
  186POPC   O3121385   4.937   2.560   3.822 -0.0387 -0.1067  0.4015
  186POPC   C3121386   4.834   2.599   3.893  0.4990 -0.0923  0.0189
  186POPC   O3221387   4.763   2.690   3.869  0.1092  0.0557  0.2386
  186POPC   C3221388   4.809   2.504   4.011  0.0273 -0.2816  0.0980
  186POPC   H2X21389   4.911   2.473   4.041  0.6295 -0.5015 -2.0341
  186POPC   H2Y21390   4.756   2.417   3.968 -1.1052 -0.1935  1.2582
  186POPC   C2321391   5.362   2.829   4.139  0.4903  0.3792  0.1116
  186POPC   H3R21392   5.394   2.933   4.119 -1.1343  1.6206  3.2806
  186POPC   H3S21393   5.457   2.777   4.163  1.1091  0.1627 -2.4871
  186POPC   C2421394   5.248   2.812   4.241 -0.5766 -0.1133  0.2145
  186POPC   H4R21395   5.203   2.713   4.220  0.2489 -0.4752  0.1060
  186POPC   H4S21396   5.165   2.876   4.206  1.2493  2.3141  0.0954
  186POPC   C2521397   5.289   2.836   4.392  0.3679  0.4480  0.8168
  186POPC   H5R21398   5.324   2.941   4.404 -1.1987  0.9996  0.7732
  186POPC   H5S21399   5.383   2.780   4.410 -1.1727 -2.1098  1.3816
  186POPC   C2621400   5.180   2.792   4.483 -0.0165  0.0838 -0.1018
  186POPC   H6R21401   5.169   2.682   4.472  2.6025 -0.2011 -0.5248
  186POPC   H6S21402   5.084   2.838   4.449  0.8333  0.2047 -2.4977
  186POPC   C2721403   5.218   2.827   4.627  0.1744 -0.0077  0.1324
  186POPC   H7R21404   5.253   2.932   4.630 -0.1200  0.0744  0.7456
  186POPC   H7S21405   5.299   2.758   4.658  0.6613 -0.1410 -1.3630
  186POPC   C2821406   5.099   2.813   4.722 -0.4182 -0.1867 -0.4014
  186POPC   H8R21407   5.134   2.795   4.826  1.5475 -0.8920 -1.1264
  186POPC   H8S21408   5.052   2.714   4.703 -2.1366  0.1021  1.9435
  186POPC   C2921409   5.007   2.928   4.714 -0.2605 -0.0238  0.0577
  186POPC   H9121410   4.926   2.916   4.639 -1.4259 -0.0618  1.2874
  186POPC  C21021411   4.989   3.024   4.805  0.2187  0.9771  0.4784
  186POPC  H10121412   4.916   3.105   4.793  1.7289  2.1462 -1.5017
  186POPC  C21121413   5.091   3.047   4.917  0.2300 -0.7201  0.1554
  186POPC  H11R21414   5.113   3.155   4.932 -1.3244 -0.4413  0.6238
  186POPC  H11S21415   5.184   2.985   4.915  1.4959  0.9739  2.0912
  186POPC  C21221416   5.029   3.014   5.057  0.0165  0.2839 -0.9401
  186POPC  H12R21417   4.997   2.908   5.062 -1.0871  0.6290 -0.3065
  186POPC  H12S21418   4.942   3.080   5.079  0.9007  2.0838 -2.5379
  186POPC  C21321419   5.135   3.034   5.168  0.1638 -0.4989 -0.3898
  186POPC  H13R21420   5.169   3.139   5.161 -1.1168 -0.1954 -3.1934
  186POPC  H13S21421   5.213   2.955   5.179  0.7033  0.0001 -0.6213
  186POPC  C21421422   5.060   3.038   5.305 -0.4913  0.3309  0.6449
  186POPC  H14R21423   5.006   2.944   5.331  2.0889 -0.9104  2.0032
  186POPC  H14S21424   4.996   3.128   5.299  1.5667  1.9379  1.4123
  186POPC  C21521425   5.138   3.088   5.423  0.0405  0.2216 -0.1533
  186POPC  H15R21426   5.187   3.185   5.404  1.4439 -0.6663 -1.2407
  186POPC  H15S21427   5.232   3.029   5.418  2.8216  4.3913 -2.9803
  186POPC  C21621428   5.049   3.085   5.550 -0.2719 -0.5481  0.6849
  186POPC  H16R21429   4.983   2.995   5.553 -0.4444 -0.7148 -2.8625
  186POPC  H16S21430   4.980   3.172   5.543 -0.3402 -0.4483  2.2540
  186POPC  C21721431   5.134   3.100   5.675 -0.1851  0.2513 -0.6611
  186POPC  H17R21432   5.200   3.188   5.674  2.6528 -1.6321  2.2905
  186POPC  H17S21433   5.198   3.009   5.680  0.5263  0.6121 -2.5454
  186POPC  C21821434   5.060   3.095   5.816  0.1918 -0.1637 -0.1417
  186POPC  H18R21435   4.997   3.187   5.822  1.6753  0.7852  2.4431
  186POPC  H18S21436   5.004   2.999   5.816  2.1649 -1.3697  0.7024
  186POPC  H18T21437   5.131   3.100   5.901  0.5353 -0.1874 -0.4243
  186POPC   C3321438   4.740   2.566   4.131  0.0035 -0.8426 -0.5226
  186POPC   H3X21439   4.693   2.480   4.184  0.2392 -0.3287  0.5465
  186POPC   H3Y21440   4.647   2.623   4.111  0.1873  0.2291  1.4241
  186POPC   C3421441   4.834   2.641   4.222 -0.1299 -0.8397  0.0205
  186POPC   H4X21442   4.876   2.728   4.167 -0.9536 -0.1226  0.5048
  186POPC   H4Y21443   4.920   2.581   4.260 -1.2845 -1.2939  2.0159
  186POPC   C3521444   4.762   2.689   4.353 -0.1230  0.0755  0.1664
  186POPC   H5X21445   4.842   2.753   4.396 -0.1014 -0.6138  1.1912
  186POPC   H5Y21446   4.746   2.611   4.431 -1.0331  0.7041  0.6194
  186POPC   C3621447   4.643   2.789   4.330 -0.1622  0.5829  0.0236
  186POPC   H6X21448   4.560   2.745   4.271  0.1289  0.0545  0.0001
  186POPC   H6Y21449   4.686   2.864   4.260 -2.1045 -0.6560 -2.6490
  186POPC   C3721450   4.592   2.860   4.458 -1.0259 -0.4910  0.8712
  186POPC   H7X21451   4.686   2.887   4.510  0.4411 -2.4775 -0.6212
  186POPC   H7Y21452   4.536   2.786   4.518  0.1484 -0.8333  1.5808
  186POPC   C3821453   4.508   2.984   4.416  0.2215  0.0021  0.5654
  186POPC   H8X21454   4.423   2.958   4.350  0.9977 -0.5441 -0.2454
  186POPC   H8Y21455   4.570   3.053   4.355  0.1262 -0.8490 -0.5218
  186POPC   C3921456   4.462   3.054   4.546 -0.1975  0.3069  0.4611
  186POPC   H9X21457   4.379   2.994   4.590  0.9143 -0.7194  1.2084
  186POPC   H9Y21458   4.418   3.153   4.518  1.0742  0.2891 -1.7988
  186POPC  C31021459   4.573   3.070   4.656 -0.3934 -0.2688  0.2860
  186POPC  H10X21460   4.670   3.092   4.607 -0.4756 -0.6092 -0.0330
  186POPC  H10Y21461   4.598   2.973   4.704  0.6810  0.2447  0.7740
  186POPC  C31121462   4.531   3.183   4.754  0.5009 -0.0993  0.4814
  186POPC  H11X21463   4.437   3.148   4.801  0.2305 -0.5853 -0.4176
  186POPC  H11Y21464   4.518   3.273   4.691  2.5933  0.5567  0.9098
  186POPC  C31221465   4.625   3.204   4.870  0.5434  0.1851  0.1431
  186POPC  H12X21466   4.727   3.208   4.826  0.5738 -2.5876 -0.2338
  186POPC  H12Y21467   4.616   3.111   4.929 -1.0850  0.9011  1.0858
  186POPC  C31321468   4.598   3.316   4.968 -0.4021  0.4203  0.1023
  186POPC  H13X21469   4.503   3.290   5.020  0.4483 -0.9784  1.0387
  186POPC  H13Y21470   4.587   3.407   4.906 -1.0483 -0.3230 -0.9191
  186POPC  C31421471   4.718   3.320   5.069 -0.0139 -0.0364  0.3647
  186POPC  H14X21472   4.816   3.352   5.026  0.6657 -1.1192  1.0789
  186POPC  H14Y21473   4.722   3.212   5.091 -1.2947 -0.1219  0.2164
  186POPC  C31521474   4.698   3.384   5.201  0.2282 -0.1168  1.5855
  186POPC  H15X21475   4.592   3.368   5.230  0.7614  0.5291  4.1712
  186POPC  H15Y21476   4.724   3.492   5.194  1.4904 -0.4968 -2.8630
  186POPC  C31621477   4.788   3.314   5.302 -0.0727 -0.4624  0.5475
  186POPC  H16X21478   4.753   3.209   5.316 -1.7505  0.2423  2.1217
  186POPC  H16Y21479   4.786   3.354   5.406  0.9199  0.6794  0.1418
  186POPC  H16Z21480   4.894   3.314   5.271  0.1370  0.0713  1.2260
  187POPC     N21481   3.930   6.798   2.527  0.0035 -0.1610  0.1304
  187POPC   C1221482   3.866   6.879   2.643  0.0452 -0.0794 -0.5423
  187POPC  H12A21483   3.776   6.927   2.610 -1.3748 -2.8308 -0.9563
  187POPC  H12B21484   3.933   6.962   2.661 -1.7722  1.3725 -0.1712
  187POPC   C1321485   3.859   6.685   2.472  0.2056  0.1967 -0.4007
  187POPC  H13A21486   3.763   6.705   2.426  0.0841 -0.6693 -0.5434
  187POPC  H13B21487   3.914   6.630   2.396 -0.8625  1.4539 -2.1652
  187POPC  H13C21488   3.838   6.620   2.556 -2.5658 -1.3040 -2.0983
  187POPC   C1421489   3.956   6.896   2.415 -0.0200  0.2117  0.3878
  187POPC  H14A21490   3.863   6.944   2.386 -0.4778 -0.8519  0.0516
  187POPC  H14B21491   4.019   6.972   2.459  1.2860 -0.4137 -0.3442
  187POPC  H14C21492   4.020   6.848   2.343  0.7473 -0.3637  1.4109
  187POPC   C1521493   4.059   6.747   2.570  0.6080  0.0596 -0.4300
  187POPC  H15A21494   4.103   6.696   2.486  0.7574  0.6993 -0.7459
  187POPC  H15B21495   4.043   6.667   2.642  0.3280  0.4227 -0.0809
  187POPC  H15C21496   4.122   6.819   2.621  0.3922  0.5458 -0.8452
  187POPC   C1121497   3.839   6.811   2.775 -0.5114 -0.6250 -0.0169
  187POPC  H11A21498   3.832   6.888   2.854  2.4013 -1.3599  1.0948
  187POPC  H11B21499   3.928   6.751   2.805 -1.1279 -0.7047  1.7148
  187POPC     P21500   3.582   6.781   2.797 -0.0872 -0.2325 -0.1502
  187POPC   O1321501   3.477   6.675   2.777 -0.1786  0.3455  0.3160
  187POPC   O1421502   3.558   6.911   2.729  0.0059 -0.3633 -0.6951
  187POPC   O1221503   3.726   6.728   2.761 -0.3075 -0.0906 -0.3354
  187POPC   O1121504   3.598   6.820   2.954  0.0316 -0.6192  0.5691
  187POPC    C121505   3.671   6.733   3.039 -0.0478  0.5029 -0.3093
  187POPC    HA21506   3.778   6.740   3.011 -0.6003  1.9518 -2.2393
  187POPC    HB21507   3.622   6.633   3.033 -1.3925  1.0317  1.0919
  187POPC    C221508   3.673   6.779   3.189  0.3377  0.9081  0.0594
  187POPC    HS21509   3.764   6.737   3.237  0.4110  1.6184  0.5445
  187POPC   O2121510   3.550   6.730   3.254 -0.1331  0.0691 -0.1399
  187POPC   C2121511   3.559   6.603   3.290  0.2431 -0.1459 -0.0513
  187POPC   O2221512   3.651   6.528   3.274  0.1250  0.0608  0.6420
  187POPC   C2221513   3.427   6.567   3.359  0.3543 -0.4189 -0.1556
  187POPC   H2R21514   3.376   6.499   3.288 -2.6952  1.0322  0.4594
  187POPC   H2S21515   3.374   6.661   3.385 -0.8773 -1.3129  0.6624
  187POPC    C321516   3.685   6.933   3.197  0.3346  0.1054  1.3225
  187POPC    HX21517   3.595   6.967   3.143  1.1469 -0.6215 -0.5667
  187POPC    HY21518   3.775   6.968   3.140 -0.6538 -0.7985 -0.8992
  187POPC   O3121519   3.686   6.975   3.328 -0.1093 -0.0374  0.3559
  187POPC   C3121520   3.789   7.026   3.401 -0.4617 -0.4896 -0.0904
  187POPC   O3221521   3.895   7.067   3.357 -0.2875  0.5349  0.1203
  187POPC   C3221522   3.752   7.022   3.550  0.1678  0.1005  0.6989
  187POPC   H2X21523   3.747   6.916   3.585 -0.3183  0.3399  1.3927
  187POPC   H2Y21524   3.647   7.059   3.556  0.4105  0.8180  0.6223
  187POPC   C2321525   3.456   6.501   3.498  0.3842  0.1895  0.1960
  187POPC   H3R21526   3.507   6.404   3.478 -0.0686  0.1277 -0.7109
  187POPC   H3S21527   3.359   6.464   3.536  0.9996 -1.0053  0.6804
  187POPC   C2421528   3.532   6.580   3.598  0.3411 -0.1012 -0.0503
  187POPC   H4R21529   3.531   6.688   3.574 -1.6982  0.0574  0.5130
  187POPC   H4S21530   3.637   6.545   3.596 -0.6390 -3.3344 -1.9057
  187POPC   C2521531   3.465   6.550   3.732  0.2605 -0.1319 -1.0811
  187POPC   H5R21532   3.469   6.442   3.754  1.2890 -0.0906 -1.0130
  187POPC   H5S21533   3.357   6.576   3.721 -0.1920  0.5981  3.4036
  187POPC   C2621534   3.506   6.636   3.856 -1.0935  0.1948  0.1062
  187POPC   H6R21535   3.432   6.612   3.935 -1.0584  0.4652  0.2253
  187POPC   H6S21536   3.500   6.742   3.823  0.6472  0.4368  0.4347
  187POPC   C2721537   3.656   6.618   3.899  0.3752 -0.4719 -0.9991
  187POPC   H7R21538   3.710   6.702   3.849  0.4615 -1.0577 -1.9098
  187POPC   H7S21539   3.691   6.522   3.856  1.2234 -0.4681 -0.3406
  187POPC   C2821540   3.667   6.620   4.055  0.2576  0.6890 -0.2314
  187POPC   H8R21541   3.773   6.594   4.075 -0.6322 -2.0054  1.5071
  187POPC   H8S21542   3.600   6.552   4.111  1.2666  1.7396  2.3646
  187POPC   C2921543   3.636   6.765   4.087  0.0747  1.0140  0.0997
  187POPC   H9121544   3.531   6.795   4.068 -0.4343 -0.9066 -0.3164
  187POPC  C21021545   3.725   6.854   4.139 -0.6417 -0.9727  0.4480
  187POPC  H10121546   3.694   6.958   4.156  0.4396 -0.6998  0.8318
  187POPC  C21121547   3.861   6.831   4.199  0.0024 -0.4606 -0.3382
  187POPC  H11R21548   3.935   6.876   4.130 -0.6022  0.9349 -0.1214
  187POPC  H11S21549   3.891   6.725   4.188  2.1699 -0.0279  0.7641
  187POPC  C21221550   3.873   6.876   4.343 -0.3287 -0.3766  0.1243
  187POPC  H12R21551   3.972   6.845   4.384 -0.2421  1.4711  1.3919
  187POPC  H12S21552   3.804   6.819   4.410  0.1502 -2.0031 -0.7083
  187POPC  C21321553   3.844   7.020   4.383  0.5899  0.0644 -0.2999
  187POPC  H13R21554   3.735   7.040   4.372  0.0720 -1.5329  1.4448
  187POPC  H13S21555   3.899   7.089   4.315  0.4927  1.4251  0.9396
  187POPC  C21421556   3.884   7.044   4.531  0.2077  0.4566  0.1555
  187POPC  H14R21557   3.989   7.009   4.544  0.2938  0.4653 -0.4752
  187POPC  H14S21558   3.826   6.979   4.600  2.2727 -0.7828  0.8191
  187POPC  C21521559   3.858   7.183   4.578 -0.4225  0.2620 -0.0872
  187POPC  H15R21560   3.751   7.209   4.559 -0.4156  0.1879 -0.2280
  187POPC  H15S21561   3.927   7.249   4.521  0.8506 -1.7344 -0.9414
  187POPC  C21621562   3.882   7.207   4.730  0.2564  0.5100  0.8712
  187POPC  H16R21563   3.823   7.123   4.772 -0.0571  1.2469  1.9676
  187POPC  H16S21564   3.842   7.308   4.755  1.3598  0.8263  1.4501
  187POPC  C21721565   4.030   7.202   4.769 -0.8841  0.4864 -0.1845
  187POPC  H17R21566   4.082   7.293   4.733  1.3441  0.3492  2.3004
  187POPC  H17S21567   4.086   7.118   4.723 -2.6832 -0.5309 -0.6204
  187POPC  C21821568   4.046   7.198   4.925  0.5427  0.7760 -0.0255
  187POPC  H18R21569   4.010   7.290   4.974 -0.6289 -0.3857  1.3864
  187POPC  H18S21570   4.154   7.188   4.950  0.6633  1.0042 -0.4364
  187POPC  H18T21571   3.989   7.114   4.970 -0.8399  1.9544  0.4652
  187POPC   C3321572   3.835   7.119   3.630  0.1256 -0.1119 -0.0739
  187POPC   H3X21573   3.795   7.222   3.619 -0.1980 -0.3362 -1.1135
  187POPC   H3Y21574   3.941   7.124   3.598  0.8317  0.5048  2.1511
  187POPC   C3421575   3.827   7.108   3.786  0.4217  0.5569  0.5834
  187POPC   H4X21576   3.885   7.017   3.814  2.4113  1.6990  0.4208
  187POPC   H4Y21577   3.726   7.107   3.832  0.1599 -2.8867  0.1664
  187POPC   C3521578   3.914   7.216   3.857  0.3883 -0.1875 -0.0406
  187POPC   H5X21579   3.896   7.319   3.819 -0.6432 -0.1721  0.4467
  187POPC   H5Y21580   4.022   7.199   3.842  0.5860  0.1041  0.9985
  187POPC   C3621581   3.889   7.194   4.010 -1.5675  0.3684 -0.1962
  187POPC   H6X21582   3.909   7.087   4.031 -0.6040  0.8674  1.6337
  187POPC   H6Y21583   3.783   7.215   4.037 -1.3330  1.1199  0.1755
  187POPC   C3721584   3.982   7.288   4.092 -0.0217 -0.3778 -0.5926
  187POPC   H7X21585   4.087   7.276   4.059  0.3206  2.6672 -0.9317
  187POPC   H7Y21586   3.982   7.259   4.199 -1.1241  1.9617  0.1241
  187POPC   C3821587   3.951   7.443   4.079  0.1786  0.4698  0.6896
  187POPC   H8X21588   3.841   7.456   4.093 -0.2561 -1.4121 -0.6576
  187POPC   H8Y21589   3.981   7.470   3.976  1.0717 -1.5082  0.3846
  187POPC   C3921590   4.030   7.520   4.184  0.6008  0.5572  0.8038
  187POPC   H9X21591   4.052   7.627   4.165 -1.5311  0.6576 -1.7803
  187POPC   H9Y21592   4.128   7.468   4.182  0.2409 -0.2164  2.1181
  187POPC  C31021593   3.969   7.511   4.321 -0.5880 -0.3701 -0.4469
  187POPC  H10X21594   3.955   7.408   4.362 -1.4112  0.3529  1.1690
  187POPC  H10Y21595   3.879   7.576   4.327 -1.5783 -1.7804  0.8950
  187POPC  C31121596   4.053   7.569   4.436 -0.3992  0.4224 -0.1230
  187POPC  H11X21597   4.083   7.673   4.408 -1.3593  0.9053  0.6099
  187POPC  H11Y21598   4.149   7.513   4.443  0.7637  2.4629  1.2407
  187POPC  C31221599   3.981   7.587   4.567 -0.0173 -0.0099 -0.1928
  187POPC  H12X21600   3.949   7.487   4.603 -1.3412 -0.0461 -1.3672
  187POPC  H12Y21601   3.889   7.646   4.542 -0.6168 -1.3046 -1.1529
  187POPC  C31321602   4.075   7.658   4.666  1.3242 -0.0758  0.4247
  187POPC  H13X21603   4.101   7.760   4.631  0.7105  0.5220  1.6332
  187POPC  H13Y21604   4.173   7.606   4.661  0.9909 -0.5786 -1.8569
  187POPC  C31421605   4.024   7.665   4.812  0.0888 -0.1959  0.2925
  187POPC  H14X21606   4.099   7.720   4.872  0.1223  1.0012 -0.7826
  187POPC  H14Y21607   4.013   7.561   4.849 -0.4406 -0.5131 -0.6999
  187POPC  C31521608   3.891   7.748   4.825 -0.3700 -0.2301 -0.9219
  187POPC  H15X21609   3.824   7.699   4.752  0.1174  0.9308 -2.1903
  187POPC  H15Y21610   3.921   7.847   4.786 -0.9167 -0.0051 -0.7825
  187POPC  C31621611   3.837   7.760   4.966  0.0040 -0.6087 -0.5897
  187POPC  H16X21612   3.835   7.663   5.019  1.1937 -0.5897 -0.4926
  187POPC  H16Y21613   3.733   7.799   4.964  0.5303  0.9748  0.4916
  187POPC  H16Z21614   3.902   7.832   5.021 -0.4811 -0.6166  0.0142
  188POPC     N21615   5.046   1.100   3.040  0.2834  0.1636  0.9949
  188POPC   C1221616   4.993   1.184   3.157 -0.2246 -0.4051 -0.3385
  188POPC  H12A21617   5.044   1.279   3.156  0.9974 -1.0462  0.1091
  188POPC  H12B21618   5.022   1.139   3.250  1.2337 -1.1074 -1.1005
  188POPC   C1321619   5.056   1.195   2.920  0.3545 -0.6020  0.4544
  188POPC  H13A21620   5.094   1.289   2.958 -0.8596  0.4637 -0.8694
  188POPC  H13B21621   5.125   1.167   2.842  0.4972  1.4248 -0.1910
  188POPC  H13C21622   4.960   1.219   2.878  0.1333  1.0543  1.8142
  188POPC   C1421623   5.177   1.043   3.076  0.1167  0.3519  0.2253
  188POPC  H14A21624   5.241   1.108   3.134  4.0553 -2.5159 -0.4536
  188POPC  H14B21625   5.167   0.957   3.141  0.0437 -0.1120 -0.3876
  188POPC  H14C21626   5.235   1.027   2.986 -0.4520  1.4794 -0.3608
  188POPC   C1521627   4.952   0.987   3.001  0.2709  0.2829 -0.2886
  188POPC  H15A21628   4.992   0.929   2.919  1.2201  0.4198  0.0589
  188POPC  H15B21629   4.853   1.018   2.972 -1.0040  0.6097  3.7636
  188POPC  H15C21630   4.952   0.922   3.088  2.8658  1.2300  0.5202
  188POPC   C1121631   4.831   1.215   3.154 -0.9357 -0.5106 -0.2277
  188POPC  H11A21632   4.807   1.256   3.254  0.7233  1.0627 -0.4196
  188POPC  H11B21633   4.783   1.116   3.135  0.7888 -2.0304  2.5593
  188POPC     P21634   4.824   1.456   3.073 -0.3339 -0.1606  0.0358
  188POPC   O1321635   4.758   1.539   2.976  0.2992 -0.2027 -0.5345
  188POPC   O1421636   4.972   1.472   3.089  0.6428  0.0869  0.4811
  188POPC   O1221637   4.798   1.303   3.049 -0.2238  0.0827 -0.3891
  188POPC   O1121638   4.754   1.476   3.212 -0.4527 -0.9156 -0.6393
  188POPC    C121639   4.610   1.452   3.215 -0.3286 -0.3321  0.2890
  188POPC    HA21640   4.587   1.347   3.243  0.5671 -0.4571  0.6045
  188POPC    HB21641   4.567   1.469   3.114 -0.2727 -3.3388 -0.3374
  188POPC    C221642   4.550   1.549   3.315  0.2078 -0.6044 -0.3372
  188POPC    HS21643   4.574   1.648   3.270  0.0898  0.2820  1.4633
  188POPC   O2121644   4.597   1.514   3.442  0.0823  0.3075 -0.3264
  188POPC   C2121645   4.626   1.619   3.527 -0.3780 -0.3387 -0.1188
  188POPC   O2221646   4.620   1.733   3.488  0.0227  0.3847 -0.1691
  188POPC   C2221647   4.688   1.586   3.663  0.1806  0.4265  0.3886
  188POPC   H2R21648   4.797   1.577   3.645  0.2251  1.3686  0.1550
  188POPC   H2S21649   4.659   1.482   3.690 -0.6029  1.0988  2.3426
  188POPC    C321650   4.397   1.540   3.324 -0.3011  0.0487 -0.3898
  188POPC    HX21651   4.375   1.437   3.359  2.7455 -0.7994 -0.7212
  188POPC    HY21652   4.347   1.560   3.226 -1.5991  0.7265  0.3773
  188POPC   O3121653   4.348   1.635   3.426  0.1063  0.1362  0.0584
  188POPC   C3121654   4.311   1.758   3.379 -0.4474 -0.2932  0.3702
  188POPC   O3221655   4.320   1.797   3.262  0.0613  0.3117  0.0401
  188POPC   C3221656   4.230   1.830   3.488 -0.8794  0.1421 -0.0921
  188POPC   H2X21657   4.273   1.801   3.587  0.4993  2.0335 -0.0648
  188POPC   H2Y21658   4.129   1.784   3.488 -0.5512 -0.5967 -0.5596
  188POPC   C2321659   4.662   1.688   3.769  0.3767  0.5011  0.1603
  188POPC   H3R21660   4.562   1.736   3.777  0.7090  1.6060 -1.6318
  188POPC   H3S21661   4.727   1.775   3.744  0.4680  0.6022  0.7237
  188POPC   C2421662   4.692   1.634   3.912 -0.1291 -0.1455 -0.8974
  188POPC   H4R21663   4.785   1.571   3.913  0.3260  0.3982 -3.4021
  188POPC   H4S21664   4.609   1.566   3.939  0.0524 -0.3765 -0.9149
  188POPC   C2521665   4.690   1.748   4.029  0.1888  0.1100  0.1203
  188POPC   H5R21666   4.590   1.796   4.023 -0.7331 -0.8152  4.7054
  188POPC   H5S21667   4.769   1.825   4.020  0.8814 -0.5675  0.3682
  188POPC   C2621668   4.712   1.690   4.175 -0.0377 -0.0232  0.1000
  188POPC   H6R21669   4.813   1.645   4.182  0.6740  1.0819 -2.1672
  188POPC   H6S21670   4.642   1.607   4.198 -0.5538  0.2324 -0.5312
  188POPC   C2721671   4.689   1.800   4.284 -0.1874 -0.0360  0.7172
  188POPC   H7R21672   4.586   1.842   4.276 -0.3054 -0.5440 -0.7928
  188POPC   H7S21673   4.756   1.885   4.260 -0.0618 -0.7476 -1.7935
  188POPC   C2821674   4.718   1.755   4.427  0.9494  0.9201 -0.0738
  188POPC   H8R21675   4.713   1.842   4.497  0.2428  1.0851 -0.3236
  188POPC   H8S21676   4.808   1.690   4.428  0.4547  0.2071  1.9937
  188POPC   C2921677   4.606   1.670   4.466  0.4841 -0.3083  1.1092
  188POPC   H9121678   4.591   1.592   4.389  0.0832  0.1777  0.6825
  188POPC  C21021679   4.532   1.659   4.573  0.3987 -0.2257  0.4234
  188POPC  H10121680   4.461   1.576   4.579 -1.0886  0.9448 -0.3906
  188POPC  C21121681   4.561   1.742   4.691  0.5091  0.3991 -0.5796
  188POPC  H11R21682   4.655   1.801   4.683 -0.9315  3.3802  2.2619
  188POPC  H11S21683   4.571   1.678   4.780 -0.2942  1.4111  0.2664
  188POPC  C21221684   4.457   1.856   4.704 -0.2196 -0.3300 -0.2157
  188POPC  H12R21685   4.353   1.817   4.709  0.0194 -0.7992  2.6001
  188POPC  H12S21686   4.467   1.923   4.616  0.3995 -0.3120 -0.1318
  188POPC  C21321687   4.494   1.935   4.837  0.1699  0.0576 -0.4167
  188POPC  H13R21688   4.601   1.965   4.822  1.0625 -2.3694  0.6519
  188POPC  H13S21689   4.499   1.858   4.917  0.2148 -1.7439 -2.0807
  188POPC  C21421690   4.397   2.046   4.878 -0.9135 -0.2514 -0.1683
  188POPC  H14R21691   4.309   2.000   4.929  0.9646 -1.4859  2.1540
  188POPC  H14S21692   4.353   2.092   4.788  0.2733 -1.7929 -1.5890
  188POPC  C21521693   4.463   2.155   4.965 -0.0869  0.1732  0.4776
  188POPC  H15R21694   4.378   2.222   4.987 -1.0913 -0.9695  0.1453
  188POPC  H15S21695   4.544   2.211   4.912 -0.4861  1.4082  1.1505
  188POPC  C21621696   4.513   2.098   5.099  0.1316  0.0394  0.0597
  188POPC  H16R21697   4.597   2.026   5.088  1.1982  1.0338  1.4695
  188POPC  H16S21698   4.427   2.047   5.148 -1.7270  1.2970 -1.7243
  188POPC  C21721699   4.587   2.204   5.180  0.0233 -0.4036  0.1698
  188POPC  H17R21700   4.520   2.291   5.202  1.3875  0.8765 -0.5533
  188POPC  H17S21701   4.661   2.246   5.109  0.8190  1.1200  1.8239
  188POPC  C21821702   4.654   2.151   5.305 -0.8960 -0.5919 -0.3983
  188POPC  H18R21703   4.710   2.056   5.291 -2.1302 -1.4361  0.2029
  188POPC  H18S21704   4.584   2.139   5.390 -0.2379  0.5965  0.3395
  188POPC  H18T21705   4.714   2.239   5.335 -2.8612  1.1416 -1.3015
  188POPC   C3321706   4.232   1.982   3.473  0.2293  0.1116 -0.3165
  188POPC   H3X21707   4.177   2.015   3.564  1.6033 -1.2604  1.0852
  188POPC   H3Y21708   4.160   1.998   3.390  0.4049 -0.1097 -0.5138
  188POPC   C3421709   4.368   2.044   3.448  0.5671 -0.1160  0.3697
  188POPC   H4X21710   4.344   2.153   3.448 -2.5478 -0.7282  0.2903
  188POPC   H4Y21711   4.408   2.021   3.347  0.9201 -0.5429  0.5993
  188POPC   C3521712   4.471   2.013   3.558  0.7903  0.0971  0.5636
  188POPC   H5X21713   4.572   2.033   3.515  0.0462 -0.0149 -1.3340
  188POPC   H5Y21714   4.459   1.908   3.590 -2.4725  0.3313  0.3919
  188POPC   C3621715   4.447   2.095   3.680 -0.2724  0.0141  0.2375
  188POPC   H6X21716   4.345   2.081   3.721 -0.6654  1.4954 -0.1637
  188POPC   H6Y21717   4.446   2.203   3.651 -0.3070 -0.2377 -0.7559
  188POPC   C3721718   4.559   2.076   3.783 -0.7935  0.2204  0.3332
  188POPC   H7X21719   4.657   2.116   3.750  0.8026 -1.7565  2.4052
  188POPC   H7Y21720   4.581   1.971   3.811 -1.2865  0.3934  1.4123
  188POPC   C3821721   4.521   2.153   3.905 -0.3758 -0.2862  0.4971
  188POPC   H8X21722   4.415   2.132   3.931 -0.5303  0.9331  0.9545
  188POPC   H8Y21723   4.502   2.262   3.894  0.2253  0.1046  2.7271
  188POPC   C3921724   4.625   2.138   4.016 -0.0952  0.3239  0.0540
  188POPC   H9X21725   4.712   2.193   3.974 -1.3449  0.3504 -2.6708
  188POPC   H9Y21726   4.652   2.031   4.029 -1.1286  0.1588  1.0081
  188POPC  C31021727   4.561   2.184   4.147 -0.3197  0.0456  0.0341
  188POPC  H10X21728   4.495   2.106   4.190  0.9914 -0.8666  0.4535
  188POPC  H10Y21729   4.509   2.280   4.128  1.3123  0.8093 -0.8004
  188POPC  C31121730   4.669   2.206   4.253 -0.2896  0.9589  0.1654
  188POPC  H11X21731   4.734   2.292   4.224  1.5359 -0.5925 -0.5458
  188POPC  H11Y21732   4.741   2.121   4.258  0.6886  1.7443 -0.0682
  188POPC  C31221733   4.616   2.234   4.394 -0.1165 -0.4664 -0.0542
  188POPC  H12X21734   4.551   2.153   4.433 -0.6576 -1.2339 -2.4020
  188POPC  H12Y21735   4.545   2.320   4.394  1.0998  0.6618 -2.8303
  188POPC  C31321736   4.732   2.270   4.479 -0.0940 -0.4521 -0.4570
  188POPC  H13X21737   4.776   2.366   4.444  1.1933 -1.4822 -1.8465
  188POPC  H13Y21738   4.819   2.200   4.473  2.3543  2.5109 -1.9696
  188POPC  C31421739   4.695   2.300   4.627 -0.9689  0.5989  0.3348
  188POPC  H14X21740   4.641   2.210   4.664  0.9908 -0.5429  0.6137
  188POPC  H14Y21741   4.625   2.386   4.626 -0.3472  1.1168  0.6677
  188POPC  C31521742   4.812   2.331   4.718 -0.3181  0.0224 -0.8043
  188POPC  H15X21743   4.895   2.258   4.707  0.1334  0.2404  0.7434
  188POPC  H15Y21744   4.782   2.317   4.824  0.7690  0.0401 -0.4733
  188POPC  C31621745   4.880   2.469   4.700 -0.1218 -0.1963  0.4058
  188POPC  H16X21746   4.808   2.546   4.735  0.0850 -0.3425  1.1778
  188POPC  H16Y21747   4.919   2.490   4.598  1.1223  0.3433  0.9689
  188POPC  H16Z21748   4.963   2.482   4.772 -0.0275 -0.4666  0.3482
  189SAPI   C1221749   3.238   6.062   7.102 -0.0406 -0.1120 -0.7758
  189SAPI    H221750   3.241   6.008   7.005 -0.9624  0.8370 -1.3511
  189SAPI    O221751   3.371   6.076   7.151 -0.1922  0.5360 -0.1710
  189SAPI   HO221752   3.392   5.995   7.199  2.9325  2.2319  1.6352
  189SAPI   C1321753   3.167   6.193   7.077 -0.3176  0.4081 -0.3946
  189SAPI    H321754   3.064   6.161   7.051 -0.5141 -0.3963  1.2112
  189SAPI    O321755   3.215   6.268   6.966 -0.1030 -0.0823 -0.8264
  189SAPI   HO321756   3.308   6.291   6.974 -0.2330  0.1130  0.2694
  189SAPI   C1421757   3.163   6.271   7.200 -0.1675  0.2515 -0.6900
  189SAPI    H421758   3.267   6.309   7.217 -0.1304  0.9857 -2.3126
  189SAPI    O421759   3.084   6.391   7.187  0.5708 -0.5345 -0.2759
  189SAPI   HO421760   3.086   6.421   7.096  0.6515 -0.4766 -0.2552
  189SAPI   C1521761   3.119   6.198   7.329 -0.7966 -0.5291 -0.4622
  189SAPI    H521762   3.008   6.196   7.330 -0.9483  2.2714  1.6807
  189SAPI    O521763   3.165   6.268   7.447  0.4868  0.0456  0.2912
  189SAPI   HO521764   3.095   6.325   7.479  1.6058  2.9360 -1.9827
  189SAPI   C1621765   3.153   6.052   7.337  0.2214  0.7383  0.0783
  189SAPI    H621766   3.254   6.042   7.384 -0.7174  4.7309  3.5158
  189SAPI    O621767   3.060   5.985   7.420 -0.2182  0.1203 -0.0758
  189SAPI   HO621768   3.065   5.895   7.387  0.3049  0.6279 -1.4486
  189SAPI   C1121769   3.160   5.981   7.205 -0.1722 -0.9481 -0.7534
  189SAPI    H121770   3.054   5.972   7.173 -0.0057  0.7469 -1.8868
  189SAPI     P21771   3.178   5.710   7.266 -0.2278 -0.3939 -0.1614
  189SAPI   O1321772   3.086   5.736   7.381  0.0757 -0.4320  0.2352
  189SAPI   O1421773   3.300   5.629   7.295 -0.6065  0.0476 -0.1189
  189SAPI   O1221774   3.229   5.859   7.216 -0.0283  0.6715 -0.4138
  189SAPI   O1121775   3.097   5.653   7.150 -0.0802  0.5135 -0.1633
  189SAPI    C121776   3.115   5.660   7.010  0.6327  0.3273 -0.1198
  189SAPI    HA21777   3.025   5.687   6.950  1.7149 -0.9660 -2.4580
  189SAPI    HB21778   3.189   5.741   6.993  0.6489  0.8567  2.1465
  189SAPI    C221779   3.166   5.529   6.954  0.0578 -0.6831  0.6013
  189SAPI    HS21780   3.244   5.487   7.021  1.5185  1.8876  0.6218
  189SAPI   O2121781   3.216   5.565   6.825 -0.6929 -0.3508  0.2601
  189SAPI   C2121782   3.276   5.474   6.759  0.1086 -0.4125 -0.3200
  189SAPI   O2221783   3.315   5.367   6.806 -0.0263  0.2417  0.2159
  189SAPI   C2221784   3.283   5.518   6.615  0.1388 -0.0025  0.3003
  189SAPI   H2R21785   3.321   5.622   6.608  2.5465 -0.8845 -0.9268
  189SAPI   H2S21786   3.351   5.458   6.551  0.4928 -2.0600  2.4794
  189SAPI    C321787   3.055   5.424   6.956  0.5133 -0.2732  0.0058
  189SAPI    HX21788   3.023   5.425   7.062  1.0938  1.9824  0.2189
  189SAPI    HY21789   3.081   5.327   6.909  0.8408  0.8136 -2.2107
  189SAPI   O3121790   2.943   5.479   6.882  0.3841 -0.3683  0.7181
  189SAPI   C3121791   2.841   5.392   6.867  0.2612 -0.5602 -0.0289
  189SAPI   O3221792   2.849   5.277   6.903 -0.1879 -0.0239 -0.6638
  189SAPI   C3221793   2.731   5.455   6.779 -0.2303 -0.1542  0.8962
  189SAPI   H2X21794   2.713   5.559   6.814  2.8496  1.4885 -1.8176
  189SAPI   H2Y21795   2.644   5.391   6.801  0.0218 -0.4102  1.1545
  189SAPI   C2321796   3.142   5.517   6.546 -0.7391  0.4265 -0.0865
  189SAPI   H3R21797   3.087   5.594   6.604  0.5545  0.5066  1.0802
  189SAPI   H3S21798   3.093   5.419   6.564  1.1710 -0.4706  0.4732
  189SAPI   C2421799   3.140   5.547   6.392 -0.3122  0.6054 -0.2609
  189SAPI   H4R21800   3.213   5.626   6.365  1.3271 -1.6428 -3.1107
  189SAPI   H4S21801   3.039   5.583   6.365 -0.4974  0.5914  0.4077
  189SAPI   C2521802   3.177   5.425   6.301 -0.3343  0.3918  0.7346
  189SAPI   H5R21803   3.099   5.347   6.299  2.0576 -2.1531  0.6740
  189SAPI   C2621804   3.287   5.411   6.220  0.3468  0.2607  0.0433
  189SAPI   H6R21805   3.306   5.327   6.150  1.8711  0.7102 -0.1235
  189SAPI   C2721806   3.404   5.497   6.206 -0.2628  0.1460  0.4709
  189SAPI   H7R21807   3.386   5.589   6.266  0.3267 -0.1451  1.1035
  189SAPI   H7S21808   3.394   5.542   6.105  0.9711  1.0158  0.7262
  189SAPI   C2821809   3.546   5.441   6.233  0.3331 -0.4123 -0.2439
  189SAPI   H8R21810   3.584   5.456   6.335 -0.2902  2.0045 -0.3269
  189SAPI   C2921811   3.625   5.379   6.145 -0.1023 -0.1038  0.0225
  189SAPI   H9R21812   3.730   5.354   6.164 -0.6085 -1.9125  0.6143
  189SAPI  C21021813   3.594   5.356   6.005  0.5913  0.4235 -0.1952
  189SAPI  H10R21814   3.485   5.338   6.002  0.6902 -0.3518  0.4025
  189SAPI  H10S21815   3.633   5.255   5.983 -0.9470 -0.2149 -0.0671
  189SAPI  C21121816   3.641   5.456   5.897 -0.4821  0.6097 -0.3186
  189SAPI  H11R21817   3.661   5.560   5.929 -2.2711  0.7691  0.3873
  189SAPI  C21221818   3.641   5.428   5.767  0.0272 -0.1101 -0.2703
  189SAPI  H12R21819   3.670   5.512   5.703  0.3641 -0.8564 -1.1056
  189SAPI  C21321820   3.606   5.291   5.698  0.0886  0.1365  0.0813
  189SAPI  H13R21821   3.513   5.251   5.744  0.0497  1.1174  0.8824
  189SAPI  H13S21822   3.672   5.208   5.731  0.4557 -0.0156 -1.0155
  189SAPI  C21421823   3.598   5.303   5.548 -0.0872 -0.2483  0.1710
  189SAPI  H14R21824   3.506   5.341   5.501  0.0394  1.4103  1.1950
  189SAPI  C21521825   3.679   5.244   5.457 -0.4576  0.8460 -0.7922
  189SAPI  H15R21826   3.643   5.259   5.354  0.4726  0.4504 -1.1799
  189SAPI  C21621827   3.798   5.156   5.474 -0.7618  0.4151  0.4291
  189SAPI  H16R21828   3.833   5.091   5.391  1.5512  0.7538  1.0837
  189SAPI  H16S21829   3.787   5.082   5.557  0.4810  0.8374  0.9908
  189SAPI  C21721830   3.928   5.241   5.510  0.1347 -0.0350 -0.3148
  189SAPI  H17R21831   4.020   5.179   5.521 -0.8061 -1.1293  1.8731
  189SAPI  H17S21832   3.895   5.293   5.602  0.8826 -0.7333  0.3626
  189SAPI  C21821833   3.952   5.363   5.415  0.3232 -0.0679  0.0858
  189SAPI  H18R21834   3.854   5.409   5.390 -0.6907 -1.2355  1.7330
  189SAPI  H18S21835   4.001   5.317   5.326 -0.0796 -1.1538  0.4003
  189SAPI  C21921836   4.036   5.478   5.474  0.9451 -0.2459 -0.4855
  189SAPI  H19R21837   3.982   5.511   5.565 -0.3942 -2.9517 -0.2016
  189SAPI  H19S21838   4.043   5.559   5.398  2.7812 -0.8726 -1.0291
  189SAPI  C22021839   4.177   5.429   5.510  0.0478  0.3903  0.0493
  189SAPI  H20R21840   4.218   5.387   5.416  0.0789  2.6999 -1.0544
  189SAPI  H20S21841   4.172   5.365   5.601 -0.5986 -1.2674 -1.1156
  189SAPI  H20T21842   4.229   5.523   5.539 -2.6072  1.8946  0.2299
  189SAPI   C3321843   2.770   5.459   6.628  0.2027 -0.5049 -0.4825
  189SAPI   H3X21844   2.807   5.358   6.599 -1.2983 -1.2161 -0.0046
  189SAPI   H3Y21845   2.840   5.540   6.601 -1.7055  2.6707  3.0652
  189SAPI   C3421846   2.650   5.492   6.540 -0.7673 -0.3986  0.1433
  189SAPI   H4X21847   2.610   5.586   6.584 -1.0541  1.3090 -3.4840
  189SAPI   H4Y21848   2.579   5.407   6.545 -0.2795 -0.8257 -0.1041
  189SAPI   C3521849   2.679   5.524   6.392 -0.4943  0.3517  0.3250
  189SAPI   H5X21850   2.744   5.612   6.378  0.8711 -0.6493  0.1297
  189SAPI   H5Y21851   2.582   5.539   6.340  0.4874 -1.4786 -2.2734
  189SAPI   C3621852   2.754   5.416   6.319 -0.5776 -0.1487 -0.0024
  189SAPI   H6X21853   2.701   5.319   6.332 -2.7647  1.1427  1.4749
  189SAPI   H6Y21854   2.853   5.398   6.365 -0.7827 -0.5126  0.3007
  189SAPI   C3721855   2.752   5.453   6.176 -0.0193  0.1323  0.7242
  189SAPI   H7X21856   2.816   5.543   6.169 -1.0806  0.7998 -1.1379
  189SAPI   H7Y21857   2.648   5.475   6.145 -0.0479 -0.9257 -0.0230
  189SAPI   C3821858   2.816   5.340   6.096 -0.1788 -0.3119 -0.7813
  189SAPI   H8X21859   2.767   5.240   6.105  1.3124 -1.0812 -0.9876
  189SAPI   H8Y21860   2.919   5.319   6.130 -0.7260 -1.0493  0.4933
  189SAPI   C3921861   2.829   5.378   5.947  0.3515  0.8202 -0.5452
  189SAPI   H9X21862   2.933   5.417   5.934  1.0342  0.0834  2.0202
  189SAPI   H9Y21863   2.756   5.459   5.930 -1.8684 -0.5039  1.9688
  189SAPI  C31021864   2.807   5.259   5.855 -0.0133  0.6103  0.3040
  189SAPI  H10X21865   2.705   5.214   5.853  0.0608  0.4341  0.4326
  189SAPI  H10Y21866   2.877   5.176   5.879  1.1922  2.2024  2.7591
  189SAPI  C31121867   2.838   5.295   5.710 -0.1305  0.1610  0.4465
  189SAPI  H11X21868   2.947   5.307   5.694  0.0458 -0.8965  0.8043
  189SAPI  H11Y21869   2.789   5.393   5.693 -2.1726 -0.7027  1.0152
  189SAPI  C31221870   2.797   5.194   5.601 -0.2425 -0.0640  0.1561
  189SAPI  H12X21871   2.687   5.178   5.594 -0.4093  0.6906  0.9091
  189SAPI  H12Y21872   2.836   5.095   5.633 -1.0124  0.2755  2.2802
  189SAPI  C31321873   2.839   5.235   5.465  0.1797 -0.5638 -0.0714
  189SAPI  H13X21874   2.949   5.228   5.455  0.4622  0.8937  1.5968
  189SAPI  H13Y21875   2.820   5.344   5.455  0.6155 -0.4724  0.0961
  189SAPI  C31421876   2.762   5.168   5.347 -0.2577  0.0655  0.3302
  189SAPI  H14X21877   2.657   5.152   5.380 -0.5013 -0.8507 -0.7904
  189SAPI  H14Y21878   2.801   5.065   5.330  3.0696  1.4349 -1.4169
  189SAPI  C31521879   2.761   5.248   5.218 -0.2245  0.8096 -0.3894
  189SAPI  H15X21880   2.738   5.356   5.232 -1.2566  0.5473 -0.0018
  189SAPI  H15Y21881   2.681   5.201   5.158  0.8245  1.4040 -2.3333
  189SAPI  C31621882   2.906   5.244   5.152 -0.1590 -0.3272  0.1017
  189SAPI  H16X21883   2.917   5.140   5.114 -2.5618 -1.0463  1.1639
  189SAPI  H16Y21884   2.976   5.267   5.235 -2.3143  2.1579  1.3743
  189SAPI  C31721885   2.927   5.344   5.038  0.4304 -0.0413 -0.3265
  189SAPI  H17X21886   2.900   5.445   5.074 -0.7204 -0.4444 -0.0260
  189SAPI  H17Y21887   2.858   5.313   4.956 -1.0382  0.8002  0.5641
  189SAPI  C31821888   3.068   5.330   4.982 -0.5009 -0.0180 -0.2196
  189SAPI  H18X21889   3.086   5.225   4.950  1.5023 -0.1705  1.1899
  189SAPI  H18Y21890   3.146   5.357   5.057  0.4196 -2.2915 -0.2861
  189SAPI  H18Z21891   3.075   5.404   4.899  0.2813  0.8983  0.6327
  190SAPI   C1221892   3.805   4.835   7.659 -0.1791 -0.1182  0.2365
  190SAPI    H221893   3.882   4.807   7.584  1.6438 -0.4872  2.1656
  190SAPI    O221894   3.880   4.823   7.780  0.3358 -0.3489  0.2078
  190SAPI   HO221895   3.911   4.733   7.793  2.2124  0.5679  2.8926
  190SAPI   C1321896   3.749   4.978   7.638 -0.1537 -0.0492  0.3935
  190SAPI    H321897   3.682   4.989   7.551  1.0858  1.5685 -0.3903
  190SAPI    O321898   3.852   5.071   7.615  0.0826 -0.0008 -0.5683
  190SAPI   HO321899   3.817   5.161   7.611  1.1232  0.4360 -0.1655
  190SAPI   C1421900   3.677   5.017   7.764 -0.2411  1.0686  0.2202
  190SAPI    H421901   3.747   4.998   7.849 -1.1614 -0.8000  0.6309
  190SAPI    O421902   3.639   5.159   7.771 -0.1194  0.9798 -0.5688
  190SAPI   HO421903   3.653   5.185   7.863 -1.8702 -1.4931  0.5291
  190SAPI   C1521904   3.554   4.927   7.790 -0.2059 -0.6237  0.5060
  190SAPI    H521905   3.480   4.943   7.710 -0.7215 -1.6873  0.7416
  190SAPI    O521906   3.485   4.949   7.915 -0.3526  0.1095  0.3606
  190SAPI   HO521907   3.410   5.010   7.912 -1.7714 -1.5747 -1.6788
  190SAPI   C1621908   3.584   4.782   7.766  0.4339 -0.1364  0.2634
  190SAPI    H621909   3.630   4.740   7.858  2.5757 -2.1363 -1.5909
  190SAPI    O621910   3.461   4.719   7.738 -0.1525  0.5417  0.0632
  190SAPI   HO621911   3.472   4.653   7.669 -0.1199  2.4201 -1.8025
  190SAPI   C1121912   3.685   4.742   7.658  0.1354 -0.1553  0.1543
  190SAPI    H121913   3.632   4.755   7.561 -0.8936 -2.7931  0.2914
  190SAPI     P21914   3.670   4.475   7.591 -0.1405  0.2001  0.2532
  190SAPI   O1321915   3.539   4.521   7.547  0.0357 -0.4131  0.1897
  190SAPI   O1421916   3.674   4.352   7.677 -0.2344  0.0076  0.1161
  190SAPI   O1221917   3.737   4.609   7.668  0.2794  0.1330  0.0782
  190SAPI   O1121918   3.763   4.462   7.463 -0.6700 -0.6681  0.1331
  190SAPI    C121919   3.761   4.560   7.364  0.0344  0.8447  0.1666
  190SAPI    HA21920   3.726   4.656   7.407 -2.0291 -0.1121  0.7864
  190SAPI    HB21921   3.864   4.587   7.333 -0.0998  1.1699 -0.0117
  190SAPI    C221922   3.677   4.512   7.245  0.1177 -0.7213 -0.2720
  190SAPI    HS21923   3.579   4.477   7.285 -1.1475  0.0512 -2.5089
  190SAPI   O2121924   3.753   4.423   7.165 -0.0599  0.3557 -0.3236
  190SAPI   C2121925   3.713   4.299   7.171  0.5228  0.0942  0.0916
  190SAPI   O2221926   3.610   4.260   7.224  0.2959 -0.0998 -0.0730
  190SAPI   C2221927   3.808   4.209   7.098 -0.2637 -0.2329  0.2467
  190SAPI   H2R21928   3.895   4.264   7.057 -1.4327  2.7169  1.4337
  190SAPI   H2S21929   3.845   4.137   7.174 -3.1158 -2.5297 -0.3423
  190SAPI    C321930   3.631   4.631   7.158  0.9321  0.4783 -0.0763
  190SAPI    HX21931   3.707   4.677   7.091 -1.0407  0.7859 -2.2103
  190SAPI    HY21932   3.602   4.714   7.226 -1.5240  0.7282 -1.3403
  190SAPI   O3121933   3.528   4.594   7.077  0.1910  0.3738 -0.3009
  190SAPI   C3121934   3.510   4.686   6.973  0.7077  0.1156 -0.5727
  190SAPI   O3221935   3.563   4.792   6.963  0.5842  0.7116  0.5276
  190SAPI   C3221936   3.404   4.632   6.883 -0.0040 -0.0191  0.9010
  190SAPI   H2X21937   3.323   4.605   6.955 -1.3588  1.0869 -0.1413
  190SAPI   H2Y21938   3.447   4.545   6.830 -0.1354  0.1796  0.4639
  190SAPI   C2321939   3.756   4.128   6.980  0.2435  0.3312  0.6997
  190SAPI   H3R21940   3.713   4.192   6.899  0.8332 -1.8257 -1.4252
  190SAPI   H3S21941   3.668   4.062   6.994 -1.5696  1.0936 -4.6456
  190SAPI   C2421942   3.867   4.042   6.911 -0.9038  0.4334  0.4816
  190SAPI   H4R21943   3.933   4.001   6.992  0.1666  2.5289  0.7476
  190SAPI   H4S21944   3.936   4.101   6.848 -1.6210  1.4075  0.5950
  190SAPI   C2521945   3.815   3.927   6.832  0.0039  0.1442 -0.1409
  190SAPI   H5R21946   3.729   3.878   6.881  1.3353 -2.4244 -0.1717
  190SAPI   C2621947   3.865   3.867   6.720  0.2012 -0.6576  0.0944
  190SAPI   H6R21948   3.813   3.774   6.692 -1.0822 -0.0939  0.5576
  190SAPI   C2721949   3.975   3.911   6.624  0.2181  0.0429 -0.6438
  190SAPI   H7R21950   3.977   4.022   6.625 -0.6784  0.0667  0.1107
  190SAPI   H7S21951   3.942   3.871   6.526 -1.4924 -0.4868  0.1055
  190SAPI   C2821952   4.114   3.860   6.655 -0.5733  0.0773  0.2007
  190SAPI   H8R21953   4.145   3.837   6.758  1.0925  0.9868 -0.0719
  190SAPI   C2921954   4.208   3.875   6.568  0.0962 -0.1036 -0.2709
  190SAPI   H9R21955   4.310   3.842   6.592 -0.4533 -0.9102  1.0426
  190SAPI  C21021956   4.197   3.937   6.425  0.3003 -0.2634 -0.1725
  190SAPI  H10R21957   4.117   4.014   6.428  0.6192  0.2197 -2.4945
  190SAPI  H10S21958   4.170   3.857   6.353 -4.0153  1.0506 -0.2857
  190SAPI  C21121959   4.327   4.005   6.397  0.1762  0.3932  0.0597
  190SAPI  H11R21960   4.396   4.018   6.481  0.7522 -0.3609 -0.2907
  190SAPI  C21221961   4.363   4.035   6.269 -0.2578 -0.3459 -0.6009
  190SAPI  H12R21962   4.463   4.077   6.247  0.3681 -1.5482 -0.1769
  190SAPI  C21321963   4.275   4.028   6.146 -0.0167  1.1534 -0.2633
  190SAPI  H13R21964   4.166   4.030   6.167 -0.3268 -1.1698 -1.3666
  190SAPI  H13S21965   4.289   3.923   6.115 -0.4003  0.6235  1.2965
  190SAPI  C21421966   4.312   4.122   6.032 -0.2269  0.0429  0.4810
  190SAPI  H14R21967   4.271   4.222   6.055 -0.9593 -0.4815  1.5703
  190SAPI  C21521968   4.366   4.093   5.913 -0.1246  0.1345  0.0222
  190SAPI  H15R21969   4.370   4.176   5.840  0.9487  0.5981  0.5866
  190SAPI  C21621970   4.407   3.959   5.856 -0.1363  0.1138  0.0137
  190SAPI  H16R21971   4.325   3.884   5.852  1.2121 -1.5134  0.9501
  190SAPI  H16S21972   4.462   3.904   5.936 -1.4940 -0.6189  0.4699
  190SAPI  C21721973   4.478   3.970   5.717  0.6505 -0.1194  0.4760
  190SAPI  H17R21974   4.531   3.875   5.691  0.3864 -0.2690  0.4736
  190SAPI  H17S21975   4.545   4.058   5.710  1.4890 -0.8057 -0.5519
  190SAPI  C21821976   4.381   3.995   5.600  0.3807 -0.4929 -0.1754
  190SAPI  H18R21977   4.301   4.067   5.627 -0.1531 -0.4493 -1.7483
  190SAPI  H18S21978   4.325   3.901   5.581  0.8085 -0.7843 -0.0374
  190SAPI  C21921979   4.455   4.038   5.478 -0.5082 -0.6041  0.1869
  190SAPI  H19R21980   4.504   4.136   5.493 -2.0330  0.1538  0.4212
  190SAPI  H19S21981   4.389   4.049   5.389 -0.8614 -1.0504  0.3918
  190SAPI  C22021982   4.565   3.938   5.429  0.2819  0.1612  0.0787
  190SAPI  H20R21983   4.573   3.957   5.320  1.1366 -0.9780 -0.0758
  190SAPI  H20S21984   4.533   3.832   5.428 -1.0269  0.5186  0.8124
  190SAPI  H20T21985   4.657   3.945   5.492 -1.3070 -3.3386  3.1869
  190SAPI   C3321986   3.339   4.734   6.788  0.0239  0.0385 -0.2352
  190SAPI   H3X21987   3.329   4.826   6.850 -1.5691 -0.2918  0.0346
  190SAPI   H3Y21988   3.239   4.694   6.764 -0.0545 -0.6929  1.1989
  190SAPI   C3421989   3.423   4.763   6.666 -0.0681 -0.2911  0.1431
  190SAPI   H4X21990   3.525   4.786   6.702  0.7168 -1.6708 -1.0823
  190SAPI   H4Y21991   3.363   4.843   6.617 -0.2969 -1.3452 -1.3685
  190SAPI   C3521992   3.427   4.652   6.563 -0.3435 -0.2515 -0.2075
  190SAPI   H5X21993   3.326   4.635   6.522 -0.9552  2.0233  0.2260
  190SAPI   H5Y21994   3.455   4.556   6.614  0.1449  0.5072  1.0145
  190SAPI   C3621995   3.526   4.690   6.450  0.2694 -0.3796  0.3203
  190SAPI   H6X21996   3.618   4.728   6.499 -0.1392  0.9540  0.0978
  190SAPI   H6Y21997   3.472   4.769   6.393 -2.6967 -2.1071  0.5140
  190SAPI   C3721998   3.554   4.580   6.346 -0.5881  0.2848  0.5212
  190SAPI   H7X21999   3.567   4.487   6.404  2.1720 -0.1237 -0.6016
  190SAPI   H7Y22000   3.648   4.610   6.295 -1.1634 -2.1037 -2.2285
  190SAPI   C3822001   3.449   4.563   6.244  0.3905 -0.2130  0.6137
  190SAPI   H8X22002   3.404   4.660   6.213  1.1369  0.1083  0.5381
  190SAPI   H8Y22003   3.366   4.507   6.294 -0.1540  0.9129  1.0068
  190SAPI   C3922004   3.480   4.478   6.123 -0.2713 -0.8790 -0.2641
  190SAPI   H9X22005   3.553   4.539   6.066 -0.6149 -0.4625 -0.2694
  190SAPI   H9Y22006   3.395   4.456   6.055  0.2401  1.5936 -1.8361
  190SAPI  C31022007   3.556   4.345   6.140  0.6641  0.0680 -0.2203
  190SAPI  H10X22008   3.620   4.351   6.231 -0.2702 -0.2633  0.4766
  190SAPI  H10Y22009   3.620   4.314   6.054 -0.3201 -0.2982 -0.8416
  190SAPI  C31122010   3.468   4.221   6.168  0.4281 -0.2340 -0.1314
  190SAPI  H11X22011   3.419   4.231   6.267 -0.0872  1.8747 -0.5422
  190SAPI  H11Y22012   3.529   4.129   6.183 -0.8576 -1.5075 -2.2118
  190SAPI  C31222013   3.376   4.173   6.053  0.5992  0.0431  0.7786
  190SAPI  H12X22014   3.443   4.152   5.966  0.8213  1.4099  0.5956
  190SAPI  H12Y22015   3.297   4.242   6.016  0.7566 -0.0206  0.3129
  190SAPI  C31322016   3.295   4.047   6.080 -0.1380 -0.5260  0.0245
  190SAPI  H13X22017   3.354   3.953   6.073  0.2445 -0.4024  1.2174
  190SAPI  H13Y22018   3.221   4.034   5.999  2.3029 -1.9211 -2.1499
  190SAPI  C31422019   3.218   4.042   6.211  0.0696 -0.8190 -0.1864
  190SAPI  H14X22020   3.164   4.136   6.233 -0.6008 -1.5943  1.6823
  190SAPI  H14Y22021   3.298   4.036   6.289 -2.1649 -0.6341  2.2620
  190SAPI  C31522022   3.126   3.925   6.243 -0.3035 -0.7530  0.0860
  190SAPI  H15X22023   3.180   3.829   6.231  1.1031 -0.1776  1.4581
  190SAPI  H15Y22024   3.038   3.929   6.175 -0.7115  2.3358  0.6495
  190SAPI  C31622025   3.061   3.916   6.383  0.1731  0.1442 -1.0350
  190SAPI  H16X22026   2.989   3.832   6.393  1.6427 -1.2995 -2.1285
  190SAPI  H16Y22027   3.004   4.011   6.389 -1.7228 -0.9707 -0.4599
  190SAPI  C31722028   3.169   3.924   6.497  0.8027 -0.0998  1.6468
  190SAPI  H17X22029   3.208   4.028   6.496 -0.0371  0.2606 -0.5212
  190SAPI  H17Y22030   3.246   3.855   6.456 -1.6808 -1.2504 -1.5217
  190SAPI  C31822031   3.124   3.891   6.636  0.2705  0.0231 -0.2339
  190SAPI  H18X22032   3.054   3.957   6.691 -0.6728 -2.4590  1.7377
  190SAPI  H18Y22033   3.215   3.870   6.696  2.1017 -0.2838 -2.9571
  190SAPI  H18Z22034   3.071   3.794   6.621  2.9578 -1.1343 -3.5012
  191SAPI   C1222035   6.783   2.986   3.187 -0.2539  0.0284 -0.4630
  191SAPI    H222036   6.847   3.035   3.264  1.0257 -1.6838 -0.3704
  191SAPI    O222037   6.778   2.844   3.207  0.1949  0.1483  0.3959
  191SAPI   HO222038   6.856   2.821   3.259  0.3361  0.7425  0.4540
  191SAPI   C1322039   6.645   3.047   3.203 -0.7856  0.5410 -0.2123
  191SAPI    H322040   6.653   3.157   3.190  0.7618  0.5077  0.3459
  191SAPI    O322041   6.599   3.031   3.338 -0.1056  0.3019 -0.0920
  191SAPI   HO322042   6.580   2.937   3.341  1.7997 -0.1156 -0.2179
  191SAPI   C1422043   6.550   3.009   3.088  0.2320  0.0810  0.7062
  191SAPI    H422044   6.549   2.900   3.107  0.2314  0.1085  0.8630
  191SAPI    O422045   6.423   3.063   3.117  0.5076 -0.0099  0.0669
  191SAPI   HO422046   6.437   3.156   3.133  3.2911 -0.0012 -1.8772
  191SAPI   C1522047   6.610   3.028   2.950  0.6299 -0.2109 -0.0823
  191SAPI    H522048   6.614   3.139   2.940 -0.5545  0.1630  2.6823
  191SAPI    O522049   6.519   2.976   2.842  0.1793 -0.6004 -0.2714
  191SAPI   HO522050   6.527   3.045   2.775  0.7666 -2.3384 -2.0706
  191SAPI   C1622051   6.753   2.976   2.936 -0.3350  0.0051 -0.2777
  191SAPI    H622052   6.752   2.865   2.926 -1.1401  0.0903 -1.2966
  191SAPI    O622053   6.815   3.017   2.820  0.1197 -0.7698  0.5734
  191SAPI   HO622054   6.907   3.027   2.847 -0.3883  1.0611  1.8001
  191SAPI   C1122055   6.844   3.022   3.049  0.1650  0.1393 -0.9825
  191SAPI    H122056   6.849   3.132   3.039  1.4496  0.0897 -1.0669
  191SAPI     P22057   7.098   3.054   2.994 -0.2064 -0.1166 -0.4660
  191SAPI   O1322058   7.065   3.095   2.856  0.0277  0.7909 -0.6151
  191SAPI   O1422059   7.229   2.987   3.016 -0.3150  0.0627  0.2073
  191SAPI   O1222060   6.975   2.963   3.057 -0.2500 -0.1795  0.1942
  191SAPI   O1122061   7.094   3.185   3.080  0.1474 -0.7978 -0.1580
  191SAPI    C122062   7.077   3.172   3.229  0.7589 -0.4426 -0.1586
  191SAPI    HA22063   6.982   3.215   3.265 -0.7262 -1.1326 -2.9336
  191SAPI    HB22064   7.080   3.071   3.275  0.0633  0.6121  2.3768
  191SAPI    C222065   7.201   3.247   3.295  0.1525  1.5908  0.0579
  191SAPI    HS22066   7.214   3.349   3.253  0.0096  1.0067 -1.4384
  191SAPI   O2122067   7.317   3.163   3.270 -0.3091  0.3696 -0.4698
  191SAPI   C2122068   7.433   3.230   3.270 -0.9870  0.4542 -0.3638
  191SAPI   O2222069   7.450   3.348   3.286 -0.3728 -0.5950  0.9009
  191SAPI   C2222070   7.556   3.136   3.268 -0.5267  0.4843  0.1569
  191SAPI   H2R22071   7.527   3.058   3.342  0.5020 -0.7323 -0.6692
  191SAPI   H2S22072   7.580   3.081   3.175  2.2183 -2.4117  2.3388
  191SAPI    C322073   7.173   3.262   3.441 -0.5470 -0.2092 -1.2029
  191SAPI    HX22074   7.129   3.167   3.477 -1.7680  1.3191  1.7256
  191SAPI    HY22075   7.101   3.342   3.471  1.7233  0.4011  3.6679
  191SAPI   O3122076   7.300   3.284   3.516 -1.0748 -0.1169 -0.0354
  191SAPI   C3122077   7.330   3.405   3.553  0.2156 -0.2535  0.8648
  191SAPI   O3222078   7.260   3.503   3.534  0.3776 -0.7669 -0.2383
  191SAPI   C3222079   7.453   3.399   3.645 -0.4014 -0.1431 -0.0514
  191SAPI   H2X22080   7.476   3.497   3.692 -0.0808 -0.7301  1.0481
  191SAPI   H2Y22081   7.538   3.378   3.576  1.1718  0.0903  1.7442
  191SAPI   C2322082   7.681   3.202   3.331  0.2303 -0.2699  0.3888
  191SAPI   H3R22083   7.652   3.252   3.425  0.8459  1.3007 -0.2234
  191SAPI   H3S22084   7.707   3.290   3.269  1.3206 -1.1685 -0.4961
  191SAPI   C2422085   7.805   3.103   3.334  0.0071 -0.3753 -0.6690
  191SAPI   H4R22086   7.897   3.164   3.348 -0.1392  0.0304 -1.4617
  191SAPI   H4S22087   7.812   3.051   3.236  0.0231 -1.0260 -0.3275
  191SAPI   C2522088   7.800   3.002   3.449 -0.4301  0.0204 -0.1064
  191SAPI   H5R22089   7.769   2.904   3.410  2.5568 -0.8567 -0.4961
  191SAPI   C2622090   7.835   3.015   3.573 -0.1468  0.5310  0.1375
  191SAPI   H6R22091   7.817   2.928   3.638  2.4065 -1.1585 -1.2343
  191SAPI   C2722092   7.883   3.144   3.637  0.0500  0.2136  0.3435
  191SAPI   H7R22093   7.800   3.199   3.686  2.0605  2.1236  1.8261
  191SAPI   H7S22094   7.909   3.223   3.562 -0.2704  0.6367  0.6700
  191SAPI   C2822095   7.991   3.100   3.732  0.2227  0.1889  0.2144
  191SAPI   H8R22096   8.088   3.076   3.686 -0.3835 -0.2324 -0.8981
  191SAPI   C2922097   7.989   3.112   3.866  0.3225 -0.6099 -0.1382
  191SAPI   H9R22098   8.080   3.109   3.928  0.6548 -2.1176 -0.6489
  191SAPI  C21022099   7.874   3.161   3.944  0.1155 -0.3260 -1.1551
  191SAPI  H10R22100   7.834   3.083   4.012  1.0618  1.0446  1.0810
  191SAPI  H10S22101   7.793   3.198   3.877  1.6242  0.6668 -2.5094
  191SAPI  C21122102   7.929   3.276   4.021  0.0504 -0.4459 -0.3465
  191SAPI  H11R22103   7.922   3.375   3.974 -1.5188 -0.5068 -0.3007
  191SAPI  C21222104   7.945   3.272   4.156 -0.1999  0.3074 -0.4555
  191SAPI  H12R22105   7.980   3.362   4.210  0.2985  0.6618 -1.3383
  191SAPI  C21322106   7.944   3.163   4.254 -0.0668 -0.1404  0.7917
  191SAPI  H13R22107   7.890   3.077   4.208 -1.6551  0.7828  0.8539
  191SAPI  H13S22108   7.881   3.185   4.343 -0.7499 -0.7018  0.4642
  191SAPI  C21422109   8.076   3.128   4.290  0.0009  0.1367 -0.1923
  191SAPI  H14R22110   8.130   3.082   4.206  1.0856  2.5342 -0.8995
  191SAPI  C21522111   8.138   3.152   4.412 -0.0342  0.3132  0.2880
  191SAPI  H15R22112   8.247   3.136   4.421 -0.2634 -1.5912  0.0956
  191SAPI  C21622113   8.073   3.209   4.532  0.2014 -0.0280 -0.1008
  191SAPI  H16R22114   7.964   3.188   4.536  0.0919  0.3673 -0.8114
  191SAPI  H16S22115   8.085   3.319   4.535 -0.2136  0.0217 -0.2648
  191SAPI  C21722116   8.129   3.141   4.652  0.6129 -0.9302 -1.0113
  191SAPI  H17R22117   8.238   3.159   4.657  0.2192  1.4784  1.4026
  191SAPI  H17S22118   8.102   3.033   4.661 -0.8600 -0.5344 -0.2985
  191SAPI  C21822119   8.078   3.208   4.782  0.0838 -0.1476 -0.3218
  191SAPI  H18R22120   7.968   3.223   4.776  0.1858  0.8909  0.1899
  191SAPI  H18S22121   8.132   3.305   4.789  1.4716 -0.8510 -0.9387
  191SAPI  C21922122   8.116   3.131   4.898 -0.3302 -0.0056 -0.0310
  191SAPI  H19R22123   8.119   3.022   4.879  0.0723  0.0054 -0.0453
  191SAPI  H19S22124   8.049   3.153   4.984  0.6653  2.3099  0.2365
  191SAPI  C22022125   8.256   3.182   4.944 -0.0450  0.4219  0.1975
  191SAPI  H20R22126   8.308   3.108   5.009  1.4045  0.9805 -0.2859
  191SAPI  H20S22127   8.249   3.279   4.999  0.9584  1.4690 -1.4517
  191SAPI  H20T22128   8.318   3.192   4.853 -2.0368  0.6759 -1.1849
  191SAPI   C3322129   7.437   3.287   3.752 -0.4238 -0.3453 -0.6897
  191SAPI   H3X22130   7.474   3.190   3.712 -3.1892 -2.2158  0.9721
  191SAPI   H3Y22131   7.331   3.267   3.778  0.0647 -3.3552 -0.7438
  191SAPI   C3422132   7.507   3.331   3.880  0.5470 -0.0083 -0.2516
  191SAPI   H4X22133   7.478   3.436   3.901  2.3720  0.0940  2.1461
  191SAPI   H4Y22134   7.617   3.324   3.867  0.4186 -1.8332 -0.5703
  191SAPI   C3522135   7.460   3.245   3.997  0.8256  0.4610  0.1603
  191SAPI   H5X22136   7.460   3.135   3.978 -0.0038  0.4091  0.4106
  191SAPI   H5Y22137   7.358   3.273   4.030  1.0956 -0.3731  1.8061
  191SAPI   C3622138   7.540   3.263   4.130 -0.9071 -1.2048  0.3892
  191SAPI   H6X22139   7.544   3.373   4.146 -0.3331 -1.5673  3.4130
  191SAPI   H6Y22140   7.639   3.212   4.122 -1.1386 -1.4572 -1.0601
  191SAPI   C3722141   7.470   3.200   4.244 -0.2869  0.4226  0.7834
  191SAPI   H7X22142   7.467   3.091   4.221 -0.0560  0.8115 -1.2579
  191SAPI   H7Y22143   7.365   3.236   4.248 -0.2352  0.4967  2.7705
  191SAPI   C3822144   7.543   3.219   4.382 -0.1027 -0.8002 -0.1594
  191SAPI   H8X22145   7.650   3.243   4.365  0.1600 -0.6063  1.5845
  191SAPI   H8Y22146   7.549   3.125   4.441  1.5703  0.1698  1.2909
  191SAPI   C3922147   7.475   3.319   4.474  0.6341 -0.0164  0.0784
  191SAPI   H9X22148   7.367   3.293   4.470  0.3978  0.9877 -2.0496
  191SAPI   H9Y22149   7.496   3.425   4.444 -0.5318 -0.2276 -1.6520
  191SAPI  C31022150   7.523   3.310   4.624  0.1004  0.2691  0.4433
  191SAPI  H10X22151   7.540   3.207   4.659  0.8463  0.3867  0.4414
  191SAPI  H10Y22152   7.454   3.370   4.687  2.4578  2.0885  1.4406
  191SAPI  C31122153   7.665   3.377   4.639  0.0724 -0.4867  1.5173
  191SAPI  H11X22154   7.657   3.480   4.599  0.2643 -1.3516 -0.9319
  191SAPI  H11Y22155   7.736   3.334   4.565  0.2311  2.9519 -0.5507
  191SAPI  C31222156   7.722   3.384   4.782 -0.4140 -0.1319 -0.1939
  191SAPI  H12X22157   7.817   3.441   4.778 -0.0463 -0.7000  0.2680
  191SAPI  H12Y22158   7.758   3.284   4.814  0.4736  0.8123  1.9449
  191SAPI  C31322159   7.633   3.442   4.890  0.3212 -0.3290 -0.8100
  191SAPI  H13X22160   7.587   3.539   4.859 -0.9875 -0.5723  0.2756
  191SAPI  H13Y22161   7.690   3.476   4.979 -0.6786  1.1488 -0.6864
  191SAPI  C31422162   7.531   3.345   4.949 -0.0206 -0.7456 -0.3469
  191SAPI  H14X22163   7.563   3.239   4.948  0.0596 -0.7197 -0.5450
  191SAPI  H14Y22164   7.437   3.346   4.889  0.3533 -0.6121 -0.9385
  191SAPI  C31522165   7.470   3.384   5.088 -0.0350 -0.2281  0.2706
  191SAPI  H15X22166   7.399   3.469   5.085 -0.1702 -0.3649 -1.7035
  191SAPI  H15Y22167   7.551   3.420   5.154 -1.4193 -2.4620  3.4763
  191SAPI  C31622168   7.386   3.269   5.144 -0.3602 -0.5365 -0.8256
  191SAPI  H16X22169   7.318   3.227   5.067 -2.1324 -2.8841  1.7842
  191SAPI  H16Y22170   7.323   3.312   5.225  0.1593 -1.2591 -0.0223
  191SAPI  C31722171   7.469   3.146   5.205 -0.1607  0.1649 -0.8811
  191SAPI  H17X22172   7.520   3.097   5.119 -2.4074 -3.6621 -0.2750
  191SAPI  H17Y22173   7.397   3.072   5.245 -1.3078  1.0341 -1.2706
  191SAPI  C31822174   7.576   3.185   5.313  0.9180  0.0272  0.6223
  191SAPI  H18X22175   7.610   3.091   5.361  0.9520 -0.0163  0.5141
  191SAPI  H18Y22176   7.536   3.249   5.394 -1.1310 -0.3217 -0.0384
  191SAPI  H18Z22177   7.647   3.259   5.269 -0.4363  0.4778 -0.9381
  192SAPI   C1222178   3.978   3.664   2.898 -0.1220  0.6520  1.3231
  192SAPI    H222179   4.040   3.640   2.987 -0.4428 -0.6322  1.2227
  192SAPI    O222180   4.068   3.718   2.803 -0.1251 -0.1948  0.1916
  192SAPI   HO222181   4.138   3.765   2.849  0.1969  0.6071 -1.0630
  192SAPI   C1322182   3.910   3.545   2.844 -0.1185  0.4029 -0.0074
  192SAPI    H322183   3.836   3.514   2.922  1.8046 -1.1622  1.2887
  192SAPI    O322184   3.995   3.433   2.838 -0.0830  0.4953 -0.5360
  192SAPI   HO322185   3.948   3.350   2.835  0.2901  0.2715 -0.1736
  192SAPI   C1422186   3.849   3.574   2.708  0.3133 -0.5506  0.4719
  192SAPI    H422187   3.939   3.586   2.644 -0.4158 -1.0692 -0.6838
  192SAPI    O422188   3.771   3.464   2.651 -0.0992  0.1747  0.0577
  192SAPI   HO422189   3.821   3.401   2.598 -0.9457  0.2826 -0.9066
  192SAPI   C1522190   3.769   3.710   2.710  1.1424  1.1125 -0.4181
  192SAPI    H522191   3.672   3.666   2.743  1.9787 -0.2125  0.3544
  192SAPI    O522192   3.745   3.769   2.579 -0.6029 -0.2676 -0.3665
  192SAPI   HO522193   3.654   3.798   2.572 -0.6841 -0.7995 -1.9760
  192SAPI   C1622194   3.804   3.820   2.812 -0.4501 -0.1938 -0.8619
  192SAPI    H622195   3.883   3.885   2.769 -0.9440 -0.5863 -2.4423
  192SAPI    O622196   3.691   3.907   2.838  0.4827 -0.2639  0.7022
  192SAPI   HO622197   3.636   3.869   2.907  2.0987  1.2058  2.9458
  192SAPI   C1122198   3.879   3.767   2.942  0.7330  0.0895  0.3401
  192SAPI    H122199   3.808   3.715   3.010 -1.3792  0.0749 -1.7377
  192SAPI     P22200   3.940   3.908   3.166 -0.0625  0.0366  0.1143
  192SAPI   O1322201   4.020   4.035   3.192  0.1673  0.4349  0.1342
  192SAPI   O1422202   3.981   3.787   3.238  0.1257  0.6475  0.3559
  192SAPI   O1222203   3.943   3.882   3.005  1.1439 -0.7494  0.9981
  192SAPI   O1122204   3.793   3.953   3.198 -0.4496 -0.1820  0.5662
  192SAPI    C122205   3.737   3.933   3.333 -0.1078  0.2718 -0.2849
  192SAPI    HA22206   3.705   3.827   3.347 -2.1949  0.9584  0.6248
  192SAPI    HB22207   3.804   3.957   3.419 -1.2173 -2.0700  1.3669
  192SAPI    C222208   3.608   4.022   3.350  0.5559 -0.5149  0.1091
  192SAPI    HS22209   3.524   3.978   3.293 -3.1971  2.3845  2.8738
  192SAPI   O2122210   3.623   4.162   3.306 -0.5791 -0.0672  0.1965
  192SAPI   C2122211   3.517   4.219   3.264 -0.3058 -0.8143 -0.4753
  192SAPI   O2222212   3.404   4.174   3.270  0.6702  0.3894  0.0210
  192SAPI   C2222213   3.549   4.355   3.197  0.0679 -0.0200 -0.1004
  192SAPI   H2R22214   3.633   4.338   3.127 -0.5578 -1.5615 -0.5195
  192SAPI   H2S22215   3.464   4.366   3.125  0.0288 -2.3144 -0.4845
  192SAPI    C322216   3.558   4.017   3.500  0.1685  0.6905  0.5300
  192SAPI    HX22217   3.534   3.910   3.519 -2.0358  1.2601  1.2170
  192SAPI    HY22218   3.463   4.075   3.503 -0.0048  0.4671 -0.2547
  192SAPI   O3122219   3.662   4.071   3.585  0.1630  0.7583  0.1714
  192SAPI   C3122220   3.668   4.203   3.606 -0.4185 -0.5716  0.8397
  192SAPI   O3222221   3.587   4.286   3.569 -0.1320 -0.2799 -0.0063
  192SAPI   C3222222   3.796   4.232   3.676  0.8205 -0.0442  0.1264
  192SAPI   H2X22223   3.876   4.234   3.599  0.7479  0.6415  0.0617
  192SAPI   H2Y22224   3.814   4.138   3.733 -0.6224 -0.3967  0.0492
  192SAPI   C2322225   3.554   4.479   3.288  0.3253  0.3817 -0.7878
  192SAPI   H3R22226   3.601   4.558   3.225  0.2984  1.1381  0.1365
  192SAPI   H3S22227   3.625   4.441   3.365  0.8397 -2.6317 -2.5677
  192SAPI   C2422228   3.413   4.530   3.334 -0.0521 -0.4388 -0.0277
  192SAPI   H4R22229   3.386   4.474   3.426 -0.1211 -1.4452 -0.6461
  192SAPI   H4S22230   3.337   4.506   3.256  1.0069 -2.1407 -0.6126
  192SAPI   C2522231   3.437   4.679   3.360  0.6844  0.2694 -0.8210
  192SAPI   H5R22232   3.464   4.737   3.271  1.0555  0.6689 -0.4541
  192SAPI   C2622233   3.427   4.742   3.477  1.1474 -0.2269 -0.4880
  192SAPI   H6R22234   3.446   4.850   3.493 -1.6503  0.1082  1.2366
  192SAPI   C2722235   3.406   4.685   3.616 -0.3139  0.3322  0.5913
  192SAPI   H7R22236   3.476   4.737   3.684 -1.0806  2.6353 -0.2733
  192SAPI   H7S22237   3.431   4.577   3.622 -1.2549  0.0009 -0.8627
  192SAPI   C2822238   3.260   4.697   3.660 -0.1598  0.3033  0.2920
  192SAPI   H8R22239   3.179   4.706   3.586 -0.8723  1.5307  1.1649
  192SAPI   C2922240   3.227   4.710   3.794 -0.7928  0.2846  0.8047
  192SAPI   H9R22241   3.119   4.722   3.811 -0.8905  1.6422 -0.5670
  192SAPI  C21022242   3.326   4.709   3.910 -0.2182  0.1577  0.4739
  192SAPI  H10R22243   3.412   4.644   3.884 -0.8990  0.0206 -1.7094
  192SAPI  H10S22244   3.284   4.657   3.999 -0.5945  0.1170  0.2768
  192SAPI  C21122245   3.379   4.843   3.959  0.5715  1.0354  0.4995
  192SAPI  H11R22246   3.408   4.905   3.873 -0.5429 -0.4481 -0.9976
  192SAPI  C21222247   3.377   4.900   4.079 -0.0054  0.7963 -0.8572
  192SAPI  H12R22248   3.401   5.006   4.088  2.2205  0.1618  2.6477
  192SAPI  C21322249   3.346   4.835   4.208  0.9477  0.4302 -0.1180
  192SAPI  H13R22250   3.428   4.831   4.283 -0.2752  2.6861  1.4421
  192SAPI  H13S22251   3.324   4.726   4.195  0.0419  0.2454  2.3474
  192SAPI  C21422252   3.220   4.901   4.255  0.3446  0.2517 -0.0492
  192SAPI  H14R22253   3.146   4.913   4.175  2.1321  0.8731 -1.6864
  192SAPI  C21522254   3.193   4.940   4.380 -0.0692 -0.1757 -0.2640
  192SAPI  H15R22255   3.096   4.990   4.397  0.2480  0.1949  0.4897
  192SAPI  C21622256   3.289   4.936   4.497  0.6990  0.6727 -0.0613
  192SAPI  H16R22257   3.235   4.995   4.573  0.0533  0.5718 -0.4341
  192SAPI  H16S22258   3.392   4.962   4.466  0.2479 -0.5799 -2.9885
  192SAPI  C21722259   3.300   4.792   4.544 -0.3418 -0.0988 -0.6183
  192SAPI  H17R22260   3.358   4.734   4.470  2.0075  0.3136  0.7985
  192SAPI  H17S22261   3.201   4.743   4.554 -0.7393  0.9155  0.7192
  192SAPI  C21822262   3.391   4.786   4.671 -0.5882 -0.0899  0.2537
  192SAPI  H18R22263   3.489   4.835   4.653  1.9168 -4.0836  1.5463
  192SAPI  H18S22264   3.426   4.682   4.690  2.8429  0.8160 -0.5651
  192SAPI  C21922265   3.299   4.848   4.783  0.2250 -0.0054 -0.5152
  192SAPI  H19R22266   3.200   4.801   4.764  0.1812  0.1932 -0.7810
  192SAPI  H19S22267   3.291   4.957   4.768  0.4766  0.0846 -0.0116
  192SAPI  C22022268   3.334   4.836   4.929  0.3057 -0.9338  0.4060
  192SAPI  H20R22269   3.435   4.881   4.938 -0.9557  2.4041 -0.6112
  192SAPI  H20S22270   3.342   4.730   4.961  0.4066 -1.5105 -1.4297
  192SAPI  H20T22271   3.272   4.894   5.001 -0.7687 -0.3544 -0.9446
  192SAPI   C3322272   3.785   4.355   3.762 -0.5019  0.1955  0.4763
  192SAPI   H3X22273   3.761   4.447   3.705 -3.6811 -0.2472  0.9356
  192SAPI   H3Y22274   3.887   4.379   3.800  0.1547  0.9313 -1.6280
  192SAPI   C3422275   3.680   4.346   3.873 -0.0522  0.4381  0.2473
  192SAPI   H4X22276   3.714   4.266   3.942  0.9587 -1.0758 -1.8749
  192SAPI   H4Y22277   3.575   4.331   3.838 -0.8233  2.7728  1.3779
  192SAPI   C3522278   3.686   4.476   3.957  0.5732 -0.5793  0.4202
  192SAPI   H5X22279   3.653   4.567   3.902  0.2975 -0.0324  1.4687
  192SAPI   H5Y22280   3.788   4.502   3.991  0.1799  2.1548 -0.2736
  192SAPI   C3622281   3.584   4.485   4.077  0.5101  0.3641 -0.0886
  192SAPI   H6X22282   3.480   4.502   4.041  0.9711  1.8547 -0.7767
  192SAPI   H6Y22283   3.591   4.573   4.144  0.3728 -0.3592  0.9029
  192SAPI   C3722284   3.580   4.362   4.174  0.4222  0.1618 -0.6751
  192SAPI   H7X22285   3.683   4.342   4.210 -0.0382 -0.9981  0.0687
  192SAPI   H7Y22286   3.554   4.272   4.114  3.0377 -2.7058  2.1518
  192SAPI   C3822287   3.479   4.374   4.293 -0.5215  0.0192 -0.7091
  192SAPI   H8X22288   3.379   4.340   4.260  0.0392 -0.5248 -1.9003
  192SAPI   H8Y22289   3.479   4.481   4.324  0.1202 -0.6305  1.7958
  192SAPI   C3922290   3.522   4.282   4.402 -0.3213  0.0339  0.0102
  192SAPI   H9X22291   3.608   4.330   4.453 -1.0139  1.1560  0.1577
  192SAPI   H9Y22292   3.551   4.185   4.355 -0.3606  1.2689 -2.7106
  192SAPI  C31022293   3.421   4.245   4.514 -0.6015  0.1303 -0.7286
  192SAPI  H10X22294   3.473   4.174   4.583 -0.5920  1.8493  1.1318
  192SAPI  H10Y22295   3.341   4.191   4.459 -1.4349  0.8863 -0.2845
  192SAPI  C31122296   3.374   4.355   4.603  0.4213 -0.0596 -0.7705
  192SAPI  H11X22297   3.302   4.421   4.550 -0.3357 -1.4756 -1.5594
  192SAPI  H11Y22298   3.462   4.408   4.644 -0.5748 -0.0529  1.5440
  192SAPI  C31222299   3.299   4.310   4.729  0.5247  0.5267 -0.7043
  192SAPI  H12X22300   3.361   4.245   4.795 -2.4156 -1.7381  0.0557
  192SAPI  H12Y22301   3.211   4.248   4.703 -0.6099  0.3298  3.0286
  192SAPI  C31322302   3.247   4.430   4.821  0.2278 -0.1536  0.2186
  192SAPI  H13X22303   3.171   4.476   4.754 -0.1786 -0.7991  0.2280
  192SAPI  H13Y22304   3.331   4.500   4.844  0.1152  0.2953 -0.6973
  192SAPI  C31422305   3.189   4.393   4.964 -0.2394  0.1503  0.0555
  192SAPI  H14X22306   3.117   4.311   4.944  0.2655  0.0098 -1.2709
  192SAPI  H14Y22307   3.134   4.484   4.995  1.2939  1.5665 -1.1946
  192SAPI  C31522308   3.291   4.365   5.070  0.1488  0.2910  0.2254
  192SAPI  H15X22309   3.341   4.460   5.099 -1.5879  0.8630  1.5776
  192SAPI  H15Y22310   3.363   4.285   5.043 -0.4865  0.0284 -0.7436
  192SAPI  C31622311   3.218   4.335   5.211 -0.4110 -0.0162 -0.2525
  192SAPI  H16X22312   3.286   4.335   5.299  0.4869 -0.0024 -0.9275
  192SAPI  H16Y22313   3.184   4.230   5.202  1.0214 -0.4994 -0.3409
  192SAPI  C31722314   3.103   4.421   5.259  0.3516 -0.2520  0.1701
  192SAPI  H17X22315   3.055   4.370   5.345 -1.8261  0.2076 -0.6988
  192SAPI  H17Y22316   3.024   4.430   5.181  0.7134 -0.1469 -0.1898
  192SAPI  C31822317   3.151   4.560   5.306  0.0399  0.0635  0.0058
  192SAPI  H18X22318   3.184   4.605   5.210 -1.3417 -1.7183 -1.4017
  192SAPI  H18Y22319   3.235   4.554   5.378 -0.1382  0.3015  0.2336
  192SAPI  H18Z22320   3.068   4.623   5.344 -0.0095  0.5818 -0.9292
  193SOD    SOD22321   3.761   3.899   7.833 -0.4174 -0.5111 -0.1489
  194SOD    SOD22322   2.580   0.273   0.324 -0.3997 -0.2415 -0.1074
  195SOD    SOD22323   2.869   2.304   1.263 -0.3201 -0.1566 -0.3675
  196SOD    SOD22324   4.279   3.528   3.383 -0.0346  0.1759 -0.2051
  197SOD    SOD22325   6.682   5.918   8.111  0.0026  0.1943  0.2372
  198SOD    SOD22326   2.021   5.809   7.923  0.1221 -0.2304 -0.3276
  199SOD    SOD22327   5.207   0.006   7.487 -0.3022  0.5993 -0.3434
  200SOD    SOD22328   5.955   5.185   1.801  0.1932  0.0299  0.6420
  201SOD    SOD22329   3.538   3.028   2.123 -0.0144  0.2155 -0.1656
  202SOD    SOD22330   5.315   6.468   2.626 -0.1404 -0.1710 -0.2750
  203SOD    SOD22331   2.785   4.583   1.872  0.1730  0.2852  0.0496
  204SOD    SOD22332   6.221   1.439   3.144 -0.4365  0.1814  0.0182
  205SOD    SOD22333   4.465   2.273   2.299  0.5611 -0.1226 -0.3068
  206SOD    SOD22334   0.185   6.477   2.025 -0.5748  0.2301 -0.3195
  207SOD    SOD22335   0.860   1.278   0.605 -0.2253 -0.3314  0.1884
  208SOD    SOD22336   1.238   1.316   7.943 -0.2377  0.2189  0.1707
  209SOD    SOD22337   1.604   1.201   8.455  0.5472  0.2801 -0.3315
  210SOD    SOD22338   2.122   0.787   3.203  0.0966  0.9757  0.0797
  211SOD    SOD22339   1.571   1.891   2.081 -0.1460  0.0823 -0.0217
  212SOD    SOD22340   1.210   1.277   7.534 -0.7673 -0.4402  0.7004
  213SOD    SOD22341   0.211   3.356   1.989  0.0535 -0.3203 -0.1218
  214SOD    SOD22342   0.414   0.174   1.184 -0.5066 -0.2249  0.0931
  215SOD    SOD22343   0.691   4.852   0.178 -0.3040  0.1445 -0.6538
  216SOD    SOD22344   4.734   0.361   8.423 -0.7049 -0.5312  0.1075
  217SOD    SOD22345   4.226   1.789   3.037  0.0898 -0.3950  0.5931
  218SOD    SOD22346   0.932   3.331   7.507  0.0174  0.1821 -0.5899
  219SOD    SOD22347   6.182   3.497   3.565  0.1530 -0.4621 -0.1131
  220SOD    SOD22348   0.894   3.497   0.171 -0.0652 -0.2346 -0.0331
  221SOD    SOD22349   1.027   4.954   7.733 -0.7324 -0.0833  0.1162
  222SOD    SOD22350   3.197   4.251   2.903  0.4995  0.3751  0.1672
  223SOD    SOD22351   1.887   1.531   2.931 -0.3704 -0.4219  0.0820
  224SOD    SOD22352   5.412   3.741   8.373 -0.2520 -0.2985 -0.2188
  225SOD    SOD22353   5.626   4.077   2.289  0.3238 -0.1108 -0.1615
  226SOD    SOD22354   1.214   4.546   3.135 -0.3704  0.1563  0.0990
  227SOD    SOD22355   4.402   4.238   8.273  0.0216 -0.3559 -0.0900
  228SOD    SOD22356   4.329   4.457   1.484 -0.2075 -0.1351 -0.4718
  229SOD    SOD22357   0.014   3.282   7.920  0.4537  0.1398  0.3798
  230CLA    CLA22358   4.109   0.969   1.713 -0.5715 -0.1726 -0.1187
  231CLA    CLA22359   0.054   5.910   2.458 -0.0302  0.2666 -0.0037
  232CLA    CLA22360   3.443   0.481   0.728  0.2352  0.4089 -0.2280
  233CLA    CLA22361   5.482   4.622   1.870  0.1525  0.3063 -0.1768
  234CLA    CLA22362   5.157   1.999   1.636  0.0226 -0.0480 -0.2126
  235CLA    CLA22363   1.659   4.831   2.581 -0.3353  0.3591  0.0294
  236CLA    CLA22364   3.361   4.818   0.993  0.3289 -0.3490  0.1483
  237CLA    CLA22365   1.643   3.597   1.274 -0.2835  0.0961  0.0036
  238CLA    CLA22366   3.001   1.851   1.722  0.3160  0.0042 -0.3481
  239CLA    CLA22367   1.307   1.167   1.387  0.2269  0.0130  0.1543
  240CLA    CLA22368   0.279   4.309   0.147 -0.1637 -0.2300  0.1555
  241CLA    CLA22369   4.408   1.994   1.387  0.5104 -0.0444 -0.1149
  242CLA    CLA22370   5.397   1.402   2.508 -0.1896  0.4394 -0.6445
  243CLA    CLA22371   3.331   4.741   0.008  0.1418  0.3471 -0.0991
  244CLA    CLA22372   4.007   4.716   0.354  0.3228  0.1673  0.4526
  245CLA    CLA22373   6.653   2.764   1.988 -0.0508  0.1507  0.2791
  246CLA    CLA22374   2.125   2.084   2.125 -0.1058  0.6139  0.2059
  247TIP3   OH222375   6.811   2.124   0.726 -0.4744 -0.0236  0.9390
  247TIP3    H122376   6.883   2.071   0.692 -0.4961 -0.3759  1.4396
  247TIP3    H222377   6.771   2.163   0.648 -1.1494 -1.6203  0.4649
  248TIP3   OH222378   4.928   1.849   2.348  0.6416 -0.5317 -0.2815
  248TIP3    H122379   4.838   1.818   2.357  0.4158 -0.7847 -2.6782
  248TIP3    H222380   4.983   1.773   2.367  0.3636 -0.4391  0.9459
  249TIP3   OH222381   3.608   1.627   0.544 -0.0595 -0.4769  0.5026
  249TIP3    H122382   3.628   1.616   0.637  3.1410 -1.1855 -0.1330
  249TIP3    H222383   3.658   1.704   0.518  1.8197 -2.1329 -1.2086
  250TIP3   OH222384   5.938   2.360   1.103  0.0859  0.0559  0.0974
  250TIP3    H122385   5.873   2.306   1.149  1.0298  0.1278  1.5824
  250TIP3    H222386   5.975   2.303   1.036 -1.1253 -0.1437 -0.4267
  251TIP3   OH222387   1.363   2.798   1.872 -0.4322 -0.3208 -0.8260
  251TIP3    H122388   1.405   2.831   1.793  0.1905  0.4710 -0.1891
  251TIP3    H222389   1.386   2.863   1.940 -1.1934 -0.8219 -0.0688
  252TIP3   OH222390   0.073   5.222   2.307 -0.1756  0.3782 -0.3076
  252TIP3    H122391   0.126   5.299   2.327 -0.0610  0.3402 -0.4680
  252TIP3    H222392   0.063   5.223   2.212  1.4115 -0.8355 -0.5288
  253TIP3   OH222393   1.657   5.017   2.139  0.2787  0.0865 -0.0610
  253TIP3    H122394   1.678   5.060   2.057  0.2802 -1.6930 -1.0306
  253TIP3    H222395   1.677   4.924   2.125 -1.4112 -0.5660  1.3172
  254TIP3   OH222396   1.215   4.168   8.770  0.0095  0.3049 -0.4565
  254TIP3    H122397   1.300   4.163   8.813 -0.1354  0.7288 -0.1150
  254TIP3    H222398   1.167   4.236   8.818  0.4744  2.1076 -2.3731
  255TIP3   OH222399   6.811   5.663   0.033 -0.3450  0.5283  0.0010
  255TIP3    H122400   6.721   5.633   0.020 -0.9860  1.3530  2.0777
  255TIP3    H222401   6.865   5.593  -0.002 -1.7545  0.3423 -1.9967
  256TIP3   OH222402   1.918   1.553   1.881 -0.6358  0.4691  0.3772
  256TIP3    H122403   1.951   1.563   1.970 -1.3746  2.4953  0.4864
  256TIP3    H222404   1.831   1.593   1.883 -1.1609 -0.5041 -0.9989
  257TIP3   OH222405   1.181   6.071   7.483 -0.0503  0.2302  0.0510
  257TIP3    H122406   1.267   6.046   7.448 -0.0400  0.3787 -0.0341
  257TIP3    H222407   1.125   5.995   7.466  0.0545  0.1484  0.0700
  258TIP3   OH222408   3.951   4.162   8.459  0.4715  0.0306 -0.1443
  258TIP3    H122409   3.957   4.244   8.410  2.1833  1.3855  2.1324
  258TIP3    H222410   4.034   4.157   8.507 -0.4276 -2.0313  1.3113
  259TIP3   OH222411   6.857   4.898   0.752  0.4134  0.1504 -0.1561
  259TIP3    H122412   6.818   4.892   0.840 -1.2895  0.2984 -0.8549
  259TIP3    H222413   6.853   4.809   0.718 -0.3758  0.3591 -0.6440
  260TIP3   OH222414   2.946   0.093   8.516 -0.1388 -0.4049  0.2243
  260TIP3    H122415   2.881   0.162   8.529  0.8819  0.6088  0.1823
  260TIP3    H222416   2.905   0.014   8.550 -0.6590  0.5785  2.0186
  261TIP3   OH222417   0.318   1.789   0.872 -0.0252 -0.0310 -0.7598
  261TIP3    H122418   0.333   1.854   0.803  1.3108 -1.0701 -1.4827
  261TIP3    H222419   0.371   1.714   0.847 -0.7299 -1.0322  0.6035
  262TIP3   OH222420   4.449   2.221   0.759  0.4333  0.2199  0.1610
  262TIP3    H122421   4.360   2.242   0.786  0.4929  0.9369 -0.1772
  262TIP3    H222422   4.445   2.220   0.663  0.5568 -0.7976  0.1536
  263TIP3   OH222423   1.832   5.765   3.305  0.8606  0.2109 -0.3086
  263TIP3    H122424   1.781   5.743   3.228 -0.0397 -0.8540  0.5581
  263TIP3    H222425   1.810   5.697   3.369  2.5826  0.3172  0.4454
  264TIP3   OH222426   2.758   2.790   0.294  0.1447 -0.2649  0.4331
  264TIP3    H122427   2.697   2.750   0.232  0.3816  0.5208 -0.3262
  264TIP3    H222428   2.702   2.841   0.353  0.0251  0.1058  0.0044
  265TIP3   OH222429   6.496   3.336   2.328  0.1769  0.2290  0.1126
  265TIP3    H122430   6.460   3.421   2.353  1.7959  1.1255 -0.4588
  265TIP3    H222431   6.429   3.298   2.271 -0.6349  1.0411  0.4871
  266TIP3   OH222432   0.336   6.270   0.132  1.2616 -0.7480 -0.5333
  266TIP3    H122433   0.297   6.218   0.202  0.8083  1.0164  0.5851
  266TIP3    H222434   0.287   6.244   0.054 -2.5715  1.5351  0.8197
  267TIP3   OH222435   3.646   5.643   7.781 -0.0723 -0.2134 -0.2663
  267TIP3    H122436   3.737   5.645   7.753 -0.1812 -0.7255 -0.6705
  267TIP3    H222437   3.607   5.720   7.741  0.3026  0.2965  0.3382
  268TIP3   OH222438   0.969   1.889   7.825  0.6380  0.2222 -0.3150
  268TIP3    H122439   1.013   1.828   7.766  0.7812  1.5238 -1.6181
  268TIP3    H222440   0.972   1.973   7.779 -1.0601  0.8620  0.6419
  269TIP3   OH222441   0.038   2.535   0.202  0.2290 -0.0893 -0.2463
  269TIP3    H122442  -0.055   2.548   0.219 -0.1205 -1.1252 -1.2479
  269TIP3    H222443   0.081   2.603   0.253 -1.1686  1.5781 -1.1943
  270TIP3   OH222444   4.498   6.011   2.857  0.4634  0.0811  1.2642
  270TIP3    H122445   4.536   6.071   2.793  0.7860 -0.0893  1.2901
  270TIP3    H222446   4.565   5.943   2.868  1.0487  0.8799  2.8739
  271TIP3   OH222447   6.608   6.061   8.285  0.1654  0.0913 -0.7250
  271TIP3    H122448   6.602   6.156   8.278  0.1894  0.3915  2.0891
  271TIP3    H222449   6.534   6.036   8.340 -1.1574 -1.8699 -3.1598
  272TIP3   OH222450   0.388   6.401   8.257 -0.0303 -0.9795  0.2713
  272TIP3    H122451   0.368   6.352   8.337 -0.6648  1.5340  1.7740
  272TIP3    H222452   0.479   6.381   8.238 -0.4114 -3.0969  0.4991
  273TIP3   OH222453   5.717   1.614   8.769 -0.4707  0.2671 -0.1909
  273TIP3    H122454   5.766   1.691   8.798  0.0522  0.5236 -1.6871
  273TIP3    H222455   5.704   1.563   8.849  2.0575  0.2873  0.3093
  274TIP3   OH222456   5.789   4.860   8.035 -0.5037  0.2425  0.2195
  274TIP3    H122457   5.749   4.855   7.948  0.6415  1.1750 -0.3997
  274TIP3    H222458   5.723   4.825   8.094 -1.3859 -0.2372 -1.0039
  275TIP3   OH222459   5.801   3.461   2.973  0.0231 -0.1016 -0.3135
  275TIP3    H122460   5.717   3.499   2.950  0.6933  1.1445 -0.8182
  275TIP3    H222461   5.820   3.493   3.061  0.0903 -0.1780 -0.2987
  276TIP3   OH222462   6.142   4.887   7.780  0.1692 -0.0818  0.0659
  276TIP3    H122463   6.223   4.846   7.750  0.9992  0.8036  1.0378
  276TIP3    H222464   6.085   4.888   7.703  0.6358 -1.7399 -0.3528
  277TIP3   OH222465   4.675   3.377   1.637  0.0563  0.2429  0.7348
  277TIP3    H122466   4.708   3.317   1.704 -0.5692  0.7891  1.5569
  277TIP3    H222467   4.580   3.372   1.645 -0.0106  1.3728  0.8709
  278TIP3   OH222468   1.044   1.972   2.820 -0.2140  0.3136 -0.3985
  278TIP3    H122469   0.994   1.982   2.738 -1.6313  0.3228  0.4300
  278TIP3    H222470   1.015   1.888   2.855 -1.9463  1.6253  1.5623
  279TIP3   OH222471   0.344   5.661   7.844 -0.0336  0.2155 -0.2423
  279TIP3    H122472   0.432   5.691   7.822 -0.4501  0.5670 -1.5124
  279TIP3    H222473   0.356   5.571   7.874  0.5832 -0.2999 -1.9512
  280TIP3   OH222474   4.375   5.713   1.349 -1.2490 -0.1082  0.5306
  280TIP3    H122475   4.287   5.686   1.320 -0.6300 -2.8387  0.8879
  280TIP3    H222476   4.432   5.643   1.320  1.2989  2.6241 -1.6473
  281TIP3   OH222477   3.780   3.537   2.351  0.2753 -0.0120 -0.4476
  281TIP3    H122478   3.689   3.564   2.365  0.1666 -0.1306 -0.9175
  281TIP3    H222479   3.819   3.607   2.300  0.7071  0.4742  0.5231
  282TIP3   OH222480   1.676   3.721   3.076  0.4129  0.2125 -0.0631
  282TIP3    H122481   1.675   3.670   3.157  0.3435 -0.1640 -0.3011
  282TIP3    H222482   1.623   3.670   3.015  1.1723  0.0592 -0.6042
  283TIP3   OH222483   1.118   5.020   1.665  0.4157 -0.5628  0.3748
  283TIP3    H122484   1.100   4.976   1.748 -1.5593  0.6290  0.6456
  283TIP3    H222485   1.039   5.070   1.647  1.1644 -0.0423 -1.7711
  284TIP3   OH222486   5.564   3.973   8.631 -0.1764  0.2270 -0.0659
  284TIP3    H122487   5.476   3.935   8.634 -0.0368 -0.2712 -1.4071
  284TIP3    H222488   5.551   4.064   8.656 -1.7687  1.2180 -3.8340
  285TIP3   OH222489   3.679   6.607   7.092 -0.0126  0.2878  0.0745
  285TIP3    H122490   3.727   6.563   7.161  1.6420  0.2556 -1.0528
  285TIP3    H222491   3.725   6.690   7.079 -1.1592  0.9373 -0.0227
  286TIP3   OH222492   4.601   0.903   8.730 -0.8786 -0.6401 -0.4220
  286TIP3    H122493   4.540   0.899   8.803 -0.0599  2.4514  0.5996
  286TIP3    H222494   4.687   0.896   8.770 -0.2721  3.5804 -0.5311
  287TIP3   OH222495   4.980   1.490   7.713 -0.2451 -0.1309 -0.4571
  287TIP3    H122496   4.917   1.474   7.642 -0.0809  0.2390 -0.6890
  287TIP3    H222497   4.926   1.524   7.785 -0.1465  1.6327 -1.1533
  288TIP3   OH222498   2.477   5.597   1.450 -0.1046 -0.1919 -0.1803
  288TIP3    H122499   2.478   5.546   1.531  1.0132 -0.7562 -0.5249
  288TIP3    H222500   2.501   5.686   1.477 -2.8248  0.4117  0.5429
  289TIP3   OH222501   5.931   1.359   0.891  0.4439 -0.4683 -0.6121
  289TIP3    H122502   6.014   1.373   0.847  0.6509 -1.0392 -0.4181
  289TIP3    H222503   5.894   1.281   0.849  0.8237 -1.2516  0.4442
  290TIP3   OH222504   0.028   1.219   1.259 -0.4869  0.1835 -0.2577
  290TIP3    H122505   0.050   1.180   1.344 -2.8336 -0.6992  0.0401
  290TIP3    H222506   0.023   1.313   1.276 -0.3025  0.0719  0.4251
  291TIP3   OH222507   5.793   3.231   3.686  0.2376  0.2291 -0.1264
  291TIP3    H122508   5.780   3.147   3.729  0.4626  0.5017  0.4977
  291TIP3    H222509   5.714   3.243   3.633 -0.2459  0.0580  0.5295
  292TIP3   OH222510   4.938   5.559   2.170  0.1414 -0.2627  0.7656
  292TIP3    H122511   4.985   5.560   2.087 -1.2130 -0.0182 -0.0248
  292TIP3    H222512   4.869   5.494   2.158 -1.6917  1.5972  0.7494
  293TIP3   OH222513   2.752   0.380   8.698 -0.0546 -0.9465  0.5689
  293TIP3    H122514   2.687   0.317   8.667 -2.1044  0.9938  0.6571
  293TIP3    H222515   2.785   0.422   8.619  1.2304 -2.0005  0.5168
  294TIP3   OH222516   2.084   4.793   1.253  0.5221 -0.3877  0.3794
  294TIP3    H122517   2.012   4.804   1.316 -0.1141 -0.7546 -0.2777
  294TIP3    H222518   2.107   4.882   1.227  0.3843 -0.2640  0.6771
  295TIP3   OH222519   5.854   0.399   0.956  0.2322 -0.6738 -0.2264
  295TIP3    H122520   5.781   0.377   0.898  0.3087 -0.3612 -0.4407
  295TIP3    H222521   5.931   0.402   0.899  0.1956  0.3262 -0.2308
  296TIP3   OH222522   6.352   6.335   0.125 -0.5281 -0.2574 -0.7377
  296TIP3    H122523   6.414   6.338   0.198  2.0776  1.3340 -2.8234
  296TIP3    H222524   6.283   6.275   0.155  1.5427 -1.4966  2.0893
  297TIP3   OH222525   3.641   3.504   0.145  0.2018  0.8954  0.0145
  297TIP3    H122526   3.594   3.537   0.222 -0.0005  0.1588  0.2086
  297TIP3    H222527   3.703   3.574   0.124 -0.3909  1.5094  0.2674
  298TIP3   OH222528   0.051   2.646   7.651  0.2158  0.1270  0.6144
  298TIP3    H122529   0.103   2.604   7.582  1.5206  0.3301  1.4435
  298TIP3    H222530  -0.039   2.635   7.622  0.6784 -0.6961 -0.6220
  299TIP3   OH222531   5.707   3.275   8.674  0.1610  0.2472  0.6101
  299TIP3    H122532   5.633   3.335   8.685  0.5547  0.4223  2.6867
  299TIP3    H222533   5.676   3.193   8.712  1.0193  0.3082  1.4569
  300TIP3   OH222534   0.259   3.877   3.629  0.6558 -0.2409 -0.7764
  300TIP3    H122535   0.214   3.793   3.634 -0.1563  0.2505  0.6514
  300TIP3    H222536   0.189   3.941   3.618  0.9806  0.5050  1.0854
  301TIP3   OH222537   1.747   6.241   3.166 -0.4375  0.6555 -0.1966
  301TIP3    H122538   1.769   6.172   3.229 -0.5267  1.3595  0.6284
  301TIP3    H222539   1.689   6.198   3.103 -0.2572 -0.0966  0.1320
  302TIP3   OH222540   4.061   1.149   0.106  0.1057 -0.0556  0.1699
  302TIP3    H122541   4.042   1.127   0.015  1.5107 -0.4392 -0.0397
  302TIP3    H222542   3.990   1.209   0.130 -1.8294 -1.9751 -0.3239
  303TIP3   OH222543   2.333   6.601   1.547  0.0450 -0.3496  0.2958
  303TIP3    H122544   2.401   6.608   1.613 -1.1672  0.4439  1.5156
  303TIP3    H222545   2.358   6.663   1.479  1.2987 -1.1588 -0.0038
  304TIP3   OH222546   5.233   3.561   8.168 -0.1859  0.1250 -0.0763
  304TIP3    H122547   5.318   3.604   8.169  0.0144 -0.1765 -1.4201
  304TIP3    H222548   5.171   3.632   8.147 -0.3004  0.3692  1.0307
  305TIP3   OH222549   1.362   4.220   1.259 -0.2486 -0.1844  0.2466
  305TIP3    H122550   1.447   4.175   1.263 -0.0129  0.1468 -0.7926
  305TIP3    H222551   1.298   4.150   1.257  0.0310 -0.4477  0.3719
  306TIP3   OH222552   0.939   3.051   2.231 -0.3440  0.1529  0.2976
  306TIP3    H122553   1.023   3.062   2.275 -1.0192 -1.1456  1.9986
  306TIP3    H222554   0.919   3.138   2.197  1.3310  0.6509  0.4909
  307TIP3   OH222555   0.251   2.680   1.409  0.1889  0.1369 -0.5525
  307TIP3    H122556   0.222   2.674   1.500 -2.2760  2.1642 -1.1009
  307TIP3    H222557   0.335   2.726   1.413  1.1078 -1.5551  0.7759
  308TIP3   OH222558   3.385   4.918   0.561 -0.4806 -0.0677  0.1220
  308TIP3    H122559   3.475   4.889   0.572 -0.5228  0.3021  1.7870
  308TIP3    H222560   3.380   4.949   0.471  0.4644 -2.0090 -0.6508
  309TIP3   OH222561   2.697   2.149   7.316 -0.1598  0.3827 -0.0892
  309TIP3    H122562   2.606   2.128   7.339  0.0872 -2.3887 -1.2432
  309TIP3    H222563   2.718   2.089   7.244  2.1385  1.9765 -0.8682
  310TIP3   OH222564   3.955   6.236   1.141 -0.1294 -0.3556  0.7159
  310TIP3    H122565   3.872   6.197   1.168  0.3131 -2.2172 -0.3688
  310TIP3    H222566   4.022   6.183   1.184  0.5383 -2.1678 -2.2437
  311TIP3   OH222567   6.105   4.396   8.674 -0.3216 -0.3295  0.0860
  311TIP3    H122568   6.114   4.477   8.724 -0.4230 -0.5163  0.4063
  311TIP3    H222569   6.021   4.359   8.703 -0.1291 -0.7050  0.1665
  312TIP3   OH222570   2.067   0.771   0.598 -0.0647  0.0234  0.1497
  312TIP3    H122571   2.083   0.679   0.579 -1.4595 -0.4241  1.0394
  312TIP3    H222572   2.060   0.812   0.512 -1.6387 -1.1297 -0.3290
  313TIP3   OH222573   6.181   1.384   0.710  0.0774  0.4769  0.0080
  313TIP3    H122574   6.224   1.421   0.633 -0.4225  1.0630  0.0013
  313TIP3    H222575   6.229   1.420   0.785 -0.4203  1.1683  0.0019
  314TIP3   OH222576   5.972   2.407   2.733  0.4983  0.2470 -0.1571
  314TIP3    H122577   6.067   2.400   2.742  0.5716  1.9445  0.9245
  314TIP3    H222578   5.959   2.460   2.654  0.3410 -1.8515 -1.5949
  315TIP3   OH222579   4.526   5.982   7.484 -0.3091 -0.8118 -0.1667
  315TIP3    H122580   4.509   6.072   7.456  1.3100 -0.6721 -0.8240
  315TIP3    H222581   4.442   5.951   7.517 -1.4105  0.2973 -1.7373
  316TIP3   OH222582   0.083   0.360   8.552  0.1845  0.1397 -0.2900
  316TIP3    H122583   0.114   0.279   8.510 -2.4909 -2.4802  2.2956
  316TIP3    H222584   0.095   0.427   8.485  4.2179 -1.9112 -2.0205
  317TIP3   OH222585   6.406   4.394   3.004 -0.6953  0.9196  0.2981
  317TIP3    H122586   6.348   4.326   3.037  1.4196 -1.3487 -0.4309
  317TIP3    H222587   6.450   4.428   3.082  0.7026 -0.9811  0.3899
  318TIP3   OH222588   4.713   0.815   7.178  0.1022  0.0876  0.2814
  318TIP3    H122589   4.717   0.854   7.265 -1.5738 -0.0788  0.4630
  318TIP3    H222590   4.799   0.774   7.166  0.8964  1.4118  1.2141
  319TIP3   OH222591   5.177   4.247   0.107 -0.2264 -0.3914 -0.0269
  319TIP3    H122592   5.081   4.246   0.096 -0.2666  0.6431  0.1596
  319TIP3    H222593   5.192   4.304   0.182  0.5442 -0.6022 -0.0123
  320TIP3   OH222594   4.533   4.349   1.497  0.0652 -0.0267 -0.2438
  320TIP3    H122595   4.564   4.283   1.434  0.2940 -0.0767 -0.0821
  320TIP3    H222596   4.608   4.363   1.554  0.3012  0.9817 -0.7731
  321TIP3   OH222597   2.451   2.473   0.332 -0.4796 -0.1587  0.4690
  321TIP3    H122598   2.365   2.510   0.309 -0.6656 -0.3673  0.8182
  321TIP3    H222599   2.481   2.430   0.251 -0.9324 -0.5136  0.4807
  322TIP3   OH222600   4.768   3.605   1.538 -0.3519 -0.3947 -0.1823
  322TIP3    H122601   4.781   3.606   1.443  0.8966 -0.6773 -0.0322
  322TIP3    H222602   4.729   3.520   1.556 -1.4795  0.0262 -0.5286
  323TIP3   OH222603   5.799   1.172   3.199  0.4738 -0.0076  0.7076
  323TIP3    H122604   5.795   1.124   3.281  0.0944 -0.5041  0.4052
  323TIP3    H222605   5.779   1.107   3.132 -1.6165  0.8751  0.4051
  324TIP3   OH222606   4.552   0.515   2.795  0.3370  0.3717 -0.1394
  324TIP3    H122607   4.567   0.421   2.785  0.1612  0.2988  0.2787
  324TIP3    H222608   4.638   0.551   2.814  0.0525 -0.0484  2.2737
  325TIP3   OH222609   2.233   2.571   7.271 -0.4884  0.0077  0.0565
  325TIP3    H122610   2.251   2.665   7.283 -3.4621  0.6410  0.2350
  325TIP3    H222611   2.150   2.568   7.223 -0.8726 -2.5429  0.7379
  326TIP3   OH222612   1.796   2.053   0.710 -0.0803  0.0327  0.2710
  326TIP3    H122613   1.802   2.091   0.798 -0.7972 -1.8339  1.2008
  326TIP3    H222614   1.706   2.020   0.705 -1.0665  2.6680 -2.3567
  327TIP3   OH222615   0.522   2.105   2.950  0.0907 -0.7820  0.2405
  327TIP3    H122616   0.443   2.054   2.968  1.1515 -2.4381  0.5157
  327TIP3    H222617   0.564   2.114   3.035 -0.1030  0.6511  0.1991
  328TIP3   OH222618   0.775   6.103   1.624  0.2880  0.3804  0.3896
  328TIP3    H122619   0.734   6.164   1.685 -0.0121  0.8653 -0.2897
  328TIP3    H222620   0.733   6.121   1.540  1.0371  0.0502 -0.0624
  329TIP3   OH222621   5.162   6.638   8.461 -0.5582 -0.3514 -0.5512
  329TIP3    H122622   5.079   6.596   8.484 -0.7711  0.4671  0.2462
  329TIP3    H222623   5.222   6.613   8.531 -0.2979 -0.4716 -0.8194
  330TIP3   OH222624   1.354   1.084   0.594 -0.7861 -0.3637 -0.6015
  330TIP3    H122625   1.387   1.079   0.505 -1.2930  0.4058 -0.8474
  330TIP3    H222626   1.420   1.132   0.642 -0.2510 -1.2565 -0.4178
  331TIP3   OH222627   5.086   1.480   7.095 -0.3668 -0.3010  0.1260
  331TIP3    H122628   5.018   1.538   7.061 -0.0477 -0.4610 -0.8184
  331TIP3    H222629   5.062   1.393   7.064 -0.2041 -0.4964  0.5334
  332TIP3   OH222630   1.887   2.628   8.780 -0.1624 -0.0072  0.5649
  332TIP3    H122631   1.855   2.585   8.860  0.8469 -0.2378  0.8630
  332TIP3    H222632   1.982   2.631   8.792 -0.1449  1.5102  0.1332
  333TIP3   OH222633   1.860   5.604   1.549 -0.2798 -0.0481 -0.0762
  333TIP3    H122634   1.812   5.531   1.509  3.6903 -3.1723  0.2921
  333TIP3    H222635   1.837   5.600   1.642 -0.2628 -0.6888 -0.0946
  334TIP3   OH222636   2.239   6.145   8.541  0.2042 -0.4395 -0.3288
  334TIP3    H122637   2.268   6.054   8.543  2.5123  0.2199 -0.3342
  334TIP3    H222638   2.204   6.161   8.628  1.2032 -0.9507  0.1895
  335TIP3   OH222639   2.807   0.553   1.023  0.0320 -0.4120 -0.4585
  335TIP3    H122640   2.798   0.615   0.950 -0.4692 -1.0776 -0.9829
  335TIP3    H222641   2.851   0.602   1.092  0.6967  0.1858 -1.2842
  336TIP3   OH222642   3.009   0.950   2.198  0.3689 -0.3364  0.1715
  336TIP3    H122643   3.068   0.955   2.123 -2.5886 -0.7010 -2.3935
  336TIP3    H222644   2.977   0.860   2.197 -1.9456  0.4201 -0.0663
  337TIP3   OH222645   3.618   1.371   2.609 -0.3097 -0.2988  0.1808
  337TIP3    H122646   3.672   1.298   2.578  0.6298 -0.3320  1.8164
  337TIP3    H222647   3.601   1.351   2.701 -1.0841  0.9349  0.3267
  338TIP3   OH222648   3.923   5.499   3.063 -0.1803 -0.0943  0.4269
  338TIP3    H122649   3.947   5.514   2.972 -1.4250  1.1096  0.2642
  338TIP3    H222650   4.002   5.464   3.104  0.7695  0.5362 -0.8252
  339TIP3   OH222651   0.590   6.668   8.748  0.1173  0.6529 -0.2579
  339TIP3    H122652   0.634   6.600   8.799 -1.0581 -0.1856 -0.3350
  339TIP3    H222653   0.548   6.622   8.676  2.3811  1.8828 -2.5511
  340TIP3   OH222654   4.211   3.208   0.868  0.0270  0.0541 -0.7852
  340TIP3    H122655   4.272   3.252   0.927  0.6041 -1.4577 -0.1978
  340TIP3    H222656   4.196   3.270   0.797  0.0613  1.5472  0.4676
  341TIP3   OH222657   4.211   5.602   1.718  0.1332  0.5842  0.6152
  341TIP3    H122658   4.237   5.526   1.665 -0.4233  0.0440  1.0885
  341TIP3    H222659   4.131   5.634   1.676 -0.8722 -0.4512  1.6559
  342TIP3   OH222660   0.698   5.649   0.498 -0.4827  0.2310  0.1549
  342TIP3    H122661   0.605   5.627   0.504 -0.4797  0.4599  1.6482
  342TIP3    H222662   0.744   5.569   0.525 -0.2269  0.0157 -0.8951
  343TIP3   OH222663   0.247   4.610   2.863  0.7553  0.1769 -0.0174
  343TIP3    H122664   0.193   4.571   2.932 -0.6195 -0.4561 -1.3920
  343TIP3    H222665   0.328   4.558   2.865  0.1543 -0.7888  0.1673
  344TIP3   OH222666   4.021   1.900   1.908 -0.3262  1.0293  0.3686
  344TIP3    H122667   3.927   1.904   1.891 -0.3159 -0.4021 -0.1079
  344TIP3    H222668   4.059   1.874   1.825  0.8643  4.5214 -0.3574
  345TIP3   OH222669   3.929   0.882   1.474  0.3036  0.0592 -0.6545
  345TIP3    H122670   3.998   0.918   1.530 -0.0422 -0.1461 -0.0860
  345TIP3    H222671   3.930   0.938   1.396  2.1647 -0.9139 -1.3780
  346TIP3   OH222672   4.675   5.317   1.543 -0.2586 -0.0030  0.3693
  346TIP3    H122673   4.620   5.394   1.532  0.0722  0.5784  2.4775
  346TIP3    H222674   4.752   5.334   1.488 -1.0920  0.2157 -0.7694
  347TIP3   OH222675   3.045   6.790   1.793 -0.4100  0.5311  0.0880
  347TIP3    H122676   3.140   6.796   1.796 -0.3589  0.6352 -1.1469
  347TIP3    H222677   3.014   6.863   1.846  0.1524 -1.4139  3.3674
  348TIP3   OH222678   1.531   4.200   1.672  0.2029 -0.2617 -0.3350
  348TIP3    H122679   1.474   4.178   1.746 -0.1941 -0.0144 -0.5587
  348TIP3    H222680   1.519   4.127   1.611  0.2918 -0.3161 -0.2872
  349TIP3   OH222681   1.280   3.833   0.666 -0.1550  0.4289  0.1848
  349TIP3    H122682   1.278   3.779   0.745 -1.5949  0.8850  0.4819
  349TIP3    H222683   1.294   3.770   0.595  2.7077  0.1505  0.8439
  350TIP3   OH222684   0.312   0.422   0.197 -0.0266 -0.6231  0.4334
  350TIP3    H122685   0.238   0.410   0.138  0.3138  1.4028 -0.5030
  350TIP3    H222686   0.389   0.402   0.143  0.1789 -1.0684  0.8918
  351TIP3   OH222687   3.118   5.700   3.096 -0.1771  0.2139 -0.0483
  351TIP3    H122688   3.115   5.767   3.164  0.6685 -0.8734  1.1160
  351TIP3    H222689   3.132   5.618   3.144  0.0960 -0.6333 -1.5144
  352TIP3   OH222690   2.179   1.257   0.787  0.1183 -0.2056  0.1489
  352TIP3    H122691   2.137   1.333   0.746 -0.3079  0.4888  1.7792
  352TIP3    H222692   2.134   1.181   0.749 -0.9288  0.4416  0.0363
  353TIP3   OH222693   6.631   6.105   7.753  0.1447 -0.3334  0.2499
  353TIP3    H122694   6.629   6.140   7.664  0.0948 -0.5305  0.1724
  353TIP3    H222695   6.720   6.070   7.763  0.5883  0.8645  0.7414
  354TIP3   OH222696   1.612   1.033   1.741 -0.4293 -0.3204 -0.1540
  354TIP3    H122697   1.697   1.047   1.782  0.9681 -1.0440 -2.5916
  354TIP3    H222698   1.595   1.114   1.693 -0.1884 -0.8760 -1.1914
  355TIP3   OH222699   4.286   3.300   8.716 -0.2959 -0.4775 -0.3227
  355TIP3    H122700   4.338   3.347   8.782 -0.3347  0.5492 -0.9893
  355TIP3    H222701   4.262   3.218   8.758 -0.6797  0.3298  1.1120
  356TIP3   OH222702   2.864   0.769   0.884 -0.7534  0.2275 -0.2523
  356TIP3    H122703   2.948   0.814   0.899 -0.2694 -0.5092 -0.6807
  356TIP3    H222704   2.830   0.808   0.803  1.4531 -2.6259 -2.7742
  357TIP3   OH222705   2.209   1.331   7.548 -0.0059  0.0281  0.5287
  357TIP3    H122706   2.271   1.334   7.475  0.5722 -1.4453  0.9246
  357TIP3    H222707   2.247   1.388   7.614  0.9551 -0.8477  0.7599
  358TIP3   OH222708   3.898   0.345   8.184 -0.3941 -0.3939  0.4742
  358TIP3    H122709   3.914   0.430   8.226  1.2219 -1.5757  2.4494
  358TIP3    H222710   3.816   0.315   8.222 -1.6245  0.7204 -1.1322
  359TIP3   OH222711   4.560   1.794   8.546 -0.0948 -0.4065  0.0340
  359TIP3    H122712   4.635   1.833   8.501 -0.4858  1.2828  0.7914
  359TIP3    H222713   4.514   1.746   8.478  0.2083  0.7637 -1.0263
  360TIP3   OH222714   3.794   4.870   8.480 -0.1111 -0.0623 -0.8242
  360TIP3    H122715   3.868   4.848   8.423  1.6424  0.2332  1.2313
  360TIP3    H222716   3.757   4.786   8.505 -0.2075 -0.2289 -1.4943
  361TIP3   OH222717   2.133   1.860   1.586 -0.0812  0.1706  0.3648
  361TIP3    H122718   2.146   1.798   1.658  0.5870 -0.8878 -0.6230
  361TIP3    H222719   2.221   1.894   1.567 -0.0769 -0.3202 -0.5801
  362TIP3   OH222720   5.599   6.512   1.809 -0.6386 -0.0790 -0.1217
  362TIP3    H122721   5.586   6.440   1.871  4.6116 -1.8129 -0.5714
  362TIP3    H222722   5.625   6.586   1.864  1.2586 -0.8120  0.0461
  363TIP3   OH222723   5.179   4.884   7.908 -0.1535 -0.2978  0.2114
  363TIP3    H122724   5.176   4.973   7.872 -0.2082 -0.3837  0.0052
  363TIP3    H222725   5.124   4.832   7.849 -0.8352 -0.2925  0.8223
  364TIP3   OH222726   6.858   4.589   1.955 -0.3629  0.1244  0.5504
  364TIP3    H122727   6.856   4.667   1.900 -1.5778 -0.5349 -0.3552
  364TIP3    H222728   6.912   4.526   1.907  0.0371  0.1424  0.9576
  365TIP3   OH222729   2.985   0.923   3.018  0.0251 -0.5935  0.0225
  365TIP3    H122730   2.976   0.892   3.108  1.2190 -1.9614 -0.3053
  365TIP3    H222731   2.957   0.850   2.964  1.5253 -0.6297 -0.7463
  366TIP3   OH222732   0.298   2.585   2.388 -0.2078  0.1428  0.5836
  366TIP3    H122733   0.215   2.605   2.345 -0.1795 -1.0669 -0.0505
  366TIP3    H222734   0.345   2.669   2.387 -1.1621  0.6985  0.4079
  367TIP3   OH222735   2.632   5.696   2.864  0.0175 -0.3441  0.2636
  367TIP3    H122736   2.607   5.706   2.956 -1.4013 -1.2042  0.0051
  367TIP3    H222737   2.721   5.661   2.867  0.6671  1.2465  1.2557
  368TIP3   OH222738   4.233   4.899   0.229  0.1937  0.9632  0.4077
  368TIP3    H122739   4.182   4.974   0.197 -1.6717  0.7695  2.6928
  368TIP3    H222740   4.168   4.837   0.261  1.6799 -1.7398 -1.3796
  369TIP3   OH222741   2.749   2.725   1.904 -0.6725  0.1814  0.3420
  369TIP3    H122742   2.701   2.663   1.849  2.3226 -0.9457 -1.2311
  369TIP3    H222743   2.722   2.704   1.994 -1.1152 -2.1770 -0.2923
  370TIP3   OH222744   1.602   3.326   1.669 -0.4938 -0.1475 -0.1136
  370TIP3    H122745   1.662   3.253   1.659  1.4233  1.3166  0.0825
  370TIP3    H222746   1.594   3.363   1.581 -0.5307  0.0894 -0.0124
  371TIP3   OH222747   4.248   5.575   8.772  0.0295 -0.5636  0.2287
  371TIP3    H122748   4.330   5.620   8.793 -0.8029  0.7487  0.7951
  371TIP3    H222749   4.181   5.643   8.779 -1.0113 -1.4036 -1.1281
  372TIP3   OH222750   0.347   1.862   8.512  0.0367  0.3342  0.2315
  372TIP3    H122751   0.261   1.901   8.524  0.0126  0.7822 -1.2088
  372TIP3    H222752   0.344   1.780   8.560 -0.9022  0.7358  0.8804
  373TIP3   OH222753   3.882   4.232   7.439  0.3397 -0.2771  0.4385
  373TIP3    H122754   3.951   4.245   7.503 -0.2931  0.8680  0.9253
  373TIP3    H222755   3.836   4.316   7.437  0.2982 -0.3210 -1.4695
  374TIP3   OH222756   0.805   3.978   1.775 -0.0663 -0.6598  0.1725
  374TIP3    H122757   0.819   4.039   1.703  1.1774 -0.7210  0.3350
  374TIP3    H222758   0.748   3.911   1.739  1.9613 -1.6587 -1.3668
  375TIP3   OH222759   5.021   0.075   7.298  0.1806  0.3599 -0.0596
  375TIP3    H122760   5.046   0.011   7.230 -1.0084 -1.2856  0.9666
  375TIP3    H222761   5.011   0.157   7.251 -1.3892 -0.8885 -2.0707
  376TIP3   OH222762   3.338   0.398   7.923 -0.3493 -0.4648 -0.0926
  376TIP3    H122763   3.316   0.397   7.830 -1.9436 -0.3775  0.2569
  376TIP3    H222764   3.356   0.490   7.942 -0.0451 -0.4792 -0.3049
  377TIP3   OH222765   2.593   0.848   2.997  0.1562 -0.0470  0.4930
  377TIP3    H122766   2.604   0.785   2.926 -0.1098 -0.2020  0.5876
  377TIP3    H222767   2.598   0.934   2.955 -2.6563 -0.0962 -0.1767
  378TIP3   OH222768   4.898   0.968   2.495  0.2568  0.2286  0.2083
  378TIP3    H122769   4.864   1.057   2.480  1.0488  0.8021  1.6936
  378TIP3    H222770   4.830   0.926   2.547 -1.4816 -1.0650 -2.7948
  379TIP3   OH222771   1.974   1.353   2.826  0.4173  0.4311 -0.2294
  379TIP3    H122772   1.917   1.309   2.763  0.2918  1.2701 -0.7220
  379TIP3    H222773   2.003   1.284   2.885 -1.8063  0.1078  0.5687
  380TIP3   OH222774   3.652   1.107   0.088  0.3934  0.2472  0.7357
  380TIP3    H122775   3.564   1.124   0.123 -0.1184 -0.2934 -0.2373
  380TIP3    H222776   3.681   1.028   0.133 -1.4044 -2.1122 -1.8799
  381TIP3   OH222777   2.723   3.473   8.228  0.1914 -0.1105  0.1489
  381TIP3    H122778   2.708   3.566   8.207 -1.4573 -0.1918  0.7788
  381TIP3    H222779   2.671   3.458   8.307 -0.3552 -1.7941 -0.4761
  382TIP3   OH222780   5.813   1.839   2.495 -0.1860 -0.0927  0.7218
  382TIP3    H122781   5.753   1.913   2.490 -2.0531 -1.5874 -0.3529
  382TIP3    H222782   5.762   1.764   2.465  2.9843 -1.0035 -3.4334
  383TIP3   OH222783   3.897   5.342   2.194  0.4356 -0.0984  0.2583
  383TIP3    H122784   3.952   5.319   2.119 -0.3271 -1.8000  0.1852
  383TIP3    H222785   3.959   5.368   2.262  1.2130  0.0880 -0.5009
  384TIP3   OH222786   3.357   5.769   7.885  0.0482  0.3219 -0.3696
  384TIP3    H122787   3.274   5.721   7.876 -0.3335  0.9287 -0.1334
  384TIP3    H222788   3.390   5.777   7.795 -0.0240 -0.1233 -0.4415
  385TIP3   OH222789   5.726   1.994   1.095 -0.1307 -0.0062  0.2163
  385TIP3    H122790   5.769   2.042   1.025  0.2149  0.4330  0.7263
  385TIP3    H222791   5.666   2.057   1.134  1.2470  0.4406  1.7242
  386TIP3   OH222792   5.126   4.082   2.306 -0.4052  0.1474 -0.7217
  386TIP3    H122793   5.111   4.018   2.237  0.3043  0.0011 -0.7543
  386TIP3    H222794   5.119   4.167   2.261 -1.3291  0.1039 -0.6800
  387TIP3   OH222795   1.362   1.683   7.751  0.5879  0.4034 -0.1286
  387TIP3    H122796   1.374   1.691   7.846 -0.1388 -0.2742  0.0370
  387TIP3    H222797   1.288   1.742   7.732  0.4856  0.2490 -0.2083
  388TIP3   OH222798   1.566   5.145   0.990 -0.0101  0.3379  0.5434
  388TIP3    H122799   1.504   5.072   0.992 -0.1777  0.4593  0.0229
  388TIP3    H222800   1.530   5.210   1.049  0.3659 -0.1751  1.3575
  389TIP3   OH222801   6.408   2.979   2.501  0.3192 -0.4678 -0.6266
  389TIP3    H122802   6.368   2.980   2.414  0.1831  0.1907 -0.5607
  389TIP3    H222803   6.394   3.067   2.535  0.9345 -0.5359 -0.1875
  390TIP3   OH222804   6.528   4.471   2.670  0.1161  0.4849  0.7219
  390TIP3    H122805   6.435   4.493   2.672  0.2179  0.9102  1.1213
  390TIP3    H222806   6.570   4.552   2.639  0.2351 -0.1492 -0.8573
  391TIP3   OH222807   6.167   6.473   8.245 -0.0776  0.2063 -0.8594
  391TIP3    H122808   6.128   6.397   8.202 -0.0004  1.1285 -2.6320
  391TIP3    H222809   6.236   6.437   8.300 -0.1905 -1.0270 -1.4990
  392TIP3   OH222810   1.799   4.327   1.032 -0.1409  0.5131 -0.9421
  392TIP3    H122811   1.811   4.373   1.115  0.8019  0.4742 -1.0547
  392TIP3    H222812   1.824   4.237   1.049 -1.7863  0.0600 -0.7817
  393TIP3   OH222813   2.681   3.470   0.759 -0.5395  0.2564 -0.2197
  393TIP3    H122814   2.661   3.460   0.852 -0.3303 -1.9414 -0.3687
  393TIP3    H222815   2.604   3.513   0.722 -1.7289 -1.1182  0.5688
  394TIP3   OH222816   3.406   0.077   1.473 -0.5683 -0.3430 -0.2920
  394TIP3    H122817   3.339   0.094   1.407 -0.7875  0.8654  0.2285
  394TIP3    H222818   3.373   0.001   1.521 -1.5226  0.1739 -0.1147
  395TIP3   OH222819   2.447   3.447   3.204  0.9029  0.2418 -0.1882
  395TIP3    H122820   2.414   3.358   3.201  1.4451  0.0649 -1.9437
  395TIP3    H222821   2.368   3.502   3.200  0.6373 -0.1812 -1.2664
  396TIP3   OH222822   6.526   6.076   2.943 -0.2755 -0.8767  0.1741
  396TIP3    H122823   6.610   6.087   2.987 -0.4372  1.4445  0.0358
  396TIP3    H222824   6.477   6.155   2.967 -2.0546 -1.7257 -0.5416
  397TIP3   OH222825   1.650   1.670   8.533 -0.1325  0.2798  0.1023
  397TIP3    H122826   1.726   1.634   8.578  0.0296  1.7240  1.0280
  397TIP3    H222827   1.579   1.662   8.597 -0.6294 -0.4640 -0.5208
  398TIP3   OH222828   5.466   4.652   1.061 -0.1329 -0.6215  0.1261
  398TIP3    H122829   5.435   4.704   1.135  2.6845  0.5382  0.6412
  398TIP3    H222830   5.488   4.567   1.099  2.6998  0.4208  1.1005
  399TIP3   OH222831   4.828   2.432   2.183 -0.2145 -0.5067 -0.1235
  399TIP3    H122832   4.876   2.411   2.264 -1.0332  0.2210  0.5641
  399TIP3    H222833   4.810   2.525   2.190 -0.7938 -0.5573 -0.8868
  400TIP3   OH222834   2.810   1.101   8.011 -0.5519 -0.0116 -0.1763
  400TIP3    H122835   2.785   1.177   7.960 -1.7769 -0.0976  0.2752
  400TIP3    H222836   2.898   1.080   7.980 -0.1400  1.6477 -0.2098
  401TIP3   OH222837   1.850   2.709   0.649 -0.2096 -0.2481 -0.2663
  401TIP3    H122838   1.780   2.767   0.678 -0.8154 -1.1956  0.2075
  401TIP3    H222839   1.931   2.758   0.667 -0.7434  1.3114 -1.8014
  402TIP3   OH222840   1.571   0.378   1.349  0.3939 -0.1387 -0.1854
  402TIP3    H122841   1.552   0.472   1.343 -2.1930 -0.4311  1.7296
  402TIP3    H222842   1.555   0.356   1.441  0.1330 -2.5914 -0.7444
  403TIP3   OH222843   6.825   4.909   2.061 -0.3863 -0.1197 -0.5255
  403TIP3    H122844   6.916   4.881   2.070  0.0066 -0.2179 -3.7528
  403TIP3    H222845   6.830   5.002   2.041 -1.1201  0.1975  0.6718
  404TIP3   OH222846   4.210   3.011   2.922 -0.5700 -0.4574  0.4794
  404TIP3    H122847   4.251   3.057   2.995 -0.4531 -0.6623  0.5436
  404TIP3    H222848   4.283   2.982   2.868 -0.4484 -3.1684  1.9784
  405TIP3   OH222849   4.844   0.727   3.262 -0.1241 -0.4812  0.8172
  405TIP3    H122850   4.887   0.761   3.340 -2.6150  0.5574  1.8431
  405TIP3    H222851   4.774   0.790   3.244  1.2465  0.1767 -3.2080
  406TIP3   OH222852   3.955   1.077   1.290 -0.1487  0.7147  0.3686
  406TIP3    H122853   3.991   1.121   1.213 -1.2925  0.6140 -0.2490
  406TIP3    H222854   3.890   1.138   1.325 -0.9216  0.0247  0.1790
  407TIP3   OH222855   3.856   4.276   0.461  0.0130  0.1934 -0.1716
  407TIP3    H122856   3.778   4.330   0.471 -0.1012 -0.2397  1.5526
  407TIP3    H222857   3.831   4.191   0.497  1.1684 -0.0594  0.0693
  408TIP3   OH222858   0.458   6.858   7.320 -0.0916 -0.1808  0.0160
  408TIP3    H122859   0.390   6.921   7.295 -1.1723 -0.9167  0.9535
  408TIP3    H222860   0.418   6.773   7.302  0.6182 -0.6268  0.5025
  409TIP3   OH222861   0.144   2.219   8.549  0.2132  0.1889  0.3494
  409TIP3    H122862   0.147   2.315   8.551 -2.9714  0.5226 -2.4158
  409TIP3    H222863   0.165   2.196   8.458  0.1916 -1.6927  0.7731
  410TIP3   OH222864   0.538   3.989   1.405  0.2868 -1.0405  0.0797
  410TIP3    H122865   0.516   4.072   1.448 -0.2786 -2.0924  1.9208
  410TIP3    H222866   0.477   3.925   1.442  1.1399 -2.4348 -0.8112
  411TIP3   OH222867   5.340   5.728   1.266 -0.3079  0.3301 -0.6956
  411TIP3    H122868   5.278   5.714   1.194  1.0913  2.8514 -2.5312
  411TIP3    H222869   5.426   5.729   1.225  0.6023  1.3668  1.0910
  412TIP3   OH222870   2.351   3.495   7.881  0.2030  0.1473 -0.1862
  412TIP3    H122871   2.431   3.458   7.919  0.0683  2.1688  2.3969
  412TIP3    H222872   2.382   3.560   7.818  0.5819  0.2311  0.0856
  413TIP3   OH222873   4.277   2.245   2.453 -0.0987  0.4410  0.3587
  413TIP3    H122874   4.253   2.179   2.518  0.3859  2.6284  2.8936
  413TIP3    H222875   4.195   2.288   2.430  0.1652  2.3999  2.7552
  414TIP3   OH222876   1.965   6.074   0.350 -0.2054  0.3377 -0.1177
  414TIP3    H122877   1.968   6.132   0.427 -0.8360  0.2307 -0.0050
  414TIP3    H222878   1.913   6.123   0.286 -1.1403 -0.2938  0.1460
  415TIP3   OH222879   1.118   1.602   0.884  0.0547  0.2796 -0.3348
  415TIP3    H122880   1.209   1.581   0.862  0.3237 -0.4601  1.3136
  415TIP3    H222881   1.097   1.542   0.957 -1.1920  1.6010  0.4392
  416TIP3   OH222882   6.656   4.240   1.065 -0.0110 -0.1988 -0.6497
  416TIP3    H122883   6.728   4.269   1.121  1.2359 -0.1598 -2.1820
  416TIP3    H222884   6.578   4.252   1.118  1.0540  0.2940  0.8859
  417TIP3   OH222885   0.482   6.367   7.263 -0.1182 -0.3196  0.1052
  417TIP3    H122886   0.498   6.382   7.356 -1.3483  0.1928  0.2520
  417TIP3    H222887   0.545   6.423   7.218  0.0446 -0.0684  0.6366
  418TIP3   OH222888   0.717   5.267   8.067  0.8200 -0.5445  0.0419
  418TIP3    H122889   0.699   5.358   8.041 -1.3287 -1.2802 -1.3247
  418TIP3    H222890   0.758   5.228   7.990  1.0088 -0.9409  0.3417
  419TIP3   OH222891   5.827   6.315   8.711  0.0225  0.5766  0.0615
  419TIP3    H122892   5.899   6.346   8.657  0.0554 -0.3759 -0.4621
  419TIP3    H222893   5.849   6.345   8.799  1.8040 -0.8781  0.1845
  420TIP3   OH222894   4.145   2.065   1.079 -0.0233  0.7414  0.5417
  420TIP3    H122895   4.183   2.152   1.084  0.7329  0.5729 -1.5841
  420TIP3    H222896   4.217   2.008   1.053 -0.3449 -0.6934  2.5237
  421TIP3   OH222897   4.868   3.110   2.080  0.1380  0.3146 -0.2136
  421TIP3    H122898   4.867   3.158   2.163 -0.5747  1.4388 -0.8398
  421TIP3    H222899   4.960   3.107   2.055  0.3401  0.0826  0.5554
  422TIP3   OH222900   1.860   1.758   2.907  0.3336 -0.4202 -0.5343
  422TIP3    H122901   1.925   1.776   2.840  0.5429 -0.1130 -0.2542
  422TIP3    H222902   1.807   1.837   2.912 -0.5438 -0.9414 -1.2829
  423TIP3   OH222903   6.687   5.785   0.400 -0.0295 -0.1731  0.1962
  423TIP3    H122904   6.773   5.769   0.438 -0.5823  1.6181  2.3806
  423TIP3    H222905   6.652   5.697   0.383  1.5508 -0.9620  0.8285
  424TIP3   OH222906   3.701   5.651   0.564 -0.1033 -0.3174  0.0949
  424TIP3    H122907   3.750   5.575   0.530  0.0588  0.5970 -1.8337
  424TIP3    H222908   3.621   5.653   0.511  0.1318  1.1499 -0.2247
  425TIP3   OH222909   5.679   5.797   2.114  0.5393 -0.6302  0.1631
  425TIP3    H122910   5.617   5.805   2.041  0.0673  1.7863  0.7308
  425TIP3    H222911   5.756   5.757   2.075  0.7440  1.6565 -2.0453
  426TIP3   OH222912   2.180   0.285   8.523 -0.0035  0.5956 -0.5827
  426TIP3    H122913   2.116   0.222   8.557  0.8079  0.6264  1.1520
  426TIP3    H222914   2.212   0.245   8.442  0.2899 -1.1210  0.3180
  427TIP3   OH222915   0.649   5.166   2.336 -0.5018  0.1960  0.6218
  427TIP3    H122916   0.682   5.157   2.247 -2.5223 -0.4706 -0.1153
  427TIP3    H222917   0.727   5.163   2.391  0.7197 -0.3504 -1.0584
  428TIP3   OH222918   2.697   1.864   1.559 -0.2677 -0.6204  0.1293
  428TIP3    H122919   2.741   1.788   1.522 -0.1338 -0.0882 -0.8681
  428TIP3    H222920   2.762   1.905   1.616  0.9194  0.6380 -1.9865
  429TIP3   OH222921   4.027   2.836   8.220 -0.3579 -0.4391  0.6044
  429TIP3    H122922   4.071   2.916   8.248 -2.6297  0.6322  1.4212
  429TIP3    H222923   4.057   2.822   8.130  1.5756  0.1701  1.1042
  430TIP3   OH222924   6.147   5.402   7.803 -0.1839  0.1020  0.1619
  430TIP3    H122925   6.209   5.440   7.742  0.7287 -1.5053  0.0277
  430TIP3    H222926   6.194   5.328   7.842 -1.1854  0.2957  1.8533
  431TIP3   OH222927   5.578   2.968   3.030 -0.7799 -0.0247 -0.3440
  431TIP3    H122928   5.611   3.025   3.100 -1.0136 -1.2159  0.7613
  431TIP3    H222929   5.657   2.932   2.989 -0.5797  1.8061 -1.7372
  432TIP3   OH222930   6.164   0.937   6.965 -0.0213  0.1121  0.4195
  432TIP3    H122931   6.241   0.957   6.911  0.7858  1.0016  1.8231
  432TIP3    H222932   6.189   0.965   7.053 -1.6158 -0.4802  1.0988
  433TIP3   OH222933   1.984   6.788   1.270 -0.0838  0.2654 -0.4095
  433TIP3    H122934   2.034   6.817   1.347  2.3482  0.0288 -1.8264
  433TIP3    H222935   2.039   6.722   1.229 -1.8439 -0.4126 -1.7959
  434TIP3   OH222936   5.749   3.004   3.794  0.1655 -0.1074 -0.2808
  434TIP3    H122937   5.816   2.950   3.835  1.0246  1.0304 -0.1533
  434TIP3    H222938   5.700   2.943   3.739  0.9837 -1.0553  0.0109
  435TIP3   OH222939   4.907   1.241   0.240 -0.2154 -0.1540 -0.0983
  435TIP3    H122940   4.846   1.300   0.284  0.3099  1.1021 -0.9896
  435TIP3    H222941   4.936   1.290   0.163  0.7031 -1.3546 -0.5418
  436TIP3   OH222942   4.578   1.194   8.274 -0.3449  0.4663  0.2657
  436TIP3    H122943   4.608   1.159   8.358 -2.0302  0.6591  0.9990
  436TIP3    H222944   4.658   1.213   8.225  0.7220  1.2154  2.1988
  437TIP3   OH222945   4.923   1.552   0.330  0.4880 -0.1907 -0.3686
  437TIP3    H122946   4.899   1.638   0.365  1.6793  0.1726 -0.4170
  437TIP3    H222947   4.854   1.493   0.362 -0.5370  0.8278 -0.6282
  438TIP3   OH222948   3.075   1.722   2.592 -0.7795 -0.0291 -0.2584
  438TIP3    H122949   3.107   1.806   2.558  3.2750 -1.4096 -0.4240
  438TIP3    H222950   3.095   1.726   2.685 -0.5072 -0.8290 -0.2817
  439TIP3   OH222951   6.202   6.174   2.293  0.2499  0.1812 -0.4358
  439TIP3    H122952   6.121   6.215   2.323 -0.2378 -1.3760  0.4972
  439TIP3    H222953   6.177   6.128   2.213  0.3450  0.1616 -0.4544
  440TIP3   OH222954   2.679   6.692   8.709 -1.3839  0.1374  0.5319
  440TIP3    H122955   2.624   6.705   8.787 -0.4428  2.4200  0.8935
  440TIP3    H222956   2.700   6.598   8.710 -2.2178 -0.0845  2.4557
  441TIP3   OH222957   4.218   2.243   1.588  0.4418  0.8170  0.2628
  441TIP3    H122958   4.284   2.251   1.520  0.4892  0.1705  0.2201
  441TIP3    H222959   4.220   2.150   1.613 -0.4805  0.7751  0.2249
  442TIP3   OH222960   6.102   3.430   1.833  0.3517 -0.0991 -0.2254
  442TIP3    H122961   6.039   3.405   1.766  0.8340  1.4211 -1.2906
  442TIP3    H222962   6.187   3.404   1.797  0.6123  0.6763 -0.1743
  443TIP3   OH222963   5.786   4.301   0.970  0.0311 -0.1768 -0.2407
  443TIP3    H122964   5.747   4.305   1.057 -0.8861 -0.1393 -0.6418
  443TIP3    H222965   5.842   4.379   0.965 -0.3756  0.1395  0.1029
  444TIP3   OH222966   0.254   1.448   1.812 -0.0712 -0.5488  0.0620
  444TIP3    H122967   0.178   1.430   1.866 -0.4845 -2.2266 -1.0131
  444TIP3    H222968   0.329   1.424   1.867 -0.3532 -0.0586  0.6774
  445TIP3   OH222969   4.325   1.091   1.438 -0.3070 -0.0695  0.1031
  445TIP3    H122970   4.369   1.050   1.512 -0.7633  0.1936  0.5231
  445TIP3    H222971   4.297   1.177   1.471 -3.4872 -1.2196  0.7012
  446TIP3   OH222972   6.790   0.142   1.880  0.5618 -0.2411  0.1545
  446TIP3    H122973   6.710   0.193   1.884  0.0941 -1.0429  1.7823
  446TIP3    H222974   6.808   0.132   1.786 -0.5898  0.9061 -0.2106
  447TIP3   OH222975   0.620   6.147   8.481 -0.3683 -0.5567  0.0033
  447TIP3    H122976   0.546   6.089   8.464 -0.8306  0.0145  0.0394
  447TIP3    H222977   0.646   6.127   8.571  0.9858 -2.3653 -0.7163
  448TIP3   OH222978   0.855   1.517   8.444 -0.2225  0.1677  0.3437
  448TIP3    H122979   0.761   1.525   8.463 -0.1220 -0.0259  0.9454
  448TIP3    H222980   0.883   1.442   8.495 -0.0193 -0.6684 -0.9571
  449TIP3   OH222981   3.231   2.002   0.245  0.2814  0.3008 -0.0269
  449TIP3    H122982   3.323   1.986   0.266  0.1468  0.2905  0.5760
  449TIP3    H222983   3.186   1.991   0.328 -0.4705 -1.1556 -0.5922
  450TIP3   OH222984   6.183   2.684   7.467 -0.3505  0.2199  0.1852
  450TIP3    H122985   6.141   2.609   7.424 -0.3251 -0.5035  1.3726
  450TIP3    H222986   6.119   2.755   7.460 -0.0354  0.3607 -1.6977
  451TIP3   OH222987   6.204   1.806   1.891 -0.2969  0.5442 -0.0899
  451TIP3    H122988   6.131   1.863   1.916 -1.1923 -1.3159  1.8153
  451TIP3    H222989   6.164   1.721   1.877  1.4595 -0.4523  0.6832
  452TIP3   OH222990   1.503   0.522   2.198 -0.0621  0.3919  0.0668
  452TIP3    H122991   1.521   0.455   2.132 -1.0666  0.3320 -0.1619
  452TIP3    H222992   1.443   0.480   2.259 -1.1832  1.2581 -0.4071
  453TIP3   OH222993   3.020   3.080   8.123 -0.0602  0.5851 -0.5302
  453TIP3    H122994   2.935   3.112   8.152  0.1803  0.4255  0.3624
  453TIP3    H222995   3.032   2.996   8.168  0.8404  0.8932 -0.1627
  454TIP3   OH222996   4.875   0.531   7.363 -0.4795 -0.0803  0.0391
  454TIP3    H122997   4.781   0.549   7.375 -0.1991  1.5721 -0.1135
  454TIP3    H222998   4.914   0.616   7.344  1.0358 -0.7812 -0.1174
  455TIP3   OH222999   5.336   3.524   0.133 -0.4404  0.1635 -0.5745
  455TIP3    H123000   5.280   3.601   0.122 -0.6764  0.1297  0.3135
  455TIP3    H223001   5.352   3.519   0.228 -3.2703 -2.8462 -0.1052
  456TIP3   OH223002   0.225   4.852   1.178 -0.3648  0.6257  0.0687
  456TIP3    H123003   0.233   4.769   1.225  0.3683  1.0128  0.6693
  456TIP3    H223004   0.303   4.856   1.122  0.6349  1.7353  1.4512
  457TIP3   OH223005   2.900   5.405   7.991 -0.0260 -0.4213 -0.2275
  457TIP3    H123006   2.920   5.491   7.954 -1.5988 -0.7288 -1.9567
  457TIP3    H223007   2.952   5.400   8.070  1.9935  1.1290 -1.3630
  458TIP3   OH223008   1.352   2.992   2.286 -0.1148  0.6738 -0.8719
  458TIP3    H123009   1.333   2.898   2.282 -1.2657  0.9277 -3.3232
  458TIP3    H223010   1.284   3.027   2.344  0.2433  0.0415 -0.0413
  459TIP3   OH223011   0.943   4.096   3.111  0.2530 -0.0014 -0.3452
  459TIP3    H123012   1.028   4.096   3.068  0.2130  1.5664 -0.4886
  459TIP3    H223013   0.910   4.185   3.099  0.7324  0.9420  3.8678
  460TIP3   OH223014   5.332   5.481   3.695  0.0085  0.3938  1.3232
  460TIP3    H123015   5.399   5.419   3.664 -0.3229  0.2599  0.8673
  460TIP3    H223016   5.382   5.548   3.742  0.8430  1.8740 -1.4520
  461TIP3   OH223017   5.142   2.837   1.625 -0.7113 -0.1171  0.3627
  461TIP3    H123018   5.193   2.775   1.677  0.2649  1.2271  1.0464
  461TIP3    H223019   5.176   2.923   1.649  0.1822  0.5802 -2.9163
  462TIP3   OH223020   2.216   3.262   7.728  1.1735  0.3496 -0.9757
  462TIP3    H123021   2.283   3.194   7.719 -0.0025 -0.9314 -0.3591
  462TIP3    H223022   2.240   3.310   7.808  0.1653 -1.5545  0.5537
  463TIP3   OH223023   0.980   3.948   2.581 -0.0692 -0.2536 -0.8194
  463TIP3    H123024   0.971   3.884   2.653 -0.3413  0.4973 -0.1690
  463TIP3    H223025   0.897   3.941   2.533 -0.6406  0.5267  0.0291
  464TIP3   OH223026   2.398   1.149   2.329  0.1979 -0.2646  0.0415
  464TIP3    H123027   2.407   1.054   2.336 -2.3824 -0.4711  1.8424
  464TIP3    H223028   2.332   1.172   2.395  0.2121  2.7022 -0.8378
  465TIP3   OH223029   0.527   5.983   0.701  0.4576 -0.0844 -0.1651
  465TIP3    H123030   0.550   6.033   0.623 -1.2016 -0.5916 -1.0214
  465TIP3    H223031   0.569   5.898   0.688 -1.3850 -0.8563 -1.5110
  466TIP3   OH223032   5.246   4.345   2.570  0.0830 -0.6535 -0.0082
  466TIP3    H123033   5.247   4.413   2.502 -0.3171 -0.6408 -0.0090
  466TIP3    H223034   5.337   4.321   2.582  0.2081 -0.2596 -0.1554
  467TIP3   OH223035   1.150   2.908   8.303 -0.4168  0.5800 -0.2167
  467TIP3    H123036   1.223   2.847   8.299 -0.3296  0.7329 -0.9717
  467TIP3    H223037   1.124   2.908   8.396 -0.3070 -0.4657 -0.1727
  468TIP3   OH223038   4.930   1.875   0.062 -0.0990  0.1053 -0.1160
  468TIP3    H123039   4.854   1.821   0.086  0.1246 -0.3671 -0.4551
  468TIP3    H223040   4.920   1.890  -0.032  0.8234 -0.9268 -0.3971
  469TIP3   OH223041   3.951   4.265   0.074 -0.2713 -0.8307 -0.3220
  469TIP3    H123042   3.920   4.299  -0.010  1.0759 -1.4054 -1.0794
  469TIP3    H223043   3.920   4.328   0.138 -0.1106  0.3885 -1.4087
  470TIP3   OH223044   5.554   3.310   0.928 -0.6201 -0.4670 -0.2470
  470TIP3    H123045   5.517   3.229   0.895 -0.1593  0.3503 -2.9952
  470TIP3    H223046   5.506   3.379   0.883  0.0685  0.7501  0.8189
  471TIP3   OH223047   1.345   6.097   0.250 -0.4574 -0.1241 -0.6396
  471TIP3    H123048   1.382   6.010   0.233 -2.3459 -1.5108  1.6727
  471TIP3    H223049   1.254   6.090   0.221 -0.3232  1.5650 -1.6049
  472TIP3   OH223050   1.720   0.201   1.643  0.8082  0.0424 -0.1329
  472TIP3    H123051   1.776   0.259   1.591 -1.3636 -1.0192 -4.0774
  472TIP3    H223052   1.639   0.251   1.655  0.0323 -0.9892 -0.8977
  473TIP3   OH223053   5.555   4.059   1.373 -0.0717  0.1808  0.1752
  473TIP3    H123054   5.509   4.047   1.291 -0.2625 -1.9291  0.5378
  473TIP3    H223055   5.491   4.098   1.432 -0.6210 -0.3620 -0.0585
  474TIP3   OH223056   1.945   0.236   2.851 -0.5873  0.4387  0.1334
  474TIP3    H123057   1.898   0.310   2.813  0.5814  1.7538  1.1176
  474TIP3    H223058   1.991   0.274   2.926 -0.5655 -1.4660  1.1259
  475TIP3   OH223059   4.103   0.499   0.371 -0.2281  0.0709  0.0348
  475TIP3    H123060   4.102   0.563   0.300 -2.0655 -1.3426 -1.2996
  475TIP3    H223061   4.012   0.470   0.378  0.6705 -3.1341 -0.1356
  476TIP3   OH223062   6.386   1.344   1.387  0.1174 -0.0804 -0.2648
  476TIP3    H123063   6.351   1.417   1.336  0.0503  1.5185  1.9597
  476TIP3    H223064   6.444   1.384   1.452  1.2250 -2.1451  0.1343
  477TIP3   OH223065   5.731   4.997   2.419 -0.1029  0.4630  0.8993
  477TIP3    H123066   5.675   5.037   2.486  0.1133  0.2334  1.2159
  477TIP3    H223067   5.768   4.919   2.461  1.4755  1.2944  1.1517
  478TIP3   OH223068   4.803   6.427   8.302  0.0197  0.4373 -0.1414
  478TIP3    H123069   4.790   6.348   8.248 -1.5908  0.2889  0.4061
  478TIP3    H223070   4.881   6.469   8.265 -0.3100 -0.3143 -1.7752
  479TIP3   OH223071   5.148   0.068   0.875 -0.0030  0.3064  0.1891
  479TIP3    H123072   5.070   0.059   0.819 -0.1731 -0.7389  0.5705
  479TIP3    H223073   5.152  -0.015   0.924  1.0857  0.5382  0.5158
  480TIP3   OH223074   1.922   6.698   2.322  0.3951 -0.3572  0.1445
  480TIP3    H123075   1.981   6.725   2.391  0.0968  0.6772  0.0166
  480TIP3    H223076   1.963   6.729   2.241 -0.6045  0.9979  0.1047
  481TIP3   OH223077   0.443   3.666   1.048 -0.4530 -0.1172  0.7008
  481TIP3    H123078   0.433   3.633   1.137 -0.4870  0.3569  0.8748
  481TIP3    H223079   0.537   3.681   1.038 -0.3614 -0.8293  0.4138
  482TIP3   OH223080   4.138   3.308   0.332  0.2392 -0.1501 -0.5482
  482TIP3    H123081   4.159   3.216   0.319 -1.3325 -0.5710 -0.2598
  482TIP3    H223082   4.049   3.318   0.297 -0.7138  0.6077  1.9087
  483TIP3   OH223083   1.756   1.828   7.759 -0.2715  0.3497  0.0314
  483TIP3    H123084   1.828   1.890   7.764  0.0062 -0.0390  1.5290
  483TIP3    H223085   1.790   1.755   7.708  0.6535 -0.1056  1.2303
  484TIP3   OH223086   1.129   4.724   0.041  0.4319  0.5513 -0.5525
  484TIP3    H123087   1.142   4.647   0.097 -1.5739 -0.5156 -1.4500
  484TIP3    H223088   1.215   4.768   0.040  0.9350 -0.1571  2.1435
  485TIP3   OH223089   0.296   3.954   0.733 -0.5544  0.6250 -0.1229
  485TIP3    H123090   0.240   3.888   0.773  0.1825 -0.4648 -0.8402
  485TIP3    H223091   0.380   3.945   0.778 -0.2461  0.5915 -0.6908
  486TIP3   OH223092   2.334   6.033   2.380  0.1357 -0.5018 -0.4582
  486TIP3    H123093   2.392   6.094   2.333  0.5937  1.9030  2.8764
  486TIP3    H223094   2.330   6.067   2.469 -1.4072 -4.2084  1.1097
  487TIP3   OH223095   3.945   5.766   2.188 -0.3978 -0.1565  0.5308
  487TIP3    H123096   3.872   5.734   2.241 -0.7317  0.4741  0.4703
  487TIP3    H223097   3.918   5.751   2.097 -0.1266 -0.6041  0.5227
  488TIP3   OH223098   4.628   6.644   8.352 -0.1444  0.2498 -0.6354
  488TIP3    H123099   4.677   6.695   8.417 -1.1237  0.5943 -0.1432
  488TIP3    H223100   4.690   6.578   8.322  1.2407  1.8576 -1.4868
  489TIP3   OH223101   3.300   3.590   7.792  0.1224 -0.1640  0.4724
  489TIP3    H123102   3.313   3.675   7.751 -2.6253  0.3971  0.5711
  489TIP3    H223103   3.261   3.610   7.877 -0.4921 -1.5084  0.5388
  490TIP3   OH223104   2.540   0.152   1.532 -0.3702  0.3201 -0.0102
  490TIP3    H123105   2.561   0.235   1.489 -0.3892  0.3897  0.1140
  490TIP3    H223106   2.615   0.136   1.590 -0.5622  0.4661  0.2835
  491TIP3   OH223107   2.440   5.295   8.701 -0.4186 -0.3130 -0.8779
  491TIP3    H123108   2.484   5.215   8.729  0.0572 -0.2353 -1.3726
  491TIP3    H223109   2.481   5.316   8.617 -0.0155  0.8474 -0.4112
  492TIP3   OH223110   1.730   4.714   2.173 -0.2100  0.4520 -0.4220
  492TIP3    H123111   1.741   4.682   2.084  0.8771  1.3819 -0.6458
  492TIP3    H223112   1.727   4.635   2.227 -0.3258 -0.0989 -1.2255
  493TIP3   OH223113   5.252   0.040   0.039 -0.7089  0.4759 -0.0391
  493TIP3    H123114   5.342   0.060   0.064 -0.8286 -0.1373  0.9413
  493TIP3    H223115   5.219   0.122   0.003 -0.3112  1.2471  1.2692
  494TIP3   OH223116   1.322   5.350   7.879 -0.3154  0.0265  0.7186
  494TIP3    H123117   1.298   5.311   7.794  0.1631 -0.1079  0.6426
  494TIP3    H223118   1.268   5.303   7.943  0.5260 -1.0397  0.6694
  495TIP3   OH223119   2.330   4.170   0.174  0.0058 -0.0355 -0.4169
  495TIP3    H123120   2.392   4.178   0.102  0.8923  0.2795  0.3734
  495TIP3    H223121   2.369   4.105   0.233  0.6189  1.6166  1.0989
  496TIP3   OH223122   0.209   2.062   1.411  0.2277  0.4843 -0.9183
  496TIP3    H123123   0.295   2.088   1.377  0.2891  2.7616  0.7282
  496TIP3    H223124   0.153   2.139   1.396 -0.6380  0.2489  0.8441
  497TIP3   OH223125   3.349   1.313   1.102  0.2972  0.2779 -0.1469
  497TIP3    H123126   3.420   1.292   1.041  1.1615  1.9417  0.2136
  497TIP3    H223127   3.366   1.257   1.178  0.8891  0.2139 -0.3173
  498TIP3   OH223128   3.527   5.857   7.656  0.3723 -0.2291  0.0746
  498TIP3    H123129   3.449   5.902   7.624  1.7011  2.2143 -0.0173
  498TIP3    H223130   3.589   5.862   7.583  1.0540 -0.9704  0.5895
  499TIP3   OH223131   3.911   0.908   2.153 -0.1328  0.5962  0.6055
  499TIP3    H123132   3.880   0.946   2.071 -0.3335 -1.7540 -0.4765
  499TIP3    H223133   3.892   0.815   2.145  0.1312  0.2421  3.2150
  500TIP3   OH223134   2.136   4.637   1.631  0.5279  0.3858 -0.3409
  500TIP3    H123135   2.078   4.705   1.595 -0.9564 -0.7262 -0.1357
  500TIP3    H223136   2.183   4.604   1.556  0.0713  0.5442 -0.7036
  501TIP3   OH223137   3.359   2.504   8.220  0.1383 -0.0724 -0.2460
  501TIP3    H123138   3.324   2.447   8.289  2.6954 -1.2255  0.2175
  501TIP3    H223139   3.374   2.588   8.264 -0.7776  0.0399 -0.1302
  502TIP3   OH223140   4.504   4.101   8.085  0.0435 -0.0441 -0.3399
  502TIP3    H123141   4.534   4.147   8.007  0.5793  0.4224  0.1355
  502TIP3    H223142   4.486   4.012   8.055  1.2945 -0.1736 -0.7730
  503TIP3   OH223143   3.456   5.499   1.470  0.1106 -0.2617 -0.5263
  503TIP3    H123144   3.424   5.497   1.560  0.2970  0.1964 -0.4480
  503TIP3    H223145   3.457   5.591   1.447 -1.4216 -0.4721 -1.5443
  504TIP3   OH223146   3.112   4.192   8.194  0.4832  0.4896  0.6030
  504TIP3    H123147   3.137   4.215   8.284  2.0831  0.9856  0.0680
  504TIP3    H223148   3.094   4.276   8.152  0.8150  0.3482  0.1687
  505TIP3   OH223149   2.712   0.467   2.632  0.1212  0.0645  0.4487
  505TIP3    H123150   2.680   0.485   2.721  0.0744 -0.8979  0.6344
  505TIP3    H223151   2.634   0.438   2.584 -0.0060  1.2858 -0.1247
  506TIP3   OH223152   5.855   4.126   0.295 -0.3733 -0.3374 -0.5466
  506TIP3    H123153   5.876   4.175   0.375 -0.1393  0.4351 -1.0697
  506TIP3    H223154   5.868   4.034   0.319 -0.2466 -0.1117  0.2834
  507TIP3   OH223155   0.326   5.353   8.078 -0.5872  0.1611 -0.1432
  507TIP3    H123156   0.235   5.351   8.107 -0.5011 -0.6346  0.0927
  507TIP3    H223157   0.376   5.311   8.148 -0.1164  0.0580 -0.5262
  508TIP3   OH223158   6.114   4.839   1.744 -0.5305 -0.4217  0.6322
  508TIP3    H123159   6.034   4.885   1.769 -1.7962 -0.2989 -3.0105
  508TIP3    H223160   6.181   4.907   1.741 -1.0193  0.0702  0.7840
  509TIP3   OH223161   4.549   6.797   8.135  0.3754 -0.9403 -0.2750
  509TIP3    H123162   4.462   6.755   8.134 -0.6880  0.9814  2.1921
  509TIP3    H223163   4.601   6.742   8.194  0.4835 -1.4073 -0.7927
  510TIP3   OH223164   3.477   2.960   1.177  0.4173  0.7492 -0.4829
  510TIP3    H123165   3.550   2.988   1.123  0.6937  0.4131 -0.2956
  510TIP3    H223166   3.431   2.895   1.124  1.1809 -0.2097 -0.0095
  511TIP3   OH223167   0.780   0.080   1.499 -0.0307 -0.2090 -0.5704
  511TIP3    H123168   0.876   0.075   1.498 -0.0510 -0.6554 -1.7368
  511TIP3    H223169   0.752  -0.008   1.525 -0.1287 -0.4794 -1.5541
  512TIP3   OH223170   5.159   5.101   2.232 -0.2950  0.3259 -0.1682
  512TIP3    H123171   5.159   5.005   2.229 -0.3254  0.2865  0.6670
  512TIP3    H223172   5.232   5.123   2.290 -0.1950  0.8180 -0.4707
  513TIP3   OH223173   5.518   2.338   8.200  1.0600  0.1806  0.6041
  513TIP3    H123174   5.606   2.345   8.238  1.3205 -0.6922  0.1695
  513TIP3    H223175   5.502   2.425   8.163  1.8578  0.2708  0.4395
  514TIP3   OH223176   2.125   3.532   7.685 -0.4109 -0.1786 -0.3756
  514TIP3    H123177   2.147   3.440   7.693  1.2859  0.2008 -0.3443
  514TIP3    H223178   2.149   3.570   7.770 -1.6126  0.2053 -0.1859
  515TIP3   OH223179   3.311   4.644   0.486  0.3142  0.5917 -0.1290
  515TIP3    H123180   3.344   4.733   0.477  1.1780  0.3835  0.8197
  515TIP3    H223181   3.316   4.626   0.580  0.8084 -0.7003 -0.3872
  516TIP3   OH223182   5.622   5.658   2.376 -0.3215 -0.5274  0.2176
  516TIP3    H123183   5.598   5.730   2.318  1.7369  1.3182  1.4868
  516TIP3    H223184   5.669   5.596   2.320  0.3022  0.4807 -0.4055
  517TIP3   OH223185   5.969   0.873   8.329 -0.9344 -0.3061  0.2941
  517TIP3    H123186   6.062   0.873   8.351 -0.9529 -1.1088  0.4179
  517TIP3    H223187   5.951   0.961   8.298 -0.3547  0.1551  1.2326
  518TIP3   OH223188   4.229   0.393   0.863  0.4656 -0.0657 -0.0091
  518TIP3    H123189   4.322   0.408   0.878  0.4810 -0.1742  0.0067
  518TIP3    H223190   4.192   0.382   0.951  0.1326  1.6775  0.1027
  519TIP3   OH223191   5.823   3.226   2.125 -0.0688 -0.0165 -0.0818
  519TIP3    H123192   5.792   3.200   2.211  0.2612  1.9498  0.6978
  519TIP3    H223193   5.826   3.145   2.074 -1.3555 -1.0468  1.3976
  520TIP3   OH223194   1.261   3.008   1.124  0.8998 -0.2364  0.5989
  520TIP3    H123195   1.217   3.091   1.105  3.1103  1.2117  1.4011
  520TIP3    H223196   1.191   2.950   1.151 -0.6640  1.5791  0.6883
  521TIP3   OH223197   1.984   2.183   8.001 -0.4370  0.2872  0.4475
  521TIP3    H123198   1.929   2.211   8.074 -0.7427  0.2084  0.2516
  521TIP3    H223199   2.051   2.128   8.040  0.4386  1.6231  0.9131
  522TIP3   OH223200   0.121   3.445   7.792 -0.1307 -0.3340  0.1178
  522TIP3    H123201   0.214   3.460   7.774 -0.2141  1.6396  1.1443
  522TIP3    H223202   0.083   3.532   7.798 -2.1199 -1.1185 -0.5199
  523TIP3   OH223203   0.464   3.672   1.681 -0.0533 -0.0088  0.5912
  523TIP3    H123204   0.379   3.710   1.655  0.1508 -1.8158 -3.4217
  523TIP3    H223205   0.517   3.748   1.705 -2.0383  1.3861  0.9119
  524TIP3   OH223206   2.561   4.935   0.136 -0.3546 -0.2946  0.2746
  524TIP3    H123207   2.593   4.981   0.059  0.4409  0.2061  0.8820
  524TIP3    H223208   2.614   4.969   0.208 -1.2286 -0.5885  1.0810
  525TIP3   OH223209   5.058   3.482   8.646  0.2992  0.7743 -0.5124
  525TIP3    H123210   5.019   3.568   8.661 -1.0345  0.0206  0.5565
  525TIP3    H223211   4.983   3.423   8.638  1.1962 -0.5530  0.4933
  526TIP3   OH223212   1.359   2.422   1.743 -0.0205 -0.3820  1.2580
  526TIP3    H123213   1.359   2.451   1.652 -2.6194  0.7484  1.5296
  526TIP3    H223214   1.266   2.414   1.766  0.5586 -1.4592  3.5791
  527TIP3   OH223215   1.588   0.474   0.503  0.2362  1.0838 -0.1278
  527TIP3    H123216   1.515   0.433   0.550  0.5692  2.3086  1.5815
  527TIP3    H223217   1.655   0.485   0.570  1.5257  1.0960 -1.3910
  528TIP3   OH223218   4.043   0.644   2.355  0.2292 -0.1185  0.7430
  528TIP3    H123219   4.040   0.682   2.267  1.8447  0.3398  0.8624
  528TIP3    H223220   3.956   0.661   2.391 -0.7048 -0.9362 -0.9924
  529TIP3   OH223221   1.674   1.439   1.680  0.0969  0.1715  0.1180
  529TIP3    H123222   1.666   1.421   1.586 -1.6515  0.8113  0.1025
  529TIP3    H223223   1.694   1.533   1.685  2.7874 -0.3379  0.3637
  530TIP3   OH223224   0.538   2.097   1.996  0.1419  0.3731  0.7038
  530TIP3    H123225   0.602   2.038   1.954 -1.0363 -0.3453 -0.1259
  530TIP3    H223226   0.576   2.114   2.082  0.1018 -2.4179  1.3828
  531TIP3   OH223227   3.414   1.633   7.292 -0.3205  0.1200  0.6702
  531TIP3    H123228   3.400   1.678   7.209  0.2190  0.4621  0.7597
  531TIP3    H223229   3.377   1.546   7.279  0.5865 -0.1412 -0.2507
  532TIP3   OH223230   5.295   5.488   2.750  0.1709 -0.3902 -0.3173
  532TIP3    H123231   5.370   5.513   2.695  0.3936  0.2427  0.2672
  532TIP3    H223232   5.330   5.419   2.807  0.8099  1.0704  1.1250
  533TIP3   OH223233   5.655   4.872   3.038 -0.2111 -0.2822  0.2427
  533TIP3    H123234   5.628   4.893   3.128 -0.9614 -0.5957  0.0969
  533TIP3    H223235   5.751   4.865   3.043  0.0212  2.1757  0.4968
  534TIP3   OH223236   2.785   6.602   0.916 -0.6849  0.1968 -0.4422
  534TIP3    H123237   2.779   6.519   0.963 -1.6070  0.6047  0.1823
  534TIP3    H223238   2.804   6.577   0.825  2.0213 -0.5693  0.2428
  535TIP3   OH223239   4.468   1.252   2.503  0.3795 -0.5107  0.1252
  535TIP3    H123240   4.526   1.256   2.427 -0.3622 -0.6933 -0.4518
  535TIP3    H223241   4.416   1.173   2.491  0.7932 -0.9793  1.2257
  536TIP3   OH223242   6.330   4.148   0.902  0.3761  0.5174 -0.1122
  536TIP3    H123243   6.303   4.109   0.819 -0.9974  1.3257 -0.0660
  536TIP3    H223244   6.360   4.236   0.878  2.1578 -0.0220 -0.0301
  537TIP3   OH223245   2.328   5.983   7.515 -0.7559  0.1272  0.1364
  537TIP3    H123246   2.373   5.916   7.464  1.4383  0.1419  1.9226
  537TIP3    H223247   2.260   6.017   7.455 -0.6476 -2.2646 -1.4822
  538TIP3   OH223248   6.219   0.634   0.209  0.3096 -0.3187 -0.1383
  538TIP3    H123249   6.304   0.596   0.185  0.9531  0.4565  0.8335
  538TIP3    H223250   6.239   0.723   0.238 -0.9452  0.1549 -0.6496
  539TIP3   OH223251   0.841   2.140   0.695  0.0205  0.0941  0.3304
  539TIP3    H123252   0.926   2.165   0.733  0.1874  0.9497 -0.5486
  539TIP3    H223253   0.776   2.175   0.756  0.2905  0.8950  0.1733
  540TIP3   OH223254   2.170   2.849   1.254 -0.4226  0.0096  0.0733
  540TIP3    H123255   2.128   2.930   1.283  2.2283  1.3195  0.6082
  540TIP3    H223256   2.172   2.794   1.332 -1.7430 -0.3617 -0.1452
  541TIP3   OH223257   4.692   6.562   0.826  0.1593  0.0573 -0.6747
  541TIP3    H123258   4.638   6.508   0.883  0.4723 -0.6333 -1.0261
  541TIP3    H223259   4.729   6.628   0.885 -0.3159 -0.0363 -0.2654
  542TIP3   OH223260   6.249   4.316   0.523  0.5533 -0.2649 -0.1033
  542TIP3    H123261   6.301   4.383   0.567  0.5225 -0.5415  0.3547
  542TIP3    H223262   6.306   4.240   0.518  0.4013 -0.3765 -0.1405
  543TIP3   OH223263   3.688   5.710   3.451  0.4807  0.2053 -0.0198
  543TIP3    H123264   3.653   5.629   3.487  0.7954 -0.2754 -0.7839
  543TIP3    H223265   3.632   5.731   3.377 -1.4199  2.2727  1.8373
  544TIP3   OH223266   3.429   2.232   0.310 -0.5200  0.4037  0.0441
  544TIP3    H123267   3.367   2.188   0.253 -1.3109 -0.9994  1.8714
  544TIP3    H223268   3.514   2.193   0.288 -0.9248 -0.6517  0.2914
  545TIP3   OH223269   4.615   5.356   0.723 -0.2132  0.1024  0.2387
  545TIP3    H123270   4.632   5.274   0.677  0.2963 -0.0831  0.7459
  545TIP3    H223271   4.535   5.389   0.683 -0.9153 -1.0708  0.6036
  546TIP3   OH223272   6.352   0.879   0.262  0.1269 -0.0017  0.1068
  546TIP3    H123273   6.441   0.858   0.290  0.2850 -0.3805 -0.6546
  546TIP3    H223274   6.346   0.974   0.271  0.8453  0.1114 -0.4830
  547TIP3   OH223275   2.413   1.844   1.539 -0.9472 -0.1744 -0.0051
  547TIP3    H123276   2.379   1.819   1.454 -1.0812  0.0163 -0.0102
  547TIP3    H223277   2.508   1.839   1.530 -0.9486  0.1749 -0.2726
  548TIP3   OH223278   0.295   4.610   1.278  0.3285 -0.0360  0.1338
  548TIP3    H123279   0.381   4.647   1.261 -0.2578  0.7711 -1.2124
  548TIP3    H223280   0.294   4.527   1.232  0.1899  0.2282 -0.3444
  549TIP3   OH223281   6.382   5.648   1.376 -0.4402 -0.1444  0.2296
  549TIP3    H123282   6.289   5.628   1.370 -0.3344 -0.4600 -0.5354
  549TIP3    H223283   6.396   5.715   1.309 -0.3511  0.8450  1.2112
  550TIP3   OH223284   5.190   4.461   1.848  0.0458 -0.0324  0.3666
  550TIP3    H123285   5.273   4.501   1.874 -0.3375  0.7426  0.4101
  550TIP3    H223286   5.213   4.371   1.826  0.5564 -0.4512  2.4430
  551TIP3   OH223287   4.392   4.211   0.670 -0.2247 -0.2262  0.7378
  551TIP3    H123288   4.346   4.127   0.680 -0.8576  0.2795  2.5836
  551TIP3    H223289   4.354   4.267   0.738  0.5472  1.4037 -0.1237
  552TIP3   OH223290   1.970   6.705   8.480 -0.2124 -0.2153  0.3535
  552TIP3    H123291   2.065   6.715   8.486 -0.3249  0.1707  1.9152
  552TIP3    H223292   1.953   6.684   8.388  1.2662  0.8950 -0.2009
  553TIP3   OH223293   0.312   5.695   0.062  0.3284  0.7366  0.2994
  553TIP3    H123294   0.359   5.650  -0.008  2.5793  2.4187  0.5986
  553TIP3    H223295   0.292   5.627   0.126 -1.2073 -0.7159 -1.6083
  554TIP3   OH223296   2.466   6.025   1.364 -0.3710  0.1463  0.1453
  554TIP3    H123297   2.387   6.059   1.407  1.4752  1.4914  2.7422
  554TIP3    H223298   2.442   5.937   1.335 -2.6940  0.3849  1.1535
  555TIP3   OH223299   6.100   5.190   1.626  0.3343  0.5455  0.0356
  555TIP3    H123300   6.051   5.181   1.544  0.4556 -0.8120  0.0871
  555TIP3    H223301   6.183   5.144   1.608  0.1668 -0.1754  1.0702
  556TIP3   OH223302   6.329   1.063   1.465 -0.2244  0.0677  0.4224
  556TIP3    H123303   6.312   1.154   1.440 -1.8762 -0.4382 -0.4463
  556TIP3    H223304   6.415   1.065   1.507  0.0831  1.9066 -0.2140
  557TIP3   OH223305   1.846   0.154   8.117  0.4491  0.1436  0.3775
  557TIP3    H123306   1.827   0.245   8.137 -0.6147  0.0834 -0.2961
  557TIP3    H223307   1.897   0.123   8.192  0.4773  1.1676  0.7988
  558TIP3   OH223308   3.717   1.591   7.450 -0.2398  0.8535 -0.3380
  558TIP3    H123309   3.640   1.607   7.396 -0.8522 -2.8801 -0.8432
  558TIP3    H223310   3.790   1.623   7.398 -1.1233  0.5822 -1.7872
  559TIP3   OH223311   0.561   2.204   1.464  0.1839 -0.1479  0.0322
  559TIP3    H123312   0.524   2.161   1.542  0.6104 -0.4754  0.0593
  559TIP3    H223313   0.503   2.278   1.448 -1.2305 -1.3405 -0.6609
  560TIP3   OH223314   4.234   4.255   1.502  0.7414  0.6392 -0.2046
  560TIP3    H123315   4.220   4.200   1.425 -1.2679 -0.8924  1.1300
  560TIP3    H223316   4.244   4.192   1.574 -1.1761  1.9738  1.3287
  561TIP3   OH223317   6.509   1.167   2.456  0.1295  0.1979  0.1043
  561TIP3    H123318   6.534   1.236   2.517  0.8312  0.7889 -0.8276
  561TIP3    H223319   6.435   1.123   2.499  1.5299 -0.3727  2.0569
  562TIP3   OH223320   3.164   6.142   8.351  0.8970  0.1697 -0.1587
  562TIP3    H123321   3.191   6.072   8.292  1.2653  0.9127 -0.8862
  562TIP3    H223322   3.075   6.119   8.376  0.5762  0.0642 -1.3466
  563TIP3   OH223323   6.661   0.033   0.192  0.0605 -0.1624  0.0780
  563TIP3    H123324   6.585   0.002   0.241  1.4021 -0.9007  1.7926
  563TIP3    H223325   6.694  -0.044   0.146  0.1030  0.0265 -0.2121
  564TIP3   OH223326   6.777   5.969   0.689 -0.1512 -0.5275  0.0328
  564TIP3    H123327   6.796   5.949   0.781 -0.0755  2.7891  0.8670
  564TIP3    H223328   6.823   5.901   0.640  0.5001 -1.9262  2.4272
  565TIP3   OH223329   0.954   0.925   0.780 -0.4820  0.2116  0.2857
  565TIP3    H123330   0.954   0.835   0.748  0.9292  0.7775 -1.4847
  565TIP3    H223331   0.964   0.917   0.875 -0.2178 -1.4738  0.1537
  566TIP3   OH223332   2.437   4.130   0.659 -0.1737 -0.1352  0.3481
  566TIP3    H123333   2.384   4.114   0.581 -2.4751 -2.7042  2.2533
  566TIP3    H223334   2.388   4.195   0.709  0.7604  0.7344  0.1569
  567TIP3   OH223335   0.259   4.214   0.861  0.0933 -0.4180  0.8455
  567TIP3    H123336   0.289   4.132   0.821  0.7221 -0.1488  0.7407
  567TIP3    H223337   0.166   4.219   0.840  0.5833  0.2198 -1.5296
  568TIP3   OH223338   4.236   6.777   7.834 -0.2495 -0.2974 -0.5956
  568TIP3    H123339   4.204   6.707   7.776 -1.4840 -0.4820  0.2594
  568TIP3    H223340   4.174   6.777   7.907  0.0582  1.3165 -0.2973
  569TIP3   OH223341   6.602   3.062   8.349  0.9756 -0.4071  0.7674
  569TIP3    H123342   6.574   2.974   8.322 -1.9350  0.0872  1.7945
  569TIP3    H223343   6.587   3.063   8.443  2.0229  0.8879  0.9434
  570TIP3   OH223344   2.999   4.453   8.130 -0.2182  0.2842 -0.4839
  570TIP3    H123345   3.069   4.510   8.162  0.4855  0.0882 -1.6027
  570TIP3    H223346   2.936   4.449   8.202  1.1242  0.1297  0.7251
  571TIP3   OH223347   1.928   6.298   0.539  0.7976  0.3959  0.0884
  571TIP3    H123348   1.944   6.351   0.617  0.6734 -0.6251  0.8059
  571TIP3    H223349   1.979   6.343   0.470 -1.1918  2.8598  0.0576
  572TIP3   OH223350   2.585   4.838   0.590  0.1834  0.7695 -0.0164
  572TIP3    H123351   2.668   4.857   0.546 -0.1971  0.7692 -0.7430
  572TIP3    H223352   2.547   4.767   0.539 -0.6320  1.2984 -0.1632
  573TIP3   OH223353   1.006   0.272   7.375 -0.3872  0.5313 -0.3893
  573TIP3    H123354   1.081   0.226   7.336  0.3470  1.0422  0.3990
  573TIP3    H223355   0.959   0.308   7.300  0.2711  0.3779 -0.8844
  574TIP3   OH223356   0.954   0.105   1.863 -0.4270  0.2725  0.2484
  574TIP3    H123357   0.960   0.098   1.959 -0.6318  1.8341  0.3889
  574TIP3    H223358   0.860   0.112   1.846 -0.5558 -1.8074 -0.2486
  575TIP3   OH223359   6.491   3.382   0.533  0.4393  0.1417 -0.4176
  575TIP3    H123360   6.556   3.342   0.592 -1.7729 -0.1254  2.0415
  575TIP3    H223361   6.423   3.314   0.524 -0.3691  1.0594 -1.4005
  576TIP3   OH223362   3.951   2.057   2.166  0.4315  0.2806 -0.6521
  576TIP3    H123363   4.015   2.090   2.228  0.4320 -0.2215 -0.3841
  576TIP3    H223364   4.000   2.044   2.085  0.3165  1.4378 -0.9161
  577TIP3   OH223365   4.467   6.333   2.560  0.0920  0.1930  0.6735
  577TIP3    H123366   4.454   6.336   2.465  1.3860  0.0288  0.4828
  577TIP3    H223367   4.380   6.353   2.596 -0.7238 -1.0447 -0.5336
  578TIP3   OH223368   2.349   3.950   8.638  0.1362 -0.2180  0.0315
  578TIP3    H123369   2.273   3.991   8.596 -0.5737 -0.8947  0.6303
  578TIP3    H223370   2.407   3.928   8.565 -0.2580  0.2651 -0.4382
  579TIP3   OH223371   6.289   5.511   8.604 -0.6817  0.5340  0.3733
  579TIP3    H123372   6.194   5.502   8.599 -0.4738 -3.5469  0.6398
  579TIP3    H223373   6.311   5.482   8.693  0.8749 -0.2675 -0.2340
  580TIP3   OH223374   2.006   5.173   2.067 -0.0132  0.0759 -0.1493
  580TIP3    H123375   2.055   5.180   2.149  0.2239  1.7090 -0.3954
  580TIP3    H223376   1.982   5.081   2.061  2.6495 -0.7123  0.2002
  581TIP3   OH223377   2.929   6.699   8.220 -0.3667 -0.7101  0.4482
  581TIP3    H123378   2.973   6.783   8.206 -2.6149  0.2118 -1.8514
  581TIP3    H223379   2.851   6.721   8.271 -0.2751 -1.6372  1.0066
  582TIP3   OH223380   1.227   5.188   0.496  0.3219  0.5094  0.2198
  582TIP3    H123381   1.214   5.246   0.421 -2.4629 -0.8762 -0.5141
  582TIP3    H223382   1.217   5.245   0.572 -0.5148  1.3162 -0.4716
  583TIP3   OH223383   4.996   4.425   1.651  0.3366 -0.1968 -0.4057
  583TIP3    H123384   4.974   4.335   1.676  2.4716 -0.9457 -1.0078
  583TIP3    H223385   5.059   4.454   1.718 -0.3684  0.9054 -0.1844
  584TIP3   OH223386   0.106   6.760   0.730  0.1956  0.7933 -0.0621
  584TIP3    H123387   0.080   6.851   0.740 -0.3973  0.5524  0.5847
  584TIP3    H223388   0.147   6.757   0.643 -0.6192  1.4723 -0.4788
  585TIP3   OH223389   2.846   5.751   8.017 -0.1291  0.0067  0.2469
  585TIP3    H123390   2.827   5.833   7.971 -4.3859 -0.4426  0.8332
  585TIP3    H223391   2.762   5.723   8.052  1.7070 -3.0980  2.7120
  586TIP3   OH223392   5.665   0.042   1.464 -0.0031  0.3659 -0.3351
  586TIP3    H123393   5.747   0.086   1.489 -0.2702  1.1316 -0.7627
  586TIP3    H223394   5.622   0.022   1.547  0.0977  0.9865 -0.1247
  587TIP3   OH223395   5.268   5.947   2.976 -0.0194 -0.1077 -0.2516
  587TIP3    H123396   5.213   6.025   2.972 -0.8207 -0.6560  0.0028
  587TIP3    H223397   5.297   5.943   3.067 -1.7858 -1.3244  0.2948
  588TIP3   OH223398   5.158   0.583   2.074 -0.5519 -0.0245  0.1574
  588TIP3    H123399   5.084   0.526   2.056  0.4167 -0.5322 -2.5974
  588TIP3    H223400   5.235   0.528   2.064  0.2983  0.9951  0.8048
  589TIP3   OH223401   2.998   2.745   8.488 -0.6636  1.0252 -0.0392
  589TIP3    H123402   3.076   2.691   8.477 -1.1992  0.1352  0.3778
  589TIP3    H223403   3.030   2.835   8.484  0.6816  0.7145  1.9495
  590TIP3   OH223404   2.351   3.191   7.423 -0.1880  0.0131 -0.1988
  590TIP3    H123405   2.263   3.183   7.387 -0.4027 -1.4076  0.5630
  590TIP3    H223406   2.356   3.122   7.489  0.8283  1.3443  1.1722
  591TIP3   OH223407   1.580   2.464   1.518 -0.0890 -0.1508 -0.0050
  591TIP3    H123408   1.661   2.498   1.479 -1.7242  1.2991 -2.4135
  591TIP3    H223409   1.565   2.518   1.595  0.7505  0.1681 -0.0547
  592TIP3   OH223410   0.823   6.468   0.792  0.0761  0.3669  0.0004
  592TIP3    H123411   0.883   6.437   0.860  1.5818  3.5708  0.3347
  592TIP3    H223412   0.875   6.531   0.742 -2.6341  2.3488 -0.5316
  593TIP3   OH223413   2.480   2.864   2.500 -0.4770  0.6889  0.1850
  593TIP3    H123414   2.501   2.894   2.588  0.5537 -1.3079  0.6697
  593TIP3    H223415   2.397   2.907   2.479 -1.0637  0.7316  2.3644
  594TIP3   OH223416   5.263   0.525   1.138  0.6309 -0.7465  0.1850
  594TIP3    H123417   5.351   0.490   1.123  1.0972  1.1039 -1.9025
  594TIP3    H223418   5.207   0.474   1.079  0.9079  0.2876 -1.0164
  595TIP3   OH223419   3.292   1.673   1.237 -0.0706 -0.0453 -0.6018
  595TIP3    H123420   3.253   1.683   1.151 -1.1677  0.6785 -0.0332
  595TIP3    H223421   3.220   1.646   1.294 -0.1570  2.7912  0.7858
  596TIP3   OH223422   4.660   0.518   1.528 -0.3340 -0.0108  0.5428
  596TIP3    H123423   4.659   0.598   1.580  2.6939  0.6165 -0.1676
  596TIP3    H223424   4.698   0.545   1.444 -0.1412 -2.0106 -0.0558
  597TIP3   OH223425   6.020   5.598   8.613 -0.5895 -0.3009 -0.8061
  597TIP3    H123426   6.050   5.671   8.559  1.8459 -0.5649  0.1146
  597TIP3    H223427   5.932   5.624   8.642  0.9227  3.2481  1.1538
  598TIP3   OH223428   2.695   1.112   2.550 -0.0232  0.1613  0.3688
  598TIP3    H123429   2.730   1.109   2.461  0.7686  2.1223  0.5582
  598TIP3    H223430   2.603   1.087   2.541  0.4956 -1.4778 -0.6967
  599TIP3   OH223431   6.465   4.747   0.252  0.0339  0.2515 -0.4606
  599TIP3    H123432   6.371   4.753   0.269  0.2403  0.1668  0.8139
  599TIP3    H223433   6.479   4.656   0.227 -0.1859  0.2160 -0.4582
  600TIP3   OH223434   4.610   6.208   2.097  0.2046  0.0805  0.5325
  600TIP3    H123435   4.604   6.160   2.180 -0.0161 -1.7605 -0.5119
  600TIP3    H223436   4.565   6.153   2.034 -1.4418  2.4080 -0.4580
  601TIP3   OH223437   4.195   4.850   8.590  0.0297 -0.4348  0.1016
  601TIP3    H123438   4.173   4.942   8.573 -0.1339 -0.6063 -0.6461
  601TIP3    H223439   4.138   4.825   8.662 -2.0438 -0.7586 -1.5343
  602TIP3   OH223440   0.408   0.652   0.314 -0.2869  0.1438 -0.1961
  602TIP3    H123441   0.349   0.727   0.315  0.3856  0.7173 -1.3020
  602TIP3    H223442   0.367   0.589   0.255  0.7496  1.0512 -1.9700
  603TIP3   OH223443   5.875   1.736   2.756 -0.7318  0.1337 -0.9552
  603TIP3    H123444   5.814   1.756   2.686 -0.1615  0.2266 -1.4333
  603TIP3    H223445   5.894   1.642   2.746 -1.1240  0.0077 -0.5423
  604TIP3   OH223446   3.056   3.298   0.831 -0.1092  0.4356  0.0882
  604TIP3    H123447   3.094   3.230   0.887 -1.0771  0.0359  0.2786
  604TIP3    H223448   3.052   3.257   0.744 -0.3822  0.3581  0.1346
  605TIP3   OH223449   4.907   5.806   1.122  0.4398  0.4555  0.2020
  605TIP3    H123450   4.866   5.864   1.058 -0.0369 -0.5350 -0.4136
  605TIP3    H223451   4.981   5.766   1.075 -0.3253 -0.8012  0.0241
  606TIP3   OH223452   2.725   5.742   2.492 -0.1624  0.1711 -0.2216
  606TIP3    H123453   2.656   5.683   2.524  0.2162 -0.9764 -1.4350
  606TIP3    H223454   2.799   5.727   2.552 -0.4151  0.2025  0.1048
  607TIP3   OH223455   4.624   1.946   0.700 -0.2999 -0.2370  0.6060
  607TIP3    H123456   4.683   2.020   0.716 -0.2474 -0.1429  0.0072
  607TIP3    H223457   4.546   1.965   0.753  0.1742 -0.3349  1.3630
  608TIP3   OH223458   0.987   6.074   2.961  0.4283  0.3995 -0.8474
  608TIP3    H123459   0.990   5.991   3.008 -0.2412  0.2018 -1.1387
  608TIP3    H223460   1.073   6.113   2.974 -0.5279  1.7273  2.9936
  609TIP3   OH223461   1.920   4.282   0.531  0.0739  0.8106 -0.0343
  609TIP3    H123462   1.917   4.329   0.614 -2.4746  0.5391  0.0862
  609TIP3    H223463   1.917   4.350   0.464  1.2113  0.9845  0.0669
  610TIP3   OH223464   0.203   2.507   8.595 -0.2968  0.0677 -0.0732
  610TIP3    H123465   0.279   2.498   8.652  0.2878 -0.1729 -0.8733
  610TIP3    H223466   0.235   2.558   8.520 -0.6608 -0.8491 -0.8697
  611TIP3   OH223467   4.017   0.875   0.973  0.8293  0.3214 -0.1206
  611TIP3    H123468   3.937   0.826   0.996  1.3418 -0.0409  0.9634
  611TIP3    H223469   4.089   0.816   0.996  1.4166  0.6002 -1.2007
  612TIP3   OH223470   6.557   0.279   2.027  0.3274  0.4353 -0.3242
  612TIP3    H123471   6.529   0.238   2.109  0.3908  1.2665  0.1210
  612TIP3    H223472   6.573   0.370   2.050  1.5601  0.4087 -0.9783
  613TIP3   OH223473   5.611   4.261   2.171 -0.0525 -0.4157  0.0961
  613TIP3    H123474   5.664   4.312   2.109 -0.2890 -2.3871 -1.8647
  613TIP3    H223475   5.521   4.287   2.152 -0.2105 -1.8225 -1.2462
  614TIP3   OH223476   1.688   5.232   0.735  0.5011  0.2437  0.3734
  614TIP3    H123477   1.762   5.200   0.786  0.2921 -1.4528 -0.2989
  614TIP3    H223478   1.613   5.223   0.794  0.7182  1.4391  0.8638
  615TIP3   OH223479   2.742   4.752   2.029 -0.6022  0.4475  0.1927
  615TIP3    H123480   2.798   4.808   2.083 -0.9373  0.8030  0.1734
  615TIP3    H223481   2.663   4.738   2.081 -0.7975  0.5354 -0.0762
  616TIP3   OH223482   3.483   0.950   2.318  0.5193  0.3279 -0.2503
  616TIP3    H123483   3.422   0.885   2.284  0.5516 -0.4496  1.1043
  616TIP3    H223484   3.543   0.901   2.374  1.3702  1.3252 -0.2439
  617TIP3   OH223485   0.918   5.091   0.440  0.0843 -0.0009 -0.4712
  617TIP3    H123486   1.013   5.098   0.449  0.0523  0.0887 -0.1785
  617TIP3    H223487   0.897   5.142   0.362  0.4911 -1.5801 -1.6648
  618TIP3   OH223488   3.330   5.755   3.404  0.1736  0.0958 -0.0376
  618TIP3    H123489   3.323   5.663   3.381 -0.8187 -0.2271  1.4236
  618TIP3    H223490   3.239   5.787   3.400  0.4983  1.0090 -0.4673
  619TIP3   OH223491   0.507   3.576   3.093  0.5033  0.1159  0.0399
  619TIP3    H123492   0.527   3.518   3.167 -1.4462 -1.3586 -0.4767
  619TIP3    H223493   0.493   3.516   3.019 -1.2979  1.2261 -0.5892
  620TIP3   OH223494   1.178   1.007   1.622  0.6074 -0.2925 -0.4154
  620TIP3    H123495   1.215   1.064   1.556  1.5095 -1.0369 -0.5675
  620TIP3    H223496   1.241   1.008   1.694  0.8685 -1.4643 -0.6175
  621TIP3   OH223497   6.808   4.661   0.629 -0.0618 -0.4374  0.0612
  621TIP3    H123498   6.802   4.578   0.581  0.7201  0.0326 -0.8920
  621TIP3    H223499   6.752   4.721   0.580 -1.1837 -0.5508  1.1463
  622TIP3   OH223500   2.877   5.159   2.482 -0.3723 -0.6461 -0.2301
  622TIP3    H123501   2.848   5.200   2.564  0.3840  1.8156 -1.1016
  622TIP3    H223502   2.799   5.160   2.426 -0.1991  0.1983 -0.4602
  623TIP3   OH223503   0.964   5.350   8.188 -0.0887  0.2261 -0.0752
  623TIP3    H123504   1.004   5.273   8.229  1.4705  0.2232 -1.5241
  623TIP3    H223505   0.876   5.321   8.164 -0.0371 -0.6302  0.7177
  624TIP3   OH223506   3.406   6.801   2.289 -0.4035 -0.1233  0.1922
  624TIP3    H123507   3.490   6.832   2.254 -1.2106  0.1643 -1.5911
  624TIP3    H223508   3.412   6.706   2.285  0.8776 -0.2215  2.7381
  625TIP3   OH223509   1.429   2.646   8.496  0.3918  0.5806 -0.0335
  625TIP3    H123510   1.514   2.659   8.538  0.4789 -1.2367  0.4741
  625TIP3    H223511   1.370   2.624   8.569 -0.1888  0.5060 -0.5158
  626TIP3   OH223512   2.480   0.050   8.634  0.4391 -0.5898 -0.3042
  626TIP3    H123513   2.393   0.010   8.642  0.1549  0.0971  0.1027
  626TIP3    H223514   2.541  -0.023   8.646 -0.0539 -0.7821  1.2268
  627TIP3   OH223515   2.834   6.738   0.209 -0.1556 -0.3493 -0.1794
  627TIP3    H123516   2.859   6.748   0.117 -1.5791 -0.2133 -0.5648
  627TIP3    H223517   2.836   6.828   0.243 -2.8478  0.1076 -0.9765
  628TIP3   OH223518   0.828   4.160   7.494  0.3444  0.2245 -0.2773
  628TIP3    H123519   0.858   4.069   7.491 -1.1585 -0.3832  1.3655
  628TIP3    H223520   0.906   4.210   7.519  0.9880 -0.7338 -0.3138
  629TIP3   OH223521   4.898   0.914   7.879 -0.0026 -0.3666  0.3843
  629TIP3    H123522   4.822   0.868   7.843 -0.0319 -0.4143  0.5076
  629TIP3    H223523   4.941   0.850   7.935 -0.9271  0.2268  1.8208
  630TIP3   OH223524   1.305   4.821   1.575  0.0850  0.1629  0.1605
  630TIP3    H123525   1.246   4.745   1.579  1.2011 -0.7622 -0.4736
  630TIP3    H223526   1.248   4.896   1.591 -1.3873 -0.6353 -1.1278
  631TIP3   OH223527   4.337   0.634   0.421  0.2206 -0.1929  0.2219
  631TIP3    H123528   4.276   0.562   0.403 -0.1574 -0.9142  3.6499
  631TIP3    H223529   4.283   0.713   0.421  0.2874 -0.1091 -1.6794
  632TIP3   OH223530   6.209   4.870   8.614 -0.5711 -0.4746  0.0609
  632TIP3    H123531   6.210   4.882   8.519 -2.8540 -1.8946 -0.2131
  632TIP3    H223532   6.175   4.953   8.648  0.4073  0.0989 -0.3243
  633TIP3   OH223533   1.834   2.432   0.191 -0.9194 -0.6662 -0.2357
  633TIP3    H123534   1.903   2.366   0.192 -0.8370 -0.5904 -0.8385
  633TIP3    H223535   1.842   2.476   0.276  0.5607  0.1548 -0.7693
  634TIP3   OH223536   0.851   2.577   2.340 -0.1626 -0.0840  0.1213
  634TIP3    H123537   0.924   2.606   2.285 -0.6803  1.2378  0.1199
  634TIP3    H223538   0.775   2.626   2.308 -0.5662  0.3723  1.6996
  635TIP3   OH223539   5.587   1.957   7.787  0.2707 -0.1149 -0.1607
  635TIP3    H123540   5.593   1.918   7.699 -1.4294 -0.8267 -0.0065
  635TIP3    H223541   5.616   2.047   7.775 -1.4655  0.2881 -1.8469
  636TIP3   OH223542   0.741   4.076   0.924  0.2045 -0.2263 -0.0274
  636TIP3    H123543   0.832   4.049   0.915  0.4292  0.4348  0.2675
  636TIP3    H223544   0.699   4.045   0.843  1.1105  1.1630 -1.0678
  637TIP3   OH223545   2.055   1.037   0.677  0.5134  0.5432 -0.3298
  637TIP3    H123546   2.011   1.079   0.603  0.1411  1.9434  0.6327
  637TIP3    H223547   2.062   0.945   0.652 -2.5376  0.3270 -0.7311
  638TIP3   OH223548   0.752   0.108   0.846 -0.0153 -0.2197 -0.2182
  638TIP3    H123549   0.808   0.104   0.923 -1.7002  2.4097  1.3047
  638TIP3    H223550   0.663   0.101   0.881 -0.8095  0.4311 -1.9833
  639TIP3   OH223551   5.145   6.335   8.495 -0.2674 -0.5278 -0.4575
  639TIP3    H123552   5.161   6.314   8.403  0.3726 -0.7491 -0.3042
  639TIP3    H223553   5.072   6.279   8.521  0.7647 -1.8806 -0.3312
  640TIP3   OH223554   5.480   0.111   8.533 -0.3512  0.0020  0.1167
  640TIP3    H123555   5.535   0.032   8.524 -0.9844 -0.5621  1.0484
  640TIP3    H223556   5.406   0.095   8.475 -0.2819  0.0992 -0.0003
  641TIP3   OH223557   6.862   0.677   8.070  0.1156  0.3484  0.0751
  641TIP3    H123558   6.929   0.644   8.129 -0.2877 -0.7998 -0.0679
  641TIP3    H223559   6.781   0.674   8.121  0.1003  1.3781  0.1323
  642TIP3   OH223560   5.272   6.626   8.034  0.3194  0.1867 -0.2198
  642TIP3    H123561   5.332   6.668   7.973  0.1146  3.2176  1.5003
  642TIP3    H223562   5.187   6.629   7.991  0.2728  1.8352 -0.0670
  643TIP3   OH223563   2.631   3.925   0.836  0.0337 -0.2963  0.2472
  643TIP3    H123564   2.619   3.980   0.758 -2.5527  0.1833  0.9036
  643TIP3    H223565   2.685   3.852   0.805 -1.2699 -0.3561 -2.1392
  644TIP3   OH223566   5.810   1.312   0.309 -0.0995 -0.3297 -0.2382
  644TIP3    H123567   5.817   1.301   0.404 -1.4778  0.7079  0.0085
  644TIP3    H223568   5.813   1.223   0.274 -0.8298 -0.8122  0.8765
  645TIP3   OH223569   1.189   0.776   1.462 -0.5517  0.1688  0.2525
  645TIP3    H123570   1.195   0.798   1.555 -2.3203 -1.6257  0.8756
  645TIP3    H223571   1.104   0.733   1.454 -0.0863 -0.4194 -2.0543
  646TIP3   OH223572   3.691   4.023   1.046  0.0470  0.0927 -0.4000
  646TIP3    H123573   3.680   4.057   1.134 -0.4295 -0.4621 -0.2421
  646TIP3    H223574   3.746   4.088   1.002  0.5014  0.2416  0.3781
  647TIP3   OH223575   5.573   5.720   1.141 -0.2733 -0.4112  0.2905
  647TIP3    H123576   5.617   5.776   1.077  0.7110  0.5950  1.7787
  647TIP3    H223577   5.639   5.707   1.210 -0.4546 -3.4436  0.0116
  648TIP3   OH223578   3.315   1.627   8.446  0.1295  0.0261  0.1233
  648TIP3    H123579   3.220   1.613   8.440 -0.1162  0.9491  1.4282
  648TIP3    H223580   3.341   1.576   8.522  0.4478  0.8520  0.5729
  649TIP3   OH223581   6.475   4.836   2.775  0.4444 -0.1127 -0.7361
  649TIP3    H123582   6.392   4.808   2.814 -0.2440  2.1176 -0.4881
  649TIP3    H223583   6.459   4.924   2.743  3.1857  1.1144  0.8517
  650TIP3   OH223584   5.265   3.510   0.676  0.0154  0.1977  0.1214
  650TIP3    H123585   5.185   3.514   0.728 -0.0197 -2.3401  0.4278
  650TIP3    H223586   5.330   3.557   0.729 -0.8380  0.7068  0.7435
  651TIP3   OH223587   2.277   3.402   1.381 -0.0509  0.2718 -0.3844
  651TIP3    H123588   2.299   3.315   1.414  0.6034 -0.0915 -1.7032
  651TIP3    H223589   2.305   3.462   1.450  1.7930 -0.4172 -0.4839
  652TIP3   OH223590   2.909   6.002   1.603 -0.0887 -0.1305 -0.3280
  652TIP3    H123591   2.985   6.018   1.660  0.8348  0.4835 -1.6697
  652TIP3    H223592   2.850   6.075   1.621  0.5310  0.4666 -0.6768
  653TIP3   OH223593   5.277   1.471   2.223 -0.0413  0.4475 -0.4267
  653TIP3    H123594   5.269   1.567   2.219 -0.0844  0.4142 -1.3276
  653TIP3    H223595   5.297   1.453   2.315  1.3300  1.4323 -0.4993
  654TIP3   OH223596   3.900   6.654   1.623 -0.1418 -0.2741 -0.1667
  654TIP3    H123597   3.825   6.625   1.676  1.9623 -2.4932  1.8152
  654TIP3    H223598   3.929   6.735   1.665  1.0013 -1.5824  1.7007
  655TIP3   OH223599   0.803   5.923   0.883  0.0817  0.2497  0.1700
  655TIP3    H123600   0.845   6.006   0.859  1.0355  0.0266  0.9643
  655TIP3    H223601   0.709   5.939   0.872  0.3137  1.0997 -0.6785
  656TIP3   OH223602   0.731   0.655   2.114  0.2079  0.0081 -1.0484
  656TIP3    H123603   0.775   0.629   2.194 -0.4610  1.0706 -0.3071
  656TIP3    H223604   0.643   0.617   2.121  0.2135 -0.0708 -1.3760
  657TIP3   OH223605   2.438   2.275   7.573 -0.1388 -0.2507 -0.2503
  657TIP3    H123606   2.459   2.208   7.508  1.2736  0.6279 -0.7712
  657TIP3    H223607   2.373   2.330   7.530  0.4919  0.0921 -0.7982
  658TIP3   OH223608   2.450   6.847   3.156  0.1399 -0.5814 -0.4183
  658TIP3    H123609   2.513   6.803   3.098  0.8813  0.4215 -0.4078
  658TIP3    H223610   2.367   6.803   3.139  0.9928 -2.5753  0.2237
  659TIP3   OH223611   4.649   1.882   0.313 -0.3108 -0.2447  0.0362
  659TIP3    H123612   4.715   1.860   0.379  1.4300 -1.8859 -2.0782
  659TIP3    H223613   4.566   1.856   0.352  0.8008 -2.4824  1.1186
  660TIP3   OH223614   3.206   2.139   8.153 -0.3798 -0.6084  0.0964
  660TIP3    H123615   3.142   2.078   8.191 -1.0840 -1.0154 -1.6458
  660TIP3    H223616   3.153   2.212   8.121  0.2211 -0.1409  0.1528
  661TIP3   OH223617   5.676   0.095   2.077  0.0663 -0.2800  0.0572
  661TIP3    H123618   5.729   0.175   2.085 -1.0353  0.3859  1.0359
  661TIP3    H223619   5.595   0.116   2.123 -0.4603 -1.7953 -0.1383
  662TIP3   OH223620   2.162   4.918   2.327  0.0786  0.3836 -0.6605
  662TIP3    H123621   2.152   5.008   2.296 -0.4884 -0.0545 -1.8247
  662TIP3    H223622   2.075   4.895   2.362  0.1881  0.2458 -0.4757
  663TIP3   OH223623   6.225   2.203   2.362  0.2074  0.5589  0.8287
  663TIP3    H123624   6.305   2.239   2.324  0.7829  0.7685  2.1728
  663TIP3    H223625   6.177   2.169   2.287  1.2670  0.9727 -0.0851
  664TIP3   OH223626   5.102   5.965   1.234 -0.5139 -0.6066 -0.1495
  664TIP3    H123627   5.071   6.055   1.224  1.7446  0.1588 -1.1109
  664TIP3    H223628   5.028   5.910   1.210 -1.3192  1.0506 -1.6715
  665TIP3   OH223629   5.046   0.345   7.223  0.4414 -0.0143  0.0773
  665TIP3    H123630   4.992   0.380   7.294  0.6862 -0.7535  0.6338
  665TIP3    H223631   5.120   0.406   7.218  1.7699 -1.3189  2.2011
  666TIP3   OH223632   4.375   4.169   7.764 -0.2973 -0.1258 -0.2766
  666TIP3    H123633   4.334   4.163   7.850  0.7010 -0.1301  0.2133
  666TIP3    H223634   4.318   4.117   7.707 -0.9668 -0.1249  0.3780
  667TIP3   OH223635   1.105   0.369   0.961  0.1999 -0.2390 -0.4022
  667TIP3    H123636   1.191   0.365   0.918  0.2239  0.9406 -0.4889
  667TIP3    H223637   1.122   0.416   1.043 -0.2329 -0.6563 -0.0683
  668TIP3   OH223638   5.756   2.519   2.867 -0.1098 -0.3414  0.1754
  668TIP3    H123639   5.823   2.483   2.809  0.3041  0.8847 -0.1405
  668TIP3    H223640   5.804   2.548   2.944 -0.1994  0.8447 -0.1895
  669TIP3   OH223641   3.757   2.767   8.137  0.4383  0.1066 -0.7240
  669TIP3    H123642   3.836   2.770   8.192  0.6995  0.2782 -1.1092
  669TIP3    H223643   3.735   2.674   8.133 -0.4258  0.1967  0.8637
  670TIP3   OH223644   3.304   5.216   8.576 -0.3019  0.3622  0.1612
  670TIP3    H123645   3.290   5.130   8.537 -0.8000  0.6139 -0.2272
  670TIP3    H223646   3.253   5.214   8.657 -0.1555  0.2269  0.2520
  671TIP3   OH223647   2.689   3.542   3.085  0.4395 -0.5286 -0.1646
  671TIP3    H123648   2.642   3.483   3.144  0.4458 -0.7746 -0.4030
  671TIP3    H223649   2.624   3.570   3.021  0.6324 -0.9369 -0.5452
  672TIP3   OH223650   5.098   1.775   7.750 -0.2815  0.1834 -0.1818
  672TIP3    H123651   5.041   1.760   7.825  0.5987  1.9736  0.9349
  672TIP3    H223652   5.042   1.762   7.673 -1.9702  1.0686  0.8431
  673TIP3   OH223653   5.931   6.286   1.690 -0.0373 -0.3886 -0.3780
  673TIP3    H123654   5.857   6.271   1.631  0.4515  0.1000 -1.1335
  673TIP3    H223655   5.891   6.303   1.776 -0.7605 -0.9971 -0.5871
  674TIP3   OH223656   4.085   5.431   2.369 -0.3108  0.5252 -0.5368
  674TIP3    H123657   4.110   5.339   2.384  1.5997  1.0822 -0.0340
  674TIP3    H223658   4.161   5.481   2.397 -2.3048  2.4707  1.9327
  675TIP3   OH223659   3.131   5.453   2.090 -0.3140 -0.2474 -0.9929
  675TIP3    H123660   3.221   5.470   2.062  0.8100 -1.8244  1.3226
  675TIP3    H223661   3.136   5.446   2.185 -2.8131 -0.8385 -0.8297
  676TIP3   OH223662   5.720   6.728   2.659 -0.0369 -0.2748 -0.3313
  676TIP3    H123663   5.649   6.710   2.598  0.0027  0.6835 -0.6728
  676TIP3    H223664   5.680   6.717   2.746 -0.9815  1.5536 -0.4957
  677TIP3   OH223665   6.501   1.642   0.287  0.1015  0.2633  0.0468
  677TIP3    H123666   6.533   1.730   0.264  0.9277  0.8151  2.9340
  677TIP3    H223667   6.572   1.583   0.261  0.7967  0.7865  0.7254
  678TIP3   OH223668   5.267   1.287   1.655  0.4170 -0.0188 -0.5918
  678TIP3    H123669   5.177   1.301   1.682  0.8014  0.5485  0.4679
  678TIP3    H223670   5.303   1.228   1.721  0.3978 -1.5202 -1.8820
  679TIP3   OH223671   4.925   6.207   0.139  0.3607  0.4282  0.0890
  679TIP3    H123672   5.004   6.184   0.091  0.2338 -0.1225  0.1419
  679TIP3    H223673   4.949   6.198   0.231 -0.3671 -1.9049  0.1149
  680TIP3   OH223674   4.683   3.886   8.252  0.0644 -0.2011  0.2891
  680TIP3    H123675   4.694   3.881   8.157 -0.7034  0.5402  0.1525
  680TIP3    H223676   4.589   3.883   8.266  0.1692 -0.2304  1.0252
  681TIP3   OH223677   2.017   5.845   0.216  0.3075 -0.2067 -0.2794
  681TIP3    H123678   2.093   5.790   0.236  0.4057 -0.3439 -0.9873
  681TIP3    H223679   2.020   5.915   0.280  0.6994 -0.5345  0.0659
  682TIP3   OH223680   0.103   4.006   2.948  0.8494  0.0438  0.0514
  682TIP3    H123681   0.099   3.970   2.860 -2.2442 -0.1807  0.1878
  682TIP3    H223682   0.096   4.101   2.935 -0.1543 -0.0207  0.0402
  683TIP3   OH223683   3.084   1.988   7.882  0.3728  0.4467 -0.1385
  683TIP3    H123684   3.088   2.072   7.928  0.5300  0.3675 -0.0070
  683TIP3    H223685   3.099   2.010   7.790  0.7322  0.5257 -0.0623
  684TIP3   OH223686   1.324   6.469   7.562 -0.2330  0.1502  0.1456
  684TIP3    H123687   1.351   6.394   7.615  0.2804  0.0905 -0.2022
  684TIP3    H223688   1.282   6.528   7.625 -0.3130 -0.2610  0.4833
  685TIP3   OH223689   1.706   5.750   1.042  0.3398  0.2515  0.1598
  685TIP3    H123690   1.702   5.844   1.028 -1.8510  0.0433 -1.1278
  685TIP3    H223691   1.614   5.721   1.040  0.8477 -1.7675  1.7174
  686TIP3   OH223692   5.911   2.170   0.564 -0.4443  0.2676 -0.3731
  686TIP3    H123693   5.997   2.130   0.574 -0.0899  0.9419 -0.6563
  686TIP3    H223694   5.859   2.105   0.519 -0.3509 -0.5079  0.6066
  687TIP3   OH223695   6.485   3.813   8.552  0.1415 -0.7701 -0.0936
  687TIP3    H123696   6.446   3.725   8.554 -1.2815 -0.1861 -0.4616
  687TIP3    H223697   6.579   3.798   8.562 -0.1098 -2.3022  0.2665
  688TIP3   OH223698   3.492   5.784   8.125 -0.2834 -0.8561  0.2059
  688TIP3    H123699   3.504   5.876   8.148 -2.4203 -0.7486  1.0932
  688TIP3    H223700   3.449   5.786   8.039  1.0971 -1.1110 -0.5317
  689TIP3   OH223701   5.255   3.066   1.777  0.2075  0.2549  0.6691
  689TIP3    H123702   5.339   3.111   1.767 -0.4317  1.0881 -1.4580
  689TIP3    H223703   5.234   3.076   1.870  1.5423  1.7022  0.8666
  690TIP3   OH223704   3.017   0.332   1.067  0.7729 -0.1848 -0.4076
  690TIP3    H123705   3.092   0.376   1.026  1.1980  0.3432  0.9052
  690TIP3    H223706   2.942   0.387   1.044  0.2291 -2.1112 -4.0332
  691TIP3   OH223707   5.485   4.170   2.595 -0.6882  0.1347 -0.0916
  691TIP3    H123708   5.548   4.099   2.585 -1.2093 -0.2469 -0.7243
  691TIP3    H223709   5.458   4.167   2.687  0.0662  0.1858  0.1384
  692TIP3   OH223710   1.881   4.047   0.669  0.3541  0.2209 -0.0384
  692TIP3    H123711   1.945   4.031   0.738 -0.2022 -0.0596  0.4225
  692TIP3    H223712   1.919   4.117   0.617  0.1176  1.4704  1.4115
  693TIP3   OH223713   6.700   1.872   8.692  0.1456 -0.0570  0.2719
  693TIP3    H123714   6.767   1.915   8.745  0.5272 -1.0878  0.6523
  693TIP3    H223715   6.640   1.834   8.756 -0.4223  0.2623 -0.0629
  694TIP3   OH223716   5.876   2.055   8.001 -0.2317  0.3940  0.3139
  694TIP3    H123717   5.909   2.140   8.033 -1.5184  1.6214 -1.4266
  694TIP3    H223718   5.789   2.047   8.042 -0.0359 -0.1836  0.6183
  695TIP3   OH223719   6.726   5.321   1.473 -0.3872 -0.4131  0.3782
  695TIP3    H123720   6.760   5.410   1.462 -0.5047 -0.4912 -0.7015
  695TIP3    H223721   6.733   5.281   1.386  0.3952 -1.7298  1.0137
  696TIP3   OH223722   5.714   6.419   0.812 -0.5271  0.3319  0.6429
  696TIP3    H123723   5.742   6.413   0.903 -1.8054  0.7960  1.0873
  696TIP3    H223724   5.622   6.447   0.817 -0.5876  0.4489 -0.7879
  697TIP3   OH223725   0.502   5.117   1.519 -0.0561 -0.5596 -0.1170
  697TIP3    H123726   0.478   5.195   1.469 -0.6511 -0.4913  0.2568
  697TIP3    H223727   0.505   5.147   1.610  1.6742 -0.5279 -0.1557
  698TIP3   OH223728   4.949   4.163   3.040  0.1047  0.1369  0.6288
  698TIP3    H123729   4.984   4.238   2.991 -0.6571 -0.6396 -1.2337
  698TIP3    H223730   5.012   4.093   3.025 -0.0207 -0.0476  0.9655
  699TIP3   OH223731   4.278   0.080   0.356  0.8218  0.2881  0.1189
  699TIP3    H123732   4.235   0.032   0.427  1.0304 -0.9938 -0.5926
  699TIP3    H223733   4.219   0.154   0.338  0.4056  0.2208  1.1275
  700TIP3   OH223734   5.682   1.887   3.012  0.1597 -0.0373  0.1321
  700TIP3    H123735   5.658   1.849   2.927 -0.3202  0.4188  0.0609
  700TIP3    H223736   5.736   1.963   2.990 -0.0557  0.1446  0.2294
  701TIP3   OH223737   6.853   1.541   8.213  0.8529  0.0067 -0.0820
  701TIP3    H123738   6.777   1.599   8.225  2.7857  2.8940 -0.6551
  701TIP3    H223739   6.923   1.583   8.264  2.3505 -1.9652 -0.4111
  702TIP3   OH223740   1.024   4.260   1.767  0.2098 -0.6180  0.3166
  702TIP3    H123741   0.975   4.236   1.689  0.8206  0.2334 -0.3442
  702TIP3    H223742   1.099   4.309   1.735 -0.1777  0.8299  1.4849
  703TIP3   OH223743   6.653   0.146   2.961 -0.4785 -0.4415 -0.3549
  703TIP3    H123744   6.698   0.094   3.028  0.8105 -0.2034 -0.9937
  703TIP3    H223745   6.576   0.181   3.006  1.0426  0.8280  1.4608
  704TIP3   OH223746   1.931   3.348   1.577  0.5773 -1.3284  0.8239
  704TIP3    H123747   1.901   3.289   1.645  0.5178  0.6727  2.6587
  704TIP3    H223748   2.016   3.380   1.609  0.9298 -0.9235 -0.4390
  705TIP3   OH223749   4.155   6.559   8.034 -0.1600 -0.1812 -0.0165
  705TIP3    H123750   4.076   6.597   7.996  0.3290 -0.3861 -1.2625
  705TIP3    H223751   4.127   6.472   8.064 -0.8148  0.3994  1.1305
  706TIP3   OH223752   3.556   6.329   1.941 -0.6352  0.0152 -0.0077
  706TIP3    H123753   3.589   6.312   2.029  0.6059  3.4674  0.3309
  706TIP3    H223754   3.495   6.402   1.951  0.6397  1.4870 -2.1122
  707TIP3   OH223755   4.313   6.333   0.153  0.4628  0.4947 -0.0165
  707TIP3    H123756   4.392   6.349   0.204  1.0874  0.1668 -0.8595
  707TIP3    H223757   4.281   6.420   0.131 -0.5273  0.6874  1.9538
  708TIP3   OH223758   4.985   2.598   0.521 -0.2974 -0.8296  0.0163
  708TIP3    H123759   5.037   2.601   0.601  0.5541 -0.8447 -0.5217
  708TIP3    H223760   5.029   2.533   0.466 -1.3441 -1.4178 -0.1538
  709TIP3   OH223761   4.993   6.057   0.796 -0.1165  0.6326 -0.7193
  709TIP3    H123762   4.940   6.134   0.818 -1.9785 -0.8758  0.3847
  709TIP3    H223763   5.019   6.071   0.705 -1.0501  2.2029 -0.7817
  710TIP3   OH223764   4.277   2.820   1.883  0.2049 -0.3311  0.1324
  710TIP3    H123765   4.285   2.916   1.882  0.4268 -0.3363  0.8972
  710TIP3    H223766   4.259   2.797   1.792 -0.6191  0.5092  0.0613
  711TIP3   OH223767   4.944   6.229   2.761 -0.1160  0.2104  0.3465
  711TIP3    H123768   4.998   6.152   2.741  0.3239  0.3565  0.9276
  711TIP3    H223769   4.943   6.279   2.680  1.0866  0.4724  0.4729
  712TIP3   OH223770   0.641   4.489   1.975  0.5229  0.4336  0.1166
  712TIP3    H123771   0.602   4.491   2.062 -1.3000 -1.0006 -0.6052
  712TIP3    H223772   0.732   4.463   1.990 -0.1889 -1.4804  1.4876
  713TIP3   OH223773   3.531   3.594   8.091 -0.2568 -0.2901  0.0430
  713TIP3    H123774   3.465   3.524   8.099 -1.3627  0.5507 -1.2407
  713TIP3    H223775   3.481   3.675   8.103  1.1633  0.3275  2.5222
  714TIP3   OH223776   1.262   4.243   8.250  0.4866 -0.8236  0.3390
  714TIP3    H123777   1.202   4.230   8.323  0.0762 -0.0641  0.1432
  714TIP3    H223778   1.210   4.289   8.184  0.9083 -1.3336 -0.3562
  715TIP3   OH223779   1.283   0.755   7.106  0.9020 -0.6039 -0.7464
  715TIP3    H123780   1.229   0.677   7.100  1.4532 -1.1067  0.4277
  715TIP3    H223781   1.372   0.724   7.089  1.1894 -0.3513  0.2022
  716TIP3   OH223782   5.834   3.728   2.837  0.1660  0.2828 -0.0465
  716TIP3    H123783   5.876   3.657   2.886  0.3615 -1.7655 -2.8963
  716TIP3    H223784   5.817   3.796   2.902  2.6201 -1.1718  2.3168
  717TIP3   OH223785   0.556   1.433   8.177 -0.1400  0.1424  0.2861
  717TIP3    H123786   0.501   1.506   8.148 -0.4079 -0.3701 -0.5078
  717TIP3    H223787   0.634   1.438   8.122 -0.3324 -0.4016 -0.0433
  718TIP3   OH223788   5.419   5.792   0.179 -0.2234  0.5120  0.2189
  718TIP3    H123789   5.491   5.736   0.207  0.1062  0.4404 -0.7488
  718TIP3    H223790   5.462   5.867   0.138 -0.7033  0.4964 -0.3141
  719TIP3   OH223791   0.952   5.037   8.669 -0.9327 -0.7622  0.2145
  719TIP3    H123792   0.900   4.967   8.709  0.7855 -1.8813  0.5836
  719TIP3    H223793   0.980   5.000   8.585 -2.5787  0.7001 -1.0598
  720TIP3   OH223794   6.288   3.207   2.161  0.5284  0.4730  0.7896
  720TIP3    H123795   6.233   3.283   2.182 -0.6574 -0.5293  1.4853
  720TIP3    H223796   6.302   3.213   2.066  0.0440  1.2932  0.7609
  721TIP3   OH223797   1.306   5.637   0.068  0.6683 -0.0664 -0.1995
  721TIP3    H123798   1.387   5.594   0.041  1.1903  0.1101  1.0289
  721TIP3    H223799   1.333   5.701   0.133 -0.4123  0.3255 -0.1130
  722TIP3   OH223800   5.015   3.316   1.512 -0.3887 -0.0566  0.3230
  722TIP3    H123801   4.991   3.223   1.506 -0.6650 -0.0553  1.2912
  722TIP3    H223802   4.933   3.361   1.531 -0.2109  0.3649  0.1112
  723TIP3   OH223803   6.531   3.241   0.105 -0.1463  0.0822 -0.4015
  723TIP3    H123804   6.625   3.253   0.091  0.5660 -1.7812  2.0595
  723TIP3    H223805   6.495   3.330   0.100  1.8978  0.9777 -0.3966
  724TIP3   OH223806   5.155   1.561   8.581 -0.3584 -0.2933 -0.6673
  724TIP3    H123807   5.249   1.574   8.593 -0.2575 -1.0326 -0.6152
  724TIP3    H223808   5.143   1.562   8.486 -0.5477  1.4097 -0.6557
  725TIP3   OH223809   0.759   4.463   0.637 -0.3068  0.1474  0.1390
  725TIP3    H123810   0.736   4.556   0.644  0.9540  0.4433  0.7154
  725TIP3    H223811   0.849   4.459   0.668 -0.6573 -1.4238  1.0531
  726TIP3   OH223812   3.801   2.990   7.805 -0.1051 -0.7864  0.2071
  726TIP3    H123813   3.809   3.000   7.710 -1.1395 -1.3858  0.0384
  726TIP3    H223814   3.730   3.049   7.829  0.3726 -0.3901  0.6674
  727TIP3   OH223815   5.746   1.790   1.673 -0.0801 -0.3552 -0.6172
  727TIP3    H123816   5.727   1.715   1.617  0.2054  1.1428 -2.8855
  727TIP3    H223817   5.662   1.836   1.681 -0.6584 -1.7157  2.1943
  728TIP3   OH223818   5.952   3.492   2.109  0.4696 -0.4002  0.4453
  728TIP3    H123819   5.889   3.422   2.127  0.1207 -0.4576 -0.9124
  728TIP3    H223820   6.007   3.457   2.039 -0.1046  0.9020 -0.6959
  729TIP3   OH223821   0.254   5.257   2.991  0.2649 -0.5985  0.4891
  729TIP3    H123822   0.311   5.223   3.060 -0.7502 -0.4384  1.4331
  729TIP3    H223823   0.311   5.313   2.939  0.7921  0.2607  1.9213
  730TIP3   OH223824   3.624   2.894   1.739  0.6980  0.4187 -0.4798
  730TIP3    H123825   3.637   2.979   1.698  1.4033  1.1890  1.2105
  730TIP3    H223826   3.642   2.909   1.832  1.8915 -1.8057 -0.2691
  731TIP3   OH223827   3.468   1.516   1.415  0.0498 -0.2803  0.3687
  731TIP3    H123828   3.402   1.579   1.386  0.4897  0.6989  1.3963
  731TIP3    H223829   3.551   1.557   1.393  0.3300 -0.8550  0.3488
  732TIP3   OH223830   2.324   5.212   3.352  0.3369  0.5934  0.1598
  732TIP3    H123831   2.402   5.262   3.328 -0.4244  1.4251 -0.6999
  732TIP3    H223832   2.319   5.218   3.447  1.5060  0.2212  0.2551
  733TIP3   OH223833   0.809   5.819   0.255 -0.4593  0.0116 -0.4151
  733TIP3    H123834   0.887   5.775   0.222  0.3954  1.3399 -0.2319
  733TIP3    H223835   0.798   5.785   0.344  1.1423  1.2902  0.3316
  734TIP3   OH223836   5.243   1.014   2.738 -0.3520  0.3902  0.9108
  734TIP3    H123837   5.304   0.983   2.671  0.2411  2.4075  0.4622
  734TIP3    H223838   5.198   0.935   2.767 -0.7040 -0.5975 -1.9438
  735TIP3   OH223839   1.167   2.996   2.944 -0.7932 -0.3158  0.2062
  735TIP3    H123840   1.140   2.925   3.003  1.3435 -1.0247  0.4414
  735TIP3    H223841   1.126   3.074   2.979 -1.8130 -1.1692  0.9738
  736TIP3   OH223842   0.435   6.325   0.643 -0.0138 -0.0675 -0.3279
  736TIP3    H123843   0.355   6.339   0.592 -0.0695  0.5598 -0.0773
  736TIP3    H223844   0.504   6.364   0.588  0.0685 -0.2790 -0.3751
  737TIP3   OH223845   0.945   1.012   8.462  0.8459  0.3679  0.6240
  737TIP3    H123846   0.939   0.917   8.457 -1.4661  0.3854  1.9906
  737TIP3    H223847   1.001   1.036   8.388  2.2633 -2.0783  0.7981
  738TIP3   OH223848   3.651   3.185   1.733 -0.0476  0.2577  0.2816
  738TIP3    H123849   3.745   3.200   1.723  0.2800 -0.9010  1.3997
  738TIP3    H223850   3.616   3.272   1.754  0.9882  0.4588  1.2924
  739TIP3   OH223851   1.217   5.937   7.990  0.0433  0.2413 -0.1728
  739TIP3    H123852   1.241   5.867   8.051  1.4498 -1.0706 -2.1147
  739TIP3    H223853   1.132   5.911   7.955 -1.0060  1.2507  1.5072
  740TIP3   OH223854   4.734   4.815   2.854 -0.1377  0.3558 -0.6107
  740TIP3    H123855   4.824   4.804   2.885  0.4992 -1.5225 -2.8909
  740TIP3    H223856   4.681   4.795   2.931  1.3762 -0.3271  0.3277
  741TIP3   OH223857   0.066   3.882   1.945 -0.0303 -0.0090  0.6106
  741TIP3    H123858   0.096   3.972   1.929  1.8168 -0.5607  0.7190
  741TIP3    H223859  -0.023   3.892   1.979 -0.0072  1.7500  0.2624
  742TIP3   OH223860   2.866   1.623   1.523  0.3353 -0.7076 -0.7593
  742TIP3    H123861   2.944   1.597   1.474  1.2893 -0.2653  0.4860
  742TIP3    H223862   2.899   1.675   1.596 -1.1003 -0.9038  0.0691
  743TIP3   OH223863   0.028   6.387   0.256  0.8320 -0.7000  0.6788
  743TIP3    H123864  -0.047   6.392   0.196  0.5214 -0.4468  1.0827
  743TIP3    H223865   0.053   6.294   0.255  1.0561 -0.6400 -0.1092
  744TIP3   OH223866   4.327   1.912   0.911 -0.2878  0.6707  0.2743
  744TIP3    H123867   4.413   1.951   0.891 -0.4050  0.2906 -1.0832
  744TIP3    H223868   4.266   1.957   0.853 -0.7626 -0.0741  0.1810
  745TIP3   OH223869   4.117   4.632   2.164  0.2964  0.4940  0.0024
  745TIP3    H123870   4.043   4.690   2.184  0.8633  1.1631  0.1856
  745TIP3    H223871   4.169   4.680   2.100 -0.1731 -0.5826 -1.2289
  746TIP3   OH223872   3.027   2.473   2.815  0.0393 -0.2250  0.0175
  746TIP3    H123873   2.946   2.503   2.857  0.1123  1.2810 -0.8401
  746TIP3    H223874   3.091   2.467   2.886 -0.1874  0.9922  0.3396
  747TIP3   OH223875   4.015   4.459   8.684 -0.0849 -0.2782 -0.0579
  747TIP3    H123876   4.055   4.435   8.768  0.7549 -0.8519 -0.5993
  747TIP3    H223877   3.992   4.551   8.694  0.1556 -0.2918  0.7470
  748TIP3   OH223878   1.947   4.742   7.109 -0.5445  0.0339  0.1917
  748TIP3    H123879   1.881   4.686   7.150 -0.1539  0.5526  1.5833
  748TIP3    H223880   2.030   4.696   7.124 -0.4851 -0.2023 -0.8086
  749TIP3   OH223881   4.186   4.019   0.709 -0.4630 -0.1460  0.4405
  749TIP3    H123882   4.149   4.105   0.690 -0.5824 -0.0199  1.1926
  749TIP3    H223883   4.167   3.966   0.632 -2.1545 -0.0688  0.7843
  750TIP3   OH223884   0.099   0.075   7.526 -0.4041  0.3603 -0.0051
  750TIP3    H123885   0.141   0.074   7.440  0.2503  0.4157  0.3105
  750TIP3    H223886   0.150   0.138   7.578 -0.1100 -0.4794  0.7579
  751TIP3   OH223887   4.356   6.775   0.949 -0.2267  0.2243 -0.5544
  751TIP3    H123888   4.305   6.695   0.963  1.3969 -0.8521 -0.5321
  751TIP3    H223889   4.373   6.808   1.037  0.4965 -0.3396 -0.4738
  752TIP3   OH223890   4.954   2.044   0.537 -0.6602  0.1990  0.0998
  752TIP3    H123891   4.947   2.139   0.549  0.2647  0.0265  2.6697
  752TIP3    H223892   5.003   2.034   0.456  0.1663  1.9692  0.3183
  753TIP3   OH223893   4.965   1.901   8.487  0.0460  0.0073 -0.5640
  753TIP3    H123894   5.047   1.862   8.456  0.2208  0.1496 -0.2861
  753TIP3    H223895   4.913   1.827   8.517  0.1035 -0.0767 -0.6720
  754TIP3   OH223896   3.773   0.579   2.781  0.0314  0.8575  0.3751
  754TIP3    H123897   3.794   0.489   2.805  1.0170  1.0132  0.1567
  754TIP3    H223898   3.697   0.571   2.723  1.5331 -0.0639 -1.5838
  755TIP3   OH223899   2.679   3.338   1.663  0.0088 -0.2025 -0.1119
  755TIP3    H123900   2.695   3.409   1.725  0.2196 -0.4530  0.1191
  755TIP3    H223901   2.688   3.380   1.577 -1.2769  0.3695  0.0124
  756TIP3   OH223902   3.337   1.916   8.357  0.5236 -0.4926 -0.3090
  756TIP3    H123903   3.266   1.922   8.293 -1.2039  0.6108  1.5809
  756TIP3    H223904   3.319   1.834   8.404  0.8846 -0.5265 -0.2284
  757TIP3   OH223905   0.846   2.342   7.289  0.1179 -0.1142 -0.1286
  757TIP3    H123906   0.765   2.324   7.337  0.3841  1.6986  1.1125
  757TIP3    H223907   0.829   2.311   7.200 -1.5982 -0.5892  0.3338
  758TIP3   OH223908   6.787   5.577   3.543 -0.5196 -0.0856  0.2536
  758TIP3    H123909   6.716   5.516   3.566  0.2517 -0.3736  1.9542
  758TIP3    H223910   6.742   5.659   3.522 -1.3908 -0.3395  1.0499
  759TIP3   OH223911   6.419   4.198   1.638 -0.1238  0.3993 -0.1972
  759TIP3    H123912   6.505   4.173   1.605  0.7129 -0.4418  2.4113
  759TIP3    H223913   6.421   4.294   1.639 -0.5770  0.5605 -3.2806
  760TIP3   OH223914   6.087   0.902   1.411 -0.2898  0.1137 -0.0532
  760TIP3    H123915   6.065   0.872   1.323  0.4479  1.7732 -0.8489
  760TIP3    H223916   6.170   0.948   1.400 -1.0650  1.8967  1.1697
  761TIP3   OH223917   5.194   6.530   1.727  0.4284  0.3124  0.4522
  761TIP3    H123918   5.113   6.495   1.765  0.4779 -2.5560 -1.7704
  761TIP3    H223919   5.254   6.455   1.724  2.1564  1.6547 -0.6064
  762TIP3   OH223920   4.005   6.167   2.123  0.0336 -0.4458 -0.3487
  762TIP3    H123921   4.042   6.112   2.192 -0.2565 -1.2492 -0.8221
  762TIP3    H223922   3.911   6.151   2.127 -0.0085 -0.3060 -0.7687
  763TIP3   OH223923   3.276   4.205   2.474 -0.1043  0.0886 -0.5677
  763TIP3    H123924   3.196   4.153   2.475 -0.3168  0.3074 -2.3340
  763TIP3    H223925   3.316   4.190   2.559 -2.5686  0.8335  0.8406
  764TIP3   OH223926   3.384   5.145   2.680 -0.0772  0.0535  0.6654
  764TIP3    H123927   3.472   5.153   2.642  0.3126 -0.8321  1.3518
  764TIP3    H223928   3.333   5.101   2.612 -0.2869  1.4973 -0.1541
  765TIP3   OH223929   0.419   6.436   1.695 -0.0048 -0.1636 -0.6860
  765TIP3    H123930   0.400   6.342   1.688 -1.1877 -0.1212  1.2212
  765TIP3    H223931   0.335   6.478   1.678  0.5037  0.5784 -1.4474
  766TIP3   OH223932   2.182   0.699   0.315  0.0958 -0.2568 -0.2730
  766TIP3    H123933   2.170   0.649   0.235 -0.1462  0.0670 -0.4432
  766TIP3    H223934   2.134   0.781   0.299 -2.8155 -1.4889  1.4291
  767TIP3   OH223935   0.666   4.906   8.731 -0.1754 -0.3300 -0.3563
  767TIP3    H123936   0.694   4.983   8.682 -1.3937  0.1267 -0.3639
  767TIP3    H223937   0.577   4.889   8.700 -0.5671 -0.6778  0.9054
  768TIP3   OH223938   1.772   2.791   1.854 -0.2154 -0.0399  0.0739
  768TIP3    H123939   1.835   2.719   1.854 -0.3280 -0.1466  1.0520
  768TIP3    H223940   1.757   2.810   1.946 -1.2560  0.3083 -0.1579
  769TIP3   OH223941   1.858   4.913   7.454  0.3876 -0.8591  0.0803
  769TIP3    H123942   1.792   4.855   7.414  1.4122 -0.8060 -1.8251
  769TIP3    H223943   1.899   4.956   7.379  1.9911 -0.2401  1.2753
  770TIP3   OH223944   6.267   2.764   7.721  0.4714 -0.5195  0.7229
  770TIP3    H123945   6.196   2.823   7.746 -0.2285 -1.4193  0.9196
  770TIP3    H223946   6.248   2.740   7.630  1.9740  1.2543 -0.1325
  771TIP3   OH223947   0.375   5.173   2.340 -0.6767  0.2342  0.0577
  771TIP3    H123948   0.468   5.173   2.362 -0.4897  0.0066 -0.6735
  771TIP3    H223949   0.359   5.085   2.304 -1.4065 -0.0638  1.0694
  772TIP3   OH223950   6.378   2.156   0.996  0.2531  0.6142 -0.0349
  772TIP3    H123951   6.387   2.203   1.079  0.2031 -0.4391  0.5895
  772TIP3    H223952   6.452   2.186   0.944  0.0067  1.6656  0.1946
  773TIP3   OH223953   3.283   3.628   2.557  0.3735 -0.0197  0.1561
  773TIP3    H123954   3.202   3.640   2.508  0.0329  1.5441  1.0430
  773TIP3    H223955   3.255   3.616   2.648  1.0938 -0.5995  0.3145
  774TIP3   OH223956   4.375   0.441   1.592  0.0158 -0.5107 -0.2600
  774TIP3    H123957   4.371   0.439   1.687  0.2995  0.5650 -0.2113
  774TIP3    H223958   4.350   0.530   1.568  1.2749 -0.3497 -1.1040
  775TIP3   OH223959   1.359   2.407   2.824  0.1442 -0.0651 -0.5885
  775TIP3    H123960   1.286   2.349   2.804 -0.4414  0.0942  0.9678
  775TIP3    H223961   1.399   2.370   2.902 -1.6687  2.7500  1.9078
  776TIP3   OH223962   1.343   4.104   0.748  0.5558  0.2783 -0.4132
  776TIP3    H123963   1.330   4.013   0.722 -1.7199  1.1415 -2.6143
  776TIP3    H223964   1.434   4.107   0.779  0.3859 -2.9229  0.8208
  777TIP3   OH223965   4.043   2.443   2.034  0.0168 -0.5574  0.0855
  777TIP3    H123966   4.110   2.399   1.981  1.8892  0.1967  1.6995
  777TIP3    H223967   3.964   2.393   2.019  0.4841 -0.5335 -3.2141
  778TIP3   OH223968   5.220   2.007   1.013 -0.0847  0.5096  0.3832
  778TIP3    H123969   5.290   1.943   1.006 -0.2658  0.4210 -0.7594
  778TIP3    H223970   5.142   1.954   1.031 -0.1317  0.4678  0.0520
  779TIP3   OH223971   3.396   2.600   2.455 -0.1638 -0.0532 -0.4296
  779TIP3    H123972   3.339   2.653   2.400  0.1256 -0.3594 -1.0348
  779TIP3    H223973   3.359   2.511   2.450  0.2962 -0.2339 -0.7490
  780TIP3   OH223974   2.560   4.059   7.618  0.2767 -0.1753 -1.0430
  780TIP3    H123975   2.540   4.095   7.531  1.9397 -0.1709 -1.4616
  780TIP3    H223976   2.612   3.981   7.600  1.5842  0.4334 -0.0487
  781TIP3   OH223977   5.291   6.203   1.745 -0.1534 -0.3125 -0.2293
  781TIP3    H123978   5.238   6.159   1.811 -0.6941  0.1903 -0.3193
  781TIP3    H223979   5.242   6.193   1.663  0.6391 -1.1619 -0.6248
  782TIP3   OH223980   1.105   4.541   2.807  0.5492  0.5844  0.1350
  782TIP3    H123981   1.163   4.484   2.858 -1.6318 -2.0383 -0.0162
  782TIP3    H223982   1.034   4.563   2.868 -0.3152  0.3062 -0.7346
  783TIP3   OH223983   0.702   5.347   2.780 -0.3528  0.2474 -0.1261
  783TIP3    H123984   0.778   5.404   2.796  0.6610 -0.9317 -0.5003
  783TIP3    H223985   0.739   5.258   2.784 -1.6391 -0.3354 -0.7773
  784TIP3   OH223986   0.523   6.835   7.568 -0.0731  0.3217 -0.3568
  784TIP3    H123987   0.582   6.762   7.548 -1.2466 -0.3433 -1.5792
  784TIP3    H223988   0.498   6.870   7.482 -1.6984  0.3713  0.1046
  785TIP3   OH223989   4.179   6.255   8.712 -0.6528 -0.3589 -0.3101
  785TIP3    H123990   4.219   6.300   8.787  0.0704 -1.8225  0.2333
  785TIP3    H223991   4.253   6.213   8.668 -1.2622 -0.7507 -0.9675
  786TIP3   OH223992   3.778   4.060   0.189 -0.0483 -0.2162  0.2893
  786TIP3    H123993   3.688   4.069   0.220  0.4064  1.8742  1.1333
  786TIP3    H223994   3.799   4.145   0.150  1.0876 -1.1534 -1.2463
  787TIP3   OH223995   4.450   5.758   0.044  0.2477 -0.2333  0.3583
  787TIP3    H123996   4.515   5.741   0.112  0.6296 -1.6998 -0.3366
  787TIP3    H223997   4.501   5.773  -0.036 -0.2310 -0.4946 -0.0070
  788TIP3   OH223998   6.519   2.127   7.923 -0.2628 -0.0238 -0.1464
  788TIP3    H123999   6.456   2.198   7.937  0.1464 -0.1481  2.9628
  788TIP3    H224000   6.469   2.047   7.939  0.5362 -0.1262  2.2671
  789TIP3   OH224001   5.766   3.590   1.429 -0.0804 -0.3492  0.0581
  789TIP3    H124002   5.758   3.496   1.412 -2.0513 -0.6847  2.3344
  789TIP3    H224003   5.706   3.631   1.366 -1.1480 -0.8655  0.7122
  790TIP3   OH224004   1.326   2.690   0.588 -0.3580 -0.3151  0.2202
  790TIP3    H124005   1.370   2.667   0.670  2.4419  1.1465 -0.7305
  790TIP3    H224006   1.384   2.754   0.547 -1.4934 -1.1774 -3.0489
  791TIP3   OH224007   3.060   1.776   2.876 -0.0137 -0.1474  0.1675
  791TIP3    H124008   3.105   1.845   2.925  0.0298  0.0306 -0.1142
  791TIP3    H224009   3.119   1.701   2.879  1.1159  0.5898 -1.6046
  792TIP3   OH224010   2.131   3.877   2.204 -0.3105  0.4253  0.3932
  792TIP3    H124011   2.220   3.856   2.175  0.1057 -1.1734  2.5831
  792TIP3    H224012   2.139   3.964   2.245  0.5361 -0.1618  1.5473
  793TIP3   OH224013   3.481   4.799   1.271 -0.0625  0.2461 -0.2207
  793TIP3    H124014   3.444   4.798   1.183 -0.9030 -0.4868  0.1265
  793TIP3    H224015   3.575   4.815   1.258 -0.2779  0.7833 -1.1985
  794TIP3   OH224016   5.703   6.773   8.549 -0.5560  0.2759 -0.4817
  794TIP3    H124017   5.731   6.816   8.469  0.8983 -0.5781 -0.4537
  794TIP3    H224018   5.672   6.687   8.521  1.4779 -0.6729 -0.0089
  795TIP3   OH224019   1.233   4.517   0.218 -0.1488 -0.1194 -0.0716
  795TIP3    H124020   1.174   4.444   0.199  0.6465 -1.2506  1.5227
  795TIP3    H224021   1.315   4.475   0.245  0.5685  1.3761  0.1861
  796TIP3   OH224022   1.036   6.837   2.694  0.1193 -0.4719  0.7021
  796TIP3    H124023   0.967   6.793   2.644 -1.7432  0.0867  2.6516
  796TIP3    H224024   1.117   6.797   2.662 -1.2310 -2.8113 -0.0588
  797TIP3   OH224025   5.275   4.352   0.357  0.1098  0.0565  0.0952
  797TIP3    H124026   5.218   4.300   0.414 -0.5376  0.7415  0.0913
  797TIP3    H224027   5.359   4.355   0.403  0.2133 -1.1255  0.0092
  798TIP3   OH224028   5.350   0.401   4.188 -0.1638  0.1328  0.1390
  798TIP3    H124029   5.366   0.425   4.097 -2.7195  2.1224  0.1238
  798TIP3    H224030   5.294   0.324   4.182  0.8478 -0.6324  0.1090
  799TIP3   OH224031   6.415   2.315   0.261  0.2320 -0.3639  0.1109
  799TIP3    H124032   6.323   2.336   0.276  0.0047 -1.7703  0.8440
  799TIP3    H224033   6.459   2.335   0.343  0.0762 -2.1982  0.6995
  800TIP3   OH224034   6.006   5.272   2.207 -0.4127 -0.4692  0.1616
  800TIP3    H124035   6.037   5.358   2.233 -0.3648 -0.1710 -0.8445
  800TIP3    H224036   6.008   5.220   2.288  0.0190  0.3279  0.6739
  801TIP3   OH224037   2.681   6.354   1.058  0.3624 -0.6708  0.1070
  801TIP3    H124038   2.662   6.322   1.146  0.5644  1.2404  0.8754
  801TIP3    H224039   2.769   6.322   1.040  1.6664  1.6193  1.9712
  802TIP3   OH224040   6.138   3.227   0.237 -0.1280 -0.7592  0.6660
  802TIP3    H124041   6.074   3.265   0.177  0.2962 -1.3292 -0.1548
  802TIP3    H224042   6.139   3.134   0.215 -0.9309 -1.2388  2.4399
  803TIP3   OH224043   1.231   6.474   0.301  0.5816  0.0123  0.5668
  803TIP3    H124044   1.309   6.445   0.253  0.1693 -0.7882  0.3759
  803TIP3    H224045   1.264   6.543   0.359  1.1071  1.0196 -0.8418
  804TIP3   OH224046   2.412   1.833   2.483 -0.3405  0.4956 -0.3945
  804TIP3    H124047   2.403   1.925   2.509 -2.2409  0.0783  0.6169
  804TIP3    H224048   2.471   1.835   2.408 -0.8902  2.6309 -0.8525
  805TIP3   OH224049   3.719   3.801   8.212 -0.3113  0.2888 -0.2175
  805TIP3    H124050   3.675   3.728   8.169  1.3225 -0.9600  0.1582
  805TIP3    H224051   3.749   3.857   8.140  1.7775 -1.4158 -0.7720
  806TIP3   OH224052   3.346   4.555   1.791  0.0668  0.6506  0.8614
  806TIP3    H124053   3.259   4.518   1.776  0.4742 -0.2056  0.6274
  806TIP3    H224054   3.331   4.650   1.788 -0.5727  0.5193 -0.7751
  807TIP3   OH224055   4.175   4.478   0.149 -0.7020 -0.5975 -0.0048
  807TIP3    H124056   4.138   4.539   0.212 -0.2710  1.1915 -1.4186
  807TIP3    H224057   4.165   4.392   0.191 -3.6308  0.0988  0.9574
  808TIP3   OH224058   5.310   1.570   7.845  0.1722  0.5483  0.1956
  808TIP3    H124059   5.271   1.608   7.767  2.2425 -0.0988 -1.2503
  808TIP3    H224060   5.397   1.542   7.817  0.9819  0.2381  2.7318
  809TIP3   OH224061   3.160   0.951   0.113 -0.1716 -0.4597  1.1222
  809TIP3    H124062   3.075   0.985   0.142  1.3914  1.4807  3.8661
  809TIP3    H224063   3.179   0.879   0.173  0.2193 -0.7557  0.6504
  810TIP3   OH224064   5.226   0.249   7.500  0.0801 -0.5500  0.6454
  810TIP3    H124065   5.170   0.284   7.570 -2.0477  1.0518 -1.6800
  810TIP3    H224066   5.281   0.323   7.475  0.6227 -1.0258  0.4240
  811TIP3   OH224067   4.329   6.406   0.633  0.2047  0.0009 -0.3400
  811TIP3    H124068   4.383   6.473   0.676 -1.0217  0.4725  0.5596
  811TIP3    H224069   4.307   6.444   0.548  2.3850 -0.7967 -1.3372
  812TIP3   OH224070   0.607   1.593   0.448  0.1195  0.8805  0.2045
  812TIP3    H124071   0.556   1.647   0.508  1.3526  2.6189 -0.2322
  812TIP3    H224072   0.645   1.656   0.386  1.8125 -0.4690 -0.1969
  813TIP3   OH224073   1.688   5.938   1.793  0.2352 -0.6061  0.3840
  813TIP3    H124074   1.759   6.000   1.779 -0.6419  0.3900  0.1932
  813TIP3    H224075   1.617   5.991   1.829  0.0039 -1.8100  1.7956
  814TIP3   OH224076   0.823   1.892   0.600  0.0180  0.5212  0.2777
  814TIP3    H124077   0.899   1.875   0.656 -0.5373 -0.3279  0.7942
  814TIP3    H224078   0.805   1.985   0.612  2.2481  1.2869 -1.4786
  815TIP3   OH224079   0.417   1.157   2.246  0.4054 -0.1240 -0.1408
  815TIP3    H124080   0.366   1.220   2.297  0.4230 -2.0870  2.5021
  815TIP3    H224081   0.508   1.173   2.273  0.4732 -0.8858  0.0961
  816TIP3   OH224082   0.520   5.206   8.271 -0.0981  0.1924 -0.4781
  816TIP3    H124083   0.548   5.119   8.301  0.2464  1.0243  1.7191
  816TIP3    H224084   0.580   5.226   8.199  0.7198 -0.8178 -0.1041
  817TIP3   OH224085   2.798   0.938   0.021  0.4342 -0.2422 -0.3492
  817TIP3    H124086   2.716   0.988   0.012  0.7768  1.2540  3.3950
  817TIP3    H224087   2.867   1.004   0.020  1.3455 -1.1676 -0.2094
  818TIP3   OH224088   5.010   6.413   0.370 -0.3094  0.7067 -0.0308
  818TIP3    H124089   4.988   6.427   0.278 -0.1096 -1.5003 -0.4686
  818TIP3    H224090   5.106   6.416   0.372 -0.2973  0.3435  0.0141
  819TIP3   OH224091   2.210   2.845   8.168 -0.7390  0.0985  0.3176
  819TIP3    H124092   2.295   2.889   8.159 -1.2602  1.1627  0.4198
  819TIP3    H224093   2.207   2.817   8.260 -0.7235  0.5469  0.4567
  820TIP3   OH224094   5.886   6.464   0.160  0.0954 -0.0573  0.1560
  820TIP3    H124095   5.862   6.479   0.251 -1.2558 -0.6873 -0.0678
  820TIP3    H224096   5.852   6.541   0.113  0.8686  0.3103  0.1887
  821TIP3   OH224097   4.443   2.258   3.139  0.3786 -0.3143  0.2388
  821TIP3    H124098   4.487   2.207   3.208  0.7580 -1.5864 -0.8977
  821TIP3    H224099   4.513   2.309   3.099  0.3930 -0.5212 -0.0040
  822TIP3   OH224100   6.390   5.275   8.750 -0.1028 -0.3182  1.0948
  822TIP3    H124101   6.452   5.347   8.759 -1.3506  0.7192  1.7606
  822TIP3    H224102   6.445   5.197   8.737  1.3136  1.0547 -2.7050
  823TIP3   OH224103   4.417   5.671   0.458  0.3765 -0.0673 -0.2964
  823TIP3    H124104   4.433   5.598   0.518  1.6153  0.0608 -0.4364
  823TIP3    H224105   4.446   5.748   0.506  2.8080 -0.1094 -1.5205
  824TIP3   OH224106   5.744   6.069   2.123  0.1005  0.3476 -0.7518
  824TIP3    H124107   5.821   6.073   2.066  1.0852 -0.8259  0.4462
  824TIP3    H224108   5.714   5.978   2.117 -1.0878  0.7272 -1.0231
  825TIP3   OH224109   3.933   6.828   0.137 -0.2274 -0.4002  0.3411
  825TIP3    H124110   3.856   6.814   0.081  0.7921  1.0737 -1.5380
  825TIP3    H224111   3.902   6.887   0.205 -0.0138  3.5087 -2.6079
  826TIP3   OH224112   2.713   1.233   7.742  0.1242  0.3038  0.1628
  826TIP3    H124113   2.711   1.206   7.650 -0.4946  0.8686  0.0016
  826TIP3    H224114   2.703   1.328   7.740  0.9579  0.4172  0.7826
  827TIP3   OH224115   6.103   5.500   0.375  0.4380 -0.5656  0.2680
  827TIP3    H124116   6.196   5.515   0.394  0.1635 -1.3224  2.6674
  827TIP3    H224117   6.064   5.587   0.374  1.1065 -0.2672 -0.3984
  828TIP3   OH224118   4.425   4.757   0.107  0.0302 -0.5666 -0.4196
  828TIP3    H124119   4.350   4.805   0.144  0.8531  0.2994  0.1704
  828TIP3    H224120   4.473   4.725   0.184  0.5204 -0.7050 -0.7831
  829TIP3   OH224121   1.371   5.809   0.277  0.5276 -0.0543  0.1648
  829TIP3    H124122   1.464   5.817   0.301  0.9459 -1.0710 -1.0420
  829TIP3    H224123   1.325   5.813   0.361  1.6744  0.2253  0.8091
  830TIP3   OH224124   6.221   6.814   1.373 -0.1614 -0.1838  0.1871
  830TIP3    H124125   6.273   6.813   1.453  0.0641 -0.3447  0.0418
  830TIP3    H224126   6.277   6.860   1.309  0.1778 -1.1323 -0.2171
  831TIP3   OH224127   5.162   2.791   2.839  0.0037  0.3986 -0.3017
  831TIP3    H124128   5.115   2.793   2.922 -0.3563 -2.1419 -0.3587
  831TIP3    H224129   5.108   2.841   2.778 -0.2703  1.3644  0.7055
  832TIP3   OH224130   6.329   5.486   2.427  0.3890  0.2341 -0.7092
  832TIP3    H124131   6.375   5.417   2.476 -0.8221  0.0375  0.1972
  832TIP3    H224132   6.371   5.567   2.455 -0.6959  0.1976  1.2555
  833TIP3   OH224133   3.172   3.808   3.146  0.5775  0.3804 -0.3786
  833TIP3    H124134   3.109   3.736   3.152 -1.5782  2.0488 -1.7768
  833TIP3    H224135   3.182   3.839   3.236  0.8553 -1.0644  0.1130
  834TIP3   OH224136   0.862   4.473   1.682 -0.2358 -0.3232 -0.4014
  834TIP3    H124137   0.874   4.433   1.596 -0.6640  0.6694 -0.9442
  834TIP3    H224138   0.769   4.458   1.703 -0.2157 -0.2663 -0.2671
  835TIP3   OH224139   1.897   1.221   3.286 -0.4142  0.3152  0.2216
  835TIP3    H124140   1.927   1.304   3.249  0.9185  0.6898  2.0048
  835TIP3    H224141   1.971   1.162   3.276 -1.1197 -0.4687 -0.4246
  836TIP3   OH224142   1.671   2.909   0.373 -0.0547 -0.1369 -0.1360
  836TIP3    H124143   1.581   2.903   0.407 -0.8083  0.7973 -1.8210
  836TIP3    H224144   1.699   2.819   0.362 -0.0988 -0.4598  2.0785
  837TIP3   OH224145   3.211   6.237   2.182  0.2680  0.6417 -0.5500
  837TIP3    H124146   3.271   6.167   2.206 -0.2322  0.3358 -0.1803
  837TIP3    H224147   3.125   6.196   2.179 -0.3045  1.5501  1.3432
  838TIP3   OH224148   3.792   1.340   0.071 -0.2509 -0.5935  0.1796
  838TIP3    H124149   3.830   1.367   0.154  0.4263 -0.7982 -0.0493
  838TIP3    H224150   3.741   1.262   0.092 -0.3584 -0.4490  0.4584
  839TIP3   OH224151   5.691   5.392   2.169 -0.4371  0.3617  0.1893
  839TIP3    H124152   5.706   5.337   2.246 -0.3402 -0.7926 -0.6252
  839TIP3    H224153   5.767   5.450   2.166  0.0989 -0.3161  0.3633
  840TIP3   OH224154   6.213   6.029   0.019 -0.1708  0.2036  0.1418
  840TIP3    H124155   6.221   5.965   0.089  1.1687  0.8611  0.6248
  840TIP3    H224156   6.303   6.045  -0.009 -0.6194  0.6107 -1.1305
  841TIP3   OH224157   5.854   1.515   2.363  0.0759  0.5625 -0.8485
  841TIP3    H124158   5.896   1.601   2.354  0.8085  0.3587  0.2946
  841TIP3    H224159   5.926   1.453   2.356 -0.1267  0.1613  0.3337
  842TIP3   OH224160   1.246   6.779   0.418  0.0439 -0.0693 -0.6411
  842TIP3    H124161   1.281   6.867   0.408 -2.1707  0.9644  0.0223
  842TIP3    H224162   1.245   6.763   0.512  0.6385 -0.9247 -0.7645
  843TIP3   OH224163   0.280   3.116   0.471 -0.1634  0.1677 -0.1336
  843TIP3    H124164   0.298   3.096   0.563  1.2154  0.4757 -0.3136
  843TIP3    H224165   0.186   3.133   0.468 -0.5014 -1.3943  0.9135
  844TIP3   OH224166   4.529   0.283   8.311 -0.0813 -0.5458  0.3040
  844TIP3    H124167   4.478   0.307   8.234 -0.4729  1.0468  1.0232
  844TIP3    H224168   4.472   0.225   8.362 -0.4315 -0.3271  0.1615
  845TIP3   OH224169   6.829   1.216   7.557 -0.2328  0.2250 -0.2360
  845TIP3    H124170   6.861   1.186   7.472 -0.6510  1.2751 -0.7777
  845TIP3    H224171   6.735   1.199   7.555 -0.3820  1.0232 -0.3295
  846TIP3   OH224172   1.674   1.925   1.844 -0.0669 -0.1144 -0.2621
  846TIP3    H124173   1.644   2.004   1.798 -0.2379  0.3174  0.5880
  846TIP3    H224174   1.760   1.906   1.805  1.3291  2.1647  1.4505
  847TIP3   OH224175   6.358   1.696   7.430 -0.5719 -0.0703 -0.1649
  847TIP3    H124176   6.265   1.716   7.441 -0.8842 -1.7408  0.4620
  847TIP3    H224177   6.387   1.756   7.361 -1.7375  1.4967  0.6541
  848TIP3   OH224178   1.309   2.398   1.292 -0.0321 -0.3901  0.5609
  848TIP3    H124179   1.385   2.439   1.252 -1.4935  0.6100 -1.3968
  848TIP3    H224180   1.302   2.313   1.250 -0.1052 -0.3891  0.5703
  849TIP3   OH224181   2.634   0.750   7.041  0.1568 -0.0635 -0.4537
  849TIP3    H124182   2.545   0.731   7.012  0.7815 -1.2034 -1.7125
  849TIP3    H224183   2.631   0.734   7.136 -0.8276 -0.6837 -0.5644
  850TIP3   OH224184   6.261   4.552   2.679 -0.1833 -0.1758  0.5743
  850TIP3    H124185   6.186   4.531   2.623  1.2227  0.6285 -1.7605
  850TIP3    H224186   6.225   4.609   2.746 -1.8573 -0.7148  0.1974
  851TIP3   OH224187   1.141   0.051   8.330 -0.2515  0.3074  0.1695
  851TIP3    H124188   1.070   0.111   8.351 -0.8445 -0.9266  1.9635
  851TIP3    H224189   1.190   0.042   8.413 -0.8239 -2.4433  0.3145
  852TIP3   OH224190   0.346   2.064   2.570 -1.1023  0.0486 -0.3354
  852TIP3    H124191   0.277   2.036   2.630 -0.9995 -0.9426 -0.6591
  852TIP3    H224192   0.313   2.145   2.531 -1.6128  0.1523  0.2873
  853TIP3   OH224193   1.111   0.405   1.389 -0.5429 -0.0704 -0.1500
  853TIP3    H124194   1.038   0.448   1.344 -0.6700  0.9492  0.9820
  853TIP3    H224195   1.188   0.455   1.364 -0.3299 -0.6818 -0.7415
  854TIP3   OH224196   3.071   5.772   2.246 -0.5143 -0.5545 -0.1980
  854TIP3    H124197   3.033   5.712   2.183  0.3130 -1.4990  0.1905
  854TIP3    H224198   3.102   5.716   2.317 -0.7984  0.4254  0.7301
  855TIP3   OH224199   4.645   4.031   1.546  0.4837  0.3280  0.1913
  855TIP3    H124200   4.582   4.032   1.474 -0.1832 -3.2655  0.5382
  855TIP3    H224201   4.593   4.004   1.622  2.1705 -1.5848  0.7345
  856TIP3   OH224202   1.811   0.629   8.197  0.1990  0.3900 -0.2028
  856TIP3    H124203   1.880   0.563   8.205 -0.9796 -0.8614  0.1102
  856TIP3    H224204   1.738   0.582   8.154 -0.1463  1.9223 -1.3856
  857TIP3   OH224205   5.142   4.943   0.890  0.3049 -0.0288 -0.1665
  857TIP3    H124206   5.091   4.863   0.891  0.5838 -0.2093  1.3137
  857TIP3    H224207   5.205   4.933   0.961  0.0719  1.6689  0.3394
  858TIP3   OH224208   6.147   2.558   0.559 -0.1217  0.0524 -0.0573
  858TIP3    H124209   6.052   2.559   0.573 -0.0308  2.0540  0.7395
  858TIP3    H224210   6.156   2.551   0.464 -1.1502  1.5652 -0.3146
  859TIP3   OH224211   3.682   3.700   1.301 -0.1354  0.0309  0.4074
  859TIP3    H124212   3.605   3.739   1.342 -0.9487  0.2227 -1.2005
  859TIP3    H224213   3.661   3.701   1.207  2.5894  1.8433 -0.2913
  860TIP3   OH224214   5.497   5.085   2.572  0.0365  0.3935 -0.0580
  860TIP3    H124215   5.516   5.048   2.658  1.4162 -0.3267 -0.6587
  860TIP3    H224216   5.434   5.024   2.533  0.2187  0.1551  0.0216
  861TIP3   OH224217   1.905   3.720   2.928 -0.0547 -0.0605 -0.0712
  861TIP3    H124218   1.845   3.744   2.999  0.5839 -0.1173  0.5037
  861TIP3    H224219   1.916   3.801   2.878  0.4228  0.3104  0.6065
  862TIP3   OH224220   3.158   4.134   1.416 -0.5312 -0.3987  0.2803
  862TIP3    H124221   3.225   4.181   1.367 -0.5309  1.0638  1.5994
  862TIP3    H224222   3.180   4.042   1.404  1.3834  0.0194  0.2274
  863TIP3   OH224223   0.163   1.800   1.506  0.0436  0.0257  0.3240
  863TIP3    H124224   0.194   1.889   1.488  1.5867 -0.7939 -1.4967
  863TIP3    H224225   0.205   1.746   1.438 -3.1988 -1.6820 -0.5100
  864TIP3   OH224226   4.283   3.346   0.591 -0.2024  0.3033  0.2996
  864TIP3    H124227   4.219   3.315   0.528  0.1734  1.8152 -0.8900
  864TIP3    H224228   4.343   3.400   0.539  0.6311  0.8668  1.7977
  865TIP3   OH224229   3.516   1.301   0.319 -0.3418  0.6028 -0.4694
  865TIP3    H124230   3.456   1.314   0.245  0.0316  0.0317 -0.8867
  865TIP3    H224231   3.471   1.239   0.376 -0.2021  0.2634 -0.7248
  866TIP3   OH224232   4.444   5.591   7.506  0.3133  0.2584 -0.7252
  866TIP3    H124233   4.464   5.590   7.413  1.2138  1.2020 -0.5708
  866TIP3    H224234   4.453   5.500   7.534  1.4795  0.1822 -1.2929
  867TIP3   OH224235   0.625   2.498   2.619 -0.0882  0.2160  0.0138
  867TIP3    H124236   0.710   2.488   2.660 -1.0242  1.9269  2.6152
  867TIP3    H224237   0.562   2.471   2.687 -1.6651 -0.3033 -1.5669
  868TIP3   OH224238   5.570   5.183   1.286 -0.5550 -0.5191  0.4757
  868TIP3    H124239   5.512   5.122   1.242  0.1596  0.7152 -2.3814
  868TIP3    H224240   5.516   5.260   1.303  0.1686  0.7852 -2.5399
  869TIP3   OH224241   2.790   6.558   3.033  0.2835  0.3062 -0.3307
  869TIP3    H124242   2.871   6.527   2.995  1.1209  0.2168  1.4117
  869TIP3    H224243   2.757   6.484   3.084 -0.4785  0.6005 -0.3724
  870TIP3   OH224244   1.481   4.917   7.579  0.0411 -0.0177 -0.0516
  870TIP3    H124245   1.501   4.887   7.667  0.8168  1.3442  0.2610
  870TIP3    H224246   1.389   4.943   7.583 -0.0412 -0.3497  0.2398
  871TIP3   OH224247   5.329   2.572   8.593 -0.9579  0.5253 -1.0006
  871TIP3    H124248   5.413   2.594   8.553  0.6324 -1.5012  0.9864
  871TIP3    H224249   5.317   2.479   8.574 -1.4384  0.1509  0.8874
  872TIP3   OH224250   3.046   1.550   8.456 -0.1687  0.0607 -0.2442
  872TIP3    H124251   3.047   1.459   8.427 -1.5607  0.4615 -1.6618
  872TIP3    H224252   2.976   1.554   8.522 -0.7172  0.2696 -0.8286
  873TIP3   OH224253   6.169   0.856   0.645 -0.3481 -0.3398 -0.4674
  873TIP3    H124254   6.116   0.875   0.567 -3.3865 -0.0996  1.5003
  873TIP3    H224255   6.127   0.780   0.684  0.2302  0.3655  1.6306
  874TIP3   OH224256   6.273   2.651   0.980  0.6175 -0.4255  0.2559
  874TIP3    H124257   6.336   2.706   0.934  0.0214  1.1691  1.2837
  874TIP3    H224258   6.217   2.712   1.027  0.1203 -1.9191  1.7147
  875TIP3   OH224259   3.473   5.813   8.438 -0.4975  0.0534 -0.0746
  875TIP3    H124260   3.521   5.807   8.356 -1.3092 -0.4444 -0.5265
  875TIP3    H224261   3.391   5.857   8.414 -1.9052 -2.4229 -0.0851
  876TIP3   OH224262   5.723   4.278   1.240 -0.6999  0.8010  0.6491
  876TIP3    H124263   5.701   4.370   1.227  0.8456  1.2346  0.9362
  876TIP3    H224264   5.653   4.243   1.295 -1.1745  1.8611  0.7244
  877TIP3   OH224265   1.133   2.752   2.707  0.2129 -0.1755  0.6352
  877TIP3    H124266   1.154   2.805   2.784  1.7807 -1.1136  0.8906
  877TIP3    H224267   1.216   2.711   2.683 -0.0358  0.6765 -2.0347
  878TIP3   OH224268   4.647   0.675   0.349  0.2505  0.0310 -0.3032
  878TIP3    H124269   4.661   0.745   0.412  2.3897 -1.0426  0.5318
  878TIP3    H224270   4.580   0.619   0.389  1.7185 -0.7455  1.1957
  879TIP3   OH224271   5.763   3.879   1.294  0.7280  0.4220 -0.0495
  879TIP3    H124272   5.700   3.945   1.322  0.6458 -0.2654  1.5008
  879TIP3    H224273   5.833   3.884   1.359  0.4794 -1.3464  0.4197
  880TIP3   OH224274   3.804   2.592   1.375  0.2577  0.5238 -0.2354
  880TIP3    H124275   3.720   2.614   1.335  0.4180 -1.5021 -1.8338
  880TIP3    H224276   3.804   2.640   1.459 -2.1902  1.0656 -0.4777
  881TIP3   OH224277   0.699   1.171   2.203  0.4041  0.3180  0.4183
  881TIP3    H124278   0.682   1.198   2.113  0.8006 -0.7694 -0.0042
  881TIP3    H224279   0.748   1.089   2.194 -0.8563 -0.5963  1.6197
  882TIP3   OH224280   2.807   0.095   7.986 -0.2934 -0.4174 -0.2718
  882TIP3    H124281   2.783   0.134   7.902  1.6283 -2.6967 -2.0207
  882TIP3    H224282   2.723   0.071   8.026 -1.2342 -0.8361 -2.3686
  883TIP3   OH224283   3.726   2.024   8.310 -0.3865  0.4915  0.5079
  883TIP3    H124284   3.659   1.964   8.280 -0.4248  0.9633 -0.3864
  883TIP3    H224285   3.686   2.111   8.302 -0.1146  0.6878  1.1809
  884TIP3   OH224286   1.291   3.007   0.797 -0.0975 -0.8407 -0.0429
  884TIP3    H124287   1.308   2.930   0.853  0.5557 -1.0216 -0.4867
  884TIP3    H224288   1.313   3.082   0.853 -1.7932 -0.9077  0.7789
  885TIP3   OH224289   3.632   4.688   2.327  0.7388  0.1621 -0.2331
  885TIP3    H124290   3.608   4.603   2.290 -1.1554  0.3022  0.5723
  885TIP3    H224291   3.702   4.720   2.270  1.1843 -1.7204 -0.8188
  886TIP3   OH224292   5.039   0.887   3.423  0.1504 -0.0035 -0.3003
  886TIP3    H124293   5.048   0.868   3.517 -1.0358 -1.7400 -0.4823
  886TIP3    H224294   5.120   0.855   3.384  0.9675  1.3981  0.1955
  887TIP3   OH224295   0.996   2.689   8.111  0.1212  0.3223  0.1912
  887TIP3    H124296   1.021   2.768   8.159 -1.0444  2.0215 -1.8609
  887TIP3    H224297   0.902   2.679   8.129  0.2710 -0.6740  0.4859
  888TIP3   OH224298   2.111   1.597   2.956  0.1880 -0.0199  0.3037
  888TIP3    H124299   2.169   1.674   2.955 -0.3127  0.3655  0.6001
  888TIP3    H224300   2.165   1.527   2.991  0.1076  0.6371  1.8034
  889TIP3   OH224301   5.168   2.953   0.771  0.2668  0.7557 -0.1615
  889TIP3    H124302   5.231   2.989   0.708 -0.3408  0.5414 -0.9109
  889TIP3    H224303   5.155   2.862   0.742 -0.8868  0.9941 -0.4302
  890TIP3   OH224304   1.016   3.802   2.841  0.7050 -0.0829  0.0614
  890TIP3    H124305   1.031   3.716   2.802  0.2045 -0.0286 -0.2671
  890TIP3    H224306   1.103   3.838   2.855  1.0098  1.1424 -3.7647
  891TIP3   OH224307   1.634   6.595   1.218  0.4651 -0.1265  0.5446
  891TIP3    H124308   1.706   6.580   1.157 -1.0410  1.0423 -1.6365
  891TIP3    H224309   1.602   6.507   1.239  1.3458 -0.5682  0.1087
  892TIP3   OH224310   2.845   2.679   2.657 -0.0235 -0.1868 -0.3083
  892TIP3    H124311   2.873   2.750   2.713  0.1701  0.6812 -1.4740
  892TIP3    H224312   2.861   2.600   2.709  0.3528  0.5619  0.7555
  893TIP3   OH224313   6.338   0.060   0.610  0.5150 -0.7473  0.0006
  893TIP3    H124314   6.254   0.101   0.630  0.6549 -0.4296 -0.0572
  893TIP3    H224315   6.317  -0.009   0.547  0.4132 -0.0907 -0.7023
  894TIP3   OH224316   2.553   1.185   8.769  0.5326  0.6331 -0.1414
  894TIP3    H124317   2.487   1.247   8.737 -0.2506  0.5050  1.1389
  894TIP3    H224318   2.600   1.233   8.837 -1.5594 -0.7696  2.4732
  895TIP3   OH224319   2.704   3.727   2.514 -0.0992 -0.6845 -0.3358
  895TIP3    H124320   2.639   3.665   2.481 -0.8687 -0.6370  0.9885
  895TIP3    H224321   2.727   3.693   2.601  0.7480 -0.0384 -0.2952
  896TIP3   OH224322   1.619   4.428   8.612 -0.2113  0.0899  0.2704
  896TIP3    H124323   1.652   4.399   8.697  0.3443 -0.2674 -0.0547
  896TIP3    H224324   1.641   4.356   8.553 -0.2866  0.4817 -0.2392
  897TIP3   OH224325   6.691   2.823   1.540 -0.3185 -0.1556  0.2341
  897TIP3    H124326   6.628   2.890   1.514  0.2525  0.1245 -0.4495
  897TIP3    H224327   6.752   2.867   1.599 -1.7556 -0.8485  2.3539
  898TIP3   OH224328   2.233   5.851   8.504  0.4389 -0.1641 -0.0851
  898TIP3    H124329   2.140   5.870   8.514  0.3746 -0.1995 -0.5800
  898TIP3    H224330   2.237   5.785   8.435  0.7350 -1.2630  0.9527
  899TIP3   OH224331   0.583   1.662   2.022  0.0451  0.0943  0.1593
  899TIP3    H124332   0.501   1.612   2.022  1.1777 -1.8930  1.1473
  899TIP3    H224333   0.641   1.612   1.965  1.0531  0.6429  0.6861
  900TIP3   OH224334   0.629   2.698   0.855 -0.1317 -0.5184  0.2597
  900TIP3    H124335   0.692   2.637   0.894  1.5261  0.7434 -0.3298
  900TIP3    H224336   0.569   2.642   0.805  1.1331 -1.6919  0.0099
  901TIP3   OH224337   0.664   0.108   8.213 -0.1227 -0.1685 -0.4962
  901TIP3    H124338   0.660   0.099   8.118  1.1358 -1.2926 -0.4813
  901TIP3    H224339   0.708   0.028   8.243 -2.5571 -0.9404  1.2727
  902TIP3   OH224340   2.493   1.515   8.437  0.3596  0.4526 -0.1692
  902TIP3    H124341   2.544   1.534   8.359  0.9376  2.2552  0.5843
  902TIP3    H224342   2.550   1.541   8.510  0.1825 -1.9844  0.9176
  903TIP3   OH224343   4.848   6.029   0.427  0.6614  0.0203  0.1984
  903TIP3    H124344   4.837   5.977   0.507  0.1534  0.7732  0.6279
  903TIP3    H224345   4.828   5.968   0.356 -1.0416 -0.1067  0.7353
  904TIP3   OH224346   4.830   1.860   1.312  0.1792  0.8619 -0.0840
  904TIP3    H124347   4.758   1.834   1.255  0.6550  0.0720 -0.3424
  904TIP3    H224348   4.809   1.821   1.397  0.7009 -0.0637 -0.3718
  905TIP3   OH224349   6.535   4.363   0.743 -0.0685 -0.1096  0.0090
  905TIP3    H124350   6.621   4.401   0.759  0.4332 -0.2689 -2.1138
  905TIP3    H224351   6.551   4.283   0.694 -1.4211  0.1799 -0.9965
  906TIP3   OH224352   1.291   2.361   7.246  0.6890 -0.2849  0.3290
  906TIP3    H124353   1.384   2.375   7.225  0.1437  1.2966 -1.2536
  906TIP3    H224354   1.244   2.390   7.168 -1.1806 -0.5657  1.2984
  907TIP3   OH224355   3.765   6.099   1.960 -0.2957 -0.0752 -0.3178
  907TIP3    H124356   3.700   6.131   1.896 -0.7389  1.9107  1.0243
  907TIP3    H224357   3.838   6.069   1.906 -1.0164  0.6855 -1.8062
  908TIP3   OH224358   2.589   0.484   2.034 -0.0605  0.2256  0.3595
  908TIP3    H124359   2.585   0.578   2.018 -0.6347  0.5309  2.0808
  908TIP3    H224360   2.544   0.445   1.959  1.3951  1.1946 -1.0814
  909TIP3   OH224361   5.841   5.641   1.825 -0.2935 -0.0451  0.1934
  909TIP3    H124362   5.894   5.644   1.905 -1.1892  1.2128  0.7902
  909TIP3    H224363   5.890   5.692   1.761  1.1339 -2.2611 -0.5687
  910TIP3   OH224364   0.535   4.524   8.686  0.1294  0.6997 -0.4128
  910TIP3    H124365   0.561   4.575   8.609  0.4863  0.8302 -0.2116
  910TIP3    H224366   0.468   4.577   8.729  0.0426  0.6997 -0.5474
  911TIP3   OH224367   2.261   1.811   2.139  0.2331 -0.1653  0.5475
  911TIP3    H124368   2.233   1.902   2.127  0.1598 -0.3658 -0.9694
  911TIP3    H224369   2.267   1.800   2.234 -0.3636  1.2376  0.7689
  912TIP3   OH224370   3.646   1.606   0.832  0.7626 -0.1095  0.1259
  912TIP3    H124371   3.735   1.638   0.846  0.9292 -0.6041  0.2035
  912TIP3    H224372   3.620   1.567   0.916 -0.1718  1.5429  0.6488
  913TIP3   OH224373   6.332   0.800   3.208 -0.1280 -0.0482  0.6180
  913TIP3    H124374   6.410   0.827   3.257  0.1161  0.3726  0.0114
  913TIP3    H224375   6.366   0.744   3.139 -0.1516  1.5020 -0.6934
  914TIP3   OH224376   4.039   6.707   1.372 -0.1427 -0.5017 -0.3219
  914TIP3    H124377   3.994   6.665   1.445 -0.1885 -0.5981 -0.4052
  914TIP3    H224378   3.970   6.752   1.323 -0.1112 -0.4311 -0.3018
  915TIP3   OH224379   3.919   6.209   0.017 -0.0177  0.5254  0.3400
  915TIP3    H124380   3.887   6.167  -0.063  1.0654 -1.1888  0.7682
  915TIP3    H224381   4.010   6.230  -0.002  0.2499  0.0870  1.1158
  916TIP3   OH224382   4.578   4.099   8.386  0.2410  0.1132  0.0303
  916TIP3    H124383   4.626   4.062   8.312 -0.3391  1.8815 -1.3278
  916TIP3    H224384   4.552   4.024   8.439 -0.1471 -1.3278 -2.0892
  917TIP3   OH224385   1.416   5.007   0.520  0.1979 -0.5164  0.1004
  917TIP3    H124386   1.501   5.011   0.475  0.6586 -0.8414  0.9275
  917TIP3    H224387   1.374   5.090   0.498  1.2291  0.1741  0.6552
  918TIP3   OH224388   5.627   0.675   1.222  0.1791  0.2966  0.0001
  918TIP3    H124389   5.660   0.647   1.307 -0.5974  0.6579  0.4336
  918TIP3    H224390   5.670   0.758   1.205  0.1118  0.3678  0.1784
  919TIP3   OH224391   1.225   4.771   3.007 -0.1860  0.2672 -0.1591
  919TIP3    H124392   1.157   4.836   3.021 -1.0596 -0.6955  0.2073
  919TIP3    H224393   1.297   4.800   3.063 -1.3620 -0.2150  1.6940
  920TIP3   OH224394   1.766   3.542   0.623  0.9112 -0.2144  0.4605
  920TIP3    H124395   1.859   3.557   0.608  0.2769  2.3121 -1.6875
  920TIP3    H224396   1.739   3.489   0.548  0.0102  2.2335 -1.0716
  921TIP3   OH224397   6.512   0.030   8.392 -0.1605 -0.1113  0.3190
  921TIP3    H124398   6.465   0.030   8.475 -0.8693  0.8687 -0.0554
  921TIP3    H224399   6.555  -0.055   8.388 -2.7752 -1.5270  0.2163
  922TIP3   OH224400   2.350   6.583   2.206 -0.7470 -0.3570  0.0589
  922TIP3    H124401   2.445   6.578   2.201 -0.5402 -0.7854  2.8355
  922TIP3    H224402   2.325   6.509   2.261 -2.9057 -1.2261 -1.9110
  923TIP3   OH224403   1.046   3.162   2.686  0.1452  0.1149  0.5063
  923TIP3    H124404   0.982   3.095   2.711 -1.9702  1.4848 -0.9073
  923TIP3    H224405   1.073   3.200   2.769 -2.5265  0.8756  1.1294
  924TIP3   OH224406   5.641   6.007   1.373 -0.0608 -0.0650  0.4632
  924TIP3    H124407   5.645   6.072   1.443 -0.2217 -0.6583  1.0374
  924TIP3    H224408   5.694   5.934   1.405 -0.6409 -0.5954  0.2436
  925TIP3   OH224409   1.650   6.451   8.073 -0.1187  0.3639  0.3143
  925TIP3    H124410   1.660   6.357   8.086  1.9434  0.4374 -0.3219
  925TIP3    H224411   1.676   6.465   7.982 -1.6617  1.4227 -0.0077
  926TIP3   OH224412   1.179   3.998   1.208  0.3393 -0.3522  0.2131
  926TIP3    H124413   1.149   3.975   1.120  0.7913 -1.1038  0.2419
  926TIP3    H224414   1.229   3.922   1.236 -0.3843 -0.4175  1.3992
  927TIP3   OH224415   4.624   2.383   2.980 -0.7905  0.1283 -0.5183
  927TIP3    H124416   4.635   2.308   2.921  0.6417 -1.1182  1.2301
  927TIP3    H224417   4.706   2.431   2.974  0.3476 -1.2902  2.0495
  928TIP3   OH224418   5.919   4.829   3.043 -0.1764  0.0963 -0.1042
  928TIP3    H124419   5.952   4.918   3.036 -0.5409  0.2212 -0.2393
  928TIP3    H224420   5.968   4.790   3.115  2.2657 -0.5730 -1.9595
  929TIP3   OH224421   1.029   5.665   0.151 -0.0988 -0.0827  0.4723
  929TIP3    H124422   1.011   5.612   0.228 -0.5046 -0.1965  0.3044
  929TIP3    H224423   1.125   5.668   0.145 -0.0201  1.4645  2.0206
  930TIP3   OH224424   6.547   2.839   7.592 -0.4348  0.6644  0.5117
  930TIP3    H124425   6.581   2.757   7.628 -0.7793  0.0366 -0.5437
  930TIP3    H224426   6.459   2.817   7.560 -0.4822  1.4117  0.0947
  931TIP3   OH224427   4.003   4.737   2.842  0.0008 -0.2089 -0.2132
  931TIP3    H124428   4.028   4.752   2.751 -1.5634  2.4133 -0.3281
  931TIP3    H224429   4.079   4.765   2.893  0.1881  0.1487 -0.6854
  932TIP3   OH224430   2.997   5.749   8.249  0.1207 -0.2428  0.3882
  932TIP3    H124431   2.959   5.774   8.165  0.7658 -1.9091 -0.4369
  932TIP3    H224432   2.922   5.727   8.304 -0.2631 -0.0192 -0.0422
  933TIP3   OH224433   5.589   0.900   3.050  0.4078 -0.1866  0.4568
  933TIP3    H124434   5.564   0.990   3.028 -0.8542 -0.8390 -0.9923
  933TIP3    H224435   5.506   0.853   3.056  0.9869 -1.0849  2.1849
  934TIP3   OH224436   4.392   0.970   1.178 -0.2646 -0.1061  0.3367
  934TIP3    H124437   4.372   1.016   1.259 -1.1985  0.4145 -0.1705
  934TIP3    H224438   4.351   1.023   1.109 -1.8172 -1.9342 -0.2326
  935TIP3   OH224439   5.390   5.703   8.651 -0.9153 -0.0696  0.0068
  935TIP3    H124440   5.307   5.655   8.648 -1.6262  1.1861 -1.3759
  935TIP3    H224441   5.372   5.786   8.608  0.9308  0.4559  0.1582
  936TIP3   OH224442   1.279   0.411   0.221  0.1416  0.0266 -0.2492
  936TIP3    H124443   1.335   0.482   0.252 -0.9473  0.8958 -0.2051
  936TIP3    H224444   1.257   0.435   0.131 -0.7381  0.0691 -0.0279
  937TIP3   OH224445   5.480   2.457   0.455  1.0461  0.5285  0.0231
  937TIP3    H124446   5.439   2.375   0.483  2.0272 -0.3635 -1.0050
  937TIP3    H224447   5.409   2.508   0.417  0.8433 -1.0290 -1.8525
  938TIP3   OH224448   0.911   6.537   8.158  0.1685  0.1443  0.2578
  938TIP3    H124449   0.988   6.545   8.216  0.9037  0.2766 -0.7081
  938TIP3    H224450   0.893   6.627   8.131 -0.0855  0.0674  0.1735
  939TIP3   OH224451   3.998   0.343   2.251  0.1823 -0.0268  0.0876
  939TIP3    H124452   3.950   0.379   2.326 -0.1066  0.8895 -0.5241
  939TIP3    H224453   4.079   0.308   2.289 -0.3986 -0.4687  0.9582
  940TIP3   OH224454   5.292   2.688   8.217  0.4862 -0.1939  0.1120
  940TIP3    H124455   5.202   2.676   8.187  0.2177  0.2846  0.6984
  940TIP3    H224456   5.283   2.707   8.311  0.8349  4.1440 -0.5110
  941TIP3   OH224457   4.029   0.545   8.411  0.2921 -0.1155 -0.3083
  941TIP3    H124458   4.090   0.584   8.348  1.7467  1.2564  1.8253
  941TIP3    H224459   3.958   0.610   8.419  0.9008  0.4672  0.5726
  942TIP3   OH224460   1.018   2.861   1.106 -0.2180 -0.1350 -0.1127
  942TIP3    H124461   0.991   2.845   1.016  0.0260 -1.6685  0.0592
  942TIP3    H224462   1.038   2.774   1.141 -0.2859  0.4307  1.4153
  943TIP3   OH224463   6.769   1.142   8.032  0.0057 -0.1292 -0.3042
  943TIP3    H124464   6.826   1.201   7.983  1.0560 -1.0468 -0.2043
  943TIP3    H224465   6.704   1.113   7.967  0.4903 -0.1732 -0.7780
  944TIP3   OH224466   0.154   5.108   8.174 -0.0052 -0.1136  0.4070
  944TIP3    H124467   0.072   5.093   8.220 -0.2319  2.5394  1.0736
  944TIP3    H224468   0.192   5.021   8.163 -0.9818 -1.1258  3.6801
  945TIP3   OH224469   5.979   3.570   0.585  0.9818 -0.3374 -0.0307
  945TIP3    H124470   6.013   3.529   0.506 -0.3506 -0.8247 -0.3794
  945TIP3    H224471   5.933   3.499   0.631  0.3688  0.3092  0.3711
  946TIP3   OH224472   2.264   4.244   7.679 -0.0162 -0.3395 -0.3932
  946TIP3    H124473   2.197   4.310   7.665 -0.9740 -0.9342  1.1521
  946TIP3    H224474   2.232   4.166   7.633 -0.6694 -0.7827  0.7900
  947TIP3   OH224475   0.401   3.339   2.131  0.4969  0.1841 -0.2843
  947TIP3    H124476   0.427   3.352   2.222  0.3729 -0.2722 -0.1827
  947TIP3    H224477   0.445   3.410   2.084  2.1723 -0.7217 -0.1682
  948TIP3   OH224478   4.566   2.966   3.019  0.2699 -0.4856 -0.7855
  948TIP3    H124479   4.508   3.033   3.053 -0.4478 -1.5795  0.2172
  948TIP3    H224480   4.527   2.941   2.935  1.5168  1.5410 -2.0499
  949TIP3   OH224481   6.327   5.402   1.698 -0.2325  0.2141 -0.3956
  949TIP3    H124482   6.369   5.346   1.764 -2.4602  0.3237  1.2632
  949TIP3    H224483   6.240   5.365   1.687 -0.8052  1.7315 -1.3714
  950TIP3   OH224484   2.583   3.823   1.254  0.1083 -0.5063 -0.7934
  950TIP3    H124485   2.668   3.781   1.267  0.2910  0.1829  0.4923
  950TIP3    H224486   2.592   3.908   1.299 -1.4978 -0.7544  0.0687
  951TIP3   OH224487   5.724   1.569   1.895  0.2130  0.1930 -0.2694
  951TIP3    H124488   5.709   1.548   1.803  0.4703  1.0029 -0.5026
  951TIP3    H224489   5.637   1.560   1.935  0.2673 -1.0884 -0.3791
  952TIP3   OH224490   0.173   1.464   2.595 -0.3747 -0.0222 -0.1315
  952TIP3    H124491   0.174   1.386   2.650 -1.5471 -0.3911 -0.6000
  952TIP3    H224492   0.096   1.513   2.624  0.9103  1.4977  0.8446
  953TIP3   OH224493   3.189   2.163   0.887  0.7510 -0.1285 -0.5371
  953TIP3    H124494   3.275   2.130   0.913 -0.0573 -0.3895  2.0793
  953TIP3    H224495   3.200   2.258   0.888  0.8239 -0.1272  0.6974
  954TIP3   OH224496   3.005   1.424   0.490  0.4892 -0.2064  0.1619
  954TIP3    H124497   3.012   1.365   0.565  1.1478  0.8266  0.9481
  954TIP3    H224498   3.047   1.377   0.418  1.6357 -0.4289  0.9480
  955TIP3   OH224499   0.966   6.071   1.096 -0.9434 -0.5199  0.5623
  955TIP3    H124500   0.872   6.075   1.081 -1.0718 -0.1967  1.3952
  955TIP3    H224501   0.983   6.136   1.164 -0.0627 -0.3270  0.1853
  956TIP3   OH224502   3.314   4.002   8.635  0.1393  0.0854  0.2525
  956TIP3    H124503   3.260   3.972   8.708  0.0723  2.4128  1.2608
  956TIP3    H224504   3.397   4.028   8.675  0.0775  1.4786 -0.4298
  957TIP3   OH224505   2.471   5.212   1.608  0.1946  0.2379  0.6597
  957TIP3    H124506   2.498   5.303   1.595 -0.4778  0.5603  1.4080
  957TIP3    H224507   2.553   5.163   1.614  0.6262  1.0700  2.1035
  958TIP3   OH224508   5.404   1.845   8.729 -0.3743 -0.7696 -0.5706
  958TIP3    H124509   5.427   1.923   8.780  0.8632 -2.2655  1.3054
  958TIP3    H224510   5.331   1.806   8.777 -0.2532 -1.3503 -0.8602
  959TIP3   OH224511   5.406   0.512   7.862 -0.2750 -0.2265 -0.2497
  959TIP3    H124512   5.464   0.490   7.934  0.1446  0.3582 -0.4051
  959TIP3    H224513   5.402   0.607   7.863 -1.2554 -0.2550 -0.2237
  960TIP3   OH224514   3.125   0.849   8.157 -0.2872 -0.3138  0.6594
  960TIP3    H124515   3.115   0.763   8.116  0.1230  0.1628 -0.4882
  960TIP3    H224516   3.127   0.911   8.083  1.8784  0.4559  1.2892
  961TIP3   OH224517   2.121   5.136   2.916 -0.1489 -0.5566 -0.0852
  961TIP3    H124518   2.052   5.131   2.982 -0.5123 -3.6358 -0.5637
  961TIP3    H224519   2.074   5.149   2.833  0.1108  0.3796 -0.1025
  962TIP3   OH224520   3.730   2.746   0.769  0.7907  0.4017  0.4390
  962TIP3    H124521   3.799   2.792   0.720 -0.3675  0.4029 -1.2838
  962TIP3    H224522   3.728   2.659   0.730  0.7020 -0.0463  1.4133
  963TIP3   OH224523   3.220   4.828   1.681  0.0073  0.0214  0.2291
  963TIP3    H124524   3.243   4.907   1.731  2.3193 -0.1099 -0.4941
  963TIP3    H224525   3.239   4.851   1.590 -1.4990 -0.6496 -0.2758
  964TIP3   OH224526   1.500   5.507   1.745 -0.2079 -0.4542  0.2168
  964TIP3    H124527   1.530   5.574   1.684  2.1061 -0.3879  1.3117
  964TIP3    H224528   1.480   5.554   1.826  2.6918 -1.0832  1.4233
  965TIP3   OH224529   0.152   3.618   3.619 -0.4569  0.4581  0.4029
  965TIP3    H124530   0.104   3.585   3.695  0.3740 -0.4143  0.5681
  965TIP3    H224531   0.232   3.566   3.617 -0.8501 -0.1269 -1.5869
  966TIP3   OH224532   5.101   3.955   1.784 -0.5657 -0.4488 -0.7992
  966TIP3    H124533   5.143   3.875   1.751  0.9245  0.4553 -1.1653
  966TIP3    H224534   5.009   3.930   1.796 -0.3696 -1.8955 -1.9814
  967TIP3   OH224535   1.632   6.036   2.551  0.1443 -0.3271 -0.4874
  967TIP3    H124536   1.697   6.090   2.506 -0.7865 -0.5346 -2.1262
  967TIP3    H224537   1.683   5.966   2.592  1.2074  0.9431  0.4656
  968TIP3   OH224538   2.066   1.358   7.200 -0.3711  0.4612  0.2984
  968TIP3    H124539   2.130   1.393   7.137 -0.3263  1.5467  0.9132
  968TIP3    H224540   2.051   1.431   7.260 -0.0084 -0.7203  1.8721
  969TIP3   OH224541   4.572   4.404   8.228  0.0987  0.4669  0.8051
  969TIP3    H124542   4.578   4.497   8.250  2.7087  0.3194  1.0160
  969TIP3    H224543   4.660   4.380   8.199 -0.7502 -1.7285 -0.2238
  970TIP3   OH224544   2.298   2.467   2.274  0.2220 -0.2029  0.5358
  970TIP3    H124545   2.386   2.459   2.310  0.2243 -0.4555  0.4785
  970TIP3    H224546   2.312   2.488   2.181  0.2796 -2.4580 -0.0454
  971TIP3   OH224547   2.667   5.946   2.751 -0.0637  0.8368 -0.1538
  971TIP3    H124548   2.653   5.854   2.775  1.1851  0.5999 -0.2770
  971TIP3    H224549   2.654   5.995   2.832 -0.8411  0.5719 -0.1101
  972TIP3   OH224550   2.832   3.950   1.404  0.2299 -0.1334 -0.6060
  972TIP3    H124551   2.920   3.978   1.429 -0.3501 -0.9430  2.8355
  972TIP3    H224552   2.787   4.031   1.379  0.8077  0.9695  1.6579
  973TIP3   OH224553   3.068   5.383   1.450 -0.2226  0.6831 -0.1449
  973TIP3    H124554   3.086   5.423   1.535  2.2610 -2.5095  0.9940
  973TIP3    H224555   3.089   5.291   1.461 -1.4140 -0.2045 -3.8250
  974TIP3   OH224556   3.395   2.660   3.118  0.3607 -0.1873 -0.2254
  974TIP3    H124557   3.311   2.684   3.155  0.7738  1.0876 -0.0651
  974TIP3    H224558   3.439   2.611   3.187  0.9315  1.7528  0.8717
  975TIP3   OH224559   1.942   1.376   0.634 -0.3278  0.2129 -0.6065
  975TIP3    H124560   1.884   1.452   0.643  0.9978  1.0625  1.5224
  975TIP3    H224561   1.906   1.311   0.693 -0.0306  0.1394 -0.5044
  976TIP3   OH224562   6.077   0.849   3.134  0.4314 -0.3299  0.2652
  976TIP3    H124563   6.153   0.812   3.178  0.6124  0.4520  0.6306
  976TIP3    H224564   6.107   0.867   3.044  0.1072 -1.7777 -0.1560
  977TIP3   OH224565   4.864   0.850   2.186  0.0771  0.0272 -0.2709
  977TIP3    H124566   4.769   0.854   2.189 -0.0900 -2.5637  1.6837
  977TIP3    H224567   4.889   0.810   2.270  2.8516  0.2350 -0.8926
  978TIP3   OH224568   4.069   6.023   2.619  0.1252  0.1008 -0.2376
  978TIP3    H124569   4.128   5.988   2.686  0.3507  1.4813  0.3111
  978TIP3    H224570   4.014   6.086   2.666  0.2188  1.0234 -1.3211
  979TIP3   OH224571   0.136   1.149   8.246 -0.5824 -0.0846  0.2833
  979TIP3    H124572   0.072   1.101   8.192 -0.2108 -0.4181  0.1387
  979TIP3    H224573   0.157   1.227   8.194  1.0368 -1.2096 -0.8549
  980TIP3   OH224574   3.863   1.550   8.164  1.0840 -0.3948 -0.3075
  980TIP3    H124575   3.953   1.519   8.157  1.6087  0.5421  1.7301
  980TIP3    H224576   3.866   1.641   8.135  1.0199 -0.0328  0.8021
  981TIP3   OH224577   1.228   0.099   1.170  0.2444 -0.7698 -0.1941
  981TIP3    H124578   1.285   0.172   1.146 -0.6832 -0.4562 -1.5089
  981TIP3    H224579   1.247   0.032   1.104  0.3855 -1.3616  0.4338
  982TIP3   OH224580   4.936   2.092   1.444  0.6376 -0.0745  0.8335
  982TIP3    H124581   5.003   2.053   1.499  0.7136 -0.2081  0.6471
  982TIP3    H224582   4.902   2.020   1.391  0.9904  0.1594  0.2727
  983TIP3   OH224583   0.160   5.642   2.607 -0.4306  0.1530  0.7387
  983TIP3    H124584   0.181   5.574   2.543 -0.0997 -0.4467  1.4662
  983TIP3    H224585   0.116   5.710   2.556  1.3825  0.5065 -0.4571
  984TIP3   OH224586   5.457   6.732   7.862  0.1222 -0.2052 -0.1509
  984TIP3    H124587   5.501   6.758   7.942 -1.7751  1.0256  0.5422
  984TIP3    H224588   5.525   6.687   7.811  1.1567 -1.8011  2.4615
  985TIP3   OH224589   4.774   4.045   7.807  0.4030  0.2029 -0.0865
  985TIP3    H124590   4.854   4.098   7.804 -0.0217  0.8659  0.1267
  985TIP3    H224591   4.703   4.109   7.808 -0.0838 -0.1716  3.8891
  986TIP3   OH224592   4.514   5.333   1.822  0.6638  0.1920 -0.3856
  986TIP3    H124593   4.534   5.319   1.914 -1.0556  1.5436  0.2229
  986TIP3    H224594   4.582   5.393   1.791  0.8835  0.2256  0.1612
  987TIP3   OH224595   0.113   3.423   3.027 -0.3743 -0.1291  0.2100
  987TIP3    H124596   0.149   3.335   3.041 -1.1652 -0.4484  0.3105
  987TIP3    H224597   0.140   3.473   3.103  1.7354  0.2914 -0.7368
  988TIP3   OH224598   3.979   2.515   0.446 -0.2752 -0.3644  0.4466
  988TIP3    H124599   4.032   2.536   0.522  0.5273 -0.8540  0.0411
  988TIP3    H224600   3.998   2.584   0.383 -2.5572  1.2537  1.4100
  989TIP3   OH224601   0.012   1.478   8.539  0.2581  0.0559  0.2310
  989TIP3    H124602  -0.041   1.549   8.504 -0.3026  0.3748  1.6610
  989TIP3    H224603  -0.046   1.433   8.600  1.2981 -0.2521  1.0217
  990TIP3   OH224604   3.395   0.954   0.898  0.0232 -0.6486 -0.0405
  990TIP3    H124605   3.419   0.864   0.922  0.9067 -0.6872 -0.9828
  990TIP3    H224606   3.470   0.986   0.848 -0.7253  0.2558 -0.6140
  991TIP3   OH224607   4.469   6.727   0.359  0.0480  0.0139  0.1932
  991TIP3    H124608   4.437   6.646   0.318 -0.9922  1.1785 -1.4286
  991TIP3    H224609   4.390   6.780   0.370  0.6833  0.7375  1.4681
  992TIP3   OH224610   5.994   0.496   0.245 -0.0890  0.4788  0.6479
  992TIP3    H124611   6.060   0.565   0.241  0.5124 -0.0158  1.6279
  992TIP3    H224612   5.998   0.464   0.335 -0.4110 -0.7870  0.2312
  993TIP3   OH224613   4.071   0.341   1.993 -0.1962 -0.7416 -0.3752
  993TIP3    H124614   4.045   0.347   2.085  2.6351  0.5172  0.4664
  993TIP3    H224615   4.001   0.386   1.946  0.0866  2.0599  1.6263
  994TIP3   OH224616   3.935   6.113   0.276 -0.2340  0.3563  0.1828
  994TIP3    H124617   3.878   6.162   0.336 -0.8736  1.9595 -1.6281
  994TIP3    H224618   3.945   6.171   0.200  0.0187 -1.8209 -1.5429
  995TIP3   OH224619   1.440   4.571   1.820  0.0454 -0.5420 -0.2107
  995TIP3    H124620   1.421   4.637   1.887  0.4002 -0.4278 -0.2221
  995TIP3    H224621   1.510   4.609   1.767  1.9390 -1.8647  1.2076
  996TIP3   OH224622   2.463   4.733   8.401  0.0287  0.1231 -1.0044
  996TIP3    H124623   2.553   4.739   8.369  0.4783  1.7888  0.4126
  996TIP3    H224624   2.418   4.806   8.360 -0.9891 -1.2307 -2.4297
  997TIP3   OH224625   2.480   2.540   3.192  0.1755  0.4682  0.2493
  997TIP3    H124626   2.456   2.449   3.211 -1.0500  0.6822 -0.2026
  997TIP3    H224627   2.545   2.533   3.122  2.3891 -0.1682  2.2431
  998TIP3   OH224628   2.472   3.895   2.411  0.2200  0.5634  0.3485
  998TIP3    H124629   2.532   3.842   2.463  0.1618  0.4871  0.3391
  998TIP3    H224630   2.386   3.855   2.425  0.2463  0.3690 -0.0259
  999TIP3   OH224631   0.215   1.907   0.207 -0.1792 -0.2035 -0.5946
  999TIP3    H124632   0.271   1.841   0.165 -0.1273 -0.3816 -0.2491
  999TIP3    H224633   0.276   1.964   0.253 -0.3370 -1.0217  0.6710
 1000TIP3   OH224634   2.759   5.897   1.341 -0.2366 -0.1703 -0.2559
 1000TIP3    H124635   2.790   5.845   1.415 -0.6745  1.9602  1.5411
 1000TIP3    H224636   2.672   5.928   1.369 -0.7636  0.0275 -2.0342
 1001TIP3   OH224637   5.268   4.174   1.865 -0.3700 -0.0318 -0.6121
 1001TIP3    H124638   5.207   4.100   1.860  0.3719 -0.6511 -0.6631
 1001TIP3    H224639   5.340   4.150   1.807  0.2139  0.4098 -0.0870
 1002TIP3   OH224640   4.557   0.410   8.617 -0.0783 -0.5547 -0.3487
 1002TIP3    H124641   4.463   0.396   8.618 -0.4633  1.5693  0.6677
 1002TIP3    H224642   4.581   0.418   8.710  0.9679 -0.3294 -0.6200
 1003TIP3   OH224643   1.401   4.945   1.217  0.6987 -0.0204 -0.3723
 1003TIP3    H124644   1.313   4.943   1.254  1.5900 -3.3504  2.0705
 1003TIP3    H224645   1.450   5.005   1.274  0.6725 -0.5318  0.2034
 1004TIP3   OH224646   0.048   2.228   7.045  0.0463  0.1771  0.6875
 1004TIP3    H124647   0.077   2.220   7.136 -0.4225  2.2746  1.0733
 1004TIP3    H224648  -0.025   2.289   7.049 -0.7775 -0.6357 -0.9830
 1005TIP3   OH224649   5.195   0.912   8.325 -0.4478 -0.4108  0.0588
 1005TIP3    H124650   5.180   0.818   8.327 -2.1088 -0.1680  0.2897
 1005TIP3    H224651   5.217   0.935   8.416  1.7013 -0.7908 -0.3102
 1006TIP3   OH224652   6.686   1.988   0.955 -0.1017 -0.2646  0.1081
 1006TIP3    H124653   6.675   2.046   0.879  0.9979 -1.5320 -1.0867
 1006TIP3    H224654   6.708   2.047   1.027  0.3519  0.8597 -0.9129
 1007TIP3   OH224655   4.175   2.370   6.921 -0.0329 -0.1496  0.7236
 1007TIP3    H124656   4.245   2.318   6.961  0.1474 -0.6643 -0.2314
 1007TIP3    H224657   4.118   2.305   6.879  1.3817  0.4647 -2.3799
 1008TIP3   OH224658   1.636   3.502   3.241  0.1501 -0.2656  0.0975
 1008TIP3    H124659   1.693   3.464   3.173  1.7438  0.3026  1.0683
 1008TIP3    H224660   1.622   3.430   3.303 -1.7323 -0.9410 -1.0228
 1009TIP3   OH224661   0.161   3.589   1.510  0.0081  0.1056 -0.2434
 1009TIP3    H124662   0.165   3.674   1.467 -2.6182  0.3599 -0.1233
 1009TIP3    H224663   0.243   3.545   1.485  0.8242  2.1497 -1.3400
 1010TIP3   OH224664   0.329   3.782   3.155 -0.1155  0.4537 -0.0513
 1010TIP3    H124665   0.376   3.716   3.105  0.3253  0.4469  0.3577
 1010TIP3    H224666   0.363   3.773   3.244 -0.6134  0.7125  0.1712
 1011TIP3   OH224667   3.077   6.409   1.656 -0.0588  0.2002 -0.7413
 1011TIP3    H124668   3.165   6.380   1.629  1.3135  2.0703  1.3932
 1011TIP3    H224669   3.070   6.498   1.623 -0.6619  0.4872  0.1481
 1012TIP3   OH224670   0.730   3.184   0.670  0.5198  0.4181  0.4592
 1012TIP3    H124671   0.776   3.234   0.602  1.2396  0.1358  0.7322
 1012TIP3    H224672   0.638   3.204   0.655  0.6047 -0.1955 -1.0523
 1013TIP3   OH224673   2.131   4.153   8.528 -0.6069  0.1361  0.4398
 1013TIP3    H124674   2.141   4.234   8.478  0.0394  1.1817  2.1689
 1013TIP3    H224675   2.037   4.136   8.526 -0.7294  0.8154 -0.1183
 1014TIP3   OH224676   4.155   3.148   2.184 -0.0380  0.0350  0.6770
 1014TIP3    H124677   4.148   3.161   2.279  0.2183 -2.6768  1.1426
 1014TIP3    H224678   4.084   3.087   2.164  0.0828  0.3714 -0.8620
 1015TIP3   OH224679   2.915   2.997   0.226  0.4056  0.3946 -0.0901
 1015TIP3    H124680   2.959   2.976   0.144 -2.0105  0.8924 -1.6047
 1015TIP3    H224681   2.878   2.914   0.256 -1.6860  0.7547 -1.4465
 1016TIP3   OH224682   3.451   2.873   8.614 -0.5705  0.6411 -0.0502
 1016TIP3    H124683   3.418   2.800   8.561  2.0391 -1.8132  1.4557
 1016TIP3    H224684   3.460   2.945   8.552  0.8112 -1.5983 -2.6726
 1017TIP3   OH224685   1.085   1.779   2.457 -0.2235 -0.2360  0.2717
 1017TIP3    H124686   1.035   1.717   2.404 -0.7268  0.0550  0.3915
 1017TIP3    H224687   1.118   1.843   2.394  0.7889 -0.9415  0.0743
 1018TIP3   OH224688   4.206   4.609   1.027 -0.6109  0.0486  0.1340
 1018TIP3    H124689   4.175   4.677   0.967 -0.1763  0.9564  0.9212
 1018TIP3    H224690   4.278   4.649   1.075  0.6345 -1.4515 -0.4054
 1019TIP3   OH224691   3.746   0.354   0.992  0.4827  0.1987 -0.0334
 1019TIP3    H124692   3.793   0.356   1.076 -0.0807 -1.0771  0.3405
 1019TIP3    H224693   3.777   0.432   0.946  2.3703 -0.1599  0.5102
 1020TIP3   OH224694   4.646   6.189   2.670  0.3452  0.0322  0.2895
 1020TIP3    H124695   4.588   6.251   2.626  0.6552 -1.1939 -2.0161
 1020TIP3    H224696   4.733   6.208   2.635  0.4884 -1.4655 -0.2811
 1021TIP3   OH224697   1.320   4.799   1.017 -0.6838  0.2039  0.0708
 1021TIP3    H124698   1.383   4.845   0.962  0.0153 -2.2216 -1.3133
 1021TIP3    H224699   1.334   4.836   1.105  3.0972 -0.5065 -0.0436
 1022TIP3   OH224700   3.266   6.570   1.353 -0.0052  0.6005 -0.3781
 1022TIP3    H124701   3.287   6.644   1.411  1.6674 -1.0374  1.2214
 1022TIP3    H224702   3.232   6.503   1.412  0.6979 -0.7354 -1.4489
 1023TIP3   OH224703   5.828   5.206   2.005  0.1542  0.1179  0.3944
 1023TIP3    H124704   5.739   5.206   2.039 -0.0457  0.1331 -0.1107
 1023TIP3    H224705   5.880   5.250   2.072 -0.3809  0.9283  0.2892
 1024TIP3   OH224706   0.153   5.355   8.388 -0.6324  0.2419 -0.0494
 1024TIP3    H124707   0.090   5.292   8.424  0.5196 -1.8633 -1.5053
 1024TIP3    H224708   0.111   5.390   8.310  0.3524 -2.0907 -1.7309
 1025TIP3   OH224709   5.374   3.076   1.162 -0.3194 -0.4745  0.2894
 1025TIP3    H124710   5.383   3.021   1.240 -1.9012 -0.8492  0.2512
 1025TIP3    H224711   5.294   3.044   1.121 -0.4829  0.9266 -0.5174
 1026TIP3   OH224712   1.275   0.847   2.912  0.3269  0.5549  0.0282
 1026TIP3    H124713   1.257   0.770   2.857 -0.0030  1.4822 -1.2170
 1026TIP3    H224714   1.188   0.878   2.938  0.4937 -0.6274  2.2408
 1027TIP3   OH224715   6.319   0.772   2.445  0.5095  0.2264 -0.5321
 1027TIP3    H124716   6.398   0.821   2.421  0.3949  1.0289  0.7109
 1027TIP3    H224717   6.293   0.729   2.363  0.5655  2.2718 -1.6818
 1028TIP3   OH224718   5.787   3.547   3.616 -0.4786  0.6087  0.3215
 1028TIP3    H124719   5.737   3.475   3.655 -1.8550 -1.9106 -5.1032
 1028TIP3    H224720   5.721   3.604   3.577  0.7342  1.2755 -0.8325
 1029TIP3   OH224721   0.123   6.098   0.235 -0.1703  0.0058 -0.2350
 1029TIP3    H124722   0.038   6.068   0.202  0.5535  0.3565 -2.6212
 1029TIP3    H224723   0.187   6.050   0.183  1.1179  0.0315  1.2535
 1030TIP3   OH224724   2.102   3.640   0.299 -0.0845  0.6858  0.4272
 1030TIP3    H124725   2.069   3.671   0.383  0.0110  1.8178  0.0631
 1030TIP3    H224726   2.087   3.713   0.239 -1.1465 -0.4829 -0.8057
 1031TIP3   OH224727   6.343   0.449   2.416  0.1777 -0.0279 -0.5339
 1031TIP3    H124728   6.400   0.514   2.458  1.8822 -2.6308  1.5015
 1031TIP3    H224729   6.400   0.375   2.397 -2.1892 -2.1822  0.1462
 1032TIP3   OH224730   4.190   3.197   7.635 -0.5739  0.1278 -0.1243
 1032TIP3    H124731   4.100   3.219   7.613 -0.3901  0.0299 -0.9896
 1032TIP3    H224732   4.199   3.105   7.613  0.0236  0.3865 -1.0177
 1033TIP3   OH224733   2.134   6.533   8.747 -0.3872 -0.4790  0.3685
 1033TIP3    H124734   2.091   6.457   8.708 -0.3080 -0.9290  1.1414
 1033TIP3    H224735   2.201   6.495   8.804 -1.3997  0.1166  2.0115
 1034TIP3   OH224736   6.605   5.671   2.461 -0.1331 -0.3741 -0.0380
 1034TIP3    H124737   6.686   5.620   2.467  0.7985  1.0835  0.3713
 1034TIP3    H224738   6.624   5.738   2.395 -0.9666  0.0483  0.1376
 1035TIP3   OH224739   3.235   1.738   8.147 -0.4110 -0.0008 -0.3190
 1035TIP3    H124740   3.261   1.646   8.154  2.0747  0.1579 -4.5178
 1035TIP3    H224741   3.152   1.736   8.100  1.1929 -0.2041 -3.3730
 1036TIP3   OH224742   5.114   4.560   0.175  1.1649 -0.2813  0.1703
 1036TIP3    H124743   5.178   4.630   0.183  1.1317 -0.1576 -0.5919
 1036TIP3    H224744   5.108   4.523   0.263  0.9140  0.9062  0.6704
 1037TIP3   OH224745   3.910   2.569   8.007  0.6517  0.5041  0.3827
 1037TIP3    H124746   3.837   2.506   8.004  0.3583  0.8484  0.2313
 1037TIP3    H224747   3.873   2.650   7.972  1.7447  0.0511 -2.1020
 1038TIP3   OH224748   6.553   4.993   0.722 -0.2619 -0.1476  0.2968
 1038TIP3    H124749   6.539   5.051   0.796 -1.2030  1.5012 -1.1019
 1038TIP3    H224750   6.647   4.995   0.706  0.0254 -0.9676  1.7487
 1039TIP3   OH224751   4.773   5.907   0.663 -0.0469 -0.3753  0.1829
 1039TIP3    H124752   4.773   5.817   0.693  0.7437 -0.6594 -0.6279
 1039TIP3    H224753   4.846   5.948   0.710 -0.2673 -0.2105  0.3850
 1040TIP3   OH224754   3.998   5.689   0.932 -0.4415 -0.4227 -0.6355
 1040TIP3    H124755   3.994   5.782   0.954 -0.1131 -0.2119 -1.4343
 1040TIP3    H224756   4.091   5.670   0.924 -0.5233 -0.7063 -0.9370
 1041TIP3   OH224757   5.560   2.900   2.486 -0.5275  0.0730 -0.0348
 1041TIP3    H124758   5.501   2.897   2.561 -0.9784 -0.9665 -0.4006
 1041TIP3    H224759   5.648   2.901   2.524 -0.7132 -1.5199  0.5474
 1042TIP3   OH224760   3.807   0.781   0.728 -0.2696  0.4333 -0.0322
 1042TIP3    H124761   3.776   0.859   0.774 -1.0710 -0.6979  1.4114
 1042TIP3    H224762   3.872   0.743   0.787 -0.3501 -0.3354 -0.4306
 1043TIP3   OH224763   5.752   4.140   2.463 -0.1810  0.4043 -0.7113
 1043TIP3    H124764   5.769   4.122   2.555 -3.8313 -1.0374 -0.1453
 1043TIP3    H224765   5.743   4.235   2.457  0.0123  0.5032  0.4471
 1044TIP3   OH224766   3.637   1.578   1.107 -0.2116  0.1942 -0.0338
 1044TIP3    H124767   3.668   1.612   1.191 -1.7704  1.2061  0.1808
 1044TIP3    H224768   3.584   1.502   1.130  0.2612 -0.1904 -0.2052
 1045TIP3   OH224769   4.900   1.355   2.060 -0.1043  0.4492 -0.4612
 1045TIP3    H124770   4.995   1.341   2.058 -0.0238  0.8609  0.2315
 1045TIP3    H224771   4.866   1.282   2.113 -0.1371  0.5127 -0.3950
 1046TIP3   OH224772   6.297   2.864   8.148 -0.2574 -0.3360  0.1601
 1046TIP3    H124773   6.211   2.826   8.129  0.0478 -1.8569  1.5727
 1046TIP3    H224774   6.285   2.910   8.231  0.4121 -1.0578  0.6657
 1047TIP3   OH224775   3.118   2.236   8.681 -0.0585  0.1641 -0.1413
 1047TIP3    H124776   3.190   2.188   8.640 -0.1005 -0.2149  0.2243
 1047TIP3    H224777   3.041   2.181   8.666 -0.8475  1.8060 -2.9316
 1048TIP3   OH224778   3.412   3.197   0.886 -0.1000 -0.1368 -0.6409
 1048TIP3    H124779   3.495   3.152   0.871  0.2628 -0.0808  0.9542
 1048TIP3    H224780   3.344   3.132   0.865  0.4008 -1.1466  0.7388
 1049TIP3   OH224781   4.658   2.777   8.171 -0.3561  0.1738 -0.5536
 1049TIP3    H124782   4.718   2.834   8.124 -0.8025  0.9717 -0.1888
 1049TIP3    H224783   4.574   2.789   8.127 -1.3098  2.5795  1.6034
 1050TIP3   OH224784   2.341   3.586   2.348 -0.1243  0.0490  0.4369
 1050TIP3    H124785   2.305   3.668   2.383 -1.2227 -0.3935  0.3540
 1050TIP3    H224786   2.401   3.555   2.416  0.7371  1.1904  0.2390
 1051TIP3   OH224787   3.840   4.503   2.596 -0.0401 -0.1066 -0.0013
 1051TIP3    H124788   3.785   4.580   2.580  0.0841 -0.1613 -0.7273
 1051TIP3    H224789   3.917   4.517   2.541  0.7423  0.0352  1.0990
 1052TIP3   OH224790   4.070   2.968   1.666 -0.4221 -0.8105  0.2006
 1052TIP3    H124791   4.115   2.884   1.661 -0.9186 -1.1009  0.4441
 1052TIP3    H224792   4.056   2.993   1.575 -0.5474 -1.1483  0.1241
 1053TIP3   OH224793   0.879   0.465   1.700  0.2054  0.0029  0.5241
 1053TIP3    H124794   0.905   0.504   1.784 -1.7559 -3.3278  2.8906
 1053TIP3    H224795   0.845   0.379   1.723 -1.1193 -0.8051 -3.6868
 1054TIP3   OH224796   6.063   5.070   2.383  0.1824  0.6184  0.0137
 1054TIP3    H124797   6.045   4.977   2.402 -0.7452  0.5243 -1.2239
 1054TIP3    H224798   6.118   5.098   2.456  1.2700 -1.1492 -0.0546
 1055TIP3   OH224799   4.477   2.729   1.531  0.1497 -0.2396 -0.5108
 1055TIP3    H124800   4.549   2.711   1.591  1.5179  0.6698 -1.8096
 1055TIP3    H224801   4.504   2.689   1.449 -0.6999  0.3422 -1.0856
 1056TIP3   OH224802   4.565   4.613   0.300 -0.0175  0.5053  0.1770
 1056TIP3    H124803   4.576   4.519   0.317 -0.0583  0.0135 -2.1207
 1056TIP3    H224804   4.540   4.650   0.384  0.2644 -1.5031  1.2069
 1057TIP3   OH224805   3.939   3.035   0.499 -0.0994  0.4551  0.0769
 1057TIP3    H124806   3.980   2.964   0.548  2.2291 -0.8777 -3.4326
 1057TIP3    H224807   3.931   3.107   0.563  2.9888 -0.9566  2.3104
 1058TIP3   OH224808   6.542   5.703   8.605  0.8809  0.0512 -0.3080
 1058TIP3    H124809   6.574   5.652   8.531 -0.5700 -0.9130 -0.3071
 1058TIP3    H224810   6.508   5.638   8.666 -0.3694  0.9835  0.0183
 1059TIP3   OH224811   2.672   4.852   2.369 -1.1026 -0.5149  0.5832
 1059TIP3    H124812   2.616   4.777   2.349 -1.0270 -0.4136 -0.0220
 1059TIP3    H224813   2.761   4.818   2.363 -1.0064 -0.0550 -1.1676
 1060TIP3   OH224814   2.817   3.734   8.452  0.3896  0.1603 -0.1506
 1060TIP3    H124815   2.859   3.703   8.532  2.2358 -1.6137 -1.7307
 1060TIP3    H224816   2.860   3.817   8.433  1.0769 -0.2013 -0.1728
 1061TIP3   OH224817   0.654   5.460   2.451  0.3720 -0.6900  0.0587
 1061TIP3    H124818   0.726   5.455   2.388  1.3468 -1.8488  1.2134
 1061TIP3    H224819   0.695   5.492   2.531 -1.2646  3.1790 -0.3946
 1062TIP3   OH224820   2.000   0.615   3.119 -0.0467  0.6722 -0.1499
 1062TIP3    H124821   1.938   0.544   3.140 -0.6307  0.7787 -1.4042
 1062TIP3    H224822   2.004   0.615   3.023  1.2606  1.2361 -0.1132
 1063TIP3   OH224823   5.131   0.915   1.471 -0.2760  0.0523 -0.1979
 1063TIP3    H124824   5.126   0.825   1.505 -0.1186  1.5811  4.5656
 1063TIP3    H224825   5.042   0.934   1.440 -0.8705 -1.0929  0.7321
 1064TIP3   OH224826   5.688   5.821   0.262  0.1725  0.7141  0.2740
 1064TIP3    H124827   5.765   5.854   0.214  0.6512 -0.2905  0.3249
 1064TIP3    H224828   5.647   5.900   0.298  0.5581  1.3707 -0.6670
 1065TIP3   OH224829   4.786   4.616   8.049 -0.2177  0.7142  0.7207
 1065TIP3    H124830   4.796   4.532   8.004  2.4353  0.5922  1.3623
 1065TIP3    H224831   4.842   4.608   8.126 -1.7749  2.2430  2.0774
 1066TIP3   OH224832   1.414   6.278   7.727 -0.1540  0.1099  0.3699
 1066TIP3    H124833   1.395   6.191   7.760  0.5565  0.1087  0.8029
 1066TIP3    H224834   1.510   6.285   7.730 -0.2063  0.9537  0.4868
 1067TIP3   OH224835   4.670   1.582   1.124  0.1299  0.0959 -0.0571
 1067TIP3    H124836   4.746   1.602   1.069 -0.5837  0.7175 -0.8203
 1067TIP3    H224837   4.628   1.666   1.139 -0.0521 -0.1529  0.9213
 1068TIP3   OH224838   5.253   6.364   8.759  0.0826  0.0535  0.3105
 1068TIP3    H124839   5.162   6.390   8.745  0.0637  1.0612  1.9948
 1068TIP3    H224840   5.271   6.301   8.689 -2.1605 -0.8041  0.4078
 1069TIP3   OH224841   4.284   3.523   2.667  0.0792 -0.0146  0.4747
 1069TIP3    H124842   4.289   3.431   2.693  0.0784  0.0491  0.7058
 1069TIP3    H224843   4.233   3.565   2.737 -3.0918 -0.4772 -1.3627
 1070TIP3   OH224844   5.279   2.983   8.013  0.6185 -0.9022 -0.2358
 1070TIP3    H124845   5.233   3.063   7.986  2.0924 -0.5671 -1.9967
 1070TIP3    H224846   5.331   3.010   8.089  1.1914 -0.1401 -0.8861
 1071TIP3   OH224847   0.253   4.770   8.499 -0.2114 -0.8812 -0.7797
 1071TIP3    H124848   0.162   4.797   8.507  0.3522  1.2098 -0.8591
 1071TIP3    H224849   0.249   4.681   8.464 -2.2084 -0.9487 -0.4838
 1072TIP3   OH224850   3.502   4.159   2.324 -0.2813 -0.1062  0.2069
 1072TIP3    H124851   3.453   4.086   2.285 -0.0401 -0.2861  0.2380
 1072TIP3    H224852   3.440   4.201   2.383 -0.1860 -0.7597  0.7772
 1073TIP3   OH224853   5.587   1.935   2.112 -0.3138 -0.7460  0.4387
 1073TIP3    H124854   5.573   2.030   2.118  0.9664 -0.5822  1.2574
 1073TIP3    H224855   5.522   1.905   2.048  0.0343  0.8440 -0.7039
 1074TIP3   OH224856   3.259   5.863   8.265 -0.2253  0.2174  0.5792
 1074TIP3    H124857   3.187   5.807   8.236  0.1665  0.4436 -0.8932
 1074TIP3    H224858   3.334   5.832   8.215  1.0128 -0.7508  2.8819
 1075TIP3   OH224859   6.700   5.829   1.943  0.1888 -0.0598 -0.6443
 1075TIP3    H124860   6.687   5.917   1.978 -2.4784 -1.6153  3.0509
 1075TIP3    H224861   6.611   5.797   1.924  0.9392 -2.3202 -0.7308
 1076TIP3   OH224862   0.229   0.796   8.613  0.0315  0.3219  0.0297
 1076TIP3    H124863   0.221   0.858   8.541  1.1268  1.1195  0.5588
 1076TIP3    H224864   0.183   0.717   8.583  2.3039 -0.2000 -2.4682
 1077TIP3   OH224865   1.190   6.245   1.660  0.2854 -0.4790 -0.2363
 1077TIP3    H124866   1.132   6.318   1.641  0.9180  0.2138  0.4387
 1077TIP3    H224867   1.149   6.170   1.618 -0.9177  0.0633 -0.0632
 1078TIP3   OH224868   5.215   5.533   2.246  0.0483  0.0014 -0.1452
 1078TIP3    H124869   5.227   5.526   2.340 -0.8312  1.7027  0.1222
 1078TIP3    H224870   5.120   5.534   2.233  0.1355  1.5485 -0.8721
 1079TIP3   OH224871   0.269   3.105   7.466 -0.5157  0.3221 -0.1718
 1079TIP3    H124872   0.225   3.021   7.480 -0.8430  0.4595 -0.3498
 1079TIP3    H224873   0.247   3.128   7.376 -0.1269  0.4248 -0.2420
 1080TIP3   OH224874   4.778   5.304   2.917  0.2034 -0.0066 -0.0193
 1080TIP3    H124875   4.850   5.250   2.949 -0.1822 -1.0157 -0.7936
 1080TIP3    H224876   4.799   5.318   2.824 -0.9546 -0.9383 -0.4428
 1081TIP3   OH224877   6.055   0.424   7.950 -0.5139 -0.4334 -0.1023
 1081TIP3    H124878   6.057   0.517   7.924  0.5937  0.0032  1.3962
 1081TIP3    H224879   6.134   0.387   7.910  1.4116  0.3299  2.6814
 1082TIP3   OH224880   2.206   0.481   7.403 -0.1165 -0.7104  0.3088
 1082TIP3    H124881   2.295   0.446   7.398 -0.1365 -0.7241  0.0248
 1082TIP3    H224882   2.151   0.405   7.420  0.0027 -0.5991  1.2138
 1083TIP3   OH224883   0.901   4.356   1.991 -0.1109 -0.3322  0.1715
 1083TIP3    H124884   0.959   4.323   1.923 -0.3029  0.9995 -0.6698
 1083TIP3    H224885   0.848   4.280   2.017 -0.5892 -0.6926 -1.7371
 1084TIP3   OH224886   4.572   4.520   0.844  0.3234  0.0406  0.4682
 1084TIP3    H124887   4.584   4.437   0.797  0.8675  0.4868 -0.2063
 1084TIP3    H224888   4.620   4.509   0.926  2.2615  0.4361 -0.5484
 1085TIP3   OH224889   0.865   4.499   8.388  0.1016  0.4041  0.4612
 1085TIP3    H124890   0.829   4.545   8.312 -1.4030  0.1618  0.9958
 1085TIP3    H224891   0.912   4.425   8.351  1.4352  1.5796 -0.3404
 1086TIP3   OH224892   3.749   2.883   8.465 -0.5402  0.1464  0.1612
 1086TIP3    H124893   3.714   2.800   8.434  2.8033 -1.7759  1.0340
 1086TIP3    H224894   3.675   2.925   8.509 -2.1594 -2.8317  0.5761
 1087TIP3   OH224895   1.335   6.109   1.099  0.5521 -0.3334 -0.2284
 1087TIP3    H124896   1.294   6.040   1.151  1.7900 -0.6535  0.3734
 1087TIP3    H224897   1.347   6.181   1.160 -0.9089  0.5280 -0.9032
 1088TIP3   OH224898   3.649   4.556   0.105 -0.0651  0.0802 -0.1359
 1088TIP3    H124899   3.651   4.645   0.141 -0.6613 -0.1853  0.5849
 1088TIP3    H224900   3.724   4.513   0.144 -1.7519 -0.7873  2.4434
 1089TIP3   OH224901   6.297   2.550   8.246 -1.0487 -0.5636  0.2439
 1089TIP3    H124902   6.335   2.591   8.169  0.1691  0.8709  1.5368
 1089TIP3    H224903   6.304   2.456   8.229  1.9942 -0.3532 -0.1525
 1090TIP3   OH224904   1.914   2.547   1.859 -1.0836 -0.1838  0.2945
 1090TIP3    H124905   1.946   2.585   1.940 -0.1505  0.9908 -0.5895
 1090TIP3    H224906   1.828   2.511   1.881 -0.0001 -1.7432  2.2789
 1091TIP3   OH224907   5.569   2.821   0.472  0.3434 -0.0917  0.2976
 1091TIP3    H124908   5.612   2.740   0.500  0.4858  0.1505  0.7820
 1091TIP3    H224909   5.562   2.812   0.377  2.6038  0.4248  0.0304
 1092TIP3   OH224910   2.556   0.602   0.798 -0.1657 -0.2639 -0.0990
 1092TIP3    H124911   2.520   0.689   0.815  0.7190  0.2413 -0.7480
 1092TIP3    H224912   2.489   0.558   0.745 -0.0225  0.5192 -0.9450
 1093TIP3   OH224913   0.408   0.432   8.337  0.4102  0.3130  0.3436
 1093TIP3    H124914   0.373   0.427   8.426 -0.6013  0.8931 -0.0043
 1093TIP3    H224915   0.357   0.369   8.287  0.5543  0.4303  0.0439
 1094TIP3   OH224916   4.930   6.785   1.981  0.0751  0.0759 -0.3717
 1094TIP3    H124917   5.019   6.813   2.000 -0.1255  0.6217 -0.2217
 1094TIP3    H224918   4.896   6.852   1.921  0.2874 -0.9625 -1.7074
 1095TIP3   OH224919   2.667   0.995   1.090 -0.3396  0.0509  0.6013
 1095TIP3    H124920   2.624   0.909   1.087  0.3796 -0.2801 -1.4968
 1095TIP3    H224921   2.746   0.979   1.142 -0.0019 -0.6758 -0.1103
 1096TIP3   OH224922   4.697   4.956   2.503  0.1101  0.4670  0.2224
 1096TIP3    H124923   4.731   5.025   2.560 -2.2153  2.2676 -0.3943
 1096TIP3    H224924   4.711   4.989   2.415 -0.8421  0.0731 -0.0855
 1097TIP3   OH224925   0.460   2.210   3.412  0.7202  0.0637  0.0910
 1097TIP3    H124926   0.397   2.238   3.345  0.1025  1.0808  1.0729
 1097TIP3    H224927   0.496   2.128   3.377  1.3893  1.2135 -2.0970
 1098TIP3   OH224928   4.881   5.880   8.375 -0.4111 -0.0663 -0.3259
 1098TIP3    H124929   4.818   5.808   8.362 -0.8207  0.1883  0.2453
 1098TIP3    H224930   4.837   5.957   8.338  0.1359 -0.1486 -1.1791
 1099TIP3   OH224931   6.330   6.042   1.405 -0.0798 -0.0352  0.4229
 1099TIP3    H124932   6.386   5.995   1.343 -0.5868 -1.4219  0.9744
 1099TIP3    H224933   6.298   6.117   1.355  0.4816 -0.4603 -0.6217
 1100TIP3   OH224934   2.941   1.565   3.370  0.3541  0.1507 -0.1182
 1100TIP3    H124935   2.949   1.655   3.339 -2.1479  0.3481 -0.4022
 1100TIP3    H224936   2.947   1.511   3.291  0.4073  0.1889 -0.1399
 1101TIP3   OH224937   3.092   5.114   1.873 -0.1511 -0.2750  0.2016
 1101TIP3    H124938   3.013   5.066   1.848  0.0473 -0.9231  0.8020
 1101TIP3    H224939   3.090   5.116   1.969  1.3032 -1.6024  0.3055
 1102TIP3   OH224940   2.741   1.066   8.437 -0.0796 -0.1035  0.4102
 1102TIP3    H124941   2.772   1.119   8.510  0.7512  1.3579 -0.9376
 1102TIP3    H224942   2.648   1.052   8.455  0.1885 -0.0896  1.9104
 1103TIP3   OH224943   0.777   5.845   1.700  0.0993 -0.6652  0.4860
 1103TIP3    H124944   0.699   5.817   1.651  0.4399 -2.7615  1.0536
 1103TIP3    H224945   0.788   5.938   1.677 -2.8267 -0.1604  0.7614
 1104TIP3   OH224946   1.290   4.357   2.613  0.4541  0.0896 -0.5238
 1104TIP3    H124947   1.251   4.433   2.570  0.1629  0.8094  0.9435
 1104TIP3    H224948   1.229   4.285   2.598 -0.9772  0.9535  0.8531
 1105TIP3   OH224949   4.743   4.501   2.970  0.6761 -0.1206  0.4511
 1105TIP3    H124950   4.708   4.567   3.029  0.0875 -3.3012  4.0979
 1105TIP3    H224951   4.667   4.468   2.923  0.1177 -1.1150  1.9552
 1106TIP3   OH224952   3.209   6.828   2.093 -0.4485 -0.5175 -0.2648
 1106TIP3    H124953   3.203   6.739   2.060 -1.4876 -1.2110  1.6178
 1106TIP3    H224954   3.256   6.820   2.176 -1.9093  0.4102  0.7075
 1107TIP3   OH224955   1.734   2.805   2.113 -0.1757  0.4702 -0.1106
 1107TIP3    H124956   1.679   2.878   2.143  1.5451  2.1334 -0.7853
 1107TIP3    H224957   1.816   2.815   2.163 -0.0209 -1.2310  0.0305
 1108TIP3   OH224958   3.893   1.226   0.832  0.9420 -0.1067 -0.5612
 1108TIP3    H124959   3.984   1.254   0.843  1.6757 -2.4519 -0.1504
 1108TIP3    H224960   3.870   1.185   0.916 -0.9817  1.5728 -0.1681
 1109TIP3   OH224961   4.427   6.047   1.346 -0.0564  0.5042  0.3602
 1109TIP3    H124962   4.482   6.124   1.363 -1.1255  1.3075  0.2590
 1109TIP3    H224963   4.359   6.050   1.413 -0.9098  0.4219 -0.4726
 1110TIP3   OH224964   3.923   2.393   8.456  0.3427  0.7162 -0.0930
 1110TIP3    H124965   3.973   2.456   8.404  0.3236  0.7321 -0.0924
 1110TIP3    H224966   3.958   2.307   8.430 -0.8777  0.5809 -1.4887
 1111TIP3   OH224967   5.427   3.357   1.298  0.1166 -0.0440  0.8249
 1111TIP3    H124968   5.381   3.296   1.240  0.5778  1.5797 -1.3636
 1111TIP3    H224969   5.376   3.357   1.379  0.3327 -3.6116  1.1256
 1112TIP3   OH224970   6.109   0.071   8.319 -0.3621 -0.1413 -0.5652
 1112TIP3    H124971   6.157   0.107   8.244  0.0418  1.7312  0.5305
 1112TIP3    H224972   6.051   0.142   8.347  0.7249 -0.1298  1.9278
 1113TIP3   OH224973   3.592   0.256   1.305 -0.0463 -0.0033 -0.4195
 1113TIP3    H124974   3.562   0.175   1.345 -2.0618  1.2539  0.8220
 1113TIP3    H224975   3.519   0.284   1.250  1.2402  0.1984 -2.0890
 1114TIP3   OH224976   0.919   4.128   1.544  0.0180 -0.5447 -0.0824
 1114TIP3    H124977   0.891   4.138   1.453 -0.3696  0.3677  0.1184
 1114TIP3    H224978   1.000   4.078   1.539  0.7763  0.7050 -1.0702
 1115TIP3   OH224979   2.927   6.336   8.427  0.4287 -0.8768 -0.3030
 1115TIP3    H124980   2.941   6.281   8.505  1.4664  0.2934  0.3656
 1115TIP3    H224981   2.964   6.421   8.451 -3.2031  0.9252 -0.4139
 1116TIP3   OH224982   3.772   2.966   1.087 -0.4020 -0.1822  0.0706
 1116TIP3    H124983   3.762   3.056   1.116 -0.4156 -0.1150 -0.1382
 1116TIP3    H224984   3.824   2.972   1.006 -1.3922 -0.2453 -0.5957
 1117TIP3   OH224985   0.662   0.880   0.448  0.1021 -0.0881  0.4985
 1117TIP3    H124986   0.602   0.881   0.373 -1.3360 -1.0707  1.5872
 1117TIP3    H224987   0.711   0.798   0.437  0.2076 -0.0115  0.3950
 1118TIP3   OH224988   0.387   5.554   8.390 -0.0008 -0.0779 -0.4345
 1118TIP3    H124989   0.401   5.549   8.485  1.2140  0.8678 -0.5399
 1118TIP3    H224990   0.334   5.476   8.370  1.7134 -1.6275  0.6729
 1119TIP3   OH224991   4.836   0.450   7.640  0.5020 -1.2523  0.1092
 1119TIP3    H124992   4.761   0.496   7.677  2.2589  0.6884  1.5373
 1119TIP3    H224993   4.852   0.494   7.556  1.7287  0.4072  1.1380
 1120TIP3   OH224994   4.297   3.936   7.961 -0.0789  0.7390 -0.7151
 1120TIP3    H124995   4.276   3.888   7.881 -0.5886  1.2465 -0.8911
 1120TIP3    H224996   4.214   3.974   7.988  0.2274  1.1280 -0.3166
 1121TIP3   OH224997   6.726   0.174   8.559 -0.0004 -0.2949  0.1564
 1121TIP3    H124998   6.651   0.154   8.502 -0.9633 -0.3325  1.3994
 1121TIP3    H224999   6.749   0.264   8.538  0.0712 -0.5117 -0.7385
 1122TIP3   OH225000   0.833   4.481   0.963 -0.3307  0.1245  0.2255
 1122TIP3    H125001   0.895   4.443   1.025  0.0054 -0.7418 -0.6012
 1122TIP3    H225002   0.814   4.568   0.998  1.9434  0.7342  0.1442
 1123TIP3   OH225003   4.021   0.225   3.100  0.1765 -0.6131  0.0451
 1123TIP3    H125004   4.085   0.155   3.084 -0.3558 -1.0796 -0.0745
 1123TIP3    H225005   3.980   0.200   3.182 -0.5167 -0.8268 -0.3599
 1124TIP3   OH225006   2.681   2.338   8.686 -0.0395  0.4060  0.0303
 1124TIP3    H125007   2.756   2.397   8.696  1.1874 -0.8458 -1.2729
 1124TIP3    H225008   2.693   2.300   8.599 -2.0193 -0.1023 -0.0510
 1125TIP3   OH225009   3.897   3.342   1.807  0.1440  0.5095  0.0281
 1125TIP3    H125010   3.827   3.407   1.815  0.9697  1.6337 -1.2926
 1125TIP3    H225011   3.973   3.384   1.845  0.4968 -0.0343 -0.0645
 1126TIP3   OH225012   5.707   5.540   8.029 -0.0376  0.1719 -0.2374
 1126TIP3    H125013   5.648   5.566   8.099 -0.4253  2.0381 -1.1955
 1126TIP3    H225014   5.664   5.465   7.987  0.5629 -1.4833  1.8930
 1127TIP3   OH225015   1.142   4.676   0.448  0.5288 -0.2974  0.0529
 1127TIP3    H125016   1.220   4.688   0.502 -0.1246 -1.6955  1.3523
 1127TIP3    H225017   1.169   4.616   0.379 -0.2722 -4.0793  2.7403
 1128TIP3   OH225018   5.890   4.475   2.838  0.4342 -0.2926 -0.5067
 1128TIP3    H125019   5.857   4.388   2.813 -0.3791 -0.4506  0.9966
 1128TIP3    H225020   5.864   4.485   2.929  0.3871  1.6030 -0.6855
 1129TIP3   OH225021   3.611   0.001   1.679  0.6239 -0.2064  0.4284
 1129TIP3    H125022   3.579  -0.077   1.726 -1.4962  0.1568 -0.3020
 1129TIP3    H225023   3.585  -0.014   1.588  1.4469  0.7340  0.0258
 1130TIP3   OH225024   4.089   1.661   8.375  0.5849 -0.1844 -0.3433
 1130TIP3    H125025   4.050   1.573   8.380 -0.1351  0.1866  2.3315
 1130TIP3    H225026   4.140   1.669   8.455  0.0624  2.0759 -0.1713
 1131TIP3   OH225027   1.924   3.314   8.306 -0.2935  0.0423  0.3643
 1131TIP3    H125028   1.913   3.407   8.284 -3.1262 -0.3497 -0.3354
 1131TIP3    H225029   1.836   3.284   8.327  0.3592 -2.7251 -0.3523
 1132TIP3   OH225030   3.819   5.445   0.425 -0.2017 -0.0297  0.0465
 1132TIP3    H125031   3.836   5.500   0.349  1.0109  0.2640  0.5109
 1132TIP3    H225032   3.798   5.359   0.388  1.8780 -0.3036 -0.6316
 1133TIP3   OH225033   5.348   0.394   2.078 -0.6296  0.5824  0.1494
 1133TIP3    H125034   5.411   0.377   2.148 -1.9317  0.0728  1.2282
 1133TIP3    H225035   5.370   0.330   2.011  0.3793  0.8095  0.2469
 1134TIP3   OH225036   4.483   2.025   2.287 -0.5370 -0.1741  0.4732
 1134TIP3    H125037   4.496   1.973   2.366  1.0529  1.2961  1.2387
 1134TIP3    H225038   4.555   2.000   2.229 -0.6943  0.0162  0.1901
 1135TIP3   OH225039   2.095   1.991   8.308 -0.2336  0.2622 -0.2336
 1135TIP3    H125040   2.171   2.049   8.312  0.9266 -1.2816  1.4025
 1135TIP3    H225041   2.065   1.984   8.398 -0.7892 -1.0741 -0.4974
 1136TIP3   OH225042   3.373   2.523   8.634 -0.3271 -0.2636 -0.3197
 1136TIP3    H125043   3.392   2.437   8.671  0.5283 -1.1676 -2.6748
 1136TIP3    H225044   3.444   2.580   8.665 -1.8778  0.1905  2.7753
 1137TIP3   OH225045   6.847   0.648   8.604 -0.3967 -0.1804 -0.4911
 1137TIP3    H125046   6.797   0.679   8.529  0.2937  0.3165 -0.7557
 1137TIP3    H225047   6.790   0.583   8.646 -1.3741  0.5870 -0.6118
 1138TIP3   OH225048   4.216   2.513   2.557 -0.7233  0.0483  0.4733
 1138TIP3    H125049   4.147   2.546   2.500  1.0219  0.3794 -1.6165
 1138TIP3    H225050   4.261   2.447   2.504 -0.6137 -1.5818  2.4801
 1139TIP3   OH225051   1.594   1.715   1.475 -0.3450  0.1630 -0.2634
 1139TIP3    H125052   1.510   1.693   1.515 -0.0543  1.7471  1.3344
 1139TIP3    H225053   1.646   1.754   1.545  1.8464 -0.9677 -1.1426
 1140TIP3   OH225054   1.142   0.055   8.037  0.4471  0.2692 -0.0264
 1140TIP3    H125055   1.226   0.014   8.016  0.7330  1.5109 -1.4590
 1140TIP3    H225056   1.147   0.074   8.131  0.9370 -1.4544  0.3264
 1141TIP3   OH225057   2.752   2.068   8.230  0.2878  0.6647 -0.2501
 1141TIP3    H125058   2.764   2.122   8.309 -0.9582 -0.0154  0.4308
 1141TIP3    H225059   2.841   2.041   8.207  0.5508 -1.4354  2.5985
 1142TIP3   OH225060   5.756   5.263   8.288  0.1374  0.1211 -0.6526
 1142TIP3    H125061   5.818   5.244   8.358  0.5542  0.4212 -0.9324
 1142TIP3    H225062   5.747   5.358   8.288 -2.2570 -0.0443  1.0037
 1143TIP3   OH225063   3.717   5.184   0.767 -0.2585  0.1234  0.3342
 1143TIP3    H125064   3.635   5.220   0.801 -0.0325 -1.1253  2.3296
 1143TIP3    H225065   3.786   5.232   0.813  0.1053 -0.1844  0.1221
 1144TIP3   OH225066   2.363   1.514   7.741 -0.1544 -0.2137 -0.1795
 1144TIP3    H125067   2.434   1.555   7.693  1.2561 -2.5268 -0.2435
 1144TIP3    H225068   2.402   1.434   7.777 -2.5718 -1.2760  0.2745
 1145TIP3   OH225069   3.582   2.737   7.647  0.1838  0.2106 -0.4839
 1145TIP3    H125070   3.609   2.807   7.706 -2.5586  1.6334 -0.7924
 1145TIP3    H225071   3.625   2.659   7.681  2.3780  1.7831  0.5843
 1146TIP3   OH225072   0.620   1.199   1.922 -0.4411  0.7187  0.4539
 1146TIP3    H125073   0.651   1.156   1.842 -0.6533 -0.5809  1.0334
 1146TIP3    H225074   0.545   1.146   1.950  0.0720  0.7014  1.9009
 1147TIP3   OH225075   0.787   1.810   8.014 -0.7370 -0.2667  0.4822
 1147TIP3    H125076   0.840   1.830   7.937 -1.7439 -0.4222 -0.2736
 1147TIP3    H225077   0.737   1.732   7.990 -0.5847 -0.7113  1.5406
 1148TIP3   OH225078   4.370   4.724   0.478 -0.4272  0.2622 -0.0833
 1148TIP3    H125079   4.291   4.720   0.424  0.6953 -2.1513 -1.7437
 1148TIP3    H225080   4.345   4.685   0.562 -1.0400 -0.4416 -0.5804
 1149TIP3   OH225081   3.899   1.294   0.563  0.5183  0.1258  0.1503
 1149TIP3    H125082   3.878   1.281   0.655 -0.1771  2.1568  0.3165
 1149TIP3    H225083   3.991   1.319   0.562  0.2412  1.1981  0.4267
 1150TIP3   OH225084   0.910   2.414   2.092 -0.2869  0.1281  0.6340
 1150TIP3    H125085   0.951   2.500   2.083 -0.1338 -0.1275 -1.6929
 1150TIP3    H225086   0.828   2.421   2.043 -0.7215 -0.7875  1.2021
 1151TIP3   OH225087   1.366   1.376   1.906 -0.8382  0.3175 -0.2855
 1151TIP3    H125088   1.454   1.372   1.943 -0.7500 -2.0565 -0.6092
 1151TIP3    H225089   1.377   1.355   1.814 -1.5423  2.1688 -0.8405
 1152TIP3   OH225090   1.859   3.657   0.046 -0.1011  0.0649  0.0386
 1152TIP3    H125091   1.893   3.730   0.098  1.3002 -1.9304  2.0678
 1152TIP3    H225092   1.931   3.634  -0.013  0.1438 -0.7858  0.6532
 1153TIP3   OH225093   5.217   1.393   3.124 -0.1922  0.3348  0.6306
 1153TIP3    H125094   5.132   1.436   3.127 -0.5312 -0.3163  3.3591
 1153TIP3    H225095   5.254   1.408   3.211  1.2610 -1.7816  0.4475
 1154TIP3   OH225096   5.964   1.797   8.602  0.5678  0.3559  0.2962
 1154TIP3    H125097   5.970   1.840   8.516  1.9182 -2.6364 -1.2711
 1154TIP3    H225098   5.891   1.736   8.592  0.4069  0.3321  1.5007
 1155TIP3   OH225099   6.725   4.095   2.334 -0.3240  0.1863 -0.3483
 1155TIP3    H125100   6.649   4.153   2.336 -0.1780  0.3388  1.1350
 1155TIP3    H225101   6.799   4.151   2.355 -0.0264 -0.3143 -0.0628
 1156TIP3   OH225102   6.754   5.206   7.583 -0.4234 -0.3455 -0.1049
 1156TIP3    H125103   6.675   5.259   7.592 -0.8474 -0.6590 -1.6542
 1156TIP3    H225104   6.721   5.117   7.571  0.2280 -0.7093  0.7547
 1157TIP3   OH225105   3.023   1.961   8.274 -0.4028  0.4279  0.1567
 1157TIP3    H125106   3.003   1.891   8.213 -1.4785  1.0314 -0.2019
 1157TIP3    H225107   3.026   1.919   8.360  1.1856 -0.4366 -0.2851
 1158TIP3   OH225108   1.699   4.425   1.710 -0.9586 -0.0703 -0.3051
 1158TIP3    H125109   1.716   4.402   1.801 -0.5916  1.6312  0.0919
 1158TIP3    H225110   1.623   4.373   1.686 -0.4903 -1.2612  0.6584
 1159TIP3   OH225111   0.783   1.350   0.258  0.7391  0.7502 -0.0687
 1159TIP3    H125112   0.696   1.384   0.235  0.1171  0.5724  1.8895
 1159TIP3    H225113   0.782   1.259   0.227  0.0369  0.6065  0.3483
 1160TIP3   OH225114   4.327   3.590   0.714  0.5257 -0.0881  0.0809
 1160TIP3    H125115   4.335   3.554   0.802 -2.6317 -0.0233  0.5158
 1160TIP3    H225116   4.309   3.514   0.658  1.1319  0.0215 -0.2689
 1161TIP3   OH225117   3.634   6.789   2.138  0.2892  0.1302 -0.0209
 1161TIP3    H125118   3.699   6.859   2.127  1.1302 -0.5973  0.2046
 1161TIP3    H225119   3.684   6.708   2.128 -0.7162 -0.4454 -0.5181
 1162TIP3   OH225120   6.342   3.335   1.747 -0.2632  0.1380  0.2077
 1162TIP3    H125121   6.406   3.327   1.818  0.2798 -0.3392 -0.3312
 1162TIP3    H225122   6.304   3.248   1.739 -0.5034  0.2548  0.0688
 1163TIP3   OH225123   1.715   2.771   8.104 -0.0721  0.5236  0.0074
 1163TIP3    H125124   1.800   2.730   8.087  0.1605  0.6312  0.8681
 1163TIP3    H225125   1.652   2.714   8.060  0.4464  0.4749 -0.6954
 1164TIP3   OH225126   5.257   0.279   3.022 -0.2004  0.0333 -0.3203
 1164TIP3    H125127   5.260   0.352   2.960  0.6173 -1.4463 -2.1284
 1164TIP3    H225128   5.164   0.271   3.044 -0.1406  2.6606  1.3351
 1165TIP3   OH225129   5.233   5.813   0.814  0.2556 -0.2441 -0.3767
 1165TIP3    H125130   5.204   5.749   0.749 -0.3244  1.0139 -1.3881
 1165TIP3    H225131   5.181   5.891   0.797  0.9058  0.5087  0.8685
 1166TIP3   OH225132   0.808   0.670   0.935 -0.2153 -0.4479  0.4506
 1166TIP3    H125133   0.825   0.697   1.025 -1.2034 -1.6442  1.0386
 1166TIP3    H225134   0.721   0.704   0.916 -1.8066 -3.5363  1.4617
 1167TIP3   OH225135   5.118   3.005   2.558 -0.7354 -0.5103 -0.8434
 1167TIP3    H125136   5.049   2.954   2.601  0.2011 -0.9601  0.1677
 1167TIP3    H225137   5.163   3.049   2.629 -0.2224  0.1018 -1.5317
 1168TIP3   OH225138   6.692   0.497   1.317  0.1514 -0.3627  0.4896
 1168TIP3    H125139   6.666   0.512   1.407  0.7334 -1.2110  0.8087
 1168TIP3    H225140   6.764   0.559   1.302  0.6489 -0.8378  0.8956
 1169TIP3   OH225141   3.963   2.079   7.696 -0.3515  0.0202 -0.7122
 1169TIP3    H125142   3.941   2.091   7.789 -0.7179  0.0979 -0.8074
 1169TIP3    H225143   4.059   2.083   7.694 -0.3854  2.7535 -0.6815
 1170TIP3   OH225144   5.252   0.034   8.418  0.2113  0.3987 -0.6709
 1170TIP3    H125145   5.169   0.057   8.379 -0.7954  0.7129  1.4872
 1170TIP3    H225146   5.238  -0.054   8.455  0.2374  1.1183  1.1570
 1171TIP3   OH225147   1.826   2.835   2.395  0.5414  0.6403 -0.3243
 1171TIP3    H125148   1.808   2.761   2.452  1.0119  1.3361  0.7495
 1171TIP3    H225149   1.747   2.889   2.400  0.9572  1.2055  0.4960
 1172TIP3   OH225150   0.697   1.891   1.926 -0.0095  0.1847 -0.0278
 1172TIP3    H125151   0.656   1.814   1.967  0.7286 -0.0137  0.3613
 1172TIP3    H225152   0.774   1.908   1.980 -1.1121  2.3051  0.9860
 1173TIP3   OH225153   6.563   6.243   2.586 -0.0567  0.1407  0.2528
 1173TIP3    H125154   6.485   6.268   2.637  1.1122 -0.0909  2.2612
 1173TIP3    H225155   6.635   6.290   2.629  1.0709 -0.5546 -0.8377
 1174TIP3   OH225156   0.346   5.663   2.048 -0.3275  0.6253 -0.4594
 1174TIP3    H125157   0.348   5.699   2.137  1.1046 -1.9253  0.6618
 1174TIP3    H225158   0.253   5.651   2.029 -0.7048  2.2036  0.2266
 1175TIP3   OH225159   0.686   1.985   1.010  0.2789  0.0414  0.0688
 1175TIP3    H125160   0.643   2.062   0.971  0.4293  0.5271  0.8506
 1175TIP3    H225161   0.708   2.012   1.099  0.8076 -0.7353  0.1819
 1176TIP3   OH225162   2.797   1.767   0.775 -0.8269 -0.3308 -0.4161
 1176TIP3    H125163   2.764   1.696   0.829  1.8196 -0.4862  1.2094
 1176TIP3    H225164   2.832   1.831   0.837  3.1718 -0.9116 -1.7757
 1177TIP3   OH225165   2.883   1.922   0.358 -0.2120 -0.0462  0.2126
 1177TIP3    H125166   2.965   1.955   0.395 -0.3232  0.4718  0.0047
 1177TIP3    H225167   2.892   1.937   0.264 -0.4000 -0.3235  0.1488
 1178TIP3   OH225168   4.241   3.251   2.753 -0.0099 -0.4110  0.2267
 1178TIP3    H125169   4.180   3.244   2.827 -0.0361 -1.7425  0.1034
 1178TIP3    H225170   4.200   3.200   2.683  1.5999 -2.0691  0.4114
 1179TIP3   OH225171   0.299   1.595   1.359 -0.0714 -0.1722  0.0236
 1179TIP3    H125172   0.356   1.671   1.353 -0.8847  0.3373 -2.0498
 1179TIP3    H225173   0.349   1.524   1.319  0.0552 -0.3417  0.4749
 1180TIP3   OH225174   0.163   4.517   3.102  0.1138 -0.2905  0.3688
 1180TIP3    H125175   0.223   4.561   3.162  0.1239 -0.6960  0.6570
 1180TIP3    H225176   0.076   4.539   3.135  0.1204 -2.2953  1.8560
 1181TIP3   OH225177   2.749   2.561   2.895 -0.0316 -0.3908  0.0040
 1181TIP3    H125178   2.671   2.506   2.905 -0.8950  0.7935 -0.0759
 1181TIP3    H225179   2.734   2.635   2.955  0.2059  0.7470 -1.2954
 1182TIP3   OH225180   3.684   0.270   8.338 -0.0037 -0.8636 -0.6279
 1182TIP3    H125181   3.662   0.180   8.317 -1.5060 -0.2939 -1.6756
 1182TIP3    H225182   3.606   0.320   8.314  0.1845  0.5301  1.4393
 1183TIP3   OH225183   3.413   3.718   1.471  0.0907  0.1950 -0.1171
 1183TIP3    H125184   3.425   3.798   1.420  1.0039  0.2190  0.1240
 1183TIP3    H225185   3.323   3.724   1.503 -0.2147  0.5919 -1.0005
 1184TIP3   OH225186   3.041   5.374   2.373 -0.3027 -0.0748  0.3901
 1184TIP3    H125187   3.082   5.419   2.447 -0.9825  0.1494  0.6369
 1184TIP3    H225188   2.989   5.304   2.413 -0.1511 -0.3684  0.0788
 1185TIP3   OH225189   0.442   5.408   2.842  0.4133  0.3438 -0.0723
 1185TIP3    H125190   0.532   5.378   2.856  0.7152  0.7041 -1.1471
 1185TIP3    H225191   0.438   5.430   2.749 -0.3720  1.7177  0.2563
 1186TIP3   OH225192   5.567   5.490   3.401  0.5352  0.3704 -1.3076
 1186TIP3    H125193   5.514   5.568   3.383  0.3369 -0.0951 -2.8371
 1186TIP3    H225194   5.657   5.522   3.401  0.4239  0.6893 -1.4063
 1187TIP3   OH225195   5.761   3.503   2.373 -0.3040 -0.9054  0.0303
 1187TIP3    H125196   5.825   3.574   2.374 -1.1398 -0.1204 -0.3897
 1187TIP3    H225197   5.694   3.533   2.312 -0.8104 -1.9418  0.0644
 1188TIP3   OH225198   3.474   1.793   1.641 -0.2208  0.1974  0.8104
 1188TIP3    H125199   3.525   1.721   1.678 -0.4882  0.0974  0.9894
 1188TIP3    H225200   3.383   1.766   1.652 -0.3237  0.5485  0.8479
 1189TIP3   OH225201   4.002   3.772   2.495  0.1147  0.0188 -0.4484
 1189TIP3    H125202   3.908   3.776   2.513  0.2632 -1.1784  0.8333
 1189TIP3    H225203   4.041   3.746   2.579  1.3961 -1.2497 -1.3835
 1190TIP3   OH225204   0.693   5.406   2.128  0.6265 -0.2961  0.0937
 1190TIP3    H125205   0.753   5.377   2.061  0.6437  0.3469 -0.1817
 1190TIP3    H225206   0.747   5.459   2.188  0.7319 -1.3310  0.9393
 1191TIP3   OH225207   1.964   5.838   8.571 -0.1733  0.2234  0.3287
 1191TIP3    H125208   1.904   5.892   8.622  0.6995 -0.3139  1.9901
 1191TIP3    H225209   1.965   5.754   8.617  1.0751 -0.1026 -0.2525
 1192TIP3   OH225210   6.019   2.865   1.789 -0.4267  0.3590  0.9376
 1192TIP3    H125211   5.929   2.844   1.763 -0.3771  1.9054 -0.7065
 1192TIP3    H225212   6.073   2.819   1.725 -0.2223  2.4065 -0.4643
 1193TIP3   OH225213   0.221   4.033   0.475  0.0432  0.4724 -0.2824
 1193TIP3    H125214   0.199   4.125   0.461 -1.3966  0.3602  1.0999
 1193TIP3    H225215   0.249   4.029   0.566 -1.1160 -0.6642  0.0422
 1194TIP3   OH225216   0.986   4.179   1.269 -0.2517  0.3610  0.0446
 1194TIP3    H125217   1.063   4.142   1.226  0.0034 -0.3347  1.0839
 1194TIP3    H225218   0.916   4.117   1.249  0.3390 -1.2027  2.4369
 1195TIP3   OH225219   6.849   4.824   8.429  0.3632 -0.6027  0.1025
 1195TIP3    H125220   6.813   4.741   8.459  0.7663 -0.5868  0.6528
 1195TIP3    H225221   6.821   4.831   8.338 -0.3932 -0.9344  0.3006
 1196TIP3   OH225222   1.464   2.100   8.401  0.2523 -0.2038 -0.1824
 1196TIP3    H125223   1.467   2.015   8.357 -1.9968 -0.9955  1.0466
 1196TIP3    H225224   1.410   2.154   8.345  0.7811  0.0786 -0.4215
 1197TIP3   OH225225   2.603   2.906   0.465  0.2003  0.0144  0.4052
 1197TIP3    H125226   2.607   2.995   0.431 -1.3592 -0.0955 -0.1416
 1197TIP3    H225227   2.510   2.891   0.483  0.3217 -1.7708 -0.2553
 1198TIP3   OH225228   5.872   1.830   0.075  0.0911  0.2766 -0.1138
 1198TIP3    H125229   5.883   1.856  -0.016  0.4152  1.5143  0.2657
 1198TIP3    H225230   5.960   1.827   0.111  0.3812 -3.6774 -0.6796
 1199TIP3   OH225231   5.665   6.450   7.968 -0.2964 -0.1090 -0.1205
 1199TIP3    H125232   5.577   6.418   7.986 -0.5758  0.2307 -0.8529
 1199TIP3    H225233   5.723   6.378   7.992 -0.8187 -0.5983 -0.3348
 1200TIP3   OH225234   3.540   5.331   8.473  0.1178  0.5789  0.2999
 1200TIP3    H125235   3.607   5.264   8.463  0.4931  0.9164  0.4891
 1200TIP3    H225236   3.467   5.287   8.516  0.7892  0.5524  1.4474
 1201TIP3   OH225237   5.624   4.923   1.846 -0.1033 -0.5717  0.4038
 1201TIP3    H125238   5.591   4.833   1.853  0.5981 -0.8979 -0.3757
 1201TIP3    H225239   5.607   4.948   1.756  0.0006 -0.0306  0.5326
 1202TIP3   OH225240   0.757   3.877   7.980 -0.1849 -0.5375  0.0251
 1202TIP3    H125241   0.781   3.896   7.890  1.7772  0.8892  0.7656
 1202TIP3    H225242   0.839   3.850   8.021 -0.7115  0.2533  1.7133
 1203TIP3   OH225243   5.137   1.671   3.342  0.3425 -0.2333 -0.0603
 1203TIP3    H125244   5.204   1.603   3.352 -0.3719 -1.1866 -1.4928
 1203TIP3    H225245   5.058   1.633   3.379 -0.0248 -0.1303 -0.7278
 1204TIP3   OH225246   5.158   0.557   1.754 -0.1266  0.9384  0.2616
 1204TIP3    H125247   5.124   0.619   1.818 -0.2054  0.6832  0.4690
 1204TIP3    H225248   5.220   0.607   1.702 -0.6950  1.3673 -0.0123
 1205TIP3   OH225249   5.015   0.728   8.045  0.2390  0.6839  0.0462
 1205TIP3    H125250   5.080   0.680   8.097  0.8464  1.0855 -0.3275
 1205TIP3    H225251   4.931   0.704   8.084  0.6755  0.9848  1.2204
 1206TIP3   OH225252   2.551   5.072   1.848  0.7256 -0.1812 -0.7287
 1206TIP3    H125253   2.487   5.134   1.812  0.2206 -0.0294  0.3970
 1206TIP3    H225254   2.628   5.126   1.868  0.4416  0.0139 -0.1486
 1207TIP3   OH225255   5.781   2.935   0.208 -0.4509  0.6688  0.3991
 1207TIP3    H125256   5.822   2.897   0.130  0.5943  0.9534  0.7904
 1207TIP3    H225257   5.701   2.883   0.221  0.1127 -0.3344 -0.0181
 1208TIP3   OH225258   6.127   3.894   2.176 -0.5332  0.4966 -0.7461
 1208TIP3    H125259   6.135   3.914   2.269  0.3147 -0.4131 -0.6046
 1208TIP3    H225260   6.210   3.924   2.138  0.0740 -1.1214 -0.8023
 1209TIP3   OH225261   3.724   2.491   0.391  0.0011  0.4269  0.2131
 1209TIP3    H125262   3.680   2.512   0.474  0.8306 -0.0018  0.7696
 1209TIP3    H225263   3.816   2.478   0.415  0.6628  2.3085 -1.0791
 1210TIP3   OH225264   4.649   1.780   8.075 -0.0565  1.0501  0.1727
 1210TIP3    H125265   4.607   1.700   8.105 -0.2768  1.8651  2.1562
 1210TIP3    H225266   4.577   1.842   8.063  0.0051  0.7685 -2.2254
 1211TIP3   OH225267   0.876   2.931   2.645  0.4357 -0.0980  0.4171
 1211TIP3    H125268   0.931   2.853   2.648 -1.0059 -1.1475  0.2182
 1211TIP3    H225269   0.815   2.915   2.573  2.4646  2.8515 -2.3048
 1212TIP3   OH225270   1.499   2.462   2.606 -0.2574 -0.1070  0.3585
 1212TIP3    H125271   1.426   2.447   2.665 -0.0747  0.7970  0.8245
 1212TIP3    H225272   1.509   2.379   2.559 -1.5618 -0.2535  0.2963
 1213TIP3   OH225273   0.208   1.839   2.699 -0.2417 -0.0930  0.0220
 1213TIP3    H125274   0.277   1.778   2.725 -0.9512 -0.6656  0.6021
 1213TIP3    H225275   0.131   1.784   2.683 -1.0126  0.6667  0.9588
 1214TIP3   OH225276   0.510   1.225   3.206 -0.3129 -0.4055  0.1195
 1214TIP3    H125277   0.425   1.252   3.171 -0.1720  1.3475  1.0500
 1214TIP3    H225278   0.489   1.156   3.269 -1.3195  1.4294  1.9002
 1215TIP3   OH225279   3.864   0.347   2.833 -0.2593  0.3498  0.1602
 1215TIP3    H125280   3.864   0.310   2.921 -0.9436  0.5127  0.2411
 1215TIP3    H225281   3.943   0.314   2.792 -1.0508 -1.5725  0.0728
 1216TIP3   OH225282   3.849   4.649   0.805  0.2157  0.1575 -0.2807
 1216TIP3    H125283   3.928   4.637   0.752 -0.2758  0.3742 -1.0896
 1216TIP3    H225284   3.868   4.725   0.860 -0.0666  1.3279 -1.7416
 1217TIP3   OH225285   1.339   3.632   1.181  0.2039  0.1130  0.1102
 1217TIP3    H125286   1.429   3.604   1.196  0.1529 -0.1558 -0.0813
 1217TIP3    H225287   1.288   3.551   1.178  0.1190  0.1950 -0.8944
 1218TIP3   OH225288   2.999   2.531   0.562 -0.0653  0.3676 -0.0718
 1218TIP3    H125289   2.993   2.544   0.467 -0.8494 -1.0499 -0.2385
 1218TIP3    H225290   3.035   2.443   0.572  1.6904  1.1572  0.9834
 1219TIP3   OH225291   4.582   6.687   2.258  0.1044  0.7287  0.1757
 1219TIP3    H125292   4.626   6.647   2.183  0.6025  0.6965  0.4796
 1219TIP3    H225293   4.561   6.776   2.229 -1.9094 -0.0279 -0.8643
 1220TIP3   OH225294   3.851   0.938   1.893  0.2310 -0.0019 -0.6148
 1220TIP3    H125295   3.923   0.912   1.836 -0.5656 -1.3306 -1.0555
 1220TIP3    H225296   3.795   0.993   1.838 -0.5129 -1.2459 -1.1513
 1221TIP3   OH225297   3.713   1.883   0.161 -0.3485  0.1514 -0.6451
 1221TIP3    H125298   3.761   1.932   0.095  0.3116  0.6788  0.2103
 1221TIP3    H225299   3.770   1.809   0.183 -1.6486 -1.5072 -2.4672
 1222TIP3   OH225300   6.645   4.644   2.190 -1.1077 -0.2118  0.2912
 1222TIP3    H125301   6.704   4.624   2.117 -1.8952 -0.5624 -0.2726
 1222TIP3    H225302   6.659   4.573   2.253  0.0843  0.4651  0.8245
 1223TIP3   OH225303   3.101   1.954   0.508 -0.6033 -0.8377  0.2797
 1223TIP3    H125304   3.178   1.918   0.553 -0.2782 -1.4689 -0.7425
 1223TIP3    H225305   3.035   1.885   0.515 -1.4220  0.0513  1.9377
 1224TIP3   OH225306   3.464   6.689   1.937 -0.4236  0.7591  0.4146
 1224TIP3    H125307   3.436   6.620   1.997  0.8234  0.2337  0.4345
 1224TIP3    H225308   3.533   6.735   1.985  0.4880  0.4277 -0.5314
 1225TIP3   OH225309   4.824   5.405   0.385  0.1133  0.4911 -0.0097
 1225TIP3    H125310   4.879   5.380   0.459  1.1338 -0.0987 -0.9400
 1225TIP3    H225311   4.860   5.488   0.355 -0.0479  0.5245 -0.1136
 1226TIP3   OH225312   4.371   6.745   1.594 -0.8315  0.3553 -0.6578
 1226TIP3    H125313   4.301   6.744   1.659 -0.5887 -1.3893 -0.3938
 1226TIP3    H225314   4.451   6.758   1.645 -0.5925 -1.4697 -0.5198
 1227TIP3   OH225315   1.144   3.293   7.618 -0.0671 -0.1090 -0.0343
 1227TIP3    H125316   1.157   3.199   7.634 -0.5263 -0.3735 -1.0913
 1227TIP3    H225317   1.226   3.321   7.576  0.2123  0.0518  0.6093
 1228TIP3   OH225318   0.374   1.155   0.620 -0.2181  0.3562 -0.7059
 1228TIP3    H125319   0.357   1.100   0.544 -0.1369  1.8746 -1.8671
 1228TIP3    H225320   0.303   1.219   0.619  0.3091  0.9611 -0.0420
 1229TIP3   OH225321   5.953   4.742   2.788 -0.1218  0.2729 -0.6180
 1229TIP3    H125322   5.941   4.647   2.789 -0.1262  0.2753 -0.4617
 1229TIP3    H225323   5.937   4.770   2.878  1.6626  0.2092 -0.2559
 1230TIP3   OH225324   4.844   1.140   2.239  0.5342 -0.4195 -0.4553
 1230TIP3    H125325   4.843   1.053   2.201  1.5069 -0.6487  0.0213
 1230TIP3    H225326   4.934   1.153   2.267  0.1701  0.3279  0.4146
 1231TIP3   OH225327   5.396   6.589   8.280  0.6234  0.3121 -0.3793
 1231TIP3    H125328   5.322   6.601   8.339  1.2872  1.3156  0.2884
 1231TIP3    H225329   5.358   6.594   8.192  0.0365  2.1310 -0.0649
 1232TIP3   OH225330   4.289   2.333   2.139 -0.4624 -0.6108 -0.6125
 1232TIP3    H125331   4.197   2.313   2.123 -0.3927  0.3571 -2.5701
 1232TIP3    H225332   4.334   2.305   2.059  0.3842  2.0884 -1.1906
 1233TIP3   OH225333   5.583   2.699   0.801  0.3324  0.3448 -0.4006
 1233TIP3    H125334   5.656   2.721   0.858  1.9484 -2.5663 -1.1019
 1233TIP3    H225335   5.623   2.686   0.715 -1.4645  1.1042 -1.4195
 1234TIP3   OH225336   2.965   3.198   7.865  0.2846  0.0392  0.5631
 1234TIP3    H125337   2.869   3.201   7.856  0.2608 -0.1929  0.7397
 1234TIP3    H225338   2.980   3.170   7.955  0.5200  2.5853  1.4074
 1235TIP3   OH225339   0.476   2.555   0.395 -0.7387 -0.1930  0.1811
 1235TIP3    H125340   0.446   2.534   0.307  0.2776 -0.8312 -0.0320
 1235TIP3    H225341   0.571   2.563   0.387 -0.5669 -0.8027  1.3009
 1236TIP3   OH225342   1.685   1.910   1.048  0.0141  0.0291 -0.1023
 1236TIP3    H125343   1.602   1.887   1.005  0.2431 -1.2885  0.1131
 1236TIP3    H225344   1.660   1.933   1.137 -0.0861 -0.9269  0.1311
 1237TIP3   OH225345   3.241   4.843   3.039  0.3509 -0.1231  0.5441
 1237TIP3    H125346   3.327   4.801   3.046  0.0900 -0.6713  0.5078
 1237TIP3    H225347   3.260   4.929   3.000  0.9129 -0.1151  0.8169
 1238TIP3   OH225348   2.581   2.453   8.094 -0.5488  0.1184  0.2383
 1238TIP3    H125349   2.564   2.544   8.119  0.5229  1.2218 -2.6459
 1238TIP3    H225350   2.675   2.448   8.082 -0.8808 -0.1550 -3.3928
 1239TIP3   OH225351   6.674   6.602   0.298  0.1817 -0.0510 -0.2174
 1239TIP3    H125352   6.611   6.607   0.370 -0.9059 -0.4564 -1.1131
 1239TIP3    H225353   6.752   6.563   0.338 -0.1049  0.4865  0.9165
 1240TIP3   OH225354   1.415   4.184   0.210  0.2874  0.2105 -0.4292
 1240TIP3    H125355   1.496   4.153   0.251 -0.1307  0.0950  0.3317
 1240TIP3    H225356   1.345   4.144   0.261 -0.2921  2.9128  1.1039
 1241TIP3   OH225357   5.348   4.661   1.587  0.1214 -0.2575  0.5675
 1241TIP3    H125358   5.260   4.681   1.621  0.1936 -1.6772  1.7002
 1241TIP3    H225359   5.407   4.693   1.655  0.3948 -0.7558  0.5691
 1242TIP3   OH225360   6.405   5.609   0.295 -0.1397  0.0002  0.0463
 1242TIP3    H125361   6.375   5.580   0.209 -1.3201  1.9940 -0.2642
 1242TIP3    H225362   6.470   5.543   0.320 -0.2178 -0.9832 -2.0712
 1243TIP3   OH225363   1.769   1.176   7.966  0.5330 -0.2648  0.0949
 1243TIP3    H125364   1.849   1.196   8.015 -0.1472 -0.1562  1.1849
 1243TIP3    H225365   1.782   1.219   7.881  1.3229  0.3615  0.5153
 1244TIP3   OH225366   4.867   5.137   2.330 -0.4907 -0.5512  0.0004
 1244TIP3    H125367   4.957   5.158   2.307  0.3405 -3.6798 -0.0683
 1244TIP3    H225368   4.860   5.162   2.423  0.0176  0.7972 -0.2960
 1245TIP3   OH225369   5.763   3.119   0.827  0.3614  0.4002 -0.9386
 1245TIP3    H125370   5.677   3.123   0.870  0.2651  0.0648 -1.0963
 1245TIP3    H225371   5.753   3.051   0.760  0.5816  0.7443 -1.3284
 1246TIP3   OH225372   1.611   1.303   0.769 -0.1623 -0.1153  0.5573
 1246TIP3    H125373   1.670   1.231   0.787 -0.6260 -1.7002 -3.2457
 1246TIP3    H225374   1.649   1.378   0.815  2.0856 -2.0612  2.0875
 1247TIP3   OH225375   4.129   2.175   0.224  0.3645  0.4093  0.8997
 1247TIP3    H125376   4.107   2.082   0.229  0.0033  0.4557  0.3194
 1247TIP3    H225377   4.050   2.216   0.190  1.7481  0.3929 -2.7097
 1248TIP3   OH225378   3.698   4.316   8.650 -0.1158  0.0842 -0.2849
 1248TIP3    H125379   3.649   4.388   8.690 -1.0151 -0.1876 -0.8549
 1248TIP3    H225380   3.712   4.343   8.559 -0.8524 -0.6262 -0.6266
 1249TIP3   OH225381   5.720   4.073   0.071 -0.1127  0.6160  0.4831
 1249TIP3    H125382   5.626   4.061   0.081  0.0842 -2.5749 -0.4501
 1249TIP3    H225383   5.753   4.082   0.160 -0.9929 -1.7289  1.1141
 1250TIP3   OH225384   5.646   2.326   8.691 -0.4439  0.3080 -0.2809
 1250TIP3    H125385   5.720   2.277   8.656 -0.0594  0.4966  0.2507
 1250TIP3    H225386   5.679   2.416   8.699 -0.2028  0.0973  1.4258
 1251TIP3   OH225387   4.367   4.889   1.550  0.3349 -0.8525  0.6192
 1251TIP3    H125388   4.407   4.976   1.538 -0.2457 -0.5043  1.1146
 1251TIP3    H225389   4.389   4.866   1.641  1.5074 -1.7729  0.1288
 1252TIP3   OH225390   6.834   1.898   7.322  0.1114 -0.3511 -0.1930
 1252TIP3    H125391   6.795   1.812   7.337  1.2254 -0.7694  0.4336
 1252TIP3    H225392   6.922   1.879   7.291 -0.0181  0.5758 -1.1864
 1253TIP3   OH225393   4.429   5.427   1.347 -0.2379 -0.2272 -0.3404
 1253TIP3    H125394   4.351   5.451   1.397  1.0389  0.5383  1.3321
 1253TIP3    H225395   4.400   5.352   1.294 -1.4766 -1.5932  2.0841
 1254TIP3   OH225396   4.616   1.141   2.922 -0.2381  0.8863  0.0296
 1254TIP3    H125397   4.696   1.181   2.956 -0.0557 -1.1943  2.3000
 1254TIP3    H225398   4.545   1.198   2.953  0.1120  0.3555  1.9181
 1255TIP3   OH225399   4.441   1.942   8.086  0.3934  0.0657 -0.0967
 1255TIP3    H125400   4.414   1.950   7.994  0.1773 -0.5829 -0.0918
 1255TIP3    H225401   4.370   1.894   8.128 -0.6174  2.2824  0.9211
 1256TIP3   OH225402   6.133   5.565   1.535  0.8365 -0.2153 -0.1765
 1256TIP3    H125403   6.147   5.632   1.601 -0.8219 -1.4763  1.5635
 1256TIP3    H225404   6.055   5.594   1.487  0.7302 -0.3735 -0.1023
 1257TIP3   OH225405   6.559   4.496   8.705  0.4830 -0.3434 -0.1713
 1257TIP3    H125406   6.564   4.568   8.642  1.0896 -1.0943 -0.9945
 1257TIP3    H225407   6.650   4.467   8.716  0.3317 -0.5091  0.7226
 1258TIP3   OH225408   5.112   6.823   1.129 -0.6225 -0.7294  0.2622
 1258TIP3    H125409   5.152   6.907   1.149 -1.3757  0.0303 -1.2202
 1258TIP3    H225410   5.184   6.760   1.133  0.3053  0.2669 -0.2938
 1259TIP3   OH225411   0.042   5.378   8.138  0.6197  0.1829 -0.4397
 1259TIP3    H125412   0.004   5.451   8.088 -0.7399 -0.9365 -1.1159
 1259TIP3    H225413  -0.032   5.323   8.159  1.7428 -1.5819 -0.9044
 1260TIP3   OH225414   2.383   0.479   0.617 -0.1157  0.2553 -0.1336
 1260TIP3    H125415   2.414   0.557   0.571 -1.2053  0.8680  0.1337
 1260TIP3    H225416   2.371   0.414   0.548 -3.4421  1.6951 -1.1138
 1261TIP3   OH225417   4.937   6.566   0.607 -0.2245 -0.3508 -0.3556
 1261TIP3    H125418   4.844   6.569   0.584  0.3182  0.2110 -2.8783
 1261TIP3    H225419   4.981   6.548   0.523  1.9640 -0.1185  0.6823
 1262TIP3   OH225420   2.613   2.702   8.172 -0.0951 -0.4333 -0.3409
 1262TIP3    H125421   2.601   2.784   8.125  0.1744 -0.5695 -0.6514
 1262TIP3    H225422   2.647   2.727   8.258 -0.8769 -0.1619 -0.1062
 1263TIP3   OH225423   3.382   1.658   0.805  0.5183  1.0971  0.7125
 1263TIP3    H125424   3.475   1.649   0.823  0.6915  0.2919 -0.4596
 1263TIP3    H225425   3.364   1.592   0.738 -1.3748 -0.3518  2.5259
 1264TIP3   OH225426   3.269   6.583   2.938  0.2062  0.9060 -0.5954
 1264TIP3    H125427   3.319   6.540   3.008 -0.3137  0.7247 -0.3295
 1264TIP3    H225428   3.336   6.622   2.881  0.7069 -0.2768 -0.8625
 1265TIP3   OH225429   1.872   4.109   2.134  0.3790  0.7670  0.1811
 1265TIP3    H125430   1.859   4.030   2.083  1.6544 -0.2020  1.2799
 1265TIP3    H225431   1.788   4.124   2.178 -0.0621  0.4140 -0.5355
 1266TIP3   OH225432   6.771   3.285   2.779 -0.7363 -0.0177 -0.1998
 1266TIP3    H125433   6.713   3.332   2.839 -0.7104  0.3818 -0.4873
 1266TIP3    H225434   6.763   3.193   2.805 -0.8181  0.1389  0.3371
 1267TIP3   OH225435   6.443   2.618   8.632  0.1403  0.2726 -0.3075
 1267TIP3    H125436   6.488   2.609   8.547  0.8700  1.4269 -0.0628
 1267TIP3    H225437   6.351   2.627   8.609  0.1503 -0.8732 -0.8908
 1268TIP3   OH225438   2.269   0.636   2.471 -0.2335 -0.1764 -0.3227
 1268TIP3    H125439   2.231   0.582   2.541 -1.0343  1.6364  0.7235
 1268TIP3    H225440   2.264   0.582   2.393 -0.1582 -1.9404  0.8422
 1269TIP3   OH225441   3.899   3.620   1.733  0.4041 -0.5567  0.0154
 1269TIP3    H125442   3.809   3.640   1.760 -0.5293 -3.8117 -0.2523
 1269TIP3    H225443   3.950   3.694   1.766 -2.5393  2.4308 -1.4897
 1270TIP3   OH225444   2.928   2.105   0.776  0.2795 -0.5536 -0.0058
 1270TIP3    H125445   2.929   2.147   0.690  0.9049 -1.7956 -0.6330
 1270TIP3    H225446   3.014   2.122   0.813  0.5306 -1.2439 -0.2564
 1271TIP3   OH225447   0.697   5.425   8.520  0.0756 -0.1127  0.2956
 1271TIP3    H125448   0.636   5.416   8.446 -0.2486 -1.4567  0.7061
 1271TIP3    H225449   0.783   5.406   8.483 -0.0750 -0.6945  0.2475
 1272TIP3   OH225450   2.749   2.002   0.944  0.2359  0.0653 -0.5079
 1272TIP3    H125451   2.742   2.090   0.982  1.6871 -0.0997  0.2123
 1272TIP3    H225452   2.826   2.006   0.888 -0.0232 -0.5971 -0.9270
 1273TIP3   OH225453   6.723   0.725   2.690 -0.3111 -0.4164 -0.3957
 1273TIP3    H125454   6.763   0.812   2.693 -1.6549  0.2455 -0.9340
 1273TIP3    H225455   6.797   0.664   2.697  0.5513  0.7542  1.4392
 1274TIP3   OH225456   6.192   5.994   3.004  0.1223 -0.0204  0.9251
 1274TIP3    H125457   6.240   5.967   3.083  0.3019 -0.7412  0.5752
 1274TIP3    H225458   6.213   5.927   2.939  1.3423  1.4285 -0.2765
 1275TIP3   OH225459   2.106   5.965   7.779 -0.2342  0.5460 -0.4548
 1275TIP3    H125460   2.064   6.034   7.728  0.7589  1.0326 -0.6454
 1275TIP3    H225461   2.181   5.938   7.725 -1.0255 -1.2392 -0.7531
 1276TIP3   OH225462   5.339   0.410   7.167  0.5413  0.2257  0.2734
 1276TIP3    H125463   5.385   0.447   7.092  0.5720  0.9606  0.6423
 1276TIP3    H225464   5.381   0.450   7.243 -1.0618  1.3640  0.6018
 1277TIP3   OH225465   0.911   3.749   1.226  0.8452 -0.0867  0.6749
 1277TIP3    H125466   0.882   3.747   1.135  3.2306 -2.3361 -0.1642
 1277TIP3    H225467   0.887   3.836   1.257 -2.9757 -0.3049 -1.0053
 1278TIP3   OH225468   6.475   3.242   8.029  0.3226 -1.0738 -0.0942
 1278TIP3    H125469   6.448   3.183   7.959  0.6914 -0.8382 -0.4425
 1278TIP3    H225470   6.424   3.215   8.105 -0.6745 -0.8209 -0.6583
 1279TIP3   OH225471   4.751   0.133   8.440 -0.1236  0.2007 -0.3925
 1279TIP3    H125472   4.789   0.117   8.526  0.1697  2.6037  0.0058
 1279TIP3    H225473   4.657   0.123   8.452 -0.1871  1.6640  0.5455
 1280TIP3   OH225474   0.128   4.756   2.390 -0.2844  0.0553 -0.4299
 1280TIP3    H125475   0.088   4.842   2.407 -0.3072  0.2440 -1.3776
 1280TIP3    H225476   0.107   4.738   2.299 -1.3990 -1.5758  0.1086
 1281TIP3   OH225477   5.436   0.762   1.799  0.1286  0.7283 -0.2109
 1281TIP3    H125478   5.396   0.848   1.814  0.5274  1.1201 -1.2975
 1281TIP3    H225479   5.502   0.777   1.731 -0.1220 -0.5229 -0.7662
 1282TIP3   OH225480   1.531   4.690   0.182 -0.0659  0.0521 -0.3373
 1282TIP3    H125481   1.625   4.699   0.166  0.3327  1.9026  2.3840
 1282TIP3    H225482   1.525   4.639   0.263 -1.4335 -0.0168 -0.4538
 1283TIP3   OH225483   2.192   5.458   1.592 -0.0564  0.2682 -0.0891
 1283TIP3    H125484   2.149   5.425   1.671 -1.0016 -0.5438 -0.9125
 1283TIP3    H225485   2.285   5.442   1.606 -0.0825  1.2746  1.3712
 1284TIP3   OH225486   2.817   2.392   1.474 -0.8081  0.0392  0.0151
 1284TIP3    H125487   2.815   2.332   1.548  0.0458 -0.0633 -0.0333
 1284TIP3    H225488   2.725   2.408   1.454 -1.0645  0.7973  1.6687
 1285TIP3   OH225489   0.095   3.730   0.794  0.4224 -0.3336 -0.1435
 1285TIP3    H125490   0.106   3.707   0.701  0.8312  0.2243 -0.2331
 1285TIP3    H225491   0.073   3.646   0.836  0.5972 -0.6598 -0.6838
 1286TIP3   OH225492   5.150   2.152   2.402 -0.1393 -0.2962 -0.2513
 1286TIP3    H125493   5.187   2.063   2.397 -1.4134 -0.8473 -0.1746
 1286TIP3    H225494   5.056   2.140   2.388 -0.3687  1.0195  0.0315
 1287TIP3   OH225495   5.525   1.573   8.152  0.2176  0.0798 -0.4314
 1287TIP3    H125496   5.518   1.582   8.057 -0.4191 -0.1598 -0.4145
 1287TIP3    H225497   5.569   1.652   8.181  2.1277 -0.6801 -1.1143
 1288TIP3   OH225498   4.861   3.083   8.423 -0.3399  0.0248 -0.7374
 1288TIP3    H125499   4.836   3.038   8.343 -0.1167 -0.3607 -0.5932
 1288TIP3    H225500   4.789   3.066   8.484 -0.0558 -0.5000 -0.5460
 1289TIP3   OH225501   0.507   2.565   1.193 -0.0925  0.2478  0.3348
 1289TIP3    H125502   0.482   2.502   1.261 -1.2390  1.1218  0.7392
 1289TIP3    H225503   0.572   2.621   1.236  0.3658 -0.1699  0.2040
 1290TIP3   OH225504   6.245   2.605   7.953 -0.2696 -0.1975 -0.2873
 1290TIP3    H125505   6.185   2.664   8.000  0.0424 -0.6636  0.7292
 1290TIP3    H225506   6.288   2.661   7.889  0.6624  0.9114  1.2341
 1291TIP3   OH225507   5.992   1.155   0.671  0.4197 -0.3040  0.1697
 1291TIP3    H125508   6.065   1.216   0.660  0.6683 -0.8580 -1.6246
 1291TIP3    H225509   6.032   1.071   0.690  0.0870 -0.0237  2.3182
 1292TIP3   OH225510   6.678   0.539   2.351 -0.2316  0.4244  0.5997
 1292TIP3    H125511   6.593   0.506   2.381  0.4970  0.2758  2.6764
 1292TIP3    H225512   6.741   0.472   2.378  0.6196  0.7962 -0.3890
 1293TIP3   OH225513   5.796   4.702   7.494 -0.0279 -0.0050 -0.1174
 1293TIP3    H125514   5.733   4.774   7.503 -0.6575 -0.1513 -2.7076
 1293TIP3    H225515   5.742   4.623   7.496  0.0792 -0.1600 -1.7574
 1294TIP3   OH225516   2.138   0.603   8.187  0.3632  0.1258  0.0207
 1294TIP3    H125517   2.193   0.572   8.115 -0.0681  1.4596 -0.9356
 1294TIP3    H225518   2.099   0.684   8.154 -2.0039 -0.6380  0.7212
 1295TIP3   OH225519   5.085   4.796   7.653  0.0474 -0.3477  0.5691
 1295TIP3    H125520   5.124   4.849   7.584  1.5186  1.0948  2.3965
 1295TIP3    H225521   5.075   4.710   7.615  0.2804  0.5291 -1.6040
 1296TIP3   OH225522   1.305   3.621   0.372  0.2139  0.1710  0.3374
 1296TIP3    H125523   1.384   3.632   0.424  0.5251  0.9221 -0.2847
 1296TIP3    H225524   1.329   3.649   0.284 -0.2184 -1.3660 -0.3059
 1297TIP3   OH225525   0.200   4.951   1.905  0.2596 -0.5782  0.0028
 1297TIP3    H125526   0.161   4.994   1.829  1.5475  0.3498 -0.1544
 1297TIP3    H225527   0.228   4.865   1.873  0.5380 -0.3014 -0.5026
 1298TIP3   OH225528   0.086   4.608   7.732  0.3152  0.3003  0.2865
 1298TIP3    H125529   0.109   4.517   7.719  1.5894  0.4567  1.2551
 1298TIP3    H225530   0.089   4.647   7.644 -3.1382 -1.1274 -0.6529
 1299TIP3   OH225531   1.335   4.456   2.908 -0.2114  0.2923 -0.4644
 1299TIP3    H125532   1.400   4.519   2.877 -0.1824  0.7047  0.4036
 1299TIP3    H225533   1.335   4.387   2.841  0.7217  0.5501 -0.7492
 1300TIP3   OH225534   0.416   3.708   8.580 -0.2807  0.4007 -0.0800
 1300TIP3    H125535   0.437   3.772   8.648  1.1462  0.7400 -0.7844
 1300TIP3    H225536   0.496   3.703   8.527 -1.1371 -0.3010 -1.3670
 1301TIP3   OH225537   5.427   5.361   1.791 -0.2161  0.1721  0.0778
 1301TIP3    H125538   5.423   5.377   1.885  0.5813 -1.4337  0.4227
 1301TIP3    H225539   5.485   5.428   1.757 -0.0941  0.4478  0.8141
 1302TIP3   OH225540   1.121   4.174   2.509 -0.7837 -0.2083  0.0595
 1302TIP3    H125541   1.061   4.136   2.573 -2.5105  1.5220 -0.4347
 1302TIP3    H225542   1.064   4.207   2.439  0.7335  1.4776 -0.4570
 1303TIP3   OH225543   2.014   5.815   3.035 -0.9080  0.2954 -0.0887
 1303TIP3    H125544   2.096   5.822   3.084 -0.4362 -0.0337 -0.8145
 1303TIP3    H225545   1.977   5.903   3.036 -1.5485  0.0607  1.9108
 1304TIP3   OH225546   2.091   4.889   7.595  0.2831  0.2722 -0.3049
 1304TIP3    H125547   1.996   4.880   7.584  0.4718 -1.9362 -0.6404
 1304TIP3    H225548   2.104   4.889   7.690 -0.0849  1.3025 -0.2429
 1305TIP3   OH225549   2.716   5.145   0.468  0.0664 -0.2489 -0.4724
 1305TIP3    H125550   2.776   5.078   0.499  0.2240  0.4877  0.9104
 1305TIP3    H225551   2.749   5.169   0.382  1.3856 -0.3264 -0.0122
 1306TIP3   OH225552   5.195   5.267   0.775  0.5314 -0.5135  0.4493
 1306TIP3    H125553   5.215   5.178   0.803  0.5131  0.2774  3.2788
 1306TIP3    H225554   5.269   5.319   0.806 -0.0063  0.6378 -0.1315
 1307TIP3   OH225555   5.501   4.092   0.426  0.0189  0.5130  0.2484
 1307TIP3    H125556   5.594   4.075   0.411  0.0307  0.1532  0.7207
 1307TIP3    H225557   5.489   4.081   0.520 -1.0638 -2.2572 -0.1294
 1308TIP3   OH225558   2.202   2.409   1.690  0.2244  0.5105  0.1909
 1308TIP3    H125559   2.141   2.340   1.665 -0.0345  0.7869  0.0472
 1308TIP3    H225560   2.283   2.364   1.709  0.0739  0.1713  0.0340
 1309TIP3   OH225561   5.932   5.289   0.943  0.4041 -0.3140 -0.2700
 1309TIP3    H125562   5.858   5.313   0.887  0.0436 -0.7859 -0.0122
 1309TIP3    H225563   5.891   5.266   1.027  0.7454 -1.4467 -0.3913
 1310TIP3   OH225564   6.551   0.075   7.525 -0.4903 -0.4257 -0.2112
 1310TIP3    H125565   6.631   0.052   7.573 -0.1549 -0.1996 -0.6484
 1310TIP3    H225566   6.493   0.112   7.591 -0.1707 -0.4407  0.0836
 1311TIP3   OH225567   4.724   2.770   3.089 -0.6569  0.3278  0.4150
 1311TIP3    H125568   4.688   2.697   3.040 -0.5622  1.2396 -1.1008
 1311TIP3    H225569   4.666   2.844   3.069  0.9434  1.3765 -0.5907
 1312TIP3   OH225570   6.325   0.075   1.591 -0.4008  0.0419  0.0326
 1312TIP3    H125571   6.358   0.076   1.680 -1.6941  2.0639  0.5520
 1312TIP3    H225572   6.233   0.099   1.599 -0.6056  0.0400 -1.8307
 1313TIP3   OH225573   6.747   0.261   7.449  0.1614 -0.1761 -0.5368
 1313TIP3    H125574   6.660   0.220   7.443  0.2238 -0.2870 -0.6814
 1313TIP3    H225575   6.807   0.189   7.468  0.3048 -0.1891 -1.0334
 1314TIP3   OH225576   5.326   1.615   7.113 -0.2322 -0.1247  0.2425
 1314TIP3    H125577   5.382   1.545   7.079 -0.4172 -0.4483  0.6034
 1314TIP3    H225578   5.237   1.583   7.102 -0.3315  0.1952  0.1017
 1315TIP3   OH225579   0.969   2.313   2.339  0.0047 -0.3281  0.1291
 1315TIP3    H125580   0.906   2.369   2.385  0.5963  1.4852 -1.1498
 1315TIP3    H225581   0.952   2.328   2.247  0.5495 -1.9100 -0.2678
 1316TIP3   OH225582   1.679   4.166   0.021  0.7996 -0.1144  0.7785
 1316TIP3    H125583   1.717   4.252   0.040 -0.9444  0.8257  0.1977
 1316TIP3    H225584   1.630   4.143   0.100 -0.7749  0.6106  0.0516
 1317TIP3   OH225585   0.250   2.335   0.569 -0.0691  0.4920  0.6605
 1317TIP3    H125586   0.179   2.400   0.570 -0.7124 -0.1990  0.9826
 1317TIP3    H225587   0.260   2.313   0.476 -0.4806  0.3743  0.6431
 1318TIP3   OH225588   1.259   4.445   2.186  0.5982 -0.1671  0.4858
 1318TIP3    H125589   1.313   4.499   2.129  0.9067 -0.2869  0.6614
 1318TIP3    H225590   1.321   4.393   2.236  0.3833  0.7408  1.7411
 1319TIP3   OH225591   5.904   5.529   2.330 -0.0767  0.3944 -0.0710
 1319TIP3    H125592   5.892   5.434   2.337 -0.4645  0.3935 -0.7161
 1319TIP3    H225593   5.927   5.557   2.419  1.7965 -0.5451 -0.2069
 1320TIP3   OH225594   4.943   1.385   1.666 -0.1618  0.7209  0.2266
 1320TIP3    H125595   4.950   1.323   1.739 -0.7574  0.7243  0.2990
 1320TIP3    H225596   4.919   1.468   1.707 -0.4149  0.7434  0.0390
 1321TIP3   OH225597   1.293   1.982   3.023  0.0895  0.3007  0.1676
 1321TIP3    H125598   1.218   2.009   2.971  2.1776  1.3116 -2.6102
 1321TIP3    H225599   1.278   2.020   3.110 -1.5275  2.4618 -0.9721
 1322TIP3   OH225600   2.659   5.718   0.645 -0.1639  0.5079  0.4874
 1322TIP3    H125601   2.657   5.648   0.710 -1.6581 -1.4540 -1.5326
 1322TIP3    H225602   2.567   5.739   0.629  0.1747  1.0791 -0.8400
 1323TIP3   OH225603   1.976   1.015   2.788 -0.1873 -0.0785  0.1120
 1323TIP3    H125604   1.972   0.966   2.706  0.0639 -0.9267  0.5953
 1323TIP3    H225605   1.936   1.100   2.768 -2.0780 -1.0279 -0.3400
 1324TIP3   OH225606   5.714   5.268   0.386  0.3884  0.1299  0.3202
 1324TIP3    H125607   5.778   5.244   0.453  1.0410  0.3017 -0.2364
 1324TIP3    H225608   5.765   5.309   0.317 -0.4512  1.2116  0.3222
 1325TIP3   OH225609   2.111   5.340   7.750 -0.3151  0.3327 -0.2164
 1325TIP3    H125610   2.118   5.348   7.654 -2.4742  4.0687 -0.2818
 1325TIP3    H225611   2.021   5.311   7.764  0.0282 -0.2991  0.7236
 1326TIP3   OH225612   1.292   6.614   2.331  0.1814  0.2029  0.1770
 1326TIP3    H125613   1.356   6.684   2.338  0.3136  0.1695 -0.5686
 1326TIP3    H225614   1.262   6.618   2.240  0.8176 -1.2389 -0.1345
 1327TIP3   OH225615   3.596   0.461   1.487 -0.0525  0.6528  0.0114
 1327TIP3    H125616   3.616   0.404   1.413 -1.1105  0.7291 -0.3580
 1327TIP3    H225617   3.650   0.539   1.473 -2.0531  1.7836 -2.1220
 1328TIP3   OH225618   5.642   3.124   3.268  0.7174 -0.4559  0.7046
 1328TIP3    H125619   5.668   3.216   3.270  0.1785 -0.2359 -0.9837
 1328TIP3    H225620   5.559   3.121   3.316 -0.3514  0.3604 -0.9990
 1329TIP3   OH225621   1.904   1.152   0.441 -0.2749 -0.7681 -0.3043
 1329TIP3    H125622   1.934   1.241   0.463  0.5514 -1.0530 -0.2697
 1329TIP3    H225623   1.808   1.159   0.441 -0.2146  0.1848 -0.5486
 1330TIP3   OH225624   1.944   6.706   0.886 -0.1286 -0.0260  0.0200
 1330TIP3    H125625   2.038   6.718   0.898  0.2199  0.9791 -2.8971
 1330TIP3    H225626   1.907   6.794   0.893 -0.4702 -0.0466 -1.2638
 1331TIP3   OH225627   1.361   3.844   1.661 -0.4822  0.1881  0.9111
 1331TIP3    H125628   1.454   3.852   1.683 -0.6509 -0.7293  2.0517
 1331TIP3    H225629   1.360   3.836   1.566  0.5512  0.8545  0.8256
 1332TIP3   OH225630   3.142   0.822   1.113  0.2348 -0.1742 -0.4155
 1332TIP3    H125631   3.218   0.802   1.059 -2.6077 -1.9141 -4.3082
 1332TIP3    H225632   3.116   0.737   1.150 -1.4493 -0.2693 -1.7043
 1333TIP3   OH225633   0.720   2.722   1.261  0.2145  0.7717  0.3457
 1333TIP3    H125634   0.776   2.784   1.215 -0.3164 -0.2004 -1.7613
 1333TIP3    H225635   0.717   2.753   1.351  3.2273  1.4653  0.2896
 1334TIP3   OH225636   2.308   4.983   3.195  0.3240  0.0814 -0.2020
 1334TIP3    H125637   2.235   4.924   3.211  1.7072 -1.4927  0.6234
 1334TIP3    H225638   2.288   5.061   3.247 -1.5254  0.3764 -1.2943
 1335TIP3   OH225639   3.783   1.404   0.331  0.1702 -0.0661  0.2966
 1335TIP3    H125640   3.808   1.366   0.415 -0.7175  2.3012  1.7560
 1335TIP3    H225641   3.688   1.396   0.329  0.1765  0.0006 -0.4377
 1336TIP3   OH225642   4.375   5.437   2.481 -0.3205 -0.3898 -0.3500
 1336TIP3    H125643   4.417   5.522   2.494  0.8912 -1.0694  0.3577
 1336TIP3    H225644   4.399   5.412   2.392  1.8282 -1.2847  0.4163
 1337TIP3   OH225645   5.548   3.581   2.973 -0.1214 -0.2000 -0.2771
 1337TIP3    H125646   5.539   3.621   2.886 -1.9303  0.4714  0.1641
 1337TIP3    H225647   5.562   3.654   3.032  3.7906 -0.8103 -0.1817
 1338TIP3   OH225648   5.292   3.766   2.532 -0.0203 -0.0076 -0.0714
 1338TIP3    H125649   5.276   3.760   2.438 -0.2771 -0.4842  0.0026
 1338TIP3    H225650   5.277   3.859   2.552 -0.1804  0.0551 -0.4615
 1339TIP3   OH225651   6.094   1.590   0.986  0.1007  0.1616  0.2711
 1339TIP3    H125652   6.071   1.669   1.035 -1.1574  1.0050 -1.5241
 1339TIP3    H225653   6.015   1.536   0.989  0.6125 -0.5803  0.6309
 1340TIP3   OH225654   1.517   3.390   1.066  0.5412 -0.1419 -0.0829
 1340TIP3    H125655   1.543   3.441   1.143  1.4679  0.7865 -0.9844
 1340TIP3    H225656   1.540   3.445   0.992 -2.7128  0.1082 -1.0425
 1341TIP3   OH225657   3.642   5.966   3.003 -0.5867  0.0514 -0.0713
 1341TIP3    H125658   3.566   5.938   3.054  0.4323 -2.2407  0.3089
 1341TIP3    H225659   3.664   6.052   3.038 -1.4416 -0.3746  1.6305
 1342TIP3   OH225660   3.873   4.235   3.283  0.0970  0.7521 -0.7194
 1342TIP3    H125661   3.790   4.189   3.275 -0.3947  1.4605  0.0973
 1342TIP3    H225662   3.940   4.167   3.267 -0.6101 -0.1612  0.0707
 1343TIP3   OH225663   6.502   1.147   3.392  0.1297 -0.1600  0.1627
 1343TIP3    H125664   6.493   1.149   3.487 -0.6035 -1.0073  0.1314
 1343TIP3    H225665   6.565   1.216   3.371 -0.9965  1.2083  1.1092
 1344TIP3   OH225666   2.910   4.036   7.810  0.1327  0.7131 -0.3108
 1344TIP3    H125667   2.991   4.009   7.767 -0.2121  0.8006 -1.0379
 1344TIP3    H225668   2.882   4.113   7.761  0.0624  1.2015  0.4893
 1345TIP3   OH225669   5.273   2.698   1.333  0.1243 -0.0451 -0.3989
 1345TIP3    H125670   5.224   2.724   1.411 -1.8287 -0.7772 -1.3129
 1345TIP3    H225671   5.250   2.606   1.320  0.1060  0.1550 -2.0194
 1346TIP3   OH225672   5.459   4.206   8.744  0.0824  0.5066  0.5432
 1346TIP3    H125673   5.381   4.161   8.776  0.5505 -0.2228  0.6980
 1346TIP3    H225674   5.443   4.299   8.761 -0.6641  0.3466  0.7396
 1347TIP3   OH225675   1.467   3.640   0.064 -0.2047 -0.3154  0.2336
 1347TIP3    H125676   1.419   3.668  -0.014 -0.6181  0.1664  0.6582
 1347TIP3    H225677   1.456   3.545   0.065  0.9418 -0.4949 -1.0390
 1348TIP3   OH225678   2.326   5.596   2.585  0.0115  0.0812  0.0098
 1348TIP3    H125679   2.409   5.550   2.598 -1.1161 -1.9258  0.6300
 1348TIP3    H225680   2.333   5.674   2.639  2.1272  0.9066 -1.3076
 1349TIP3   OH225681   3.011   6.792   1.073 -0.5470 -0.0884 -0.2962
 1349TIP3    H125682   2.992   6.840   1.153  0.8413 -1.8174  1.1609
 1349TIP3    H225683   3.008   6.700   1.099  0.1614 -0.6974 -2.1788
 1350TIP3   OH225684   0.596   4.906   1.373 -0.3620 -0.4328  0.4375
 1350TIP3    H125685   0.591   4.993   1.414 -1.6539 -1.0748  1.7638
 1350TIP3    H225686   0.673   4.866   1.412  2.0777  1.1043 -2.4115
 1351TIP3   OH225687   6.382   5.490   8.351  0.2694  0.0266 -0.9883
 1351TIP3    H125688   6.337   5.535   8.280 -1.0915  2.5491  1.2825
 1351TIP3    H225689   6.331   5.512   8.429  1.4380 -2.9319  0.7682
 1352TIP3   OH225690   6.458   4.160   2.300 -0.3955 -0.0327  0.2626
 1352TIP3    H125691   6.458   4.081   2.246 -1.9416  0.7446 -0.9473
 1352TIP3    H225692   6.399   4.139   2.373  0.8403 -0.6912  1.1211
 1353TIP3   OH225693   2.213   2.851   7.249 -0.0954  0.1033 -0.4465
 1353TIP3    H125694   2.242   2.922   7.192 -1.7388  0.3070 -1.0724
 1353TIP3    H225695   2.280   2.847   7.318  0.4288  1.7278 -0.8187
 1354TIP3   OH225696   4.272   6.129   1.591 -0.2528 -0.1720  0.2135
 1354TIP3    H125697   4.262   6.213   1.635  0.9552  0.3569 -0.4731
 1354TIP3    H225698   4.339   6.083   1.642  2.7777  1.2922 -2.1053
 1355TIP3   OH225699   0.820   2.077   3.103 -0.5403  0.3065  0.2827
 1355TIP3    H125700   0.777   2.162   3.112 -4.4788 -1.5269  0.8200
 1355TIP3    H225701   0.827   2.063   3.008 -2.6361  0.0627  0.1232
 1356TIP3   OH225702   2.638   1.821   2.294  0.4362  0.3827  0.2264
 1356TIP3    H125703   2.711   1.788   2.347 -0.6779 -2.2628  0.2364
 1356TIP3    H225704   2.664   1.803   2.204 -0.2346 -0.7739  0.2398
 1357TIP3   OH225705   1.439   1.218   7.884 -0.0496  0.0252 -0.1933
 1357TIP3    H125706   1.457   1.124   7.894 -1.3433 -0.2984 -0.6684
 1357TIP3    H225707   1.517   1.253   7.841 -0.2598 -1.1733 -1.6198
 1358TIP3   OH225708   6.651   4.866   2.353 -0.1159 -0.4862 -0.1593
 1358TIP3    H125709   6.641   4.804   2.281  0.7289  0.2961 -0.9796
 1358TIP3    H225710   6.742   4.894   2.348  0.2311 -1.0881  1.7881
 1359TIP3   OH225711   3.989   4.658   3.407  0.8806  0.2952 -0.2200
 1359TIP3    H125712   4.036   4.640   3.326 -0.6463 -0.6504 -0.9623
 1359TIP3    H225713   3.903   4.618   3.394  0.0102  1.5570  1.2296
 1360TIP3   OH225714   2.509   0.470   1.761  0.5191 -0.6609 -0.6495
 1360TIP3    H125715   2.504   0.383   1.721  3.3206 -1.0374 -0.3725
 1360TIP3    H225716   2.484   0.530   1.691  1.9890 -1.5183 -1.9629
 1361TIP3   OH225717   4.671   4.968   0.240  0.8393  0.4950  0.1112
 1361TIP3    H125718   4.739   4.964   0.307  1.6373  2.2127 -0.5295
 1361TIP3    H225719   4.714   5.009   0.165  0.4969 -2.8520 -2.1495
 1362TIP3   OH225720   4.255   6.231   1.101  0.3490  0.1276 -0.0446
 1362TIP3    H125721   4.299   6.147   1.093  0.9394  0.3854  0.3495
 1362TIP3    H225722   4.203   6.224   1.181  0.1006  0.0012 -0.2208
 1363TIP3   OH225723   4.201   2.745   1.591  0.4342 -0.3080  0.5927
 1363TIP3    H125724   4.158   2.686   1.529  1.3869 -1.7033  1.2127
 1363TIP3    H225725   4.295   2.734   1.574  0.6631  0.3023  1.3801
 1364TIP3   OH225726   2.566   0.539   8.466 -0.4018 -0.0769  0.0143
 1364TIP3    H125727   2.606   0.499   8.389 -0.1432 -0.7520  0.4885
 1364TIP3    H225728   2.490   0.585   8.432 -0.3231 -0.4212 -0.6438
 1365TIP3   OH225729   1.913   6.390   2.562  0.4003  0.5230  0.1169
 1365TIP3    H125730   1.842   6.433   2.515  0.2335  0.5068  0.3519
 1365TIP3    H225731   1.973   6.360   2.493  0.7484  1.5275 -0.0305
 1366TIP3   OH225732   1.749   2.952   8.777 -0.1775  0.9151  0.2081
 1366TIP3    H125733   1.747   2.864   8.740  0.8794 -0.2577  2.7344
 1366TIP3    H225734   1.841   2.978   8.773 -0.2995  1.4146  0.5394
 1367TIP3   OH225735   1.991   3.761   0.614 -0.0096 -0.8555 -0.2775
 1367TIP3    H125736   2.024   3.706   0.685  0.8643  0.4170  0.3574
 1367TIP3    H225737   2.042   3.842   0.622 -2.2442  0.6134 -0.2443
 1368TIP3   OH225738   0.508   4.732   0.165  0.4389  1.3550  0.5234
 1368TIP3    H125739   0.520   4.651   0.216 -0.8446  0.3144 -0.7453
 1368TIP3    H225740   0.418   4.726   0.133  1.0224  2.2393 -1.3870
 1369TIP3   OH225741   6.676   3.222   2.168 -0.2737  0.1297 -0.2440
 1369TIP3    H125742   6.641   3.280   2.235  0.1646  0.4347 -0.2717
 1369TIP3    H225743   6.665   3.134   2.203 -3.6837 -0.0474 -1.4359
 1370TIP3   OH225744   4.231   5.136   8.070 -0.0826 -0.2620  0.0813
 1370TIP3    H125745   4.167   5.099   8.009 -0.0874 -0.1509  0.0191
 1370TIP3    H225746   4.211   5.094   8.154 -1.1164  0.7633  0.3799
 1371TIP3   OH225747   4.586   1.847   1.155  0.7639  0.0909 -0.0695
 1371TIP3    H125748   4.564   1.908   1.084  0.0189 -1.0295 -0.8487
 1371TIP3    H225749   4.528   1.872   1.227 -2.5947 -2.0808 -1.7080
 1372TIP3   OH225750   6.219   5.395   1.353  0.3874  0.2062  0.4958
 1372TIP3    H125751   6.149   5.338   1.320  0.5846  1.4920 -2.5680
 1372TIP3    H225752   6.177   5.447   1.421 -1.4198  0.2535 -0.5771
 1373TIP3   OH225753   2.769   6.406   7.884  0.4449 -0.2351 -0.1260
 1373TIP3    H125754   2.745   6.375   7.971  0.2573 -1.4653 -0.5846
 1373TIP3    H225755   2.843   6.464   7.898 -1.2391  1.7615  1.1152
 1374TIP3   OH225756   2.227   2.397   2.775  0.9048  0.0714 -0.6870
 1374TIP3    H125757   2.233   2.480   2.824  0.2481  0.2661 -0.9195
 1374TIP3    H225758   2.185   2.422   2.692  2.4769 -0.1659 -1.5794
 1375TIP3   OH225759   2.474   5.953   8.264  0.0624  0.1032 -0.1695
 1375TIP3    H125760   2.444   5.979   8.351  1.4470 -0.0302  0.3682
 1375TIP3    H225761   2.399   5.906   8.226 -1.1118  1.5147  0.3108
 1376TIP3   OH225762   3.657   3.046   7.582 -0.1848  0.2211  0.0512
 1376TIP3    H125763   3.649   3.046   7.487 -1.3446 -1.5488  0.1006
 1376TIP3    H225764   3.576   3.087   7.612 -1.9683 -3.0775  0.2656
 1377TIP3   OH225765   4.891   2.904   0.869 -0.0996 -0.5742  0.5769
 1377TIP3    H125766   4.959   2.961   0.833  0.0931  0.6719  2.7643
 1377TIP3    H225767   4.939   2.831   0.907  0.1077  0.4718  2.4189
 1378TIP3   OH225768   6.006   6.607   0.932  0.0073 -0.0718 -0.3412
 1378TIP3    H125769   6.089   6.643   0.963  0.2610 -0.2925 -0.7541
 1378TIP3    H225770   6.031   6.537   0.871 -0.4856 -0.6227  0.0815
 1379TIP3   OH225771   6.606   0.997   0.162  0.2398  0.0784  0.3449
 1379TIP3    H125772   6.701   0.993   0.176  0.2355  0.6150  0.5324
 1379TIP3    H225773   6.582   0.907   0.137  0.7246 -0.1655  0.7338
 1380TIP3   OH225774   1.070   6.853   7.137 -0.0288  0.1046  0.4167
 1380TIP3    H125775   1.129   6.920   7.171  1.0706 -0.6488  0.0338
 1380TIP3    H225776   1.028   6.817   7.215  1.1597 -0.3942  0.8478
 1381TIP3   OH225777   3.203   4.624   8.268 -0.1308 -0.3029  0.4909
 1381TIP3    H125778   3.291   4.641   8.235 -0.4178  0.5875  0.1700
 1381TIP3    H225779   3.190   4.691   8.336 -0.0430 -1.2959  1.5260
 1382TIP3   OH225780   5.285   0.179   0.427  0.0163 -0.2951 -0.4592
 1382TIP3    H125781   5.290   0.175   0.523 -2.2727 -0.3808 -0.2931
 1382TIP3    H225782   5.244   0.097   0.401  0.5466 -0.2394 -1.5336
 1383TIP3   OH225783   1.402   1.509   0.339  0.0444  0.0166 -0.2354
 1383TIP3    H125784   1.363   1.554   0.264 -1.5561  0.1019  0.6082
 1383TIP3    H225785   1.331   1.455   0.374  0.9641 -0.5595  0.8093
 1384TIP3   OH225786   0.999   5.601   8.058 -0.6582  0.3349  0.0377
 1384TIP3    H125787   1.032   5.568   7.974 -1.7834  1.2980 -0.8337
 1384TIP3    H225788   0.983   5.523   8.110  1.2952 -0.2336 -0.1266
 1385TIP3   OH225789   3.729   5.034   3.426  0.1009 -0.7792  0.2307
 1385TIP3    H125790   3.687   4.997   3.348 -1.3874  2.4125 -0.6626
 1385TIP3    H225791   3.823   5.021   3.411  0.0480  1.4910 -3.2829
 1386TIP3   OH225792   3.280   4.938   1.427 -0.4469 -0.0095  0.2755
 1386TIP3    H125793   3.340   4.885   1.376 -1.0916  1.7499 -2.5487
 1386TIP3    H225794   3.231   4.989   1.362 -3.6319  0.0878  2.5025
 1387TIP3   OH225795   1.149   1.874   2.212 -0.3060  0.1192 -0.1592
 1387TIP3    H125796   1.169   1.967   2.212  0.6011 -0.0673 -0.3487
 1387TIP3    H225797   1.074   1.866   2.154 -0.9005  0.8265  0.4843
 1388TIP3   OH225798   3.531   2.892   3.180 -0.0686 -0.1876 -0.0675
 1388TIP3    H125799   3.614   2.871   3.222  0.5191 -1.2039 -1.6283
 1388TIP3    H225800   3.493   2.806   3.159 -1.0531  0.2770 -0.2136
 1389TIP3   OH225801   5.518   2.723   8.457  0.1294 -0.5738  0.0410
 1389TIP3    H125802   5.582   2.716   8.386  0.4568 -1.5664  0.4165
 1389TIP3    H225803   5.529   2.812   8.491 -0.0256 -0.0892 -1.1363
 1390TIP3   OH225804   2.530   0.226   0.087  0.7976 -0.1292 -0.1444
 1390TIP3    H125805   2.577   0.309   0.081  0.0009  0.4210  0.8485
 1390TIP3    H225806   2.500   0.209  -0.002  1.3786  0.3942 -0.4515
 1391TIP3   OH225807   2.814   5.471   0.096 -0.1590  0.7618 -0.0195
 1391TIP3    H125808   2.847   5.548   0.142  0.0207 -0.1602  1.4407
 1391TIP3    H225809   2.775   5.507   0.015  1.7563  2.1634 -0.3973
 1392TIP3   OH225810   4.357   4.592   0.704  0.5286 -0.2708 -0.2335
 1392TIP3    H125811   4.421   4.563   0.769  0.9338  0.6904 -0.1806
 1392TIP3    H225812   4.375   4.538   0.627 -0.4051 -1.9074  0.6290
 1393TIP3   OH225813   1.720   4.950   1.392  0.0234 -0.0420  0.0708
 1393TIP3    H125814   1.689   5.034   1.427  2.5999  0.7978  0.5346
 1393TIP3    H225815   1.660   4.885   1.429 -0.0841  1.2895  2.3887
 1394TIP3   OH225816   4.091   0.256   8.406 -0.3452 -0.6984 -0.0210
 1394TIP3    H125817   4.028   0.214   8.464 -0.3599 -1.3805 -0.5195
 1394TIP3    H225818   4.051   0.340   8.384 -0.7546 -0.8239  0.2231
 1395TIP3   OH225819   5.866   0.548   1.610  0.0541  0.5615 -0.3651
 1395TIP3    H125820   5.792   0.577   1.557 -1.6234  0.3946  1.7512
 1395TIP3    H225821   5.827   0.511   1.689  2.2482 -2.6452 -0.5559
 1396TIP3   OH225822   2.581   6.264   1.321  0.4671  0.1195  0.2194
 1396TIP3    H125823   2.567   6.175   1.352 -0.3079  0.2490  0.2528
 1396TIP3    H225824   2.504   6.313   1.350  1.2285  0.9855  0.8683
 1397TIP3   OH225825   6.671   5.551   8.081  0.1974  0.1515  0.1571
 1397TIP3    H125826   6.672   5.455   8.080 -1.7246  0.0895 -1.4726
 1397TIP3    H225827   6.641   5.573   8.169  1.4194 -0.6847  0.8212
 1398TIP3   OH225828   0.727   1.466   0.957 -0.4324  0.1040  0.0304
 1398TIP3    H125829   0.745   1.557   0.936 -1.4756 -0.1036 -1.9653
 1398TIP3    H225830   0.663   1.438   0.892  1.9667 -2.8738 -1.3139
 1399TIP3   OH225831   2.554   1.893   8.340 -0.3500 -0.1366  0.2381
 1399TIP3    H125832   2.618   1.949   8.296 -1.5296  0.8174 -0.3202
 1399TIP3    H225833   2.576   1.805   8.311  0.9016  0.1200  0.3156
 1400TIP3   OH225834   5.386   4.348   2.036  0.2312 -0.0994  0.1573
 1400TIP3    H125835   5.335   4.275   2.000 -0.1611  0.1240  0.2573
 1400TIP3    H225836   5.412   4.400   1.960 -0.1473  0.0827  0.1543
 1401TIP3   OH225837   6.105   4.751   3.239  0.0505 -0.3121  0.3081
 1401TIP3    H125838   6.160   4.674   3.250 -0.2742 -0.4271  1.1371
 1401TIP3    H225839   6.165   4.825   3.250  0.1980 -0.4400  0.3699
 1402TIP3   OH225840   6.307   4.191   3.539 -0.2566  0.1732  0.5704
 1402TIP3    H125841   6.387   4.227   3.499 -0.6697  1.7176  1.0788
 1402TIP3    H225842   6.319   4.206   3.632 -1.2699  0.6786  0.6238
 1403TIP3   OH225843   2.837   4.007   2.458  0.3970  0.0743 -0.0191
 1403TIP3    H125844   2.801   3.919   2.447 -0.2622  0.6073 -3.1109
 1403TIP3    H225845   2.931   3.993   2.468  0.4721 -1.0146 -1.7816
 1404TIP3   OH225846   4.643   3.687   1.780  0.1610 -0.1721 -0.2916
 1404TIP3    H125847   4.617   3.609   1.829 -0.9139  0.5216  0.2673
 1404TIP3    H225848   4.688   3.652   1.703 -0.5311 -1.3601 -0.1843
 1405TIP3   OH225849   4.445   4.723   1.127 -0.1704  0.1375 -0.7576
 1405TIP3    H125850   4.416   4.811   1.101  1.9874  1.8998  2.2205
 1405TIP3    H225851   4.533   4.715   1.090 -0.8747 -1.4665 -2.2219
 1406TIP3   OH225852   0.465   3.964   8.659  0.1735  0.7560  0.4962
 1406TIP3    H125853   0.419   3.954   8.743 -0.2487 -3.0441 -0.0088
 1406TIP3    H225854   0.407   4.020   8.607 -1.5832 -0.0470  1.4756
 1407TIP3   OH225855   0.836   1.122   2.760  0.2062  0.2086 -0.1190
 1407TIP3    H125856   0.766   1.119   2.694 -0.9218  1.7349  0.9434
 1407TIP3    H225857   0.914   1.148   2.711 -0.9028  2.7522 -0.6889
 1408TIP3   OH225858   0.796   6.263   0.517 -0.2584  0.3156 -0.0234
 1408TIP3    H125859   0.726   6.306   0.566  1.5562 -0.8921  4.1105
 1408TIP3    H225860   0.841   6.334   0.472 -1.7286  1.6563  0.5309
 1409TIP3   OH225861   5.377   6.053   1.345  0.0219 -0.4063 -0.3975
 1409TIP3    H125862   5.458   6.025   1.304  0.2744  0.3443 -0.4286
 1409TIP3    H225863   5.308   6.029   1.282  0.2996 -0.2705 -0.7556
 1410TIP3   OH225864   3.348   3.061   1.979  0.1634 -0.5500 -0.3547
 1410TIP3    H125865   3.259   3.027   1.987  0.7716 -1.9702  0.9189
 1410TIP3    H225866   3.358   3.080   1.886 -1.6552  0.2657 -0.4427
 1411TIP3   OH225867   6.500   6.807   7.995 -0.0931  0.0605 -0.6302
 1411TIP3    H125868   6.574   6.757   7.960  1.1025 -0.0114  1.8142
 1411TIP3    H225869   6.475   6.759   8.074 -0.5993  1.9055  0.3631
 1412TIP3   OH225870   6.052   5.898   1.346  0.0513 -0.0425 -0.1627
 1412TIP3    H125871   6.073   5.840   1.273 -1.2538 -0.2639 -0.3849
 1412TIP3    H225872   6.136   5.933   1.373  1.0241 -2.6614  0.5201
 1413TIP3   OH225873   2.324   5.815   1.766  0.2938 -0.0864  0.1064
 1413TIP3    H125874   2.391   5.767   1.815  1.0032  1.6876  1.0016
 1413TIP3    H225875   2.353   5.906   1.771 -2.4628  0.8309  0.9970
 1414TIP3   OH225876   6.015   1.986   8.282  0.0558  0.0071  0.6618
 1414TIP3    H125877   5.985   2.061   8.332  0.7452  0.4760  0.3923
 1414TIP3    H225878   6.101   2.012   8.248 -1.0845  0.3997 -2.2155
 1415TIP3   OH225879   2.104   4.619   3.489 -0.0451 -0.0899  0.1805
 1415TIP3    H125880   2.022   4.570   3.482 -0.4350  0.4386  0.9480
 1415TIP3    H225881   2.172   4.552   3.482 -0.5407 -0.5757 -0.0873
 1416TIP3   OH225882   6.120   3.735   0.730  0.4278 -0.1505  0.1161
 1416TIP3    H125883   6.053   3.674   0.697 -0.2604  0.4618  0.3636
 1416TIP3    H225884   6.083   3.821   0.714  0.6714  0.1803  1.2847
 1417TIP3   OH225885   4.451   6.407   2.294  0.2202 -0.2438  0.1865
 1417TIP3    H125886   4.510   6.483   2.289  0.8185 -0.7455 -0.7359
 1417TIP3    H225887   4.478   6.352   2.221 -1.3115 -0.5723 -0.1538
 1418TIP3   OH225888   2.219   3.465   0.880 -0.0871 -0.4991 -0.0750
 1418TIP3    H125889   2.212   3.417   0.963  0.6777 -1.4589 -0.5310
 1418TIP3    H225890   2.307   3.503   0.882 -0.6730  0.8916  0.2620
 1419TIP3   OH225891   6.099   1.443   1.262 -0.2438 -0.1579 -0.2654
 1419TIP3    H125892   6.125   1.535   1.257  1.4969 -0.5485  0.7842
 1419TIP3    H225893   6.151   1.400   1.195 -0.2720 -0.5225 -0.0546
 1420TIP3   OH225894   4.307   3.583   8.281 -0.2800 -0.0385 -0.2790
 1420TIP3    H125895   4.221   3.546   8.260 -0.2205 -0.9941  1.0429
 1420TIP3    H225896   4.351   3.589   8.197 -1.4847  0.0707 -0.9313
 1421TIP3   OH225897   6.011   1.781   2.303 -0.6495  0.2687 -0.1852
 1421TIP3    H125898   5.981   1.785   2.212 -2.1116 -1.6474  0.1504
 1421TIP3    H225899   5.946   1.831   2.352 -1.6041 -1.2377  0.1451
 1422TIP3   OH225900   0.632   1.329   0.574  0.0735  0.4413  0.0939
 1422TIP3    H125901   0.552   1.279   0.556 -0.3226  1.4805 -1.1199
 1422TIP3    H225902   0.625   1.407   0.519  1.6718  0.8197  0.3815
 1423TIP3   OH225903   3.307   1.294   2.825 -0.1499  0.3753 -0.0446
 1423TIP3    H125904   3.377   1.243   2.783 -0.2848  0.5615 -0.4963
 1423TIP3    H225905   3.288   1.245   2.905 -0.8605 -0.7688 -0.8792
 1424TIP3   OH225906   2.688   6.479   7.631 -0.0178 -0.1549 -0.0009
 1424TIP3    H125907   2.712   6.439   7.715 -4.2935 -1.3123  0.9590
 1424TIP3    H225908   2.675   6.572   7.652 -3.6187 -0.8292  1.5643
 1425TIP3   OH225909   0.127   2.063   2.880  0.7218 -0.4016  0.6465
 1425TIP3    H125910   0.148   1.988   2.824  0.2884  0.0451 -0.1390
 1425TIP3    H225911   0.191   2.059   2.951  2.1643 -0.2389 -0.5926
 1426TIP3   OH225912   5.090   2.760   7.952  0.0659  0.0024  0.1603
 1426TIP3    H125913   5.143   2.705   7.894  0.0548 -1.8724  1.8159
 1426TIP3    H225914   5.154   2.811   8.001  0.0689  1.7619 -1.5697
 1427TIP3   OH225915   0.132   0.126   0.543  0.5023 -0.7005  0.1075
 1427TIP3    H125916   0.140   0.154   0.452 -0.3452 -0.6791  0.0373
 1427TIP3    H225917   0.223   0.114   0.572  0.7758 -0.7938 -0.7624
 1428TIP3   OH225918   1.030   6.697   1.163  0.2515  0.7755  0.0742
 1428TIP3    H125919   1.090   6.713   1.237  1.0682 -1.1884 -0.0829
 1428TIP3    H225920   0.954   6.654   1.203 -0.3921  1.8693  0.0615
 1429TIP3   OH225921   5.433   1.440   1.472 -0.4488  0.4545  0.6954
 1429TIP3    H125922   5.373   1.370   1.499 -1.6226  1.4911  0.8841
 1429TIP3    H225923   5.380   1.496   1.414  1.0149  0.1793 -1.0020
 1430TIP3   OH225924   5.379   4.224   1.540 -0.0618  0.0964 -0.0410
 1430TIP3    H125925   5.426   4.277   1.604  1.1062  0.6333 -1.3180
 1430TIP3    H225926   5.336   4.287   1.483 -1.0557 -0.3805  0.1545
 1431TIP3   OH225927   2.558   1.084   2.888 -0.5276  0.0627 -0.0983
 1431TIP3    H125928   2.559   1.062   2.795 -3.2013 -2.1287  0.2755
 1431TIP3    H225929   2.466   1.084   2.912  0.1382 -0.9353  2.8878
 1432TIP3   OH225930   2.124   4.481   3.052  0.1045 -0.5711  0.5624
 1432TIP3    H125931   2.088   4.400   3.016 -0.8969  0.6021 -1.2450
 1432TIP3    H225932   2.046   4.531   3.080  0.5121  0.7151 -0.5130
 1433TIP3   OH225933   0.579   4.415   1.327 -0.0922  0.1963 -0.2514
 1433TIP3    H125934   0.579   4.508   1.302 -1.1644  0.3521  0.2756
 1433TIP3    H225935   0.604   4.369   1.247  0.0351  0.9110 -0.6348
 1434TIP3   OH225936   3.003   5.791   1.468 -0.6353 -0.4132 -0.0558
 1434TIP3    H125937   2.977   5.868   1.518  2.8017  0.6230  0.4351
 1434TIP3    H225938   3.021   5.725   1.535 -1.1796 -0.8129 -0.3042
 1435TIP3   OH225939   3.475   0.313   0.996  0.2729 -0.3491  0.1030
 1435TIP3    H125940   3.459   0.356   0.912  0.4174  2.1268  1.2464
 1435TIP3    H225941   3.562   0.343   1.022 -1.1649  1.9339  2.7317
 1436TIP3   OH225942   2.498   5.693   1.985  0.2592  0.4685 -0.6587
 1436TIP3    H125943   2.583   5.708   2.027  1.2078 -0.0079 -2.3054
 1436TIP3    H225944   2.493   5.598   1.974 -1.3483  0.2916  1.0404
 1437TIP3   OH225945   4.440   2.454   7.625 -0.3927  0.4342  0.1258
 1437TIP3    H125946   4.410   2.539   7.592 -1.3848 -0.1893 -0.6091
 1437TIP3    H225947   4.520   2.436   7.576 -1.1790  0.0992 -1.0666
 1438TIP3   OH225948   5.821   4.953   0.074 -0.0148  0.1968 -0.0251
 1438TIP3    H125949   5.772   4.874   0.051  0.2138  0.0234  0.0820
 1438TIP3    H225950   5.837   4.945   0.168  0.1378  0.2971 -0.0422
 1439TIP3   OH225951   2.229   0.522   1.775  0.0717 -0.0197 -0.3373
 1439TIP3    H125952   2.246   0.432   1.801 -0.3328 -0.3877 -1.2926
 1439TIP3    H225953   2.315   0.563   1.770  0.1424  0.2098  1.9830
 1440TIP3   OH225954   2.159   1.717   1.809 -0.4324 -0.0434  0.1104
 1440TIP3    H125955   2.108   1.636   1.814 -0.0793 -0.2716  0.1038
 1440TIP3    H225956   2.213   1.716   1.888  1.0685 -0.8513 -0.8733
 1441TIP3   OH225957   3.182   3.006   8.769  0.0099 -0.3199 -0.2303
 1441TIP3    H125958   3.203   2.917   8.742  0.4688 -0.7272  1.3751
 1441TIP3    H225959   3.261   3.038   8.812 -1.2246 -0.3930  2.2408
 1442TIP3   OH225960   4.837   1.875   3.488  0.1584  0.3773 -0.1067
 1442TIP3    H125961   4.744   1.852   3.483  0.1100  0.6383 -0.4791
 1442TIP3    H225962   4.856   1.880   3.582  0.0287 -0.5932 -0.0244
 1443TIP3   OH225963   3.548   4.898   2.763  0.2445 -0.3743  0.3529
 1443TIP3    H125964   3.555   4.985   2.724 -1.4079  0.1516  1.1380
 1443TIP3    H225965   3.621   4.849   2.725  0.6913  1.0841 -0.7761
 1444TIP3   OH225966   3.689   1.952   2.138 -0.5146 -0.1534 -0.1810
 1444TIP3    H125967   3.774   1.988   2.162 -1.2814  0.4874  1.7317
 1444TIP3    H225968   3.627   2.024   2.155 -1.3758 -0.2904 -2.3972
 1445TIP3   OH225969   4.958   4.879   2.330 -0.2232 -0.0774  0.7636
 1445TIP3    H125970   4.953   4.857   2.423 -1.3334 -0.9840  0.5047
 1445TIP3    H225971   4.911   4.962   2.322 -1.4066 -0.7218  0.8083
 1446TIP3   OH225972   3.270   0.588   8.253 -0.0504  0.4547  0.8868
 1446TIP3    H125973   3.215   0.659   8.285 -0.5902  0.6229 -0.3379
 1446TIP3    H225974   3.222   0.553   8.177  1.5643  0.6927 -0.3115
 1447TIP3   OH225975   1.474   5.684   8.278  0.3478 -0.1235 -0.2388
 1447TIP3    H125976   1.522   5.692   8.195  0.8293  1.3078  0.1424
 1447TIP3    H225977   1.538   5.648   8.339  0.1424 -0.7000 -0.3588
 1448TIP3   OH225978   2.716   3.299   0.566 -0.9701 -0.5741  0.0187
 1448TIP3    H125979   2.705   3.383   0.611  2.0695 -0.5433  0.9014
 1448TIP3    H225980   2.691   3.234   0.632  0.8501 -0.4334  0.9136
 1449TIP3   OH225981   1.907   4.709   7.698 -0.0502  0.1372  0.6464
 1449TIP3    H125982   1.942   4.698   7.609 -1.1197  1.1427  0.0737
 1449TIP3    H225983   1.819   4.671   7.693 -0.0724  0.0939  1.3138
 1450TIP3   OH225984   3.697   6.747   7.994  0.3651  0.5493 -0.0604
 1450TIP3    H125985   3.623   6.698   7.958  0.2145  0.5067  0.3080
 1450TIP3    H225986   3.673   6.765   8.084  1.7345 -1.3728  0.7554
 1451TIP3   OH225987   2.204   4.980   1.805 -0.0662  0.3340  0.1693
 1451TIP3    H125988   2.201   4.999   1.711  1.1162  1.6561  0.3442
 1451TIP3    H225989   2.230   4.888   1.811 -0.1424  0.2436 -0.8074
 1452TIP3   OH225990   4.305   3.544   0.304 -0.2296  0.0938  1.1600
 1452TIP3    H125991   4.275   3.594   0.229  2.2165  0.7148  0.5044
 1452TIP3    H225992   4.249   3.466   0.306 -0.5387  0.2075 -1.1364
 1453TIP3   OH225993   4.199   6.792   0.581 -0.3896  0.4837 -0.0310
 1453TIP3    H125994   4.275   6.764   0.633  0.8065  2.7149 -0.4365
 1453TIP3    H225995   4.135   6.822   0.647 -0.1795  0.3052  0.2569
 1454TIP3   OH225996   0.096   2.554   1.229  0.2838  0.2216  0.1177
 1454TIP3    H125997   0.164   2.583   1.290 -0.9152 -1.5866  2.5222
 1454TIP3    H225998   0.015   2.590   1.266 -0.3253  0.4969 -1.4331
 1455TIP3   OH225999   0.427   1.416   2.055 -0.1846  0.5143 -0.0766
 1455TIP3    H126000   0.479   1.336   2.046  0.1534  0.7579 -0.3025
 1455TIP3    H226001   0.354   1.391   2.112  2.0774  1.0931  3.3748
 1456TIP3   OH226002   4.873   0.256   0.443 -0.2965  0.1422 -0.8899
 1456TIP3    H126003   4.954   0.300   0.419  0.1869  0.1103  0.5729
 1456TIP3    H226004   4.896   0.163   0.447 -0.0028  0.2454  0.8421
 1457TIP3   OH226005   5.632   0.967   0.918  0.2789 -0.4716 -0.2794
 1457TIP3    H126006   5.659   1.026   0.847  0.9031  1.3780  1.3853
 1457TIP3    H226007   5.556   1.010   0.957  0.1037 -1.3196  0.3433
 1458TIP3   OH226008   1.927   6.077   0.056 -0.0521  1.1522  0.4742
 1458TIP3    H126009   1.929   5.990   0.096 -2.1800  1.6169  1.7090
 1458TIP3    H226010   2.019   6.102   0.049  0.7072 -1.6456 -1.0154
 1459TIP3   OH226011   2.116   0.547   1.226 -0.1932 -0.1669 -0.2382
 1459TIP3    H126012   2.129   0.531   1.133  1.2765 -0.5638 -0.0028
 1459TIP3    H226013   2.049   0.484   1.253 -0.5030 -0.1636 -0.9998
 1460TIP3   OH226014   1.692   2.913   0.683 -0.0315 -0.4006  0.0820
 1460TIP3    H126015   1.721   2.950   0.600  2.3016 -1.8107  0.1774
 1460TIP3    H226016   1.596   2.918   0.680  0.0818  1.9971 -1.5073
 1461TIP3   OH226017   3.516   2.051   7.201 -0.3399  0.3281  0.2294
 1461TIP3    H126018   3.487   2.142   7.191 -1.1835  0.1160  0.6805
 1461TIP3    H226019   3.583   2.054   7.269  0.2038  0.7164 -0.3072
 1462TIP3   OH226020   1.927   2.598   8.076 -0.7853 -0.3995  0.2268
 1462TIP3    H126021   1.948   2.566   7.989 -2.7100  0.1626 -0.4801
 1462TIP3    H226022   1.883   2.524   8.119  0.2287 -0.7026  0.7729
 1463TIP3   OH226023   3.356   6.704   1.665  0.0169 -1.0321 -0.4862
 1463TIP3    H126024   3.375   6.617   1.630 -0.4878 -0.9418 -1.0044
 1463TIP3    H226025   3.368   6.696   1.760  2.0551 -1.1250 -0.7035
 1464TIP3   OH226026   4.631   3.558   2.855 -0.1464  0.1454 -0.1249
 1464TIP3    H126027   4.592   3.641   2.828 -0.9795 -0.0775  0.3807
 1464TIP3    H226028   4.564   3.516   2.908  0.4336 -0.6637 -0.0218
 1465TIP3   OH226029   1.476   0.824   0.103 -0.2928 -0.2005 -0.6693
 1465TIP3    H126030   1.391   0.868   0.094 -0.1134 -0.0604 -1.7816
 1465TIP3    H226031   1.479   0.797   0.195 -1.3326  0.2186 -0.4970
 1466TIP3   OH226032   0.133   4.157   1.915  0.3075 -0.5316 -0.3233
 1466TIP3    H126033   0.076   4.233   1.905  0.0488 -0.6963 -0.1316
 1466TIP3    H226034   0.172   4.144   1.828  0.4576 -0.1017 -0.3204
 1467TIP3   OH226035   3.635   4.298   2.735 -0.1457  0.1799  0.6555
 1467TIP3    H126036   3.692   4.364   2.698  1.0684 -0.4915  1.2772
 1467TIP3    H226037   3.638   4.225   2.672 -1.4381  0.6668 -0.0038
 1468TIP3   OH226038   0.558   5.921   1.922  0.4805  0.1256 -0.1450
 1468TIP3    H126039   0.580   5.843   1.973  4.1839  0.7239 -0.5947
 1468TIP3    H226040   0.635   5.938   1.869  0.2035  4.5675  0.4831
 1469TIP3   OH226041   4.625   2.383   0.272 -0.8733  0.1599  0.5263
 1469TIP3    H126042   4.664   2.305   0.232 -1.4874  1.2362 -2.3594
 1469TIP3    H226043   4.697   2.426   0.318  0.4047 -0.0344 -1.2281
 1470TIP3   OH226044   0.303   6.120   2.379 -0.0524 -0.0696 -0.9878
 1470TIP3    H126045   0.241   6.057   2.415  1.5847 -0.5707  1.1196
 1470TIP3    H226046   0.328   6.083   2.294 -0.0368 -1.6595 -0.3246
 1471TIP3   OH226047   5.885   6.723   3.499  0.1010 -0.4634 -0.5605
 1471TIP3    H126048   5.967   6.674   3.512  0.9266  0.8408 -0.6316
 1471TIP3    H226049   5.868   6.716   3.405 -0.7540 -2.0691 -0.3029
 1472TIP3   OH226050   1.629   3.951   7.910 -0.4152 -0.2378  0.3571
 1472TIP3    H126051   1.634   4.014   7.982 -0.0216 -0.5678  0.6221
 1472TIP3    H226052   1.545   3.907   7.922 -0.5458  0.0115  0.3595
 1473TIP3   OH226053   4.756   3.970   8.684 -0.4623  0.0626  0.5989
 1473TIP3    H126054   4.694   3.924   8.629 -0.4088  0.9395 -0.2180
 1473TIP3    H226055   4.703   4.009   8.753 -0.7935  0.6219  0.0328
 1474TIP3   OH226056   2.508   5.667   8.592 -0.3868 -0.3790 -0.0788
 1474TIP3    H126057   2.597   5.637   8.611 -0.7079 -0.1485  2.1040
 1474TIP3    H226058   2.475   5.607   8.525  0.8145 -1.5442  0.3340
 1475TIP3   OH226059   3.647   2.630   8.685  0.5423  0.0708 -0.2806
 1475TIP3    H126060   3.652   2.646   8.591  1.0888 -1.8851 -0.6296
 1475TIP3    H226061   3.735   2.651   8.717  0.9346 -1.1237 -0.5490
 1476TIP3   OH226062   0.344   4.922   2.206 -0.1831  0.0876 -0.0620
 1476TIP3    H126063   0.308   4.834   2.208  1.4109 -0.5922  1.0984
 1476TIP3    H226064   0.372   4.935   2.115 -0.7170 -0.4633 -0.3081
 1477TIP3   OH226065   6.019   6.097   0.482 -0.4036 -0.7074 -0.0958
 1477TIP3    H126066   6.011   6.044   0.561 -0.2716 -2.0173 -0.9126
 1477TIP3    H226067   6.108   6.132   0.485 -0.1107 -1.4344 -0.0534
 1478TIP3   OH226068   2.903   1.743   3.097 -0.2622  0.2585  0.0670
 1478TIP3    H126069   2.940   1.760   3.010 -1.7728  1.8625 -0.3284
 1478TIP3    H226070   2.830   1.684   3.080  2.3904 -3.6097  0.9416
 1479TIP3   OH226071   1.385   2.786   8.243  0.0736 -0.2207 -0.5570
 1479TIP3    H126072   1.408   2.750   8.329 -0.6402  1.3827  0.3462
 1479TIP3    H226073   1.432   2.730   8.181  0.2395 -1.7076  0.8349
 1480TIP3   OH226074   2.711   0.803   0.652 -0.4845 -0.0510  0.3124
 1480TIP3    H126075   2.720   0.712   0.679  1.9512 -0.1273 -0.4901
 1480TIP3    H226076   2.632   0.805   0.598 -0.5162 -1.7137  0.2457
 1481TIP3   OH226077   4.836   4.845   0.426 -0.4958 -0.0326  0.5355
 1481TIP3    H126078   4.916   4.897   0.429 -0.5348  0.0191  0.7113
 1481TIP3    H226079   4.860   4.767   0.375 -0.8897  0.8908 -1.1261
 1482TIP3   OH226080   6.770   5.383   0.188 -0.8668 -0.3438 -0.0132
 1482TIP3    H126081   6.846   5.442   0.190 -2.3537  1.6366  0.1404
 1482TIP3    H226082   6.804   5.300   0.222  1.2243  0.4697  0.0535
 1483TIP3   OH226083   1.042   0.796   8.076 -0.4094  0.2839 -0.3381
 1483TIP3    H126084   1.097   0.737   8.127 -2.5190 -0.4576  1.2215
 1483TIP3    H226085   1.041   0.759   7.988  0.2704 -0.5711  0.0035
 1484TIP3   OH226086   5.936   2.027   2.804  0.0177  0.2308 -0.1179
 1484TIP3    H126087   5.986   2.054   2.727  0.9265 -0.5501  0.1914
 1484TIP3    H226088   5.928   1.932   2.795  3.1642 -0.4269  2.4773
 1485TIP3   OH226089   6.201   4.820   2.880  0.0324 -0.0706 -0.3928
 1485TIP3    H126090   6.132   4.820   2.813 -0.8409  1.0114  0.4688
 1485TIP3    H226091   6.188   4.740   2.929  1.0948 -1.2202 -1.8885
 1486TIP3   OH226092   4.270   5.333   0.135  0.3776 -0.1392 -0.2420
 1486TIP3    H126093   4.336   5.367   0.195  0.7398  0.1182 -0.7742
 1486TIP3    H226094   4.242   5.409   0.084 -1.3275  0.0282  0.8850
 1487TIP3   OH226095   2.812   3.716   0.808  0.2279  0.3104 -0.2822
 1487TIP3    H126096   2.876   3.735   0.740  0.4557  1.7557  0.2860
 1487TIP3    H226097   2.793   3.623   0.799  1.6275  0.0847 -1.1258
 1488TIP3   OH226098   2.237   2.657   7.973 -0.2846  0.5783  0.1870
 1488TIP3    H126099   2.215   2.573   8.013 -1.2381 -0.1529 -1.7318
 1488TIP3    H226100   2.213   2.722   8.039 -0.0680 -0.6109  1.4904
 1489TIP3   OH226101   5.491   2.846   1.838  0.1320 -0.9648  0.3402
 1489TIP3    H126102   5.528   2.784   1.901  1.3010 -0.0740  0.5696
 1489TIP3    H226103   5.466   2.922   1.890 -2.3035 -1.5963  0.2219
 1490TIP3   OH226104   2.469   5.516   3.431  0.4678 -0.9031  0.0473
 1490TIP3    H126105   2.481   5.445   3.368 -0.3118  0.1516 -1.3474
 1490TIP3    H226106   2.494   5.478   3.515  1.5719 -2.3574 -0.8809
 1491TIP3   OH226107   3.155   4.531   7.239 -0.0719 -0.5576 -0.0927
 1491TIP3    H126108   3.213   4.568   7.306  0.1930  1.9886 -1.6039
 1491TIP3    H226109   3.211   4.475   7.186  0.4614  0.0186 -0.1385
 1492TIP3   OH226110   5.191   2.678   0.678  0.3195 -0.0402  0.2330
 1492TIP3    H126111   5.196   2.598   0.730 -1.5851 -1.2065 -1.2240
 1492TIP3    H226112   5.279   2.690   0.643  0.9752 -0.6843  1.5877
 1493TIP3   OH226113   3.226   5.104   2.964 -0.5091  0.0751  0.4088
 1493TIP3    H126114   3.143   5.151   2.968 -1.4147 -1.2092 -1.5088
 1493TIP3    H226115   3.270   5.139   2.887  0.1096 -0.1852  0.6399
 1494TIP3   OH226116   1.531   6.820   7.610 -1.0392 -0.0675  0.2779
 1494TIP3    H126117   1.457   6.837   7.552 -1.6231 -1.1629  0.6646
 1494TIP3    H226118   1.502   6.747   7.665  0.5901 -1.0649 -0.0979
 1495TIP3   OH226119   5.834   2.007   0.328 -0.1420 -0.4384  0.3280
 1495TIP3    H126120   5.863   1.989   0.239  0.2887 -0.6998  0.5174
 1495TIP3    H226121   5.836   1.921   0.372 -1.5485 -0.5342  0.2525
 1496TIP3   OH226122   2.434   3.273   0.958  0.0602 -0.2779 -0.4401
 1496TIP3    H126123   2.514   3.325   0.949 -0.8964  1.1865 -0.9335
 1496TIP3    H226124   2.445   3.226   1.041  2.0373 -1.2541 -1.1954
 1497TIP3   OH226125   3.877   4.442   0.241 -0.4209  0.7215  0.7845
 1497TIP3    H126126   3.907   4.528   0.270 -1.8291  1.8393 -0.8734
 1497TIP3    H226127   3.864   4.392   0.322  2.6604  1.2086  1.6936
 1498TIP3   OH226128   2.950   5.490   0.733 -0.0547  0.0242 -0.3500
 1498TIP3    H126129   2.994   5.474   0.817 -0.0714  0.3346 -0.2801
 1498TIP3    H226130   3.008   5.452   0.668  1.2644  2.0184 -0.4434
 1499TIP3   OH226131   2.215   6.399   0.476 -0.1781  0.2211  0.1209
 1499TIP3    H126132   2.287   6.432   0.422 -0.9363  1.5786 -0.1202
 1499TIP3    H226133   2.212   6.305   0.459  2.8112 -0.2810  1.6879
 1500TIP3   OH226134   1.669   3.512   1.883  0.2888 -0.2971  0.5636
 1500TIP3    H126135   1.602   3.578   1.901  1.8635  1.6322 -0.2541
 1500TIP3    H226136   1.633   3.461   1.810 -0.1550  0.9421 -0.1162
 1501TIP3   OH226137   6.217   3.221   1.430 -0.2187 -0.2585 -0.3131
 1501TIP3    H126138   6.176   3.213   1.344 -1.1475  0.2583  0.0618
 1501TIP3    H226139   6.158   3.174   1.490 -0.7498  1.1707  0.3631
 1502TIP3   OH226140   5.039   1.051   1.784 -0.1367 -0.8269 -0.3069
 1502TIP3    H126141   4.997   1.000   1.854  0.4623 -1.3850 -0.3408
 1502TIP3    H226142   4.977   1.046   1.711 -1.1690  0.4624  0.4163
 1503TIP3   OH226143   4.410   3.847   8.222 -1.3513 -0.0082 -0.0926
 1503TIP3    H126144   4.405   3.850   8.126 -1.1718 -2.3920 -0.2323
 1503TIP3    H226145   4.355   3.773   8.247  0.8817 -1.2986  1.3773
 1504TIP3   OH226146   6.715   3.865   2.143 -0.1575 -0.3781 -0.0896
 1504TIP3    H126147   6.741   3.784   2.186  3.2907  0.3196 -0.5388
 1504TIP3    H226148   6.759   3.934   2.193 -1.2055  1.0129 -1.0104
 1505TIP3   OH226149   6.124   0.248   0.918  0.0279  0.2282  0.0932
 1505TIP3    H126150   6.197   0.186   0.920 -0.3478 -0.2144  0.4301
 1505TIP3    H226151   6.056   0.207   0.972 -1.6645 -0.8804 -2.6648
 1506TIP3   OH226152   5.072   5.923   3.510 -0.0919  0.0604  0.3605
 1506TIP3    H126153   5.143   5.866   3.478 -0.2316 -0.0698  0.2809
 1506TIP3    H226154   5.099   6.011   3.483 -1.1063 -0.2266 -1.8162
 1507TIP3   OH226155   4.442   0.500   0.107  0.8069 -0.2498  0.4478
 1507TIP3    H126156   4.355   0.506   0.068  1.0923 -1.0356 -0.3461
 1507TIP3    H226157   4.450   0.579   0.159 -0.6310 -0.4666  1.0509
 1508TIP3   OH226158   1.226   2.357   0.368  0.2309 -0.1519 -0.6478
 1508TIP3    H126159   1.163   2.290   0.393  0.2386 -0.6835 -1.9626
 1508TIP3    H226160   1.191   2.438   0.404  0.4434 -0.8905  1.3613
 1509TIP3   OH226161   2.191   5.354   1.292 -0.1927  0.1927 -0.2451
 1509TIP3    H126162   2.118   5.402   1.253 -1.0764 -0.3468  0.6949
 1509TIP3    H226163   2.186   5.374   1.385  0.6705 -0.1161 -0.1169
 1510TIP3   OH226164   4.661   1.977   2.079 -0.0388  0.1700  0.2870
 1510TIP3    H126165   4.598   1.923   2.030  0.3331 -1.4517  1.5266
 1510TIP3    H226166   4.658   2.062   2.035 -1.2979 -0.5830 -1.1950
 1511TIP3   OH226167   5.973   2.869   8.706 -0.1305 -0.3268  0.2322
 1511TIP3    H126168   6.011   2.947   8.666  0.8325  0.0269  1.7538
 1511TIP3    H226169   5.882   2.867   8.676 -0.1651  1.3865  0.1686
 1512TIP3   OH226170   6.436   1.059   1.963  0.2643 -0.4313  0.5724
 1512TIP3    H126171   6.511   1.029   2.014  1.4713  1.6803  0.1639
 1512TIP3    H226172   6.462   1.045   1.872  1.0831  2.0728  0.3396
 1513TIP3   OH226173   2.061   0.655   2.158 -0.2432  0.2944 -0.2230
 1513TIP3    H126174   2.122   0.612   2.218 -1.0134  1.6456  1.6167
 1513TIP3    H226175   2.038   0.587   2.095  2.3259 -0.5551 -0.3658
 1514TIP3   OH226176   1.501   2.938   1.280 -0.1379  0.3779 -0.0739
 1514TIP3    H126177   1.421   2.971   1.239  0.9633  0.8768 -1.9015
 1514TIP3    H226178   1.566   3.007   1.267  0.4139  0.3705  2.1744
 1515TIP3   OH226179   2.258   4.663   2.690 -0.2692  0.0030 -0.0456
 1515TIP3    H126180   2.272   4.586   2.635 -2.8490 -0.3865 -0.2614
 1515TIP3    H226181   2.292   4.736   2.638 -0.1148 -0.6807 -0.9214
 1516TIP3   OH226182   5.507   4.580   2.393  0.1273 -0.1774  0.3533
 1516TIP3    H126183   5.572   4.600   2.326 -0.0709  0.8974  0.4712
 1516TIP3    H226184   5.555   4.583   2.475  0.1596 -0.5075  0.3484
 1517TIP3   OH226185   1.057   2.564   8.496 -0.0590 -0.2962 -0.8314
 1517TIP3    H126186   0.980   2.596   8.449 -1.2735  0.5262  1.5629
 1517TIP3    H226187   1.099   2.644   8.529  0.0631 -0.8654  0.4478
 1518TIP3   OH226188   0.294   0.756   2.586 -0.6583 -0.4880  0.5466
 1518TIP3    H126189   0.283   0.755   2.681 -1.2479 -2.2144  0.4844
 1518TIP3    H226190   0.254   0.838   2.558  0.9418  0.8351  1.9140
 1519TIP3   OH226191   1.849   3.407   1.008 -0.2449 -0.3437  0.0249
 1519TIP3    H126192   1.780   3.421   1.073 -0.0517 -0.8798  0.3511
 1519TIP3    H226193   1.929   3.398   1.060 -0.1838 -1.4248 -0.2381
 1520TIP3   OH226194   0.853   5.014   8.244  0.2309  0.1927 -0.8241
 1520TIP3    H126195   0.788   4.954   8.281  1.7903 -1.8024 -1.1208
 1520TIP3    H226196   0.915   5.028   8.316  0.1614  1.0840 -0.9258
 1521TIP3   OH226197   4.673   2.815   7.483  0.0778 -0.0225  0.2013
 1521TIP3    H126198   4.655   2.864   7.403  2.2064  1.6872  0.6637
 1521TIP3    H226199   4.767   2.797   7.480  0.9950  2.9763  3.6784
 1522TIP3   OH226200   5.338   6.230   2.723 -0.1327 -0.1877 -0.2584
 1522TIP3    H126201   5.347   6.139   2.697 -1.6260 -0.4578  0.0838
 1522TIP3    H226202   5.421   6.252   2.764  0.5151 -1.1604 -1.0246
 1523TIP3   OH226203   5.497   2.077   0.093 -0.3157  0.4085 -0.1768
 1523TIP3    H126204   5.490   2.024   0.173 -1.9671  1.7065  0.5991
 1523TIP3    H226205   5.547   2.154   0.121 -0.2144  0.4999 -0.6143
 1524TIP3   OH226206   0.895   3.332   8.219  0.2324 -0.3802  0.0524
 1524TIP3    H126207   0.865   3.349   8.129  2.1381 -0.7188 -0.6898
 1524TIP3    H226208   0.948   3.253   8.211  1.5806  0.3798  1.2287
 1525TIP3   OH226209   1.500   2.609   0.093  0.4010 -0.5283 -0.2934
 1525TIP3    H126210   1.515   2.567   0.178 -0.3456 -0.5096 -0.1430
 1525TIP3    H226211   1.538   2.548   0.030  0.7025 -0.6834  0.0336
 1526TIP3   OH226212   2.343   6.428   1.319 -0.2278 -0.3152 -0.1382
 1526TIP3    H126213   2.317   6.510   1.360 -0.1098  0.1311 -0.9318
 1526TIP3    H226214   2.265   6.399   1.272  0.7011  1.2473 -2.8824
 1527TIP3   OH226215   6.605   4.289   8.247  0.1481 -0.3383 -0.0769
 1527TIP3    H126216   6.554   4.358   8.290  2.0373  0.8034  0.4741
 1527TIP3    H226217   6.623   4.323   8.160 -0.3644 -0.9183 -0.4148
 1528TIP3   OH226218   0.325   2.576   0.799  0.0676 -0.2117 -0.1853
 1528TIP3    H126219   0.286   2.608   0.718 -1.8395 -0.2203  0.6553
 1528TIP3    H226220   0.276   2.622   0.868  1.7505 -0.0761  0.9610
 1529TIP3   OH226221   1.541   3.710   0.485  0.0577 -0.1625 -0.2548
 1529TIP3    H126222   1.617   3.674   0.531 -0.9206 -0.0977  1.5337
 1529TIP3    H226223   1.577   3.771   0.422  1.6041 -1.8593 -1.1227
 1530TIP3   OH226224   0.501   6.122   2.906  0.1690  0.3016 -0.3798
 1530TIP3    H126225   0.591   6.135   2.935 -0.2200  0.2205  0.8913
 1530TIP3    H226226   0.447   6.168   2.970 -0.7468 -0.3650 -0.6450
 1531TIP3   OH226227   6.528   1.135   7.886 -0.2837  0.0903  0.5412
 1531TIP3    H126228   6.464   1.161   7.951 -1.0236  0.5429 -0.3359
 1531TIP3    H226229   6.504   1.045   7.863 -0.2458  0.0554  0.6404
 1532TIP3   OH226230   6.321   5.205   8.458  0.4835 -0.2170  0.1253
 1532TIP3    H126231   6.339   5.271   8.392 -1.4288  1.7659  1.4643
 1532TIP3    H226232   6.335   5.249   8.541  1.4029 -2.2112  1.0943
 1533TIP3   OH226233   5.222   0.369   7.967  0.1441 -0.1256 -0.6267
 1533TIP3    H126234   5.222   0.431   8.040  0.5274 -0.9118  0.0700
 1533TIP3    H226235   5.278   0.410   7.901 -1.7067  1.4722 -1.2872
 1534TIP3   OH226236   0.033   4.448   1.490 -0.3970 -0.4085  0.5774
 1534TIP3    H126237   0.125   4.456   1.517 -0.1865 -1.8264  0.3558
 1534TIP3    H226238  -0.002   4.537   1.497  0.6659 -0.0516  1.8459
 1535TIP3   OH226239   3.782   4.257   0.921 -0.3397  0.2214 -0.0302
 1535TIP3    H126240   3.831   4.339   0.922  2.1139 -1.1676  0.9816
 1535TIP3    H226241   3.840   4.194   0.878 -1.8873 -1.1682 -0.1910
 1536TIP3   OH226242   4.772   6.674   7.922  0.3843 -0.5742  0.5239
 1536TIP3    H126243   4.741   6.650   7.835  0.1149 -0.0475  0.4751
 1536TIP3    H226244   4.693   6.695   7.971  0.4519 -1.6934  1.1645
 1537TIP3   OH226245   1.161   4.247   8.513  0.3518 -0.1395  0.3951
 1537TIP3    H126246   1.146   4.223   8.605 -0.3844  0.8324  0.5556
 1537TIP3    H226247   1.170   4.342   8.515 -0.4131 -0.0278 -0.6247
 1538TIP3   OH226248   3.746   1.269   1.390 -0.0432  0.2922  0.0351
 1538TIP3    H126249   3.707   1.356   1.391 -0.5423  0.0724  0.2413
 1538TIP3    H226250   3.679   1.213   1.429  1.0481  0.1382  1.7776
 1539TIP3   OH226251   5.625   3.260   0.581  0.4493 -0.1119 -0.6023
 1539TIP3    H126252   5.681   3.184   0.562 -0.3938 -1.1734  0.9448
 1539TIP3    H226253   5.568   3.231   0.652  0.3979  2.1291  0.3690
 1540TIP3   OH226254   1.479   3.406   2.219 -0.2208  0.2348  0.6707
 1540TIP3    H126255   1.573   3.393   2.232  0.0145  1.7539  0.6584
 1540TIP3    H226256   1.459   3.358   2.139  0.5829  0.0398  0.5814
 1541TIP3   OH226257   3.638   0.830   8.008 -0.3586  0.0356  0.3024
 1541TIP3    H126258   3.568   0.822   8.072 -0.1082  1.6574  0.8300
 1541TIP3    H226259   3.697   0.758   8.028 -1.3555 -0.7445  0.4957
 1542TIP3   OH226260   4.607   4.862   0.574  0.2474  0.3746 -0.3124
 1542TIP3    H126261   4.683   4.854   0.515 -0.3773  1.5290 -1.3240
 1542TIP3    H226262   4.533   4.834   0.521 -0.2840  1.1408  0.0117
 1543TIP3   OH226263   5.726   6.847   8.297 -0.2951 -0.0412  0.2145
 1543TIP3    H126264   5.644   6.844   8.249 -1.9890 -0.9674  2.9608
 1543TIP3    H226265   5.779   6.913   8.251 -2.8381  1.1624 -1.1752
 1544TIP3   OH226266   0.766   2.717   8.667  0.3781 -0.3728  0.7048
 1544TIP3    H126267   0.745   2.723   8.760  1.6576  0.3494  0.9658
 1544TIP3    H226268   0.851   2.674   8.664 -0.1187 -1.3484 -0.2013
 1545TIP3   OH226269   1.769   1.372   8.411  0.2095  0.0008  0.1156
 1545TIP3    H126270   1.783   1.408   8.324 -1.3765 -1.6428 -0.8880
 1545TIP3    H226271   1.813   1.433   8.470  0.6458  1.5766 -1.7576
 1546TIP3   OH226272   1.300   4.653   2.606 -0.2936  0.3911 -0.7292
 1546TIP3    H126273   1.386   4.631   2.643 -1.0612 -3.7135 -0.8782
 1546TIP3    H226274   1.239   4.639   2.678 -0.9967  2.0402 -0.9690
 1547TIP3   OH226275   4.195   3.308   2.461 -0.3873 -0.2683  0.5848
 1547TIP3    H126276   4.205   3.363   2.539  0.5295 -0.4963  0.6386
 1547TIP3    H226277   4.154   3.366   2.396  0.6330  0.5181  0.6164
 1548TIP3   OH226278   6.144   1.964   0.946  0.3344  0.0618 -0.5639
 1548TIP3    H126279   6.223   2.018   0.936  0.8930 -0.7148 -0.4261
 1548TIP3    H226280   6.091   1.984   0.869  0.8344  0.3194 -0.8472
 1549TIP3   OH226281   4.842   4.225   1.720 -0.0400 -0.3886  0.0029
 1549TIP3    H126282   4.839   4.130   1.727 -0.3647 -0.2769  1.8281
 1549TIP3    H226283   4.767   4.247   1.665 -3.0300 -0.9804  3.4390
 1550TIP3   OH226284   6.761   2.237   2.771  0.1807  0.3438 -0.0552
 1550TIP3    H126285   6.834   2.185   2.805  1.3506  1.7489 -0.3412
 1550TIP3    H226286   6.722   2.276   2.849  0.3491  0.3784  0.0124
 1551TIP3   OH226287   4.144   5.002   2.194 -0.5003  0.1595 -0.1064
 1551TIP3    H126288   4.109   5.062   2.259 -1.6487 -2.3020  1.6907
 1551TIP3    H226289   4.229   4.976   2.229 -0.4174  0.0132 -0.4148
 1552TIP3   OH226290   5.237   2.811   2.106 -0.7410 -0.2885 -0.1735
 1552TIP3    H126291   5.183   2.778   2.034  0.1308  1.8124 -1.8722
 1552TIP3    H226292   5.279   2.889   2.071 -0.1413  0.7309  2.5808
 1553TIP3   OH226293   0.273   1.070   1.415 -0.0899  0.0648  0.4598
 1553TIP3    H126294   0.294   0.984   1.452  0.6404  0.5143  1.1006
 1553TIP3    H226295   0.308   1.133   1.477 -0.7134  0.8432  0.0467
 1554TIP3   OH226296   0.734   0.016   8.642 -0.1830 -0.3664  0.0073
 1554TIP3    H126297   0.818  -0.015   8.674  0.1083  0.5562  0.1680
 1554TIP3    H226298   0.671  -0.051   8.669  0.1829 -0.0605  1.7126
 1555TIP3   OH226299   2.667   2.276   1.121  0.6049  0.0489 -0.2645
 1555TIP3    H126300   2.616   2.357   1.120  0.8571  0.2203  0.5879
 1555TIP3    H226301   2.689   2.261   1.029 -2.6593 -1.1022 -0.9774
 1556TIP3   OH226302   3.711   1.882   7.643  0.2207  0.1778 -0.4635
 1556TIP3    H126303   3.792   1.898   7.595  1.6380 -0.3731  1.5692
 1556TIP3    H226304   3.659   1.826   7.585  1.6943 -0.2061 -1.4625
 1557TIP3   OH226305   0.792   2.983   8.526  0.0948  0.1952 -0.2169
 1557TIP3    H126306   0.723   2.918   8.532  0.7116 -0.5502 -1.0238
 1557TIP3    H226307   0.804   3.014   8.616  0.4652 -1.5318  0.3627
 1558TIP3   OH226308   0.446   4.074   2.605 -0.2573 -0.1031 -0.8356
 1558TIP3    H126309   0.452   4.105   2.514  1.9745 -0.7874 -0.9811
 1558TIP3    H226310   0.509   4.002   2.610 -1.5881 -1.2227  0.8353
 1559TIP3   OH226311   6.698   3.064   1.130 -0.1167  0.0616 -0.0030
 1559TIP3    H126312   6.623   3.058   1.071  0.3608 -1.2716 -0.5172
 1559TIP3    H226313   6.720   2.973   1.151  1.9922  0.3368 -0.7015
 1560TIP3   OH226314   2.532   4.378   1.120  0.1576  0.1158 -0.0489
 1560TIP3    H126315   2.459   4.387   1.059 -0.9947  0.6696  1.3560
 1560TIP3    H226316   2.605   4.422   1.076 -0.7444  0.8631 -0.8548
 1561TIP3   OH226317   6.058   5.813   7.786 -0.3889 -0.1072 -0.0879
 1561TIP3    H126318   6.047   5.878   7.717 -1.1673 -0.5395 -0.3874
 1561TIP3    H226319   6.034   5.730   7.744 -1.8655 -0.2469  0.9466
 1562TIP3   OH226320   4.587   3.514   8.775 -0.3837  0.3767 -0.3984
 1562TIP3    H126321   4.609   3.421   8.769  0.3247  0.6238 -2.2509
 1562TIP3    H226322   4.663   3.554   8.816 -0.3603  0.2373 -0.3047
 1563TIP3   OH226323   1.957   2.003   0.012  0.5180  0.1503  0.4589
 1563TIP3    H126324   1.880   1.972   0.059  0.8755 -1.2660  0.1625
 1563TIP3    H226325   2.024   2.013   0.080  0.8441 -1.2655  0.3806
 1564TIP3   OH226326   2.708   2.211   0.602 -0.5393 -0.4007 -0.4601
 1564TIP3    H126327   2.724   2.273   0.530  0.9340 -0.7107 -0.4255
 1564TIP3    H226328   2.736   2.126   0.567 -0.9721 -0.7631  0.0675
 1565TIP3   OH226329   6.763   3.754   8.588  0.2760 -0.0036  0.2275
 1565TIP3    H126330   6.788   3.741   8.497 -1.5174  0.8784 -0.4655
 1565TIP3    H226331   6.827   3.816   8.622  1.7535 -1.3530  0.0009
 1566TIP3   OH226332   5.988   4.888   7.547 -0.4801 -0.2063  0.2234
 1566TIP3    H126333   5.999   4.908   7.454  0.7198 -2.8278 -0.2822
 1566TIP3    H226334   5.921   4.819   7.549  0.4010 -1.0674  1.1651
 1567TIP3   OH226335   3.600   2.237   1.385  0.0576  0.2291  0.2221
 1567TIP3    H126336   3.677   2.289   1.410 -0.2043  1.1918 -0.8862
 1567TIP3    H226337   3.558   2.216   1.468  1.1114  0.3128  0.8003
 1568TIP3   OH226338   5.862   2.390   0.391  0.0397  0.1536  0.2720
 1568TIP3    H126339   5.775   2.354   0.370  0.0524  0.3739 -0.1541
 1568TIP3    H226340   5.891   2.338   0.466  0.0986 -0.8062 -0.3994
 1569TIP3   OH226341   5.669   0.121   7.642  0.0245  0.0718  0.4282
 1569TIP3    H126342   5.722   0.190   7.681  0.6021  0.9850 -1.8195
 1569TIP3    H226343   5.710   0.040   7.672  1.0657  0.7274  0.8487
 1570TIP3   OH226344   1.565   4.458   0.943 -0.6833 -0.2065 -0.6209
 1570TIP3    H126345   1.635   4.401   0.974 -0.4729  0.5875  0.4140
 1570TIP3    H226346   1.504   4.465   1.017 -1.2125  0.1235 -1.0710
 1571TIP3   OH226347   5.429   3.732   0.509  0.6319  0.0196 -0.7571
 1571TIP3    H126348   5.504   3.775   0.549  0.0710  0.9824 -0.7157
 1571TIP3    H226349   5.367   3.803   0.490 -0.9677 -0.8891  0.7073
 1572TIP3   OH226350   1.652   6.089   0.318  0.3444 -0.1518  1.2411
 1572TIP3    H126351   1.665   6.105   0.411  0.9571 -0.0948  1.1495
 1572TIP3    H226352   1.583   6.151   0.292 -0.6623 -0.9669  1.8966
 1573TIP3   OH226353   3.511   0.120   7.388 -0.0411 -0.3570 -0.2217
 1573TIP3    H126354   3.503   0.110   7.483  0.3941  1.5627  0.0685
 1573TIP3    H226355   3.420   0.125   7.357 -0.2023 -1.8462 -0.0429
 1574TIP3   OH226356   6.423   1.869   7.244 -0.1249 -0.4331  0.7241
 1574TIP3    H126357   6.351   1.928   7.264  1.5583  1.3991  1.7436
 1574TIP3    H226358   6.502   1.919   7.266  1.4224 -3.0426  1.5922
 1575TIP3   OH226359   3.524   1.119   1.461  0.2876 -0.2293 -0.0282
 1575TIP3    H126360   3.510   1.039   1.410  0.5847  0.6170 -1.4878
 1575TIP3    H226361   3.445   1.170   1.448  0.0983 -0.2690  0.9014
 1576TIP3   OH226362   1.228   3.805   2.015  0.4741 -0.3108 -0.6724
 1576TIP3    H126363   1.146   3.772   2.050  1.5148 -1.9794  0.3450
 1576TIP3    H226364   1.202   3.866   1.946 -1.6057 -1.0517 -0.6137
 1577TIP3   OH226365   6.687   4.109   3.097 -0.0269  0.1387  0.2549
 1577TIP3    H126366   6.746   4.166   3.147  0.2791  2.0829 -2.1263
 1577TIP3    H226367   6.701   4.134   3.005  0.1879 -3.9070 -1.0122
 1578TIP3   OH226368   5.453   1.767   0.548  0.4040  0.4201 -0.0087
 1578TIP3    H126369   5.443   1.697   0.612  1.3784  0.0976 -0.2036
 1578TIP3    H226370   5.463   1.846   0.600  0.3279  0.2756  0.2274
 1579TIP3   OH226371   5.516   0.462   7.368  0.0311  0.0010  0.4207
 1579TIP3    H126372   5.558   0.493   7.448 -0.5030  0.3453  0.5661
 1579TIP3    H226373   5.516   0.366   7.377 -1.8160  0.0862  1.7515
 1580TIP3   OH226374   3.819   5.046   3.024 -0.0578 -0.2839 -0.2216
 1580TIP3    H126375   3.910   5.057   3.052 -0.0819  1.2202 -0.6547
 1580TIP3    H226376   3.821   4.972   2.964  0.7160 -0.8393  0.4660
 1581TIP3   OH226377   4.283   2.657   3.160  0.1155 -0.3174  0.0528
 1581TIP3    H126378   4.317   2.627   3.244  0.2360  0.1840  0.1840
 1581TIP3    H226379   4.359   2.693   3.114 -0.1921  0.6552  0.2813
 1582TIP3   OH226380   4.776   6.572   2.075 -0.1844  0.2485  0.7157
 1582TIP3    H126381   4.838   6.638   2.046  0.1676 -0.5185 -0.3658
 1582TIP3    H226382   4.717   6.560   2.000  0.2548 -1.2263  0.5669
 1583TIP3   OH226383   3.087   3.864   0.389  0.6523 -0.1052  0.3782
 1583TIP3    H126384   3.005   3.901   0.422  0.9441  1.2943 -0.4064
 1583TIP3    H226385   3.114   3.923   0.319  1.2391 -1.7441 -0.8249
 1584TIP3   OH226386   4.988   0.036   8.674 -0.4457  0.0056  0.5920
 1584TIP3    H126387   5.049  -0.027   8.636 -0.8433 -0.2057  0.2906
 1584TIP3    H226388   5.040   0.116   8.685 -0.6328  0.5226 -1.7034
 1585TIP3   OH226389   4.967   3.791   8.362  0.6061  0.0913 -0.5325
 1585TIP3    H126390   4.957   3.768   8.455  2.5365 -0.0048 -0.3152
 1585TIP3    H226391   4.882   3.829   8.338 -0.1090 -0.3490  1.1198
 1586TIP3   OH226392   5.204   4.799   8.173  0.0064 -0.3949  0.3586
 1586TIP3    H126393   5.189   4.845   8.090  0.5042 -0.4578  0.2296
 1586TIP3    H226394   5.117   4.794   8.213 -0.8073 -3.0070 -1.4990
 1587TIP3   OH226395   0.013   3.139   0.388 -0.5318 -0.6333  0.4295
 1587TIP3    H126396   0.031   3.076   0.318 -1.7424 -1.8261  1.1464
 1587TIP3    H226397  -0.004   3.221   0.342  0.2950 -1.0020 -0.5733
 1588TIP3   OH226398   4.427   1.606   7.209  0.1318  0.3641 -0.5360
 1588TIP3    H126399   4.341   1.565   7.215 -0.3574  1.0635 -2.2389
 1588TIP3    H226400   4.485   1.546   7.256 -1.2182 -0.2532  0.4085
 1589TIP3   OH226401   3.466   6.129   8.468 -0.2179 -0.8373  0.0654
 1589TIP3    H126402   3.447   6.221   8.487  1.1011 -0.5021 -0.1043
 1589TIP3    H226403   3.426   6.081   8.540 -2.1902 -0.2868 -0.5938
 1590TIP3   OH226404   2.699   3.148   0.324  0.6581 -0.5450 -1.0106
 1590TIP3    H126405   2.728   3.207   0.393 -0.2737 -1.5204  0.2658
 1590TIP3    H226406   2.779   3.109   0.290  1.0687 -0.8073  0.2306
 1591TIP3   OH226407   1.230   1.910   1.743 -0.0617  0.1534  0.5317
 1591TIP3    H126408   1.157   1.972   1.739 -1.3697 -1.2753  1.0944
 1591TIP3    H226409   1.198   1.840   1.800  2.4028  0.2661  2.2069
 1592TIP3   OH226410   6.065   3.864   1.166 -0.6366 -0.4014  0.4382
 1592TIP3    H126411   6.038   3.849   1.256  1.8006 -0.2998  1.2427
 1592TIP3    H226412   6.032   3.952   1.146  0.5584  0.4436  1.9851
 1593TIP3   OH226413   5.576   0.047   0.648 -0.4053 -0.0961  0.3446
 1593TIP3    H126414   5.490   0.082   0.670 -0.0969 -0.2879  1.9388
 1593TIP3    H226415   5.597  -0.014   0.718  1.2124  0.2562  0.2201
 1594TIP3   OH226416   4.152   6.555   8.713  0.1883  0.0337 -0.0899
 1594TIP3    H126417   4.203   6.615   8.659 -0.0292  0.5742  0.2912
 1594TIP3    H226418   4.083   6.523   8.655 -1.1817  2.0558  0.3437
 1595TIP3   OH226419   0.422   0.565   0.813  0.3739  0.1946 -0.1167
 1595TIP3    H126420   0.461   0.478   0.807 -2.1564 -1.4428  3.4246
 1595TIP3    H226421   0.361   0.569   0.740  0.1628 -1.2748 -0.0592
 1596TIP3   OH226422   4.740   3.021   2.607  0.6891 -0.2418  0.5401
 1596TIP3    H126423   4.681   2.971   2.551  1.0332 -1.2437  1.0483
 1596TIP3    H226424   4.685   3.089   2.647  0.3185  0.1013 -0.5237
 1597TIP3   OH226425   0.913   5.175   0.709  0.0934 -0.1926 -0.2696
 1597TIP3    H126426   0.918   5.091   0.663  1.3760  0.6294 -1.7202
 1597TIP3    H226427   0.999   5.185   0.750 -0.4778 -0.1319  0.9902
 1598TIP3   OH226428   6.740   0.775   0.366 -0.1443 -0.3348 -0.0349
 1598TIP3    H126429   6.702   0.835   0.431 -1.3175 -1.4970  0.3793
 1598TIP3    H226430   6.800   0.830   0.315 -1.7609  1.3837 -0.1833
 1599TIP3   OH226431   5.995   4.950   2.159 -0.1812 -0.2850 -0.4801
 1599TIP3    H126432   5.904   4.940   2.132 -0.2866  0.2856 -0.3436
 1599TIP3    H226433   5.993   5.016   2.227  0.2778 -0.6291 -0.1246
 1600TIP3   OH226434   1.096   0.763   1.039 -0.3723  0.5811  0.1360
 1600TIP3    H126435   1.075   0.811   1.119  0.1405 -2.1181  2.0218
 1600TIP3    H226436   1.159   0.819   0.994 -0.1431  1.9009  1.9605
 1601TIP3   OH226437   5.166   6.573   1.457 -0.2573 -0.7142 -0.0076
 1601TIP3    H126438   5.166   6.543   1.548 -0.7298 -2.0351 -0.4197
 1601TIP3    H226439   5.108   6.650   1.457 -0.7972 -1.1077  0.6866
 1602TIP3   OH226440   1.454   1.235   0.099  0.3538 -0.4568  0.1698
 1602TIP3    H126441   1.510   1.279   0.164 -0.9165  1.9865 -0.2551
 1602TIP3    H226442   1.419   1.159   0.145  2.6250 -1.0960  0.9850
 1603TIP3   OH226443   2.390   5.383   1.992  0.1395 -0.2869  0.4805
 1603TIP3    H126444   2.365   5.293   2.010 -0.7845 -0.1810 -0.2385
 1603TIP3    H226445   2.370   5.431   2.073 -1.5469 -0.2960  0.0879
 1604TIP3   OH226446   6.669   6.282   2.333 -0.0978  0.3102  0.1034
 1604TIP3    H126447   6.636   6.318   2.415  0.1130 -0.4563  0.5286
 1604TIP3    H226448   6.764   6.292   2.338 -0.1093  0.6363 -0.2337
 1605TIP3   OH226449   1.763   4.430   1.283 -0.8207 -0.0921  0.2694
 1605TIP3    H126450   1.807   4.497   1.335  0.0918  0.3080 -0.9644
 1605TIP3    H226451   1.757   4.354   1.340  0.4202  0.2343  0.8545
 1606TIP3   OH226452   0.537   4.514   0.847 -0.7735  0.7896 -0.0752
 1606TIP3    H126453   0.521   4.433   0.799  0.8957  0.5238 -0.2664
 1606TIP3    H226454   0.623   4.501   0.887 -1.0657  1.9554  0.9976
 1607TIP3   OH226455   0.076   2.289   1.408  0.1895  0.3919  0.5142
 1607TIP3    H126456   0.070   2.352   1.336  0.7321  0.0938  0.2069
 1607TIP3    H226457  -0.014   2.258   1.419  0.0943  0.4674 -0.0100
 1608TIP3   OH226458   2.135   6.591   1.164 -0.0228 -0.2873 -0.3996
 1608TIP3    H126459   2.117   6.497   1.170  0.6424 -0.3424  2.0492
 1608TIP3    H226460   2.216   6.596   1.113  0.5760 -1.1677  0.4302
 1609TIP3   OH226461   3.886   0.513   0.826 -0.0221  0.0370 -0.0277
 1609TIP3    H126462   3.941   0.515   0.905  0.7226 -0.9649 -0.4967
 1609TIP3    H226463   3.948   0.520   0.753 -0.5348 -0.8133 -0.5587
 1610TIP3   OH226464   2.504   5.938   8.547  0.2491 -0.1078  0.1977
 1610TIP3    H126465   2.569   5.944   8.617 -0.3433 -0.2791  0.7716
 1610TIP3    H226466   2.473   5.848   8.551 -1.5304  0.4880  1.3288
 1611TIP3   OH226467   5.277   4.938   8.413  0.3022 -0.1996 -0.2286
 1611TIP3    H126468   5.245   5.027   8.399  0.9481  0.0792  0.0297
 1611TIP3    H226469   5.251   4.890   8.334 -1.1877 -0.1235  0.1716
 1612TIP3   OH226470   1.081   2.409   1.687 -0.2939 -0.1146 -0.3105
 1612TIP3    H126471   0.998   2.382   1.648 -0.1627 -1.4893  0.2720
 1612TIP3    H226472   1.087   2.503   1.672 -1.4010 -0.2069 -1.3812
 1613TIP3   OH226473   3.025   1.233   1.897 -0.6778 -0.5103 -0.1229
 1613TIP3    H126474   3.070   1.153   1.868  1.7256  0.6989 -0.0160
 1613TIP3    H226475   3.091   1.279   1.949 -1.5561  2.0822 -1.1381
 1614TIP3   OH226476   5.848   1.853   7.401 -0.3350 -0.0285  0.2984
 1614TIP3    H126477   5.913   1.910   7.442  0.7440 -1.1209  0.1844
 1614TIP3    H226478   5.888   1.826   7.319 -1.4547  0.2173 -0.3430
 1615TIP3   OH226479   2.813   1.670   2.457  0.2801 -0.8930  0.4820
 1615TIP3    H126480   2.766   1.723   2.522  1.0356  0.0647  0.2570
 1615TIP3    H226481   2.900   1.657   2.495  0.7812 -0.1904 -0.3950
 1616TIP3   OH226482   0.812   6.750   2.512 -0.4105  0.7032 -0.0857
 1616TIP3    H126483   0.837   6.706   2.431  0.8250  1.4282 -0.1178
 1616TIP3    H226484   0.730   6.707   2.539 -1.1181  0.7998 -1.9796
 1617TIP3   OH226485   4.688   4.902   1.394 -0.5700 -0.6037 -0.3094
 1617TIP3    H126486   4.604   4.947   1.407 -0.2958  0.3270 -1.6306
 1617TIP3    H226487   4.742   4.933   1.466 -0.8514  0.0702 -0.3771
 1618TIP3   OH226488   3.318   6.357   8.406 -0.5984  0.5375 -0.3321
 1618TIP3    H126489   3.292   6.265   8.394 -0.5535  0.1669  1.9073
 1618TIP3    H226490   3.248   6.408   8.365 -0.7930 -0.4787 -1.3180
 1619TIP3   OH226491   6.107   3.779   7.696  0.7514 -0.5431  0.0612
 1619TIP3    H126492   6.199   3.753   7.706  1.1291 -0.1243 -1.9287
 1619TIP3    H226493   6.110   3.859   7.643 -0.7605 -0.5117 -0.0308
 1620TIP3   OH226494   2.953   2.322   1.874  0.5233  0.6943 -0.1553
 1620TIP3    H126495   2.981   2.300   1.963  1.1706  0.0416 -0.5165
 1620TIP3    H226496   3.015   2.388   1.844  1.2452 -0.2029 -0.6778
 1621TIP3   OH226497   2.874   3.665   1.355 -0.1558  0.0358 -0.3903
 1621TIP3    H126498   2.898   3.673   1.262 -0.0182  1.8521 -0.2248
 1621TIP3    H226499   2.862   3.755   1.384  1.0624 -0.4160  1.6912
 1622TIP3   OH226500   1.298   6.847   2.097 -0.0026 -0.2338 -0.2664
 1622TIP3    H126501   1.214   6.893   2.107  0.3631  0.4187 -0.1371
 1622TIP3    H226502   1.274   6.756   2.081 -0.7556 -0.7156  2.8686
 1623TIP3   OH226503   5.204   0.585   8.176 -0.1965  0.5385 -0.6151
 1623TIP3    H126504   5.205   0.546   8.264  0.2511 -1.6031 -1.4911
 1623TIP3    H226505   5.278   0.646   8.176  0.6438 -0.4232  0.1288
 1624TIP3   OH226506   4.193   1.538   1.140  0.0137  0.3584 -0.1991
 1624TIP3    H126507   4.263   1.478   1.164 -0.8700 -1.0238 -0.9961
 1624TIP3    H226508   4.231   1.593   1.072  0.1640 -0.7573 -1.0287
 1625TIP3   OH226509   6.240   2.577   0.291  0.1905  0.6267 -0.1076
 1625TIP3    H126510   6.200   2.613   0.212  0.3086 -1.2907 -1.0941
 1625TIP3    H226511   6.332   2.603   0.286  0.6544 -1.1010 -1.6825
 1626TIP3   OH226512   5.034   5.473   8.329  0.0343  0.5918 -0.2668
 1626TIP3    H126513   5.010   5.560   8.360 -0.2551  0.9164 -1.3426
 1626TIP3    H226514   4.961   5.417   8.353  0.3890  0.5504  0.7717
 1627TIP3   OH226515   6.409   6.713   0.295  0.6087 -0.2336  0.6782
 1627TIP3    H126516   6.365   6.798   0.301  1.8007  0.4171  0.3838
 1627TIP3    H226517   6.337   6.649   0.290 -0.3229  0.6057  2.5537
 1628TIP3   OH226518   4.620   4.069   0.111  0.0861 -0.2565  0.4822
 1628TIP3    H126519   4.529   4.043   0.094 -0.3431  2.1365 -1.4105
 1628TIP3    H226520   4.613   4.143   0.171  0.6206  1.0261 -0.9807
 1629TIP3   OH226521   4.896   5.511   2.527  0.3945 -0.2800 -0.4429
 1629TIP3    H126522   4.854   5.577   2.472  1.9089 -0.5676 -2.0468
 1629TIP3    H226523   4.825   5.473   2.577 -0.8932  0.7941 -1.3747
 1630TIP3   OH226524   4.485   5.910   0.614  0.3519 -0.4961 -0.1527
 1630TIP3    H126525   4.575   5.893   0.642  0.6892 -0.3634 -1.1370
 1630TIP3    H226526   4.481   6.004   0.600 -0.1083 -0.4192  0.4195
 1631TIP3   OH226527   0.381   1.435   2.921  0.1664  0.1165  0.2284
 1631TIP3    H126528   0.351   1.431   3.012  1.5903  2.9341  0.9334
 1631TIP3    H226529   0.357   1.523   2.892  1.6813  0.0444 -1.3925
 1632TIP3   OH226530   0.144   3.594   2.074 -0.7818  0.0325 -0.4567
 1632TIP3    H126531   0.066   3.598   2.128  0.0592  2.8532  0.6803
 1632TIP3    H226532   0.132   3.663   2.008 -0.1967 -0.9860 -1.6911
 1633TIP3   OH226533   1.725   2.853   8.442 -0.1390 -0.1186 -0.2676
 1633TIP3    H126534   1.710   2.787   8.510 -0.6990  0.6663  0.3904
 1633TIP3    H226535   1.801   2.821   8.394  0.6448 -0.3941  1.1066
 1634TIP3   OH226536   2.004   5.404   8.218  0.2624  0.0965 -0.6927
 1634TIP3    H126537   2.047   5.384   8.302 -1.3878 -1.9205 -0.2609
 1634TIP3    H226538   2.076   5.409   8.155  1.4620  0.7887  0.6500
 1635TIP3   OH226539   4.102   4.021   0.178  0.1907  0.0682  0.1440
 1635TIP3    H126540   4.084   4.114   0.166  0.0252  0.1867  1.2019
 1635TIP3    H226541   4.070   3.980   0.098 -2.8201  0.5216  0.9880
 1636TIP3   OH226542   4.055   3.582   0.168 -0.1274 -0.6708  0.0051
 1636TIP3    H126543   3.981   3.531   0.203 -0.7207  0.0705 -0.1436
 1636TIP3    H226544   4.030   3.673   0.183  1.4166 -0.4121  1.2746
 1637TIP3   OH226545   2.955   0.472   8.530  0.1921  0.3995 -0.0353
 1637TIP3    H126546   3.005   0.529   8.590  0.3752 -0.4457  0.6336
 1637TIP3    H226547   2.966   0.512   8.444 -2.2523  3.2123  0.7811
 1638TIP3   OH226548   4.087   1.377   7.521 -0.1890  0.3927 -0.2475
 1638TIP3    H126549   4.140   1.302   7.549  0.1350  0.3428 -0.9910
 1638TIP3    H226550   4.021   1.340   7.463 -0.8044  0.5140  0.3604
 1639TIP3   OH226551   0.481   0.167   2.513  0.4353 -0.1078  0.3053
 1639TIP3    H126552   0.577   0.163   2.515  0.4537  0.3913  0.6141
 1639TIP3    H226553   0.456   0.187   2.604  0.0040 -0.8370  0.3606
 1640TIP3   OH226554   0.994   6.141   8.190 -0.0035  0.0463 -0.4099
 1640TIP3    H126555   0.906   6.105   8.181  0.5122 -0.9697 -1.7965
 1640TIP3    H226556   1.046   6.071   8.228  0.0423  0.9533  1.2872
 1641TIP3   OH226557   3.075   6.529   2.432 -0.2996 -0.3823  0.2607
 1641TIP3    H126558   3.026   6.601   2.393 -0.9690 -1.0649 -0.1924
 1641TIP3    H226559   3.033   6.514   2.516  0.1163  0.0342  0.5460
 1642TIP3   OH226560   3.463   3.258   7.516 -0.2065 -0.3112 -0.1721
 1642TIP3    H126561   3.476   3.346   7.480  1.3149 -0.6632 -0.5334
 1642TIP3    H226562   3.381   3.228   7.476 -0.0938  0.4706 -1.0267
 1643TIP3   OH226563   4.049   2.565   8.298  0.8223  0.3032  0.5108
 1643TIP3    H126564   4.033   2.650   8.256  0.6881  0.2553  0.4650
 1643TIP3    H226565   4.027   2.501   8.230 -1.4996  0.1481  1.3014
 1644TIP3   OH226566   5.529   0.581   0.538 -0.6893 -0.3618 -0.8463
 1644TIP3    H126567   5.581   0.661   0.526  0.8799 -0.9546  1.3088
 1644TIP3    H226568   5.503   0.583   0.630 -2.8442 -1.1034 -1.3806
 1645TIP3   OH226569   0.563   3.285   1.776  0.3927 -0.0247  0.0628
 1645TIP3    H126570   0.507   3.332   1.836 -0.1838 -1.3767  0.6114
 1645TIP3    H226571   0.546   3.193   1.793  0.6480 -0.4613 -1.7574
 1646TIP3   OH226572   0.601   6.599   2.590 -0.5392  0.8430 -0.2462
 1646TIP3    H126573   0.581   6.515   2.630  2.5234 -0.1652 -0.5306
 1646TIP3    H226574   0.548   6.662   2.638 -1.1800 -0.9770  1.5815
 1647TIP3   OH226575   3.062   0.752   7.807 -0.1076  0.4859 -0.1285
 1647TIP3    H126576   3.106   0.837   7.804 -0.2948  0.5752 -0.4551
 1647TIP3    H226577   3.116   0.696   7.751 -0.7335  0.7566 -1.0257
 1648TIP3   OH226578   5.688   1.964   8.647  0.3106  0.7842 -0.0194
 1648TIP3    H126579   5.626   1.956   8.720  1.2462 -0.3644  0.6899
 1648TIP3    H226580   5.634   1.988   8.572 -0.8402  0.8397  0.8071
 1649TIP3   OH226581   1.127   1.682   0.190 -0.2074  0.8634 -0.2759
 1649TIP3    H126582   1.101   1.686   0.282 -0.2121  0.1507 -0.2396
 1649TIP3    H226583   1.056   1.725   0.142 -1.1715 -0.5038 -0.1235
 1650TIP3   OH226584   5.831   0.805   0.788  0.1055  0.3146  0.1939
 1650TIP3    H126585   5.775   0.865   0.839 -0.4155  0.3681 -0.4308
 1650TIP3    H226586   5.793   0.806   0.700  2.8936  2.7717 -1.1379
 1651TIP3   OH226587   1.037   1.062   2.158 -0.4067  0.2541 -0.2415
 1651TIP3    H126588   0.956   1.057   2.106  0.7686 -0.3715 -2.1024
 1651TIP3    H226589   1.073   1.148   2.137  0.0181  0.0443 -0.3685
 1652TIP3   OH226590   6.590   2.513   8.438  0.0456 -0.2983  0.0113
 1652TIP3    H126591   6.613   2.432   8.483  3.0363 -0.0225 -0.8507
 1652TIP3    H226592   6.600   2.494   8.345  0.5955  0.9879 -0.2184
 1653TIP3   OH226593   5.479   6.708   0.455  0.2350  0.4260 -0.2473
 1653TIP3    H126594   5.519   6.703   0.368 -1.7832 -0.3698 -1.1846
 1653TIP3    H226595   5.519   6.785   0.495  0.8453  1.1151 -2.0850
 1654TIP3   OH226596   3.138   0.527   2.675 -0.6415 -0.1469  0.6227
 1654TIP3    H126597   3.157   0.504   2.766  0.6045 -0.7690  0.2367
 1654TIP3    H226598   3.066   0.469   2.649 -0.5303 -0.4629  1.0134
 1655TIP3   OH226599   5.468   4.486   0.114 -0.5231  0.3817  0.3056
 1655TIP3    H126600   5.541   4.424   0.119 -1.2418 -0.6379 -0.9096
 1655TIP3    H226601   5.409   4.458   0.184 -0.8791 -0.4008 -0.2820
 1656TIP3   OH226602   2.161   2.401   0.549 -0.0978  0.0190 -0.7305
 1656TIP3    H126603   2.247   2.442   0.546  0.2583 -0.7003 -0.5616
 1656TIP3    H226604   2.173   2.324   0.605 -1.1276  0.5570  0.2650
 1657TIP3   OH226605   4.627   5.124   8.543 -0.0363  0.7073 -0.5780
 1657TIP3    H126606   4.556   5.101   8.603  0.8638  2.4731  1.2981
 1657TIP3    H226607   4.600   5.207   8.505 -0.0184  0.2210 -1.6867
 1658TIP3   OH226608   0.860   3.346   7.937 -0.2272 -0.4147 -0.3547
 1658TIP3    H126609   0.797   3.303   7.879  0.0240 -0.5009 -0.5671
 1658TIP3    H226610   0.913   3.399   7.878  0.3686 -0.9094 -0.2757
 1659TIP3   OH226611   4.159   1.591   2.002  0.0693 -0.1244  0.5419
 1659TIP3    H126612   4.073   1.563   1.971 -0.4645  1.8092  0.1166
 1659TIP3    H226613   4.140   1.658   2.068  1.2414  0.1490  0.6237
 1660TIP3   OH226614   4.656   2.095   3.222  0.0020  0.2194 -0.3697
 1660TIP3    H126615   4.651   2.006   3.189 -0.8715  0.9767 -2.4087
 1660TIP3    H226616   4.747   2.105   3.251  0.1573 -1.2418 -0.3039
 1661TIP3   OH226617   5.818   0.659   1.967  0.2137 -0.8245 -0.2753
 1661TIP3    H126618   5.817   0.625   1.878  0.1299  0.2750 -0.7110
 1661TIP3    H226619   5.749   0.726   1.968 -0.3866 -1.4303  0.8661
 1662TIP3   OH226620   4.891   3.540   0.976  0.1302 -0.3169  0.2546
 1662TIP3    H126621   4.929   3.473   0.919 -0.6319 -0.9870  0.5114
 1662TIP3    H226622   4.802   3.553   0.942  0.0553  0.1071  0.5957
 1663TIP3   OH226623   2.518   3.825   7.230 -0.0278 -0.0322  0.2688
 1663TIP3    H126624   2.430   3.854   7.205  0.4691  1.1880 -0.1169
 1663TIP3    H226625   2.505   3.736   7.263 -1.2453 -0.2988 -0.8365
 1664TIP3   OH226626   0.414   4.959   8.629  0.6112 -0.3894  0.3134
 1664TIP3    H126627   0.370   4.883   8.590  0.0279  0.1806 -0.1540
 1664TIP3    H226628   0.387   5.033   8.575  1.6725  0.0689  0.3837
 1665TIP3   OH226629   6.798   0.160   0.742 -0.2434 -0.1694 -0.4205
 1665TIP3    H126630   6.720   0.188   0.693 -0.7961  0.7670  0.9396
 1665TIP3    H226631   6.866   0.153   0.675 -0.9038  1.3516 -1.3228
 1666TIP3   OH226632   5.411   5.382   0.863 -0.6222  0.1210  0.1394
 1666TIP3    H126633   5.468   5.453   0.832  0.0904  0.5353  2.2322
 1666TIP3    H226634   5.472   5.313   0.888 -1.1014  0.0127  1.0493
 1667TIP3   OH226635   5.177   1.712   1.524  0.1776 -0.5104 -0.9033
 1667TIP3    H126636   5.236   1.665   1.583 -0.4218 -1.1952 -0.8386
 1667TIP3    H226637   5.174   1.801   1.560 -0.5128 -1.0235  0.3722
 1668TIP3   OH226638   4.866   1.360   8.160  0.1165  0.5511 -0.8176
 1668TIP3    H126639   4.817   1.416   8.100  3.2196  3.1738 -1.1345
 1668TIP3    H226640   4.884   1.281   8.109 -1.8440  0.4268 -1.3957
 1669TIP3   OH226641   2.064   1.555   3.329  0.0750 -0.2652 -0.0313
 1669TIP3    H126642   2.043   1.648   3.338 -0.2967 -0.2703 -0.7561
 1669TIP3    H226643   2.141   1.542   3.384 -0.8882  0.0930  1.4540
 1670TIP3   OH226644   4.533   5.371   0.361  0.0158 -0.2079  0.6821
 1670TIP3    H126645   4.480   5.318   0.422  1.2078  0.3390  2.2680
 1670TIP3    H226646   4.620   5.371   0.400  1.3252 -1.3403 -2.0261
 1671TIP3   OH226647   0.274   2.959   8.369 -0.2384  0.1730 -0.4230
 1671TIP3    H126648   0.204   3.025   8.368 -1.2149 -0.8163 -0.0130
 1671TIP3    H226649   0.228   2.876   8.380  1.1258 -0.3796  1.6455
 1672TIP3   OH226650   6.034   3.496   1.084 -0.5238 -0.5690 -0.1918
 1672TIP3    H126651   5.950   3.454   1.064 -0.8965 -0.4665  1.0758
 1672TIP3    H226652   6.014   3.558   1.154  0.3157  0.6507 -0.9969
 1673TIP3   OH226653   6.255   1.633   2.231 -0.3592 -0.3990 -0.8549
 1673TIP3    H126654   6.299   1.698   2.176  0.0443  0.4767  0.4493
 1673TIP3    H226655   6.172   1.673   2.255 -0.8343 -1.0586 -1.3651
 1674TIP3   OH226656   2.855   4.855   0.079 -0.3516  0.1653  0.0039
 1674TIP3    H126657   2.932   4.911   0.093  0.0842 -0.2602 -0.6394
 1674TIP3    H226658   2.856   4.794   0.153  0.0234  0.0582 -0.0883
 1675TIP3   OH226659   6.590   5.078   8.748  0.6087 -0.6369  0.4564
 1675TIP3    H126660   6.676   5.084   8.791 -0.0759 -0.1530  1.8330
 1675TIP3    H226661   6.565   4.986   8.760 -0.2162 -0.2111  2.5007
 1676TIP3   OH226662   3.275   2.179   1.772  0.1775 -0.1515  1.2245
 1676TIP3    H126663   3.247   2.271   1.767 -1.8487 -0.7654  0.2859
 1676TIP3    H226664   3.348   2.174   1.710 -0.1966  0.6705  0.6859
 1677TIP3   OH226665   2.639   4.234   8.542 -0.4910 -0.7763 -0.1423
 1677TIP3    H126666   2.575   4.305   8.539 -0.3962 -0.4002  3.2493
 1677TIP3    H226667   2.723   4.279   8.552 -0.0715 -1.3374 -1.0653
 1678TIP3   OH226668   6.309   5.422   0.952 -0.3782  0.2440  0.9805
 1678TIP3    H126669   6.390   5.434   1.003 -1.0352 -0.5370  2.2806
 1678TIP3    H226670   6.316   5.333   0.918 -0.3820  0.4229  0.5121
 1679TIP3   OH226671   3.690   4.671   1.550 -0.2430 -0.1991 -0.0110
 1679TIP3    H126672   3.711   4.717   1.632  0.5116 -0.5400  0.0021
 1679TIP3    H226673   3.690   4.739   1.483 -1.7713  0.2271  0.3993
 1680TIP3   OH226674   4.068   5.073   0.919  0.4163 -0.0215  0.1132
 1680TIP3    H126675   4.112   5.069   0.834  0.1895  0.7440 -0.0429
 1680TIP3    H226676   4.057   5.166   0.936 -0.8310 -0.1913  0.3192
 1681TIP3   OH226677   0.147   3.645   1.760  0.0118 -0.6063  0.3441
 1681TIP3    H126678   0.152   3.614   1.669  3.3300  0.9836 -0.1548
 1681TIP3    H226679   0.085   3.718   1.757 -0.7847 -1.2792 -0.3513
 1682TIP3   OH226680   6.105   3.678   1.694  0.5292 -0.4527 -0.1033
 1682TIP3    H126681   6.191   3.703   1.727 -0.5512  0.6730  2.0870
 1682TIP3    H226682   6.084   3.596   1.740  1.6574 -2.5746 -3.0182
 1683TIP3   OH226683   2.212   3.915   8.336 -0.9066 -0.1868  0.1526
 1683TIP3    H126684   2.281   3.963   8.291 -1.1739  0.5823  0.5447
 1683TIP3    H226685   2.151   3.982   8.366 -2.8140 -0.9517 -1.7522
 1684TIP3   OH226686   1.496   0.351   8.579 -0.4229  0.0654 -0.5668
 1684TIP3    H126687   1.577   0.357   8.529  0.6313  1.1717  1.1710
 1684TIP3    H226688   1.510   0.278   8.639 -0.4323  0.6312  0.1479
 1685TIP3   OH226689   2.753   6.019   7.772 -0.0420 -0.4085 -0.1152
 1685TIP3    H126690   2.765   6.064   7.856 -0.4641 -0.0133 -0.2683
 1685TIP3    H226691   2.776   6.084   7.707  0.2138 -0.6950 -0.3126
 1686TIP3   OH226692   0.019   5.620   1.897 -0.0117  0.1241  0.2839
 1686TIP3    H126693  -0.026   5.704   1.902 -1.0135 -0.4580  2.0251
 1686TIP3    H226694   0.035   5.596   1.989  3.8420  0.2269 -0.1841
 1687TIP3   OH226695   5.097   6.081   1.912 -0.1232  0.2726 -0.5666
 1687TIP3    H126696   5.078   5.998   1.867 -0.0233 -0.0323 -0.0546
 1687TIP3    H226697   5.053   6.073   1.996 -2.3897  1.8222 -1.5031
 1688TIP3   OH226698   2.871   0.086   1.338 -0.0266  0.8392 -0.3179
 1688TIP3    H126699   2.791   0.104   1.287 -0.4990 -0.0652  0.0762
 1688TIP3    H226700   2.878  -0.009   1.338  0.3820  0.8616  0.6774
 1689TIP3   OH226701   5.434   5.181   0.648  0.6304 -0.2861 -0.3114
 1689TIP3    H126702   5.426   5.263   0.600  0.4206 -0.5992 -0.8184
 1689TIP3    H226703   5.361   5.128   0.617 -0.2169 -0.0660  1.2188
 1690TIP3   OH226704   4.855   2.860   2.272 -0.2397  0.3775 -0.0524
 1690TIP3    H126705   4.937   2.812   2.285 -1.3043 -0.9233  2.2720
 1690TIP3    H226706   4.883   2.951   2.259  1.6772 -0.3978 -2.2123
 1691TIP3   OH226707   6.416   3.803   7.690 -0.0288  0.2205  0.2703
 1691TIP3    H126708   6.400   3.835   7.779 -1.3462  2.1774 -0.5851
 1691TIP3    H226709   6.409   3.882   7.636  0.4909 -0.9718 -1.5975
 1692TIP3   OH226710   6.512   2.501   3.278 -0.3417  0.3271 -0.2925
 1692TIP3    H126711   6.592   2.452   3.262  0.5968  2.3397 -2.2983
 1692TIP3    H226712   6.444   2.449   3.235  0.5532  0.4731 -1.9838
 1693TIP3   OH226713   3.394   6.048   2.367 -0.4980 -0.2736 -0.6408
 1693TIP3    H126714   3.430   6.121   2.315  0.9078  0.5227  1.3521
 1693TIP3    H226715   3.470   6.007   2.406 -1.5001 -1.0754  0.5165
 1694TIP3   OH226716   6.214   6.448   2.102  0.2456  0.5523 -1.3209
 1694TIP3    H126717   6.308   6.439   2.117  0.1257  0.9914 -0.1702
 1694TIP3    H226718   6.188   6.366   2.060  1.3258  0.8958 -2.7355
 1695TIP3   OH226719   1.710   3.785   2.488  0.3128 -0.2608 -0.1166
 1695TIP3    H126720   1.794   3.777   2.443  0.4217 -0.5287  0.1355
 1695TIP3    H226721   1.664   3.854   2.441  0.1059 -1.0785 -1.1477
 1696TIP3   OH226722   6.268   4.411   0.977 -0.3696  0.1127 -0.7455
 1696TIP3    H126723   6.312   4.485   1.020  0.1253  0.3879 -1.6995
 1696TIP3    H226724   6.285   4.337   1.035 -1.4349  0.8545  0.5679
 1697TIP3   OH226725   2.460   2.170   8.050 -0.0419  0.3884  0.2593
 1697TIP3    H126726   2.435   2.250   8.004 -0.5985 -0.9104 -1.7640
 1697TIP3    H226727   2.406   2.170   8.129 -0.8644  1.4425 -0.2827
 1698TIP3   OH226728   5.123   2.285   0.477  0.0954 -0.2236 -0.7655
 1698TIP3    H126729   5.157   2.201   0.449 -0.0690 -0.2182 -0.9910
 1698TIP3    H226730   5.136   2.343   0.402 -1.1775 -0.4382 -1.1747
 1699TIP3   OH226731   0.727   4.430   2.738  0.2784 -0.1878  0.3888
 1699TIP3    H126732   0.783   4.354   2.755 -0.2405 -0.6548  0.0471
 1699TIP3    H226733   0.782   4.489   2.687  0.0626 -1.2387 -1.1325
 1700TIP3   OH226734   2.936   2.246   0.285  0.2028  0.4087  0.1663
 1700TIP3    H126735   2.881   2.210   0.215  0.9989 -0.3965 -0.0603
 1700TIP3    H226736   2.890   2.325   0.313 -0.3747  0.4795 -0.9325
 1701TIP3   OH226737   0.324   6.780   2.157  0.0979 -0.1106 -0.6867
 1701TIP3    H126738   0.392   6.752   2.218  0.2783  0.2595 -0.7162
 1701TIP3    H226739   0.321   6.875   2.166 -0.0793 -0.0801 -1.0395
 1702TIP3   OH226740   6.381   2.869   1.891  0.0672 -0.4602 -0.1382
 1702TIP3    H126741   6.321   2.796   1.905 -0.3928 -0.1280 -0.3547
 1702TIP3    H226742   6.462   2.842   1.936 -0.4425 -0.6358  0.7075
 1703TIP3   OH226743   2.532   3.168   8.426 -0.1686 -0.2707  0.0103
 1703TIP3    H126744   2.496   3.215   8.350  0.5359  1.5267  0.7254
 1703TIP3    H226745   2.491   3.082   8.422 -1.3742  0.3097 -1.5107
 1704TIP3   OH226746   4.751   2.768   3.378 -0.2305  0.4575 -0.2871
 1704TIP3    H126747   4.744   2.773   3.283  0.4446 -0.9105 -0.4265
 1704TIP3    H226748   4.691   2.836   3.410  0.5306  1.8716 -1.6933
 1705TIP3   OH226749   4.072   1.926   1.312  0.5009  0.1970 -0.2572
 1705TIP3    H126750   4.085   1.974   1.230 -0.5929 -0.3827 -0.7777
 1705TIP3    H226751   4.159   1.925   1.352  0.9351  0.9773 -1.1325
 1706TIP3   OH226752   1.945   3.465   7.992  0.0011  0.1299 -0.4048
 1706TIP3    H126753   1.922   3.453   8.084  2.6471 -1.2849  0.1718
 1706TIP3    H226754   1.890   3.403   7.945 -0.1468 -0.3901  0.4304
 1707TIP3   OH226755   6.559   0.229   0.630  0.2143  0.0095 -0.7366
 1707TIP3    H126756   6.504   0.153   0.612  0.1916 -0.6187  1.6854
 1707TIP3    H226757   6.498   0.293   0.667  1.1484 -1.1471  3.1912
 1708TIP3   OH226758   1.800   4.720   0.146 -0.4243  0.4350  0.1163
 1708TIP3    H126759   1.866   4.758   0.204 -0.0756 -1.0177  0.7139
 1708TIP3    H226760   1.831   4.740   0.058  1.1928 -0.7415  0.3617
 1709TIP3   OH226761   6.508   4.864   8.304  0.7909 -0.4424  0.6897
 1709TIP3    H126762   6.540   4.777   8.283  3.1619  0.5770 -0.3595
 1709TIP3    H226763   6.525   4.916   8.226  0.2495  1.1562  1.5817
 1710TIP3   OH226764   6.220   1.342   1.045  0.2047 -0.1014  0.1981
 1710TIP3    H126765   6.279   1.417   1.034 -0.9199  0.7314 -0.4459
 1710TIP3    H226766   6.272   1.267   1.017  0.8530  0.6512 -0.7341
 1711TIP3   OH226767   1.180   1.397   8.378  0.1809 -0.1128  0.2190
 1711TIP3    H126768   1.162   1.485   8.411 -0.0160  0.4119 -1.1998
 1711TIP3    H226769   1.097   1.350   8.387  0.5347 -0.4924  1.8727
 1712TIP3   OH226770   0.808   3.798   0.756  0.2621 -0.2003 -0.3353
 1712TIP3    H126771   0.894   3.779   0.795 -0.0154  0.5451  0.6965
 1712TIP3    H226772   0.828   3.842   0.674  0.8827  0.0431 -0.0609
 1713TIP3   OH226773   2.529   6.392   0.370 -0.1790  0.0772  0.2105
 1713TIP3    H126774   2.529   6.331   0.443 -2.1333  2.1512  2.1082
 1713TIP3    H226775   2.607   6.446   0.384  1.1167 -1.3794 -1.0309
 1714TIP3   OH226776   2.798   0.501   7.959  0.1893  0.1854 -0.3169
 1714TIP3    H126777   2.814   0.560   8.033 -2.1854  0.1000  0.3409
 1714TIP3    H226778   2.771   0.559   7.888  1.4906  0.1687 -0.8659
 1715TIP3   OH226779   1.049   4.464   0.743 -0.0527  0.2784 -0.0727
 1715TIP3    H126780   1.098   4.546   0.735  0.1475  0.2769  1.0170
 1715TIP3    H226781   1.009   4.468   0.830  1.3916 -1.5465  0.7385
 1716TIP3   OH226782   3.959   2.260   1.480  0.1015  0.7152  0.1441
 1716TIP3    H126783   4.036   2.221   1.520 -1.2732 -1.4336  0.8949
 1716TIP3    H226784   3.902   2.283   1.554 -1.2735 -0.6753 -0.4204
 1717TIP3   OH226785   4.252   1.781   0.157  0.0789  0.4914 -0.1339
 1717TIP3    H126786   4.219   1.839   0.089  0.5749  2.0593  0.9229
 1717TIP3    H226787   4.346   1.778   0.142 -0.1174 -1.8122 -1.4768
 1718TIP3   OH226788   4.293   2.845   2.278  0.6071  0.5536 -0.1427
 1718TIP3    H126789   4.314   2.873   2.189  1.5608 -1.7143 -0.7099
 1718TIP3    H226790   4.262   2.755   2.268 -2.2825  1.1996  1.5192
 1719TIP3   OH226791   0.935   1.430   0.783  0.3736 -0.0323  0.0641
 1719TIP3    H126792   0.865   1.447   0.846 -0.6003  0.7230 -1.1758
 1719TIP3    H226793   1.004   1.493   0.805  1.0701 -1.3245  1.8133
 1720TIP3   OH226794   4.957   0.380   8.326  0.3230 -0.0210 -0.7420
 1720TIP3    H126795   5.035   0.431   8.304  0.9611 -1.1089 -1.1053
 1720TIP3    H226796   4.985   0.289   8.317 -1.7566 -0.5031 -3.8679
 1721TIP3   OH226797   2.363   0.017   1.928  0.8704 -0.1044 -0.4153
 1721TIP3    H126798   2.379  -0.029   1.846 -0.4679  0.1424 -0.8541
 1721TIP3    H226799   2.314   0.096   1.902 -0.7527 -0.6845  0.7056
 1722TIP3   OH226800   5.900   0.623   8.449  0.2645  0.3814 -0.4935
 1722TIP3    H126801   5.923   0.708   8.411  2.1878  0.2484  0.2622
 1722TIP3    H226802   5.979   0.570   8.439  0.3019 -0.1832  2.1714
 1723TIP3   OH226803   5.290   2.648   0.251 -1.3091  0.0182  0.1243
 1723TIP3    H126804   5.293   2.665   0.157  0.3772  0.7050  0.2778
 1723TIP3    H226805   5.293   2.734   0.291  1.1805 -0.3195  0.8186
 1724TIP3   OH226806   1.988   4.361   8.151 -0.2476  0.0107  0.0930
 1724TIP3    H126807   2.018   4.438   8.199  2.4240 -0.1100 -1.1929
 1724TIP3    H226808   1.983   4.391   8.060 -0.0576 -1.0969 -0.2927
 1725TIP3   OH226809   6.300   3.797   3.331  0.6793 -0.3919  0.2160
 1725TIP3    H126810   6.305   3.721   3.274 -0.2685 -0.2888 -0.0176
 1725TIP3    H226811   6.245   3.859   3.284  1.2519  0.3495  0.5094
 1726TIP3   OH226812   4.960   1.266   8.531  0.4716  0.1919 -0.5102
 1726TIP3    H126813   4.960   1.197   8.464  1.2708 -1.0423  0.7039
 1726TIP3    H226814   5.052   1.288   8.543  0.7710 -2.0003  2.4424
 1727TIP3   OH226815   2.705   5.503   0.846  0.0850 -0.1881  0.2497
 1727TIP3    H126816   2.784   5.479   0.798  0.3190 -0.3481  0.7130
 1727TIP3    H226817   2.733   5.514   0.937 -0.4740 -0.5161  0.4713
 1728TIP3   OH226818   1.603   6.628   0.059 -0.3946  0.0141  0.6506
 1728TIP3    H126819   1.559   6.570  -0.003 -1.3454 -0.1923  1.4802
 1728TIP3    H226820   1.539   6.696   0.078  0.7506  1.4305 -0.3880
 1729TIP3   OH226821   5.523   5.684   8.189 -0.3730 -0.4848 -0.3241
 1729TIP3    H126822   5.583   5.658   8.259 -0.6749  1.6932  0.8382
 1729TIP3    H226823   5.436   5.683   8.231 -0.7981 -0.8712 -1.1909
 1730TIP3   OH226824   1.192   6.245   0.489  0.3411 -0.3640  1.0768
 1730TIP3    H126825   1.277   6.226   0.448  0.6679 -1.9022  2.3653
 1730TIP3    H226826   1.206   6.330   0.532  1.2309 -0.5963  1.2785
 1731TIP3   OH226827   6.823   1.729   0.962  0.2854  0.5294  0.1653
 1731TIP3    H126828   6.752   1.783   0.996 -0.5715  0.2486 -1.1097
 1731TIP3    H226829   6.824   1.747   0.868 -0.1692 -1.7718 -0.3455
 1732TIP3   OH226830   6.646   4.640   8.252 -0.0107 -0.0281 -0.4426
 1732TIP3    H126831   6.652   4.623   8.158  0.1493  0.1507 -0.4655
 1732TIP3    H226832   6.728   4.606   8.288  1.0921  2.1617 -0.7178
 1733TIP3   OH226833   0.778   4.319   8.098  0.5714  0.3529  0.2340
 1733TIP3    H126834   0.827   4.280   8.171  0.4563 -2.3395 -1.0040
 1733TIP3    H226835   0.839   4.316   8.024 -0.8290 -1.5327 -0.9287
 1734TIP3   OH226836   1.529   0.971   2.014 -0.2553  0.5052  0.2297
 1734TIP3    H126837   1.588   0.938   2.082 -0.7298  0.1710  0.4866
 1734TIP3    H226838   1.570   0.946   1.931 -0.4015 -0.3777  0.4167
 1735TIP3   OH226839   3.078   4.388   1.797 -0.5635  0.0712 -0.3422
 1735TIP3    H126840   3.133   4.312   1.813 -2.1056 -0.6062  2.3470
 1735TIP3    H226841   3.001   4.353   1.751 -0.2333  0.4446 -1.1977
 1736TIP3   OH226842   4.078   1.916   0.311  0.2218  0.0843 -0.4650
 1736TIP3    H126843   4.065   1.902   0.405  4.0442  1.0074  0.3596
 1736TIP3    H226844   4.129   1.840   0.282 -0.3165  0.1537 -1.6563
 1737TIP3   OH226845   6.207   3.963   8.265 -0.3346 -0.1259 -0.0287
 1737TIP3    H126846   6.288   3.980   8.217 -0.2668 -1.0975 -0.2879
 1737TIP3    H226847   6.186   4.046   8.308  1.7850 -0.3089  1.5458
 1738TIP3   OH226848   5.917   4.500   0.676 -0.2035 -0.2881 -0.0264
 1738TIP3    H126849   5.860   4.539   0.743 -1.6056 -0.6086 -0.9975
 1738TIP3    H226850   5.979   4.569   0.655 -0.3307  0.1385  0.9156
 1739TIP3   OH226851   1.053   2.684   2.190 -0.3520  0.0439  0.2187
 1739TIP3    H126852   1.046   2.763   2.244 -1.8171  0.6245 -0.7548
 1739TIP3    H226853   1.039   2.715   2.101 -0.5399 -1.2676 -0.2308
 1740TIP3   OH226854   5.535   5.835   2.967  0.6814 -0.4733 -0.1580
 1740TIP3    H126855   5.545   5.884   3.049 -0.0473 -0.1667 -0.2458
 1740TIP3    H226856   5.562   5.898   2.899 -1.1135  0.1456 -0.3456
 1741TIP3   OH226857   1.806   0.443   8.735 -0.2804  0.2222 -0.4532
 1741TIP3    H126858   1.784   0.357   8.770 -0.5600  0.2899 -0.4624
 1741TIP3    H226859   1.726   0.495   8.747 -0.3476  0.2761 -1.1000
 1742TIP3   OH226860   2.018   3.866   0.186  0.6101  0.3669 -0.6920
 1742TIP3    H126861   2.098   3.869   0.135  1.4640  1.5821  0.6508
 1742TIP3    H226862   2.009   3.954   0.223  0.6662 -0.7213  2.1675
 1743TIP3   OH226863   5.199   5.632   0.166 -0.0605 -0.1791  0.3008
 1743TIP3    H126864   5.202   5.541   0.195  0.7569  0.3712  2.0773
 1743TIP3    H226865   5.289   5.664   0.176 -0.5112  1.0753  0.5934
 1744TIP3   OH226866   3.218   0.996   1.995 -0.2544 -0.0175  0.2909
 1744TIP3    H126867   3.312   1.008   1.986  0.2611 -3.7533 -0.8992
 1744TIP3    H226868   3.188   0.975   1.907 -2.2764  1.0668  0.6509
 1745TIP3   OH226869   4.762   3.691   0.448  0.2653 -0.1828  0.0855
 1745TIP3    H126870   4.827   3.657   0.511  1.8232 -1.7359 -2.1917
 1745TIP3    H226871   4.696   3.622   0.444  1.0665 -0.9082 -1.1889
 1746TIP3   OH226872   2.429   5.154   2.297 -0.3199 -0.4872 -0.2715
 1746TIP3    H126873   2.503   5.095   2.294  0.2531  0.1502  0.5578
 1746TIP3    H226874   2.375   5.130   2.222  0.2341 -1.5931 -0.3347
 1747TIP3   OH226875   2.914   4.560   0.509 -0.0082  0.1982 -0.0436
 1747TIP3    H126876   2.957   4.597   0.587 -0.7842  1.5007 -0.2155
 1747TIP3    H226877   2.822   4.555   0.533 -0.1769  0.0950 -0.7031
 1748TIP3   OH226878   4.725   2.641   2.437  0.9268 -0.1385 -0.4787
 1748TIP3    H126879   4.728   2.735   2.420 -2.1650  0.0109 -0.6961
 1748TIP3    H226880   4.726   2.634   2.532  2.4125 -0.0127 -0.4599
 1749TIP3   OH226881   3.401   6.492   2.117  0.0766  0.3306 -0.3929
 1749TIP3    H126882   3.423   6.440   2.194  0.6835 -3.1342 -2.6858
 1749TIP3    H226883   3.308   6.474   2.101 -0.5290  2.4362  0.4167
 1750TIP3   OH226884   1.342   2.098   2.599  0.0662 -0.5900 -0.0387
 1750TIP3    H126885   1.311   2.170   2.654  0.3599 -0.5982  0.1406
 1750TIP3    H226886   1.265   2.070   2.550 -0.2633 -0.7453  0.5530
 1751TIP3   OH226887   4.246   6.384   1.708  0.1204  0.3648  0.0789
 1751TIP3    H126888   4.261   6.443   1.782  1.9344  0.3777 -0.2534
 1751TIP3    H226889   4.297   6.422   1.637  0.2884 -0.9188 -0.5072
 1752TIP3   OH226890   6.414   6.604   0.675  0.3407 -0.3920 -0.3321
 1752TIP3    H126891   6.506   6.621   0.696 -0.0723  2.3661 -0.3532
 1752TIP3    H226892   6.388   6.677   0.618 -1.6582 -1.5572 -1.0394
 1753TIP3   OH226893   0.419   6.802   0.698 -0.1423  0.0257  0.0167
 1753TIP3    H126894   0.386   6.754   0.622 -1.9543 -0.9622  1.3320
 1753TIP3    H226895   0.405   6.894   0.676 -1.8099 -0.2836 -0.3992
 1754TIP3   OH226896   5.151   6.345   2.501  0.0692  0.2018  0.2501
 1754TIP3    H126897   5.125   6.379   2.416 -1.8486  0.0990  0.7541
 1754TIP3    H226898   5.185   6.257   2.483 -0.8863 -0.0539 -0.3711
 1755TIP3   OH226899   2.549   5.248   8.023 -0.0961 -0.1256 -0.0327
 1755TIP3    H126900   2.539   5.216   8.112 -0.9763  1.5156  0.5128
 1755TIP3    H226901   2.470   5.218   7.977 -0.3053  0.1571  0.1337
 1756TIP3   OH226902   5.243   3.327   1.011  0.0614  0.3393  0.4577
 1756TIP3    H126903   5.194   3.341   1.092  0.3863  1.1539  0.5282
 1756TIP3    H226904   5.284   3.242   1.021 -3.4220 -1.7005 -0.6827
 1757TIP3   OH226905   2.429   4.534   0.860 -0.3080  0.4735 -0.0258
 1757TIP3    H126906   2.500   4.576   0.908 -0.0623  1.1862 -0.9709
 1757TIP3    H226907   2.391   4.604   0.806  0.4228 -0.5695 -2.0182
 1758TIP3   OH226908   0.445   2.322   2.780  0.2633 -0.2425  0.0679
 1758TIP3    H126909   0.374   2.348   2.838  0.4475  0.4274  0.0000
 1758TIP3    H226910   0.492   2.254   2.828 -0.0487 -0.2459  0.3713
 1759TIP3   OH226911   5.959   4.325   8.254  0.2588 -0.2412  0.0408
 1759TIP3    H126912   6.024   4.341   8.322  0.2251  1.9292 -0.3763
 1759TIP3    H226913   5.875   4.336   8.299  0.1671 -1.8132  0.2984
 1760TIP3   OH226914   2.764   1.522   1.226 -0.4677  0.3852  0.2535
 1760TIP3    H126915   2.705   1.493   1.296  0.0260 -1.2441  0.0188
 1760TIP3    H226916   2.710   1.582   1.174 -1.3645  0.3063  1.0482
 1761TIP3   OH226917   4.470   5.109   1.410  0.1151 -0.3924 -0.2061
 1761TIP3    H126918   4.515   5.189   1.437  2.3563 -1.0897 -1.6106
 1761TIP3    H226919   4.456   5.120   1.316  0.5934 -1.6938 -0.4544
 1762TIP3   OH226920   0.088   5.177   2.030  0.1745 -0.4748 -0.1993
 1762TIP3    H126921   0.121   5.247   1.973 -0.0071 -0.5821 -0.4397
 1762TIP3    H226922   0.138   5.100   2.004 -0.4347 -0.6989 -0.7470
 1763TIP3   OH226923   3.091   1.381   3.500 -0.4714 -0.3070 -0.5487
 1763TIP3    H126924   3.173   1.430   3.497  0.9298 -2.5027 -3.6062
 1763TIP3    H226925   3.024   1.444   3.474  0.4702  1.1148  0.3507
 1764TIP3   OH226926   3.613   2.699   7.117 -0.3157  0.2430  0.0994
 1764TIP3    H126927   3.542   2.666   7.170  1.9589  0.1446  3.3806
 1764TIP3    H226928   3.671   2.624   7.104  0.9336  1.0568  0.6861
 1765TIP3   OH226929   2.560   5.501   7.066  0.2616  0.1795 -0.0865
 1765TIP3    H126930   2.648   5.532   7.084  0.7590 -0.1082 -1.8659
 1765TIP3    H226931   2.503   5.574   7.090  1.1816  1.3235 -1.2464
 1766TIP3   OH226932   5.738   4.965   8.492  0.0452  0.1222  0.5449
 1766TIP3    H126933   5.696   4.890   8.534  0.1489 -0.7667 -0.8788
 1766TIP3    H226934   5.666   5.017   8.458 -0.1097  1.4844  2.7458
 1767TIP3   OH226935   6.356   0.423   0.715 -0.7017  0.5066 -0.3519
 1767TIP3    H126936   6.302   0.441   0.792 -0.2065  1.0358 -0.1230
 1767TIP3    H226937   6.407   0.503   0.702  0.3404 -0.1262 -0.3150
 1768TIP3   OH226938   3.169   2.700   8.712  0.0703 -0.1780 -0.7490
 1768TIP3    H126939   3.164   2.621   8.659  0.5115 -0.8127  0.1223
 1768TIP3    H226940   3.228   2.677   8.784  0.0932  0.9004 -0.3963
 1769TIP3   OH226941   5.288   2.454   7.912  0.7560 -0.1015  0.3921
 1769TIP3    H126942   5.244   2.375   7.945 -0.2994  0.1934 -0.2643
 1769TIP3    H226943   5.373   2.453   7.955 -0.5165  0.2541  3.1032
 1770TIP3   OH226944   4.878   4.995   1.567  0.7618  0.3263 -0.4109
 1770TIP3    H126945   4.909   5.045   1.491  1.5302  1.8747  0.8540
 1770TIP3    H226946   4.957   4.968   1.613  0.3128  0.6203  0.5711
 1771TIP3   OH226947   5.277   3.385   1.528 -0.3811  0.4258  0.3852
 1771TIP3    H126948   5.271   3.481   1.520 -0.3145  0.2541 -2.8324
 1771TIP3    H226949   5.187   3.356   1.530 -0.4233  0.4881 -0.3243
 1772TIP3   OH226950   6.834   0.633   2.061 -0.2685  0.0132 -0.1483
 1772TIP3    H126951   6.862   0.545   2.038  1.4868  0.8936 -1.5535
 1772TIP3    H226952   6.867   0.646   2.150 -1.1353 -0.9436  0.3455
 1773TIP3   OH226953   0.883   0.372   7.153 -0.0490  0.4447  0.6912
 1773TIP3    H126954   0.927   0.385   7.069 -0.7608 -0.3731  0.1758
 1773TIP3    H226955   0.796   0.340   7.130 -0.0733 -0.3073  1.7514
 1774TIP3   OH226956   4.824   1.077   1.063  0.2883  0.1412  0.2210
 1774TIP3    H126957   4.823   1.011   0.994  0.1706  0.7553 -0.3732
 1774TIP3    H226958   4.784   1.154   1.024 -1.2772  0.0344  1.4756
 1775TIP3   OH226959   3.768   0.337   0.179  0.2835  0.1279  0.2190
 1775TIP3    H126960   3.685   0.289   0.181 -0.2309  0.9908 -0.0360
 1775TIP3    H226961   3.811   0.308   0.099 -0.6783  1.1420 -0.7048
 1776TIP3   OH226962   6.499   6.425   7.773  0.1045 -0.1687 -0.1173
 1776TIP3    H126963   6.483   6.518   7.757 -0.5626 -0.0522  1.1418
 1776TIP3    H226964   6.595   6.417   7.777  0.2067  0.2587 -1.2644
 1777TIP3   OH226965   5.340   1.615   1.737  0.5999 -0.5267  0.1683
 1777TIP3    H126966   5.413   1.558   1.712  1.1321 -0.2140  0.9666
 1777TIP3    H226967   5.278   1.557   1.781 -0.6446 -1.2115 -2.3139
 1778TIP3   OH226968   0.588   0.391   0.152 -0.8605 -0.0166 -0.0931
 1778TIP3    H126969   0.629   0.366   0.235  0.5457 -0.2746 -0.8273
 1778TIP3    H226970   0.658   0.379   0.087 -2.0341 -0.1566 -1.3606
 1779TIP3   OH226971   2.097   1.160   2.090 -0.5886  0.6213  0.9136
 1779TIP3    H126972   2.097   1.200   2.176  1.6132 -0.0061  1.2695
 1779TIP3    H226973   2.180   1.113   2.085 -0.7181  0.5094 -1.4943
 1780TIP3   OH226974   0.507   3.100   8.774  0.2485  0.2822  0.2094
 1780TIP3    H126975   0.601   3.088   8.780  0.1118 -0.5400  0.9149
 1780TIP3    H226976   0.495   3.194   8.764  1.0805  0.5425  1.5185
 1781TIP3   OH226977   5.465   0.217   2.306  0.4579  0.4371 -0.3538
 1781TIP3    H126978   5.540   0.216   2.366  0.8708 -1.2408 -0.8450
 1781TIP3    H226979   5.396   0.169   2.352  1.2941 -2.2967 -1.7533
 1782TIP3   OH226980   0.727   3.716   0.459  0.1989 -0.8957  0.1942
 1782TIP3    H126981   0.815   3.682   0.445  0.5395 -0.4477  1.1745
 1782TIP3    H226982   0.718   3.788   0.397  1.7994  1.2931  2.3175
 1783TIP3   OH226983   6.367   5.781   0.945  0.9456 -0.3621  0.0894
 1783TIP3    H126984   6.329   5.698   0.917 -0.6052  0.3495  0.0101
 1783TIP3    H226985   6.391   5.826   0.864  0.4963 -0.1461  0.0757
 1784TIP3   OH226986   2.737   2.147   0.109  0.3046 -0.0266  0.2058
 1784TIP3    H126987   2.650   2.111   0.122 -0.3838 -0.0185 -3.3268
 1784TIP3    H226988   2.728   2.203   0.032  3.1814  0.9980  0.4894
 1785TIP3   OH226989   6.048   2.408   8.609  0.4342 -0.6965 -0.3808
 1785TIP3    H126990   6.003   2.371   8.685 -1.2572 -0.7994 -1.3947
 1785TIP3    H226991   6.110   2.341   8.583  0.6089 -0.9092  0.5430
 1786TIP3   OH226992   0.820   2.570   1.024 -1.0256 -0.2595  0.0134
 1786TIP3    H126993   0.802   2.610   1.109 -1.8630  0.8159 -0.6459
 1786TIP3    H226994   0.913   2.589   1.008 -0.7179 -0.9311  0.9040
 1787TIP3   OH226995   5.484   5.527   0.117 -0.1565 -0.2944 -0.3940
 1787TIP3    H126996   5.461   5.601   0.062 -0.7949 -0.4352 -0.3292
 1787TIP3    H226997   5.569   5.497   0.083  0.5491  1.0036  0.1545
 1788TIP3   OH226998   3.899   6.235   0.709  0.0504  0.1646 -0.2503
 1788TIP3    H126999   3.966   6.175   0.677 -0.8623 -1.2878  0.4423
 1788TIP3    H227000   3.934   6.268   0.792  0.7398  0.9481 -0.8373
 1789TIP3   OH227001   1.038   5.270   8.763  0.1434  0.0086  0.7710
 1789TIP3    H127002   1.049   5.329   8.688  1.7291 -0.0110  0.9555
 1789TIP3    H227003   1.010   5.187   8.723  1.2898 -0.0997  0.1252
 1790TIP3   OH227004   0.936   0.669   7.828  0.1976 -0.0557  0.6554
 1790TIP3    H127005   0.846   0.648   7.855 -0.2258  0.4572 -0.2867
 1790TIP3    H227006   0.958   0.602   7.764 -0.1765  0.8076 -0.4054
 1791TIP3   OH227007   1.411   3.661   2.366 -0.5164 -0.6430  0.0619
 1791TIP3    H127008   1.417   3.606   2.444  0.7550  0.3678  0.7347
 1791TIP3    H227009   1.447   3.607   2.296  0.6822 -0.7275  0.7015
 1792TIP3   OH227010   6.806   3.612   1.137  0.2546 -0.3109 -0.5665
 1792TIP3    H127011   6.746   3.577   1.203 -0.1811  0.2704 -0.6419
 1792TIP3    H227012   6.877   3.650   1.188  0.2856 -0.5167 -0.4564
 1793TIP3   OH227013   5.274   0.920   0.948 -0.5629 -0.0002 -0.3717
 1793TIP3    H127014   5.329   0.984   0.994 -0.4035  0.2433 -0.8994
 1793TIP3    H227015   5.225   0.877   1.018 -0.8280  0.8368 -0.0295
 1794TIP3   OH227016   1.121   4.860   1.880  0.1733 -0.0389 -0.8247
 1794TIP3    H127017   1.206   4.873   1.920 -0.5786 -1.2612  1.3147
 1794TIP3    H227018   1.058   4.883   1.948 -1.2139 -0.3413 -1.9462
 1795TIP3   OH227019   1.807   0.128   0.916  0.1471 -0.2662 -0.2110
 1795TIP3    H127020   1.784   0.192   0.849  0.9596 -1.0995 -1.3192
 1795TIP3    H227021   1.819   0.181   0.996 -0.0927  0.8349 -0.8782
 1796TIP3   OH227022   5.218   3.007   8.671  0.0713 -0.2831  0.4632
 1796TIP3    H127023   5.181   3.028   8.585 -0.0457 -0.3292  0.5027
 1796TIP3    H227024   5.221   3.090   8.717 -0.8417 -0.4273  0.7995
 1797TIP3   OH227025   1.646   3.756   8.630  0.4655  0.6676  0.4204
 1797TIP3    H127026   1.730   3.732   8.669  0.9447  1.4376 -0.1095
 1797TIP3    H227027   1.581   3.739   8.699  1.2591  1.7483  1.4623
 1798TIP3   OH227028   5.382   2.716   0.997 -0.0648 -0.1194  0.6281
 1798TIP3    H127029   5.447   2.708   0.928 -0.9676 -0.7716 -0.1812
 1798TIP3    H227030   5.342   2.629   1.003 -0.9810  0.3028  0.9746
 1799TIP3   OH227031   3.769   0.748   1.007  0.0838  0.3942  0.4612
 1799TIP3    H127032   3.723   0.752   1.091 -1.6329  0.9519 -0.4494
 1799TIP3    H227033   3.700   0.731   0.943  1.1651  1.2413 -0.9945
 1800TIP3   OH227034   0.214   3.049   7.213 -0.2951  0.1500  0.5497
 1800TIP3    H127035   0.153   2.983   7.246 -0.0977 -1.0845 -1.3489
 1800TIP3    H227036   0.173   3.082   7.133  0.9302  0.1826 -0.0966
 1801TIP3   OH227037   4.358   3.966   0.075  0.3171  0.2699  0.0684
 1801TIP3    H127038   4.385   3.875   0.066  1.7316  0.4957  1.4784
 1801TIP3    H227039   4.281   3.964   0.131  1.2419  0.0091  1.3701
 1802TIP3   OH227040   2.267   3.431   0.589 -0.2458 -0.2882  0.6289
 1802TIP3    H127041   2.266   3.423   0.684 -0.6673  2.9712  0.9836
 1802TIP3    H227042   2.210   3.360   0.558  0.0514 -1.5209  2.7253
 1803TIP3   OH227043   2.701   2.790   3.017 -0.1654  0.6676 -0.0243
 1803TIP3    H127044   2.757   2.867   3.018 -0.8147  1.2054  2.2608
 1803TIP3    H227045   2.612   2.824   3.022 -0.4786 -0.2088  0.8095
 1804TIP3   OH227046   4.004   5.733   1.607 -0.0278 -0.2323  0.1345
 1804TIP3    H127047   4.037   5.808   1.558 -0.9750  0.7335  0.9118
 1804TIP3    H227048   3.953   5.683   1.543  0.9582 -0.4604 -0.4913
 1805TIP3   OH227049   5.670   2.102   3.231 -0.4767 -0.4606  0.1573
 1805TIP3    H127050   5.689   2.091   3.138  1.1752  0.5699  0.3360
 1805TIP3    H227051   5.579   2.132   3.233  0.1157  1.6963 -1.3280
 1806TIP3   OH227052   3.422   3.394   2.329 -0.5200 -0.1941  0.0959
 1806TIP3    H127053   3.483   3.337   2.374 -0.8623 -3.0038 -2.6353
 1806TIP3    H227054   3.337   3.352   2.340 -1.3636  1.5624  0.6170
 1807TIP3   OH227055   2.853   2.531   1.164 -0.1829 -0.3540 -0.5138
 1807TIP3    H127056   2.765   2.550   1.133 -0.5360 -0.1010  0.6008
 1807TIP3    H227057   2.892   2.617   1.178 -0.9913 -0.3587  2.3409
 1808TIP3   OH227058   2.121   2.189   2.537  0.4325 -0.6154 -0.5920
 1808TIP3    H127059   2.109   2.282   2.519 -0.0893 -0.6422 -0.4191
 1808TIP3    H227060   2.205   2.167   2.497  1.4418  0.3299  0.9285
 1809TIP3   OH227061   0.266   0.015   1.144  0.3525  1.0183 -0.2997
 1809TIP3    H127062   0.189   0.068   1.122  0.2724  0.2350 -2.0794
 1809TIP3    H227063   0.253  -0.068   1.097  1.7256  0.4138  0.3129
 1810TIP3   OH227064   2.818   6.343   1.743 -0.1610  0.0487  0.0783
 1810TIP3    H127065   2.904   6.336   1.702 -0.4479 -0.3120 -0.4776
 1810TIP3    H227066   2.823   6.285   1.819  0.3682  0.7092  0.5584
 1811TIP3   OH227067   2.453   5.278   1.190 -0.0235 -0.1128  0.5929
 1811TIP3    H127068   2.369   5.298   1.232  0.7413  1.3957  1.5146
 1811TIP3    H227069   2.482   5.362   1.155  2.2299 -0.0020  2.4690
 1812TIP3   OH227070   6.840   1.277   2.713  0.7259 -0.3599  0.3073
 1812TIP3    H127071   6.803   1.346   2.768  0.9583 -0.0763  0.1096
 1812TIP3    H227072   6.893   1.225   2.773 -0.0849 -0.8428  0.6175
 1813TIP3   OH227073   0.797   0.012   7.463 -0.0661  0.4075  0.2379
 1813TIP3    H127074   0.761   0.053   7.384 -0.9675  0.3218  0.5892
 1813TIP3    H227075   0.761  -0.077   7.461  1.2762 -0.1530 -0.1304
 1814TIP3   OH227076   1.737   0.697   1.446 -0.3677  0.6364 -0.0613
 1814TIP3    H127077   1.806   0.764   1.446  0.7547 -0.3638  2.9693
 1814TIP3    H227078   1.666   0.736   1.497 -1.0796  0.7048 -1.0710
 1815TIP3   OH227079   0.212   4.862   0.407  0.6169  0.3483 -0.2708
 1815TIP3    H127080   0.283   4.799   0.416 -0.4442 -0.6935  1.5980
 1815TIP3    H227081   0.166   4.836   0.327 -0.3894 -1.9807  0.9761
 1816TIP3   OH227082   0.098   0.412   0.034  0.3595 -0.2564 -0.0778
 1816TIP3    H127083   0.076   0.407  -0.059 -3.0857  0.8341  0.5182
 1816TIP3    H227084   0.030   0.361   0.077 -0.4099  2.3149  2.0268
 1817TIP3   OH227085   4.715   1.915   1.689 -0.0253 -0.1947  0.4649
 1817TIP3    H127086   4.657   1.984   1.720 -1.2756 -1.3907  0.8470
 1817TIP3    H227087   4.772   1.896   1.764 -0.2553 -0.1774  0.6450
 1818TIP3   OH227088   4.597   2.195   1.526 -0.5392 -0.6125  0.1260
 1818TIP3    H127089   4.678   2.147   1.539 -0.1395  0.0424  0.0593
 1818TIP3    H227090   4.542   2.135   1.475 -0.0187 -0.9709 -0.0241
 1819TIP3   OH227091   2.740   4.666   8.326  0.1028 -0.3324  0.6434
 1819TIP3    H127092   2.754   4.574   8.348 -1.1919 -0.5295  0.6655
 1819TIP3    H227093   2.794   4.714   8.390  2.1210 -1.0690 -0.4000
 1820TIP3   OH227094   4.686   2.101   8.014  0.0042 -0.2488 -0.3383
 1820TIP3    H127095   4.647   2.112   7.928 -2.0311  1.8710  0.7565
 1820TIP3    H227096   4.633   2.035   8.057  1.4663 -1.8522 -0.8824
 1821TIP3   OH227097   3.528   6.706   8.473 -0.5396  0.1793  0.3048
 1821TIP3    H127098   3.535   6.630   8.415 -0.9401 -0.7271  1.4132
 1821TIP3    H227099   3.519   6.669   8.560 -0.7813  1.5090  0.8662
 1822TIP3   OH227100   6.017   6.511   2.838 -0.1077  0.1750 -0.0305
 1822TIP3    H127101   6.041   6.600   2.812 -1.2425  0.5453  0.1321
 1822TIP3    H227102   6.037   6.457   2.761 -0.4839  0.7624 -0.5507
 1823TIP3   OH227103   6.335   5.362   0.648 -0.4795  0.2922  0.2962
 1823TIP3    H127104   6.356   5.283   0.599  0.7536  0.6056  0.2953
 1823TIP3    H227105   6.273   5.332   0.715 -2.0416 -0.1713 -1.2735
 1824TIP3   OH227106   2.306   5.375   8.235 -0.3551  0.3484 -0.0025
 1824TIP3    H127107   2.267   5.400   8.152 -0.1009  0.5289 -0.0666
 1824TIP3    H227108   2.282   5.283   8.246  1.0989 -0.2007 -1.1330
 1825TIP3   OH227109   0.910   4.867   0.146  0.0037  0.0668 -0.7776
 1825TIP3    H127110   0.964   4.788   0.143 -1.8948 -1.9221  4.3954
 1825TIP3    H227111   0.968   4.934   0.182  0.4880 -0.3683 -0.7375
 1826TIP3   OH227112   4.833   6.139   3.500 -0.3536  0.5076 -0.5450
 1826TIP3    H127113   4.868   6.227   3.519  2.7269 -0.6601 -0.2192
 1826TIP3    H227114   4.899   6.079   3.535 -3.1857 -2.0552  0.8746
 1827TIP3   OH227115   2.712   4.089   0.587 -0.4252 -0.2797  0.3158
 1827TIP3    H127116   2.738   4.168   0.635  1.6551  0.1391 -1.3888
 1827TIP3    H227117   2.616   4.093   0.586 -0.4275  1.2232  1.8556
 1828TIP3   OH227118   5.387   4.121   2.339 -0.1129  0.1258  0.3797
 1828TIP3    H127119   5.394   4.182   2.413 -0.7113  1.7709 -0.8392
 1828TIP3    H227120   5.293   4.116   2.321  0.0470  0.1484 -0.5475
 1829TIP3   OH227121   0.902   0.213   8.332  0.7447 -0.0017 -0.1494
 1829TIP3    H127122   0.825   0.164   8.304  0.9622  0.0019 -0.7479
 1829TIP3    H227123   0.871   0.262   8.409 -0.3324  1.3350 -1.3887
 1830TIP3   OH227124   1.585   5.721   1.591 -0.2571 -0.3177  0.0565
 1830TIP3    H127125   1.658   5.716   1.653  0.5499 -0.5767 -0.8711
 1830TIP3    H227126   1.531   5.793   1.623  0.8198  0.3889  0.3627
 1831TIP3   OH227127   1.983   5.932   7.379  0.2772 -0.1337  0.5152
 1831TIP3    H127128   2.023   5.861   7.329 -1.0562 -0.4637 -0.1290
 1831TIP3    H227129   2.041   6.007   7.366 -0.1526 -0.1260 -1.7756
 1832TIP3   OH227130   3.809   2.364   7.307  0.1773 -0.0950 -0.0798
 1832TIP3    H127131   3.794   2.425   7.234 -0.1262 -2.6498 -2.3003
 1832TIP3    H227132   3.730   2.371   7.361 -1.1278 -0.5119 -1.8566
 1833TIP3   OH227133   3.971   6.776   7.980 -0.1574 -0.1244 -0.3650
 1833TIP3    H127134   3.986   6.863   8.017  0.9081 -0.3252 -0.2745
 1833TIP3    H227135   3.880   6.777   7.951  0.1806  1.4324 -1.4869
 1834TIP3   OH227136   5.152   3.282   8.245 -0.3618 -0.6092 -0.1896
 1834TIP3    H127137   5.178   3.373   8.232  1.2040 -0.9166  0.5351
 1834TIP3    H227138   5.137   3.248   8.157  1.8350 -0.3940 -0.7198
 1835TIP3   OH227139   4.997   0.218   7.881 -0.4867 -0.3010  0.4861
 1835TIP3    H127140   5.061   0.250   7.945  1.3691 -2.1089 -0.3616
 1835TIP3    H227141   4.982   0.293   7.822  1.5450 -0.0794  0.2043
 1836TIP3   OH227142   2.141   0.099   2.261  0.1395  0.1959  0.0621
 1836TIP3    H127143   2.233   0.077   2.250 -0.0401 -1.6267  1.6322
 1836TIP3    H227144   2.095   0.040   2.201 -0.0495  0.1040  0.2925
 1837TIP3   OH227145   6.716   6.725   3.039  0.6953 -0.1148  1.1081
 1837TIP3    H127146   6.723   6.774   2.957  3.0288 -1.4081  0.4387
 1837TIP3    H227147   6.666   6.647   3.017 -0.2733  0.4108  1.3973
 1838TIP3   OH227148   6.265   5.947   8.175  0.1131 -0.2634  0.4383
 1838TIP3    H127149   6.265   5.952   8.080  0.0527 -1.5688  0.3418
 1838TIP3    H227150   6.179   5.910   8.196  0.6917 -1.4262  0.8740
 1839TIP3   OH227151   0.980   2.031   1.777  0.0297 -0.0472 -0.3611
 1839TIP3    H127152   1.003   2.107   1.830  1.1718 -0.3202 -0.4367
 1839TIP3    H227153   0.893   2.051   1.742 -0.1136  0.7724  0.4250
 1840TIP3   OH227154   6.158   4.618   2.033  0.1944 -0.1105 -0.0788
 1840TIP3    H127155   6.152   4.533   1.990  0.6558 -0.6706  0.9254
 1840TIP3    H227156   6.171   4.597   2.126  0.1344  1.0579  0.2105
 1841TIP3   OH227157   2.385   5.243   7.079 -0.0895 -0.2018  0.3074
 1841TIP3    H127158   2.385   5.233   7.174 -0.0892  1.6187  0.5383
 1841TIP3    H227159   2.454   5.307   7.062  0.2504 -0.8641 -0.9809
 1842TIP3   OH227160   5.091   2.729   2.323  0.2262  0.1647 -0.3051
 1842TIP3    H127161   5.152   2.751   2.252 -1.8533  0.2772 -2.1523
 1842TIP3    H227162   5.132   2.766   2.401  1.1950  2.8113 -1.9117
 1843TIP3   OH227163   6.842   4.902   7.388  1.0684  0.3646 -0.6178
 1843TIP3    H127164   6.814   4.877   7.476  2.8798  0.7545  0.1249
 1843TIP3    H227165   6.770   4.955   7.354 -0.1217 -0.6621  0.1993
 1844TIP3   OH227166   5.809   3.070   1.543  0.6068  0.7439  0.3019
 1844TIP3    H127167   5.788   2.981   1.515 -1.8196  1.1484  0.6172
 1844TIP3    H227168   5.864   3.106   1.473 -1.7694  0.3147 -1.9089
 1845TIP3   OH227169   1.986   4.173   1.262  0.0369 -0.3513 -0.1399
 1845TIP3    H127170   1.973   4.212   1.349  0.1495 -0.7782  0.0703
 1845TIP3    H227171   2.080   4.152   1.259  0.2407  0.5614 -0.7472
 1846TIP3   OH227172   6.799   0.141   7.913  0.1489  0.2315 -0.9382
 1846TIP3    H127173   6.816   0.056   7.871  0.1972 -0.9537  1.2746
 1846TIP3    H227174   6.719   0.126   7.964  1.4281  0.7404  1.3402
 1847TIP3   OH227175   5.392   5.125   3.737  0.7492 -0.9451  0.0639
 1847TIP3    H127176   5.469   5.118   3.794  1.0131 -0.5260 -0.2358
 1847TIP3    H227177   5.418   5.188   3.670  0.0819 -0.6673  0.0608
 1848TIP3   OH227178   5.356   3.839   8.037 -0.7634  0.0450 -0.6083
 1848TIP3    H127179   5.410   3.765   8.063  2.1580  1.8778 -0.9651
 1848TIP3    H227180   5.392   3.866   7.952 -1.1936  2.3066 -0.1440
 1849TIP3   OH227181   1.559   0.503   8.102 -0.0494  0.2011  0.1714
 1849TIP3    H127182   1.519   0.456   8.175 -1.3154 -0.7714 -1.0874
 1849TIP3    H227183   1.503   0.482   8.027 -0.8980  3.9439 -0.4579
 1850TIP3   OH227184   6.165   5.264   0.107  0.3098  0.5262  0.0362
 1850TIP3    H127185   6.115   5.209   0.047 -0.4421  0.1651  0.9530
 1850TIP3    H227186   6.251   5.273   0.067  0.5600 -1.5692 -0.0065
 1851TIP3   OH227187   5.373   4.642   0.648  0.2744  0.2087 -0.0840
 1851TIP3    H127188   5.398   4.665   0.737  0.8999 -0.3972 -0.0923
 1851TIP3    H227189   5.358   4.547   0.652  1.5624 -0.0510 -0.8966
 1852TIP3   OH227190   4.480   5.844   2.244  0.3336  0.1829 -0.1225
 1852TIP3    H127191   4.406   5.797   2.207 -0.7226  1.5044  0.2283
 1852TIP3    H227192   4.498   5.800   2.327 -0.1470 -0.0717 -0.1498
 1853TIP3   OH227193   4.200   5.554   0.316 -0.2563  0.1694  0.6680
 1853TIP3    H127194   4.264   5.603   0.369  1.0640 -0.7878 -0.0096
 1853TIP3    H227195   4.154   5.499   0.380  1.6400 -1.3204  0.8226
 1854TIP3   OH227196   1.887   2.182   1.884  0.1046 -0.0724 -0.0179
 1854TIP3    H127197   1.877   2.088   1.896  0.5555 -0.1048  0.1085
 1854TIP3    H227198   1.920   2.213   1.968  1.7190 -0.0644 -0.6266
 1855TIP3   OH227199   3.375   3.349   1.457  0.5140  0.3211 -0.0469
 1855TIP3    H127200   3.414   3.412   1.395 -0.0782  1.5038  0.7452
 1855TIP3    H227201   3.447   3.292   1.481  1.0632  0.6557 -0.8426
 1856TIP3   OH227202   2.739   1.481   7.636  0.7043 -0.0867  0.0797
 1856TIP3    H127203   2.661   1.535   7.630  1.4893  1.1534  0.5616
 1856TIP3    H227204   2.727   1.413   7.571 -0.6931  0.1839  0.0350
 1857TIP3   OH227205   4.424   1.425   2.773  0.1341 -0.0624 -0.4792
 1857TIP3    H127206   4.405   1.382   2.690 -4.3709  1.1058 -0.3002
 1857TIP3    H227207   4.424   1.354   2.837  0.8447 -0.6308 -1.0847
 1858TIP3   OH227208   3.055   4.635   2.671  0.2081  0.3832 -0.3241
 1858TIP3    H127209   3.145   4.667   2.664  0.3532  0.0711  0.0975
 1858TIP3    H227210   3.033   4.644   2.763  0.6143 -1.6687  0.0194
 1859TIP3   OH227211   4.231   6.521   1.004  0.1815 -0.0968  0.3259
 1859TIP3    H127212   4.183   6.453   0.958  0.0553  0.7452 -0.8352
 1859TIP3    H227213   4.304   6.475   1.045  0.9929 -0.7441 -1.7032
 1860TIP3   OH227214   4.880   4.883   0.740  0.4290  0.3373  0.0737
 1860TIP3    H127215   4.848   4.805   0.785 -3.2615  0.1850 -2.3589
 1860TIP3    H227216   4.938   4.850   0.672 -1.0514 -0.3719 -0.8933
 1861TIP3   OH227217   1.763   0.315   0.273  0.0427 -0.0742 -0.3251
 1861TIP3    H127218   1.669   0.298   0.259 -0.0449 -0.2937  0.4654
 1861TIP3    H227219   1.808   0.249   0.221 -0.2344  0.2247 -0.9540
 1862TIP3   OH227220   6.770   2.813   8.219  0.0915  0.1514  0.7063
 1862TIP3    H127221   6.779   2.721   8.245 -0.6670  0.1914  1.1563
 1862TIP3    H227222   6.711   2.810   8.144  2.5215  0.0071 -1.2984
 1863TIP3   OH227223   3.208   6.291   0.864 -0.3081 -0.1006  0.2932
 1863TIP3    H127224   3.176   6.381   0.869 -1.4516 -0.5386  1.9554
 1863TIP3    H227225   3.301   6.299   0.845 -0.7327  1.3525 -1.3702
 1864TIP3   OH227226   5.445   6.084   0.993  0.0668  0.0110  0.3863
 1864TIP3    H127227   5.478   6.166   1.030 -0.8463 -0.4390  2.3440
 1864TIP3    H227228   5.362   6.070   1.038 -0.4210 -1.3275 -0.8824
 1865TIP3   OH227229   0.675   1.166   8.579 -0.1711  0.4226  0.6198
 1865TIP3    H127230   0.763   1.203   8.573 -0.3944  1.0539  1.1034
 1865TIP3    H227231   0.685   1.088   8.634  0.4167 -0.6448 -0.9362
 1866TIP3   OH227232   5.964   1.970   1.701  0.3217 -0.2973  0.5478
 1866TIP3    H127233   5.903   1.900   1.676 -0.0015 -0.7122  2.3299
 1866TIP3    H227234   5.956   1.976   1.796  0.1621  2.3461  0.4552
 1867TIP3   OH227235   4.008   1.963   1.609 -0.4963  0.1356  0.4368
 1867TIP3    H127236   3.915   1.978   1.626 -0.7423  0.2815 -0.9361
 1867TIP3    H227237   4.017   1.973   1.515  0.9209  0.1177  0.5491
 1868TIP3   OH227238   1.497   1.806   8.349 -0.3994 -0.5256  0.3243
 1868TIP3    H127239   1.547   1.766   8.420 -1.9830 -0.7050  1.3901
 1868TIP3    H227240   1.534   1.767   8.269  1.6015 -0.1063  0.9911
 1869TIP3   OH227241   5.196   3.604   1.937 -0.2055  0.0985 -0.3473
 1869TIP3    H127242   5.114   3.563   1.910 -0.6837  0.8040  0.0050
 1869TIP3    H227243   5.238   3.629   1.855 -0.6626  0.3463 -0.5099
 1870TIP3   OH227244   2.524   5.531   0.225  0.3206 -0.5586 -0.6018
 1870TIP3    H127245   2.483   5.446   0.211  1.0255 -0.8634 -0.8610
 1870TIP3    H227246   2.587   5.515   0.295  0.6536 -0.3164 -0.8456
 1871TIP3   OH227247   3.108   0.424   0.032 -0.2851  0.0711  0.8961
 1871TIP3    H127248   3.183   0.382  -0.010  0.3796  2.8612 -1.0211
 1871TIP3    H227249   3.033   0.399  -0.022 -0.3911 -0.8399  1.4394
 1872TIP3   OH227250   0.433   6.027   1.278  0.4401 -0.2898 -1.1060
 1872TIP3    H127251   0.438   5.931   1.282  0.1801 -0.3058 -1.1406
 1872TIP3    H227252   0.467   6.049   1.192  1.6216 -0.2686 -0.6563
 1873TIP3   OH227253   6.775   1.681   1.539  0.2859 -0.1192  0.1682
 1873TIP3    H127254   6.736   1.722   1.616  1.0360 -0.8486  0.9540
 1873TIP3    H227255   6.861   1.723   1.530  0.0543  0.2355 -0.5164
 1874TIP3   OH227256   2.771   5.935   0.826 -0.1676  0.0612  0.3029
 1874TIP3    H127257   2.785   5.929   0.920 -2.1780 -2.0266  0.5370
 1874TIP3    H227258   2.811   5.855   0.790  0.6372  0.8622 -0.6591
 1875TIP3   OH227259   4.792   3.817   2.451  0.0611  0.4904  0.7919
 1875TIP3    H127260   4.859   3.750   2.436 -0.5063  0.3174 -1.3579
 1875TIP3    H227261   4.840   3.892   2.486  0.7693 -0.8415  2.8698
 1876TIP3   OH227262   6.587   4.702   8.525  0.1362 -0.0697 -0.5790
 1876TIP3    H127263   6.576   4.741   8.438  1.1632  0.1995 -0.5936
 1876TIP3    H227264   6.532   4.756   8.582  0.7713  0.7931 -0.7719
 1877TIP3   OH227265   0.506   5.701   2.570 -0.2000  0.2377 -0.9959
 1877TIP3    H127266   0.491   5.747   2.652  1.9763  0.8315 -0.8595
 1877TIP3    H227267   0.592   5.660   2.581  0.2616  0.5365 -3.0357
 1878TIP3   OH227268   2.958   5.313   7.563  0.2506 -0.4270  0.1512
 1878TIP3    H127269   2.993   5.238   7.612  1.7988 -1.0295 -1.7773
 1878TIP3    H227270   3.011   5.387   7.591  0.2207 -0.4879  0.3770
 1879TIP3   OH227271   1.239   6.667   2.616  0.2897  0.3017  0.0294
 1879TIP3    H127272   1.314   6.724   2.630 -1.3899  2.9002 -0.7293
 1879TIP3    H227273   1.248   6.637   2.525  0.0514  1.2916 -0.3417
 1880TIP3   OH227274   5.338   0.154   1.290 -0.4285 -0.0273  0.1038
 1880TIP3    H127275   5.426   0.191   1.300 -0.8062  1.3554 -1.3528
 1880TIP3    H227276   5.322   0.108   1.372  2.1585 -1.4284 -0.0681
 1881TIP3   OH227277   2.594   4.646   0.103  0.6783  0.2225 -0.2421
 1881TIP3    H127278   2.609   4.626   0.196 -1.6078  1.3392  0.4535
 1881TIP3    H227279   2.635   4.731   0.090  0.2243  0.4843  0.0084
 1882TIP3   OH227280   4.534   3.213   2.722 -0.1833 -0.3639  0.1632
 1882TIP3    H127281   4.589   3.288   2.703  0.4413 -1.1126 -1.1533
 1882TIP3    H227282   4.448   3.251   2.744 -0.0943  0.7206 -1.2137
 1883TIP3   OH227283   1.907   1.651   7.606 -0.0016 -0.2024 -0.6439
 1883TIP3    H127284   1.906   1.662   7.511 -0.6564  0.6736 -0.5493
 1883TIP3    H227285   1.992   1.686   7.633  0.3722 -0.8559 -0.9342
 1884TIP3   OH227286   6.646   3.833   2.496  0.2191 -0.0248  0.8221
 1884TIP3    H127287   6.650   3.919   2.454 -0.6075 -0.8940 -1.1338
 1884TIP3    H227288   6.558   3.801   2.477  0.4392 -1.2379  1.7070
 1885TIP3   OH227289   6.252   6.362   7.644  0.0480  0.2548  0.0308
 1885TIP3    H127290   6.228   6.451   7.619  0.3470  0.1941 -0.4740
 1885TIP3    H227291   6.346   6.367   7.665  0.5551 -0.3340 -1.9204
 1886TIP3   OH227292   5.915   3.741   0.935 -0.0851  0.1075 -0.5361
 1886TIP3    H127293   5.975   3.794   0.986 -1.0162 -0.3468  1.0895
 1886TIP3    H227294   5.950   3.652   0.940  1.2846  0.4050 -2.9728
 1887TIP3   OH227295   1.529   6.609   1.946 -0.5667 -0.3272 -0.1218
 1887TIP3    H127296   1.526   6.702   1.972  1.2939 -0.4626  0.7410
 1887TIP3    H227297   1.565   6.565   2.023 -0.4527 -1.6204 -0.9055
 1888TIP3   OH227298   6.684   3.304   0.703  0.3718 -0.1564  0.3413
 1888TIP3    H127299   6.647   3.268   0.784 -2.7436  1.4774 -0.1655
 1888TIP3    H227300   6.726   3.385   0.730 -0.6892  0.4025  0.3995
 1889TIP3   OH227301   6.378   1.111   0.984 -0.0734 -0.4988  0.4449
 1889TIP3    H127302   6.428   1.132   1.063  3.3218  0.5422 -1.7666
 1889TIP3    H227303   6.380   1.015   0.980  0.0379 -0.5504  1.4025
 1890TIP3   OH227304   5.542   6.823   1.099 -0.2361  0.0168 -0.3178
 1890TIP3    H127305   5.574   6.759   1.162  0.5888  0.5329 -0.1903
 1890TIP3    H227306   5.587   6.904   1.122  0.5819  0.0753 -1.9597
 1891TIP3   OH227307   0.171   1.800   8.071 -0.0696 -0.8977  0.3635
 1891TIP3    H127308   0.109   1.750   8.123  0.3870 -0.2598  1.5618
 1891TIP3    H227309   0.140   1.890   8.076 -0.5749 -0.9389 -1.3217
 1892TIP3   OH227310   1.839   1.305   7.753 -0.2856 -0.1181  0.1894
 1892TIP3    H127311   1.924   1.342   7.779  0.8341 -0.7324 -2.2911
 1892TIP3    H227312   1.793   1.377   7.711 -0.3444 -0.1770  0.1524
 1893TIP3   OH227313   3.407   0.594   1.652  0.1242  0.5491  0.5317
 1893TIP3    H127314   3.385   0.687   1.649  0.2755  0.5874  0.6314
 1893TIP3    H227315   3.432   0.573   1.562  0.3816  0.6750  0.5725
 1894TIP3   OH227316   5.199   6.770   7.722  0.2050  0.1227  0.0418
 1894TIP3    H127317   5.286   6.767   7.761 -0.1383 -0.0294  0.8075
 1894TIP3    H227318   5.139   6.776   7.797 -0.4812 -0.4950 -0.4416
 1895TIP3   OH227319   4.161   4.846   7.714  0.2607 -0.4351  0.1824
 1895TIP3    H127320   4.071   4.852   7.744  1.1370  1.7247  2.8545
 1895TIP3    H227321   4.174   4.754   7.692 -2.7416 -0.6653 -1.0635
 1896TIP3   OH227322   4.218   1.280   1.661 -0.0831  0.4812 -0.7891
 1896TIP3    H127323   4.190   1.192   1.688  1.1731 -0.3666 -2.0838
 1896TIP3    H227324   4.276   1.310   1.731 -1.7065  0.9646  0.4065
 1897TIP3   OH227325   1.861   4.476   7.248  0.3564  0.2668 -0.3959
 1897TIP3    H127326   1.769   4.476   7.275 -0.4618  0.1237 -2.8827
 1897TIP3    H227327   1.894   4.390   7.272 -0.3319  0.1137  0.0216
 1898TIP3   OH227328   0.824   0.070   7.005  0.1841 -0.1381  0.7056
 1898TIP3    H127329   0.910   0.059   7.046 -0.4576 -0.7146  1.9453
 1898TIP3    H227330   0.793  -0.019   6.988  0.1238  0.0756 -0.4226
 1899TIP3   OH227331   4.706   1.367   1.447  0.5709  0.0795  0.1940
 1899TIP3    H127332   4.696   1.369   1.352  1.8093  0.6436  0.0500
 1899TIP3    H227333   4.800   1.357   1.461  0.4422  0.2887  1.3637
 1900TIP3   OH227334   0.988   0.661   0.740  0.1130 -0.0322 -0.3474
 1900TIP3    H127335   1.016   0.575   0.709  0.2289  0.1835 -0.8398
 1900TIP3    H227336   0.921   0.641   0.806  0.6562 -0.5199  0.0738
 1901TIP3   OH227337   1.187   3.250   7.977  0.4155 -0.5244  0.1234
 1901TIP3    H127338   1.189   3.176   8.037 -0.0750 -1.0695 -0.5180
 1901TIP3    H227339   1.261   3.236   7.918 -1.0616 -1.8135 -1.5018
 1902TIP3   OH227340   0.907   6.233   8.417  0.0658 -0.8327  0.3992
 1902TIP3    H127341   0.958   6.219   8.337 -1.0012  3.1302 -1.1917
 1902TIP3    H227342   0.831   6.176   8.407  0.2922 -0.9135 -1.0757
 1903TIP3   OH227343   0.292   2.691   0.536 -0.2387  0.0073  0.3647
 1903TIP3    H127344   0.349   2.634   0.485  0.5924  0.3960  0.8279
 1903TIP3    H227345   0.222   2.716   0.475  0.3791 -0.0532 -0.3875
 1904TIP3   OH227346   4.419   1.765   0.455  0.3715 -0.1931  0.2918
 1904TIP3    H127347   4.437   1.758   0.548 -0.0285 -0.1457  0.3764
 1904TIP3    H227348   4.334   1.810   0.450 -0.4155 -1.6397 -0.0380
 1905TIP3   OH227349   1.149   6.340   2.506 -0.5316  0.3200  0.6161
 1905TIP3    H127350   1.068   6.328   2.557  0.1985 -0.3084  1.6604
 1905TIP3    H227351   1.127   6.409   2.443 -1.5028  1.0577  1.7169
 1906TIP3   OH227352   4.170   3.244   8.471  0.4928 -0.1652 -0.3154
 1906TIP3    H127353   4.099   3.308   8.479  0.3963 -0.3529  0.3677
 1906TIP3    H227354   4.218   3.251   8.553  0.3102 -1.1666 -0.1162
 1907TIP3   OH227355   2.964   0.056   2.052 -0.7759  0.1248  0.1961
 1907TIP3    H127356   3.045   0.009   2.071 -0.4126  0.4281 -0.6046
 1907TIP3    H227357   2.945   0.103   2.134 -0.9980 -1.1615  0.9214
 1908TIP3   OH227358   5.452   4.043   0.703  0.9025  0.0962 -0.1895
 1908TIP3    H127359   5.545   4.048   0.723  0.5010 -0.5054  2.1727
 1908TIP3    H227360   5.417   3.982   0.768 -1.2242  0.6351 -0.7509
 1909TIP3   OH227361   1.603   2.306   8.253  0.2539  0.2359  0.0660
 1909TIP3    H127362   1.546   2.379   8.276 -0.0065  0.0667 -0.0435
 1909TIP3    H227363   1.588   2.242   8.323 -1.1376 -0.6185 -0.9902
 1910TIP3   OH227364   4.877   6.606   8.576 -0.2370  1.0982  0.0253
 1910TIP3    H127365   4.844   6.522   8.606  0.8558  0.3231 -0.8990
 1910TIP3    H227366   4.920   6.644   8.654 -0.8495  0.8839  0.4756
 1911TIP3   OH227367   5.024   2.752   0.046 -0.7241 -0.2989  0.3577
 1911TIP3    H127368   5.030   2.742  -0.049 -0.3254  1.7868  0.1181
 1911TIP3    H227369   4.971   2.677   0.074  1.0172 -2.2647 -1.1909
 1912TIP3   OH227370   2.731   1.052   1.588 -0.3502 -0.2604 -0.1747
 1912TIP3    H127371   2.739   1.043   1.683 -1.8143 -1.9158 -0.1715
 1912TIP3    H227372   2.638   1.041   1.570  0.0490 -1.0933 -1.9014
 1913TIP3   OH227373   3.983   0.228   0.825  0.8336 -0.0114  0.4379
 1913TIP3    H127374   3.940   0.267   0.901 -0.5512  1.8573 -1.1998
 1913TIP3    H227375   4.070   0.267   0.824  1.3892 -1.1049  1.7715
 1914TIP3   OH227376   3.165   3.875   1.376  0.2496  0.6019  0.3786
 1914TIP3    H127377   3.147   3.800   1.433 -2.8751 -0.0503 -1.2509
 1914TIP3    H227378   3.200   3.837   1.296 -0.7992  0.8755 -0.2338
 1915TIP3   OH227379   3.005   2.395   7.719 -0.0185  0.1541 -0.6232
 1915TIP3    H127380   3.071   2.450   7.677 -0.4366  1.9286  0.9232
 1915TIP3    H227381   2.975   2.337   7.650  2.7845 -0.3824 -1.4936
 1916TIP3   OH227382   1.078   1.151   7.874 -0.3073 -0.2284  0.3798
 1916TIP3    H127383   1.013   1.084   7.894 -1.3573  0.0593 -1.7988
 1916TIP3    H227384   1.065   1.171   7.781  2.4113  0.3726  0.0247
 1917TIP3   OH227385   2.468   3.338   1.893  0.0045  0.0512  0.0433
 1917TIP3    H127386   2.469   3.260   1.837  0.8032  0.0571  0.0304
 1917TIP3    H227387   2.399   3.393   1.856 -0.1993 -0.4123 -0.2813
 1918TIP3   OH227388   0.082   0.921   1.256  0.3994  0.2514  0.1058
 1918TIP3    H127389   0.026   0.975   1.201 -1.6661  0.1897  1.9843
 1918TIP3    H227390   0.130   0.984   1.310  0.4334  0.2697  0.0540
 1919TIP3   OH227391   2.113   6.777   1.518 -0.1515  0.0564 -0.2465
 1919TIP3    H127392   2.201   6.742   1.525 -0.0550  0.0572 -1.3085
 1919TIP3    H227393   2.106   6.839   1.590 -0.5843 -2.5985  2.2058
 1920TIP3   OH227394   4.177   5.678   7.468 -0.8198 -0.3585 -0.8957
 1920TIP3    H127395   4.145   5.593   7.497 -2.8628  0.4742 -0.5042
 1920TIP3    H227396   4.272   5.672   7.474 -0.9912 -1.8066  1.4715
 1921TIP3   OH227397   2.999   2.556   2.249 -0.1225  0.3868 -0.0904
 1921TIP3    H127398   3.023   2.564   2.341  0.5277 -0.5928 -0.1536
 1921TIP3    H227399   2.907   2.584   2.245 -0.0942  0.6279  0.8152
 1922TIP3   OH227400   3.510   2.416   1.596 -0.1888 -0.4944 -0.4013
 1922TIP3    H127401   3.489   2.471   1.520  1.1023  1.8720  0.8077
 1922TIP3    H227402   3.443   2.438   1.661  1.0373  0.7157  0.5287
 1923TIP3   OH227403   1.623   1.811   8.029  0.0163 -0.1363  0.2833
 1923TIP3    H127404   1.695   1.867   8.056  0.3882  0.1711 -1.2515
 1923TIP3    H227405   1.642   1.789   7.938 -0.2943 -2.4786  0.7110
 1924TIP3   OH227406   0.108   4.462   3.416  0.3722 -0.2478  0.5964
 1924TIP3    H127407   0.057   4.490   3.341 -1.2307 -1.2369  1.2670
 1924TIP3    H227408   0.194   4.503   3.404  0.4086 -0.9494 -2.1167
 1925TIP3   OH227409   0.216   0.124   3.046 -0.0040  0.2948  0.1290
 1925TIP3    H127410   0.287   0.188   3.054  1.0664 -0.7239 -0.8426
 1925TIP3    H227411   0.166   0.153   2.969  0.9110 -0.4032 -0.7551
 1926TIP3   OH227412   0.577   4.759   0.759  0.3404 -0.3249  0.1379
 1926TIP3    H127413   0.527   4.787   0.682  1.2893 -1.2171 -0.8444
 1926TIP3    H227414   0.550   4.668   0.773  0.2069 -0.1790  0.8348
 1927TIP3   OH227415   1.016   3.969   0.942  0.2966  0.0704 -0.1346
 1927TIP3    H127416   1.051   3.882   0.920 -0.0504 -0.4148  1.1765
 1927TIP3    H227417   1.047   4.025   0.871 -0.2826 -1.3032 -1.5352
 1928TIP3   OH227418   3.480   4.098   8.119 -0.2826  0.0346  0.1640
 1928TIP3    H127419   3.459   4.103   8.212  0.5354 -0.3033  0.3762
 1928TIP3    H227420   3.483   4.004   8.100 -0.6423  0.1028 -0.2543
 1929TIP3   OH227421   4.693   5.581   2.961 -0.1029  0.0901 -0.5556
 1929TIP3    H127422   4.654   5.609   3.044  0.0647  0.8602 -0.7317
 1929TIP3    H227423   4.644   5.503   2.937 -0.8745  0.4740 -0.2745
 1930TIP3   OH227424   3.857   5.357   0.004  0.4860 -0.0617 -0.2330
 1930TIP3    H127425   3.862   5.402   0.088 -0.2598 -0.5524  0.0842
 1930TIP3    H227426   3.823   5.270   0.025 -0.0994 -0.0547 -1.0850
 1931TIP3   OH227427   0.255   1.224   2.800 -0.0078 -0.1104 -0.6299
 1931TIP3    H127428   0.293   1.308   2.827  1.0242 -0.1937 -1.7664
 1931TIP3    H227429   0.197   1.200   2.873 -0.0321  1.3944 -0.1223
 1932TIP3   OH227430   3.528   3.838   7.826 -0.0137 -0.4027 -0.1994
 1932TIP3    H127431   3.510   3.840   7.733 -1.3960 -0.5624  0.0427
 1932TIP3    H227432   3.442   3.849   7.868  0.6931  0.7472  1.0503
 1933TIP3   OH227433   0.899   4.716   0.564  0.2036 -0.2188 -0.0613
 1933TIP3    H127434   0.925   4.771   0.639 -1.1077 -0.2194  0.4208
 1933TIP3    H227435   0.974   4.719   0.505  1.3564 -0.3823  1.3471
 1934TIP3   OH227436   6.628   3.800   0.809 -0.4132  0.2714  0.1806
 1934TIP3    H127437   6.711   3.755   0.826  0.8704  0.5883 -3.9460
 1934TIP3    H227438   6.560   3.738   0.837  1.2632 -1.7875 -0.0579
 1935TIP3   OH227439   1.309   4.609   0.824  0.2130 -0.7544 -0.2068
 1935TIP3    H127440   1.320   4.674   0.755  0.1026 -0.2121  0.2775
 1935TIP3    H227441   1.321   4.658   0.905 -0.5159 -1.2099  0.1862
 1936TIP3   OH227442   1.387   5.096   0.133  0.4733 -0.2239  0.4200
 1936TIP3    H127443   1.346   5.178   0.104  0.7286  0.0449  0.7935
 1936TIP3    H227444   1.481   5.111   0.122  0.6323  0.1611  2.0039
 1937TIP3   OH227445   4.594   0.920   2.217  0.4154  0.1837 -0.2086
 1937TIP3    H127446   4.572   0.924   2.310  1.0445  1.2442 -0.0895
 1937TIP3    H227447   4.523   0.968   2.174 -0.2203 -0.8544 -0.3624
 1938TIP3   OH227448   6.467   5.574   2.846  0.1442  0.1818 -0.1839
 1938TIP3    H127449   6.522   5.523   2.786  0.4075  1.6245 -1.2269
 1938TIP3    H227450   6.463   5.521   2.925  2.8161 -0.1209 -0.1644
 1939TIP3   OH227451   3.686   6.150   1.229  0.6020  0.0608  0.3008
 1939TIP3    H127452   3.605   6.200   1.224  0.7451  0.3963  1.1329
 1939TIP3    H227453   3.659   6.059   1.222  0.2313  0.2046 -0.1504
 1940TIP3   OH227454   2.818   1.127   2.272  0.2393 -0.2338 -0.5958
 1940TIP3    H127455   2.821   1.211   2.226 -0.1781  0.4907  0.6378
 1940TIP3    H227456   2.899   1.084   2.249  0.4220  0.4808 -1.3267
 1941TIP3   OH227457   3.543   6.247   7.992  0.1916 -0.1531 -0.3880
 1941TIP3    H127458   3.547   6.219   7.901 -1.2448 -0.2371 -0.4341
 1941TIP3    H227459   3.502   6.333   7.990  1.5179  0.5326  0.0750
 1942TIP3   OH227460   6.464   1.850   0.836  0.1436  0.2330  0.5187
 1942TIP3    H127461   6.519   1.926   0.854  0.9444 -0.7863  2.7096
 1942TIP3    H227462   6.516   1.797   0.775  1.2103 -0.2445  1.7977
 1943TIP3   OH227463   1.169   6.780   0.694 -0.0347  0.5348  0.5925
 1943TIP3    H127464   1.168   6.875   0.683 -0.9938  0.4784  0.1157
 1943TIP3    H227465   1.134   6.766   0.782  0.7895  0.6499  0.9455
 1944TIP3   OH227466   1.978   5.137   8.528  0.3413 -0.4841  0.3096
 1944TIP3    H127467   1.948   5.201   8.463 -0.6139 -1.6634 -0.4329
 1944TIP3    H227468   1.928   5.058   8.510  1.8528 -1.6300  0.9027
 1945TIP3   OH227469   1.492   6.800   1.366 -0.1747 -0.0693 -0.2389
 1945TIP3    H127470   1.505   6.719   1.317  2.7878  0.4251 -0.4480
 1945TIP3    H227471   1.576   6.816   1.409 -1.4828  1.5513  1.9377
 1946TIP3   OH227472   5.573   6.314   7.294  0.3299 -0.2300 -0.8225
 1946TIP3    H127473   5.626   6.335   7.371 -0.3966 -0.3292 -0.2794
 1946TIP3    H227474   5.635   6.313   7.221  0.7069  2.1070 -0.6105
 1947TIP3   OH227475   3.976   1.332   3.272  0.0422  0.0197 -0.2469
 1947TIP3    H127476   4.061   1.325   3.229 -1.0397 -1.1157 -2.3376
 1947TIP3    H227477   3.925   1.391   3.217 -0.8065  0.0444  0.5229
 1948TIP3   OH227478   2.779   4.313   0.753  0.1738 -0.6013 -0.4627
 1948TIP3    H127479   2.856   4.358   0.718  0.7170 -1.7792 -0.8453
 1948TIP3    H227480   2.744   4.373   0.819  1.7309 -0.2698  0.1065
 1949TIP3   OH227481   0.409   6.635   8.455  0.3190 -0.1093  0.2589
 1949TIP3    H127482   0.446   6.579   8.524 -0.0228 -1.7294 -0.8003
 1949TIP3    H227483   0.410   6.579   8.377 -0.9105  1.0866 -0.6473
 1950TIP3   OH227484   5.813   0.978   1.489  0.2950 -0.5792 -0.1585
 1950TIP3    H127485   5.889   0.945   1.440 -0.1516 -3.4694  0.8925
 1950TIP3    H227486   5.849   1.044   1.548  1.7465 -0.8274 -0.7261
 1951TIP3   OH227487   2.533   4.428   1.391  0.2798  0.4201 -0.1831
 1951TIP3    H127488   2.526   4.388   1.304  1.6688 -0.3372  0.0320
 1951TIP3    H227489   2.611   4.483   1.385 -0.5093  1.6125  0.1280
 1952TIP3   OH227490   6.758   1.081   1.077  0.0630 -0.6951  0.5859
 1952TIP3    H127491   6.669   1.114   1.088 -0.2386 -0.7273 -1.4229
 1952TIP3    H227492   6.812   1.137   1.133 -1.0994 -0.1357  1.1714
 1953TIP3   OH227493   4.926   6.045   2.126 -0.3936 -0.0354 -0.1448
 1953TIP3    H127494   4.844   5.998   2.110  0.0040 -0.4639 -0.9759
 1953TIP3    H227495   4.953   6.016   2.213 -0.0866 -1.4658 -0.6957
 1954TIP3   OH227496   5.591   3.666   8.495 -0.6150  0.0212 -1.0203
 1954TIP3    H127497   5.594   3.625   8.582 -1.9186 -1.4583 -1.6173
 1954TIP3    H227498   5.662   3.730   8.496 -1.3557  0.9393  1.5748
 1955TIP3   OH227499   0.671   0.511   2.642 -0.2864  0.0184 -0.0212
 1955TIP3    H127500   0.650   0.441   2.703  0.6779 -0.0847  0.2115
 1955TIP3    H227501   0.707   0.581   2.698 -1.9097  1.0093 -0.1514
 1956TIP3   OH227502   4.730   4.413   2.338 -0.0871 -0.0897 -0.2377
 1956TIP3    H127503   4.718   4.407   2.243  0.0276 -0.1760 -0.2463
 1956TIP3    H227504   4.749   4.323   2.366  1.5453  0.1792 -0.3607
 1957TIP3   OH227505   0.400   2.909   0.684 -0.3433 -0.4293 -0.1544
 1957TIP3    H127506   0.469   2.881   0.744  0.2789 -0.6340 -0.9521
 1957TIP3    H227507   0.375   2.830   0.637 -0.3091 -0.1343 -0.6786
 1958TIP3   OH227508   6.241   5.136   7.844  0.4722 -0.1853  0.3569
 1958TIP3    H127509   6.193   5.052   7.842  1.1487 -0.5703 -1.6947
 1958TIP3    H227510   6.330   5.113   7.817  1.1008  0.9881  1.3368
 1959TIP3   OH227511   4.464   2.810   7.979 -0.3044  0.4688 -0.1464
 1959TIP3    H127512   4.438   2.720   7.995  1.8946 -0.3697 -0.8014
 1959TIP3    H227513   4.511   2.807   7.895  1.3072  1.8554  0.6322
 1960TIP3   OH227514   4.534   6.016   1.084  0.0719 -0.0212  0.0587
 1960TIP3    H127515   4.507   6.003   1.175  1.2662  1.4709  0.6791
 1960TIP3    H227516   4.621   5.976   1.079 -0.0289 -0.1812 -0.4560
 1961TIP3   OH227517   4.505   4.880   1.828  0.3474  0.5393  0.5951
 1961TIP3    H127518   4.532   4.965   1.863 -1.2954  0.9913  0.8255
 1961TIP3    H227519   4.587   4.830   1.823  0.9451  0.9739  3.6164
 1962TIP3   OH227520   0.372   2.509   2.128 -0.2414  0.7109  0.5792
 1962TIP3    H127521   0.365   2.571   2.201 -1.3301  0.4572  0.7012
 1962TIP3    H227522   0.308   2.441   2.148  1.5521 -0.9734  0.9085
 1963TIP3   OH227523   1.018   4.832   0.775 -0.5044  0.5298  0.4037
 1963TIP3    H127524   0.973   4.833   0.860 -1.1126 -0.4014  0.1186
 1963TIP3    H227525   1.104   4.870   0.793 -0.9312  1.1415  1.2478
 1964TIP3   OH227526   1.540   2.973   7.995 -0.0905 -0.0622 -0.3702
 1964TIP3    H127527   1.576   2.953   7.908 -1.1827 -1.6839 -0.4815
 1964TIP3    H227528   1.596   2.925   8.056  3.0905  3.9624  0.3448
 1965TIP3   OH227529   0.013   6.511   8.118 -0.2978 -0.2255  0.3140
 1965TIP3    H127530  -0.046   6.459   8.064  0.5442  0.5735 -1.4550
 1965TIP3    H227531   0.065   6.446   8.165  1.1459 -1.0921 -2.2916
 1966TIP3   OH227532   3.000   1.459   0.970  0.4037 -0.2063 -0.0308
 1966TIP3    H127533   2.964   1.428   1.053  0.6714  2.5838  1.2533
 1966TIP3    H227534   2.985   1.387   0.909  0.9095 -2.7168  2.5735
 1967TIP3   OH227535   6.005   5.105   8.706 -0.6995  0.0116 -0.9639
 1967TIP3    H127536   5.997   5.091   8.612  0.2663  0.3046 -1.1029
 1967TIP3    H227537   5.950   5.037   8.745 -2.4453  0.9187 -1.7470
 1968TIP3   OH227538   3.478   3.436   8.721  0.3079 -0.3231 -0.0644
 1968TIP3    H127539   3.523   3.455   8.803  0.4586  0.8975 -0.4059
 1968TIP3    H227540   3.390   3.408   8.747 -0.1889  1.6524  0.4907
 1969TIP3   OH227541   1.215   0.546   1.163 -0.0567  0.1718  0.3471
 1969TIP3    H127542   1.180   0.621   1.115 -1.6002 -0.1667  0.8996
 1969TIP3    H227543   1.309   0.564   1.170  0.0671  0.7203 -1.8975
 1970TIP3   OH227544   2.369   0.538   1.488 -0.5466 -0.4379 -0.3237
 1970TIP3    H127545   2.342   0.630   1.478  1.5608 -0.0446 -4.2057
 1970TIP3    H227546   2.288   0.492   1.511 -2.3567  1.9397 -1.4661
 1971TIP3   OH227547   1.450   6.294   8.355 -0.7136 -0.2238 -0.2608
 1971TIP3    H127548   1.433   6.230   8.286 -0.4351  0.7402 -1.2470
 1971TIP3    H227549   1.413   6.254   8.434 -1.1233 -1.3057 -0.9760
 1972TIP3   OH227550   4.058   1.818   0.581  0.0224  0.4975 -0.6651
 1972TIP3    H127551   4.001   1.866   0.641 -0.6504  2.3564 -2.6491
 1972TIP3    H227552   4.107   1.759   0.637 -1.7725  0.8997  1.4809
 1973TIP3   OH227553   4.959   4.501   0.445 -0.3998 -0.1881 -0.3876
 1973TIP3    H127554   4.998   4.420   0.478  1.0471  0.7023  0.1772
 1973TIP3    H227555   4.868   4.478   0.427  0.5319 -2.6377 -2.6663
 1974TIP3   OH227556   0.685   0.136   1.779 -0.3101 -0.2773 -0.0451
 1974TIP3    H127557   0.636   0.112   1.700 -1.4628 -0.4608  0.6875
 1974TIP3    H227558   0.682   0.057   1.834 -0.1164  0.0562  0.4558
 1975TIP3   OH227559   0.191   4.379   8.586  0.0835 -0.9392 -0.0355
 1975TIP3    H127560   0.257   4.370   8.517 -0.3547  0.6592 -0.6898
 1975TIP3    H227561   0.241   4.375   8.667  0.8021 -1.1891 -0.4814
 1976TIP3   OH227562   2.360   2.757   1.850 -0.2770 -0.2502  0.0877
 1976TIP3    H127563   2.409   2.838   1.866 -1.5181  1.1071 -2.4131
 1976TIP3    H227564   2.308   2.776   1.772 -2.6230 -2.5993  0.9490
 1977TIP3   OH227565   2.984   0.148   2.308  0.4502 -0.0355  0.2230
 1977TIP3    H127566   3.076   0.172   2.313  0.7807 -1.2884  0.5477
 1977TIP3    H227567   2.937   0.231   2.311  1.5863  0.6990 -1.0505
 1978TIP3   OH227568   5.637   6.681   1.315 -0.3636 -0.1178 -0.3284
 1978TIP3    H127569   5.658   6.760   1.365 -0.9023  1.0962 -1.9194
 1978TIP3    H227570   5.705   6.619   1.340  0.5237  1.0945  0.4231
 1979TIP3   OH227571   0.157   2.217   7.330 -0.5518  0.4964 -0.3758
 1979TIP3    H127572   0.077   2.181   7.370 -1.1426  2.4534  0.3132
 1979TIP3    H227573   0.226   2.198   7.394 -0.9803  1.1169  0.2910
 1980TIP3   OH227574   3.434   4.095   1.738  0.1067  0.5179 -0.4320
 1980TIP3    H127575   3.524   4.123   1.723  0.8372  0.2765  2.6697
 1980TIP3    H227576   3.434   4.064   1.829 -2.8102 -0.7610 -0.7527
 1981TIP3   OH227577   5.800   0.259   8.422  0.2065 -0.2358  0.3699
 1981TIP3    H127578   5.874   0.273   8.364  0.2128 -1.0541  0.1574
 1981TIP3    H227579   5.745   0.336   8.410 -1.6156 -1.8285 -3.5080
 1982TIP3   OH227580   4.454   6.577   8.524  0.2462  0.2243 -0.5172
 1982TIP3    H127581   4.454   6.481   8.518  0.0653  0.2713 -1.3654
 1982TIP3    H227582   4.512   6.606   8.453  1.5507  0.7060  0.6954
 1983TIP3   OH227583   6.315   6.067   2.011 -0.1344  0.0041  0.2956
 1983TIP3    H127584   6.327   6.125   1.936 -0.6673 -0.0917  0.1301
 1983TIP3    H227585   6.390   6.083   2.067 -0.2865  0.8656  0.2542
 1984TIP3   OH227586   4.097   4.630   3.152 -0.1446 -0.7422  0.4752
 1984TIP3    H127587   4.181   4.594   3.122 -0.8780 -2.8058  0.7021
 1984TIP3    H227588   4.092   4.716   3.111  2.5681 -0.0605  1.3607
 1985TIP3   OH227589   3.986   0.630   2.072  0.4204 -0.3570 -0.1147
 1985TIP3    H127590   3.900   0.646   2.033  0.7606  0.1584 -0.6612
 1985TIP3    H227591   3.973   0.552   2.126 -0.3460 -0.3934 -0.3360
 1986TIP3   OH227592   5.521   3.361   3.585  0.5305 -0.1904 -0.2175
 1986TIP3    H127593   5.461   3.391   3.653 -0.2339 -0.5618 -0.7152
 1986TIP3    H227594   5.470   3.297   3.534  1.5975 -1.1340 -0.1559
 1987TIP3   OH227595   0.637   3.448   1.405 -0.3529  0.1254  0.3281
 1987TIP3    H127596   0.703   3.479   1.468  0.4513  1.6947 -1.2092
 1987TIP3    H227597   0.686   3.435   1.324 -1.6434 -0.3974 -0.4002
 1988TIP3   OH227598   2.720   6.710   8.378 -0.1564 -0.1259  0.3149
 1988TIP3    H127599   2.634   6.736   8.344  0.3144 -0.3940 -1.1550
 1988TIP3    H227600   2.709   6.709   8.473 -1.2397  1.7515  0.2646
 1989TIP3   OH227601   5.517   3.235   0.330 -0.0670 -0.0494  0.3381
 1989TIP3    H127602   5.526   3.243   0.425 -2.4551 -0.7503  0.6989
 1989TIP3    H227603   5.556   3.315   0.295 -1.9696  1.8098  2.1416
 1990TIP3   OH227604   0.889   2.911   2.996 -0.1875  0.0655 -0.2393
 1990TIP3    H127605   0.799   2.894   2.967 -0.5336  1.0886  0.1989
 1990TIP3    H227606   0.940   2.842   2.955 -1.3907 -1.4953  0.7633
 1991TIP3   OH227607   2.705   0.435   0.177 -0.0605 -0.1265  0.0181
 1991TIP3    H127608   2.735   0.433   0.086  0.3336 -0.1524  0.1471
 1991TIP3    H227609   2.662   0.520   0.186  0.1216 -0.0177 -0.1250
 1992TIP3   OH227610   4.801   6.133   1.832 -0.1483  0.1325  0.1875
 1992TIP3    H127611   4.892   6.160   1.839 -0.5018  1.6251 -0.6163
 1992TIP3    H227612   4.788   6.072   1.905  2.2422 -2.3923 -1.2884
 1993TIP3   OH227613   2.760   3.157   1.294 -0.2954  0.1524 -0.4681
 1993TIP3    H127614   2.701   3.094   1.336 -0.5883  0.5685 -0.2555
 1993TIP3    H227615   2.743   3.240   1.339  0.3540  0.3072 -0.4918
 1994TIP3   OH227616   3.552   4.420   2.272  0.5942 -0.5595  0.1932
 1994TIP3    H127617   3.525   4.328   2.269  0.4949 -0.5145 -0.5054
 1994TIP3    H227618   3.647   4.418   2.261  0.9500 -0.7231  2.7377
 1995TIP3   OH227619   1.325   3.050   8.129 -0.0116 -0.1607 -0.2241
 1995TIP3    H127620   1.396   3.036   8.066  0.2313  1.3473 -0.3390
 1995TIP3    H227621   1.328   2.974   8.186  1.1441 -0.5472 -0.7692
 1996TIP3   OH227622   0.530   2.428   0.659  0.7412 -0.0238 -0.3215
 1996TIP3    H127623   0.442   2.446   0.692  0.1153 -1.8207 -0.8902
 1996TIP3    H227624   0.533   2.472   0.574  0.9073  1.1992  0.2993
 1997TIP3   OH227625   0.425   2.925   8.589 -0.1052 -0.8553 -0.2873
 1997TIP3    H127626   0.354   2.960   8.535 -0.3277 -0.8240  0.0173
 1997TIP3    H227627   0.452   3.000   8.643 -0.1565 -0.9888 -0.0762
 1998TIP3   OH227628   4.368   2.537   0.343 -0.4435  0.5420  0.3142
 1998TIP3    H127629   4.385   2.517   0.251 -1.7157 -1.0646  0.3752
 1998TIP3    H227630   4.453   2.563   0.379  0.7634 -1.9046 -0.5699
 1999TIP3   OH227631   0.963   5.626   1.124 -0.5299 -0.3084 -0.2247
 1999TIP3    H127632   1.015   5.701   1.095 -0.6108 -0.0533  0.2742
 1999TIP3    H227633   0.990   5.554   1.067 -0.1852  0.0111 -0.4691
 2000TIP3   OH227634   5.586   5.034   8.243 -0.0718 -0.3299 -0.6244
 2000TIP3    H127635   5.651   5.104   8.247 -0.0463 -0.3962  0.3186
 2000TIP3    H227636   5.514   5.070   8.191  0.0942  0.2763 -0.4367
 2001TIP3   OH227637   5.557   1.350   0.891 -0.0341  0.5053  0.0020
 2001TIP3    H127638   5.590   1.424   0.942  2.5617 -0.6067  0.0472
 2001TIP3    H227639   5.518   1.292   0.956  1.5567 -0.0124  0.5385
 2002TIP3   OH227640   2.226   1.173   1.076 -0.1647 -0.0859 -0.1161
 2002TIP3    H127641   2.135   1.152   1.100 -0.6013  0.4988 -1.2114
 2002TIP3    H227642   2.221   1.202   0.985  0.8352  1.7881  0.3791
 2003TIP3   OH227643   6.121   2.267   0.846  0.3921  0.0355 -0.1083
 2003TIP3    H127644   6.200   2.277   0.898 -0.1314 -1.5588  1.0499
 2003TIP3    H227645   6.153   2.244   0.758  1.3536  4.2835 -1.1094
 2004TIP3   OH227646   5.023   6.547   3.328  0.3410 -0.2587 -0.1579
 2004TIP3    H127647   5.095   6.584   3.379 -0.3814  1.0759 -0.0679
 2004TIP3    H227648   5.057   6.544   3.238  0.5683  0.2233 -0.0939
 2005TIP3   OH227649   5.819   0.466   0.039  0.3251 -0.1663  0.7152
 2005TIP3    H127650   5.873   0.490   0.114  0.6025  1.1485  0.1273
 2005TIP3    H227651   5.841   0.374   0.022  0.8773 -0.2354  1.7065
 2006TIP3   OH227652   6.411   0.138   0.285 -0.3274  0.2330  0.8587
 2006TIP3    H127653   6.401   0.210   0.347  0.6411  0.1195  1.1668
 2006TIP3    H227654   6.454   0.178   0.210 -0.7664  0.1981  0.5883
 2007TIP3   OH227655   3.920   1.762   7.795  0.2762 -0.2155  0.2569
 2007TIP3    H127656   3.859   1.823   7.752  0.4101 -0.1630  0.1401
 2007TIP3    H227657   3.958   1.712   7.723  1.9475  1.1793  0.1038
 2008TIP3   OH227658   2.554   1.241   1.334 -0.2130 -0.0514 -0.4585
 2008TIP3    H127659   2.646   1.235   1.310 -0.2259 -1.2120 -0.2592
 2008TIP3    H227660   2.544   1.330   1.370  0.5936  0.4321 -1.3791
 2009TIP3   OH227661   4.210   3.814   8.543 -0.3388 -0.6193  0.0461
 2009TIP3    H127662   4.192   3.865   8.464  0.8012 -0.5691 -0.1912
 2009TIP3    H227663   4.208   3.723   8.513 -1.2793 -0.6866  0.2550
 2010TIP3   OH227664   4.551   1.620   0.240 -0.0802  0.6425  0.6503
 2010TIP3    H127665   4.489   1.684   0.274  1.6231  1.6812  2.0099
 2010TIP3    H227666   4.626   1.672   0.210 -0.2652 -0.4797 -2.0514
 2011TIP3   OH227667   5.594   5.109   2.861 -0.6112  0.6174 -0.5883
 2011TIP3    H127668   5.641   5.053   2.923  0.1332  1.8389 -0.0070
 2011TIP3    H227669   5.517   5.140   2.909 -0.5141  0.8447 -0.5765
 2012TIP3   OH227670   4.496   4.597   2.039 -0.2132  0.2997  0.1708
 2012TIP3    H127671   4.560   4.629   1.975  1.0444  1.1096  1.7475
 2012TIP3    H227672   4.540   4.524   2.082 -0.6769  0.3294  0.7121
 2013TIP3   OH227673   2.085   2.293   0.220  0.3745 -0.8699  0.5030
 2013TIP3    H127674   2.043   2.254   0.297  1.2536 -0.9570  0.9521
 2013TIP3    H227675   2.112   2.380   0.248 -0.8820 -0.2045 -0.2622
 2014TIP3   OH227676   1.913   6.448   0.781 -0.0844  0.6433  0.7165
 2014TIP3    H127677   1.872   6.533   0.793  0.6288  1.0883  0.0731
 2014TIP3    H227678   1.910   6.407   0.867 -0.1559  1.4395  1.0967
 2015TIP3   OH227679   5.566   0.491   0.229 -0.1546  0.2154 -0.0056
 2015TIP3    H127680   5.569   0.409   0.278 -2.0246  0.0257 -0.1438
 2015TIP3    H227681   5.626   0.477   0.155 -0.2974 -0.9504  0.0831
 2016TIP3   OH227682   4.361   4.124   1.153  0.6621  1.4877 -0.2068
 2016TIP3    H127683   4.371   4.086   1.066 -1.0233  2.2273 -0.7602
 2016TIP3    H227684   4.409   4.065   1.211 -0.4320 -0.5270 -1.2630
 2017TIP3   OH227685   0.698   2.814   1.999 -0.1121 -0.3602 -0.7496
 2017TIP3    H127686   0.698   2.831   2.093 -0.1252  3.7717 -1.2974
 2017TIP3    H227687   0.605   2.803   1.977 -0.3132  0.7462 -0.5137
 2018TIP3   OH227688   1.080   1.189   6.876  0.1390 -0.3392  0.2694
 2018TIP3    H127689   1.032   1.115   6.911 -1.6046  1.0840  1.0716
 2018TIP3    H227690   1.074   1.256   6.944  0.6871  0.9098 -0.8664
 2019TIP3   OH227691   6.726   2.710   0.959  0.1429  0.6489 -0.0581
 2019TIP3    H127692   6.803   2.767   0.959 -0.1649  1.0765  0.4373
 2019TIP3    H227693   6.696   2.711   1.050 -0.0075 -0.1133 -0.0983
 2020TIP3   OH227694   5.138   3.157   2.049 -0.5019 -0.6401 -0.3122
 2020TIP3    H127695   5.148   3.245   2.013  0.5297 -1.1797 -1.3979
 2020TIP3    H227696   5.178   3.161   2.136 -1.7944  0.3184  0.2753
 2021TIP3   OH227697   3.342   5.253   0.450  0.2991  0.1829 -0.1331
 2021TIP3    H127698   3.423   5.245   0.501 -0.3225  2.2314  1.2951
 2021TIP3    H227699   3.372   5.259   0.359  2.0037  2.8773  0.4884
 2022TIP3   OH227700   2.452   4.111   8.329  0.3370  0.2134 -0.0195
 2022TIP3    H127701   2.519   4.157   8.380 -0.6442  2.5360 -0.6818
 2022TIP3    H227702   2.497   4.084   8.249  0.8406  0.4592  0.1753
 2023TIP3   OH227703   2.916   5.693   2.681  0.3913 -0.3779  0.8520
 2023TIP3    H127704   2.900   5.746   2.758 -2.2175 -0.4645  0.4680
 2023TIP3    H227705   2.911   5.602   2.712  0.1200 -0.4052  0.7380
 2024TIP3   OH227706   4.207   6.573   3.057 -0.7563 -0.5593 -0.6348
 2024TIP3    H127707   4.192   6.665   3.078 -0.6824 -0.6660 -0.0852
 2024TIP3    H227708   4.249   6.538   3.136 -0.3328 -0.9460 -1.0277
 2025TIP3   OH227709   2.370   0.191   1.284 -0.0187  0.3460 -0.6068
 2025TIP3    H127710   2.451   0.235   1.310  1.9592 -1.4680 -3.1100
 2025TIP3    H227711   2.392   0.097   1.285 -2.3127 -0.2618 -0.7809
 2026TIP3   OH227712   3.820   5.760   8.579 -0.1966 -0.7031 -0.1805
 2026TIP3    H127713   3.814   5.665   8.584 -3.5575 -0.6097 -0.5981
 2026TIP3    H227714   3.782   5.782   8.494  2.0604  0.9943 -0.8604
 2027TIP3   OH227715   4.923   4.877   8.144 -0.4551 -0.2919 -0.6310
 2027TIP3    H127716   4.864   4.889   8.218  1.7955 -0.6676  1.3091
 2027TIP3    H227717   4.883   4.805   8.093 -1.3145 -0.9997  0.9780
 2028TIP3   OH227718   1.736   6.387   1.946  0.3888 -0.1941  0.0245
 2028TIP3    H127719   1.761   6.302   1.908 -0.0954  0.0214 -0.8086
 2028TIP3    H227720   1.727   6.444   1.870 -1.0734  0.1439  0.4248
 2029TIP3   OH227721   2.393   5.263   7.345  0.0262 -0.5481  0.1033
 2029TIP3    H127722   2.347   5.206   7.407  2.6616  1.1991  4.0092
 2029TIP3    H227723   2.350   5.348   7.354  1.4846  0.1343  0.8554
 2030TIP3   OH227724   2.340   6.218   1.013  0.0956 -0.0146 -0.6855
 2030TIP3    H127725   2.411   6.225   1.077  0.2492 -0.3347 -0.8144
 2030TIP3    H227726   2.274   6.164   1.057 -0.0009  0.1501 -0.6258
 2031TIP3   OH227727   5.484   6.171   3.181 -0.2543 -0.1361 -0.6922
 2031TIP3    H127728   5.578   6.169   3.197 -0.3898  0.3782  0.2659
 2031TIP3    H227729   5.454   6.082   3.201 -0.2486  0.2025  0.9538
 2032TIP3   OH227730   4.179   2.785   8.768 -0.5512 -0.1223 -0.2664
 2032TIP3    H127731   4.103   2.839   8.744 -1.4030 -0.7494  0.9377
 2032TIP3    H227732   4.183   2.719   8.699 -2.4669 -1.4027  0.7539
 2033TIP3   OH227733   3.677   3.185   2.998  0.4385  0.2289 -0.6396
 2033TIP3    H127734   3.665   3.253   3.064  0.1581  0.3828 -0.8465
 2033TIP3    H227735   3.767   3.154   3.012  0.8122  1.1134 -0.9794
 2034TIP3   OH227736   5.046   4.686   0.872  0.2331  0.5599  0.2456
 2034TIP3    H127737   5.125   4.633   0.886  0.1573 -0.2226 -1.8932
 2034TIP3    H227738   5.049   4.709   0.779 -2.0414  0.5561  0.1176
 2035TIP3   OH227739   6.567   0.086   1.419  0.3514 -0.0216 -0.1560
 2035TIP3    H127740   6.533   0.120   1.336 -1.5075 -0.9493  0.2017
 2035TIP3    H227741   6.491   0.079   1.476  1.7334  1.8387  2.1447
 2036TIP3   OH227742   6.670   5.802   0.984 -0.2175 -0.2745  0.3835
 2036TIP3    H127743   6.707   5.753   0.910 -0.2978 -0.1895  0.2869
 2036TIP3    H227744   6.576   5.786   0.978 -0.5066  1.5911 -0.9058
 2037TIP3   OH227745   0.417   6.485   1.965 -0.1536  0.0467 -0.0188
 2037TIP3    H127746   0.434   6.474   1.871 -1.9830 -2.2171 -0.1906
 2037TIP3    H227747   0.465   6.413   2.006  1.1970  1.4285  0.9073
 2038TIP3   OH227748   2.289   6.765   0.380  0.6723  0.0424  0.3155
 2038TIP3    H127749   2.308   6.717   0.461  1.5115 -0.4995 -0.1982
 2038TIP3    H227750   2.220   6.714   0.338  1.9559 -1.0750 -0.5098
 2039TIP3   OH227751   2.808   5.546   3.092  0.3303  0.7313 -0.0453
 2039TIP3    H127752   2.774   5.605   3.158 -1.1960  1.4886 -1.4382
 2039TIP3    H227753   2.796   5.458   3.129  1.6005  1.1925  1.5803
 2040TIP3   OH227754   1.837   5.642   2.925  0.0076  0.2171 -0.5662
 2040TIP3    H127755   1.911   5.700   2.944 -2.0968  2.6233  0.9502
 2040TIP3    H227756   1.822   5.594   3.006 -1.1451  1.0744 -0.2497
 2041TIP3   OH227757   3.290   3.152   1.719 -0.5764 -0.0954  0.1060
 2041TIP3    H127758   3.238   3.135   1.640  0.4179  0.7671 -0.7635
 2041TIP3    H227759   3.286   3.247   1.730 -1.1182 -0.2501  1.4101
 2042TIP3   OH227760   2.759   3.610   2.792  0.0125  0.0836 -0.1110
 2042TIP3    H127761   2.680   3.626   2.845 -0.3363  1.5066 -1.0077
 2042TIP3    H227762   2.800   3.534   2.832 -1.9636 -0.8623  0.2363
 2043TIP3   OH227763   0.564   3.986   8.119 -0.8958 -0.3405  0.4506
 2043TIP3    H127764   0.622   4.006   8.193  0.5395 -2.0471 -0.1523
 2043TIP3    H227765   0.620   3.942   8.055 -2.6372 -1.1265 -0.6141
 2044TIP3   OH227766   1.632   3.730   2.175  0.3390  0.5438 -0.3579
 2044TIP3    H127767   1.720   3.715   2.209  0.6663  0.9255 -1.0058
 2044TIP3    H227768   1.602   3.809   2.220  0.2144  0.2607  0.0633
 2045TIP3   OH227769   4.042   3.602   8.012  0.5652  0.8135  0.1829
 2045TIP3    H127770   4.024   3.584   8.105 -2.3214 -2.4564 -0.7796
 2045TIP3    H227771   4.050   3.515   7.972  0.2778  2.0637 -2.8574
 2046TIP3   OH227772   4.321   6.325   8.205  0.4666 -0.2176  0.0779
 2046TIP3    H127773   4.352   6.262   8.140 -0.4208  1.1009 -1.7110
 2046TIP3    H227774   4.228   6.305   8.215  0.0324  1.0773 -0.9465
 2047TIP3   OH227775   3.767   2.323   1.683  0.4031  0.5132  0.2503
 2047TIP3    H127776   3.678   2.322   1.648  1.0075  1.2823 -1.4180
 2047TIP3    H227777   3.766   2.393   1.749 -0.1280  0.7675 -0.0232
 2048TIP3   OH227778   6.364   6.329   2.759  0.3561 -0.0814  0.0517
 2048TIP3    H127779   6.308   6.397   2.721  0.4371  0.4503  0.8674
 2048TIP3    H227780   6.352   6.338   2.853  2.2755  0.4648  0.2781
 2049TIP3   OH227781   6.625   5.976   2.555 -0.7859 -0.0296 -0.1450
 2049TIP3    H127782   6.712   5.950   2.524 -0.7902 -1.6925  1.0753
 2049TIP3    H227783   6.622   6.071   2.542  0.8039 -0.0723 -1.1510
 2050TIP3   OH227784   4.605   6.196   0.902  0.4987  0.6653  0.1412
 2050TIP3    H127785   4.551   6.189   0.823  0.6562 -0.1172  0.0931
 2050TIP3    H227786   4.563   6.137   0.965  0.4342  1.2050  0.6084
 2051TIP3   OH227787   5.456   1.312   7.776  0.5513  0.5613  0.0850
 2051TIP3    H127788   5.362   1.321   7.761  0.5845 -0.3745 -0.8190
 2051TIP3    H227789   5.493   1.305   7.688  1.0889 -2.3636  0.4559
 2052TIP3   OH227790   2.875   5.530   1.102  0.4562 -0.0734 -0.5517
 2052TIP3    H127791   2.823   5.507   1.179  1.3066 -2.4049 -0.5997
 2052TIP3    H227792   2.939   5.593   1.135 -0.3682  0.3908  0.2152
 2053TIP3   OH227793   1.474   4.445   0.405 -0.0243  0.1376  0.3296
 2053TIP3    H127794   1.546   4.383   0.420 -0.8289 -0.5643  1.5006
 2053TIP3    H227795   1.451   4.477   0.493  0.4894  2.2703 -0.2729
 2054TIP3   OH227796   1.009   4.642   3.202  0.0753 -0.0714 -0.2557
 2054TIP3    H127797   0.943   4.619   3.268 -0.8170 -0.7453 -1.3347
 2054TIP3    H227798   0.959   4.646   3.120  1.3711 -0.5162 -1.0855
 2055TIP3   OH227799   3.517   3.550   0.422 -0.0945  0.2587  0.3220
 2055TIP3    H127800   3.571   3.588   0.492 -0.0006 -2.3947  1.8181
 2055TIP3    H227801   3.448   3.615   0.408  1.0080  1.7636  1.4612
 2056TIP3   OH227802   4.252   0.795   1.358  0.6764  0.0968  0.3524
 2056TIP3    H127803   4.302   0.832   1.284 -0.1327 -2.0161 -1.3724
 2056TIP3    H227804   4.191   0.864   1.383  1.1731  0.9807 -0.7860
 2057TIP3   OH227805   6.286   1.042   2.540 -0.1489 -0.6322  0.9367
 2057TIP3    H127806   6.213   1.086   2.583  0.2001  0.0164  0.8823
 2057TIP3    H227807   6.247   1.000   2.464 -0.3608  0.3185  0.4985
 2058TIP3   OH227808   0.568   0.676   7.190 -0.1963  0.3551  0.5319
 2058TIP3    H127809   0.481   0.675   7.151  0.0195  0.9214  0.0253
 2058TIP3    H227810   0.553   0.660   7.283 -1.0681  2.6390  0.8501
 2059TIP3   OH227811   5.509   6.276   2.935  0.3641  0.5455 -0.0982
 2059TIP3    H127812   5.578   6.211   2.925 -1.0921 -0.8238 -2.3698
 2059TIP3    H227813   5.476   6.263   3.024  2.6829  0.9516  0.8742
 2060TIP3   OH227814   6.384   4.947   7.577 -0.3739  0.0025  0.7436
 2060TIP3    H127815   6.345   4.860   7.572 -1.7637  0.6287  0.2663
 2060TIP3    H227816   6.310   5.007   7.570  0.6566  1.2413  0.0990
 2061TIP3   OH227817   4.208   2.597   2.236  0.4093 -0.1076  0.1069
 2061TIP3    H127818   4.295   2.578   2.202  0.7596 -0.8406  1.3424
 2061TIP3    H227819   4.149   2.545   2.181  0.7948 -0.0376 -0.3838
 2062TIP3   OH227820   4.238   3.455   7.623 -0.6047  0.3959  0.3549
 2062TIP3    H127821   4.332   3.463   7.638 -0.6189 -0.3944  0.9119
 2062TIP3    H227822   4.219   3.362   7.635 -1.9465  0.9316  3.3608
 2063TIP3   OH227823   3.739   0.710   2.001  0.3206 -0.4792  0.1475
 2063TIP3    H127824   3.764   0.792   1.959 -0.9467 -0.1839 -0.0566
 2063TIP3    H227825   3.693   0.661   1.933 -0.4177 -0.6406  0.7464
 2064TIP3   OH227826   4.245   4.402   8.203  0.0140 -0.3054  0.6187
 2064TIP3    H127827   4.225   4.453   8.124 -1.0775 -1.9561 -0.2460
 2064TIP3    H227828   4.172   4.421   8.262  0.0330 -0.2447  0.6228
 2065TIP3   OH227829   6.194   6.512   7.305  0.1500 -0.3058  0.8415
 2065TIP3    H127830   6.218   6.530   7.214  0.0294 -2.4320  0.3416
 2065TIP3    H227831   6.195   6.598   7.348 -0.6767  0.8642 -1.3500
 2066TIP3   OH227832   5.950   3.122   2.549 -0.2451  0.0916  0.4160
 2066TIP3    H127833   6.015   3.191   2.536  0.7844 -0.7622  0.8900
 2066TIP3    H227834   5.900   3.150   2.625 -0.9335  1.1107 -0.3869
 2067TIP3   OH227835   2.444   3.617   1.536 -0.7429 -0.0804 -0.0419
 2067TIP3    H127836   2.427   3.598   1.629 -3.0544 -1.5706 -0.6732
 2067TIP3    H227837   2.494   3.698   1.537 -1.9984  0.7981  2.4895
 2068TIP3   OH227838   5.778   5.027   0.943  0.2889  0.2286  0.0142
 2068TIP3    H127839   5.834   5.063   0.875  1.4763 -0.3867  0.6356
 2068TIP3    H227840   5.693   5.070   0.930  1.0991  1.7314 -0.4785
 2069TIP3   OH227841   0.187   2.152   8.269 -0.6233 -0.3893 -0.8671
 2069TIP3    H127842   0.266   2.100   8.255  0.9055  2.1616 -2.3493
 2069TIP3    H227843   0.161   2.181   8.182  1.1922  4.8108  0.0123
 2070TIP3   OH227844   4.447   1.665   8.312 -1.0007  0.7904  0.5603
 2070TIP3    H127845   4.449   1.592   8.373 -0.1095  0.9529  0.7374
 2070TIP3    H227846   4.377   1.722   8.345 -1.3662  0.2736  0.7034
 2071TIP3   OH227847   0.768   3.019   0.042  0.0944 -0.0388  0.4621
 2071TIP3    H127848   0.727   2.936   0.067  0.5733 -0.6451 -0.6677
 2071TIP3    H227849   0.853   3.018   0.086  1.2300 -1.4227 -1.5860
 2072TIP3   OH227850   1.150   5.947   8.374 -0.2489  0.8105 -0.2075
 2072TIP3    H127851   1.207   5.913   8.305 -2.9726 -1.6381 -1.4918
 2072TIP3    H227852   1.186   5.911   8.455 -0.5307 -1.7649 -1.1074
 2073TIP3   OH227853   0.955   4.828   7.318 -0.0545 -0.1103 -0.0694
 2073TIP3    H127854   0.937   4.742   7.355  1.6261 -1.4877 -2.2028
 2073TIP3    H227855   0.909   4.828   7.234 -0.8120  1.4968  0.2984
 2074TIP3   OH227856   3.204   3.486   8.370  0.0665 -0.0306 -0.1175
 2074TIP3    H127857   3.254   3.543   8.428  0.3928  0.7637 -1.1438
 2074TIP3    H227858   3.139   3.445   8.426  0.6627  0.3697  0.8826
 2075TIP3   OH227859   3.122   5.122   0.368  0.1483 -1.0718 -0.5386
 2075TIP3    H127860   3.136   5.032   0.339  1.0343 -1.4402  0.9150
 2075TIP3    H227861   3.209   5.155   0.388 -0.3419 -0.6491  1.0283
 2076TIP3   OH227862   5.264   0.123   8.080  0.3541 -0.5897 -0.1245
 2076TIP3    H127863   5.246   0.190   8.014 -1.2999  0.0655  0.9224
 2076TIP3    H227864   5.178   0.100   8.115  0.9476 -2.7578  0.0611
 2077TIP3   OH227865   0.469   6.147   2.582  0.0318 -0.1912  0.5073
 2077TIP3    H127866   0.434   6.098   2.656  2.1990 -1.4664  0.7733
 2077TIP3    H227867   0.411   6.125   2.509  1.2472 -3.7968  0.4555
 2078TIP3   OH227868   0.763   3.997   1.263 -0.8497  0.4976  0.2023
 2078TIP3    H127869   0.689   3.970   1.317 -1.3218  0.2031 -0.5835
 2078TIP3    H227870   0.724   4.021   1.179 -0.4511  3.3583  0.7262
 2079TIP3   OH227871   3.642   0.300   2.673  0.8099  0.0725  0.2923
 2079TIP3    H127872   3.611   0.223   2.720 -1.6296  0.4201 -0.5805
 2079TIP3    H227873   3.596   0.373   2.713 -0.1479  0.5508 -1.5507
 2080TIP3   OH227874   3.558   1.773   8.247 -0.2681  0.1180 -0.1265
 2080TIP3    H127875   3.553   1.678   8.242  0.2125  0.1488 -1.5129
 2080TIP3    H227876   3.469   1.801   8.270 -0.7353 -0.5880 -1.0409
 2081TIP3   OH227877   3.483   2.342   3.083  0.5948 -0.6406  0.1726
 2081TIP3    H127878   3.567   2.348   3.129  0.8997 -2.2649 -0.0890
 2081TIP3    H227879   3.505   2.300   3.000 -0.1457  1.0415 -0.9137
 2082TIP3   OH227880   3.510   2.073   0.959 -0.0481 -0.0258 -0.5505
 2082TIP3    H127881   3.570   2.133   1.002 -0.0239 -0.0855 -0.5014
 2082TIP3    H227882   3.518   1.991   1.008 -1.5760  0.5133  0.6813
 2083TIP3   OH227883   5.718   4.430   1.985  0.1065  0.0551 -0.5371
 2083TIP3    H127884   5.725   4.516   2.026  1.4501 -0.1086 -0.3449
 2083TIP3    H227885   5.670   4.445   1.904 -0.6770  0.7753  0.0495
 2084TIP3   OH227886   6.621   5.470   0.411 -0.0592 -0.1666 -0.1095
 2084TIP3    H127887   6.660   5.448   0.326  0.9373  0.6349  0.1226
 2084TIP3    H227888   6.611   5.386   0.455 -1.7316 -0.7417 -1.4660
 2085TIP3   OH227889   2.681   6.705   1.149 -0.3961  0.1604 -0.0041
 2085TIP3    H127890   2.655   6.797   1.145  0.9878  0.6828  1.8717
 2085TIP3    H227891   2.728   6.690   1.068  0.7447  1.5813  0.3528
 2086TIP3   OH227892   0.487   1.748   0.107 -0.1565 -0.4150 -0.0987
 2086TIP3    H127893   0.535   1.742   0.024 -1.2088  0.5789 -0.8180
 2086TIP3    H227894   0.555   1.754   0.174  0.7948  1.6207 -1.1402
 2087TIP3   OH227895   4.902   1.152   3.519 -0.2609  0.0408 -0.2287
 2087TIP3    H127896   4.822   1.106   3.542  0.4204 -0.4938  1.2212
 2087TIP3    H227897   4.964   1.082   3.496  0.0683  0.3877 -0.4096
 2088TIP3   OH227898   4.909   6.374   8.014  0.3253 -0.4777  0.3951
 2088TIP3    H127899   4.836   6.417   7.970 -0.5606 -1.0202  1.2908
 2088TIP3    H227900   4.890   6.280   8.005  0.9722 -0.6246  0.5375
 2089TIP3   OH227901   4.389   4.928   2.285  0.3468  1.0724 -0.0254
 2089TIP3    H127902   4.432   4.844   2.271  0.5730  1.2796 -0.6323
 2089TIP3    H227903   4.460   4.987   2.309  0.0003  0.7880  1.8146
 2090TIP3   OH227904   3.328   1.449   2.292 -0.3769 -0.3616 -0.8076
 2090TIP3    H127905   3.275   1.458   2.372  0.9693  1.1506 -0.0403
 2090TIP3    H227906   3.366   1.361   2.298 -0.7559 -0.4833 -0.0900
 2091TIP3   OH227907   6.063   5.534   0.977  0.7066  0.0965 -0.0849
 2091TIP3    H127908   6.156   5.514   0.989  0.6793  0.4096  0.7113
 2091TIP3    H227909   6.021   5.448   0.974  1.1765 -0.1211 -2.0627
 2092TIP3   OH227910   1.253   2.662   8.745  0.0132 -0.0851 -0.1992
 2092TIP3    H127911   1.173   2.672   8.797 -0.1777 -1.9504 -0.0601
 2092TIP3    H227912   1.319   2.632   8.808 -0.0043 -1.5443 -0.8198
 2093TIP3   OH227913   3.554   6.749   1.187 -0.0162  0.3612  0.0936
 2093TIP3    H127914   3.559   6.832   1.138 -1.2436  1.6134  1.9644
 2093TIP3    H227915   3.471   6.755   1.235  0.1793 -1.7052  0.7579
 2094TIP3   OH227916   3.894   3.293   2.266 -0.7447  0.1281  0.0313
 2094TIP3    H127917   3.831   3.359   2.295 -0.0974  0.0544  1.7526
 2094TIP3    H227918   3.906   3.310   2.173 -2.1262  1.1275  0.0114
 2095TIP3   OH227919   6.748   5.737   1.236  0.0642  0.1295  0.5862
 2095TIP3    H127920   6.664   5.733   1.283 -1.4420  0.4981 -1.9043
 2095TIP3    H227921   6.723   5.740   1.143  2.8272  1.2484 -0.1936
 2096TIP3   OH227922   5.669   5.652   8.598 -0.1179  0.7810 -0.1122
 2096TIP3    H127923   5.649   5.565   8.632 -1.8096  0.5637 -1.5286
 2096TIP3    H227924   5.584   5.696   8.592  0.2336  1.2660 -2.6998
 2097TIP3   OH227925   0.192   4.690   2.135  0.3839  0.1411 -0.2080
 2097TIP3    H127926   0.263   4.629   2.155  1.0945  0.9883 -0.0840
 2097TIP3    H227927   0.128   4.638   2.086  0.7749 -0.8006  0.2564
 2098TIP3   OH227928   6.735   0.944   1.643  0.3251 -0.2472  0.0393
 2098TIP3    H127929   6.723   0.874   1.708 -0.8099 -0.3663 -0.2795
 2098TIP3    H227930   6.790   1.008   1.687  0.8375 -1.0379  0.5728
 2099TIP3   OH227931   1.300   0.729   7.817  0.1614  0.1883  0.4845
 2099TIP3    H127932   1.314   0.746   7.723 -3.4178  0.1345 -0.1848
 2099TIP3    H227933   1.308   0.635   7.826 -1.7300 -0.0836 -0.2963
 2100TIP3   OH227934   2.238   4.400   0.700  0.2988 -0.3190  0.1791
 2100TIP3    H127935   2.222   4.481   0.652 -0.6446 -0.7544 -0.2615
 2100TIP3    H227936   2.277   4.428   0.783 -1.1259  0.6838  0.5384
 2101TIP3   OH227937   2.236   0.168   8.283 -0.3408 -0.4625 -0.4177
 2101TIP3    H127938   2.221   0.086   8.235  0.0153 -0.4069 -0.6252
 2101TIP3    H227939   2.245   0.235   8.215 -2.9208  0.1810 -0.2405
 2102TIP3   OH227940   3.281   2.448   7.979  0.4636 -0.2974 -0.6608
 2102TIP3    H127941   3.317   2.450   8.067 -0.8829 -1.5364 -0.0352
 2102TIP3    H227942   3.274   2.540   7.953  1.7232  0.0468  0.1364
 2103TIP3   OH227943   6.379   1.840   3.066  0.7318 -0.0069 -0.2068
 2103TIP3    H127944   6.434   1.799   3.133  0.8004 -0.0170 -0.2702
 2103TIP3    H227945   6.388   1.783   2.990  1.4195  0.5369 -0.5397
 2104TIP3   OH227946   4.074   6.245   8.411  0.6328 -0.8505 -0.4218
 2104TIP3    H127947   4.069   6.205   8.498 -0.6866 -0.5378 -0.3409
 2104TIP3    H227948   4.017   6.322   8.417 -1.4154 -2.1337 -2.2672
 2105TIP3   OH227949   3.757   2.270   2.367 -0.2119  0.2452  0.1278
 2105TIP3    H127950   3.751   2.365   2.357  0.5421  0.1626 -1.2778
 2105TIP3    H227951   3.674   2.237   2.332  0.2427  0.2914 -1.0227
 2106TIP3   OH227952   1.964   4.838   1.538 -0.4425 -0.2396 -0.0573
 2106TIP3    H127953   1.908   4.762   1.554 -0.4477  0.1587  2.0570
 2106TIP3    H227954   1.909   4.900   1.490 -0.6930 -1.2160 -1.0644
 2107TIP3   OH227955   4.356   2.522   0.862 -0.5745 -0.2659  0.0917
 2107TIP3    H127956   4.297   2.448   0.844 -1.6727  0.5239  0.3425
 2107TIP3    H227957   4.321   2.561   0.942  0.1785  0.3514  0.1263
 2108TIP3   OH227958   6.529   5.484   1.092 -0.0004  0.8410 -0.0726
 2108TIP3    H127959   6.618   5.450   1.091 -1.1214 -2.4591  1.1398
 2108TIP3    H227960   6.503   5.483   1.184 -1.8913 -0.1590 -0.5488
 2109TIP3   OH227961   1.971   3.060   8.109  0.3177  0.7791 -0.7931
 2109TIP3    H127962   1.950   3.094   8.196  0.6567  0.4362 -0.5776
 2109TIP3    H227963   2.003   2.971   8.124 -0.3444  0.4387 -1.3370
 2110TIP3   OH227964   0.532   4.443   8.152  0.3609 -0.1946 -0.1593
 2110TIP3    H127965   0.532   4.526   8.200  1.0905 -0.7002  0.7346
 2110TIP3    H227966   0.624   4.417   8.149  0.2581 -0.4577 -1.3569
 2111TIP3   OH227967   6.699   6.366   0.694  0.1727  0.4159 -0.1828
 2111TIP3    H127968   6.757   6.426   0.647 -0.1881  2.7818  2.1451
 2111TIP3    H227969   6.743   6.350   0.778 -1.6919  0.9917  0.9838
 2112TIP3   OH227970   2.839   2.359   2.403  0.1685 -0.3529  0.1326
 2112TIP3    H127971   2.899   2.413   2.454 -0.7364  0.9158 -0.1107
 2112TIP3    H227972   2.867   2.372   2.312  1.2405 -1.9405  0.1999
 2113TIP3   OH227973   5.628   4.629   2.141 -0.5654 -0.0782  0.6315
 2113TIP3    H127974   5.659   4.719   2.142  1.3902 -0.6973 -0.0175
 2113TIP3    H227975   5.587   4.618   2.055  1.9443 -0.6210 -0.5726
 2114TIP3   OH227976   2.047   4.230   1.930 -0.0655  0.3565  0.5842
 2114TIP3    H127977   2.138   4.203   1.915 -0.7537 -0.7456 -1.9816
 2114TIP3    H227978   2.025   4.193   2.016  1.2041 -1.3135  0.2399
 2115TIP3   OH227979   4.401   6.520   7.896  0.6251  0.0864 -0.0731
 2115TIP3    H127980   4.374   6.544   7.808  1.7518  0.4797 -0.3243
 2115TIP3    H227981   4.321   6.526   7.948 -0.0573 -0.1703 -1.0633
 2116TIP3   OH227982   5.078   2.225   1.125 -0.1471 -0.3832 -0.2493
 2116TIP3    H127983   5.050   2.189   1.209 -2.1357 -1.2259 -1.2011
 2116TIP3    H227984   5.133   2.157   1.087  0.5358 -0.1135  0.2382
 2117TIP3   OH227985   0.780   3.420   2.830 -0.4099 -0.2618  0.0851
 2117TIP3    H127986   0.780   3.382   2.918 -1.5004  1.3565  0.8387
 2117TIP3    H227987   0.709   3.376   2.785  0.4776 -1.4655 -0.1959
 2118TIP3   OH227988   3.619   3.293   0.472  0.0586 -0.1068  0.0246
 2118TIP3    H127989   3.572   3.367   0.433 -0.8178  0.7008  2.4543
 2118TIP3    H227990   3.554   3.223   0.478 -0.4930  0.5107  1.9798
 2119TIP3   OH227991   1.456   4.528   1.210 -0.0363  0.7222 -0.1656
 2119TIP3    H127992   1.480   4.440   1.238  1.2758  1.7801  2.4844
 2119TIP3    H227993   1.368   4.541   1.246 -0.8491  0.0336 -1.8339
 2120TIP3   OH227994   0.771   3.000   8.256  0.3185 -0.1787  0.2558
 2120TIP3    H127995   0.796   3.014   8.348  1.9802 -2.1615  0.1826
 2120TIP3    H227996   0.712   2.925   8.258 -1.6605  1.2985 -0.1169
 2121TIP3   OH227997   0.832   5.058   1.605 -0.4022  0.0089 -0.0646
 2121TIP3    H127998   0.794   5.116   1.671  0.6190  2.2050 -1.3032
 2121TIP3    H227999   0.878   5.117   1.545  1.2553 -2.1512 -1.0457
 2122TIP3   OH228000   4.484   6.764   2.768  0.2224  0.4812  0.0181
 2122TIP3    H128001   4.534   6.698   2.719  1.0621  1.5935 -0.6513
 2122TIP3    H228002   4.550   6.821   2.807 -0.4950  1.4480 -0.1379
 2123TIP3   OH228003   2.190   4.430   1.816 -0.2131  0.1594  0.3621
 2123TIP3    H128004   2.147   4.473   1.742  0.4620  1.1433  0.5241
 2123TIP3    H228005   2.120   4.383   1.860 -1.1607  1.8168  0.6827
 2124TIP3   OH228006   2.215   5.046   7.420 -0.3724 -0.2009  0.4640
 2124TIP3    H128007   2.168   5.030   7.339 -1.3017  2.6048  0.3386
 2124TIP3    H228008   2.169   4.994   7.486  0.0185 -2.0224 -0.6492
 2125TIP3   OH228009   6.846   0.907   7.672  0.5083  0.5545  0.4328
 2125TIP3    H128010   6.933   0.923   7.636  0.8793 -1.4370  0.3360
 2125TIP3    H228011   6.853   0.934   7.764  1.7339 -0.9917  0.8470
 2126TIP3   OH228012   2.734   5.133   2.237 -0.2109  0.0970  0.2114
 2126TIP3    H128013   2.726   5.040   2.259 -1.5575  0.4017  1.1398
 2126TIP3    H228014   2.749   5.133   2.143 -0.1396 -1.0665  0.1993
 2127TIP3   OH228015   2.942   2.118   2.466  0.3851 -0.0178 -0.4592
 2127TIP3    H128016   2.902   2.204   2.453 -1.9139 -0.8828  0.3434
 2127TIP3    H228017   2.945   2.080   2.378 -1.8063 -0.3799 -0.4327
 2128TIP3   OH228018   4.168   3.254   1.349 -0.2500 -0.2902 -0.1749
 2128TIP3    H128019   4.130   3.167   1.358  1.0142 -0.7066  1.5990
 2128TIP3    H228020   4.105   3.312   1.392 -0.5033 -0.4869 -0.2780
 2129TIP3   OH228021   2.085   0.226   7.295 -0.1735  0.0771  0.2161
 2129TIP3    H128022   2.055   0.229   7.204  0.2327 -1.2470  0.0241
 2129TIP3    H228023   2.136   0.145   7.302  0.1957  0.3867  1.5057
 2130TIP3   OH228024   3.000   6.704   8.777  0.3604 -0.3651  0.0425
 2130TIP3    H128025   3.021   6.611   8.790 -0.3439 -1.3022 -4.1580
 2130TIP3    H228026   3.077   6.741   8.735 -0.4463  0.1385 -1.0573
 2131TIP3   OH228027   4.153   0.228   1.082 -0.0488  0.1126 -0.5993
 2131TIP3    H128028   4.239   0.190   1.096  0.2808  1.2666  0.7313
 2131TIP3    H228029   4.092   0.154   1.092  0.7633 -0.8073 -2.0237
 2132TIP3   OH228030   2.615   1.120   2.081 -0.2152  0.8170  0.2232
 2132TIP3    H128031   2.551   1.170   2.132 -0.1190  2.7684 -1.4641
 2132TIP3    H228032   2.691   1.114   2.138 -0.2339  2.6354  0.4887
 2133TIP3   OH228033   6.858   2.579   1.852  1.0362  0.4464  0.5912
 2133TIP3    H128034   6.876   2.545   1.939 -1.3516 -2.6954  0.0464
 2133TIP3    H228035   6.771   2.618   1.858  0.1622 -1.1811 -0.6075
 2134TIP3   OH228036   0.175   6.223   8.691  0.2364 -0.1244  0.5100
 2134TIP3    H128037   0.147   6.166   8.620  2.0285 -0.4109  0.0003
 2134TIP3    H228038   0.106   6.289   8.697 -1.2001 -1.5338  0.2182
 2135TIP3   OH228039   1.971   5.317   0.493 -0.3980 -0.2030  0.5477
 2135TIP3    H128040   1.999   5.301   0.583  0.1097 -0.5711  0.3272
 2135TIP3    H228041   1.970   5.230   0.452  0.4914  0.0916 -0.1217
 2136TIP3   OH228042   2.060   5.879   2.488  0.4269  0.4194 -0.2463
 2136TIP3    H128043   2.128   5.858   2.552 -0.6002  0.4595  0.9210
 2136TIP3    H228044   2.097   5.854   2.403  0.5901 -3.0013  0.6669
 2137TIP3   OH228045   0.982   3.124   7.413  0.2676 -0.6165 -0.4850
 2137TIP3    H128046   0.901   3.090   7.375  0.4248 -0.2859 -1.1214
 2137TIP3    H228047   1.036   3.047   7.430  0.0517 -0.7912 -0.5961
 2138TIP3   OH228048   2.703   6.273   3.217  0.4467  0.0914  0.3236
 2138TIP3    H128049   2.692   6.217   3.140  1.2514 -1.3446  1.2039
 2138TIP3    H228050   2.690   6.213   3.292  0.3262  1.3052  1.3063
 2139TIP3   OH228051   3.477   0.704   0.941 -0.2675  0.0759 -0.0868
 2139TIP3    H128052   3.437   0.658   1.015 -0.1728  0.9244  0.5110
 2139TIP3    H228053   3.468   0.644   0.867 -1.3792 -0.3191  0.3561
 2140TIP3   OH228054   1.457   3.653   1.980  0.0457  0.8774 -0.0886
 2140TIP3    H128055   1.526   3.680   2.041  0.8681 -1.2247  0.0167
 2140TIP3    H228056   1.377   3.692   2.015  0.0178 -2.1105  3.8898
 2141TIP3   OH228057   2.742   5.228   1.977  0.0808 -0.4343  0.1762
 2141TIP3    H128058   2.692   5.277   2.042 -0.8341 -0.0098 -0.8211
 2141TIP3    H228059   2.804   5.292   1.941  0.4202 -0.6029  0.4643
 2142TIP3   OH228060   0.990   0.042   2.133 -0.1846 -0.0493  0.4237
 2142TIP3    H128061   1.005  -0.039   2.182 -3.9901 -1.2357 -0.0492
 2142TIP3    H228062   0.905   0.073   2.163 -0.0190  2.3785 -1.3031
 2143TIP3   OH228063   4.801   3.566   0.186  0.1627  0.2447 -0.0148
 2143TIP3    H128064   4.733   3.575   0.252 -0.2266 -0.4775 -0.3091
 2143TIP3    H228065   4.865   3.506   0.224  0.8673  1.2435  0.4313
 2144TIP3   OH228066   1.283   0.791   0.355 -0.1380 -0.2277  0.7323
 2144TIP3    H128067   1.330   0.724   0.306 -0.6144 -0.4933  0.6378
 2144TIP3    H228068   1.278   0.757   0.444 -1.6695 -1.0051  0.3723
 2145TIP3   OH228069   5.611   3.606   1.194  0.1010  0.7910 -0.2327
 2145TIP3    H128070   5.619   3.683   1.139  0.4615  2.1360  1.6215
 2145TIP3    H228071   5.661   3.538   1.147 -0.5556  1.5326 -2.0732
 2146TIP3   OH228072   2.739   0.353   0.752  0.1534 -0.5614  0.0752
 2146TIP3    H128073   2.656   0.399   0.760 -0.4394 -1.6415  0.3447
 2146TIP3    H228074   2.804   0.422   0.740 -1.0463  0.2384 -2.6594
 2147TIP3   OH228075   5.495   3.603   0.804  0.0364  0.6484 -0.4836
 2147TIP3    H128076   5.481   3.641   0.891  0.3612 -0.6095  0.1427
 2147TIP3    H228077   5.577   3.643   0.774  0.3462  0.5091  0.1461
 2148TIP3   OH228078   6.015   1.538   0.533 -0.0387 -0.1017  0.1299
 2148TIP3    H128079   5.996   1.488   0.454 -2.4929 -0.8335  1.0935
 2148TIP3    H228080   6.038   1.472   0.598  0.0395  0.3230  0.5376
 2149TIP3   OH228081   0.439   5.324   1.180 -0.3506  0.3838  0.0701
 2149TIP3    H128082   0.479   5.238   1.182  0.1017  0.5927  2.2034
 2149TIP3    H228083   0.466   5.365   1.263 -3.0831  1.3950  0.5570
 2150TIP3   OH228084   3.655   4.420   1.417  0.1347  0.1598  0.1631
 2150TIP3    H128085   3.578   4.366   1.434 -0.0400  0.3867  0.1022
 2150TIP3    H228086   3.656   4.484   1.489  0.1104  0.3301  0.0132
 2151TIP3   OH228087   5.469   0.964   0.551 -0.3696 -0.2693 -0.1812
 2151TIP3    H128088   5.461   1.051   0.590  0.5076 -0.1786 -0.1755
 2151TIP3    H228089   5.407   0.910   0.600  1.5361 -0.4487  2.2792
 2152TIP3   OH228090   2.894   0.051   0.596  0.0549  0.4595  0.6775
 2152TIP3    H128091   2.937   0.121   0.645  1.0265  1.6433 -1.6939
 2152TIP3    H228092   2.958  -0.020   0.593  0.3296  0.7153  0.4273
 2153TIP3   OH228093   6.010   1.341   3.173 -0.2294 -0.0451 -0.1056
 2153TIP3    H128094   6.032   1.273   3.238 -0.0024  0.7797  0.7066
 2153TIP3    H228095   5.915   1.332   3.162 -0.2235 -0.4134  0.0943
 2154TIP3   OH228096   3.087   2.256   7.927 -0.2277 -0.7120 -0.2663
 2154TIP3    H128097   3.150   2.321   7.958 -0.8488 -1.0147  1.8094
 2154TIP3    H228098   3.049   2.295   7.848 -0.5863  1.4845  0.9095
 2155TIP3   OH228099   2.237   3.808   2.491 -0.2668  0.3018  0.0982
 2155TIP3    H128100   2.241   3.754   2.570 -1.2824  0.8786  0.5555
 2155TIP3    H228101   2.162   3.865   2.505  0.3443  1.3273 -0.7030
 2156TIP3   OH228102   1.281   5.890   8.612  0.3138 -0.0532 -0.2241
 2156TIP3    H128103   1.369   5.860   8.586  0.9921  0.0774  1.7773
 2156TIP3    H228104   1.236   5.810   8.639 -0.0245 -0.0465 -0.7479
 2157TIP3   OH228105   3.323   5.070   0.787 -0.1560  0.0623  0.1639
 2157TIP3    H128106   3.348   5.021   0.709  3.1063  1.3958  0.1996
 2157TIP3    H228107   3.343   5.010   0.860 -1.0455 -0.3557  0.0760
 2158TIP3   OH228108   3.077   6.797   7.716 -0.0439  0.4941  0.0355
 2158TIP3    H128109   3.065   6.882   7.674  2.6585  0.8362 -0.2190
 2158TIP3    H228110   3.129   6.816   7.795 -0.8889 -0.7207  0.9201
 2159TIP3   OH228111   1.510   2.403   0.328  0.3348 -0.7170  0.1865
 2159TIP3    H128112   1.418   2.381   0.341  0.0635 -0.1950 -0.7884
 2159TIP3    H228113   1.542   2.336   0.267  0.3155 -0.2577 -0.3303
 2160TIP3   OH228114   5.146   0.852   2.129  0.1174  0.0590  0.2620
 2160TIP3    H128115   5.145   0.771   2.077 -1.1823  0.7076 -0.7760
 2160TIP3    H228116   5.056   0.862   2.160  0.8396 -0.2544  2.6245
 2161TIP3   OH228117   6.069   6.183   8.385 -0.0995 -0.1669  0.0739
 2161TIP3    H128118   6.075   6.251   8.452  0.7810  0.8855 -1.0319
 2161TIP3    H228119   5.981   6.147   8.394 -0.2246  0.4286  1.3276
 2162TIP3   OH228120   1.719   4.371   2.931  0.1458  0.3013 -0.4424
 2162TIP3    H128121   1.705   4.393   3.023  0.3778 -0.3961 -0.2344
 2162TIP3    H228122   1.808   4.334   2.928  0.4872  1.1227 -1.0951
 2163TIP3   OH228123   3.905   3.247   2.563  0.2125  0.5700  0.0191
 2163TIP3    H128124   3.998   3.234   2.544  0.5477  0.5901  1.4992
 2163TIP3    H228125   3.861   3.231   2.480  1.3441 -1.5486 -0.2333
 2164TIP3   OH228126   3.328   2.772   1.011  0.0844 -0.3973  0.7081
 2164TIP3    H128127   3.358   2.811   0.929  2.9214 -0.9882  1.3496
 2164TIP3    H228128   3.238   2.744   0.993  0.4226 -0.0335 -2.0164
 2165TIP3   OH228129   2.421   0.950   3.180 -0.7356 -1.0832  0.2763
 2165TIP3    H128130   2.456   0.888   3.116  0.8247 -1.7725  1.7147
 2165TIP3    H228131   2.485   1.022   3.181 -1.2412 -0.6261  0.4035
 2166TIP3   OH228132   1.099   1.425   2.447 -0.1737  0.3435  0.1789
 2166TIP3    H128133   1.052   1.453   2.369  1.7472  0.2753 -1.0732
 2166TIP3    H228134   1.182   1.389   2.414  0.0602 -1.1294  2.1359
 2167TIP3   OH228135   3.755   6.339   2.630 -0.6846 -0.4175 -0.7499
 2167TIP3    H128136   3.765   6.387   2.712  0.5411 -0.3033 -0.9465
 2167TIP3    H228137   3.693   6.391   2.579 -1.6522 -0.6216  0.1841
 2168TIP3   OH228138   1.363   2.702   2.531 -0.1976  0.7476 -0.3755
 2168TIP3    H128139   1.370   2.712   2.436  0.7706 -0.5130 -0.4580
 2168TIP3    H228140   1.414   2.623   2.551 -0.8638  0.6605  1.1229
 2169TIP3   OH228141   2.500   0.027   0.802  0.6490  0.4659 -0.1163
 2169TIP3    H128142   2.594   0.031   0.823  0.7791 -0.3870 -0.5036
 2169TIP3    H228143   2.469   0.117   0.815  0.9122  0.2155  2.7348
 2170TIP3   OH228144   2.193   1.392   1.950  0.2991  0.2636  0.6910
 2170TIP3    H128145   2.129   1.450   1.990  0.2961  0.9261 -0.2422
 2170TIP3    H228146   2.152   1.305   1.952 -0.5668  0.6483  0.2686
 2171TIP3   OH228147   2.147   5.410   2.711 -0.4011 -0.0212 -0.6089
 2171TIP3    H128148   2.159   5.318   2.688 -0.6043 -0.6721  1.6916
 2171TIP3    H228149   2.208   5.457   2.653  1.0964 -1.7631 -0.5409
 2172TIP3   OH228150   5.415   6.327   1.355 -0.0823  0.7511 -0.0840
 2172TIP3    H128151   5.410   6.231   1.357  4.3568  0.3290  0.3333
 2172TIP3    H228152   5.412   6.353   1.447  0.2162  0.8649 -0.1061
 2173TIP3   OH228153   5.768   2.387   8.370  0.0023  0.7791 -0.8387
 2173TIP3    H128154   5.834   2.334   8.415 -0.5072  1.3129  0.5849
 2173TIP3    H228155   5.819   2.450   8.320  0.6233  1.6302  0.7792
 2174TIP3   OH228156   5.699   1.321   2.039 -0.4271  0.4108  0.6563
 2174TIP3    H128157   5.727   1.410   2.021  0.2498  0.0083 -0.3793
 2174TIP3    H228158   5.663   1.324   2.127  0.2845  1.5429  0.9220
 2175TIP3   OH228159   3.436   4.913   0.255  0.3563  0.0156  0.2518
 2175TIP3    H128160   3.382   4.860   0.195 -0.3293  1.4836 -0.4764
 2175TIP3    H228161   3.526   4.888   0.235  0.2963  1.7088 -2.7280
 2176TIP3   OH228162   5.142   0.584   1.434  0.8853  0.5550  0.5138
 2176TIP3    H128163   5.174   0.497   1.455  0.7373  0.3839  0.0557
 2176TIP3    H228164   5.175   0.601   1.345 -0.4034  0.3082 -0.0376
 2177TIP3   OH228165   6.490   2.805   0.832 -0.0161 -0.0405 -0.1552
 2177TIP3    H128166   6.552   2.760   0.890 -0.9043  0.5851  1.3113
 2177TIP3    H228167   6.492   2.896   0.860  0.9632  0.7228 -2.4051
 2178TIP3   OH228168   0.327   6.327   3.046  0.3027  0.5468 -0.9699
 2178TIP3    H128169   0.273   6.282   3.111  0.1459 -0.6644 -1.9054
 2178TIP3    H228170   0.358   6.406   3.091  0.2419 -0.2807  0.5850
 2179TIP3   OH228171   3.303   3.312   1.140 -0.1701  0.1343 -0.3143
 2179TIP3    H128172   3.315   3.274   1.053 -1.4494  2.1228 -1.4504
 2179TIP3    H228173   3.392   3.330   1.171  0.4507 -2.9202 -0.0164
 2180TIP3   OH228174   3.038   5.166   2.140  0.5859 -0.4304  0.0987
 2180TIP3    H128175   2.950   5.160   2.176  0.1894 -0.0815 -0.7704
 2180TIP3    H228176   3.059   5.260   2.143  1.3003 -0.6083  1.1380
 2181TIP3   OH228177   2.018   3.063   0.054  0.2204  0.0055 -0.3663
 2181TIP3    H128178   2.053   3.149   0.030 -0.1481  0.0032 -0.9500
 2181TIP3    H228179   2.053   3.046   0.141  3.6082 -1.0483 -1.7842
 2182TIP3   OH228180   4.702   6.864   2.472  0.3532 -0.2384 -0.1483
 2182TIP3    H128181   4.658   6.807   2.409 -0.6015 -0.2309  0.4785
 2182TIP3    H228182   4.765   6.808   2.516  1.2737 -0.1572 -1.3333
 2183TIP3   OH228183   0.520   2.166   0.537  0.0826 -0.4066  0.1851
 2183TIP3    H128184   0.528   2.261   0.546  2.2267 -0.3848 -1.2098
 2183TIP3    H228185   0.545   2.132   0.623  2.1608  0.2432 -0.1147
 2184TIP3   OH228186   5.621   1.823   8.243  0.2487 -0.2524 -0.2114
 2184TIP3    H128187   5.563   1.856   8.311 -1.7373 -2.4046 -0.7315
 2184TIP3    H228188   5.643   1.900   8.191 -0.4687  0.9623  1.1924
 2185TIP3   OH228189   1.401   2.934   8.662  0.5742 -0.2090  0.0103
 2185TIP3    H128190   1.435   2.926   8.751 -0.2189  0.2389  0.3699
 2185TIP3    H228191   1.352   2.853   8.648 -1.1461  0.6178  0.8346
 2186TIP3   OH228192   3.970   6.025   1.794  0.1468 -0.1802 -0.5578
 2186TIP3    H128193   4.047   6.080   1.807 -0.1796  0.0145  0.7282
 2186TIP3    H228194   3.981   5.987   1.707  2.2227 -1.0087  0.0224
 2187TIP3   OH228195   3.990   6.406   1.536 -0.5461 -0.0860  0.3143
 2187TIP3    H128196   3.950   6.491   1.555  0.2612  0.7515 -1.5238
 2187TIP3    H228197   4.035   6.381   1.617  0.4245  1.9513  0.4516
 2188TIP3   OH228198   1.429   6.040   7.360  0.1333  0.2597  0.5657
 2188TIP3    H128199   1.466   6.016   7.276  0.2875 -0.3437  0.8037
 2188TIP3    H228200   1.501   6.084   7.405 -0.5156  2.4004 -0.3587
 2189TIP3   OH228201   6.272   4.936   2.598  0.0925  0.1351 -0.3082
 2189TIP3    H128202   6.327   4.875   2.549  1.3663 -0.9680  2.3110
 2189TIP3    H228203   6.184   4.899   2.591  0.2964 -0.1847 -1.4016
 2190TIP3   OH228204   0.548   0.768   0.934  0.1466  0.2892  0.5907
 2190TIP3    H128205   0.558   0.844   0.878  0.3182 -0.0264  0.1876
 2190TIP3    H228206   0.501   0.704   0.881  1.7140 -0.6132  0.2135
 2191TIP3   OH228207   2.385   3.045   8.048  0.9364  0.3278 -0.3959
 2191TIP3    H128208   2.391   3.064   7.954 -1.9149 -0.6008 -0.8698
 2191TIP3    H228209   2.384   3.130   8.090 -2.0780  1.0424 -1.6523
 2192TIP3   OH228210   4.978   4.866   1.237 -0.3924  0.2982 -0.0262
 2192TIP3    H128211   4.926   4.946   1.233  0.0869  0.5624 -1.8930
 2192TIP3    H228212   5.010   4.862   1.327 -0.8927  1.9002  0.2459
 2193TIP3   OH228213   3.013   1.642   0.079 -0.0868 -0.2904 -0.0395
 2193TIP3    H128214   3.007   1.738   0.084  2.7428  0.0223 -0.8231
 2193TIP3    H228215   3.076   1.619   0.148  1.9910 -1.1192 -2.0923
 2194TIP3   OH228216   0.263   2.318   7.692  0.1774  0.1338  0.1809
 2194TIP3    H128217   0.299   2.278   7.613 -1.4368 -1.6607  0.2755
 2194TIP3    H228218   0.264   2.412   7.674 -0.6122 -0.2458 -2.2337
 2195TIP3   OH228219   2.809   4.378   8.301 -0.4430 -0.0501 -0.0836
 2195TIP3    H128220   2.798   4.290   8.265 -0.6303 -0.5699  1.1904
 2195TIP3    H228221   2.841   4.364   8.390 -1.9764  1.1060  0.6949
 2196TIP3   OH228222   4.861   5.445   1.396 -0.6407 -0.2868  0.0151
 2196TIP3    H128223   4.811   5.526   1.391 -0.2909  0.2066  2.8470
 2196TIP3    H228224   4.937   5.460   1.340 -0.7241  1.2542  0.2862
 2197TIP3   OH228225   1.897   2.905   0.886  0.4565 -0.2257 -0.3068
 2197TIP3    H128226   1.976   2.875   0.841 -0.8117 -1.4847 -1.8378
 2197TIP3    H228227   1.838   2.933   0.815 -0.8491 -0.3238  0.6961
 2198TIP3   OH228228   2.823   3.854   1.891 -0.1387 -0.0893 -0.0471
 2198TIP3    H128229   2.804   3.928   1.834 -1.2906 -0.0129  0.3932
 2198TIP3    H228230   2.913   3.867   1.919 -0.4840  1.4587  0.4477
 2199TIP3   OH228231   0.949   0.125   1.045 -0.1222  0.2183 -0.3088
 2199TIP3    H128232   1.005   0.049   1.026  0.7661  0.8448 -0.2479
 2199TIP3    H228233   1.005   0.184   1.096 -1.1895  0.3782  0.7231
 2200TIP3   OH228234   3.916   5.143   2.678  0.3550 -0.0924 -0.5243
 2200TIP3    H128235   3.939   5.202   2.749 -0.5732 -1.9923  1.4487
 2200TIP3    H228236   3.992   5.086   2.668 -0.2541 -1.0531  0.2767
 2201TIP3   OH228237   0.238   3.621   0.131 -0.2244 -0.3410  0.0639
 2201TIP3    H128238   0.319   3.576   0.154 -1.0661 -2.2669 -0.5699
 2201TIP3    H228239   0.229   3.689   0.198  3.3168  1.9039 -1.3748
 2202TIP3   OH228240   2.172   2.977   8.567  0.1297 -0.6264  0.0042
 2202TIP3    H128241   2.212   3.058   8.534 -1.3377  1.4392  2.8097
 2202TIP3    H228242   2.124   3.005   8.645  0.7010 -4.4922  1.9465
 2203TIP3   OH228243   1.062   6.403   0.885 -0.0887 -0.5140  0.1800
 2203TIP3    H128244   1.107   6.429   0.804 -0.1719  2.4410  0.9823
 2203TIP3    H228245   1.130   6.408   0.952 -0.2608 -1.9936  0.5088
 2204TIP3   OH228246   3.010   4.426   0.937 -0.5859 -0.0112  0.6510
 2204TIP3    H128247   3.064   4.351   0.913 -0.5432 -0.1267  1.1078
 2204TIP3    H228248   3.069   4.485   0.983 -0.7726  0.0162  0.8534
 2205TIP3   OH228249   0.483   3.841   0.207  0.0442 -0.1503 -0.7292
 2205TIP3    H128250   0.409   3.891   0.173 -1.3220 -1.4011  0.2448
 2205TIP3    H228251   0.449   3.801   0.287  1.7106 -0.9915 -0.4058
 2206TIP3   OH228252   0.380   3.870   8.313  0.4177 -0.2069  0.5900
 2206TIP3    H128253   0.411   3.819   8.388  0.5975 -2.2431 -0.7669
 2206TIP3    H228254   0.460   3.898   8.269  0.3319  1.7730  1.5800
 2207TIP3   OH228255   2.070   6.625   1.856  0.4511  0.1919  0.1387
 2207TIP3    H128256   2.162   6.609   1.877  1.0441 -0.6923 -2.6978
 2207TIP3    H228257   2.056   6.579   1.773 -2.5981  0.2084  0.5237
 2208TIP3   OH228258   3.277   5.664   2.388  0.5230 -0.1018  0.3368
 2208TIP3    H128259   3.370   5.670   2.369  0.6132 -0.0967  0.7861
 2208TIP3    H228260   3.271   5.604   2.462  0.1398 -0.3851  0.0841
 2209TIP3   OH228261   4.732   3.654   3.556 -0.1599 -0.1099 -0.3937
 2209TIP3    H128262   4.735   3.621   3.646  0.7935 -0.2130 -0.4473
 2209TIP3    H228263   4.787   3.594   3.507 -0.2520  0.2511 -0.9434
 2210TIP3   OH228264   4.417   3.316   1.719  0.2540 -0.1463  0.0706
 2210TIP3    H128265   4.360   3.274   1.783 -0.5155  0.4206 -0.2281
 2210TIP3    H228266   4.374   3.399   1.699  1.2669  0.3674 -0.0493
 2211TIP3   OH228267   3.598   4.353   8.194 -0.4570  0.2737  0.6763
 2211TIP3    H128268   3.543   4.287   8.237 -2.5923  0.2357 -1.8497
 2211TIP3    H228269   3.628   4.310   8.114 -0.3525  1.7176 -0.0958
 2212TIP3   OH228270   1.837   5.350   1.105  0.1195  0.3974  0.5036
 2212TIP3    H128271   1.764   5.288   1.105 -1.0292  1.6146 -2.0659
 2212TIP3    H228272   1.904   5.308   1.051 -0.2398  0.9079 -0.3548
 2213TIP3   OH228273   5.174   6.385   0.655  0.1466 -1.4292  0.8153
 2213TIP3    H128274   5.096   6.439   0.645  1.6940  0.5494 -1.6430
 2213TIP3    H228275   5.150   6.301   0.616 -0.1736 -0.1287 -2.0211
 2214TIP3   OH228276   4.745   3.553   3.159 -0.2250  0.0974  0.0312
 2214TIP3    H128277   4.808   3.531   3.228  0.1535  0.8079 -0.0728
 2214TIP3    H228278   4.660   3.554   3.204 -0.4050 -2.3535 -0.1335
 2215TIP3   OH228279   1.580   1.245   8.177 -0.5001 -0.4573  0.5543
 2215TIP3    H128280   1.535   1.161   8.171  0.3343 -0.8078 -1.7246
 2215TIP3    H228281   1.652   1.239   8.113  2.0367  0.5629  3.1101
 2216TIP3   OH228282   3.894   1.660   1.619 -0.2474  0.6232 -0.0517
 2216TIP3    H128283   3.923   1.751   1.613  0.6989  0.4009  0.9420
 2216TIP3    H228284   3.955   1.612   1.563 -1.9719  0.8070 -2.2637
 2217TIP3   OH228285   0.880   5.557   2.267 -0.9039  0.2827 -0.1169
 2217TIP3    H128286   0.889   5.650   2.289 -1.0914  0.2216  0.2336
 2217TIP3    H228287   0.968   5.521   2.280 -0.7915  0.4467 -0.4258
 2218TIP3   OH228288   1.565   1.358   2.584  0.0811  0.4692 -0.1845
 2218TIP3    H128289   1.486   1.315   2.616 -0.5737  1.5381 -0.3325
 2218TIP3    H228290   1.537   1.406   2.506  0.6646  1.5624  0.2552
 2219TIP3   OH228291   1.776   2.079   1.522 -0.5714  0.0138 -0.0111
 2219TIP3    H128292   1.681   2.075   1.510 -0.5377 -0.5810 -0.0981
 2219TIP3    H228293   1.811   2.092   1.434 -0.5155 -0.8082 -0.1096
 2220TIP3   OH228294   4.148   2.709   2.746 -0.1003  0.1296 -0.4608
 2220TIP3    H128295   4.175   2.648   2.815  0.5666  1.3966  0.4530
 2220TIP3    H228296   4.189   2.675   2.666 -0.4285 -1.0582 -0.1364
 2221TIP3   OH228297   5.543   3.777   1.551 -0.2852 -0.5380 -0.3145
 2221TIP3    H128298   5.527   3.842   1.619  0.7595 -1.1153  0.5067
 2221TIP3    H228299   5.619   3.809   1.504  1.1426 -1.8298  1.0109
 2222TIP3   OH228300   1.881   6.658   8.210  0.6081 -0.3698  0.2619
 2222TIP3    H128301   1.929   6.604   8.146 -0.2614 -1.2397  0.3370
 2222TIP3    H228302   1.789   6.641   8.192  0.3418 -0.5792  1.7126
 2223TIP3   OH228303   4.604   2.219   2.768  0.7464 -0.4400 -0.3210
 2223TIP3    H128304   4.596   2.126   2.747  2.0394 -0.4678 -0.7689
 2223TIP3    H228305   4.599   2.263   2.683  0.0597 -0.0738 -0.1059
 2224TIP3   OH228306   6.555   4.242   3.383 -0.1508  0.4465  0.3258
 2224TIP3    H128307   6.644   4.270   3.406 -0.5087  0.6472  1.5580
 2224TIP3    H228308   6.524   4.309   3.323  0.2560  0.8050  0.5102
 2225TIP3   OH228309   2.068   0.779   8.513  0.3943  0.0456  0.1668
 2225TIP3    H128310   1.974   0.784   8.499  0.1899 -0.7026  1.1638
 2225TIP3    H228311   2.088   0.685   8.511  1.2615  0.2409 -0.8881
 2226TIP3   OH228312   6.458   6.193   2.180  0.1017  0.3203 -0.1074
 2226TIP3    H128313   6.383   6.194   2.239 -0.5105 -1.6822 -0.7866
 2226TIP3    H228314   6.534   6.205   2.237 -0.4227 -2.0390  1.2131
 2227TIP3   OH228315   1.892   2.220   0.437 -0.2555  0.4689 -0.2296
 2227TIP3    H128316   1.880   2.189   0.526  2.7100 -0.2950  0.0187
 2227TIP3    H228317   1.896   2.315   0.445  2.3397  0.3587  0.9421
 2228TIP3   OH228318   5.808   3.807   2.523  0.5661  0.7468 -0.2767
 2228TIP3    H128319   5.856   3.776   2.446  4.6664  1.1204  1.8572
 2228TIP3    H228320   5.876   3.826   2.587 -2.4733 -3.4276  5.0473
 2229TIP3   OH228321   2.819   4.177   2.246 -0.0230 -0.8504  0.3147
 2229TIP3    H128322   2.763   4.134   2.181 -1.9207 -0.1484  1.3708
 2229TIP3    H228323   2.822   4.116   2.320  0.2059 -0.6716  0.4552
 2230TIP3   OH228324   5.318   6.858   3.233  0.0357  0.9611  0.0996
 2230TIP3    H128325   5.241   6.873   3.178  0.5524  0.2097 -0.8465
 2230TIP3    H228326   5.345   6.945   3.261 -0.2030  1.3662 -0.8973
 2231TIP3   OH228327   0.692   6.370   1.542  0.1766 -0.2303 -0.2832
 2231TIP3    H128328   0.612   6.410   1.575  0.2132  0.5592 -1.0875
 2231TIP3    H228329   0.666   6.329   1.459  0.3867 -0.8977 -0.0255
 2232TIP3   OH228330   5.533   1.107   2.008 -0.5761  0.3329  0.2630
 2232TIP3    H128331   5.603   1.172   2.006  0.3072 -0.5963 -0.7999
 2232TIP3    H228332   5.469   1.139   1.944  1.4114 -1.3892 -2.8443
 2233TIP3   OH228333   6.047   1.324   2.561  0.7158 -0.5853  0.5386
 2233TIP3    H128334   5.953   1.311   2.552  0.8471 -2.0934  0.9613
 2233TIP3    H228335   6.078   1.337   2.472  0.0680  0.2951  0.4334
 2234TIP3   OH228336   4.456   0.797   8.485 -0.1868 -0.4901  0.2795
 2234TIP3    H128337   4.469   0.739   8.560  0.6422 -0.2299  0.3557
 2234TIP3    H228338   4.464   0.739   8.409  2.0501 -0.3100  0.3014
 2235TIP3   OH228339   3.919   5.716   7.405  0.0361  0.1106  0.3007
 2235TIP3    H128340   4.014   5.719   7.413  0.0828 -0.3953  0.0042
 2235TIP3    H228341   3.892   5.648   7.468 -0.0739 -0.1412 -0.0139
 2236TIP3   OH228342   5.714   4.347   3.109  0.4565 -0.4060  0.0566
 2236TIP3    H128343   5.644   4.342   3.174  0.5764 -2.9224  0.0897
 2236TIP3    H228344   5.775   4.413   3.144 -1.2559  0.9492  0.6201
 2237TIP3   OH228345   4.287   4.054   8.332 -0.1022 -0.0964  0.4315
 2237TIP3    H128346   4.333   3.973   8.310  1.6063  0.8972  0.1415
 2237TIP3    H228347   4.194   4.032   8.325  0.2199 -2.6533  2.6624
 2238TIP3   OH228348   6.441   1.984   1.856  0.7175 -0.0820  0.3955
 2238TIP3    H128349   6.381   1.909   1.858 -0.1412  0.5382 -0.8495
 2238TIP3    H228350   6.483   1.983   1.942  2.1276 -3.0698 -0.1893
 2239TIP3   OH228351   4.846   2.387   2.576  0.3329 -0.1094 -0.5009
 2239TIP3    H128352   4.914   2.411   2.513 -0.3366  0.5899 -0.9705
 2239TIP3    H228353   4.873   2.429   2.658  2.5502 -3.0404  0.4549
 2240TIP3   OH228354   6.563   5.445   3.599 -0.2487 -0.0522  0.1901
 2240TIP3    H128355   6.491   5.426   3.659 -0.6947  0.9751 -0.0052
 2240TIP3    H228356   6.529   5.420   3.513 -0.6807  1.1845 -0.0096
 2241TIP3   OH228357   1.292   5.849   3.002  0.1823 -0.4973 -0.2459
 2241TIP3    H128358   1.325   5.898   2.926  0.5617 -0.7611 -0.2519
 2241TIP3    H228359   1.330   5.894   3.077  2.7740 -2.3802 -0.3265
 2242TIP3   OH228360   1.814   0.583   0.248 -0.0871  0.2330 -0.1580
 2242TIP3    H128361   1.759   0.504   0.249  0.8797 -0.4599  0.4139
 2242TIP3    H228362   1.865   0.575   0.168 -0.8410  0.9094 -0.7217
 2243TIP3   OH228363   3.912   6.487   8.455  0.7150  0.3247  0.1787
 2243TIP3    H128364   3.900   6.581   8.445  2.2216  0.5625  0.3522
 2243TIP3    H228365   3.836   6.458   8.505 -0.0225  1.3584 -0.3212
 2244TIP3   OH228366   2.173   5.219   8.707  0.0175  0.0306  0.0166
 2244TIP3    H128367   2.268   5.209   8.703 -0.0088 -2.8348  2.5692
 2244TIP3    H228368   2.140   5.160   8.639  0.0942 -1.4221  1.1998
 2245TIP3   OH228369   5.332   3.801   0.085  0.1469 -0.0250 -0.7810
 2245TIP3    H128370   5.354   3.890   0.112 -1.3257  0.0741  0.2174
 2245TIP3    H228371   5.267   3.813   0.015 -1.3152 -0.2808  0.4881
 2246TIP3   OH228372   3.018   6.520   1.165  0.8474  0.1158 -0.2845
 2246TIP3    H128373   2.958   6.499   1.236  1.5579  0.2233  0.3675
 2246TIP3    H228374   3.102   6.485   1.195  1.4358  1.2990 -0.4883
 2247TIP3   OH228375   2.149   0.791   1.697 -0.4308 -0.2191  0.5288
 2247TIP3    H128376   2.226   0.847   1.687  0.6817 -1.5063  1.4649
 2247TIP3    H228377   2.181   0.714   1.744 -2.2291 -0.9583  0.6408
 2248TIP3   OH228378   3.696   0.626   8.361 -0.0513 -0.6723 -0.3907
 2248TIP3    H128379   3.691   0.604   8.454  0.2033  0.3149 -0.1372
 2248TIP3    H228380   3.605   0.640   8.334 -0.0089  0.7136  0.1323
 2249TIP3   OH228381   5.263   2.011   1.308 -0.1039 -0.1944 -0.4195
 2249TIP3    H128382   5.309   1.932   1.280 -1.2175 -0.5198 -1.4051
 2249TIP3    H228383   5.194   1.980   1.366 -0.3389  0.0912 -0.5423
 2250TIP3   OH228384   2.849   6.668   1.365  0.0354  0.5541  0.1744
 2250TIP3    H128385   2.854   6.573   1.371  4.4036  0.6197  0.7718
 2250TIP3    H228386   2.774   6.685   1.309 -1.1408 -3.1996  0.3793
 2251TIP3   OH228387   6.181   6.697   0.533 -0.1584 -0.4543 -0.3995
 2251TIP3    H128388   6.127   6.692   0.612 -0.7059  0.4369 -0.7097
 2251TIP3    H228389   6.169   6.611   0.492  0.7812 -1.2399  0.8824
 2252TIP3   OH228390   5.146   2.982   1.032  0.3291 -0.6891  0.1199
 2252TIP3    H128391   5.142   2.890   1.060  2.2200 -0.7614  0.2785
 2252TIP3    H228392   5.143   2.978   0.937  0.4776 -0.9318  0.1235
 2253TIP3   OH228393   1.182   0.488   2.011 -0.7134 -0.1323 -0.2568
 2253TIP3    H128394   1.187   0.399   1.977 -1.4569 -0.3796  0.2594
 2253TIP3    H228395   1.250   0.535   1.964  0.2412 -1.1628  0.0389
 2254TIP3   OH228396   4.437   4.400   2.394 -0.0046 -0.1970  0.1188
 2254TIP3    H128397   4.434   4.436   2.483  1.8487 -1.6049  0.8424
 2254TIP3    H228398   4.530   4.401   2.372 -0.4692  0.4582 -1.9881
 2255TIP3   OH228399   0.398   1.106   2.580  0.5108 -0.8703  0.0410
 2255TIP3    H128400   0.356   1.148   2.655 -0.8553 -0.7010 -0.7762
 2255TIP3    H228401   0.331   1.048   2.545  0.8546 -0.4205 -1.4582
 2256TIP3   OH228402   1.055   3.670   2.484  0.2396 -0.5153 -0.2912
 2256TIP3    H128403   1.009   3.614   2.546 -1.2767  0.3829 -0.5333
 2256TIP3    H228404   1.001   3.667   2.405  0.8336  0.2378 -0.7428
 2257TIP3   OH228405   4.120   5.797   0.135 -1.0152  0.1565 -0.3887
 2257TIP3    H128406   4.182   5.869   0.123 -0.5063 -0.4028 -1.2503
 2257TIP3    H228407   4.094   5.802   0.227  1.6015 -0.6125  0.4814
 2258TIP3   OH228408   6.693   1.253   8.265 -0.0890 -0.1191 -0.1607
 2258TIP3    H128409   6.710   1.198   8.189 -1.0202 -1.7357  0.7391
 2258TIP3    H228410   6.771   1.308   8.273  1.4287 -2.1185 -0.4416
 2259TIP3   OH228411   6.433   6.633   2.408  0.2387  0.0342 -0.0227
 2259TIP3    H128412   6.503   6.601   2.351  0.1140  0.5522 -0.4746
 2259TIP3    H228413   6.388   6.700   2.356 -0.8736 -0.6072  0.1006
 2260TIP3   OH228414   3.975   5.281   1.525 -0.2105 -1.0402  0.5047
 2260TIP3    H128415   3.964   5.199   1.572 -2.0088 -1.1686 -0.0473
 2260TIP3    H228416   3.907   5.279   1.457  0.4307  0.4101 -0.2305
 2261TIP3   OH228417   6.100   6.358   8.593 -0.5945  0.2355  0.0683
 2261TIP3    H128418   6.105   6.426   8.660 -0.6303  0.5220 -0.2214
 2261TIP3    H228419   6.192   6.338   8.571 -0.5875  1.5669 -1.2413
 2262TIP3   OH228420   6.785   4.892   8.168 -0.2914  0.4999  0.5594
 2262TIP3    H128421   6.716   4.930   8.113  0.4015  0.9269 -0.0239
 2262TIP3    H228422   6.833   4.834   8.109 -1.1257 -1.0767  1.3562
 2263TIP3   OH228423   6.824   1.940   8.248 -0.9564 -0.0323 -0.1336
 2263TIP3    H128424   6.835   2.025   8.290 -2.9683 -0.2212  0.9074
 2263TIP3    H228425   6.830   1.876   8.319 -0.6896 -0.6677 -0.7140
 2264TIP3   OH228426   3.742   6.517   1.345  0.0391 -0.6979  0.4542
 2264TIP3    H128427   3.692   6.531   1.265 -1.3186 -0.3879  1.3217
 2264TIP3    H228428   3.833   6.515   1.317 -0.4640 -1.4757 -1.2103
 2265TIP3   OH228429   5.352   5.316   0.122  0.1947 -0.1219  0.0114
 2265TIP3    H128430   5.267   5.326   0.166 -0.0108  0.3582 -0.4869
 2265TIP3    H228431   5.400   5.396   0.145  0.1090  0.1059 -0.5744
 2266TIP3   OH228432   0.079   1.389   2.009  0.7266  0.1851 -0.0360
 2266TIP3    H128433   0.112   1.354   2.092  0.0427  0.0830  0.2081
 2266TIP3    H228434   0.000   1.336   1.992  0.5339  0.6029 -0.4441
 2267TIP3   OH228435   6.063   3.059   8.524 -0.1667  0.6206  0.2492
 2267TIP3    H128436   6.131   3.008   8.481 -0.5426  0.6904 -0.4311
 2267TIP3    H228437   6.087   3.150   8.508 -0.3337  0.6461  0.1422
 2268TIP3   OH228438   4.936   5.623   0.618 -0.0191  0.1048 -0.0245
 2268TIP3    H128439   4.993   5.546   0.616 -1.9093 -1.4797  1.8996
 2268TIP3    H228440   4.982   5.688   0.565  2.1001 -2.0249 -1.0024
 2269TIP3   OH228441   2.264   1.053   7.602 -0.1859 -0.0038 -0.3027
 2269TIP3    H128442   2.180   1.010   7.621  0.1751  0.1378  1.9645
 2269TIP3    H228443   2.240   1.139   7.569 -0.9812  0.2384  0.8395
 2270TIP3   OH228444   2.402   2.458   0.881  0.1253 -0.3491 -0.2846
 2270TIP3    H128445   2.464   2.440   0.811 -0.2947 -0.1564 -0.7098
 2270TIP3    H228446   2.317   2.434   0.845 -0.2167  0.7242 -0.2154
 2271TIP3   OH228447   1.339   1.837   2.698  0.2460  0.3486 -0.3282
 2271TIP3    H128448   1.256   1.852   2.744 -0.4886 -0.6516 -1.2863
 2271TIP3    H228449   1.373   1.925   2.682 -1.4782  0.8782 -1.4005
 2272TIP3   OH228450   4.811   4.111   0.765 -0.2753 -1.0664  0.2283
 2272TIP3    H128451   4.734   4.059   0.785 -0.6058 -1.7343 -2.4174
 2272TIP3    H228452   4.883   4.067   0.811 -1.0679 -1.8827  0.7035
 2273TIP3   OH228453   1.755   1.028   8.397  0.1266  0.4197  0.3178
 2273TIP3    H128454   1.819   1.070   8.339  0.0109 -0.3701 -0.4004
 2273TIP3    H228455   1.801   0.951   8.431  0.0168  0.5994  0.8905
 2274TIP3   OH228456   3.118   3.538   3.534 -0.3309 -0.5094  0.0179
 2274TIP3    H128457   3.070   3.616   3.508 -0.3130  0.3460  2.2846
 2274TIP3    H228458   3.051   3.470   3.543 -0.5423 -0.3876 -0.6324
 2275TIP3   OH228459   2.158   1.566   0.501 -0.1840  0.2738 -0.0126
 2275TIP3    H128460   2.159   1.607   0.588 -0.3650  1.0731 -0.3858
 2275TIP3    H228461   2.090   1.499   0.507  0.2178 -0.0840  0.6471
 2276TIP3   OH228462   4.319   1.160   7.968  0.3377 -0.2386 -0.2858
 2276TIP3    H128463   4.234   1.155   7.926  0.5887 -0.4373 -0.7700
 2276TIP3    H228464   4.299   1.180   8.060 -0.2129  0.0122 -0.4585
 2277TIP3   OH228465   3.646   1.074   1.696 -0.1551  0.3866  0.6815
 2277TIP3    H128466   3.729   1.107   1.661  0.8482 -2.2436  0.3256
 2277TIP3    H228467   3.585   1.081   1.623  0.8308 -1.1950 -0.3592
 2278TIP3   OH228468   3.114   6.529   7.675 -0.4765  0.6803 -0.0195
 2278TIP3    H128469   3.031   6.483   7.666 -0.4114  0.6965 -0.7494
 2278TIP3    H228470   3.090   6.610   7.721 -0.6437  0.1061  0.9482
 2279TIP3   OH228471   6.168   4.252   8.440  0.2374  0.1234 -0.0576
 2279TIP3    H128472   6.255   4.270   8.404 -0.4199 -0.5136 -2.1165
 2279TIP3    H228473   6.171   4.286   8.529  2.9961 -1.0452  0.3874
 2280TIP3   OH228474   4.086   5.778   7.795 -0.5876  0.3623  1.1376
 2280TIP3    H128475   4.040   5.712   7.742  0.1930  1.7517 -1.4493
 2280TIP3    H228476   4.119   5.729   7.870 -2.0301 -1.6789  0.5432
 2281TIP3   OH228477   5.385   0.375   3.855 -0.5896 -0.6584 -0.6693
 2281TIP3    H128478   5.415   0.322   3.781  1.1835  0.9008 -1.1617
 2281TIP3    H228479   5.407   0.465   3.831  0.5641 -0.1206  1.9336
 2282TIP3   OH228480   3.712   4.299   7.946  0.0716 -0.0118  0.7686
 2282TIP3    H128481   3.687   4.318   7.856  2.0133 -1.3399 -0.1202
 2282TIP3    H228482   3.796   4.344   7.958 -1.6960  3.0432  3.1337
 2283TIP3   OH228483   1.232   5.041   8.037 -0.0377 -0.3605  0.3798
 2283TIP3    H128484   1.153   4.991   8.016 -0.0288 -0.7017  1.1154
 2283TIP3    H228485   1.208   5.090   8.116  0.9672 -1.6573  1.5371
 2284TIP3   OH228486   3.174   1.404   7.833  0.3830  0.1405  0.0731
 2284TIP3    H128487   3.100   1.348   7.811 -1.4451  2.6763 -0.6940
 2284TIP3    H228488   3.210   1.431   7.748  0.8515  0.6239  0.4155
 2285TIP3   OH228489   2.038   6.315   2.333 -0.0650 -0.1759 -0.0740
 2285TIP3    H128490   1.967   6.252   2.318 -0.2522  0.2767 -1.1856
 2285TIP3    H228491   2.026   6.381   2.265  0.0238  1.1730  1.1782
 2286TIP3   OH228492   6.300   1.704   8.666  0.1643 -0.6330 -0.0128
 2286TIP3    H128493   6.234   1.681   8.601 -0.5812 -0.2482  0.6040
 2286TIP3    H228494   6.305   1.627   8.724  0.5428 -0.8135 -0.2735
 2287TIP3   OH228495   2.575   5.540   8.070 -0.8797 -0.2349  0.5215
 2287TIP3    H128496   2.638   5.526   8.140  1.0136 -2.3418 -1.4467
 2287TIP3    H228497   2.530   5.457   8.061 -3.0151  0.8025  0.9059
 2288TIP3   OH228498   0.967   1.844   3.143  0.0652  0.0921  0.5326
 2288TIP3    H128499   0.915   1.924   3.137  0.1971  0.1169 -0.4700
 2288TIP3    H228500   0.907   1.774   3.116 -0.0036 -0.1443  1.2522
 2289TIP3   OH228501   4.530   2.773   7.709  0.2287  0.3678 -0.4109
 2289TIP3    H128502   4.579   2.812   7.637  0.4151 -1.7632 -1.4982
 2289TIP3    H228503   4.450   2.739   7.669  0.1999 -0.6123  0.4331
 2290TIP3   OH228504   4.136   0.671   0.174  0.3158 -0.2636 -0.1793
 2290TIP3    H128505   4.076   0.743   0.191  1.9234  1.1172 -0.1372
 2290TIP3    H228506   4.123   0.652   0.081 -0.5085 -0.3185 -0.0655
 2291TIP3   OH228507   5.269   6.790   7.268 -0.1559  0.2755  0.4380
 2291TIP3    H128508   5.311   6.861   7.220 -0.4000  0.4444  0.4743
 2291TIP3    H228509   5.209   6.750   7.205  0.5132 -0.3776  0.1857
 2292TIP3   OH228510   4.991   5.741   2.711  0.0050 -0.9640  0.2490
 2292TIP3    H128511   5.073   5.708   2.746  1.5986  0.7196 -1.6642
 2292TIP3    H228512   4.992   5.716   2.619 -0.2468  1.4388 -0.4745
 2293TIP3   OH228513   3.037   2.023   7.114  0.1973  0.4091 -0.0658
 2293TIP3    H128514   3.088   2.042   7.036  1.7519 -0.0536  0.7863
 2293TIP3    H228515   2.946   2.035   7.087  0.7562  1.6120 -1.5413
 2294TIP3   OH228516   0.497   1.176   8.278 -0.0431 -0.4048 -0.1619
 2294TIP3    H128517   0.508   1.259   8.231 -0.2220 -0.0760  0.3702
 2294TIP3    H228518   0.583   1.134   8.274  0.0563 -0.1814 -0.4039
 2295TIP3   OH228519   0.956   6.042   0.477  0.0638  0.1679 -0.6112
 2295TIP3    H128520   0.893   6.113   0.474  1.3206  1.3104 -1.1515
 2295TIP3    H228521   1.026   6.073   0.535 -0.1748 -1.3546  0.5668
 2296TIP3   OH228522   5.659   2.206   7.752  0.2405 -0.0256  0.1862
 2296TIP3    H128523   5.621   2.269   7.690  1.3028  1.2753  0.8009
 2296TIP3    H228524   5.674   2.257   7.832  1.6380 -0.8988  0.5201
 2297TIP3   OH228525   2.040   0.592   1.502 -0.1268 -0.8243  0.2238
 2297TIP3    H128526   2.069   0.624   1.417  0.2244 -2.6697 -0.3933
 2297TIP3    H228527   2.076   0.654   1.565  0.5173 -0.0268 -0.8991
 2298TIP3   OH228528   0.353   0.828   8.036 -0.5919  0.6929 -0.7222
 2298TIP3    H128529   0.281   0.873   7.993 -0.6721 -0.6536 -2.0699
 2298TIP3    H228530   0.363   0.745   7.988  0.6808  0.0472  0.5531
 2299TIP3   OH228531   3.327   2.100   8.591 -0.3673  0.3710 -0.2564
 2299TIP3    H128532   3.333   2.036   8.520  1.9021  0.6791 -0.4116
 2299TIP3    H228533   3.371   2.059   8.665  1.5269  1.8530 -0.4814
 2300TIP3   OH228534   6.515   1.281   2.131 -0.6794  0.3368 -0.0111
 2300TIP3    H128535   6.490   1.271   2.223  0.6870 -0.8586  0.2576
 2300TIP3    H228536   6.437   1.258   2.082 -0.9717 -0.5453  0.8394
 2301TIP3   OH228537   4.564   5.868   8.587 -0.0660 -0.0461 -0.0397
 2301TIP3    H128538   4.610   5.871   8.503  1.6545 -2.8312  0.6698
 2301TIP3    H228539   4.627   5.901   8.650  1.1072 -3.6066  0.8983
 2302TIP3   OH228540   1.432   2.922   0.572  0.0633  0.3976  0.4450
 2302TIP3    H128541   1.424   3.012   0.542 -0.1225  1.1110  2.5206
 2302TIP3    H228542   1.365   2.913   0.639 -0.5059 -1.5718 -0.3138
 2303TIP3   OH228543   5.210   4.330   3.242 -0.1693  0.9599 -0.4364
 2303TIP3    H128544   5.150   4.305   3.313 -0.8977  0.3480 -1.2413
 2303TIP3    H228545   5.156   4.382   3.182 -0.2668 -0.6108 -1.7850
 2304TIP3   OH228546   0.165   0.816   0.539  0.1812 -0.2731 -0.2829
 2304TIP3    H128547   0.158   0.775   0.453  0.6776  1.7156 -1.3292
 2304TIP3    H228548   0.227   0.887   0.527  1.1668 -0.6457  2.0349
 2305TIP3   OH228549   2.985   4.007   0.786  0.0245 -0.4150 -0.8568
 2305TIP3    H128550   2.982   3.977   0.876  0.5484 -0.1133 -0.7351
 2305TIP3    H228551   3.031   4.091   0.790  0.3841 -0.5787 -1.4475
 2306TIP3   OH228552   2.240   1.269   8.044 -0.0834  0.1616 -0.2274
 2306TIP3    H128553   2.296   1.262   8.121 -0.1505  0.6861 -0.1280
 2306TIP3    H228554   2.283   1.213   7.979  0.2610  0.1281  0.0233
 2307TIP3   OH228555   6.006   0.230   2.641 -0.4925 -0.1191 -0.1238
 2307TIP3    H128556   5.957   0.160   2.598 -1.5095  1.2556 -1.3243
 2307TIP3    H228557   5.953   0.252   2.718 -0.3945 -0.3853  0.0197
 2308TIP3   OH228558   2.680   6.063   8.137 -0.7356  0.2252  1.1772
 2308TIP3    H128559   2.612   6.016   8.185 -2.4748 -0.8499 -1.9802
 2308TIP3    H228560   2.634   6.098   8.060  2.3242 -1.0060 -1.4495
 2309TIP3   OH228561   4.708   1.319   1.164  0.2760  0.0260 -0.7240
 2309TIP3    H128562   4.702   1.410   1.134  0.2824 -0.1193 -1.1670
 2309TIP3    H228563   4.802   1.304   1.175  0.2515  1.5264  3.8559
 2310TIP3   OH228564   2.541   6.368   0.775 -1.7475  0.0288 -0.0302
 2310TIP3    H128565   2.450   6.346   0.793 -1.5794 -0.9088 -0.3013
 2310TIP3    H228566   2.579   6.387   0.861 -2.0075 -0.3175  0.1626
 2311TIP3   OH228567   3.465   3.833   2.598  0.7566 -0.4969 -0.4274
 2311TIP3    H128568   3.414   3.771   2.545  0.8212 -0.3341 -0.6827
 2311TIP3    H228569   3.426   3.827   2.685 -0.0517  0.0121 -0.7405
 2312TIP3   OH228570   1.419   0.313   0.657 -0.2830 -0.5086  0.4804
 2312TIP3    H128571   1.433   0.358   0.740  1.3284 -1.4292  0.7514
 2312TIP3    H228572   1.456   0.226   0.671  0.9106 -0.3815 -1.4759
 2313TIP3   OH228573   5.121   5.794   0.527  0.3724 -0.7013  0.0181
 2313TIP3    H128574   5.175   5.715   0.519  0.5741 -0.4294 -1.5470
 2313TIP3    H228575   5.128   5.837   0.442 -2.9621 -1.0930 -0.6019
 2314TIP3   OH228576   4.793   6.040   1.048  0.2114  0.1305  0.4328
 2314TIP3    H128577   4.807   6.108   1.114  1.3632  0.0245  0.3166
 2314TIP3    H228578   4.802   6.085   0.964 -3.6387  0.7887  0.2113
 2315TIP3   OH228579   4.936   5.411   3.621  0.3996  0.0530  0.7607
 2315TIP3    H128580   4.966   5.500   3.634  2.1571 -0.4666  0.4788
 2315TIP3    H228581   4.978   5.360   3.690  1.9741 -1.0532 -0.9090
 2316TIP3   OH228582   6.582   2.391   1.448 -0.0759  0.5148  0.1760
 2316TIP3    H128583   6.503   2.387   1.501 -0.2421  1.3085  0.0022
 2316TIP3    H228584   6.654   2.396   1.511  0.2619 -4.3905  0.5213
 2317TIP3   OH228585   5.223   3.597   3.626  0.1411  0.1935  0.3044
 2317TIP3    H128586   5.241   3.528   3.689  2.2047  0.0851 -0.3171
 2317TIP3    H228587   5.222   3.553   3.541  4.7967  1.1234 -0.5231
 2318TIP3   OH228588   0.494   3.046   7.179 -0.6214 -0.5053  0.1692
 2318TIP3    H128589   0.531   3.134   7.173 -0.1000 -0.7101  0.3471
 2318TIP3    H228590   0.402   3.061   7.204 -0.3816 -0.0324  0.8048
 2319TIP3   OH228591   5.878   4.647   8.497  0.3560 -0.8230 -0.5446
 2319TIP3    H128592   5.965   4.684   8.511  0.5382 -0.8723 -1.4834
 2319TIP3    H228593   5.847   4.625   8.584  0.5728  0.8038 -0.0209
 2320TIP3   OH228594   1.362   5.997   2.741  0.6828 -0.3908  0.5157
 2320TIP3    H128595   1.327   5.979   2.654  2.2859 -1.7088  0.0953
 2320TIP3    H228596   1.325   6.082   2.764  0.7809  0.3419 -1.7611
 2321TIP3   OH228597   0.305   6.468   2.239 -0.2274 -0.1870  0.4689
 2321TIP3    H128598   0.293   6.529   2.312  0.0423 -0.4477  0.7320
 2321TIP3    H228599   0.400   6.466   2.224 -0.3167  0.2786 -0.2483
 2322TIP3   OH228600   6.531   6.180   0.813 -0.0817 -1.0020  0.2531
 2322TIP3    H128601   6.610   6.202   0.763 -0.0392 -0.7732  0.4187
 2322TIP3    H228602   6.505   6.262   0.854 -0.3092 -1.1149  0.3375
 2323TIP3   OH228603   5.301   1.920   2.382  0.0143  0.2297 -0.3543
 2323TIP3    H128604   5.303   1.864   2.304  0.3372  0.3643 -0.4469
 2323TIP3    H228605   5.325   1.861   2.454 -2.0968 -0.3342 -0.0539
 2324TIP3   OH228606   2.062   0.936   0.346 -0.0488 -0.6005  0.2129
 2324TIP3    H128607   1.982   0.985   0.363 -0.5265 -0.3797 -2.2988
 2324TIP3    H228608   2.133   0.999   0.362 -0.4566 -0.2144  0.5362
 2325TIP3   OH228609   3.795   1.112   8.628  0.2587 -0.1316  0.3053
 2325TIP3    H128610   3.743   1.171   8.683 -0.5690  0.1186 -0.7081
 2325TIP3    H228611   3.811   1.036   8.682 -2.2078 -0.7449  0.2945
 2326TIP3   OH228612   3.820   1.041   0.392  0.6106  0.8959  0.4693
 2326TIP3    H128613   3.825   1.107   0.461  1.4848  2.1451 -0.7422
 2326TIP3    H228614   3.726   1.035   0.373  0.6341  4.0781 -1.4302
 2327TIP3   OH228615   0.827   4.659   2.606 -0.2118  0.2848 -0.0631
 2327TIP3    H128616   0.796   4.713   2.678  0.1416  1.5605 -0.8344
 2327TIP3    H228617   0.794   4.703   2.527  2.7523  1.2489 -0.8923
 2328TIP3   OH228618   2.950   6.647   2.123  0.2830  0.0976  0.5725
 2328TIP3    H128619   2.881   6.705   2.090  0.6487  1.5941  2.2751
 2328TIP3    H228620   2.946   6.657   2.218  0.7728 -2.2604  0.9024
 2329TIP3   OH228621   6.434   5.773   1.900 -0.2794 -0.5996 -0.3570
 2329TIP3    H128622   6.383   5.847   1.933  1.5964  1.2475 -1.4069
 2329TIP3    H228623   6.375   5.730   1.838 -0.9627  0.8498 -0.7714
 2330TIP3   OH228624   2.357   2.858   0.600 -0.2060 -0.1143 -0.2073
 2330TIP3    H128625   2.347   2.945   0.639 -1.9151 -1.1974  2.0041
 2330TIP3    H228626   2.367   2.800   0.676  1.4738 -1.8226 -1.6505
 2331TIP3   OH228627   3.234   0.113   0.074  0.0309  0.0518  0.3188
 2331TIP3    H128628   3.241   0.084  -0.017  0.2202 -1.0274  0.6575
 2331TIP3    H228629   3.215   0.033   0.123 -0.7634  0.7230  1.1526
 2332TIP3   OH228630   5.601   2.060   2.539 -0.0213  0.4189 -0.1170
 2332TIP3    H128631   5.560   2.040   2.623  2.0650 -1.6211  0.5424
 2332TIP3    H228632   5.657   2.136   2.557 -0.7451  0.9566 -0.0955
 2333TIP3   OH228633   3.432   6.014   1.875 -0.2987 -0.8674 -0.0995
 2333TIP3    H128634   3.392   6.007   1.962  0.7082  0.1809  0.4725
 2333TIP3    H228635   3.432   6.108   1.856 -0.7168 -1.1099 -1.3371
 2334TIP3   OH228636   6.632   6.344   8.060  0.1641  0.4960 -0.0089
 2334TIP3    H128637   6.652   6.380   7.973 -1.4632  1.0804 -0.1772
 2334TIP3    H228638   6.599   6.256   8.042  0.1810  0.4796  0.0406
 2335TIP3   OH228639   2.009   1.913   2.530  0.1217  0.1234 -0.2687
 2335TIP3    H128640   2.024   1.903   2.624 -1.2466 -0.3728 -0.0818
 2335TIP3    H228641   2.021   2.007   2.514  0.5772  0.1783  0.3601
 2336TIP3   OH228642   6.404   4.721   0.980 -0.1064  0.2237  0.4269
 2336TIP3    H128643   6.394   4.709   0.885 -0.3709 -0.8332  0.5711
 2336TIP3    H228644   6.474   4.661   1.004 -0.2549  0.2523  0.9446
 2337TIP3   OH228645   6.697   5.763   7.926  0.5043  0.1357 -0.2609
 2337TIP3    H128646   6.627   5.749   7.861 -0.6358  0.4626  0.8585
 2337TIP3    H228647   6.703   5.680   7.973  1.3857 -0.1270 -0.8126
 2338TIP3   OH228648   0.922   1.497   2.243 -0.2837  0.0520 -0.2223
 2338TIP3    H128649   0.877   1.580   2.233  2.3220  1.5531 -0.4792
 2338TIP3    H228650   0.905   1.450   2.161  0.4927  1.6021 -1.3317
 2339TIP3   OH228651   3.019   0.420   7.742  0.8474 -0.1438  0.3770
 2339TIP3    H128652   2.965   0.497   7.762  1.8036  0.8005 -0.5074
 2339TIP3    H228653   3.099   0.457   7.704  0.7351 -1.6335 -1.4278
 2340TIP3   OH228654   3.880   5.156   8.200  0.8458 -0.3404  0.1270
 2340TIP3    H128655   3.852   5.214   8.129 -0.6506 -0.5918  0.4837
 2340TIP3    H228656   3.936   5.091   8.158  0.6725  0.0171 -0.6690
 2341TIP3   OH228657   5.688   1.358   1.242 -0.4645 -0.4805 -0.1939
 2341TIP3    H128658   5.758   1.333   1.303 -0.2333  1.2660  0.3204
 2341TIP3    H228659   5.611   1.312   1.274  0.1297 -1.2942  0.1059
 2342TIP3   OH228660   4.987   2.106   2.001 -0.5900 -0.0376  0.5451
 2342TIP3    H128661   4.986   2.011   1.987 -0.5614 -0.1042  0.9749
 2342TIP3    H228662   4.932   2.140   1.931 -0.8443 -0.3997  0.5612
 2343TIP3   OH228663   4.213   4.050   1.707  0.0962  0.7451  0.2857
 2343TIP3    H128664   4.176   3.970   1.744 -1.3921 -1.0839 -4.3556
 2343TIP3    H228665   4.301   4.024   1.679  0.3167  1.3283  0.4324
 2344TIP3   OH228666   0.249   4.856   8.095  0.2558 -0.1607  0.5978
 2344TIP3    H128667   0.178   4.803   8.059  1.3905 -1.6002  0.3663
 2344TIP3    H228668   0.328   4.821   8.054  1.2062  0.7242  1.6018
 2345TIP3   OH228669   4.217   6.400   2.621  0.2973 -0.5625 -0.1892
 2345TIP3    H128670   4.147   6.367   2.565 -1.5965  0.6676  1.3551
 2345TIP3    H228671   4.173   6.443   2.694  2.5812  2.7646 -0.5172
 2346TIP3   OH228672   1.871   6.029   3.286 -0.0735 -0.1490 -0.0433
 2346TIP3    H128673   1.948   6.054   3.337  0.2164  0.5863 -0.8051
 2346TIP3    H228674   1.865   5.934   3.297 -1.0963  0.1600  2.7794
 2347TIP3   OH228675   2.204   5.439   7.989 -0.4113  0.0928 -0.2456
 2347TIP3    H128676   2.207   5.512   7.927 -0.6093  1.2044  1.0042
 2347TIP3    H228677   2.188   5.362   7.935 -1.9760  1.2059 -1.4606
 2348TIP3   OH228678   5.956   2.257   0.051 -0.2652  0.0236 -0.2550
 2348TIP3    H128679   5.992   2.169   0.041 -0.5313 -0.4426  2.2415
 2348TIP3    H228680   6.017   2.302   0.109  0.6641  2.0620 -2.6320
 2349TIP3   OH228681   2.076   1.285   8.571 -0.1604  0.6617 -0.3203
 2349TIP3    H128682   1.991   1.306   8.610 -1.7674  0.3339 -3.3235
 2349TIP3    H228683   2.066   1.307   8.478  2.1006 -1.9306 -1.3286
 2350TIP3   OH228684   4.897   2.120   2.301 -0.1831 -0.0492 -0.3296
 2350TIP3    H128685   4.840   2.138   2.227  0.0809  1.1722 -0.2476
 2350TIP3    H228686   4.907   2.024   2.301 -2.0796 -0.2865 -0.4375
 2351TIP3   OH228687   6.752   6.439   1.539 -0.2397  0.3719 -0.2063
 2351TIP3    H128688   6.709   6.390   1.469  1.4363 -0.6651 -0.5836
 2351TIP3    H228689   6.763   6.376   1.610 -0.3867  0.9365  0.3292
 2352TIP3   OH228690   2.811   5.681   7.129 -0.1034 -0.4699  0.2531
 2352TIP3    H128691   2.904   5.677   7.152  0.1697 -0.4897 -0.8233
 2352TIP3    H228692   2.802   5.764   7.081 -0.7179 -0.3003  0.6455
 2353TIP3   OH228693   2.738   0.179   7.716  0.3662  0.1348 -0.4447
 2353TIP3    H128694   2.824   0.177   7.674  1.2451  1.4351  1.1882
 2353TIP3    H228695   2.676   0.182   7.643  1.7106 -0.2461 -1.6514
 2354TIP3   OH228696   6.033   4.389   3.119  0.1960  0.1369  0.3668
 2354TIP3    H128697   6.082   4.323   3.071 -1.1260 -1.5927  1.2950
 2354TIP3    H228698   6.046   4.367   3.211  0.2431  1.5768  0.7376
 2355TIP3   OH228699   5.519   5.136   0.911  0.2595  0.4083 -1.0526
 2355TIP3    H128700   5.466   5.139   0.831 -0.6163 -1.3317 -0.5898
 2355TIP3    H228701   5.463   5.093   0.976  1.0628  1.5302  0.4385
 2356TIP3   OH228702   0.469   0.598   1.761  0.2794  0.2497  0.3240
 2356TIP3    H128703   0.505   0.544   1.832 -0.2014  1.8465  1.8723
 2356TIP3    H228704   0.539   0.661   1.742  0.2737  0.0433 -0.3942
 2357TIP3   OH228705   0.393   1.677   2.804 -0.3693 -0.1411 -0.1089
 2357TIP3    H128706   0.487   1.694   2.805 -0.6731  1.8102  0.7107
 2357TIP3    H228707   0.363   1.703   2.891 -1.4525 -2.3039  0.2240
 2358TIP3   OH228708   2.887   1.452   2.308  0.0377  0.6096  0.3061
 2358TIP3    H128709   2.850   1.449   2.220 -1.3047 -0.6744  0.8769
 2358TIP3    H228710   2.845   1.527   2.349 -0.9511 -0.0477  0.5184
 2359TIP3   OH228711   2.334   4.682   3.317  0.0551 -0.0521  0.7067
 2359TIP3    H128712   2.271   4.750   3.339  0.1694  0.0491  0.7193
 2359TIP3    H228713   2.407   4.695   3.378  0.3913  0.2550  0.2440
 2360TIP3   OH228714   3.579   2.474   0.653 -0.2324 -0.4090 -0.8799
 2360TIP3    H128715   3.617   2.446   0.736  1.1057  1.3075 -0.8596
 2360TIP3    H228716   3.513   2.408   0.634  1.1029 -2.1972  0.3073
 2361TIP3   OH228717   4.849   6.303   2.223  0.1868 -0.3636  0.1044
 2361TIP3    H128718   4.773   6.316   2.166 -0.1298  1.2676  0.8249
 2361TIP3    H228719   4.889   6.222   2.192 -1.3298 -0.7825 -0.8738
 2362TIP3   OH228720   5.453   6.364   2.459 -0.1115  0.5651  0.1377
 2362TIP3    H128721   5.546   6.347   2.467 -0.2222 -0.7005 -0.9153
 2362TIP3    H228722   5.414   6.278   2.440 -1.2488  1.3540 -1.3683
 2363TIP3   OH228723   5.453   1.237   3.540 -0.4487  0.0116 -0.4509
 2363TIP3    H128724   5.470   1.329   3.523 -0.7839  0.1392 -0.1119
 2363TIP3    H228725   5.357   1.229   3.535 -0.4347 -0.2713 -0.2596
 2364TIP3   OH228726   6.753   4.005   8.227 -0.1229  0.2835 -0.3981
 2364TIP3    H128727   6.746   4.019   8.321  0.0304 -1.1620 -0.1540
 2364TIP3    H228728   6.843   4.031   8.205 -0.2722  0.9631 -0.2165
 2365TIP3   OH228729   4.490   0.640   7.195  0.1688 -0.0318  0.7509
 2365TIP3    H128730   4.408   0.669   7.157  1.3652 -0.9376 -2.9994
 2365TIP3    H228731   4.542   0.720   7.205 -0.4949  0.3280  1.3934
 2366TIP3   OH228732   4.167   1.513   7.293  0.0096 -0.6280  0.4076
 2366TIP3    H128733   4.165   1.439   7.232  0.1554 -1.7174  1.6698
 2366TIP3    H228734   4.145   1.475   7.377  0.8091  0.6415  1.2280
 2367TIP3   OH228735   4.299   4.699   2.488  0.2096  0.2966 -0.6036
 2367TIP3    H128736   4.345   4.672   2.408 -1.4209  1.2129 -1.9382
 2367TIP3    H228737   4.341   4.780   2.514  1.3687 -0.4911  0.0534
 2368TIP3   OH228738   0.827   4.097   2.300 -0.3575 -0.1818  0.0674
 2368TIP3    H128739   0.785   4.118   2.216  0.9614  0.8287 -0.3886
 2368TIP3    H228740   0.826   4.179   2.349 -0.3288 -0.5415  0.6811
 2369TIP3   OH228741   5.279   6.358   3.250  0.4808  0.0998  0.2471
 2369TIP3    H128742   5.312   6.389   3.335 -0.4354 -0.7746  0.9483
 2369TIP3    H228743   5.343   6.291   3.224 -0.2452 -1.0159  1.2131
 2370TIP3   OH228744   0.798   3.318   1.224  0.2170 -0.2489 -0.2548
 2370TIP3    H128745   0.795   3.242   1.167  0.1635 -0.8848  0.5860
 2370TIP3    H228746   0.842   3.287   1.303 -1.5084  0.0623  0.8833
 2371TIP3   OH228747   6.290   0.496   7.774  0.1598 -0.0251  0.1426
 2371TIP3    H128748   6.297   0.426   7.709 -2.7341 -1.8596  1.5636
 2371TIP3    H228749   6.343   0.466   7.847  1.3624  0.8063 -0.3614
 2372TIP3   OH228750   6.461   5.886   1.233 -0.4634 -0.5885 -0.3514
 2372TIP3    H128751   6.412   5.884   1.150  0.2438 -2.3276 -0.7740
 2372TIP3    H228752   6.523   5.958   1.222  0.2775 -1.3900 -1.7559
 2373TIP3   OH228753   5.077   5.200   1.829 -0.2827 -0.1794  0.4511
 2373TIP3    H128754   5.069   5.227   1.920 -0.6438 -0.2673  0.4484
 2373TIP3    H228755   5.096   5.281   1.781  0.7980 -0.2647  0.7065
 2374TIP3   OH228756   6.569   0.925   0.517  0.2118  0.4274  0.3469
 2374TIP3    H128757   6.554   1.015   0.490  0.8352 -0.0156 -1.6028
 2374TIP3    H228758   6.521   0.917   0.600 -0.4897  2.3087  0.1757
 2375TIP3   OH228759   0.768   4.839   2.430  0.4588 -0.7302  0.4764
 2375TIP3    H128760   0.781   4.915   2.487  2.1614  1.0133 -2.0571
 2375TIP3    H228761   0.730   4.875   2.350  0.5970 -2.6989 -0.5310
 2376TIP3   OH228762   6.745   2.179   0.469 -0.0119 -0.2832 -0.0806
 2376TIP3    H128763   6.715   2.217   0.386  1.4990 -1.1657 -1.0627
 2376TIP3    H228764   6.756   2.086   0.450 -0.1740 -0.5892  1.2765
 2377TIP3   OH228765   5.297   2.992   1.418 -0.1663  0.2980  0.3611
 2377TIP3    H128766   5.353   3.021   1.489 -1.4562 -1.2897  2.1615
 2377TIP3    H228767   5.327   2.903   1.399 -0.8720  0.1193  0.0501
 2378TIP3   OH228768   5.720   4.332   7.896  0.2109  0.1729  0.1974
 2378TIP3    H128769   5.756   4.256   7.850  0.1324  1.3242 -1.9082
 2378TIP3    H228770   5.636   4.349   7.853  0.3935  1.6529  0.3616
 2379TIP3   OH228771   5.795   5.279   1.685 -0.0418 -0.1159 -0.3122
 2379TIP3    H128772   5.728   5.217   1.657 -1.5055  1.2506  0.0249
 2379TIP3    H228773   5.747   5.348   1.730  1.6210  0.8433  0.0945
 2380TIP3   OH228774   2.830   5.506   3.438 -0.2537 -0.1697 -0.0369
 2380TIP3    H128775   2.918   5.525   3.405 -0.1211  2.5268  1.5431
 2380TIP3    H228776   2.772   5.546   3.373 -0.3376 -1.4785 -0.7999
 2381TIP3   OH228777   4.439   1.194   0.028  0.1367  0.3196 -0.6204
 2381TIP3    H128778   4.464   1.111  -0.011 -2.4237 -0.8930  0.1356
 2381TIP3    H228779   4.446   1.180   0.122 -0.6797  0.8216 -0.4738
 2382TIP3   OH228780   0.742   2.319   0.884 -0.3429  0.0324  0.3723
 2382TIP3    H128781   0.742   2.378   0.960  1.5870  1.6354 -0.7728
 2382TIP3    H228782   0.653   2.327   0.848 -0.7816  0.5199  1.5113
 2383TIP3   OH228783   4.340   3.651   8.000 -0.1840  0.2387  0.1905
 2383TIP3    H128784   4.259   3.668   7.952 -0.0590  0.7118  0.1370
 2383TIP3    H228785   4.404   3.630   7.932 -0.1472  0.3380  0.1941
 2384TIP3   OH228786   0.578   1.625   1.146 -0.0512  0.1084  0.0246
 2384TIP3    H128787   0.542   1.539   1.169 -1.7451  0.0211 -2.5525
 2384TIP3    H228788   0.615   1.613   1.059 -0.6387  2.0609 -0.5493
 2385TIP3   OH228789   5.195   5.697   2.888  0.2600  0.1303 -0.3961
 2385TIP3    H128790   5.250   5.767   2.923 -0.0166 -0.0497  0.4294
 2385TIP3    H228791   5.255   5.643   2.837  1.2123 -0.9306  1.7367
 2386TIP3   OH228792   0.552   3.183   2.333 -0.6272  0.6227 -1.0207
 2386TIP3    H128793   0.578   3.183   2.426 -0.8277  0.0747 -0.9613
 2386TIP3    H228794   0.629   3.218   2.287 -0.2569  0.2141 -0.7207
 2387TIP3   OH228795   2.883   2.670   7.324  0.2273 -0.2599 -0.3304
 2387TIP3    H128796   2.935   2.649   7.246 -0.6611  1.1640 -1.3561
 2387TIP3    H228797   2.817   2.602   7.328 -0.4160  0.2625 -1.5080
 2388TIP3   OH228798   5.979   6.302   7.572 -0.0111  0.4011 -0.3219
 2388TIP3    H128799   5.944   6.381   7.613  0.5323  0.6564 -0.3403
 2388TIP3    H228800   6.022   6.255   7.643  0.2106  0.4351 -0.4324
 2389TIP3   OH228801   6.711   4.489   2.389  0.0313  0.7050  0.1587
 2389TIP3    H128802   6.695   4.553   2.458  0.1807  1.2577 -0.3106
 2389TIP3    H228803   6.693   4.405   2.430  0.7152  0.9766  1.0590
 2390TIP3   OH228804   4.403   1.153   2.121 -0.7603 -0.0040 -0.2465
 2390TIP3    H128805   4.311   1.149   2.096 -0.5694 -0.5803 -0.8975
 2390TIP3    H228806   4.448   1.190   2.045 -0.6138  1.5904  0.5749
 2391TIP3   OH228807   3.228   3.041   0.752  0.1387  0.3371 -0.1395
 2391TIP3    H128808   3.217   2.950   0.726  1.9364  0.1447 -0.4030
 2391TIP3    H228809   3.204   3.092   0.675  0.4544  0.0070 -0.4592
 2392TIP3   OH228810   3.732   6.064   2.329  0.6408  0.0617 -0.4585
 2392TIP3    H128811   3.693   6.026   2.407 -0.8378 -0.1095 -1.2478
 2392TIP3    H228812   3.827   6.058   2.344  0.3882 -0.0858  1.2358
 2393TIP3   OH228813   4.948   4.569   8.254 -0.1513 -0.2934  0.2344
 2393TIP3    H128814   4.960   4.619   8.335  0.1052 -0.6170  0.4000
 2393TIP3    H228815   4.956   4.477   8.282  3.0773 -0.3879 -0.6177
 2394TIP3   OH228816   0.042   4.317   2.301 -0.1764  0.0938  0.4959
 2394TIP3    H128817  -0.024   4.382   2.324 -0.7297 -0.3640  0.2347
 2394TIP3    H228818   0.100   4.315   2.377 -0.7018  0.2099  0.9114
 2395TIP3   OH228819   6.263   2.641   2.250 -0.0308 -0.5299  0.3312
 2395TIP3    H128820   6.216   2.617   2.170  1.4130 -0.9043 -0.4441
 2395TIP3    H228821   6.243   2.734   2.263  0.0692 -0.3491 -0.7285
 2396TIP3   OH228822   3.954   1.308   1.946 -0.0404  0.0206  0.2237
 2396TIP3    H128823   3.942   1.402   1.961 -0.3355  0.1231 -0.6163
 2396TIP3    H228824   3.865   1.272   1.942  0.0550 -0.1818 -0.1309
 2397TIP3   OH228825   0.303   6.627   2.464  0.4570  0.1911  0.4227
 2397TIP3    H128826   0.219   6.664   2.437  0.9637  0.4903 -0.8079
 2397TIP3    H228827   0.316   6.659   2.553 -1.2048 -0.7005  1.0213
 2398TIP3   OH228828   6.526   6.384   1.319  0.1432 -0.5777 -0.1070
 2398TIP3    H128829   6.436   6.404   1.343 -0.2747 -2.2579 -0.1347
 2398TIP3    H228830   6.565   6.468   1.296 -1.1418  0.2923  0.8030
 2399TIP3   OH228831   3.481   0.124   7.681  0.3605 -0.3171  0.1939
 2399TIP3    H128832   3.421   0.195   7.656  0.1438 -1.0436 -1.4914
 2399TIP3    H228833   3.498   0.139   7.773 -0.9638  0.9977  0.2708
 2400TIP3   OH228834   3.480   2.873   8.105 -0.1998  0.5889  0.2178
 2400TIP3    H128835   3.506   2.959   8.072 -0.2349  0.8623  0.8966
 2400TIP3    H228836   3.562   2.832   8.132 -0.2841  0.7684  0.7451
 2401TIP3   OH228837   6.508   3.812   0.317  0.6719 -0.0103 -0.4825
 2401TIP3    H128838   6.469   3.763   0.388  0.8389 -1.1216 -1.1357
 2401TIP3    H228839   6.451   3.796   0.242 -0.2412  2.1740 -0.3519
 2402TIP3   OH228840   2.722   0.738   2.156 -0.1219 -0.1061  0.0846
 2402TIP3    H128841   2.688   0.725   2.244  0.5222  0.1764  0.3870
 2402TIP3    H228842   2.813   0.708   2.161 -0.6189 -1.9010 -0.9896
 2403TIP3   OH228843   0.692   4.746   0.999  0.1802 -0.4033 -0.2921
 2403TIP3    H128844   0.718   4.835   1.022 -0.1671 -0.4999  0.5079
 2403TIP3    H228845   0.689   4.745   0.904 -0.1759  0.5408 -0.2964
 2404TIP3   OH228846   2.330   4.670   2.985  0.1624 -0.0642 -0.1305
 2404TIP3    H128847   2.288   4.587   3.006  1.0569 -1.0259 -1.8594
 2404TIP3    H228848   2.333   4.672   2.889 -1.2356  2.7217 -0.2370
 2405TIP3   OH228849   3.626   3.767   0.920  0.2402  0.7638  0.1827
 2405TIP3    H128850   3.617   3.855   0.956 -1.5763  0.5733  0.2411
 2405TIP3    H228851   3.565   3.713   0.971  0.2477 -0.2298 -0.8264
 2406TIP3   OH228852   0.049   4.812   0.171 -0.2429 -0.6403  0.1111
 2406TIP3    H128853   0.040   4.902   0.139  0.3680 -0.3000  0.8812
 2406TIP3    H228854   0.043   4.758   0.092  2.2465  0.2408 -0.7559
 2407TIP3   OH228855   0.957   1.435   0.437 -0.0531 -0.2162 -0.5699
 2407TIP3    H128856   0.893   1.415   0.368 -2.1875 -0.5080  1.3549
 2407TIP3    H228857   0.948   1.529   0.451  0.0578 -0.2319 -0.3919
 2408TIP3   OH228858   1.870   1.664   0.321  0.0315 -0.0619 -0.2313
 2408TIP3    H128859   1.779   1.673   0.350  0.0427  2.0535 -0.7066
 2408TIP3    H228860   1.864   1.634   0.230 -0.1984  0.0422 -0.2501
 2409TIP3   OH228861   4.564   1.317   1.928  0.5810 -0.1285  0.2244
 2409TIP3    H128862   4.633   1.282   1.871 -0.4090 -0.6870 -0.6501
 2409TIP3    H228863   4.495   1.345   1.868  0.0942  0.5681  1.0819
 2410TIP3   OH228864   6.108   0.568   1.957 -0.4021 -0.3225  0.2849
 2410TIP3    H128865   6.144   0.513   1.888  0.6948  0.6605  0.0587
 2410TIP3    H228866   6.019   0.588   1.928  0.0387  0.0603 -0.8449
 2411TIP3   OH228867   3.225   5.986   1.457  0.0268  0.3122  0.0194
 2411TIP3    H128868   3.260   5.997   1.368 -0.4463 -2.0714 -0.5252
 2411TIP3    H228869   3.152   5.925   1.447 -0.6698  0.7598  1.9370
 2412TIP3   OH228870   1.446   5.511   0.491 -0.0567 -0.8072 -0.3607
 2412TIP3    H128871   1.495   5.431   0.513  0.2753  0.0462  2.3796
 2412TIP3    H228872   1.513   5.571   0.460  0.4880 -0.1939  1.8136
 2413TIP3   OH228873   5.455   1.583   7.543  0.1270  0.0308 -0.8352
 2413TIP3    H128874   5.458   1.488   7.540 -0.3664  0.0170 -0.8497
 2413TIP3    H228875   5.362   1.605   7.545  0.2431  0.4756  0.4184
 2414TIP3   OH228876   2.065   1.081   7.229  1.0091  0.2265 -0.1495
 2414TIP3    H128877   2.092   1.173   7.218 -1.4206  0.9362 -0.7714
 2414TIP3    H228878   2.018   1.080   7.312 -0.6240  0.0090 -1.0438
 2415TIP3   OH228879   5.571   6.219   0.596  0.0393 -0.0720  0.8759
 2415TIP3    H128880   5.538   6.137   0.634 -0.0753 -0.0885  0.7400
 2415TIP3    H228881   5.522   6.287   0.642 -0.9258 -0.1284 -0.0379
 2416TIP3   OH228882   2.938   1.637   7.740 -0.2947 -0.6411 -0.3391
 2416TIP3    H128883   3.023   1.614   7.703  0.5383 -0.4091  1.3339
 2416TIP3    H228884   2.877   1.574   7.701  0.3318  0.0958 -2.6727
 2417TIP3   OH228885   6.234   0.888   8.377  0.0329 -0.2605 -0.0429
 2417TIP3    H128886   6.263   0.835   8.452  0.1920 -1.0192 -0.6235
 2417TIP3    H228887   6.290   0.859   8.304 -2.1456 -1.8447 -1.2271
 2418TIP3   OH228888   0.213   5.914   8.671  0.1303 -0.0721 -0.3324
 2418TIP3    H128889   0.247   5.957   8.749  0.8925  0.5082 -0.9610
 2418TIP3    H228890   0.162   5.840   8.704  0.3980  0.1938  0.7072
 2419TIP3   OH228891   6.830   4.239   0.836  0.1671 -0.7323  0.0494
 2419TIP3    H128892   6.773   4.169   0.804 -1.7033  0.7581 -0.0181
 2419TIP3    H228893   6.789   4.267   0.918 -0.5161  1.8453 -1.0772
 2420TIP3   OH228894   5.565   1.111   1.367 -0.3245 -0.1831 -0.3664
 2420TIP3    H128895   5.653   1.079   1.384  0.2213  1.5471  0.2828
 2420TIP3    H228896   5.509   1.056   1.423  0.6495  0.3740  1.2365
 2421TIP3   OH228897   6.276   1.272   3.292 -0.0880 -0.4561  0.0581
 2421TIP3    H128898   6.216   1.210   3.333  0.1436 -1.8028 -1.4857
 2421TIP3    H228899   6.363   1.238   3.313  0.1016  0.4805  0.8250
 2422TIP3   OH228900   0.731   3.678   0.992  0.1847  0.2449  0.1439
 2422TIP3    H128901   0.766   3.593   1.018  1.6379  0.7453 -0.1019
 2422TIP3    H228902   0.765   3.693   0.904  1.0845  1.6572  0.6954
 2423TIP3   OH228903   2.633   3.467   1.016  0.0586 -0.6590 -0.3190
 2423TIP3    H128904   2.728   3.465   1.019  0.1137  0.7863 -0.1524
 2423TIP3    H228905   2.607   3.479   1.108 -0.2472 -0.2724 -0.4538
 2424TIP3   OH228906   4.115   3.882   2.070 -0.2104 -0.2722  0.1585
 2424TIP3    H128907   4.097   3.975   2.083 -1.5682 -0.4684 -0.1691
 2424TIP3    H228908   4.194   3.865   2.122  0.7937  1.3164 -0.7496
 2425TIP3   OH228909   4.637   1.591   2.745  0.5218  0.5866  0.6520
 2425TIP3    H128910   4.568   1.526   2.751  0.4678  0.6031  0.2013
 2425TIP3    H228911   4.706   1.558   2.803  0.2022  0.4997  0.9903
 2426TIP3   OH228912   0.735   2.833   2.281 -0.1051 -0.1838  0.2053
 2426TIP3    H128913   0.729   2.841   2.376 -1.5193 -1.0072  0.2185
 2426TIP3    H228914   0.811   2.886   2.257  1.1960 -1.1542  1.9362
 2427TIP3   OH228915   4.839   2.094   0.984  0.4506 -0.1999 -0.1103
 2427TIP3    H128916   4.897   2.170   0.988 -1.3599  1.2358  0.3595
 2427TIP3    H228917   4.833   2.073   0.891  1.1917  0.0487 -0.2190
 2428TIP3   OH228918   4.493   0.695   2.052 -0.3264 -0.3165  0.1245
 2428TIP3    H128919   4.500   0.774   2.106 -0.2478 -0.5224  0.4201
 2428TIP3    H228920   4.405   0.698   2.015  0.1632  0.6371 -1.0110
 2429TIP3   OH228921   0.017   1.012   7.335  0.5229  0.1744 -0.0949
 2429TIP3    H128922   0.108   0.983   7.338  1.2649  2.3396  0.5060
 2429TIP3    H228923  -0.030   0.951   7.392  1.4675 -1.2681 -0.8061
 2430TIP3   OH228924   0.710   5.294   0.888 -0.4040  0.0757 -0.0039
 2430TIP3    H128925   0.732   5.372   0.939 -1.5410 -0.5583  1.5114
 2430TIP3    H228926   0.785   5.283   0.829  0.8357  0.9974  1.3138
 2431TIP3   OH228927   1.158   0.680   1.764 -0.1268  0.4104  0.2313
 2431TIP3    H128928   1.080   0.656   1.813  1.0716 -1.8146  1.2066
 2431TIP3    H228929   1.216   0.720   1.829  0.9696 -1.3810  0.4026
 2432TIP3   OH228930   4.093   0.222   2.710 -0.0114  0.3518  0.5263
 2432TIP3    H128931   4.145   0.162   2.762 -0.4268  0.8582  1.5615
 2432TIP3    H228932   4.156   0.282   2.670  0.4384 -0.9449 -0.8101
 2433TIP3   OH228933   5.756   3.627   3.221 -0.5257 -0.1827  0.7394
 2433TIP3    H128934   5.692   3.682   3.175 -0.6857  0.6162  1.8808
 2433TIP3    H228935   5.828   3.686   3.240  1.6000 -1.5265 -2.3849
 2434TIP3   OH228936   0.628   4.445   7.848 -0.6708 -0.1653  0.7147
 2434TIP3    H128937   0.672   4.461   7.932 -0.3015 -0.7000  0.6314
 2434TIP3    H228938   0.653   4.355   7.825 -0.6535  0.0230 -0.0357
 2435TIP3   OH228939   1.531   1.349   2.189  0.1585  0.2760  0.0955
 2435TIP3    H128940   1.590   1.424   2.196  2.3592 -1.3284 -0.1029
 2435TIP3    H228941   1.554   1.307   2.106 -3.1782  0.9995 -1.3693
 2436TIP3   OH228942   6.701   3.560   0.488 -0.0609 -0.0323 -0.3513
 2436TIP3    H128943   6.665   3.635   0.442  1.5291  0.9125 -0.1277
 2436TIP3    H228944   6.627   3.499   0.496 -0.5143 -0.1441 -3.8365
 2437TIP3   OH228945   2.196   5.461   2.183  0.1436 -0.5786  0.1056
 2437TIP3    H128946   2.242   5.510   2.252 -1.4179 -0.6615  1.2491
 2437TIP3    H228947   2.188   5.524   2.111  2.3143 -0.6674 -0.2756
 2438TIP3   OH228948   1.963   3.179   2.222  0.4465  0.1948 -0.4443
 2438TIP3    H128949   1.884   3.187   2.274 -0.0723 -0.5618 -1.0842
 2438TIP3    H228950   2.023   3.244   2.258  0.2383 -0.5390  1.3187
 2439TIP3   OH228951   1.044   1.158   2.586 -0.3572  0.1363 -0.2187
 2439TIP3    H128952   1.014   1.182   2.498 -1.2341 -1.6928 -0.4763
 2439TIP3    H228953   1.139   1.148   2.577  0.4120  4.8740  0.3244
 2440TIP3   OH228954   5.069   2.401   7.448 -0.1818 -0.4217 -0.7921
 2440TIP3    H128955   4.998   2.344   7.478 -0.2248  0.1498  0.2347
 2440TIP3    H228956   5.138   2.390   7.513  0.0715  0.1966 -0.9481
 2441TIP3   OH228957   2.445   2.908   3.036  0.2635 -0.7308 -0.1792
 2441TIP3    H128958   2.373   2.855   3.069 -0.4006 -1.5586 -2.6953
 2441TIP3    H228959   2.426   2.996   3.066 -0.8132 -1.2476  0.7291
 2442TIP3   OH228960   4.646   2.115   0.151 -0.2693 -0.5975 -0.1922
 2442TIP3    H128961   4.555   2.145   0.141  0.1953  0.4867 -1.4002
 2442TIP3    H228962   4.638   2.031   0.195 -1.7400  0.4570  1.7236
 2443TIP3   OH228963   2.958   5.048   0.604 -0.4161 -0.0564 -0.0829
 2443TIP3    H128964   2.985   5.088   0.687 -3.2647  1.3748  0.2731
 2443TIP3    H228965   3.004   5.099   0.537  2.5697 -1.7588  0.5062
 2444TIP3   OH228966   0.401   3.542   1.283  0.1607  0.2848 -0.0906
 2444TIP3    H128967   0.462   3.474   1.312 -0.0800  0.7075  1.5063
 2444TIP3    H228968   0.315   3.500   1.284  0.3764 -0.3278 -2.3967
 2445TIP3   OH228969   2.537   1.066   0.862 -0.4673 -0.3803  0.3216
 2445TIP3    H128970   2.604   1.051   0.929  1.5125 -3.7040 -2.0989
 2445TIP3    H228971   2.484   0.986   0.862 -1.5212  0.2729 -0.9177
 2446TIP3   OH228972   5.702   2.595   8.674  0.7852 -0.9948 -0.0755
 2446TIP3    H128973   5.669   2.671   8.722  1.2220 -1.0117  0.2567
 2446TIP3    H228974   5.721   2.628   8.586 -2.5752 -1.5233 -1.1615
 2447TIP3   OH228975   5.402   1.780   1.267  0.6759 -0.5925  0.1917
 2447TIP3    H128976   5.399   1.784   1.171 -1.3638  1.9370  0.2418
 2447TIP3    H228977   5.350   1.703   1.289  0.2723 -0.6108 -0.7512
 2448TIP3   OH228978   1.728   3.055   1.709  0.1971 -0.4948  0.0939
 2448TIP3    H128979   1.722   2.966   1.745 -0.2878 -0.0313  1.2296
 2448TIP3    H228980   1.821   3.073   1.703  0.3057 -1.1730 -0.4137
 2449TIP3   OH228981   2.464   1.142   1.841  0.3438  0.4963 -0.1442
 2449TIP3    H128982   2.435   1.232   1.827  1.8478  0.8424 -1.3857
 2449TIP3    H228983   2.507   1.143   1.927  0.7650  1.0881 -0.3577
 2450TIP3   OH228984   5.116   2.485   2.785  0.6230 -0.1283 -0.0012
 2450TIP3    H128985   5.149   2.574   2.795  0.5006  0.0553 -1.1024
 2450TIP3    H228986   5.164   2.450   2.710  1.4887 -1.3952  1.1084
 2451TIP3   OH228987   6.099   6.585   8.715  0.1015  0.1858  0.4645
 2451TIP3    H128988   6.138   6.632   8.641  0.4191  0.9668  1.1174
 2451TIP3    H228989   6.042   6.650   8.757  0.9557  0.1631  1.7004
 2452TIP3   OH228990   2.178   5.663   7.826  0.3210 -0.2119  0.7349
 2452TIP3    H128991   2.258   5.701   7.790  0.7988  0.1214  2.0865
 2452TIP3    H228992   2.136   5.621   7.751  0.6363  1.4972 -0.4782
 2453TIP3   OH228993   4.731   4.490   1.611  0.1995  0.6461 -0.1700
 2453TIP3    H128994   4.713   4.523   1.523 -0.1068  1.6029  0.2420
 2453TIP3    H228995   4.827   4.483   1.616  0.1875 -0.0543 -0.7985
 2454TIP3   OH228996   4.836   1.739   2.067  0.2213  0.5976  0.7250
 2454TIP3    H128997   4.818   1.717   2.159 -2.0345  0.7913  0.3847
 2454TIP3    H228998   4.807   1.830   2.058  0.9984  0.7853 -0.0567
 2455TIP3   OH228999   1.886   4.866   2.345  0.0899  0.3197  0.4658
 2455TIP3    H129000   1.825   4.836   2.413  0.3175 -0.6517  0.2500
 2455TIP3    H229001   1.841   4.847   2.262 -0.2849  1.7021  0.3167
 2456TIP3   OH229002   4.936   3.552   0.619  0.0932 -0.2860  0.5334
 2456TIP3    H129003   4.990   3.540   0.541 -0.2582  0.2741  0.1912
 2456TIP3    H229004   4.902   3.465   0.638 -1.2996 -0.1574 -1.0614
 2457TIP3   OH229005   6.384   2.338   8.777  0.3553 -0.3020 -0.6537
 2457TIP3    H129006   6.382   2.358   8.870  0.9899 -1.0595 -0.4718
 2457TIP3    H229007   6.383   2.423   8.734 -2.5761  0.0952 -0.0378
 2458TIP3   OH229008   0.435   1.627   2.539  0.6809  0.2248 -0.3300
 2458TIP3    H129009   0.361   1.567   2.532 -0.8064  2.0843 -1.1674
 2458TIP3    H229010   0.431   1.659   2.629 -0.3143  1.2542 -0.7259
 2459TIP3   OH229011   3.375   4.615   0.754 -0.1705  0.0226  0.2030
 2459TIP3    H129012   3.465   4.583   0.760 -0.0017  0.2510 -1.0032
 2459TIP3    H229013   3.371   4.687   0.817  0.4347 -0.0974  0.3879
 2460TIP3   OH229014   0.959   1.818   1.159  0.7414 -0.5050 -0.2741
 2460TIP3    H129015   0.901   1.790   1.088  1.7025  0.7442 -1.6131
 2460TIP3    H229016   0.901   1.831   1.234 -0.1968 -2.5620 -0.5897
 2461TIP3   OH229017   4.351   0.298   8.106 -0.6346 -0.0271  0.2497
 2461TIP3    H129018   4.307   0.381   8.086 -1.4760 -0.6177 -0.4661
 2461TIP3    H229019   4.356   0.253   8.022 -0.4325 -0.8143  0.6721
 2462TIP3   OH229020   4.169   1.244   8.556 -0.2254 -0.0819  0.5461
 2462TIP3    H129021   4.231   1.296   8.608 -0.2394 -0.4701  0.9563
 2462TIP3    H229022   4.224   1.194   8.496 -0.0555 -1.1445  1.5536
 2463TIP3   OH229023   3.789   6.118   8.561  0.1752 -0.0585 -0.1859
 2463TIP3    H129024   3.707   6.071   8.546  0.6206 -0.4097 -1.8214
 2463TIP3    H229025   3.802   6.170   8.481  0.7070  1.3281  0.7442
 2464TIP3   OH229026   2.418   1.245   8.259 -0.0242 -0.4420 -0.3050
 2464TIP3    H129027   2.343   1.267   8.314  0.7624 -1.5452  1.2747
 2464TIP3    H229028   2.494   1.277   8.308  0.6915 -1.3040 -0.8160
 2465TIP3   OH229029   6.841   5.117   0.022 -0.3276  0.4076  0.5825
 2465TIP3    H129030   6.879   5.094   0.107  0.2506  0.4332  0.3378
 2465TIP3    H229031   6.891   5.194  -0.007 -0.6427  0.5119  0.3072
 2466TIP3   OH229032   0.085   6.861   8.567 -0.1140 -0.0868 -0.3697
 2466TIP3    H129033   0.155   6.913   8.527 -1.5108  0.3638 -2.3396
 2466TIP3    H229034   0.014   6.923   8.581  0.1855 -0.2746  2.7133
 2467TIP3   OH229035   4.967   0.246   1.496  0.3015 -0.0633  0.1516
 2467TIP3    H129036   4.899   0.292   1.447  2.2484  2.0971 -0.7114
 2467TIP3    H229037   4.949   0.265   1.588 -1.6527 -1.6404  0.1489
 2468TIP3   OH229038   1.193   2.243   3.131 -0.2962  0.1997 -0.5621
 2468TIP3    H129039   1.181   2.188   3.208  0.2433  0.6382 -0.1535
 2468TIP3    H229040   1.149   2.325   3.152  0.0503  0.4059 -0.6184
 2469TIP3   OH229041   4.849   3.301   0.558  0.2062  0.1185  0.7731
 2469TIP3    H129042   4.802   3.219   0.542 -0.2052  0.0315  2.2490
 2469TIP3    H229043   4.796   3.346   0.624  1.7912  0.3543  1.9474
 2470TIP3   OH229044   0.291   2.069   3.088 -0.1589  0.4456  0.2383
 2470TIP3    H129045   0.281   2.160   3.113  0.8392  0.4932  0.5054
 2470TIP3    H229046   0.292   2.021   3.171 -0.9332  0.1582  0.0878
 2471TIP3   OH229047   2.832   6.400   1.418  0.6288 -0.5326 -0.7801
 2471TIP3    H129048   2.754   6.346   1.430 -0.6392  1.5430  1.1389
 2471TIP3    H229049   2.903   6.337   1.404 -1.3939 -2.5018 -3.2683
 2472TIP3   OH229050   0.681   3.641   0.131  0.1533 -0.1290 -0.4285
 2472TIP3    H129051   0.642   3.593   0.058  1.4461 -1.4298 -0.2998
 2472TIP3    H229052   0.612   3.701   0.159 -2.0704 -2.8312  0.3269
 2473TIP3   OH229053   4.362   2.836   0.657  0.2643  0.3653  0.5247
 2473TIP3    H129054   4.343   2.867   0.746 -2.7366  1.5345 -0.3986
 2473TIP3    H229055   4.431   2.895   0.626 -0.0722  1.2403  1.3911
 2474TIP3   OH229056   3.554   3.341   1.229 -0.2593 -0.0847  0.5302
 2474TIP3    H129057   3.560   3.274   1.298  0.0707 -1.4497 -0.7810
 2474TIP3    H229058   3.607   3.306   1.157 -0.8466  1.1685 -0.5492
 2475TIP3   OH229059   3.341   4.516   2.962 -0.5639 -0.7033  0.0931
 2475TIP3    H129060   3.398   4.476   2.896 -0.2955 -0.9643  0.4791
 2475TIP3    H229061   3.378   4.603   2.976  0.3183 -1.2062  1.0260
 2476TIP3   OH229062   4.347   1.801   7.380 -0.0798  0.1150 -0.6722
 2476TIP3    H129063   4.371   1.714   7.348  1.1703  0.3230 -0.3612
 2476TIP3    H229064   4.390   1.861   7.319 -0.5557  0.5152 -0.6147
 2477TIP3   OH229065   5.390   1.338   1.915 -0.5179 -0.4523  0.2110
 2477TIP3    H129066   5.314   1.318   1.970  0.6585 -1.6167  1.4545
 2477TIP3    H229067   5.439   1.404   1.964 -0.1165 -0.5488 -0.0523
 2478TIP3   OH229068   5.738   3.756   0.623 -0.0861 -0.1386  0.4480
 2478TIP3    H129069   5.751   3.673   0.578  1.1149  0.6234 -0.6770
 2478TIP3    H229070   5.826   3.794   0.629 -0.0511 -0.4517  3.9990
 2479TIP3   OH229071   2.794   0.888   7.684 -0.0423  0.2047  0.1355
 2479TIP3    H129072   2.729   0.921   7.623  0.3917 -1.5584 -1.3832
 2479TIP3    H229073   2.855   0.961   7.696 -0.0992  0.5921 -1.6177
 2480TIP3   OH229074   0.499   2.860   1.017  0.6904  0.4580  0.1295
 2480TIP3    H129075   0.490   2.810   1.098  1.8539  0.2458  0.1411
 2480TIP3    H229076   0.573   2.820   0.972  1.3018  1.8173 -0.1237
 2481TIP3   OH229077   6.795   0.141   8.260  0.7337  0.2962 -0.2537
 2481TIP3    H129078   6.760   0.065   8.305  1.1731  0.7251  0.8607
 2481TIP3    H229079   6.842   0.106   8.184  0.0934 -0.4544 -0.3079
 2482TIP3   OH229080   3.160   2.237   3.244 -0.2934  0.0009 -0.0766
 2482TIP3    H129081   3.243   2.199   3.272 -0.9219 -2.5275 -1.3384
 2482TIP3    H229082   3.181   2.284   3.164 -0.0789 -0.7950 -0.4996
 2483TIP3   OH229083   4.934   4.830   2.610 -0.0351 -0.1200 -0.0837
 2483TIP3    H129084   4.839   4.842   2.621 -0.2602  0.0783 -2.0004
 2483TIP3    H229085   4.946   4.736   2.603 -0.4708 -0.0456 -2.5418
 2484TIP3   OH229086   0.332   1.583   8.153 -0.1777 -0.4598 -0.3989
 2484TIP3    H129087   0.315   1.644   8.081  3.5448  2.5054  0.9124
 2484TIP3    H229088   0.281   1.619   8.226  0.8611  0.2510 -0.0092
 2485TIP3   OH229089   0.056   5.568   2.168  0.4832 -0.2154  0.0310
 2485TIP3    H129090  -0.031   5.534   2.189 -0.1004 -0.2513 -2.1574
 2485TIP3    H229091   0.116   5.515   2.220 -0.7323 -0.8127  0.8784
 2486TIP3   OH229092   5.058   1.196   7.067 -0.6304 -0.1347 -0.6167
 2486TIP3    H129093   4.964   1.211   7.068 -0.5437  0.3614 -0.0728
 2486TIP3    H229094   5.071   1.120   7.124 -0.6200  0.2736 -0.0696
 2487TIP3   OH229095   2.998   3.894   2.975 -0.2506 -0.0926  0.7094
 2487TIP3    H129096   2.965   3.855   2.894 -2.1623  0.9355  0.9261
 2487TIP3    H229097   3.065   3.833   3.006  1.6169  0.1520 -2.3330
 2488TIP3   OH229098   5.859   4.966   1.710 -0.4055 -0.7047  0.3442
 2488TIP3    H129099   5.822   4.995   1.627 -0.0008 -1.4126 -0.0851
 2488TIP3    H229100   5.782   4.948   1.765 -0.6717 -0.2615  0.1312
 2489TIP3   OH229101   3.414   2.077   3.263  0.0132 -0.4510  0.5753
 2489TIP3    H129102   3.488   2.136   3.280 -0.6487  0.4816  0.3500
 2489TIP3    H229103   3.453   1.998   3.227  0.9276 -0.1063  0.7967
 2490TIP3   OH229104   2.541   2.950   2.767 -0.1166  0.0094 -0.1364
 2490TIP3    H129105   2.631   2.982   2.773 -0.2793  0.3117  0.7770
 2490TIP3    H229106   2.516   2.931   2.857 -1.1013  0.2907 -0.3431
 2491TIP3   OH229107   2.146   3.644   8.010  0.1547 -0.2944 -0.3500
 2491TIP3    H129108   2.203   3.577   7.972 -0.6562 -1.5015  0.5117
 2491TIP3    H229109   2.061   3.602   8.018 -0.5106  1.0244 -0.2846
 2492TIP3   OH229110   1.525   5.215   8.625  0.3823 -0.4454 -0.0274
 2492TIP3    H129111   1.580   5.137   8.620  1.4896  0.3361 -0.3606
 2492TIP3    H229112   1.576   5.278   8.675 -0.3626  0.1766 -0.0259
 2493TIP3   OH229113   1.963   0.473   0.992  0.0834  0.7823  0.2711
 2493TIP3    H129114   1.922   0.399   1.036  0.4646  0.6412  0.3827
 2493TIP3    H229115   1.905   0.547   1.013 -0.5853  0.4285 -0.2713
 2494TIP3   OH229116   6.191   5.067   0.299  0.5040  0.3405  0.1565
 2494TIP3    H129117   6.211   5.139   0.239 -0.0724 -0.0674 -0.5447
 2494TIP3    H229118   6.177   4.992   0.241  1.9285 -0.5494  0.9000
 2495TIP3   OH229119   0.624   4.868   8.115 -0.4480  0.2794 -0.0390
 2495TIP3    H129120   0.568   4.864   8.037 -0.5230  1.7187 -0.0853
 2495TIP3    H229121   0.626   4.961   8.139  1.6210  0.2420  0.1647
 2496TIP3   OH229122   1.947   5.959   1.967 -0.5420 -0.5084  0.2507
 2496TIP3    H129123   2.008   5.988   2.035 -0.3970 -1.3873  0.5130
 2496TIP3    H229124   2.003   5.914   1.903 -0.8081 -0.5867  0.0750
 2497TIP3   OH229125   0.950   1.344   1.833  0.8875  0.8311  0.0488
 2497TIP3    H129126   0.860   1.375   1.822  0.7980  0.6037  0.1195
 2497TIP3    H229127   0.940   1.249   1.848  0.9948  1.0848  2.0628
 2498TIP3   OH229128   5.247   3.133   2.760  0.3672  0.3840 -0.4306
 2498TIP3    H129129   5.260   3.123   2.854 -0.1699  1.8828 -0.1671
 2498TIP3    H229130   5.334   3.155   2.726  0.5308 -0.0060 -0.2667
 2499TIP3   OH229131   1.740   1.027   7.362  0.0859 -0.1889 -0.3441
 2499TIP3    H129132   1.739   0.976   7.281 -1.3192  0.4645 -0.7696
 2499TIP3    H229133   1.774   1.113   7.336  2.0218 -0.7257  0.2801
 2500TIP3   OH229134   6.840   5.951   7.800 -0.2955  0.6704 -0.0465
 2500TIP3    H129135   6.896   5.917   7.730 -2.1491  1.0944 -1.8241
 2500TIP3    H229136   6.793   5.874   7.832 -3.8388  1.0819 -3.4740
 2501TIP3   OH229137   3.417   1.514   8.235  0.3202 -0.4681  0.6084
 2501TIP3    H129138   3.486   1.450   8.254  1.2083  0.8232  1.8938
 2501TIP3    H229139   3.371   1.524   8.318  1.1666  1.6751  0.8647
 2502TIP3   OH229140   0.173   0.183   2.388 -0.5728 -0.7955  0.4519
 2502TIP3    H129141   0.267   0.201   2.392 -0.5922 -0.1589 -1.1492
 2502TIP3    H229142   0.136   0.232   2.461  0.2876 -0.7505  0.8769
 2503TIP3   OH229143   2.255   4.091   1.228 -0.4887 -0.0154 -0.0710
 2503TIP3    H129144   2.291   4.075   1.141 -0.7015 -1.2413  0.0458
 2503TIP3    H229145   2.329   4.080   1.287 -0.6373 -0.6681  0.0098
 2504TIP3   OH229146   0.124   1.230   0.527  0.2706 -0.4277 -0.1961
 2504TIP3    H129147   0.053   1.169   0.548 -0.1747  0.7171  1.9126
 2504TIP3    H229148   0.099   1.268   0.443 -1.3283 -0.5228  0.2038
 2505TIP3   OH229149   0.128   2.807   7.324 -0.3647  0.0147 -0.1327
 2505TIP3    H129150   0.195   2.757   7.371  0.1980  1.1976  0.3582
 2505TIP3    H229151   0.045   2.770   7.355  0.0279 -1.6732 -0.9754
 2506TIP3   OH229152   2.486   0.260   7.573  0.2308 -0.4240  0.1287
 2506TIP3    H129153   2.490   0.349   7.536 -1.5141 -0.8708 -1.2658
 2506TIP3    H229154   2.402   0.257   7.617 -0.1175 -1.6586 -0.5965
 2507TIP3   OH229155   4.907   2.261   0.082 -0.1010  0.6289  0.1362
 2507TIP3    H129156   4.950   2.197   0.139  2.2885  1.1741 -0.9264
 2507TIP3    H229157   4.849   2.208   0.027  0.6670 -0.4470  0.3157
 2508TIP3   OH229158   2.962   4.958   2.716 -0.1129  0.2889  0.1771
 2508TIP3    H129159   2.987   4.900   2.645 -0.2255 -1.1404  1.2481
 2508TIP3    H229160   2.981   4.908   2.796 -1.4787  1.1813  1.1172
 2509TIP3   OH229161   5.654   1.759   0.881  0.0485  0.0279 -0.1049
 2509TIP3    H129162   5.726   1.813   0.850 -0.6824  0.7596 -0.5855
 2509TIP3    H229163   5.693   1.700   0.945  0.5997  2.2273  1.7294
 2510TIP3   OH229164   5.771   6.206   0.396  0.3071 -0.4448 -0.0001
 2510TIP3    H129165   5.707   6.221   0.466  0.4578  0.0858  0.0223
 2510TIP3    H229166   5.850   6.177   0.441 -0.1971 -2.0825 -0.0869
 2511TIP3   OH229167   0.168   3.349   1.761 -0.4051 -0.6367  0.3902
 2511TIP3    H129168   0.086   3.347   1.712 -0.5822 -1.2970  0.6951
 2511TIP3    H229169   0.225   3.407   1.711 -0.9903 -0.3285  0.0682
 2512TIP3   OH229170   5.245   3.910   0.431 -0.2636 -0.1793  0.2093
 2512TIP3    H129171   5.287   3.941   0.350 -0.9324  0.4632  0.0915
 2512TIP3    H229172   5.187   3.840   0.402  1.0589 -1.4082  0.4399
 2513TIP3   OH229173   6.777   1.295   8.735  0.1062  0.0348  0.1368
 2513TIP3    H129174   6.715   1.233   8.696 -0.2267 -0.1617  0.9576
 2513TIP3    H229175   6.853   1.242   8.757  1.4424  0.6044 -2.6658
 2514TIP3   OH229176   5.325   5.145   8.676 -0.1484  0.0001 -0.1074
 2514TIP3    H129177   5.354   5.211   8.739  1.6118  1.0637 -1.9118
 2514TIP3    H229178   5.393   5.144   8.608 -1.4380 -1.8037 -1.4968
 2515TIP3   OH229179   4.122   4.074   2.403  0.1890 -0.1575  0.3451
 2515TIP3    H129180   4.099   3.983   2.386 -1.5576 -0.0161  1.6893
 2515TIP3    H229181   4.066   4.124   2.343 -1.2652  0.1000  1.8474
 2516TIP3   OH229182   0.495   5.029   1.979  0.1212  0.7559 -0.2398
 2516TIP3    H129183   0.490   5.004   1.887 -0.2202  0.8747 -0.2586
 2516TIP3    H229184   0.566   5.093   1.983  1.0502 -0.2550 -0.1724
 2517TIP3   OH229185   4.489   2.625   2.136  0.3211 -0.2914 -0.0281
 2517TIP3    H129186   4.500   2.719   2.149  1.9772 -0.5067  0.3458
 2517TIP3    H229187   4.565   2.599   2.084 -0.8011 -1.2284 -1.2829
 2518TIP3   OH229188   0.955   6.258   1.299  0.0042  0.2873  0.4775
 2518TIP3    H129189   0.960   6.315   1.222 -1.0704 -0.8732 -0.5082
 2518TIP3    H229190   0.863   6.259   1.324  0.0491 -0.6400  0.7202
 2519TIP3   OH229191   4.517   2.932   0.420 -0.2689 -0.2900 -0.0777
 2519TIP3    H129192   4.599   2.976   0.397 -0.3491 -0.1728 -0.1358
 2519TIP3    H229193   4.537   2.839   0.409 -0.2389 -0.2486 -0.4087
 2520TIP3   OH229194   6.474   1.529   7.957  0.8576 -0.9370 -0.0416
 2520TIP3    H129195   6.430   1.480   8.027 -1.4301  0.1611 -0.6269
 2520TIP3    H229196   6.438   1.492   7.876 -2.2903  2.5742 -0.5285
 2521TIP3   OH229197   1.245   6.547   2.069 -0.7425 -0.7699  0.2523
 2521TIP3    H129198   1.316   6.567   2.008  0.4123 -1.0992  1.4343
 2521TIP3    H229199   1.212   6.462   2.041  0.7518 -1.6014  0.9140
 2522TIP3   OH229200   3.765   1.693   2.197  0.1026  0.0148  0.9968
 2522TIP3    H129201   3.722   1.774   2.172  0.9694  0.1456 -0.1624
 2522TIP3    H229202   3.850   1.721   2.232 -0.1635 -0.3235  1.9651
 2523TIP3   OH229203   5.802   6.595   0.449 -0.3021  0.6132 -0.2173
 2523TIP3    H129204   5.725   6.577   0.502  0.4842 -0.4127  0.6177
 2523TIP3    H229205   5.809   6.691   0.449 -1.1105  0.6804  0.3666
 2524TIP3   OH229206   3.664   2.317   8.538  0.9628  0.8283  0.5671
 2524TIP3    H129207   3.750   2.340   8.504  1.3553 -1.0756  0.1758
 2524TIP3    H229208   3.642   2.389   8.597  3.5225  0.6467  1.9015
 2525TIP3   OH229209   3.110   2.472   8.547  0.3175 -0.3131 -0.0464
 2525TIP3    H129210   3.202   2.478   8.573  0.1855  0.5870  0.2339
 2525TIP3    H229211   3.078   2.392   8.589  1.0731 -0.8671 -0.4966
 2526TIP3   OH229212   6.463   0.328   8.445  0.5615 -0.1636 -0.0580
 2526TIP3    H129213   6.501   0.279   8.371 -0.2293 -1.1890  0.1809
 2526TIP3    H229214   6.384   0.278   8.468 -0.0800  1.0388  0.4502
 2527TIP3   OH229215   1.215   5.746   8.191  0.3535  0.4412  0.1214
 2527TIP3    H129216   1.141   5.684   8.194  0.4889  0.3036  0.6268
 2527TIP3    H229217   1.289   5.696   8.224  0.3051  1.0940  1.2421
 2528TIP3   OH229218   6.241   0.471   2.834 -0.8519  0.8870 -0.5159
 2528TIP3    H129219   6.217   0.481   2.741 -0.5673 -0.3480 -0.7400
 2528TIP3    H229220   6.157   0.471   2.880 -0.9828  1.8010 -0.7235
 2529TIP3   OH229221   6.027   1.148   1.097  0.2797  0.1449 -0.2167
 2529TIP3    H129222   6.047   1.219   1.036 -0.3574  1.5752  1.1617
 2529TIP3    H229223   6.034   1.189   1.184 -2.9663 -0.6345  0.5666
 2530TIP3   OH229224   3.072   1.294   8.341 -0.0656  0.3481  0.6104
 2530TIP3    H129225   3.096   1.202   8.334  0.6552  0.6342 -0.9647
 2530TIP3    H229226   3.110   1.336   8.264 -0.4079  1.9700  1.2677
 2531TIP3   OH229227   3.751   3.064   8.718 -0.0276 -0.2465  0.1529
 2531TIP3    H129228   3.808   3.138   8.739  2.3532 -1.6004 -1.0637
 2531TIP3    H229229   3.701   3.048   8.798  1.4124  0.9397  1.3408
 2532TIP3   OH229230   5.317   0.137   0.700  0.0528 -0.3271  0.0001
 2532TIP3    H129231   5.260   0.108   0.771  0.7653  1.0575  1.1822
 2532TIP3    H229232   5.337   0.228   0.721  0.4252  0.0752 -1.9018
 2533TIP3   OH229233   2.488   0.093   0.427 -0.1386  0.2348 -0.1807
 2533TIP3    H129234   2.442   0.030   0.371  0.0458 -0.6833  0.6683
 2533TIP3    H229235   2.533   0.039   0.492 -0.5826  1.2770  1.0446
 2534TIP3   OH229236   4.916   6.841   0.382 -0.1748 -0.2383 -0.6103
 2534TIP3    H129237   5.007   6.842   0.411  0.3638  0.1394 -2.1976
 2534TIP3    H229238   4.919   6.795   0.299 -0.8973  2.3853 -2.2184
 2535TIP3   OH229239   0.883   4.846   2.175 -0.7574 -0.1022  0.2579
 2535TIP3    H129240   0.926   4.908   2.234  1.1667 -0.6743 -0.4869
 2535TIP3    H229241   0.938   4.767   2.179  0.5961  0.4632 -3.7330
 2536TIP3   OH229242   4.295   2.880   2.558  0.4347 -0.0521 -0.1369
 2536TIP3    H129243   4.303   2.874   2.463  2.3347  0.1319 -0.0106
 2536TIP3    H229244   4.201   2.890   2.573  0.1292  0.2091 -2.0025
 2537TIP3   OH229245   0.344   3.366   1.556 -0.0805 -0.4532 -0.1437
 2537TIP3    H129246   0.413   3.412   1.603 -0.1697 -0.9681  0.5062
 2537TIP3    H229247   0.388   3.323   1.484  0.4678 -1.6373  0.8673
 2538TIP3   OH229248   2.974   3.230   7.395 -0.3646  0.3764 -0.0070
 2538TIP3    H129249   2.894   3.186   7.368 -1.1644  0.5726  1.8632
 2538TIP3    H229250   3.044   3.187   7.345 -1.1620 -2.6142  1.2556
 2539TIP3   OH229251   6.140   4.025   0.703 -0.0327  0.1967  0.4628
 2539TIP3    H129252   6.083   4.044   0.777  1.9109  2.1075  1.5782
 2539TIP3    H229253   6.113   4.087   0.635 -0.1993  0.1400  0.4786
 2540TIP3   OH229254   4.830   0.727   8.483 -0.0243  0.1754 -0.2636
 2540TIP3    H129255   4.924   0.742   8.488 -0.0997  1.1492 -1.3398
 2540TIP3    H229256   4.798   0.747   8.571  0.4285  2.6568 -0.6028
 2541TIP3   OH229257   0.684   3.355   7.391 -0.1428  0.3128 -0.2001
 2541TIP3    H129258   0.638   3.372   7.473 -2.1861 -0.1055 -1.1882
 2541TIP3    H229259   0.616   3.361   7.324  1.5301  0.9970 -1.9197
 2542TIP3   OH229260   0.468   1.412   1.249 -0.4338 -0.2391 -0.0933
 2542TIP3    H129261   0.532   1.343   1.267 -1.2264 -0.8110  0.6214
 2542TIP3    H229262   0.398   1.368   1.200 -1.3714 -0.1891  1.1270
 2543TIP3   OH229263   6.582   1.637   8.281  0.3946 -0.3501 -0.5545
 2543TIP3    H129264   6.514   1.680   8.229  0.5440  0.3868 -0.1566
 2543TIP3    H229265   6.545   1.552   8.305 -1.2692  0.8490  1.4271
 2544TIP3   OH229266   4.656   5.556   3.525 -0.3266 -0.4653  0.1750
 2544TIP3    H129267   4.749   5.578   3.526 -0.3518 -0.0686 -2.1400
 2544TIP3    H229268   4.611   5.640   3.532 -0.5113 -0.5589  0.1185
 2545TIP3   OH229269   4.681   6.487   0.049  0.3953  0.2075  0.0470
 2545TIP3    H129270   4.766   6.509   0.088  0.7832 -0.7238 -0.2245
 2545TIP3    H229271   4.704   6.434  -0.028 -0.4365 -0.1302  0.0262
 2546TIP3   OH229272   3.415   1.896   1.290  0.2118 -0.8706 -0.3357
 2546TIP3    H129273   3.417   1.890   1.386  1.4177 -2.9292 -0.4240
 2546TIP3    H229274   3.381   1.811   1.262 -0.1532 -0.2802 -1.7389
 2547TIP3   OH229275   3.292   4.755   8.001 -0.1901  0.1703  1.0303
 2547TIP3    H129276   3.349   4.721   8.070  0.4034 -0.5488  0.2047
 2547TIP3    H229277   3.348   4.814   7.951 -0.4978  0.3458  0.8927
 2548TIP3   OH229278   2.614   4.581   2.360  0.2140  0.2975 -0.3885
 2548TIP3    H129279   2.637   4.489   2.371  1.4405  0.6558  0.2360
 2548TIP3    H229280   2.564   4.584   2.278 -1.9820 -1.2664  0.7658
 2549TIP3   OH229281   1.006   3.073   8.122 -0.1474 -0.6009  0.0885
 2549TIP3    H129282   0.944   3.026   8.177 -0.4156 -0.5229 -0.1419
 2549TIP3    H229283   1.092   3.041   8.150 -0.3001 -0.8491  0.2819
 2550TIP3   OH229284   5.792   2.103   2.334  0.1690  0.4972  0.4268
 2550TIP3    H129285   5.703   2.111   2.299  0.9586  1.5669 -1.5561
 2550TIP3    H229286   5.795   2.166   2.406 -0.4454  1.0766 -0.0380
 2551TIP3   OH229287   6.139   5.728   1.151 -0.4618  0.0794 -0.6706
 2551TIP3    H129288   6.216   5.741   1.096 -0.0672 -1.2650 -0.4802
 2551TIP3    H229289   6.112   5.638   1.133  0.0198 -0.6128  1.7146
 2552TIP3   OH229290   4.327   1.425   1.442 -0.3162  0.2085 -0.0222
 2552TIP3    H129291   4.357   1.510   1.474  0.6198  0.0164 -0.3546
 2552TIP3    H229292   4.278   1.388   1.515  1.4071 -0.0325  1.0839
 2553TIP3   OH229293   6.721   2.799   0.556 -0.1352  0.2505 -1.3188
 2553TIP3    H129294   6.758   2.874   0.603  0.1177 -0.8072  0.2353
 2553TIP3    H229295   6.641   2.833   0.516 -1.6811  0.7005  1.8382
 2554TIP3   OH229296   1.559   2.880   7.730  0.1915  0.0586  0.2657
 2554TIP3    H129297   1.594   2.793   7.711  1.1333  0.5538 -0.3512
 2554TIP3    H229298   1.468   2.877   7.700  0.8469 -0.0416 -1.8484
 2555TIP3   OH229299   2.417   4.674   2.120 -0.4583 -0.0177 -0.3159
 2555TIP3    H129300   2.344   4.705   2.065 -0.6251 -0.7660 -0.5241
 2555TIP3    H229301   2.375   4.629   2.193 -0.2023 -1.0789 -0.8101
 2556TIP3   OH229302   6.802   0.374   2.519 -0.5312 -0.3109  0.0409
 2556TIP3    H129303   6.865   0.403   2.585 -0.7578  1.0035 -0.3082
 2556TIP3    H229304   6.719   0.367   2.566 -0.5500 -0.0407  0.0487
 2557TIP3   OH229305   4.003   5.527   2.797 -0.0785 -0.4893 -0.5618
 2557TIP3    H129306   4.075   5.582   2.829 -0.6942  0.3960 -0.6518
 2557TIP3    H229307   4.046   5.450   2.760  0.8434  0.2189 -1.0079
 2558TIP3   OH229308   0.143   3.106   8.070  0.1888 -0.7424 -0.1744
 2558TIP3    H129309   0.184   3.128   8.154  0.2343 -1.9391  0.1311
 2558TIP3    H229310   0.052   3.086   8.093 -0.4016  1.0677 -0.7316
 2559TIP3   OH229311   3.541   6.273   0.370  0.2483  0.3633  0.1384
 2559TIP3    H129312   3.636   6.286   0.379 -0.0341  1.1289  2.9016
 2559TIP3    H229313   3.526   6.187   0.409  0.1570 -1.6491 -3.8275
 2560TIP3   OH229314   1.161   5.879   2.315 -0.3763  0.7323 -0.2089
 2560TIP3    H129315   1.150   5.794   2.357 -0.5885  1.2937  0.8964
 2560TIP3    H229316   1.156   5.943   2.386 -0.2217  1.6787 -1.0156
 2561TIP3   OH229317   4.575   3.070   0.721 -0.1212 -0.4131 -0.4566
 2561TIP3    H129318   4.623   3.000   0.765  1.4972  0.1412 -1.2531
 2561TIP3    H229319   4.615   3.151   0.753 -1.2020  0.1276 -0.4065
 2562TIP3   OH229320   5.767   3.855   8.534 -0.0745  0.3688 -0.4572
 2562TIP3    H129321   5.698   3.911   8.568 -1.1246 -1.5096  0.6599
 2562TIP3    H229322   5.835   3.916   8.505 -1.0138  2.1954  0.9679
 2563TIP3   OH229323   3.328   3.071   0.202 -0.0611  0.5177  0.0444
 2563TIP3    H129324   3.420   3.047   0.211 -0.1838 -0.5338 -1.2028
 2563TIP3    H229325   3.282   3.014   0.263  0.0049  0.0974 -0.2887
 2564TIP3   OH229326   5.961   0.247   0.474  0.1814  0.7046 -0.1947
 2564TIP3    H129327   6.004   0.220   0.555  1.8971  0.4652 -1.1254
 2564TIP3    H229328   5.899   0.314   0.501  0.2149  0.1395  1.3958
 2565TIP3   OH229329   4.998   5.336   0.590 -0.1031 -0.0694 -0.6086
 2565TIP3    H129330   4.936   5.270   0.619  0.3390 -0.6063 -0.8664
 2565TIP3    H229331   5.084   5.303   0.619 -0.0923  1.6064  1.5014
 2566TIP3   OH229332   5.506   5.310   3.584 -0.5024 -0.2234 -0.2625
 2566TIP3    H129333   5.590   5.265   3.584 -0.3061  0.1315 -0.5284
 2566TIP3    H229334   5.507   5.361   3.503 -0.5108  0.6454  0.2737
 2567TIP3   OH229335   4.153   1.103   8.233 -0.3145  0.3409  0.1588
 2567TIP3    H129336   4.210   1.095   8.309  1.2418  0.1017 -0.9895
 2567TIP3    H229337   4.139   1.013   8.204  1.4666  0.5337 -1.4812
 2568TIP3   OH229338   0.553   5.070   1.139  0.1718  0.0679 -0.5454
 2568TIP3    H129339   0.575   5.006   1.206  1.8876 -0.4103 -1.5158
 2568TIP3    H229340   0.502   5.021   1.074 -1.5146  0.5372  0.3420
 2569TIP3   OH229341   1.283   1.393   1.626  0.0269 -0.0107 -0.2351
 2569TIP3    H129342   1.199   1.421   1.589 -0.3981 -1.4027 -0.3791
 2569TIP3    H229343   1.319   1.333   1.560  2.7063  2.9800 -1.7266
 2570TIP3   OH229344   6.482   4.292   1.270  0.0933  0.1672  0.1803
 2570TIP3    H129345   6.462   4.352   1.342 -0.3040  2.6143 -1.8056
 2570TIP3    H229346   6.452   4.206   1.300 -1.8550  1.4325  2.1470
 2571TIP3   OH229347   3.924   5.692   1.928  0.2704  0.3958 -0.2183
 2571TIP3    H129348   3.904   5.699   1.835 -0.4210 -0.4719 -0.1517
 2571TIP3    H229349   3.961   5.604   1.938 -1.7570 -0.4145  0.6582
 2572TIP3   OH229350   2.268   6.726   0.857  0.0585  0.4959 -0.0551
 2572TIP3    H129351   2.295   6.641   0.892  0.0434  1.0535  1.4025
 2572TIP3    H229352   2.345   6.782   0.867  0.1554  0.6040 -1.2516
 2573TIP3   OH229353   0.440   4.586   2.193 -0.7311 -0.0988 -0.0286
 2573TIP3    H129354   0.466   4.546   2.276  0.7179  0.5655 -0.1268
 2573TIP3    H229355   0.515   4.639   2.168 -1.0097 -0.5229 -1.9292
 2574TIP3   OH229356   3.773   3.656   7.943  0.1154  0.2341  0.5887
 2574TIP3    H129357   3.854   3.607   7.930 -0.8583 -1.2648 -0.1561
 2574TIP3    H229358   3.704   3.596   7.915 -1.1900  1.8488  0.1480
 2575TIP3   OH229359   0.196   5.755   1.140 -0.0109  0.2836  0.6939
 2575TIP3    H129360   0.192   5.753   1.044  0.6231 -2.0053  0.6676
 2575TIP3    H229361   0.106   5.737   1.167 -0.2422  1.1718  0.5619
 2576TIP3   OH229362   1.855   1.486   3.156 -0.9147  0.2520  0.0541
 2576TIP3    H129363   1.904   1.521   3.231 -0.0381 -0.7044 -0.0451
 2576TIP3    H229364   1.771   1.459   3.194  0.4619 -2.7338  1.3819
 2577TIP3   OH229365   2.279   0.517   7.705 -0.6322  0.0016  0.2569
 2577TIP3    H129366   2.278   0.422   7.715  2.5981 -0.1907 -0.0599
 2577TIP3    H229367   2.289   0.532   7.611  2.0925  0.4069  0.5089
 2578TIP3   OH229368   0.867   0.489   1.278 -0.4101 -0.5808 -0.1061
 2578TIP3    H129369   0.806   0.433   1.325  1.1956 -2.8829 -0.6075
 2578TIP3    H229370   0.870   0.452   1.189 -1.0316  1.7665 -1.1869
 2579TIP3   OH229371   4.475   3.286   0.998 -0.1759  0.0360  0.2839
 2579TIP3    H129372   4.568   3.273   0.979 -0.1630  0.6674 -0.0832
 2579TIP3    H229373   4.464   3.251   1.087  0.5277  0.4726  0.5501
 2580TIP3   OH229374   0.168   6.259   8.162 -0.4254 -0.1932  0.2483
 2580TIP3    H129375   0.202   6.184   8.112 -0.0121 -0.8492  1.4910
 2580TIP3    H229376   0.244   6.314   8.177 -0.0258 -1.2056  2.2305
 2581TIP3   OH229377   1.068   1.159   0.630  0.5359  0.0050  1.0517
 2581TIP3    H129378   1.161   1.139   0.626  0.1228 -2.1241  0.6848
 2581TIP3    H229379   1.029   1.083   0.675 -1.1370  0.3287  0.2480
 2582TIP3   OH229380   3.491   2.325   0.002  0.6726 -0.3828 -0.4802
 2582TIP3    H129381   3.554   2.257   0.027 -0.6049 -0.8411  1.7701
 2582TIP3    H229382   3.500   2.392   0.070 -0.1137  0.3277 -1.0590
 2583TIP3   OH229383   4.548   4.679   2.296 -0.3613 -0.2120  0.2811
 2583TIP3    H129384   4.598   4.600   2.315  1.0377  0.4252 -0.5664
 2583TIP3    H229385   4.523   4.671   2.204 -2.3734 -0.7846  0.8457
 2584TIP3   OH229386   4.561   2.068   0.972 -0.1368 -0.4610  0.2222
 2584TIP3    H129387   4.655   2.071   0.991  0.1790 -0.7534 -1.1972
 2584TIP3    H229388   4.548   2.135   0.904 -0.8593 -0.7941  0.0266
 2585TIP3   OH229389   4.906   2.680   2.054 -0.5242  0.8286  0.3561
 2585TIP3    H129390   4.866   2.733   2.124 -1.3463 -0.8393  1.2000
 2585TIP3    H229391   4.972   2.627   2.099 -0.5219  0.2914 -0.2691
 2586TIP3   OH229392   0.725   2.359   8.473 -0.0160  0.4864 -0.0685
 2586TIP3    H129393   0.782   2.312   8.534 -0.2949  0.1675 -0.0552
 2586TIP3    H229394   0.720   2.303   8.396  0.7485  1.1237 -0.5960
 2587TIP3   OH229395   3.939   4.866   2.062 -0.4042 -0.1391  0.3447
 2587TIP3    H129396   3.857   4.896   2.100 -0.4710 -0.4089  0.4167
 2587TIP3    H229397   4.004   4.929   2.092 -0.5777  0.0473  0.3265
 2588TIP3   OH229398   5.437   0.840   1.339 -0.3245  0.0062  0.3829
 2588TIP3    H129399   5.514   0.837   1.281 -2.1027 -1.9482 -2.1075
 2588TIP3    H229400   5.369   0.793   1.291 -2.1041 -1.5051  3.9701
 2589TIP3   OH229401   1.182   2.648   7.895  0.3737  0.7713  0.5761
 2589TIP3    H129402   1.151   2.711   7.830  0.3445  1.2040  1.0077
 2589TIP3    H229403   1.109   2.637   7.955 -0.4269 -1.3346 -0.6854
 2590TIP3   OH229404   6.249   3.098   7.849 -0.3387 -0.8875  0.3967
 2590TIP3    H129405   6.174   3.045   7.875 -1.0451 -0.0270  0.1750
 2590TIP3    H229406   6.212   3.184   7.829  0.7799 -0.2724  0.8550
 2591TIP3   OH229407   2.347   0.654   8.377 -0.3712 -0.0994  0.3301
 2591TIP3    H129408   2.307   0.687   8.457  0.2314 -0.8455  0.9597
 2591TIP3    H229409   2.276   0.653   8.312 -1.0462 -0.2245  1.0646
 2592TIP3   OH229410   0.558   6.056   7.919  0.1030 -0.0452  1.2338
 2592TIP3    H129411   0.585   6.042   7.828  0.7905  1.4007  1.1729
 2592TIP3    H229412   0.463   6.066   7.915  0.2353  1.0966  0.4897
 2593TIP3   OH229413   3.356   6.444   2.414  0.6539 -0.5947  0.3488
 2593TIP3    H129414   3.267   6.431   2.381  0.9378 -1.7469 -0.0116
 2593TIP3    H229415   3.346   6.442   2.509  0.3020 -0.8620  0.3123
 2594TIP3   OH229416   3.345   1.491   0.528  0.0413 -0.0593 -0.1926
 2594TIP3    H129417   3.412   1.560   0.519 -0.4312  0.1213 -3.2197
 2594TIP3    H229418   3.395   1.411   0.540  0.6561  0.5225  1.3929
 2595TIP3   OH229419   0.608   3.125   0.362  0.1735  0.2487  0.2557
 2595TIP3    H129420   0.592   3.172   0.280 -1.8386  1.0750  1.0355
 2595TIP3    H229421   0.536   3.153   0.419  0.8797 -1.1686  1.9240
 2596TIP3   OH229422   5.680   2.403   2.387  0.1679 -0.2898  0.2867
 2596TIP3    H129423   5.595   2.425   2.424 -0.4791 -2.7070  0.4047
 2596TIP3    H229424   5.668   2.412   2.292 -0.1095 -0.2497  0.3249
 2597TIP3   OH229425   5.017   5.456   1.682 -0.6665  0.1987 -0.0799
 2597TIP3    H129426   4.959   5.452   1.606 -1.5719  0.9781  0.5424
 2597TIP3    H229427   5.105   5.453   1.645 -1.0931 -0.2900 -1.0955
 2598TIP3   OH229428   3.795   4.863   1.732 -0.9471  0.4880  0.0897
 2598TIP3    H129429   3.833   4.945   1.700 -1.5523 -0.1394 -2.4963
 2598TIP3    H229430   3.870   4.806   1.749 -0.5581  0.5729 -1.1926
 2599TIP3   OH229431   2.303   2.513   1.456 -0.8495 -0.5982  0.5200
 2599TIP3    H129432   2.269   2.424   1.442 -0.6668 -0.7164  0.8046
 2599TIP3    H229433   2.276   2.534   1.546  0.0598 -0.8006  0.8497
 2600TIP3   OH229434   3.522   6.252   7.357  0.0959 -0.3325  0.2745
 2600TIP3    H129435   3.616   6.246   7.338  0.1074  0.8271 -0.1404
 2600TIP3    H229436   3.480   6.230   7.274  0.0922  2.0177 -0.4281
 2601TIP3   OH229437   4.136   1.319   0.905 -0.0848 -0.0150 -0.1465
 2601TIP3    H129438   4.148   1.404   0.862  1.8748 -0.1270  0.0767
 2601TIP3    H229439   4.151   1.336   0.998  1.4744 -0.7717 -0.2280
 2602TIP3   OH229440   3.971   4.687   1.851 -0.7925 -0.0191 -0.5323
 2602TIP3    H129441   3.940   4.732   1.930 -0.9568  0.1027 -0.6655
 2602TIP3    H229442   4.065   4.703   1.850 -0.5280 -1.3224  0.4738
 2603TIP3   OH229443   6.499   4.389   1.881  0.4112 -0.5404  0.3205
 2603TIP3    H129444   6.519   4.295   1.879 -0.4549 -0.7261 -0.9257
 2603TIP3    H229445   6.468   4.405   1.970  0.4474 -1.4685  0.5123
 2604TIP3   OH229446   3.329   1.187   8.646  0.4279  0.3769 -0.0213
 2604TIP3    H129447   3.375   1.243   8.585  0.3897  0.3717 -0.0547
 2604TIP3    H229448   3.290   1.119   8.592  1.4682 -0.3703  0.1383
 2605TIP3   OH229449   5.704   2.323   1.933 -0.1320 -0.1256  0.6567
 2605TIP3    H129450   5.757   2.249   1.903  0.8410  1.0696 -0.7295
 2605TIP3    H229451   5.647   2.286   2.000 -0.8552 -2.5186 -1.1098
 2606TIP3   OH229452   1.606   6.253   0.891 -0.1595  0.3081  0.7206
 2606TIP3    H129453   1.702   6.255   0.887 -0.1739  0.7879  0.5937
 2606TIP3    H229454   1.587   6.226   0.981  0.0968 -0.9722  0.4080
 2607TIP3   OH229455   1.557   0.478   6.891 -0.6262  0.7080 -0.5815
 2607TIP3    H129456   1.561   0.528   6.973 -2.0232 -1.0844  0.6643
 2607TIP3    H229457   1.607   0.530   6.829 -0.3830  2.6584  1.1357
 2608TIP3   OH229458   0.130   3.809   1.358 -0.0258  0.5342 -0.5322
 2608TIP3    H129459   0.203   3.802   1.296 -0.3094  0.2101 -0.8331
 2608TIP3    H229460   0.102   3.901   1.353 -0.9215  0.2108 -1.8963
 2609TIP3   OH229461   0.364   0.412   8.676  0.3548 -0.9164 -0.2048
 2609TIP3    H129462   0.384   0.318   8.676  0.2491 -1.0609  3.0509
 2609TIP3    H229463   0.270   0.417   8.693  0.3669 -0.2140 -0.3115
 2610TIP3   OH229464   2.043   5.632   7.556 -0.1816  0.5985 -0.0659
 2610TIP3    H129465   2.071   5.549   7.519 -2.5815 -0.4015  0.1847
 2610TIP3    H229466   2.074   5.698   7.493 -0.3252 -0.6884 -1.5537
 2611TIP3   OH229467   5.733   3.515   0.237  0.1168 -0.0479 -0.3110
 2611TIP3    H129468   5.676   3.585   0.206 -0.4386 -0.3000  0.1284
 2611TIP3    H229469   5.709   3.503   0.329  0.9700 -0.0702 -0.0831
 2612TIP3   OH229470   1.378   2.113   0.945  0.4527 -0.3277  0.0408
 2612TIP3    H129471   1.353   2.068   1.026  1.2665  0.7487  0.9324
 2612TIP3    H229472   1.466   2.147   0.963 -1.1004  4.1453  0.6431
 2613TIP3   OH229473   3.881   2.051   0.970 -0.0203 -0.0396  1.0376
 2613TIP3    H129474   3.827   2.096   1.035 -0.2004 -1.0752  1.6294
 2613TIP3    H229475   3.971   2.060   1.002 -0.1757 -1.2274  1.8938
 2614TIP3   OH229476   0.603   4.797   2.175 -0.2684  0.1509 -0.0421
 2614TIP3    H129477   0.547   4.863   2.133 -1.5498  0.2844  1.7448
 2614TIP3    H229478   0.686   4.802   2.128 -0.6620  2.3477 -0.6086
 2615TIP3   OH229479   1.097   5.131   0.983 -0.3134 -0.1323 -0.1764
 2615TIP3    H129480   1.172   5.118   0.926 -0.3191 -0.0292 -0.2085
 2615TIP3    H229481   1.093   5.053   1.037  1.7177  1.1838  2.0441
 2616TIP3   OH229482   4.039   5.038   1.629 -0.3268 -0.0352 -0.7171
 2616TIP3    H129483   4.061   4.961   1.577  2.1869 -0.8090  1.2923
 2616TIP3    H229484   4.118   5.055   1.681 -1.1419  3.3208 -0.3520
 2617TIP3   OH229485   6.624   5.489   8.457 -0.2505 -0.2205  0.3448
 2617TIP3    H129486   6.649   5.399   8.479 -2.5527 -0.4213  2.5399
 2617TIP3    H229487   6.548   5.480   8.400  0.3833  0.3849 -0.6362
 2618TIP3   OH229488   4.041   5.255   2.900  0.2134 -0.3343  0.1795
 2618TIP3    H129489   4.125   5.300   2.904  0.0178  0.1415 -0.9747
 2618TIP3    H229490   4.057   5.172   2.947  1.4724 -0.4855 -0.4725
 2619TIP3   OH229491   1.457   5.689   1.941 -0.2394 -0.4221  0.1895
 2619TIP3    H129492   1.529   5.732   1.987 -0.6708  0.7779 -0.2009
 2619TIP3    H229493   1.380   5.705   1.997 -0.1980 -1.7960  0.6673
 2620TIP3   OH229494   5.450   6.518   2.803  0.0698  0.1576  0.4523
 2620TIP3    H129495   5.483   6.441   2.850 -0.2510  0.3082  0.9336
 2620TIP3    H229496   5.481   6.592   2.855 -1.8958  0.2935  1.5361
 2621TIP3   OH229497   5.603   6.413   0.065 -0.3113 -0.6540 -0.0649
 2621TIP3    H129498   5.664   6.400  -0.008 -1.7028 -1.4107 -1.1231
 2621TIP3    H229499   5.607   6.330   0.114 -0.2409 -0.5802  0.0534
 2622TIP3   OH229500   3.975   3.825   8.353 -0.3361 -0.2053 -0.6405
 2622TIP3    H129501   3.882   3.800   8.357 -0.4718  0.4402  1.0454
 2622TIP3    H229502   4.022   3.747   8.379 -0.5272  0.0279  0.4346
 2623TIP3   OH229503   3.291   0.788   2.204  0.2160 -0.3462 -0.2010
 2623TIP3    H129504   3.323   0.774   2.115  2.0321 -2.6049  0.7071
 2623TIP3    H229505   3.222   0.722   2.216 -0.0992  0.0199  0.0291
 2624TIP3   OH229506   3.902   6.512   1.041 -0.1711  0.3555 -0.0905
 2624TIP3    H129507   3.982   6.536   1.089 -0.2539  0.9742 -0.2574
 2624TIP3    H229508   3.903   6.416   1.041 -0.5387  0.3103  1.7639
 2625TIP3   OH229509   3.790   3.939   2.102  0.1748  0.4337  0.2563
 2625TIP3    H129510   3.800   3.958   2.195  3.0328 -0.0002  0.1317
 2625TIP3    H229511   3.853   3.997   2.059  0.3372 -0.7821 -1.2241
 2626TIP3   OH229512   3.351   1.145   0.479 -0.5619  0.3418  0.0660
 2626TIP3    H129513   3.269   1.105   0.508 -0.3838 -0.3505 -0.3623
 2626TIP3    H229514   3.418   1.081   0.502  0.0700  1.5677  1.8358
 2627TIP3   OH229515   5.383   3.361   3.053  0.1757  0.6564 -1.0636
 2627TIP3    H129516   5.446   3.433   3.059 -2.0870  2.6482  0.7886
 2627TIP3    H229517   5.367   3.336   3.144  0.5117 -1.9162 -1.6431
 2628TIP3   OH229518   1.787   1.976   0.223 -0.0531 -0.3303 -0.0933
 2628TIP3    H129519   1.818   1.894   0.261 -0.1251 -0.6081 -0.6271
 2628TIP3    H229520   1.831   2.044   0.274  1.8838 -0.7077 -1.1411
 2629TIP3   OH229521   4.891   3.781   0.737  0.3587 -0.1563  0.4271
 2629TIP3    H129522   4.955   3.824   0.680 -0.9349 -0.8501 -1.6635
 2629TIP3    H229523   4.896   3.688   0.713 -1.8888 -0.1379 -0.3161
 2630TIP3   OH229524   6.798   1.909   1.252  0.3094 -0.3916  0.2742
 2630TIP3    H129525   6.868   1.896   1.189 -2.0360  1.9835 -3.1407
 2630TIP3    H229526   6.817   1.994   1.292  0.0061 -0.3173  0.2607
 2631TIP3   OH229527   3.282   6.060   1.184  0.3595 -0.3171 -0.1465
 2631TIP3    H129528   3.323   6.099   1.107  0.8535 -0.8387 -0.1609
 2631TIP3    H229529   3.202   6.020   1.151 -0.6739  1.5293  0.0522
 2632TIP3   OH229530   2.470   6.039   0.145 -0.0024 -0.1363 -0.7826
 2632TIP3    H129531   2.508   5.952   0.153  0.2806 -0.1170 -1.7940
 2632TIP3    H229532   2.401   6.029   0.079 -1.7964 -0.1738  1.0014
 2633TIP3   OH229533   1.018   0.478   0.283 -0.1546  0.6212 -0.3088
 2633TIP3    H129534   0.984   0.406   0.336 -0.5316  0.4672 -0.7498
 2633TIP3    H229535   1.104   0.447   0.254 -0.2254  0.4322 -0.3210
 2634TIP3   OH229536   6.363   0.019   2.241  0.4312  0.3845  1.0478
 2634TIP3    H129537   6.355   0.096   2.297 -0.8970 -0.8045  2.6058
 2634TIP3    H229538   6.275   0.006   2.206  1.0534  0.6090 -0.7097
 2635TIP3   OH229539   5.112   1.507   8.312  0.1275  0.0625  0.8549
 2635TIP3    H129540   5.107   1.527   8.219  0.5365  0.1200  0.8461
 2635TIP3    H229541   5.050   1.435   8.324 -1.1295  1.1055  0.8346
 2636TIP3   OH229542   2.000   1.385   1.673  0.3757  0.1180 -0.0756
 2636TIP3    H129543   1.947   1.405   1.751  1.1640  0.9807  0.2653
 2636TIP3    H229544   1.942   1.402   1.599 -0.2049 -0.1533  0.3096
 2637TIP3   OH229545   3.619   6.227   3.198  0.2807  0.0178  0.0464
 2637TIP3    H129546   3.597   6.308   3.245  1.3539  0.5059 -0.2657
 2637TIP3    H229547   3.652   6.168   3.265  3.3357  1.2660 -0.2314
 2638TIP3   OH229548   3.732   5.284   1.402 -0.0725 -0.1152 -0.1201
 2638TIP3    H129549   3.680   5.217   1.357 -0.0060 -0.0049 -0.3671
 2638TIP3    H229550   3.673   5.320   1.468 -0.1613 -0.3062 -0.0969
 2639TIP3   OH229551   6.694   1.019   0.818  0.1389 -0.3612  0.0086
 2639TIP3    H129552   6.729   0.994   0.904 -0.9095 -2.0778 -0.0232
 2639TIP3    H229553   6.600   1.001   0.824 -0.0401  0.0174 -1.3360
 2640TIP3   OH229554   4.910   0.088   0.733  0.0574 -0.1086 -0.0560
 2640TIP3    H129555   4.859   0.169   0.726  0.8637  0.2793 -2.2601
 2640TIP3    H229556   4.854   0.021   0.693 -0.2094 -0.4830  0.9013
 2641TIP3   OH229557   4.032   1.726   2.204 -0.1995 -0.3195 -0.1248
 2641TIP3    H129558   4.063   1.772   2.282  0.1212 -1.0714  0.1955
 2641TIP3    H229559   4.032   1.793   2.136 -0.8361  0.4318  0.6019
 2642TIP3   OH229560   1.154   6.608   8.291  0.2786 -0.2395  0.3568
 2642TIP3    H129561   1.158   6.703   8.302 -0.6068 -0.0895 -0.5039
 2642TIP3    H229562   1.136   6.574   8.379 -1.5724  0.5493  0.3110
 2643TIP3   OH229563   2.528   3.520   2.548  0.7522  0.2693 -0.3742
 2643TIP3    H129564   2.499   3.549   2.635 -0.8851 -1.9900 -0.0753
 2643TIP3    H229565   2.589   3.449   2.566 -0.7273 -1.2351 -0.9910
 2644TIP3   OH229566   3.600   0.552   1.830  0.6737 -0.0452  0.1137
 2644TIP3    H129567   3.530   0.584   1.774  0.3722  0.8160  0.9591
 2644TIP3    H229568   3.580   0.459   1.843  0.9323 -0.3548 -1.4448
 2645TIP3   OH229569   1.008   3.241   0.849 -0.3105 -0.2270  0.8126
 2645TIP3    H129570   1.001   3.185   0.772  0.1949 -0.6180  1.0453
 2645TIP3    H229571   1.099   3.235   0.875 -0.8800 -1.7502  2.6658
 2646TIP3   OH229572   3.609   5.057   1.358 -0.3190  0.3150 -0.2201
 2646TIP3    H129573   3.564   5.068   1.442  0.2942 -0.3964  0.2184
 2646TIP3    H229574   3.681   4.996   1.378 -0.5684 -0.3865 -1.4146
 2647TIP3   OH229575   1.525   4.362   2.081 -0.3534 -0.3456 -0.2993
 2647TIP3    H129576   1.515   4.454   2.059  0.6453 -0.2502 -0.4133
 2647TIP3    H229577   1.481   4.315   2.010  0.2303  0.0214 -0.9120
 2648TIP3   OH229578   2.935   6.462   2.690 -0.7555 -0.2539  0.2149
 2648TIP3    H129579   2.955   6.556   2.694  1.8274 -0.5762 -2.1092
 2648TIP3    H229580   2.973   6.426   2.770 -2.2793  0.6987  1.4226
 2649TIP3   OH229581   6.782   4.447   2.837 -0.2403 -0.4158 -0.3545
 2649TIP3    H129582   6.725   4.426   2.763  0.5472  2.1099 -1.8164
 2649TIP3    H229583   6.757   4.536   2.861  0.0824 -0.8875  1.9441
 2650TIP3   OH229584   2.696   3.164   1.010 -0.2937  0.5314 -0.0884
 2650TIP3    H129585   2.749   3.120   1.077 -1.3779 -1.7991 -0.6773
 2650TIP3    H229586   2.716   3.257   1.022  2.7567 -0.0954  0.6858
 2651TIP3   OH229587   0.999   1.834   7.416 -0.6496 -0.2741 -0.6419
 2651TIP3    H129588   0.971   1.924   7.433 -0.7612 -0.4484  0.1589
 2651TIP3    H229589   0.946   1.806   7.342  0.0656  0.6278 -1.5342
 2652TIP3   OH229590   4.584   2.855   7.207  0.0230 -0.1194 -0.1461
 2652TIP3    H129591   4.531   2.777   7.224 -1.8742  0.9767 -0.7782
 2652TIP3    H229592   4.523   2.928   7.213  1.6624  1.3060 -0.0125
 2653TIP3   OH229593   4.054   3.560   8.423  0.4550  0.2255 -0.3949
 2653TIP3    H129594   4.063   3.541   8.516  0.7672 -0.4497 -0.5536
 2653TIP3    H229595   3.974   3.515   8.397  0.6881 -0.1029 -0.5700
 2654TIP3   OH229596   4.699   6.302   2.906  0.2909  0.3921 -0.2707
 2654TIP3    H129597   4.790   6.283   2.882 -0.0698  0.4047 -1.7633
 2654TIP3    H229598   4.648   6.274   2.830 -0.9172  0.8615  0.3377
 2655TIP3   OH229599   0.985   0.342   2.515  0.6054  0.3026 -0.1406
 2655TIP3    H129600   1.050   0.402   2.552  0.0353  1.0029 -0.2326
 2655TIP3    H229601   1.004   0.341   2.421 -0.4636  1.7699 -0.4203
 2656TIP3   OH229602   0.530   3.518   2.420 -0.0463 -0.6050 -0.3685
 2656TIP3    H129603   0.437   3.495   2.410 -0.0974 -1.0430  0.9771
 2656TIP3    H229604   0.541   3.532   2.514  0.7454  1.6891 -0.7394
 2657TIP3   OH229605   1.959   1.224   7.481 -0.6031  0.3100  0.0923
 2657TIP3    H129606   2.028   1.285   7.456  2.0395 -0.9135  3.6242
 2657TIP3    H229607   1.895   1.278   7.527 -0.5744  1.0130 -0.6560
 2658TIP3   OH229608   2.741   0.058   1.688  0.0248  0.0322  0.0056
 2658TIP3    H129609   2.759   0.113   1.764  2.1313  2.0098 -1.7808
 2658TIP3    H229610   2.827   0.034   1.654 -0.7556  0.4323 -2.5372
 2659TIP3   OH229611   4.437   3.387   2.982  0.0559 -0.6473 -0.0653
 2659TIP3    H129612   4.435   3.296   3.011  0.1673 -0.8664 -0.7289
 2659TIP3    H229613   4.345   3.414   2.983 -0.2459 -1.4278 -1.8602
 2660TIP3   OH229614   3.285   3.419   1.702  0.1491 -0.0858  0.1695
 2660TIP3    H129615   3.212   3.479   1.690 -0.6833 -0.7595  1.5713
 2660TIP3    H229616   3.314   3.399   1.613  0.5512  2.4445 -0.3296
 2661TIP3   OH229617   3.092   2.440   7.424  0.0285 -0.4618 -0.0095
 2661TIP3    H129618   3.068   2.523   7.385 -0.1303  0.2602  1.5394
 2661TIP3    H229619   3.180   2.454   7.459  0.7184 -1.5106 -1.2455
 2662TIP3   OH229620   2.150   3.161   2.897 -0.3313  0.6661 -0.0122
 2662TIP3    H129621   2.122   3.069   2.892  0.4586  0.3586  0.8761
 2662TIP3    H229622   2.071   3.209   2.922 -0.4305  0.0104  1.0188
 2663TIP3   OH229623   0.468   0.940   1.761 -0.3589  0.1681 -0.5863
 2663TIP3    H129624   0.504   1.006   1.702  1.0713 -0.8246 -0.8853
 2663TIP3    H229625   0.528   0.865   1.752 -1.4906 -0.8811  0.3152
 2664TIP3   OH229626   5.595   3.109   0.083 -0.4617  0.2854 -0.0541
 2664TIP3    H129627   5.533   3.110   0.157 -0.9180 -0.6223 -0.4118
 2664TIP3    H229628   5.681   3.103   0.125 -0.8001 -2.5387  0.4193
 2665TIP3   OH229629   3.060   2.329   2.130  0.2257 -0.2125  0.2856
 2665TIP3    H129630   3.000   2.261   2.160  0.9084 -0.7207  0.5303
 2665TIP3    H229631   3.032   2.408   2.178  1.3203 -1.0070  2.3853
 2666TIP3   OH229632   0.563   0.680   2.449  0.0960 -0.1590 -0.4509
 2666TIP3    H129633   0.488   0.713   2.498  1.3782  1.2542  0.6850
 2666TIP3    H229634   0.607   0.620   2.510  2.5649  2.7628  0.9445
 2667TIP3   OH229635   3.038   0.203   0.767 -0.3631 -0.0186  0.0593
 2667TIP3    H129636   3.045   0.256   0.846 -0.6100 -2.6134  1.9587
 2667TIP3    H229637   3.126   0.170   0.752 -0.6116 -0.7662  0.1964
 2668TIP3   OH229638   5.007   2.582   8.570 -0.2443 -0.3258 -0.1976
 2668TIP3    H129639   5.101   2.584   8.551 -0.0072  0.2542  0.9624
 2668TIP3    H229640   4.983   2.490   8.569  0.3144 -0.4681 -0.6059
 2669TIP3   OH229641   5.501   2.812   3.710  0.0107 -0.0335 -0.1609
 2669TIP3    H129642   5.441   2.858   3.651 -1.0626 -0.7095  0.3698
 2669TIP3    H229643   5.534   2.739   3.657 -2.4848 -1.8377  0.5817
 2670TIP3   OH229644   6.398   4.271   8.642  0.1247  0.7148  0.1613
 2670TIP3    H129645   6.470   4.334   8.651  2.1256 -1.4645  0.3940
 2670TIP3    H229646   6.325   4.311   8.689  1.7653  2.2080  1.5964
 2671TIP3   OH229647   6.177   0.192   2.400 -0.1561 -0.1278  0.0786
 2671TIP3    H129648   6.115   0.225   2.464 -1.1700 -0.4650 -0.7021
 2671TIP3    H229649   6.199   0.268   2.346  0.1804  0.0068  0.3992
 2672TIP3   OH229650   4.806   4.879   3.416  0.0728  0.1945 -0.6008
 2672TIP3    H129651   4.863   4.955   3.424 -0.7050  0.6647  1.0956
 2672TIP3    H229652   4.737   4.895   3.481 -0.7382 -1.4119 -1.0266
 2673TIP3   OH229653   4.547   1.791   7.771  0.1807  0.2273 -0.2518
 2673TIP3    H129654   4.547   1.775   7.676  1.4554  0.0658 -0.2447
 2673TIP3    H229655   4.617   1.855   7.784 -0.6497  1.0061  0.4760
 2674TIP3   OH229656   0.712   6.697   1.617 -0.0549  0.7981 -0.2612
 2674TIP3    H129657   0.739   6.608   1.594 -0.0892  0.9376 -0.8567
 2674TIP3    H229658   0.618   6.698   1.599 -0.4944  0.3208  1.7752
 2675TIP3   OH229659   0.779   2.213   7.055  0.1266  0.0917  0.1928
 2675TIP3    H129660   0.857   2.158   7.064 -0.3532 -0.7567 -0.6774
 2675TIP3    H229661   0.710   2.153   7.026 -0.5265  1.0613 -0.3203
 2676TIP3   OH229662   1.427   1.021   8.168  0.0236  0.6640 -0.5112
 2676TIP3    H129663   1.357   1.017   8.102 -0.5567  2.0818 -0.0231
 2676TIP3    H229664   1.446   0.930   8.188  0.7838  0.1414 -3.2101
 2677TIP3   OH229665   0.698   1.244   1.489 -0.5542  0.1084 -0.3483
 2677TIP3    H129666   0.744   1.307   1.433 -0.2707 -0.4598 -0.7681
 2677TIP3    H229667   0.639   1.297   1.542 -1.1205  0.6351 -1.4609
 2678TIP3   OH229668   3.058   0.244   7.995 -0.1902  0.6331  0.0859
 2678TIP3    H129669   3.048   0.293   7.913  0.5081 -0.5847 -0.7728
 2678TIP3    H229670   2.971   0.209   8.013 -0.5890  1.7631  0.4603
 2679TIP3   OH229671   1.566   0.570   0.025 -0.6207 -0.3473 -0.1682
 2679TIP3    H129672   1.548   0.664   0.032 -2.9865 -0.8289  2.0748
 2679TIP3    H229673   1.488   0.534  -0.016  0.0439 -1.4158 -0.5304
 2680TIP3   OH229674   2.329   0.534   2.224  0.5084  0.1979  0.3485
 2680TIP3    H129675   2.346   0.615   2.176  2.8501 -0.7642 -0.5543
 2680TIP3    H229676   2.414   0.491   2.231 -0.4997 -1.7494  1.6610
 2681TIP3   OH229677   5.967   0.634   2.214 -0.6243 -0.3352  0.5435
 2681TIP3    H129678   5.922   0.671   2.138  0.0141  2.3096  1.3400
 2681TIP3    H229679   6.060   0.643   2.193 -0.4467  0.0534  1.4450
 2682TIP3   OH229680   0.042   2.123   1.646  0.0358 -0.2523  0.1343
 2682TIP3    H129681   0.023   2.216   1.640  1.0909  0.0522  1.1438
 2682TIP3    H229682   0.086   2.101   1.564 -1.0317 -0.0903 -0.5007
 2683TIP3   OH229683   5.104   3.995   1.429 -0.2023 -0.8131 -0.3606
 2683TIP3    H129684   5.045   3.920   1.431 -1.2962  0.0316  0.0207
 2683TIP3    H229685   5.098   4.033   1.516  0.7550 -0.5826 -0.3795
 2684TIP3   OH229686   1.084   0.032   8.625  0.0488  0.3163 -0.2601
 2684TIP3    H129687   1.015  -0.033   8.640  0.2808 -0.6885 -2.9030
 2684TIP3    H229688   1.165  -0.018   8.627  0.6269  1.2551  1.4475
 2685TIP3   OH229689   6.168   1.102   2.040  0.2530 -0.1413 -0.1470
 2685TIP3    H129690   6.166   1.194   2.013 -0.5447 -0.3445 -0.8449
 2685TIP3    H229691   6.243   1.066   1.993  1.4555  0.4499  1.2396
 2686TIP3   OH229692   2.673   2.981   1.484 -0.2135  0.0093 -0.7216
 2686TIP3    H129693   2.723   2.900   1.474  1.3691  0.8371  0.0217
 2686TIP3    H229694   2.678   3.002   1.577  2.6017  2.7834 -1.3164
 2687TIP3   OH229695   2.349   3.137   2.684  0.5118  0.3245 -0.1592
 2687TIP3    H129696   2.408   3.070   2.717 -0.5400 -0.9612 -0.7628
 2687TIP3    H229697   2.285   3.150   2.754  1.8641  2.2726  0.8094
 2688TIP3   OH229698   2.688   5.625   1.714  0.3477  0.3679  0.1395
 2688TIP3    H129699   2.748   5.659   1.781  0.0910 -0.0329  0.5816
 2688TIP3    H229700   2.744   5.575   1.655  0.3109 -1.0584  1.2425
 2689TIP3   OH229701   6.668   5.420   2.740 -0.3142  0.2716  0.5622
 2689TIP3    H129702   6.675   5.373   2.823 -0.9694 -0.0567  0.4427
 2689TIP3    H229703   6.727   5.374   2.681 -1.4367 -0.8380  0.2608
 2690TIP3   OH229704   1.371   3.835   7.907 -0.3878 -0.1472  0.5239
 2690TIP3    H129705   1.346   3.797   7.991 -0.0659  0.9019  1.1018
 2690TIP3    H229706   1.363   3.762   7.845 -2.3651 -0.5000  1.1348
 2691TIP3   OH229707   2.991   1.789   8.025  0.5160 -0.1947 -0.2362
 2691TIP3    H129708   2.972   1.729   7.953  0.1221 -1.1483  0.6336
 2691TIP3    H229709   3.023   1.869   7.982  1.3526 -1.1223 -1.4096
 2692TIP3   OH229710   3.220   2.686   2.066 -0.2906  0.7764 -0.0742
 2692TIP3    H129711   3.151   2.622   2.086  0.5760 -0.0885  0.1715
 2692TIP3    H229712   3.192   2.726   1.983 -0.5375 -0.3521 -0.5420
 2693TIP3   OH229713   1.965   5.876   1.206  0.4274 -0.1359 -0.5642
 2693TIP3    H129714   1.899   5.848   1.143  0.4498  0.8748 -1.0529
 2693TIP3    H229715   1.919   5.883   1.289 -0.0385  0.3288 -0.8535
 2694TIP3   OH229716   1.833   5.199   2.456  0.4975  0.5817 -0.1794
 2694TIP3    H129717   1.830   5.146   2.376  1.6566 -1.0754  0.8241
 2694TIP3    H229718   1.765   5.162   2.512  0.5555  0.9020  0.1055
 2695TIP3   OH229719   6.356   2.287   1.267 -0.3693 -0.7275  0.4296
 2695TIP3    H129720   6.261   2.290   1.275 -0.2769 -0.2141  1.4789
 2695TIP3    H229721   6.388   2.357   1.323  0.6349 -0.8620  0.0612
 2696TIP3   OH229722   5.357   0.401   0.792  0.2161 -0.2502  0.5207
 2696TIP3    H129723   5.449   0.408   0.819 -0.1442 -0.1158  1.7723
 2696TIP3    H229724   5.313   0.361   0.867 -0.3056 -2.7995 -1.0573
 2697TIP3   OH229725   0.324   5.418   7.457 -0.2341 -0.1003  0.2171
 2697TIP3    H129726   0.235   5.407   7.423 -1.2867  1.0923  2.3857
 2697TIP3    H229727   0.355   5.329   7.473 -0.2050 -0.6415 -2.3543
 2698TIP3   OH229728   0.428   6.158   1.541  0.1043 -0.4674 -0.1947
 2698TIP3    H129729   0.440   6.085   1.602  2.4265  0.0781  0.0980
 2698TIP3    H229730   0.420   6.116   1.455 -2.1162 -1.1838  0.3036
 2699TIP3   OH229731   3.914   5.568   0.190 -0.3353 -0.2690  0.0241
 2699TIP3    H129732   3.894   5.646   0.139  0.8163  1.8533  2.6425
 2699TIP3    H229733   4.009   5.562   0.190 -0.2578  0.0906  2.2435
 2700TIP3   OH229734   3.920   3.658   2.109 -0.0115  0.2395 -0.4186
 2700TIP3    H129735   3.830   3.640   2.084 -0.2471 -0.3872  0.8278
 2700TIP3    H229736   3.926   3.753   2.111 -0.4214  0.2936 -1.2394
 2701TIP3   OH229737   4.846   0.997   1.563 -0.0048  0.0645 -0.0129
 2701TIP3    H129738   4.885   0.912   1.585 -1.8089 -0.4101  1.6655
 2701TIP3    H229739   4.856   1.004   1.468  0.4384 -1.8971 -0.1591
 2702TIP3   OH229740   4.049   3.838   1.815  0.0193  0.5994  0.0897
 2702TIP3    H129741   4.078   3.830   1.906 -0.5078 -0.1439  0.2011
 2702TIP3    H229742   3.974   3.897   1.819 -1.5201 -1.2659  0.5099
 2703TIP3   OH229743   1.722   5.209   2.839  0.3529 -0.5982 -0.0773
 2703TIP3    H129744   1.731   5.209   2.934  0.5007  0.4437 -0.0849
 2703TIP3    H229745   1.783   5.277   2.809 -2.4533  1.8917 -0.6401
 2704TIP3   OH229746   1.210   3.450   1.548 -0.6419  0.2609  0.5666
 2704TIP3    H129747   1.253   3.420   1.628 -3.2990 -0.5433  1.8132
 2704TIP3    H229748   1.205   3.545   1.558 -0.1733  0.2542  0.9224
 2705TIP3   OH229749   4.995   6.769   7.493  0.8708  0.9842  0.1512
 2705TIP3    H129750   4.909   6.731   7.507  1.0806 -0.0666 -1.1910
 2705TIP3    H229751   4.981   6.836   7.425  1.0654  1.0335  0.1583
 2706TIP3   OH229752   5.796   0.830   3.215  0.2607 -0.1978  0.0660
 2706TIP3    H129753   5.882   0.848   3.177  1.1048 -1.2370  1.3902
 2706TIP3    H229754   5.734   0.869   3.154  1.7081  1.7834 -0.2250
 2707TIP3   OH229755   0.507   0.360   1.598  0.2278 -0.0846  0.2468
 2707TIP3    H129756   0.533   0.414   1.674 -0.4908  0.2217  0.2863
 2707TIP3    H229757   0.437   0.304   1.631 -0.6559  0.6196 -0.3839
 2708TIP3   OH229758   2.052   0.829   1.119  0.0328 -0.6747  0.2220
 2708TIP3    H129759   2.134   0.863   1.085 -0.5318  0.2684 -0.2302
 2708TIP3    H229760   2.003   0.803   1.041 -1.8131  2.6961  0.0557
 2709TIP3   OH229761   5.868   6.535   1.373  0.0468 -0.3905 -0.0627
 2709TIP3    H129762   5.871   6.556   1.466  2.0747  0.4624 -0.2731
 2709TIP3    H229763   5.917   6.453   1.365  1.3594  0.4271 -0.5721
 2710TIP3   OH229764   6.505   3.939   0.053 -0.2499 -0.3436  0.3837
 2710TIP3    H129765   6.525   3.921  -0.038 -0.2717  0.6004  0.1867
 2710TIP3    H229766   6.445   3.869   0.079 -0.2269 -0.6218 -0.3155
 2711TIP3   OH229767   0.615   2.804   0.125 -0.2882 -0.4394 -0.2008
 2711TIP3    H129768   0.621   2.787   0.219 -0.4703 -1.3526 -0.3434
 2711TIP3    H229769   0.521   2.814   0.108 -0.4584 -2.3418 -0.6020
 2712TIP3   OH229770   4.619   5.600   8.045 -0.0824  0.7188 -0.1047
 2712TIP3    H129771   4.660   5.549   7.975 -1.2143  0.0723 -0.3130
 2712TIP3    H229772   4.638   5.691   8.022 -0.5683  0.5336 -1.3593
 2713TIP3   OH229773   1.062   3.567   0.028  0.1246 -0.3887 -0.2726
 2713TIP3    H129774   1.053   3.533  -0.061  2.0322 -3.7323  0.6840
 2713TIP3    H229775   1.156   3.575   0.042 -0.1604  2.2463  0.8017
 2714TIP3   OH229776   0.684   5.989   2.645  0.0102 -0.1965  0.1517
 2714TIP3    H129777   0.642   5.917   2.693 -1.0303 -0.4030 -0.9927
 2714TIP3    H229778   0.611   6.033   2.601  0.3795  2.7132  2.2176
 2715TIP3   OH229779   2.884   0.565   0.627 -0.5021 -0.1936  0.1049
 2715TIP3    H129780   2.966   0.573   0.677 -0.3635  0.8159 -0.2638
 2715TIP3    H229781   2.909   0.586   0.537 -0.9318 -1.1045 -0.2354
 2716TIP3   OH229782   5.552   5.630   0.817 -0.6165 -0.3998  0.2641
 2716TIP3    H129783   5.520   5.668   0.735 -0.3709  0.6649  0.6468
 2716TIP3    H229784   5.591   5.704   0.864  1.6247 -1.4541  0.1974
 2717TIP3   OH229785   2.118   1.218   0.173  0.0760  0.4025  0.0119
 2717TIP3    H129786   2.139   1.306   0.204 -2.0820  0.9376  0.1211
 2717TIP3    H229787   2.158   1.160   0.238 -0.9912  1.4110  1.6657
 2718TIP3   OH229788   4.340   6.651   8.211  0.6017  0.1706  0.2611
 2718TIP3    H129789   4.380   6.576   8.254 -0.4881 -0.8729 -0.4983
 2718TIP3    H229790   4.264   6.616   8.166 -0.4833  1.8773  0.6350
 2719TIP3   OH229791   6.386   1.370   7.759  0.4549 -1.0990 -0.1677
 2719TIP3    H129792   6.391   1.275   7.757 -0.0329 -1.1183 -0.7004
 2719TIP3    H229793   6.343   1.394   7.677 -0.3024 -0.4814  0.3838
 2720TIP3   OH229794   1.544   3.603   0.868 -0.1856  0.9190 -1.1408
 2720TIP3    H129795   1.581   3.678   0.915  0.1957  0.7994 -1.2412
 2720TIP3    H229796   1.609   3.584   0.800  0.5198 -0.5290 -0.0924
 2721TIP3   OH229797   2.386   0.658   7.051  0.8635  0.1367 -0.4307
 2721TIP3    H129798   2.399   0.579   7.103  1.9827 -0.5110 -1.6194
 2721TIP3    H229799   2.307   0.698   7.086  0.4548 -1.3484  0.4061
 2722TIP3   OH229800   4.007   5.384   8.366 -0.0242 -0.1365  0.3461
 2722TIP3    H129801   3.990   5.292   8.350  0.6370 -0.4801  1.5010
 2722TIP3    H229802   3.923   5.422   8.390 -0.7384  0.0626 -2.1917
 2723TIP3   OH229803   6.197   4.826   0.159 -0.1324 -0.0362  0.0358
 2723TIP3    H129804   6.130   4.780   0.209 -1.4986  0.3996 -1.3399
 2723TIP3    H229805   6.174   4.810   0.067 -0.2751  2.7844 -0.5137
 2724TIP3   OH229806   6.333   2.929   2.224  0.2562  0.0766  0.4431
 2724TIP3    H129807   6.307   3.016   2.194 -0.5637 -0.3390 -0.0819
 2724TIP3    H229808   6.418   2.914   2.182  0.5581  0.7418  0.7940
 2725TIP3   OH229809   2.292   2.598   2.958  0.2469  0.2553 -0.0113
 2725TIP3    H129810   2.244   2.680   2.962  0.8416  0.5580  1.7628
 2725TIP3    H229811   2.338   2.592   3.042 -2.3127 -3.4170  1.4184
 2726TIP3   OH229812   5.289   5.775   8.305 -0.1719 -0.3780 -0.8903
 2726TIP3    H129813   5.286   5.870   8.317 -1.9464 -0.1809 -2.4478
 2726TIP3    H229814   5.251   5.740   8.385  2.0420  0.0675  0.4579
 2727TIP3   OH229815   4.001   6.603   7.581 -0.6789  0.2725 -0.2787
 2727TIP3    H129816   4.093   6.614   7.557 -1.2028  2.0524 -1.6935
 2727TIP3    H229817   3.989   6.509   7.587  1.8921 -0.0421  2.8513
 2728TIP3   OH229818   3.070   3.078   7.633  0.1681  0.1578 -0.2034
 2728TIP3    H129819   3.008   3.030   7.578  1.4376 -0.2262 -1.3731
 2728TIP3    H229820   3.016   3.121   7.699 -1.2943 -0.4296 -0.9718
 2729TIP3   OH229821   6.050   2.996   2.863 -0.3420 -0.3952  0.1648
 2729TIP3    H129822   6.046   3.012   2.769  0.2333  0.1560  0.2269
 2729TIP3    H229823   6.080   3.079   2.900 -1.8551 -0.1747  0.9746
 2730TIP3   OH229824   6.392   0.608   1.463 -0.0235 -0.2975  0.2010
 2730TIP3    H129825   6.302   0.620   1.492 -0.0239 -2.1626  1.1345
 2730TIP3    H229826   6.442   0.594   1.544  1.1944  1.0462 -0.2732
 2731TIP3   OH229827   0.863   2.534   3.295  0.1645 -0.0032 -0.1912
 2731TIP3    H129828   0.788   2.478   3.315  1.2883 -1.8297 -0.8867
 2731TIP3    H229829   0.829   2.623   3.304 -1.4938 -0.7460  1.6706
 2732TIP3   OH229830   0.854   4.445   0.338 -0.0509 -0.1389 -0.2250
 2732TIP3    H129831   0.831   4.517   0.397  0.6998 -0.0296 -0.0449
 2732TIP3    H229832   0.784   4.381   0.349 -0.6207  0.4771 -0.2364
 2733TIP3   OH229833   5.640   3.517   0.514  0.0817  0.1143  0.0589
 2733TIP3    H129834   5.571   3.566   0.558  1.2319  0.8457  1.1112
 2733TIP3    H229835   5.641   3.431   0.558 -0.5610 -0.1318 -0.3916
 2734TIP3   OH229836   6.030   5.823   1.715 -0.2752 -0.7485  0.3330
 2734TIP3    H129837   5.982   5.891   1.668 -1.0996 -0.6361  1.3064
 2734TIP3    H229838   6.122   5.845   1.702 -0.4941 -0.4211 -0.7645
 2735TIP3   OH229839   5.867   4.264   8.692 -0.5635 -0.3388 -0.3659
 2735TIP3    H129840   5.847   4.222   8.609 -0.8845  0.3095 -0.6203
 2735TIP3    H229841   5.831   4.204   8.758  0.7380 -1.4513 -0.6165
 2736TIP3   OH229842   0.150   3.437   0.924  0.8885 -0.4692  0.3071
 2736TIP3    H129843   0.183   3.352   0.894 -0.2213 -1.2540  1.2071
 2736TIP3    H229844   0.175   3.440   1.017 -2.3750 -1.6182  1.3569
 2737TIP3   OH229845   5.261   4.381   8.556 -0.3315  0.3410 -0.2773
 2737TIP3    H129846   5.269   4.292   8.522  1.9965 -0.1079  1.2317
 2737TIP3    H229847   5.183   4.378   8.612 -0.3839 -0.6922 -0.3902
 2738TIP3   OH229848   3.700   5.192   1.970  0.3987 -0.1662  0.1439
 2738TIP3    H129849   3.785   5.195   1.925  0.5443  0.7293  0.4692
 2738TIP3    H229850   3.677   5.283   1.984 -0.6618 -0.3987  0.0052
 2739TIP3   OH229851   5.253   3.921   1.203 -0.2827 -0.2628 -0.0327
 2739TIP3    H129852   5.198   3.926   1.281 -0.1579  0.4240  0.0156
 2739TIP3    H229853   5.298   3.837   1.212 -0.6526 -0.4253  0.3731
 2740TIP3   OH229854   6.605   0.729   0.103  0.8256 -0.1119 -0.0687
 2740TIP3    H129855   6.557   0.648   0.090  1.0238 -0.2158 -0.1576
 2740TIP3    H229856   6.650   0.718   0.187  0.1127  0.2772  0.3759
 2741TIP3   OH229857   1.048   2.893   8.577  0.2531 -0.1509  0.3007
 2741TIP3    H129858   0.953   2.903   8.565  0.5259  1.8211 -0.7710
 2741TIP3    H229859   1.064   2.921   8.667 -0.2147 -0.8018  0.5910
 2742TIP3   OH229860   2.529   6.292   8.602  0.5585  0.4689 -0.3352
 2742TIP3    H129861   2.541   6.226   8.534 -0.8579  1.2073 -1.3583
 2742TIP3    H229862   2.444   6.272   8.641  1.3565  0.0538  1.2659
 2743TIP3   OH229863   2.414   4.723   8.692  0.3314 -0.5693  0.0195
 2743TIP3    H129864   2.466   4.717   8.612  1.2815 -1.0639  0.6615
 2743TIP3    H229865   2.467   4.680   8.759 -0.1113  0.4708  1.0840
 2744TIP3   OH229866   4.289   0.477   1.862 -0.3746 -0.2042 -0.4001
 2744TIP3    H129867   4.231   0.428   1.922  0.5063 -0.0258  0.6275
 2744TIP3    H229868   4.302   0.562   1.905  0.1409 -0.0130 -0.9244
 2745TIP3   OH229869   0.700   1.817   7.424  0.0130 -0.0988  0.4094
 2745TIP3    H129870   0.745   1.864   7.354 -2.3939  1.3749 -0.2684
 2745TIP3    H229871   0.641   1.882   7.463 -0.7616 -1.6322  1.9532
 2746TIP3   OH229872   4.202   2.017   2.304 -0.0455  0.6410 -0.3196
 2746TIP3    H129873   4.275   2.054   2.354  0.2918 -0.6329  0.1814
 2746TIP3    H229874   4.191   1.929   2.340 -1.0362  0.3721 -1.2300
 2747TIP3   OH229875   6.228   1.599   8.337 -0.6834  0.6583  0.4737
 2747TIP3    H129876   6.263   1.628   8.253 -0.2747  1.4908  0.9186
 2747TIP3    H229877   6.144   1.644   8.345 -1.4476 -0.5854 -0.1512
 2748TIP3   OH229878   1.357   1.731   8.016 -0.6468  0.0688 -0.2779
 2748TIP3    H129879   1.351   1.638   8.034 -0.1640  0.5559  3.0366
 2748TIP3    H229880   1.450   1.752   8.030 -1.0055  1.2670  0.4616
 2749TIP3   OH229881   6.668   6.588   2.745 -0.1047  0.1925  0.1517
 2749TIP3    H129882   6.704   6.504   2.716 -0.4570  0.1366 -0.1179
 2749TIP3    H229883   6.615   6.565   2.822 -1.5846 -0.0800 -0.9174
 2750TIP3   OH229884   3.804   0.649   8.120  0.7058  0.1405 -0.3021
 2750TIP3    H129885   3.867   0.719   8.139  0.0483  0.8369 -0.6490
 2750TIP3    H229886   3.766   0.627   8.204  0.9054  0.2062 -0.1936
 2751TIP3   OH229887   2.542   5.768   1.079 -0.2933 -0.1751 -0.9397
 2751TIP3    H129888   2.462   5.818   1.095 -0.7297 -1.0669 -0.2776
 2751TIP3    H229889   2.575   5.802   0.995 -2.2344 -0.8896 -2.0621
 2752TIP3   OH229890   6.205   4.057   0.144  0.0540 -0.2434  0.1713
 2752TIP3    H129891   6.230   4.037   0.054  1.8872 -0.5019  0.6945
 2752TIP3    H229892   6.138   3.993   0.166  1.4407 -1.8846 -0.2000
 2753TIP3   OH229893   4.040   2.856   2.030  0.4531  0.0474  0.1875
 2753TIP3    H129894   4.020   2.928   1.971  0.5026 -0.2092 -0.1422
 2753TIP3    H229895   4.126   2.825   2.004  0.8783  0.5234  0.9863
 2754TIP3   OH229896   2.422   2.738   1.336 -0.0337  0.1807 -0.5181
 2754TIP3    H129897   2.489   2.750   1.404  0.5137 -0.3834 -0.9446
 2754TIP3    H229898   2.362   2.674   1.373  0.3316 -0.2178 -0.6101
 2755TIP3   OH229899   5.334   4.062   0.217 -0.0274  0.3248 -0.1128
 2755TIP3    H129900   5.373   4.094   0.299  2.5798 -0.9228 -0.7448
 2755TIP3    H229901   5.288   4.137   0.181  0.9689  1.6456  1.2374
 2756TIP3   OH229902   1.965   5.079   0.328  0.4436  0.2535  0.0319
 2756TIP3    H129903   2.037   5.102   0.269 -0.2258 -0.5258 -1.1405
 2756TIP3    H229904   1.912   5.016   0.278 -1.0862  0.8429  0.8221
 2757TIP3   OH229905   4.691   2.198   8.692 -0.5245  0.6896  0.6619
 2757TIP3    H129906   4.640   2.154   8.760 -1.2934 -1.0266 -0.9310
 2757TIP3    H229907   4.683   2.291   8.713 -0.8324  0.2271  2.8068
 2758TIP3   OH229908   3.443   5.408   8.227  0.0888  0.0969  0.5313
 2758TIP3    H129909   3.511   5.467   8.194  0.5747 -0.1485  1.0640
 2758TIP3    H229910   3.478   5.376   8.311 -1.1487  0.7855  1.3310
 2759TIP3   OH229911   5.709   1.601   7.644  0.1712 -0.2957 -0.4030
 2759TIP3    H129912   5.754   1.575   7.564  0.9214  0.4684 -0.2351
 2759TIP3    H229913   5.622   1.560   7.637  0.7827 -1.5664 -0.8522
 2760TIP3   OH229914   4.581   0.278   3.298 -0.1579 -0.2336 -0.6774
 2760TIP3    H129915   4.555   0.339   3.229  0.9971  1.2313  0.1238
 2760TIP3    H229916   4.499   0.234   3.322 -1.6424  2.7493  0.3730
 2761TIP3   OH229917   5.248   1.911   7.104 -0.5260 -0.2589 -0.0703
 2761TIP3    H129918   5.254   1.816   7.116  0.7246 -0.1972 -0.1032
 2761TIP3    H229919   5.334   1.944   7.129 -1.5123  1.0787  1.8021
 2762TIP3   OH229920   4.572   4.674   8.282  0.4274 -0.0693  0.3513
 2762TIP3    H129921   4.486   4.685   8.321  0.2819  2.6386 -0.5354
 2762TIP3    H229922   4.606   4.763   8.272  2.7439 -0.9669 -0.6288
 2763TIP3   OH229923   0.186   3.199   0.782  0.3385 -0.2725 -0.1189
 2763TIP3    H129924   0.206   3.120   0.832  0.5467 -0.3618 -0.3434
 2763TIP3    H229925   0.100   3.183   0.744  0.0012 -0.0478  0.5233
 2764TIP3   OH229926   5.088   5.080   0.180  0.4670 -0.0245 -0.2046
 2764TIP3    H129927   5.059   5.142   0.113 -0.2639 -0.6812 -0.5070
 2764TIP3    H229928   5.047   4.997   0.156 -0.9270  0.0196  1.8036
 2765TIP3   OH229929   1.971   0.894   1.371 -0.4825  0.2585  0.5944
 2765TIP3    H129930   2.055   0.939   1.373 -0.0732 -0.4895  1.3087
 2765TIP3    H229931   1.974   0.841   1.291 -1.2639  1.9803 -0.6372
 2766TIP3   OH229932   5.350   5.119   1.689 -0.4206  0.0914  0.3574
 2766TIP3    H129933   5.372   5.212   1.693 -0.1729  0.1877 -1.8448
 2766TIP3    H229934   5.268   5.112   1.737 -0.5600  1.5000  0.3698
 2767TIP3   OH229935   2.717   1.580   2.990 -0.1454 -0.4751 -0.4947
 2767TIP3    H129936   2.735   1.494   3.029  0.2456 -0.1647  0.0158
 2767TIP3    H229937   2.698   1.561   2.898 -0.5933 -1.1672 -0.2718
 2768TIP3   OH229938   2.230   5.640   8.351  0.2972 -0.2673 -0.0851
 2768TIP3    H129939   2.206   5.552   8.381  0.8871  0.0459  1.3709
 2768TIP3    H229940   2.239   5.631   8.256 -4.8318 -0.5945 -0.8553
 2769TIP3   OH229941   4.937   4.287   0.194  0.2576  0.2033 -1.4187
 2769TIP3    H129942   4.919   4.238   0.274  1.2967  2.3524  0.2432
 2769TIP3    H229943   4.896   4.236   0.125  0.1595 -2.2738  0.3318
 2770TIP3   OH229944   3.587   5.688   2.349  0.3321  0.1856  0.0876
 2770TIP3    H129945   3.663   5.633   2.369 -0.5139 -0.6893  1.0217
 2770TIP3    H229946   3.612   5.736   2.270  1.4945 -0.7967 -0.1705
 2771TIP3   OH229947   2.180   5.125   0.178  0.2478  0.5756 -0.2857
 2771TIP3    H129948   2.249   5.153   0.239  0.2406  0.5000 -0.2435
 2771TIP3    H229949   2.185   5.189   0.107  1.5574 -0.4676 -1.1818
 2772TIP3   OH229950   2.985   3.515   2.011  0.1218  0.2617 -0.0973
 2772TIP3    H129951   3.041   3.451   2.054 -0.0866 -0.8970 -1.4589
 2772TIP3    H229952   2.913   3.463   1.974  0.4509  1.1057 -2.0853
 2773TIP3   OH229953   4.695   5.087   7.649  0.3071 -0.3558 -0.3349
 2773TIP3    H129954   4.603   5.091   7.675  1.1825 -1.3713  3.7697
 2773TIP3    H229955   4.717   5.176   7.621 -1.2911  0.6542  1.4195
 2774TIP3   OH229956   3.733   2.605   8.419 -0.1902 -0.4606 -0.0496
 2774TIP3    H129957   3.810   2.549   8.411  0.7815  0.8804 -0.3909
 2774TIP3    H229958   3.680   2.584   8.342  0.5058 -0.4094 -0.5535
 2775TIP3   OH229959   2.062   5.803   1.758 -0.3690  0.4386  0.0569
 2775TIP3    H129960   2.156   5.819   1.759 -0.3946  0.6254 -0.2915
 2775TIP3    H229961   2.045   5.766   1.672 -0.4796 -0.4641  0.4566
 2776TIP3   OH229962   5.081   5.589   3.736  0.2731 -0.1409  0.2497
 2776TIP3    H129963   5.155   5.534   3.709  0.2395 -1.2638  2.2810
 2776TIP3    H229964   5.119   5.655   3.793  0.2508  1.8335 -1.8740
 2777TIP3   OH229965   3.343   0.340   0.463  0.4492 -0.3769 -0.6174
 2777TIP3    H129966   3.396   0.375   0.536  3.1158 -0.2161 -2.4632
 2777TIP3    H229967   3.253   0.361   0.487  1.3116  0.8898  1.9738
 2778TIP3   OH229968   6.718   6.724   8.341 -0.1234 -0.2496  0.5320
 2778TIP3    H129969   6.713   6.688   8.429  1.4590 -0.5574  0.5293
 2778TIP3    H229970   6.759   6.655   8.289  0.5747  0.5734 -0.0396
 2779TIP3   OH229971   3.418   4.725   8.393  0.3342  0.8015  0.1258
 2779TIP3    H129972   3.337   4.706   8.438 -0.2061  0.7862 -0.8247
 2779TIP3    H229973   3.424   4.821   8.392  0.4110  0.7997  0.3265
 2780TIP3   OH229974   4.549   3.746   2.340  0.3613 -0.1153 -0.4470
 2780TIP3    H129975   4.583   3.734   2.251  1.1467 -0.3462 -0.1181
 2780TIP3    H229976   4.623   3.780   2.390  0.7514 -2.5660  0.7737
 2781TIP3   OH229977   4.877   4.668   3.263 -0.2843  0.6220  0.1337
 2781TIP3    H129978   4.808   4.607   3.288 -0.7129  0.9084 -0.3235
 2781TIP3    H229979   4.888   4.725   3.339  1.8262 -1.4865  1.5337
 2782TIP3   OH229980   4.064   1.837   2.452 -0.1580  0.2665 -0.4250
 2782TIP3    H129981   3.990   1.790   2.492  1.2534  1.0042  3.4836
 2782TIP3    H229982   4.076   1.914   2.507  1.3497  2.0993 -3.0944
 2783TIP3   OH229983   0.768   3.749   3.217  0.9135  0.2012  0.1732
 2783TIP3    H129984   0.715   3.800   3.279  1.5247 -0.5855  1.3854
 2783TIP3    H229985   0.723   3.664   3.212 -0.3786  0.9377 -2.2064
 2784TIP3   OH229986   4.104   5.092   0.093  0.1005 -0.5127 -0.1002
 2784TIP3    H129987   4.076   5.066   0.005 -0.3393 -0.0404 -0.1105
 2784TIP3    H229988   4.147   5.176   0.080  1.5020 -1.2113 -0.0719
 2785TIP3   OH229989   4.324   6.796   7.163  0.2447 -0.1063 -0.3358
 2785TIP3    H129990   4.312   6.839   7.248 -0.4227 -0.3424 -0.3030
 2785TIP3    H229991   4.346   6.867   7.103 -0.6774  0.2809 -0.2461
 2786TIP3   OH229992   4.996   6.089   7.805 -0.3820  0.4401 -0.0056
 2786TIP3    H129993   4.944   6.123   7.732  1.0115  0.1396 -1.2040
 2786TIP3    H229994   5.007   5.996   7.786  0.3124  0.4360  0.3608
 2787TIP3   OH229995   6.804   3.260   0.040  0.3505  0.7928  0.2246
 2787TIP3    H129996   6.840   3.316   0.110  0.0855 -0.2328  1.2106
 2787TIP3    H229997   6.850   3.177   0.051 -1.3480 -0.1201  0.6647
 2788TIP3   OH229998   3.244   0.502   1.395  0.5653 -0.4871  0.2004
 2788TIP3    H129999   3.185   0.444   1.346  0.7735 -1.7611  1.4333
 2788TIP3    H230000   3.190   0.535   1.467  0.5524  0.6184 -0.2883
 2789TIP3   OH230001   6.389   4.748   2.417  0.2001  0.0399  0.2419
 2789TIP3    H130002   6.474   4.760   2.375  1.2895  1.2627  2.5468
 2789TIP3    H230003   6.341   4.688   2.360  2.6495 -0.7948 -1.0645
 2790TIP3   OH230004   5.180   1.573   0.916 -0.3776  0.0885  0.1340
 2790TIP3    H130005   5.147   1.497   0.868 -0.0201  0.6513 -1.0295
 2790TIP3    H230006   5.214   1.536   0.998 -2.1026 -0.7345  0.5286
 2791TIP3   OH230007   5.244   3.241   2.317 -0.0038  0.4259 -0.2727
 2791TIP3    H130008   5.249   3.307   2.385 -1.1477  1.7929 -1.4488
 2791TIP3    H230009   5.335   3.227   2.290  0.5573 -0.7199  1.9907
 2792TIP3   OH230010   1.995   6.829   2.068  0.1995 -0.1977 -0.0158
 2792TIP3    H130011   1.987   6.900   2.005  2.1749 -0.5872 -0.7825
 2792TIP3    H230012   1.982   6.749   2.016  2.1369 -0.5358 -0.0314
 2793TIP3   OH230013   6.480   3.038   0.970  0.1484 -0.8300 -0.3390
 2793TIP3    H130014   6.512   3.128   0.976  0.0047 -0.8235  0.5057
 2793TIP3    H230015   6.387   3.044   0.991  0.1397 -1.1689 -0.2684
 2794TIP3   OH230016   3.652   4.661   0.558  0.1605 -0.6444 -1.1875
 2794TIP3    H130017   3.697   4.617   0.630 -1.3759 -1.6114 -0.7676
 2794TIP3    H230018   3.662   4.754   0.576 -1.2628 -0.8324  1.0473
 2795TIP3   OH230019   4.061   1.963   3.129 -0.0451  0.2203  0.1789
 2795TIP3    H130020   4.114   2.040   3.150 -0.7562  1.1271 -1.2248
 2795TIP3    H230021   3.976   1.981   3.170 -0.6434  0.8503 -1.2562
 2796TIP3   OH230022   1.003   1.710   0.456 -0.2598  0.2863  0.7379
 2796TIP3    H130023   1.069   1.780   0.453 -1.1297  1.1218 -1.8475
 2796TIP3    H230024   0.929   1.748   0.503 -0.2929  0.7161  0.3472
 2797TIP3   OH230025   3.593   5.242   0.530 -0.0381 -0.5326 -0.2217
 2797TIP3    H130026   3.644   5.199   0.462  2.3147  2.0774 -0.2668
 2797TIP3    H230027   3.653   5.251   0.604 -0.7744  1.5147  0.1981
 2798TIP3   OH230028   2.041   6.681   7.561 -0.2063  0.4295  0.0734
 2798TIP3    H130029   1.957   6.726   7.547 -0.4244  0.6622  1.9159
 2798TIP3    H230030   2.017   6.591   7.581  0.0461  0.3084 -0.1551
 2799TIP3   OH230031   1.246   1.558   2.147  0.0201 -0.1087  0.0600
 2799TIP3    H130032   1.153   1.537   2.152 -0.1503 -0.2425 -2.3265
 2799TIP3    H230033   1.291   1.474   2.156  0.1534  0.1795  3.5610
 2800TIP3   OH230034   0.804   0.246   7.602 -0.1998 -0.0555 -0.0478
 2800TIP3    H130035   0.850   0.186   7.543 -0.9383 -2.2064  1.4754
 2800TIP3    H230036   0.712   0.240   7.576 -0.0397  2.2680 -1.3945
 2801TIP3   OH230037   4.079   0.919   2.544  0.0478  0.3796 -0.6610
 2801TIP3    H130038   4.128   0.841   2.566  1.0025  1.0870 -0.2214
 2801TIP3    H230039   3.987   0.890   2.541 -0.0136 -0.1511  2.6169
 2802TIP3   OH230040   2.914   4.596   7.555  0.3517 -0.1245  0.1920
 2802TIP3    H130041   2.887   4.527   7.494 -1.0953 -0.1172  0.7882
 2802TIP3    H230042   2.862   4.673   7.529  1.2519  0.4809  0.1360
 2803TIP3   OH230043   5.543   5.082   2.170 -0.2557 -0.1780 -0.6076
 2803TIP3    H130044   5.580   5.090   2.258 -0.2364  0.2801 -0.6532
 2803TIP3    H230045   5.460   5.128   2.175 -1.2632 -1.9658 -0.2668
 2804TIP3   OH230046   2.288   6.058   1.995  0.8760  0.3272 -0.1454
 2804TIP3    H130047   2.377   6.039   1.967  1.4387  0.3825  1.5273
 2804TIP3    H230048   2.285   6.154   2.001  1.1695  0.2716  1.1733
 2805TIP3   OH230049   4.101   6.338   0.385  0.3738  0.4135  0.1781
 2805TIP3    H130050   4.125   6.424   0.420 -0.0743  0.4947  0.3007
 2805TIP3    H230051   4.182   6.304   0.347  0.0915  1.8009 -1.8121
 2806TIP3   OH230052   1.967   1.810   1.340 -0.3459  0.2506 -0.3468
 2806TIP3    H130053   2.010   1.874   1.397  0.0415 -0.1886 -0.1436
 2806TIP3    H230054   1.968   1.851   1.253 -0.2570  0.5966 -0.1833
 2807TIP3   OH230055   0.575   1.350   0.096  0.7426 -0.1958  0.3318
 2807TIP3    H130056   0.628   1.408   0.042  0.4979 -0.4430 -0.1801
 2807TIP3    H230057   0.508   1.316   0.037 -1.3974  1.7941  1.4302
 2808TIP3   OH230058   2.173   4.320   2.775  0.3102 -0.2871  0.1339
 2808TIP3    H130059   2.264   4.341   2.753 -0.1816 -0.2593 -2.0243
 2808TIP3    H230060   2.121   4.373   2.715 -1.1166 -1.2408  0.4966
 2809TIP3   OH230061   1.166   0.199   7.584 -0.2122  0.3374 -0.2948
 2809TIP3    H130062   1.080   0.210   7.543 -0.3058  0.5241 -0.0512
 2809TIP3    H230063   1.220   0.158   7.517  0.2040  2.4565 -1.3324
 2810TIP3   OH230064   6.482   1.936   2.116  0.4200  0.3974 -0.2938
 2810TIP3    H130065   6.505   1.844   2.109  0.3533  0.2708  0.9612
 2810TIP3    H230066   6.560   1.978   2.153 -0.7180  0.2261  2.5065
 2811TIP3   OH230067   6.423   0.324   2.956 -0.0490 -0.1679  0.3522
 2811TIP3    H130068   6.365   0.387   2.912  0.0713 -0.2450  0.0804
 2811TIP3    H230069   6.380   0.239   2.943  0.9188 -0.4468 -1.2365
 2812TIP3   OH230070   3.039   4.741   1.326 -0.0864  0.5271  0.5911
 2812TIP3    H130071   3.033   4.834   1.302  0.8409  0.2626 -0.7372
 2812TIP3    H230072   3.075   4.742   1.415  1.3639  1.4193  0.0307
 2813TIP3   OH230073   1.072   4.374   3.034  0.2153  0.0621  0.4821
 2813TIP3    H130074   0.978   4.362   3.021  0.1758  0.8077  0.0520
 2813TIP3    H230075   1.112   4.308   2.978 -0.0421 -0.1990  0.5986
 2814TIP3   OH230076   3.451   0.776   1.911 -0.0914 -0.4446  0.1377
 2814TIP3    H130077   3.435   0.784   1.817 -0.4964 -0.9039  0.1641
 2814TIP3    H230078   3.479   0.863   1.938 -0.2594 -0.2344 -0.3551
 2815TIP3   OH230079   1.282   5.792   0.527  0.4257  0.4483  0.1636
 2815TIP3    H130080   1.243   5.865   0.575 -0.3853  1.2468 -1.5839
 2815TIP3    H230081   1.276   5.717   0.586  0.1268  1.5181  1.5291
 2816TIP3   OH230082   1.578   1.316   1.408  0.5372 -0.1935 -0.0109
 2816TIP3    H130083   1.488   1.287   1.393  0.6308 -0.1101 -0.7929
 2816TIP3    H230084   1.625   1.235   1.429  0.1935 -0.1721  0.8967
 2817TIP3   OH230085   4.216   3.882   1.431 -0.1210  0.6259 -0.5111
 2817TIP3    H130086   4.146   3.926   1.382 -1.1698 -0.9150 -0.4857
 2817TIP3    H230087   4.172   3.809   1.474  1.0590  1.0790  1.5739
 2818TIP3   OH230088   2.225   6.806   8.650 -0.6470  0.2554 -0.9235
 2818TIP3    H130089   2.168   6.743   8.693 -0.0644  0.9412  0.9506
 2818TIP3    H230090   2.246   6.766   8.565 -0.5109 -1.9484  0.0810
 2819TIP3   OH230091   0.841   4.185   0.656  0.2356 -0.4463 -0.3171
 2819TIP3    H130092   0.830   4.280   0.644 -0.6190 -0.8026 -3.2501
 2819TIP3    H230093   0.920   4.176   0.708 -2.1199  1.9222  4.2511
 2820TIP3   OH230094   3.580   6.523   2.546 -0.1174  0.6113  0.4749
 2820TIP3    H130095   3.510   6.496   2.487  1.2717  2.9296 -2.4799
 2820TIP3    H230096   3.539   6.588   2.604 -0.8791  0.3917  0.1927
 2821TIP3   OH230097   1.368   4.747   0.559 -0.2017  0.1090 -0.0901
 2821TIP3    H130098   1.373   4.842   0.555  0.1497  0.1550  1.0082
 2821TIP3    H230099   1.457   4.717   0.540  0.7317  0.2144  3.3917
 2822TIP3   OH230100   5.985   6.039   8.636  1.2578 -0.3231  0.1052
 2822TIP3    H130101   5.965   6.130   8.655  2.5893 -0.0778  0.4811
 2822TIP3    H230102   6.059   6.018   8.693  0.8827 -1.6868  0.1334
 2823TIP3   OH230103   3.963   2.703   1.189 -0.3189  0.1538  0.1595
 2823TIP3    H130104   3.951   2.666   1.276 -0.8173 -1.8126 -0.6982
 2823TIP3    H230105   3.893   2.769   1.181 -0.1669  0.4697  1.2708
 2824TIP3   OH230106   0.604   5.768   7.806 -0.0706 -0.3952 -0.2479
 2824TIP3    H130107   0.660   5.797   7.878 -1.8272 -2.4118  2.1192
 2824TIP3    H230108   0.568   5.849   7.770 -0.3474  0.6790  2.2416
 2825TIP3   OH230109   0.732   0.241   0.564  0.2547 -0.4306 -0.2419
 2825TIP3    H130110   0.679   0.318   0.585 -1.6465 -1.1245 -2.0751
 2825TIP3    H230111   0.731   0.190   0.645 -2.2619 -0.5486 -0.2419
 2826TIP3   OH230112   2.308   2.256   1.935 -0.0040 -0.1693  0.0517
 2826TIP3    H130113   2.347   2.187   1.881  0.0187 -0.3697  0.3198
 2826TIP3    H230114   2.233   2.214   1.976 -0.3084  0.1212 -0.1996
 2827TIP3   OH230115   3.735   4.651   8.634 -0.5178 -0.6899  0.2936
 2827TIP3    H130116   3.658   4.671   8.687  0.5424 -0.1035  1.6825
 2827TIP3    H230117   3.700   4.612   8.554 -2.1970 -1.3644  1.3085
 2828TIP3   OH230118   3.576   3.476   7.745  0.1034  0.3569 -0.3104
 2828TIP3    H130119   3.597   3.519   7.662  2.1869 -1.1661 -0.6613
 2828TIP3    H230120   3.504   3.527   7.781 -0.3265  1.5500 -2.6676
 2829TIP3   OH230121   4.497   0.730   0.760 -0.2082 -0.0832 -0.0442
 2829TIP3    H130122   4.424   0.786   0.735 -2.2114 -2.2938  0.4243
 2829TIP3    H230123   4.518   0.680   0.680 -0.2780 -0.5474  0.2216
 2830TIP3   OH230124   3.995   4.733   8.779 -0.1684  0.4884  0.0223
 2830TIP3    H130125   3.990   4.741   8.875 -0.1613 -2.2213  0.3449
 2830TIP3    H230126   3.904   4.730   8.751 -0.1867 -0.0491  0.1231
 2831TIP3   OH230127   3.343   0.124   1.130  0.2814  0.4039  0.3510
 2831TIP3    H130128   3.255   0.146   1.161  0.8247  2.4809  0.5805
 2831TIP3    H230129   3.370   0.200   1.078  1.4772 -0.7130 -0.7382
 2832TIP3   OH230130   6.764   2.972   1.756 -0.4437 -0.1430  0.0537
 2832TIP3    H130131   6.724   2.939   1.837 -0.5682 -0.3715 -0.0988
 2832TIP3    H230132   6.692   3.013   1.708 -0.1888  0.8193  0.4757
 2833TIP3   OH230133   0.255   4.315   0.469 -0.5057  0.1840 -0.1432
 2833TIP3    H130134   0.265   4.299   0.375 -0.0126 -0.1534 -0.0344
 2833TIP3    H230135   0.206   4.397   0.474  0.4554  0.8106 -0.6951
 2834TIP3   OH230136   0.528   3.786   0.634  0.1345  0.1706 -0.0071
 2834TIP3    H130137   0.528   3.875   0.669  1.9628 -0.7490  2.6748
 2834TIP3    H230138   0.611   3.778   0.587  1.3352 -0.7895  2.0848
 2835TIP3   OH230139   4.622   3.247   0.030 -0.1623  0.3132 -0.0258
 2835TIP3    H130140   4.559   3.223   0.098  1.4891 -2.1073  0.8074
 2835TIP3    H230141   4.617   3.175  -0.033  1.0303  0.6048 -0.4708
 2836TIP3   OH230142   0.886   3.439   0.990  0.4671 -0.0462 -0.3368
 2836TIP3    H130143   0.842   3.382   1.052 -1.8612  0.3352 -1.5261
 2836TIP3    H230144   0.932   3.379   0.931  1.2456 -0.4739  0.6752
 2837TIP3   OH230145   1.275   4.009   2.254 -0.1172  0.3668 -0.6676
 2837TIP3    H130146   1.200   4.063   2.229 -0.1205  0.5280 -0.3208
 2837TIP3    H230147   1.283   3.945   2.184 -3.0354 -2.1994  1.0947
 2838TIP3   OH230148   6.594   5.152   1.697  0.7206 -0.1207 -0.1838
 2838TIP3    H130149   6.645   5.230   1.676 -0.4467  1.0336  1.0392
 2838TIP3    H230150   6.557   5.170   1.784 -0.7772 -1.4029 -0.4977
 2839TIP3   OH230151   6.779   0.039   1.593  0.2458  0.2067  0.2895
 2839TIP3    H130152   6.705   0.021   1.535  1.1490 -0.0187 -0.8448
 2839TIP3    H230153   6.846  -0.023   1.564 -0.6407 -3.2282  4.5011
 2840TIP3   OH230154   0.975   6.501   1.868  0.1077  0.7340 -0.3828
 2840TIP3    H130155   1.054   6.554   1.859  0.8004 -0.3517 -0.9593
 2840TIP3    H230156   0.960   6.465   1.780  0.0259 -0.5113  0.1173
 2841TIP3   OH230157   6.703   0.754   1.850  0.5157  0.3275 -0.5529
 2841TIP3    H130158   6.760   0.691   1.894 -0.8109 -0.7862 -0.3409
 2841TIP3    H230159   6.677   0.815   1.920 -1.0821 -1.0716  0.1679
 2842TIP3   OH230160   6.850   5.851   8.264 -0.0882 -0.2384 -0.1321
 2842TIP3    H130161   6.942   5.829   8.277  0.1540  0.7484 -0.0746
 2842TIP3    H230162   6.802   5.794   8.325  0.5623 -0.0849  0.5333
 2843TIP3   OH230163   1.028   0.972   2.925  0.3266  0.3502  0.0925
 2843TIP3    H130164   1.021   1.052   2.977 -1.7841  0.7040 -0.6317
 2843TIP3    H230165   0.954   0.976   2.864  0.7640 -1.6664 -0.6670
 2844TIP3   OH230166   6.280   6.714   1.020  0.8763 -0.1798  0.1896
 2844TIP3    H130167   6.363   6.667   1.014  0.1350 -1.4041 -1.1056
 2844TIP3    H230168   6.300   6.802   0.988  2.3197  0.5131  2.7656
 2845TIP3   OH230169   6.850   6.009   1.108 -0.2801 -0.7259 -0.0032
 2845TIP3    H130170   6.908   5.989   1.035 -0.7304 -0.2902 -0.4914
 2845TIP3    H230171   6.773   5.955   1.093 -0.7513  0.0296 -0.3523
 2846TIP3   OH230172   6.232   4.329   0.254 -0.2653 -0.1763  0.1277
 2846TIP3    H130173   6.225   4.236   0.232 -2.7969 -0.0894  0.3095
 2846TIP3    H230174   6.235   4.331   0.350  0.4459 -0.0881  0.1069
 2847TIP3   OH230175   3.573   5.446   3.464 -0.1022  0.3225  0.9102
 2847TIP3    H130176   3.506   5.398   3.415 -0.1031 -0.4010  1.5887
 2847TIP3    H230177   3.655   5.424   3.420 -0.3547  1.8265 -0.4004
 2848TIP3   OH230178   3.792   1.058   8.044  0.2309 -1.0502 -0.0263
 2848TIP3    H130179   3.716   0.999   8.043  0.8707 -1.9065 -0.0455
 2848TIP3    H230180   3.810   1.076   7.952 -1.0424  0.6546  0.0116
 2849TIP3   OH230181   1.405   4.370   0.708 -0.3386 -0.3049  0.1337
 2849TIP3    H130182   1.386   4.446   0.762 -1.2339 -0.7443  0.4605
 2849TIP3    H230183   1.372   4.296   0.759  2.2716 -1.1626  0.7327
 2850TIP3   OH230184   5.570   1.629   7.274  0.0397 -0.2644 -0.1851
 2850TIP3    H130185   5.514   1.591   7.206 -0.2925 -0.5058  0.2262
 2850TIP3    H230186   5.510   1.651   7.345  0.3388  0.3097 -0.1038
 2851TIP3   OH230187   3.121   4.908   0.152  0.5939  0.5902  0.4742
 2851TIP3    H130188   3.185   4.850   0.112 -0.3769 -0.3783  0.2536
 2851TIP3    H230189   3.114   4.876   0.242  1.7695  1.8882  1.0556
 2852TIP3   OH230190   1.566   5.305   8.196  0.3000  0.6962  0.4275
 2852TIP3    H130191   1.615   5.229   8.228 -1.6605 -0.6927  0.3415
 2852TIP3    H230192   1.583   5.307   8.102 -1.6937 -1.3885 -0.0861
 2853TIP3   OH230193   3.669   6.492   0.741 -0.1228 -0.1615  0.4606
 2853TIP3    H130194   3.717   6.568   0.774 -0.2737  1.0545 -1.9077
 2853TIP3    H230195   3.730   6.450   0.680 -0.8334 -0.6432  0.0683
 2854TIP3   OH230196   3.662   2.034   8.578  1.0372  0.2079 -0.3025
 2854TIP3    H130197   3.689   2.002   8.492 -0.5887  0.6219 -1.0158
 2854TIP3    H230198   3.646   2.127   8.565  0.0611  0.1338  0.2453
 2855TIP3   OH230199   2.288   1.672   0.991  0.0832 -0.1587 -0.2930
 2855TIP3    H130200   2.285   1.588   1.037  0.2545 -0.1005 -0.1769
 2855TIP3    H230201   2.303   1.648   0.899 -2.4732 -0.4202 -0.7382
 2856TIP3   OH230202   2.195   3.249   1.997 -0.6473 -0.6658 -0.1686
 2856TIP3    H130203   2.132   3.283   2.059 -0.6980  2.1382 -1.6141
 2856TIP3    H230204   2.267   3.312   1.998  1.2469 -2.6933 -0.0501
 2857TIP3   OH230205   5.514   4.012   7.821 -0.2765 -0.1230  0.0877
 2857TIP3    H130206   5.484   4.076   7.886  0.4299  1.0322 -0.6889
 2857TIP3    H230207   5.527   4.062   7.741  1.7837 -0.9068 -0.1502
 2858TIP3   OH230208   3.857   2.259   1.998 -0.0227  0.8235  0.3855
 2858TIP3    H130209   3.771   2.233   1.965 -1.1654  3.0519  1.3463
 2858TIP3    H230210   3.864   2.216   2.083  1.1750 -1.7112 -0.9024
 2859TIP3   OH230211   2.689   3.468   2.015 -0.3573  0.5523 -0.0355
 2859TIP3    H130212   2.663   3.486   2.105 -1.7617 -2.2308  0.2251
 2859TIP3    H230213   2.618   3.414   1.980  1.3298 -0.5522 -1.9641
 2860TIP3   OH230214   6.406   0.063   1.203  0.4289 -0.6997  0.0053
 2860TIP3    H130215   6.419   0.130   1.136  1.4956 -1.5451 -0.6720
 2860TIP3    H230216   6.430  -0.019   1.160 -0.5081 -1.4860  0.9247
 2861TIP3   OH230217   2.461   6.478   7.001  0.3880 -0.0606  0.4025
 2861TIP3    H130218   2.479   6.424   6.924  2.7135  1.8543 -0.5338
 2861TIP3    H230219   2.521   6.443   7.068 -0.3436 -0.5835  0.7943
 2862TIP3   OH230220   1.100   5.400   1.764  0.2719  0.5779 -0.5395
 2862TIP3    H130221   1.059   5.456   1.698  0.5386  1.9152  0.3861
 2862TIP3    H230222   1.101   5.453   1.843  2.0702 -0.1065 -0.0550
 2863TIP3   OH230223   0.742   3.503   2.000  0.4063 -0.3562 -0.1113
 2863TIP3    H130224   0.772   3.593   2.008 -0.6501  0.0426 -0.4596
 2863TIP3    H230225   0.647   3.509   2.006  0.2890 -1.3848 -0.7141
 2864TIP3   OH230226   6.477   1.165   0.355 -0.0442 -0.7177  0.3161
 2864TIP3    H130227   6.544   1.129   0.297  1.4072 -1.3829  2.3315
 2864TIP3    H230228   6.523   1.230   0.408 -0.7344 -1.7809  2.3296
 2865TIP3   OH230229   6.422   1.554   1.197 -1.1502 -0.0155 -0.6245
 2865TIP3    H130230   6.392   1.645   1.208  0.1645  0.2902  0.8284
 2865TIP3    H230231   6.511   1.554   1.233 -1.1323 -1.8988 -0.5751
 2866TIP3   OH230232   0.270   4.003   0.130 -0.0760 -0.4149 -0.3116
 2866TIP3    H130233   0.273   4.097   0.148 -1.2374 -0.0478 -1.7739
 2866TIP3    H230234   0.177   3.981   0.137  0.2896 -1.7206  1.0694
 2867TIP3   OH230235   0.943   2.506   0.706  0.4670  0.3446 -0.1837
 2867TIP3    H130236   0.900   2.421   0.711 -0.2094  0.6008 -1.3936
 2867TIP3    H230237   0.973   2.513   0.615 -2.2168  2.6694 -1.0542
 2868TIP3   OH230238   5.310   0.634   8.424 -0.0203 -0.5584  0.2109
 2868TIP3    H130239   5.340   0.560   8.476 -1.3629 -1.1945  0.1274
 2868TIP3    H230240   5.385   0.693   8.420  0.9092 -1.6751  0.7123
 2869TIP3   OH230241   2.893   3.648   2.233 -0.4043  0.2799 -0.0349
 2869TIP3    H130242   2.835   3.590   2.282  0.7890  0.7078  1.9746
 2869TIP3    H230243   2.920   3.596   2.157 -1.0633 -0.9897  0.5695
 2870TIP3   OH230244   1.059   0.188   0.716  0.2243 -0.0966  0.2791
 2870TIP3    H130245   0.983   0.165   0.771 -0.9418 -1.4048 -1.7553
 2870TIP3    H230246   1.082   0.277   0.743 -2.6189  0.7015  0.4013
 2871TIP3   OH230247   3.137   6.563   1.951  0.3899  0.3977 -0.0245
 2871TIP3    H130248   3.096   6.568   1.864 -0.2325  1.7180  0.3264
 2871TIP3    H230249   3.063   6.565   2.012  0.9016  2.9405  0.6286
 2872TIP3   OH230250   4.409   2.652   7.260 -0.6384 -0.1978  0.5369
 2872TIP3    H130251   4.336   2.599   7.229 -1.1928  0.9330 -0.1781
 2872TIP3    H230252   4.379   2.686   7.345 -1.1536  0.5930  0.0627
 2873TIP3   OH230253   3.149   3.674   1.843  0.6310 -0.0293 -0.2054
 2873TIP3    H130254   3.073   3.630   1.883  0.6246 -0.7966 -1.0352
 2873TIP3    H230255   3.221   3.657   1.904  0.2340  0.3513  0.3817
 2874TIP3   OH230256   6.195   4.792   1.162 -0.3024 -0.0209 -0.7435
 2874TIP3    H130257   6.259   4.744   1.109 -0.3070 -0.4404 -0.3724
 2874TIP3    H230258   6.110   4.774   1.120 -0.3661 -0.7536 -0.3111
 2875TIP3   OH230259   4.879   2.439   2.911  0.0338 -0.3036 -0.2952
 2875TIP3    H130260   4.877   2.348   2.939  0.1108 -0.2171 -0.0107
 2875TIP3    H230261   4.969   2.454   2.882  0.0126 -0.3259 -0.3748
 2876TIP3   OH230262   3.641   0.844   1.510 -0.2946 -0.2597  0.1467
 2876TIP3    H130263   3.614   0.891   1.589  1.0923 -0.5506  0.8102
 2876TIP3    H230264   3.736   0.847   1.511 -0.2398 -0.3590 -1.4757
 2877TIP3   OH230265   4.459   3.959   1.347  0.0614  0.3991  0.0116
 2877TIP3    H130266   4.377   3.928   1.386  0.2796  0.9945  0.9783
 2877TIP3    H230267   4.495   3.882   1.303 -0.6026 -0.0826  0.2959
 2878TIP3   OH230268   0.879   5.026   7.572 -0.1460  0.2560 -0.2201
 2878TIP3    H130269   0.920   5.050   7.489  0.8500  0.9555  0.4396
 2878TIP3    H230270   0.786   5.018   7.552 -0.0416  1.2703 -1.2334
 2879TIP3   OH230271   2.745   1.497   2.740  0.0105 -0.0538  0.4984
 2879TIP3    H130272   2.783   1.573   2.697 -0.3428  0.1743  0.5905
 2879TIP3    H230273   2.817   1.461   2.793  0.8227 -1.0532 -1.1811
 2880TIP3   OH230274   5.806   6.008   3.696 -0.5381 -0.5013  0.4663
 2880TIP3    H130275   5.795   6.103   3.697 -2.2681 -0.6632  1.9772
 2880TIP3    H230276   5.776   5.981   3.609 -0.6231  0.2624  0.2514
 2881TIP3   OH230277   2.086   1.998   0.794  0.5753 -0.3226 -0.1281
 2881TIP3    H130278   2.127   2.084   0.784 -0.6318  0.5269  1.5848
 2881TIP3    H230279   2.011   2.000   0.736  0.5993 -0.2432 -0.1565
 2882TIP3   OH230280   0.374   5.998   1.746 -0.0417 -0.3150  0.1877
 2882TIP3    H130281   0.442   5.969   1.807  0.5295  0.2114 -0.1760
 2882TIP3    H230282   0.300   6.022   1.802 -0.1388 -1.4291  0.5533
 2883TIP3   OH230283   4.153   4.576   1.350  0.3599 -0.2642 -0.1066
 2883TIP3    H130284   4.200   4.592   1.268  1.4925  1.2434  0.7936
 2883TIP3    H230285   4.078   4.522   1.325  0.6143  0.2725 -2.1468
 2884TIP3   OH230286   4.022   2.585   3.379 -0.0954  0.4846 -1.0590
 2884TIP3    H130287   4.000   2.514   3.319  1.1247 -0.8118 -0.0359
 2884TIP3    H230288   4.114   2.571   3.402 -0.2834  1.4213  0.4578
 2885TIP3   OH230289   0.165   4.270   1.638  0.5632 -0.0083  0.1383
 2885TIP3    H130290   0.180   4.348   1.691  2.0453 -2.0629  2.9549
 2885TIP3    H230291   0.101   4.298   1.572  0.9889  3.5215  1.0350
 2886TIP3   OH230292   0.118   0.182   3.314 -0.8826 -0.6166 -0.1484
 2886TIP3    H130293   0.152   0.146   3.232 -0.2168 -1.8570  0.6436
 2886TIP3    H230294   0.088   0.105   3.364  0.6623 -0.1330  1.6335
 2887TIP3   OH230295   3.835   0.618   1.397  0.0002  0.1910 -0.7167
 2887TIP3    H130296   3.912   0.581   1.440  0.3787  0.0853 -1.4597
 2887TIP3    H230297   3.831   0.708   1.428  0.9574  0.4691 -1.3375
 2888TIP3   OH230298   0.765   4.604   0.131 -0.7523  0.0351 -0.6356
 2888TIP3    H130299   0.721   4.532   0.086 -3.2975  0.6132  0.7269
 2888TIP3    H230300   0.810   4.563   0.204 -1.9940 -0.2443 -0.0017
 2889TIP3   OH230301   1.801   4.378   1.998 -0.3166  0.3391  0.3621
 2889TIP3    H130302   1.870   4.314   1.984  0.5187  1.1128  0.8481
 2889TIP3    H230303   1.735   4.331   2.050 -0.0899 -0.3573  0.0347
 2890TIP3   OH230304   3.299   1.857   0.652 -0.1506  0.1666  0.1309
 2890TIP3    H130305   3.301   1.782   0.711 -0.3728  0.8160  0.9818
 2890TIP3    H230306   3.377   1.907   0.673 -0.3315  0.5065  0.0057
 2891TIP3   OH230307   6.088   2.647   0.030 -0.0731  0.0711 -0.1415
 2891TIP3    H130308   6.060   2.710  -0.038 -0.6166  0.9274  0.8416
 2891TIP3    H230309   6.052   2.563   0.000 -0.2103  0.4088 -0.9709
 2892TIP3   OH230310   3.596   2.565   2.695  0.1858 -0.5630  0.2802
 2892TIP3    H130311   3.652   2.576   2.772  0.2940 -1.1163  0.2865
 2892TIP3    H230312   3.578   2.471   2.691  0.4090 -0.5851 -0.5239
 2893TIP3   OH230313   5.881   4.481   7.713 -0.1209  0.6002  0.4542
 2893TIP3    H130314   5.851   4.411   7.772  0.6547  0.5837  0.8413
 2893TIP3    H230315   5.800   4.524   7.685 -0.5803 -0.1609  0.5719
 2894TIP3   OH230316   5.435   1.740   8.482 -0.1871  0.0574  0.0707
 2894TIP3    H130317   5.437   1.789   8.564  0.1506  2.9433 -1.4973
 2894TIP3    H230318   5.345   1.749   8.451 -0.3287 -1.0609  0.1388
 2895TIP3   OH230319   5.604   6.712   2.905 -0.0891  0.3220  0.0919
 2895TIP3    H130320   5.646   6.719   2.991 -0.4932 -0.5241  0.3634
 2895TIP3    H230321   5.516   6.748   2.919  0.0028  0.6237 -0.0913
 2896TIP3   OH230322   4.000   6.589   0.659 -0.3033 -0.2760  0.0890
 2896TIP3    H130323   3.997   6.670   0.709 -0.4508 -0.6498  0.6878
 2896TIP3    H230324   4.052   6.529   0.712  0.4658 -0.3427 -0.7099
 2897TIP3   OH230325   0.778   0.856   7.189  0.0026 -0.1363 -0.4849
 2897TIP3    H130326   0.726   0.778   7.169  0.7551 -0.4367 -1.3538
 2897TIP3    H230327   0.761   0.873   7.281 -2.1896  0.2001 -0.9024
 2898TIP3   OH230328   6.781   0.307   1.523  0.6358 -0.0112  1.1161
 2898TIP3    H130329   6.800   0.344   1.437  1.7405  1.7788  2.0754
 2898TIP3    H230330   6.781   0.212   1.508  2.3452  0.1768 -0.5754
 2899TIP3   OH230331   1.192   1.667   1.207  0.1951  0.3478  0.2562
 2899TIP3    H130332   1.153   1.579   1.202  0.2960  0.3427 -0.5926
 2899TIP3    H230333   1.121   1.726   1.183  0.8233  0.2976 -1.9587
 2900TIP3   OH230334   6.616   0.456   8.642 -0.3140 -0.3186  0.4656
 2900TIP3    H130335   6.544   0.415   8.594 -1.2835 -0.9376  2.3819
 2900TIP3    H230336   6.620   0.410   8.725  3.1807 -1.2223 -0.0352
 2901TIP3   OH230337   1.269   5.975   1.398 -0.5649 -0.7747 -0.2372
 2901TIP3    H130338   1.316   5.966   1.481  1.3049 -3.1448 -1.4120
 2901TIP3    H230339   1.179   5.995   1.423 -0.1106 -1.6137  2.3728
 2902TIP3   OH230340   4.853   2.525   0.078  0.2826 -0.1609  0.2507
 2902TIP3    H130341   4.842   2.430   0.083  0.5438 -0.2125 -0.1491
 2902TIP3    H230342   4.806   2.551  -0.001  0.0435  0.0692  0.4670
 2903TIP3   OH230343   6.587   2.448   8.152  0.3249  0.4271  0.0593
 2903TIP3    H130344   6.558   2.499   8.076  1.4297  1.6956  0.4488
 2903TIP3    H230345   6.631   2.372   8.114  0.0309  0.5627 -0.5615
 2904TIP3   OH230346   1.590   4.650   0.760  0.0538  0.5291 -0.1710
 2904TIP3    H130347   1.568   4.631   0.669 -1.1986  0.6968  0.0763
 2904TIP3    H230348   1.581   4.566   0.805 -0.6712  0.7096  0.0345
 2905TIP3   OH230349   1.463   3.400   8.185  0.2185  0.4389  0.2496
 2905TIP3    H130350   1.548   3.367   8.154 -0.3439 -0.0001 -0.8622
 2905TIP3    H230351   1.401   3.331   8.162 -0.6250  1.2787 -0.0201
 2906TIP3   OH230352   0.082   5.564   0.913  0.0792 -0.1712 -0.1625
 2906TIP3    H130353   0.025   5.514   0.854  0.0123 -0.5713  0.2381
 2906TIP3    H230354   0.090   5.510   0.991  0.8898 -0.0570 -0.1477
 2907TIP3   OH230355   5.376   6.541   2.209  0.2490  0.2020  0.1627
 2907TIP3    H130356   5.420   6.486   2.274 -1.3173 -1.3499 -0.0362
 2907TIP3    H230357   5.322   6.481   2.158 -0.1043  1.6731 -1.2981
 2908TIP3   OH230358   2.939   2.465   0.843 -0.0718  0.0218  0.0667
 2908TIP3    H130359   2.863   2.413   0.867  0.0016 -0.6212 -1.0123
 2908TIP3    H230360   2.926   2.485   0.750  0.2138  1.4125  0.3089
 2909TIP3   OH230361   2.894   0.700   8.709  0.4722  0.3932 -0.7797
 2909TIP3    H130362   2.812   0.712   8.660 -1.0552 -1.1069  1.2183
 2909TIP3    H230363   2.902   0.781   8.761  0.4912  0.7148 -1.2738
 2910TIP3   OH230364   0.296   4.078   8.464 -0.6873  0.2739 -0.4028
 2910TIP3    H130365   0.319   4.014   8.397 -2.1330 -0.3966 -0.2853
 2910TIP3    H230366   0.264   4.154   8.415  2.0066  1.4001 -0.5911
 2911TIP3   OH230367   1.114   4.201   2.146 -0.0564  0.8074 -0.5317
 2911TIP3    H130368   1.140   4.293   2.155  0.0314  0.8296 -1.0033
 2911TIP3    H230369   1.021   4.200   2.170  0.1646  0.8579  0.3858
 2912TIP3   OH230370   3.164   4.799   8.486  0.3208 -0.3186  0.3085
 2912TIP3    H130371   3.192   4.781   8.576 -1.5621 -0.7147  0.8614
 2912TIP3    H230372   3.106   4.875   8.494 -2.0977 -1.9989 -0.0962
 2913TIP3   OH230373   6.792   3.911   0.165  0.2824  0.2034 -0.2119
 2913TIP3    H130374   6.756   3.913   0.076  0.1443 -1.8321 -0.2416
 2913TIP3    H230375   6.724   3.950   0.219 -0.0291  0.5945 -0.8672
 2914TIP3   OH230376   3.591   4.468   1.712  0.4983 -0.6908  0.0769
 2914TIP3    H130377   3.504   4.496   1.741  1.0265  0.0503  1.0077
 2914TIP3    H230378   3.632   4.547   1.678  1.9727 -0.2475  2.6516
 2915TIP3   OH230379   1.239   6.193   2.936  0.1444  0.2995  0.2802
 2915TIP3    H130380   1.217   6.276   2.893 -1.1723 -0.1383  0.0478
 2915TIP3    H230381   1.325   6.208   2.975  1.2235  0.8680 -2.1180
 2916TIP3   OH230382   0.140   3.801   0.328 -0.1872 -0.0763  0.7346
 2916TIP3    H130383   0.059   3.833   0.287  0.9561  0.9646 -0.8168
 2916TIP3    H230384   0.174   3.877   0.376  0.5339 -0.0949  0.2716
 2917TIP3   OH230385   6.565   2.254   0.806  0.1677  0.1014  1.0442
 2917TIP3    H130386   6.653   2.287   0.787  0.1192  0.0843  0.7807
 2917TIP3    H230387   6.507   2.324   0.775 -0.0143 -0.9860 -1.2718
 2918TIP3   OH230388   3.212   3.852   0.726  0.3356 -0.2505  0.5928
 2918TIP3    H130389   3.201   3.774   0.781 -1.2012 -1.0091 -0.6738
 2918TIP3    H230390   3.136   3.907   0.747  1.6972  1.2405  1.8855
 2919TIP3   OH230391   4.912   0.841   1.915 -0.0427  0.1185 -0.2170
 2919TIP3    H130392   4.904   0.825   2.009 -1.2518  1.1890 -0.1065
 2919TIP3    H230393   4.890   0.758   1.874 -1.7935  0.2222  0.4167
 2920TIP3   OH230394   4.897   5.119   1.113  0.3655  0.2984  0.3551
 2920TIP3    H130395   4.885   5.041   1.058 -0.9002  0.7784 -0.0869
 2920TIP3    H230396   4.844   5.186   1.070  1.4993  1.4362  0.6880
 2921TIP3   OH230397   0.318   5.661   1.509  0.1878 -0.1930  0.2324
 2921TIP3    H130398   0.238   5.709   1.491 -1.0426 -1.9733  0.6283
 2921TIP3    H230399   0.305   5.626   1.597  0.9715 -1.3229 -0.0806
 2922TIP3   OH230400   6.349   3.441   0.164  0.0079  0.1382 -0.4440
 2922TIP3    H130401   6.396   3.400   0.237 -0.1939 -1.1581 -1.0137
 2922TIP3    H230402   6.265   3.394   0.160 -0.0528  0.3071 -1.3979
 2923TIP3   OH230403   0.859   5.266   0.239  0.2601 -0.5335  0.2803
 2923TIP3    H130404   0.905   5.297   0.161  1.7602  0.6785  1.5614
 2923TIP3    H230405   0.816   5.345   0.274 -1.8878 -1.4062 -0.2263
 2924TIP3   OH230406   5.531   0.591   2.012  0.5277 -0.4673 -0.2613
 2924TIP3    H130407   5.491   0.658   1.957 -0.5214 -2.5607 -2.1750
 2924TIP3    H230408   5.460   0.564   2.071  1.4436  1.2486  1.7767
 2925TIP3   OH230409   1.645   2.084   2.192 -0.0524  0.8319  0.9238
 2925TIP3    H130410   1.714   2.033   2.235  1.0283  0.5379 -1.0357
 2925TIP3    H230411   1.688   2.165   2.167 -0.4855  0.7539 -0.0900
 2926TIP3   OH230412   2.194   5.273   0.966 -0.1611  0.6794 -0.0219
 2926TIP3    H130413   2.206   5.232   1.051  1.2273 -0.2227 -0.6122
 2926TIP3    H230414   2.276   5.319   0.949 -0.6300  1.3222 -0.6264
 2927TIP3   OH230415   2.306   6.649   7.182  0.1101  0.7492  0.0384
 2927TIP3    H130416   2.247   6.580   7.211  1.6092 -0.1996  0.9364
 2927TIP3    H230417   2.344   6.616   7.101  0.4911  0.7022  0.2328
 2928TIP3   OH230418   1.171   3.506   8.569  0.8774 -0.0834  0.0804
 2928TIP3    H130419   1.099   3.466   8.521  1.2915  1.0363 -1.5584
 2928TIP3    H230420   1.245   3.447   8.556  0.7719 -0.2030  0.0237
 2929TIP3   OH230421   4.874   5.992   8.042 -0.0780 -0.3415  0.5749
 2929TIP3    H130422   4.831   5.913   8.010  0.0666 -0.1733 -0.0513
 2929TIP3    H230423   4.900   6.039   7.963 -0.7811  0.6810  0.9375
 2930TIP3   OH230424   6.267   3.720   3.583  0.3895  0.3902 -0.5504
 2930TIP3    H130425   6.217   3.788   3.627 -0.4129 -0.4427 -0.1388
 2930TIP3    H230426   6.275   3.751   3.492 -0.9730  0.4995 -0.6529
 2931TIP3   OH230427   0.506   5.287   1.743 -0.2838 -0.0146  0.1636
 2931TIP3    H130428   0.594   5.265   1.775  1.6189  1.6374 -3.2900
 2931TIP3    H230429   0.491   5.376   1.774  0.0689  0.3319 -0.6231
 2932TIP3   OH230430   6.224   4.851   8.325 -0.2419  0.3984 -0.3353
 2932TIP3    H130431   6.311   4.879   8.295 -0.6856  0.3736 -1.7225
 2932TIP3    H230432   6.164   4.893   8.263 -1.0799 -1.3988 -0.7801
 2933TIP3   OH230433   0.162   6.678   0.984  0.1689  0.5408  0.2287
 2933TIP3    H130434   0.169   6.716   0.896 -0.4207  1.2859  0.4909
 2933TIP3    H230435   0.076   6.636   0.985  0.6191 -0.4056  0.1021
 2934TIP3   OH230436   4.437   2.633   8.601  0.3439 -0.5174  0.0187
 2934TIP3    H130437   4.483   2.714   8.626 -1.6399  0.4293  0.8448
 2934TIP3    H230438   4.364   2.664   8.548  0.6307 -1.9792 -1.2807
 2935TIP3   OH230439   6.313   0.192   2.738  1.3153  0.1435  0.0793
 2935TIP3    H130440   6.309   0.097   2.746 -0.6089  0.2345  0.6162
 2935TIP3    H230441   6.224   0.219   2.718  1.0502  2.0638  3.0859
 2936TIP3   OH230442   4.424   0.773   7.642 -0.1794 -0.2799  0.6676
 2936TIP3    H130443   4.391   0.689   7.673 -0.8080  1.3094  4.8408
 2936TIP3    H230444   4.348   0.815   7.601 -0.7771 -0.4727  1.5568
 2937TIP3   OH230445   3.097   3.593   0.853  0.2554 -0.1880  0.2436
 2937TIP3    H130446   3.116   3.499   0.852  0.5877 -0.1243 -0.1823
 2937TIP3    H230447   3.073   3.613   0.762 -0.9244 -0.0719  0.5590
 2938TIP3   OH230448   5.609   3.306   1.979  0.2563 -0.7011 -0.5506
 2938TIP3    H130449   5.651   3.347   1.903  0.6669 -1.5855 -0.8164
 2938TIP3    H230450   5.680   3.288   2.040 -0.0573 -0.1073  0.0042
 2939TIP3   OH230451   3.010   4.593   7.804  0.4013  0.3572  0.1634
 2939TIP3    H130452   2.995   4.581   7.710  0.3007  0.1297  0.2076
 2939TIP3    H230453   2.923   4.605   7.841  0.1991 -1.8133  0.5358
 2940TIP3   OH230454   3.122   5.492   7.719  0.1784  0.4119  0.4854
 2940TIP3    H130455   3.206   5.496   7.672 -0.9344 -0.6482 -1.7743
 2940TIP3    H230456   3.145   5.463   7.807  2.0042 -2.6038 -0.8188
 2941TIP3   OH230457   5.063   2.179   7.928 -0.1177  0.0386 -0.3012
 2941TIP3    H130458   5.105   2.093   7.936  0.1059  0.2293  0.8010
 2941TIP3    H230459   5.020   2.192   8.013 -0.0480  1.0655 -0.4124
 2942TIP3   OH230460   3.954   2.890   8.629  0.4056 -0.3925 -0.1988
 2942TIP3    H130461   3.905   2.914   8.708  1.3705  0.8523  0.0470
 2942TIP3    H230462   3.892   2.907   8.557 -0.5497 -1.7293  0.2534
 2943TIP3   OH230463   4.985   6.116   8.554  0.2334  0.1622 -0.0903
 2943TIP3    H130464   4.958   6.053   8.486 -0.8431 -0.1582  0.6060
 2943TIP3    H230465   4.979   6.067   8.636  0.9302  0.7220  0.3043
 2944TIP3   OH230466   1.047   2.459   3.069  0.4732 -0.5869  0.0633
 2944TIP3    H130467   0.996   2.441   2.990 -1.5318  1.2573  0.8276
 2944TIP3    H230468   0.983   2.492   3.132  2.0689 -1.6392  2.3725
 2945TIP3   OH230469   6.610   2.547   0.223  0.0819  0.2184 -0.2504
 2945TIP3    H130470   6.596   2.548   0.318 -0.2769 -0.8239 -0.2840
 2945TIP3    H230471   6.574   2.463   0.194  0.6077  0.3241 -1.2474
 2946TIP3   OH230472   3.238   0.248   2.378 -0.1197 -0.4608 -0.1171
 2946TIP3    H130473   3.195   0.308   2.439 -0.0549 -0.1033 -0.4170
 2946TIP3    H230474   3.328   0.243   2.408  0.3221  0.9724 -1.0998
 2947TIP3   OH230475   0.844   2.005   0.069 -0.0778  0.7399  0.7788
 2947TIP3    H130476   0.777   2.019   0.136 -0.5309  1.3607  0.2026
 2947TIP3    H230477   0.847   2.087   0.020 -0.1649  0.0995 -0.3366
 2948TIP3   OH230478   0.247   4.062   2.171 -0.1127  0.3388 -0.1985
 2948TIP3    H130479   0.215   4.008   2.243  1.2247  1.3769  1.2620
 2948TIP3    H230480   0.169   4.086   2.122 -1.2471  0.5562  1.6178
 2949TIP3   OH230481   1.886   1.391   2.237  0.3948  0.2647 -0.5747
 2949TIP3    H130482   1.818   1.324   2.225 -0.0879  0.7240 -0.4743
 2949TIP3    H230483   1.838   1.474   2.234  0.9408  0.5923 -0.3888
 2950TIP3   OH230484   2.641   3.811   0.494  0.4925  0.1761  0.2558
 2950TIP3    H130485   2.714   3.834   0.551  0.5422 -1.8450  1.0686
 2950TIP3    H230486   2.677   3.749   0.431 -0.5945 -1.3230  1.0393
 2951TIP3   OH230487   2.418   3.097   7.783 -0.2180 -0.5448 -0.0795
 2951TIP3    H130488   2.506   3.136   7.784  0.6236 -2.3646  0.9242
 2951TIP3    H230489   2.416   3.045   7.703 -0.6594  0.0550 -0.4654
 2952TIP3   OH230490   3.015   1.086   1.530  0.3748  0.1542 -0.3141
 2952TIP3    H130491   3.016   1.180   1.545 -0.4048  0.0848  0.3044
 2952TIP3    H230492   2.922   1.063   1.526  0.4679 -0.8758  1.6869
 2953TIP3   OH230493   2.244   0.829   2.672 -0.6702  0.2556 -0.4137
 2953TIP3    H130494   2.241   0.764   2.602  0.4723 -2.4843  1.9056
 2953TIP3    H230495   2.153   0.853   2.688 -1.4360 -2.8415  0.3844
 2954TIP3   OH230496   1.091   0.810   6.827  0.4116  0.5354  0.3432
 2954TIP3    H130497   1.149   0.743   6.792  0.1577 -0.0326  0.9711
 2954TIP3    H230498   1.137   0.893   6.811 -0.9079  0.6578 -3.8206
 2955TIP3   OH230499   4.386   1.967   3.004  0.6947 -0.1958  0.0231
 2955TIP3    H130500   4.460   1.936   3.056  1.2754  0.7352 -0.2348
 2955TIP3    H230501   4.383   2.061   3.019  1.0241  0.1306 -1.7872
 2956TIP3   OH230502   4.287   6.795   2.039  0.8664  0.2909 -0.0285
 2956TIP3    H130503   4.262   6.833   2.123 -1.4793 -1.2166  0.0399
 2956TIP3    H230504   4.270   6.864   1.975  0.1411  0.5776  0.4694
 2957TIP3   OH230505   5.204   4.795   2.211  0.3491 -0.6410 -0.0626
 2957TIP3    H130506   5.121   4.813   2.255  0.0465 -1.6738 -0.1745
 2957TIP3    H230507   5.249   4.733   2.268  0.8766 -0.3949 -0.1998
 2958TIP3   OH230508   1.265   0.961   7.963 -0.1937  0.0558 -0.1005
 2958TIP3    H130509   1.201   0.999   7.903 -1.4515  0.4325  1.4085
 2958TIP3    H230510   1.296   0.882   7.918 -1.5780 -0.0199 -0.9743
 2959TIP3   OH230511   6.767   2.846   7.867 -0.3042 -0.8740  0.2935
 2959TIP3    H130512   6.760   2.784   7.794 -0.3058 -0.8305  0.2569
 2959TIP3    H230513   6.680   2.845   7.908 -0.0235 -1.6568  0.9096
 2960TIP3   OH230514   4.449   5.187   7.728 -0.3087  0.2670 -0.1066
 2960TIP3    H130515   4.413   5.240   7.800 -1.1768 -0.1788 -0.2008
 2960TIP3    H230516   4.487   5.251   7.668  0.8615  0.6279  0.9647
 2961TIP3   OH230517   0.185   5.326   1.308  0.1832 -0.3735 -0.3798
 2961TIP3    H130518   0.265   5.320   1.255 -0.3394 -0.1693 -1.2239
 2961TIP3    H230519   0.145   5.239   1.301  0.0287 -0.2971 -0.4746
 2962TIP3   OH230520   3.494   5.265   0.900  0.0759 -0.1716  0.2477
 2962TIP3    H130521   3.492   5.223   0.986  2.2302  2.0952  1.5174
 2962TIP3    H230522   3.439   5.208   0.845 -0.8840 -2.0399  2.9111
 2963TIP3   OH230523   4.858   0.702   2.429 -0.8218 -1.1902  0.4352
 2963TIP3    H130524   4.892   0.785   2.461 -1.3032 -0.9880  0.4276
 2963TIP3    H230525   4.896   0.636   2.487 -0.5040 -0.9613  0.4887
 2964TIP3   OH230526   6.553   6.512   0.039  0.0288 -0.2593 -0.2396
 2964TIP3    H130527   6.583   6.590   0.086  0.1741  0.2607 -1.1628
 2964TIP3    H230528   6.463   6.499   0.070 -0.5081  1.1327 -1.0894
 2965TIP3   OH230529   0.331   3.842   2.003 -0.0693  0.4510 -0.4439
 2965TIP3    H130530   0.249   3.809   1.968 -0.6867  2.9112 -1.4760
 2965TIP3    H230531   0.306   3.890   2.082  0.6003 -0.0305  0.0835
 2966TIP3   OH230532   5.001   4.706   1.880 -0.2990  0.5154  0.7364
 2966TIP3    H130533   5.097   4.698   1.882 -0.3732 -0.3890  1.6459
 2966TIP3    H230534   4.985   4.785   1.829  0.8299 -0.6246 -1.5134
 2967TIP3   OH230535   5.189   2.410   1.335 -0.9336  0.2021  0.0620
 2967TIP3    H130536   5.197   2.352   1.259  0.0371 -0.1293  0.4048
 2967TIP3    H230537   5.095   2.411   1.355 -1.1797  0.1254 -1.0001
 2968TIP3   OH230538   1.656   2.677   1.163 -0.0599  0.6724  0.6215
 2968TIP3    H130539   1.562   2.666   1.148 -0.2311  2.8879 -0.1734
 2968TIP3    H230540   1.676   2.613   1.232 -1.6310 -1.5002 -0.8074
 2969TIP3   OH230541   6.366   0.766   8.593 -0.5032  0.2256 -0.0350
 2969TIP3    H130542   6.449   0.802   8.563  0.3049 -0.4484  1.2735
 2969TIP3    H230543   6.345   0.818   8.671 -1.5151  0.6449 -0.5801
 2970TIP3   OH230544   4.386   2.098   7.455  0.4676 -0.2090 -0.2061
 2970TIP3    H130545   4.410   2.030   7.393 -0.0522  0.0934 -0.7433
 2970TIP3    H230546   4.470   2.135   7.483  0.7204 -0.6143 -0.4228
 2971TIP3   OH230547   1.969   5.406   2.466  0.5989  0.2696 -0.3842
 2971TIP3    H130548   1.891   5.351   2.455 -1.3409  2.5191  1.1232
 2971TIP3    H230549   2.010   5.374   2.546  1.0957 -0.7220 -1.0134
 2972TIP3   OH230550   0.221   6.559   1.480 -0.6308 -0.6362 -0.2857
 2972TIP3    H130551   0.200   6.478   1.434  0.0139 -0.1159 -1.5418
 2972TIP3    H230552   0.176   6.628   1.431  0.5304 -0.0022 -0.5065
 2973TIP3   OH230553   2.645   3.828   1.599 -0.3859 -0.1907 -0.6433
 2973TIP3    H130554   2.702   3.776   1.542  0.8820 -0.9925  1.2348
 2973TIP3    H230555   2.698   3.905   1.622 -0.3479 -0.5546  0.5179
 2974TIP3   OH230556   0.244   1.335   8.483 -0.2511  0.4621 -0.0118
 2974TIP3    H130557   0.150   1.322   8.474 -0.0679 -0.4370 -0.7875
 2974TIP3    H230558   0.282   1.294   8.405  0.8210  0.2088  0.6188
 2975TIP3   OH230559   6.518   3.620   2.836 -0.5452  1.0119  0.0073
 2975TIP3    H130560   6.521   3.715   2.848  0.0677  0.9004  0.8290
 2975TIP3    H230561   6.607   3.591   2.857 -0.2791  0.4147 -1.7500
 2976TIP3   OH230562   3.752   4.825   1.221 -0.3493 -0.2728  0.9468
 2976TIP3    H130563   3.778   4.758   1.158 -2.0144 -0.5353  0.4713
 2976TIP3    H230564   3.826   4.885   1.225 -0.3566  0.0353 -1.6704
 2977TIP3   OH230565   2.765   1.298   3.076  0.1952 -0.8080 -0.5166
 2977TIP3    H130566   2.847   1.249   3.084  0.1077 -0.9077 -0.2253
 2977TIP3    H230567   2.703   1.249   3.131  0.0424 -0.5114 -0.4266
 2978TIP3   OH230568   6.342   1.529   1.772 -0.1231 -0.4470 -0.3009
 2978TIP3    H130569   6.347   1.539   1.677  1.5019 -1.3737 -0.3531
 2978TIP3    H230570   6.384   1.608   1.806  0.4988 -0.7306 -0.3963
 2979TIP3   OH230571   3.758   1.005   3.269 -0.0547 -0.6840 -0.2449
 2979TIP3    H130572   3.779   0.925   3.221  0.2855  0.4732 -2.1224
 2979TIP3    H230573   3.825   1.009   3.338  0.4518 -1.5806 -0.6643
 2980TIP3   OH230574   6.292   6.036   3.544 -0.1066 -0.5448 -0.0159
 2980TIP3    H130575   6.219   5.979   3.569  0.3456 -1.4035 -0.6133
 2980TIP3    H230576   6.362   6.016   3.606 -0.1268 -0.2415  0.1091
 2981TIP3   OH230577   0.192   6.288   1.571 -0.8536  0.0682 -0.2425
 2981TIP3    H130578   0.282   6.271   1.543 -0.4740  1.0495  0.3060
 2981TIP3    H230579   0.167   6.210   1.621 -0.1752 -0.0680 -0.1068
 2982TIP3   OH230580   0.091   5.830   0.844  0.0186 -0.1006 -0.8112
 2982TIP3    H130581   0.083   5.736   0.862 -0.8676  0.3552  1.5120
 2982TIP3    H230582   0.128   5.834   0.756 -0.9224 -2.6261 -1.4205
 2983TIP3   OH230583   1.605   3.290   1.381  0.3522 -0.1779  0.2113
 2983TIP3    H130584   1.645   3.364   1.336  0.3372  0.6173  1.4424
 2983TIP3    H230585   1.511   3.302   1.368  0.2359  1.0388  1.8370
 2984TIP3   OH230586   1.418   1.468   8.045 -0.5390 -0.3655 -0.1195
 2984TIP3    H130587   1.480   1.493   7.976  0.2954 -0.1273  0.6975
 2984TIP3    H230588   1.468   1.411   8.103 -1.0506 -0.0823  0.6148
 2985TIP3   OH230589   0.954   3.737   8.098  0.4266 -0.2134 -0.2023
 2985TIP3    H130590   0.918   3.702   8.179  0.0466 -0.5606 -0.5217
 2985TIP3    H230591   1.010   3.668   8.063 -0.5540 -0.6313 -0.9825
 2986TIP3   OH230592   2.712   5.663   2.177 -0.2976 -0.0502 -0.1506
 2986TIP3    H130593   2.650   5.590   2.181 -1.1508  0.6859  0.2937
 2986TIP3    H230594   2.761   5.658   2.259 -0.5039  0.0017 -0.0237
 2987TIP3   OH230595   5.833   5.141   0.670 -0.4013  0.0794 -0.7072
 2987TIP3    H130596   5.859   5.229   0.641  2.6921 -0.3546  0.3819
 2987TIP3    H230597   5.903   5.084   0.640 -0.5437 -1.4303  1.5787
 2988TIP3   OH230598   5.201   6.549   3.074  0.0046  0.3987 -0.0788
 2988TIP3    H130599   5.277   6.604   3.056 -0.3968  1.5848  1.6006
 2988TIP3    H230600   5.236   6.473   3.121  0.4416 -0.3699 -1.5852
 2989TIP3   OH230601   4.385   1.684   1.536  0.8949 -0.2991 -0.2533
 2989TIP3    H130602   4.401   1.758   1.477  1.8353 -0.0350  0.3083
 2989TIP3    H230603   4.370   1.725   1.622  2.4840 -0.7748  0.2875
 2990TIP3   OH230604   4.835   2.183   8.226 -0.0022  0.4284 -0.6173
 2990TIP3    H130605   4.761   2.226   8.269  1.3663  2.4931 -0.1644
 2990TIP3    H230606   4.803   2.159   8.140 -1.2122  1.2566 -0.4163
 2991TIP3   OH230607   1.798   3.825   0.387  0.0121 -0.5990 -0.0445
 2991TIP3    H130608   1.880   3.834   0.338  0.2917  1.5410  0.6959
 2991TIP3    H230609   1.825   3.787   0.471 -0.1517 -2.1407 -0.6445
 2992TIP3   OH230610   3.218   1.658   1.797 -0.4245  0.2252  0.1257
 2992TIP3    H130611   3.157   1.726   1.768 -0.9056 -0.6334 -0.9703
 2992TIP3    H230612   3.181   1.576   1.763  1.7232 -0.2464 -1.3079
 2993TIP3   OH230613   3.736   0.301   0.647  0.1532  0.0274 -0.0517
 2993TIP3    H130614   3.804   0.291   0.714  0.1262  0.5230  0.0591
 2993TIP3    H230615   3.669   0.354   0.690  0.8514  1.7435 -0.9704
 2994TIP3   OH230616   1.387   4.210   1.911  0.9235  0.7090  0.2434
 2994TIP3    H130617   1.413   4.150   1.981  1.0684  0.4067 -0.0697
 2994TIP3    H230618   1.300   4.180   1.884  1.7652 -0.5527 -1.2100
 2995TIP3   OH230619   5.131   0.335   2.294  0.8569 -0.2771 -0.3196
 2995TIP3    H130620   5.140   0.414   2.347 -0.9301 -0.1401 -0.1719
 2995TIP3    H230621   5.201   0.341   2.229  0.1437  1.9536 -0.9616
 2996TIP3   OH230622   3.127   1.327   0.060  0.1061 -0.7927  0.5751
 2996TIP3    H130623   3.169   1.266  -0.000 -0.4131  0.0821 -0.7120
 2996TIP3    H230624   3.166   1.412   0.039  0.2212 -0.5266  1.7779
 2997TIP3   OH230625   3.442   6.005   3.408 -0.5603  0.4733  0.1598
 2997TIP3    H130626   3.429   5.912   3.426  0.1482  0.4473  0.5578
 2997TIP3    H230627   3.478   6.008   3.320  1.4832  0.2067  0.9342
 2998TIP3   OH230628   0.192   2.708   0.990 -0.0413  0.1002 -0.3158
 2998TIP3    H130629   0.221   2.794   1.020  1.9448 -0.7783  0.5081
 2998TIP3    H230630   0.163   2.663   1.070 -0.1727 -0.3063 -0.5894
 2999TIP3   OH230631   3.691   5.853   7.436 -0.1261 -0.1268 -0.0530
 2999TIP3    H130632   3.778   5.814   7.432  0.2587  0.6711  0.3800
 2999TIP3    H230633   3.666   5.866   7.345  0.6674  0.6459 -0.1645
 3000TIP3   OH230634   6.410   0.637   2.982  0.1621 -0.2006  0.2248
 3000TIP3    H130635   6.494   0.593   2.970  0.5029  1.1224 -4.7553
 3000TIP3    H230636   6.347   0.579   2.938 -0.5943  0.9886 -0.3219
 3001TIP3   OH230637   0.124   3.129   2.026 -0.9726 -0.0391  0.1994
 3001TIP3    H130638   0.174   3.048   2.016  0.9866  1.1363 -0.0888
 3001TIP3    H230639   0.058   3.125   1.957 -0.1811 -0.8873 -0.5441
 3002TIP3   OH230640   4.184   2.609   0.611 -0.4586  0.4590  0.2533
 3002TIP3    H130641   4.266   2.655   0.631 -0.7256  1.3083 -0.5518
 3002TIP3    H230642   4.193   2.525   0.656  1.5346 -0.1073 -1.0433
 3003TIP3   OH230643   6.725   2.734   7.383  0.0560 -0.7756 -0.0815
 3003TIP3    H130644   6.654   2.778   7.430 -0.9452  0.6240 -2.7070
 3003TIP3    H230645   6.689   2.649   7.357  0.3415 -1.2189  0.9198
 3004TIP3   OH230646   4.251   5.930   1.014 -0.6940  0.1802 -0.5989
 3004TIP3    H130647   4.280   5.920   0.923  0.7279 -0.5015 -0.1120
 3004TIP3    H230648   4.323   5.894   1.066 -1.9087 -0.3952  0.7682
 3005TIP3   OH230649   2.344   3.415   8.594  0.6878 -0.1459  0.1737
 3005TIP3    H130650   2.391   3.469   8.531  0.9381 -0.8299 -0.2324
 3005TIP3    H230651   2.273   3.374   8.544  1.0537 -0.9057  0.2679
 3006TIP3   OH230652   4.322   1.009   2.420  0.1893 -0.1100  0.1871
 3006TIP3    H130653   4.265   1.050   2.354  1.1092  0.2635 -0.3916
 3006TIP3    H230654   4.267   0.941   2.460 -0.1696 -0.8202 -1.4369
 3007TIP3   OH230655   1.172   1.930   0.436  0.5170 -0.1671 -0.6465
 3007TIP3    H130656   1.258   1.935   0.393  0.3825  3.0100 -0.7867
 3007TIP3    H230657   1.190   1.957   0.526 -0.4260  1.8333 -0.9917
 3008TIP3   OH230658   1.402   5.910   1.662 -0.0121 -0.1219 -0.4278
 3008TIP3    H130659   1.420   5.970   1.734 -1.1103 -0.7307  0.3739
 3008TIP3    H230660   1.331   5.854   1.693 -1.1695  0.1917 -2.3117
 3009TIP3   OH230661   1.125   5.855   1.116  0.4515 -0.4271  0.4482
 3009TIP3    H130662   1.165   5.857   1.029  2.2481 -0.7548  1.2119
 3009TIP3    H230663   1.079   5.938   1.123 -0.4214 -0.7408 -1.1009
 3010TIP3   OH230664   2.646   0.221   8.516  0.0052 -0.0306  0.0224
 3010TIP3    H130665   2.584   0.150   8.535 -0.9710  0.0554 -2.5160
 3010TIP3    H230666   2.620   0.253   8.430  2.6878  1.0288 -0.4722
 3011TIP3   OH230667   6.158   1.611   3.293  0.6897  0.3245 -0.9052
 3011TIP3    H130668   6.200   1.697   3.287 -1.9061  1.7174 -0.7946
 3011TIP3    H230669   6.065   1.631   3.303 -0.0169 -2.5364 -0.9139
 3012TIP3   OH230670   5.135   3.991   8.746 -0.2224 -0.1008  0.1207
 3012TIP3    H130671   5.073   3.980   8.818 -1.9146 -0.8364 -1.3651
 3012TIP3    H230672   5.109   4.072   8.703  1.7178  1.1506  1.1285
 3013TIP3   OH230673   4.777   1.630   0.081 -0.5634  0.2236  0.4228
 3013TIP3    H130674   4.714   1.570   0.042 -0.9911 -1.0505  2.8482
 3013TIP3    H230675   4.850   1.575   0.107  0.6594  1.3589 -0.4562
 3014TIP3   OH230676   1.529   4.690   8.614 -0.0990  0.1134  0.2493
 3014TIP3    H130677   1.542   4.595   8.613 -0.7219  0.0047 -1.8269
 3014TIP3    H230678   1.445   4.702   8.657 -1.4349 -0.5657 -1.9864
 3015TIP3   OH230679   6.305   5.913   1.674  0.2996  1.0102  0.3462
 3015TIP3    H130680   6.326   5.823   1.650 -0.1162  0.7569  0.9238
 3015TIP3    H230681   6.350   5.966   1.608 -0.2312  0.3541 -0.5640
 3016TIP3   OH230682   0.324   0.657   1.248  0.1794  0.5010 -0.1718
 3016TIP3    H130683   0.361   0.648   1.336  0.5146 -1.1216 -0.4438
 3016TIP3    H230684   0.352   0.744   1.219 -1.0302  1.6078  1.7942
 3017TIP3   OH230685   1.586   1.511   7.812 -0.5544 -0.2150  0.0225
 3017TIP3    H130686   1.560   1.586   7.758  1.2605 -1.1298 -2.3126
 3017TIP3    H230687   1.673   1.535   7.845 -1.2610 -0.0628  1.8720
 3018TIP3   OH230688   6.029   4.626   0.297  0.0190 -0.1040  0.5058
 3018TIP3    H130689   6.062   4.625   0.387 -1.9913 -2.4711  1.3306
 3018TIP3    H230690   6.041   4.537   0.266  0.4276  0.6146 -1.5103
 3019TIP3   OH230691   1.366   3.850   1.352  0.7949 -0.2094 -0.4548
 3019TIP3    H130692   1.367   3.774   1.295  0.0189  0.6360 -1.6602
 3019TIP3    H230693   1.447   3.896   1.333 -0.3864  1.1970 -2.5734
 3020TIP3   OH230694   3.052   2.010   2.218 -0.8802 -0.3191 -0.1306
 3020TIP3    H130695   3.098   2.048   2.144 -2.0767  1.6638  0.0505
 3020TIP3    H230696   3.061   1.916   2.207  1.4121 -0.0450 -1.1792
 3021TIP3   OH230697   1.419   3.182   7.849  0.2931  0.2286 -0.3365
 3021TIP3    H130698   1.483   3.116   7.875  0.7006  1.3117  1.6096
 3021TIP3    H230699   1.371   3.142   7.777  1.7963 -1.4109 -0.4903
 3022TIP3   OH230700   2.328   3.080   0.805 -0.1108 -0.1646 -0.2758
 3022TIP3    H130701   2.247   3.050   0.847 -1.6967  0.2238 -2.8139
 3022TIP3    H230702   2.341   3.168   0.840 -0.7416 -0.2721  0.2534
 3023TIP3   OH230703   1.185   0.451   0.640 -0.0909  0.7023 -0.0340
 3023TIP3    H130704   1.247   0.415   0.703 -1.5957  1.3368  1.9207
 3023TIP3    H230705   1.182   0.386   0.569  1.0504 -0.4490  0.9363
 3024TIP3   OH230706   3.175   2.898   0.422  0.3388 -0.4048  0.3928
 3024TIP3    H130707   3.263   2.929   0.446 -0.5580  0.7821  2.3945
 3024TIP3    H230708   3.142   2.858   0.502 -1.6570  0.8833  0.2734
 3025TIP3   OH230709   3.892   0.062   2.057 -0.3172 -0.0422 -0.3715
 3025TIP3    H130710   3.927   0.111   1.983 -1.9910  1.8391 -0.0249
 3025TIP3    H230711   3.887  -0.028   2.026  1.8571  0.1587 -1.4386
 3026TIP3   OH230712   2.168   4.957   7.870 -0.2483 -0.4776 -0.2891
 3026TIP3    H130713   2.238   4.892   7.874 -0.1767 -0.5091 -1.5463
 3026TIP3    H230714   2.213   5.041   7.866 -0.3177 -0.4081  0.4174
 3027TIP3   OH230715   1.967   0.757   7.226 -0.3061  0.3074  0.0982
 3027TIP3    H130716   1.975   0.835   7.172 -1.0799  1.4807  1.6101
 3027TIP3    H230717   1.890   0.712   7.192  0.3822 -0.0488 -1.0431
 3028TIP3   OH230718   5.425   4.237   2.875  0.1968  0.2789  0.0412
 3028TIP3    H130719   5.352   4.175   2.885  0.5444  0.0532  1.3609
 3028TIP3    H230720   5.390   4.320   2.909  0.7533 -0.0002  1.3565
 3029TIP3   OH230721   4.199   4.461   2.624  0.2283 -0.1586  0.0701
 3029TIP3    H130722   4.230   4.478   2.713 -0.8664  0.8243  0.2890
 3029TIP3    H230723   4.217   4.542   2.576  1.1685 -0.8203 -0.7169
 3030TIP3   OH230724   0.141   0.612   2.351  0.3377  0.3224 -0.1894
 3030TIP3    H130725   0.190   0.613   2.433 -0.5134  0.0896  0.3343
 3030TIP3    H230726   0.209   0.606   2.283  1.1747  2.4921  0.3650
 3031TIP3   OH230727   3.860   2.077   8.768 -0.0620 -0.0304 -0.2864
 3031TIP3    H130728   3.817   2.131   8.835 -2.2074 -1.5870 -0.2698
 3031TIP3    H230729   3.809   2.093   8.688 -0.3231 -1.4470 -0.4374
 3032TIP3   OH230730   4.023   0.783   0.565  0.5942 -0.2161  0.2820
 3032TIP3    H130731   4.061   0.713   0.619  1.4821  0.0202 -0.0171
 3032TIP3    H230732   3.929   0.769   0.570  0.6814 -0.4835  1.5201
 3033TIP3   OH230733   6.186   4.561   2.978 -0.0515  0.4079 -0.3704
 3033TIP3    H130734   6.108   4.516   3.012  0.3725  1.3436  1.9921
 3033TIP3    H230735   6.252   4.493   2.969  0.3969  0.3592  2.5916
 3034TIP3   OH230736   4.140   0.474   2.997  0.2549  0.8012 -0.3088
 3034TIP3    H130737   4.083   0.397   2.992  0.6626  0.5181 -0.7030
 3034TIP3    H230738   4.227   0.438   3.011  0.2922  1.2498  0.7344
 3035TIP3   OH230739   0.746   0.463   8.194  0.3597  0.9056 -0.1508
 3035TIP3    H130740   0.732   0.379   8.236 -2.5812  1.2390 -0.2704
 3035TIP3    H230741   0.741   0.444   8.100 -1.5182  1.3054 -0.1738
 3036TIP3   OH230742   1.867   6.562   1.096  0.0589  0.0005 -0.3727
 3036TIP3    H130743   1.864   6.596   1.006 -0.0135 -0.9075 -0.7242
 3036TIP3    H230744   1.931   6.617   1.140  0.4666  0.1405 -1.1236
 3037TIP3   OH230745   4.772   2.647   2.744 -0.0146 -0.1961  0.1047
 3037TIP3    H130746   4.678   2.633   2.758  0.0844  0.3814  1.5996
 3037TIP3    H230747   4.814   2.602   2.818  0.6059  2.8732  1.8018
 3038TIP3   OH230748   0.325   2.920   2.568 -0.3463 -0.2321  0.4550
 3038TIP3    H130749   0.365   2.898   2.484 -1.8338  0.5007 -0.4896
 3038TIP3    H230750   0.262   2.989   2.547 -2.0308 -1.2449  1.8558
 3039TIP3   OH230751   3.090   2.787   0.656  0.2125 -0.2317 -0.1421
 3039TIP3    H130752   3.011   2.819   0.699 -0.4270 -0.1477 -1.3260
 3039TIP3    H230753   3.064   2.705   0.615  1.1329 -0.9358  0.6464
 3040TIP3   OH230754   3.818   0.107   0.360  0.0081 -0.3852 -0.5781
 3040TIP3    H130755   3.728   0.128   0.337 -0.2552 -0.0013  0.7041
 3040TIP3    H230756   3.817   0.096   0.455  1.4372  0.2741 -0.4553
 3041TIP3   OH230757   6.726   6.711   1.811  0.7609  0.2698  0.4922
 3041TIP3    H130758   6.702   6.734   1.901  0.2426  0.7419  0.2344
 3041TIP3    H230759   6.755   6.794   1.772 -0.4482  0.3773 -0.2278
 3042TIP3   OH230760   1.900   4.050   3.079 -0.4359 -0.1624  0.2332
 3042TIP3    H130761   1.820   3.997   3.082  0.0282 -0.8400  1.4247
 3042TIP3    H230762   1.918   4.071   3.171  2.2876 -2.4483  0.3427
 3043TIP3   OH230763   2.992   5.380   1.867 -0.1356 -0.4493  0.2824
 3043TIP3    H130764   3.025   5.418   1.949  0.5175 -1.3895  0.4690
 3043TIP3    H230765   3.020   5.289   1.870  1.5488 -0.0734 -1.8496
 3044TIP3   OH230766   2.460   5.871   0.443 -0.3132  0.0235  0.0521
 3044TIP3    H130767   2.453   5.925   0.522 -1.8369  2.5107 -1.6419
 3044TIP3    H230768   2.517   5.921   0.384  0.4647 -1.5731 -0.6053
 3045TIP3   OH230769   0.457   5.287   0.063 -0.4411 -0.4275  0.3357
 3045TIP3    H130770   0.520   5.219   0.087 -1.0495 -1.3606 -0.6385
 3045TIP3    H230771   0.442   5.336   0.144  1.4526 -0.2341  0.6173
 3046TIP3   OH230772   6.673   5.217   0.592  0.3217 -0.0502 -0.6777
 3046TIP3    H130773   6.602   5.153   0.589 -0.4996  0.6495  1.6956
 3046TIP3    H230774   6.748   5.171   0.556 -0.2915 -2.2820  0.7196
 3047TIP3   OH230775   2.287   4.321   8.316 -0.3937  0.8429 -0.5013
 3047TIP3    H130776   2.262   4.321   8.224 -1.3387 -1.9897 -0.3465
 3047TIP3    H230777   2.322   4.234   8.332 -0.7853  1.0474  1.9385
 3048TIP3   OH230778   6.086   0.142   0.676 -0.0342 -0.3768  0.6706
 3048TIP3    H130779   6.024   0.084   0.719  0.1921 -0.5391  0.7763
 3048TIP3    H230780   6.109   0.207   0.742  0.1926 -0.5347  0.7503
 3049TIP3   OH230781   5.557   0.945   7.707  0.0379 -0.0827 -0.1363
 3049TIP3    H130782   5.500   0.876   7.674 -0.8075  1.0188 -1.0590
 3049TIP3    H230783   5.584   0.993   7.628  0.8828  0.4445  0.4566
 3050TIP3   OH230784   0.267   0.566   1.548  0.4950 -0.1452 -0.4876
 3050TIP3    H130785   0.353   0.558   1.589 -0.5536  1.5383  2.3035
 3050TIP3    H230786   0.251   0.660   1.542 -0.1429 -0.3353 -3.4428
 3051TIP3   OH230787   2.849   4.979   1.815 -0.0804 -0.3673  0.6720
 3051TIP3    H130788   2.812   4.910   1.871 -0.6509 -0.8459 -0.2847
 3051TIP3    H230789   2.805   4.968   1.731  0.7855  0.3357  0.1150
 3052TIP3   OH230790   1.613   3.525   7.663 -0.8098  0.5098 -0.5881
 3052TIP3    H130791   1.557   3.492   7.734  1.7160 -0.5150  1.0632
 3052TIP3    H230792   1.584   3.616   7.651 -2.9358 -0.0216  0.0004
 3053TIP3   OH230793   4.441   1.464   8.482 -0.4471 -0.5043  0.3011
 3053TIP3    H130794   4.393   1.485   8.562  0.8181  2.3046  0.4493
 3053TIP3    H230795   4.525   1.431   8.513  0.0445  0.5883  0.2033
 3054TIP3   OH230796   5.657   5.852   2.572 -0.1630 -0.1694 -0.7299
 3054TIP3    H130797   5.628   5.769   2.534  0.0086 -1.5243  1.8414
 3054TIP3    H230798   5.752   5.846   2.574 -0.0902  0.5943 -1.5321
 3055TIP3   OH230799   5.154   1.233   2.565 -0.0098  0.1665 -1.0181
 3055TIP3    H130800   5.173   1.173   2.637 -1.0970 -0.3311 -1.1233
 3055TIP3    H230801   5.236   1.280   2.551  0.4193 -0.2110  0.0848
 3056TIP3   OH230802   1.292   1.285   2.656  0.5598 -0.5338 -0.4097
 3056TIP3    H130803   1.273   1.372   2.621 -1.0010 -0.1381  1.2558
 3056TIP3    H230804   1.314   1.301   2.748  1.2410 -1.8134 -0.3344
 3057TIP3   OH230805   2.560   1.498   1.426 -0.3864  0.0114  0.4975
 3057TIP3    H130806   2.529   1.570   1.371 -0.1328 -0.6854 -0.5913
 3057TIP3    H230807   2.554   1.531   1.516  2.2138  2.4051 -0.0694
 3058TIP3   OH230808   5.878   1.077   2.119 -0.4502 -0.3266  0.3744
 3058TIP3    H130809   5.967   1.053   2.145  0.3777  3.3722  1.6553
 3058TIP3    H230810   5.888   1.164   2.080 -3.6135  0.7784  1.7080
 3059TIP3   OH230811   4.974   4.309   2.657  0.7691 -0.6824 -0.7429
 3059TIP3    H130812   4.946   4.399   2.675 -0.1704 -1.0941 -0.0496
 3059TIP3    H230813   5.058   4.318   2.612  0.3999  0.5565 -1.2207
 3060TIP3   OH230814   1.874   1.517   8.613 -0.0986 -0.3273  0.4479
 3060TIP3    H130815   1.955   1.569   8.614  0.8383 -1.6837 -0.9235
 3060TIP3    H230816   1.826   1.547   8.690 -0.5955  4.0275 -1.2709
 3061TIP3   OH230817   0.589   2.834   0.416  0.0733  0.5100 -0.2047
 3061TIP3    H130818   0.616   2.818   0.507  0.3768  1.5381 -0.1016
 3061TIP3    H230819   0.605   2.927   0.403 -1.8752  0.8056 -0.6886
 3062TIP3   OH230820   2.181   2.317   1.042  0.2146 -0.6397  0.3017
 3062TIP3    H130821   2.252   2.264   1.079 -0.1131  0.3126  2.4398
 3062TIP3    H230822   2.176   2.393   1.100 -1.1780  0.3461 -1.0520
 3063TIP3   OH230823   1.719   6.552   2.408  0.2396 -0.2481 -0.2474
 3063TIP3    H130824   1.795   6.605   2.383 -0.0118 -0.0071 -0.5034
 3063TIP3    H230825   1.675   6.532   2.326 -0.2808  0.0746 -0.0495
 3064TIP3   OH230826   6.435   4.483   8.391  0.1504 -0.2103 -0.0325
 3064TIP3    H130827   6.367   4.517   8.449  0.9831 -0.6903  1.2658
 3064TIP3    H230828   6.504   4.550   8.393 -0.1552  0.1619 -1.1508
 3065TIP3   OH230829   5.356   5.675   1.977  0.0743  0.2839  0.6143
 3065TIP3    H130830   5.261   5.676   1.967  0.0482 -0.2638  0.7996
 3065TIP3    H230831   5.373   5.613   2.048  0.4208  2.2494  2.3431
 3066TIP3   OH230832   1.205   0.432   1.645 -0.2863  0.1356  0.4079
 3066TIP3    H130833   1.154   0.411   1.567 -1.8413  0.0135  1.4196
 3066TIP3    H230834   1.213   0.528   1.644  2.8148  0.0180 -1.7335
 3067TIP3   OH230835   6.261   4.727   1.414 -0.1057  0.3541 -0.3818
 3067TIP3    H130836   6.335   4.787   1.420 -0.8217  1.1145  1.9366
 3067TIP3    H230837   6.227   4.739   1.326  2.1018  0.4715 -1.2739
 3068TIP3   OH230838   6.136   3.432   2.300  0.1326 -0.5046 -0.5852
 3068TIP3    H130839   6.064   3.453   2.241  1.2923  0.7260 -1.6341
 3068TIP3    H230840   6.193   3.509   2.297  0.8578 -0.9251  1.1983
 3069TIP3   OH230841   0.117   1.357   8.061 -0.6206 -0.3035 -0.1399
 3069TIP3    H130842   0.139   1.395   7.977 -0.5541 -0.2349 -0.0921
 3069TIP3    H230843   0.052   1.417   8.099 -0.5118 -0.2345 -0.0622
 3070TIP3   OH230844   5.524   1.168   3.054  0.4648  0.1546  0.8101
 3070TIP3    H130845   5.491   1.211   3.133  1.3397  0.1035  1.2211
 3070TIP3    H230846   5.521   1.236   2.987 -1.0959 -0.0442  0.6544
 3071TIP3   OH230847   0.326   1.186   1.962  0.4086  0.2952 -0.4459
 3071TIP3    H130848   0.269   1.122   1.919  3.3358 -1.3969 -2.1970
 3071TIP3    H230849   0.337   1.152   2.051  0.6083 -0.7811 -0.8563
 3072TIP3   OH230850   2.597   5.512   2.620 -0.4908 -0.2129  0.7220
 3072TIP3    H130851   2.568   5.422   2.628 -0.5036 -0.2680  0.1329
 3072TIP3    H230852   2.640   5.532   2.703  0.1637 -1.0009  0.5798
 3073TIP3   OH230853   3.061   3.207   0.563 -0.2410  0.3351  0.0381
 3073TIP3    H130854   3.017   3.156   0.495 -0.1464  1.4702 -0.9000
 3073TIP3    H230855   3.133   3.250   0.518  0.0546  0.8051  0.9439
 3074TIP3   OH230856   0.455   5.406   7.829  0.2239 -0.1701  0.9297
 3074TIP3    H130857   0.467   5.331   7.771 -2.0228 -0.7750  1.1486
 3074TIP3    H230858   0.405   5.372   7.903 -1.5910  1.6791  0.6363
 3075TIP3   OH230859   1.460   1.404   8.444  0.1777  0.4911 -0.6058
 3075TIP3    H130860   1.369   1.391   8.421  0.2281 -0.8916 -0.1262
 3075TIP3    H230861   1.459   1.477   8.507 -0.8204 -0.6212  0.7359
 3076TIP3   OH230862   1.961   4.906   2.066 -0.1841  0.1259 -0.6802
 3076TIP3    H130863   2.021   4.887   1.994 -0.3774  1.3902 -1.1991
 3076TIP3    H230864   1.991   4.850   2.137  0.4874 -0.5844 -1.4982
 3077TIP3   OH230865   6.275   2.872   0.621  0.0790 -0.0192  0.2139
 3077TIP3    H130866   6.340   2.891   0.553  0.6695 -0.9859  0.4770
 3077TIP3    H230867   6.326   2.835   0.693 -0.6154  0.4341  0.9552
 3078TIP3   OH230868   1.240   0.592   8.101 -0.4608 -0.0035 -0.2376
 3078TIP3    H130869   1.240   0.597   8.005 -1.0166 -0.3581 -0.2598
 3078TIP3    H230870   1.190   0.513   8.121 -0.0423 -0.1278  0.3390
 3079TIP3   OH230871   1.678   1.494   2.841 -0.2017 -0.3382 -0.1470
 3079TIP3    H130872   1.612   1.556   2.870  0.8727  0.5444  0.4966
 3079TIP3    H230873   1.633   1.438   2.777 -1.3095  0.8180 -0.4123
 3080TIP3   OH230874   4.859   1.556   1.883  0.3043  0.1092 -0.3224
 3080TIP3    H130875   4.861   1.631   1.943  1.5437 -1.7003  2.0569
 3080TIP3    H230876   4.844   1.481   1.940  0.7031 -1.6409 -2.4220
 3081TIP3   OH230877   2.527   6.116   7.921 -0.1324  0.0138  0.4673
 3081TIP3    H130878   2.443   6.138   7.962 -0.6205  1.1617 -1.0571
 3081TIP3    H230879   2.516   6.141   7.829  2.2185  1.1695  0.4268
 3082TIP3   OH230880   6.430   5.406   3.330 -0.0794  0.5117 -0.0202
 3082TIP3    H130881   6.356   5.357   3.294  0.1318  0.1809 -0.0080
 3082TIP3    H230882   6.487   5.422   3.255 -0.6483  1.6733 -0.2393
 3083TIP3   OH230883   4.919   4.560   2.778  0.4586  0.2829 -0.5923
 3083TIP3    H130884   4.958   4.645   2.799  0.3365  0.6305 -1.7100
 3083TIP3    H230885   4.864   4.539   2.853  2.8346 -0.2589  1.0877
 3084TIP3   OH230886   4.489   6.801   3.623  0.0379  0.0200 -0.1328
 3084TIP3    H130887   4.449   6.719   3.593 -2.9853  1.6246 -0.9640
 3084TIP3    H230888   4.431   6.869   3.588  1.6828  2.4693  1.6134
 3085TIP3   OH230889   2.422   0.304   0.848 -0.3827  0.0837  0.0037
 3085TIP3    H130890   2.404   0.375   0.787 -1.0351  0.1505  0.2622
 3085TIP3    H230891   2.336   0.265   0.865  0.1883 -2.2150 -1.8494
 3086TIP3   OH230892   6.513   5.944   0.123  0.0011 -0.6936  0.0622
 3086TIP3    H130893   6.443   5.883   0.145 -0.7102 -0.2409 -0.8826
 3086TIP3    H230894   6.494   5.971   0.033 -0.6513  2.1712  0.9549
 3087TIP3   OH230895   0.987   1.769   1.572 -0.1227  0.0453 -0.6391
 3087TIP3    H130896   1.060   1.830   1.565  0.9520 -0.7358  2.4899
 3087TIP3    H230897   0.917   1.819   1.613 -0.4160  0.0271 -1.1012
 3088TIP3   OH230898   6.580   5.051   7.787  0.4526  0.6603 -0.0941
 3088TIP3    H130899   6.573   4.955   7.795  1.7007  0.4682 -1.0591
 3088TIP3    H230900   6.519   5.074   7.717  0.0746  0.5854  0.2092
 3089TIP3   OH230901   2.536   0.358   2.447 -0.1652 -0.1192 -0.6540
 3089TIP3    H130902   2.578   0.273   2.438  1.1831  0.4302  0.1384
 3089TIP3    H230903   2.474   0.346   2.519  2.2562  0.3182  1.6616
 3090TIP3   OH230904   5.042   6.843   1.470 -0.0133  0.3551  0.2131
 3090TIP3    H130905   5.133   6.870   1.482  0.2806  0.1807 -1.4271
 3090TIP3    H230906   5.000   6.918   1.428 -0.5946  0.3780  0.8208
 3091TIP3   OH230907   1.615   6.482   2.185  0.3780  0.4981  0.1609
 3091TIP3    H130908   1.570   6.407   2.225 -1.6906  1.2753 -0.5340
 3091TIP3    H230909   1.671   6.443   2.118 -0.3844 -0.4697  0.0656
 3092TIP3   OH230910   3.365   0.372   8.635 -0.4235  0.4828 -0.2193
 3092TIP3    H130911   3.355   0.384   8.540  1.4364  0.0161 -0.5231
 3092TIP3    H230912   3.376   0.277   8.645  0.6053  0.6496  0.3145
 3093TIP3   OH230913   1.136   4.963   0.255  0.2449  0.6012 -0.2798
 3093TIP3    H130914   1.221   4.998   0.226  0.0609  2.1942  0.9952
 3093TIP3    H230915   1.155   4.917   0.336  0.2214 -1.0742 -1.1662
 3094TIP3   OH230916   1.145   2.683   1.682 -0.0477 -0.3058 -0.4629
 3094TIP3    H130917   1.207   2.675   1.754 -0.4560  1.0581  0.0619
 3094TIP3    H230918   1.200   2.697   1.605  0.3162  2.1483  0.1714
 3095TIP3   OH230919   6.547   3.692   1.689  0.6478  0.7446  0.0929
 3095TIP3    H130920   6.559   3.720   1.598 -2.4301  0.4682 -0.5099
 3095TIP3    H230921   6.458   3.720   1.711 -0.9057 -3.9953  1.0815
 3096TIP3   OH230922   0.556   4.269   0.015  0.3962  0.0543 -0.6392
 3096TIP3    H130923   0.483   4.282   0.076  0.9202  1.1825 -0.2260
 3096TIP3    H230924   0.578   4.358  -0.015  1.0332 -0.3574 -1.4255
 3097TIP3   OH230925   0.962   5.387   0.984 -0.1171  0.0637  0.0307
 3097TIP3    H130926   1.004   5.306   1.014 -0.8252  0.3065  1.7607
 3097TIP3    H230927   1.002   5.403   0.898 -0.5572 -2.5592 -0.7694
 3098TIP3   OH230928   5.302   3.889   8.555  0.1142 -0.1024 -0.2890
 3098TIP3    H130929   5.232   3.905   8.618  0.1352  0.2715 -0.3601
 3098TIP3    H230930   5.287   3.952   8.485 -0.2993 -0.9492 -0.9924
 3099TIP3   OH230931   5.252   4.431   2.926 -0.6201 -0.3327 -0.0902
 3099TIP3    H130932   5.164   4.434   2.966 -1.0366 -2.3945 -0.7491
 3099TIP3    H230933   5.263   4.518   2.888 -2.5219 -0.1060 -0.2486
 3100TIP3   OH230934   5.172   4.614   2.470 -0.4675  0.2311 -0.3294
 3100TIP3    H130935   5.079   4.595   2.467 -0.0914 -2.5638  1.6137
 3100TIP3    H230936   5.209   4.568   2.395 -0.5576  0.8744 -0.7773
 3101TIP3   OH230937   6.112   5.590   3.172 -0.1217 -0.6205  0.0169
 3101TIP3    H130938   6.088   5.629   3.256 -0.8479 -0.2833 -0.3325
 3101TIP3    H230939   6.033   5.599   3.118  1.0258  1.3765 -1.4951
 3102TIP3   OH230940   3.974   5.053   8.619 -0.0370 -0.0771 -0.3477
 3102TIP3    H130941   3.921   4.979   8.588 -0.6500  0.6947 -1.2078
 3102TIP3    H230942   3.988   5.106   8.540  1.4164  0.1029  0.0182
 3103TIP3   OH230943   5.586   2.137   0.411  0.0080  0.0653  0.6102
 3103TIP3    H130944   5.612   2.205   0.349  0.9920 -0.1524  0.7600
 3103TIP3    H230945   5.640   2.061   0.387 -0.7447 -0.5142  0.7378
 3104TIP3   OH230946   5.745   0.931   1.188  0.5188  0.5544 -0.5109
 3104TIP3    H130947   5.702   0.956   1.107 -0.1856 -1.2722 -0.7453
 3104TIP3    H230948   5.837   0.916   1.164 -0.0293 -1.7710 -1.4488
 3105TIP3   OH230949   2.870   5.207   2.787  0.2261 -0.2943 -0.3572
 3105TIP3    H130950   2.928   5.235   2.858 -0.7971 -1.3927  0.9715
 3105TIP3    H230951   2.905   5.122   2.760  0.6056  0.1128 -1.2010
 3106TIP3   OH230952   4.985   2.409   0.945 -0.1378  0.5121 -0.4062
 3106TIP3    H130953   5.043   2.426   0.870  1.1695 -0.2611  0.3917
 3106TIP3    H230954   5.032   2.345   0.997 -1.4556  0.3417  0.6166
 3107TIP3   OH230955   2.583   4.329   3.054 -0.2170 -0.1097  0.0391
 3107TIP3    H130956   2.581   4.407   2.997  0.8439  0.4303  0.7034
 3107TIP3    H230957   2.542   4.358   3.136  0.8438 -0.0120  0.5511
 3108TIP3   OH230958   6.845   5.866   0.189  0.1965 -0.8049  0.1821
 3108TIP3    H130959   6.762   5.857   0.235  0.3121 -1.0549  0.3452
 3108TIP3    H230960   6.847   5.791   0.129 -0.2582 -0.1199 -0.7241
 3109TIP3   OH230961   1.511   0.843   2.687 -0.0517 -0.0694  0.1019
 3109TIP3    H130962   1.554   0.779   2.744  0.4565  0.6469  0.5527
 3109TIP3    H230963   1.429   0.802   2.662 -0.0400 -0.6270  0.9263
 3110TIP3   OH230964   2.094   1.438   7.834  0.8427  0.5697  0.4774
 3110TIP3    H130965   2.144   1.396   7.903  0.1871  0.3781  0.8436
 3110TIP3    H230966   2.159   1.483   7.781  1.4555 -0.1236  0.6293
 3111TIP3   OH230967   3.870   6.507   0.186 -0.1231 -0.7374  0.0576
 3111TIP3    H130968   3.854   6.421   0.226  0.0356 -0.2042  1.3309
 3111TIP3    H230969   3.873   6.568   0.261  2.4567  0.0010 -0.5686
 3112TIP3   OH230970   3.768   6.472   2.864  0.1297 -0.5748 -0.0149
 3112TIP3    H130971   3.751   6.564   2.847  2.7802  0.0236  0.2756
 3112TIP3    H230972   3.762   6.463   2.959  0.8485 -0.4819  0.0402
 3113TIP3   OH230973   2.361   4.257   7.984  0.1388  0.5055  0.7502
 3113TIP3    H130974   2.309   4.240   7.906  1.0688  2.0879 -0.2569
 3113TIP3    H230975   2.450   4.233   7.960  0.6195  2.0157  0.9181
 3114TIP3   OH230976   6.468   4.840   8.776  0.4980 -0.2158  0.5320
 3114TIP3    H130977   6.449   4.850   8.870  1.0956 -1.6058  0.8226
 3114TIP3    H230978   6.383   4.822   8.736  0.1319  1.0801  0.6841
 3115TIP3   OH230979   4.666   6.566   0.452  0.6954  0.3854  0.2871
 3115TIP3    H130980   4.606   6.628   0.410  1.0313  0.8415  0.4770
 3115TIP3    H230981   4.609   6.499   0.489  0.4205 -0.6580 -1.8599
 3116TIP3   OH230982   5.338   4.119   8.206 -0.5294  0.2511  1.0473
 3116TIP3    H130983   5.374   4.148   8.122 -0.4501 -0.2700  0.8975
 3116TIP3    H230984   5.390   4.043   8.230  0.1569  1.0168  2.0986
 3117TIP3   OH230985   4.159   5.649   8.297  0.7914 -0.2747  0.5992
 3117TIP3    H130986   4.204   5.659   8.381  1.6893 -0.8622  0.2048
 3117TIP3    H230987   4.108   5.569   8.306 -0.5064  0.5712  1.1669
 3118TIP3   OH230988   2.773   2.221   7.611  0.2635  0.1674 -0.0418
 3118TIP3    H130989   2.798   2.187   7.525  1.3871 -2.5845  1.2702
 3118TIP3    H230990   2.682   2.250   7.599  0.4490  0.0569 -2.1705
 3119TIP3   OH230991   0.276   3.964   7.820  0.1499 -0.6701 -0.1659
 3119TIP3    H130992   0.220   4.026   7.772 -1.0530 -1.4546  0.1934
 3119TIP3    H230993   0.215   3.905   7.863  1.2812 -2.3308 -0.7667
 3120TIP3   OH230994   3.080   2.311   1.343 -0.2139 -1.5504 -0.6420
 3120TIP3    H130995   3.067   2.276   1.431  2.1657 -0.6068  0.1692
 3120TIP3    H230996   3.113   2.237   1.292 -0.3783 -1.7867 -0.4064
 3121TIP3   OH230997   0.065   4.849   2.914  0.5599  0.6387 -0.2346
 3121TIP3    H130998   0.124   4.773   2.910 -0.3144 -0.0412 -0.3902
 3121TIP3    H230999  -0.022   4.813   2.897 -0.1898  1.3139  1.8206
 3122TIP3   OH231000   1.227   3.544   7.761  0.3507 -0.3274  0.2151
 3122TIP3    H131001   1.222   3.457   7.722  0.8357 -0.2495 -0.0316
 3122TIP3    H231002   1.143   3.585   7.741 -0.3481 -1.1493  1.3395
 3123TIP3   OH231003   3.636   6.860   8.237  0.3319  0.2292  0.3245
 3123TIP3    H131004   3.550   6.903   8.237 -0.8284 -1.9353 -0.0246
 3123TIP3    H231005   3.632   6.800   8.311  1.2248 -0.4818 -0.1878
 3124TIP3   OH231006   6.346   1.913   0.330  0.4482 -0.4964 -0.2337
 3124TIP3    H131007   6.294   1.838   0.360 -0.5190  0.0478 -0.4988
 3124TIP3    H231008   6.364   1.963   0.410  2.6189 -1.8818  0.2294
 3125TIP3   OH231009   3.815   1.912   0.744 -0.1886 -0.1136 -0.3455
 3125TIP3    H131010   3.849   1.969   0.813 -0.7450 -0.9635  0.6501
 3125TIP3    H231011   3.831   1.823   0.776 -2.2377 -0.5395 -0.3854
 3126TIP3   OH231012   1.154   4.775   8.116 -0.2268  0.1065  0.7161
 3126TIP3    H131013   1.101   4.835   8.063 -0.2012  1.1034  1.7788
 3126TIP3    H231014   1.157   4.694   8.065 -0.9813  0.7295 -0.3553
 3127TIP3   OH231015   3.381   5.936   0.946  0.2650  0.4060  0.4224
 3127TIP3    H131016   3.291   5.966   0.933 -0.6193 -1.8885  0.7783
 3127TIP3    H231017   3.408   5.901   0.860  1.4040  2.4051 -0.0877
 3128TIP3   OH231018   2.899   5.933   8.522 -0.5711  0.3732  0.1944
 3128TIP3    H131019   2.842   5.910   8.449 -0.4481 -1.8771  0.7321
 3128TIP3    H231020   2.851   5.903   8.600  0.8732 -0.6469  0.7286
 3129TIP3   OH231021   3.678   2.969   0.485 -0.3872  0.0707 -0.4046
 3129TIP3    H131022   3.762   3.010   0.503  0.6278 -2.8778  2.6007
 3129TIP3    H231023   3.699   2.897   0.425 -0.7497 -0.6600  0.3307
 3130TIP3   OH231024   6.021   2.086   3.376  0.0583 -0.7378  0.7204
 3130TIP3    H131025   6.046   2.176   3.357  0.3660 -1.2188 -1.4267
 3130TIP3    H231026   5.928   2.091   3.399  0.0652  0.1170  0.5903
 3131TIP3   OH231027   3.658   4.635   1.007 -0.1488 -0.9169  0.0795
 3131TIP3    H131028   3.721   4.616   0.938 -0.5754 -1.4317 -0.1702
 3131TIP3    H231029   3.593   4.691   0.965  0.6833  0.5073  0.6079
 3132TIP3   OH231030   4.693   1.145   1.737 -0.2308  0.0370  0.2975
 3132TIP3    H131031   4.622   1.187   1.688 -0.8222 -1.2789 -0.0231
 3132TIP3    H231032   4.755   1.116   1.670  1.0050  1.7677  0.6095
 3133TIP3   OH231033   1.913   3.594   1.951  0.1980  0.0547  0.3688
 3133TIP3    H131034   1.888   3.634   2.034 -0.5666  0.3614  0.0039
 3133TIP3    H231035   1.829   3.569   1.911  0.5025  0.5689 -0.6253
 3134TIP3   OH231036   6.842   2.513   8.266 -0.1724  0.3334 -0.0047
 3134TIP3    H131037   6.876   2.425   8.248 -0.3037 -0.1631  1.8997
 3134TIP3    H231038   6.754   2.512   8.229 -0.2564 -0.4332  0.1846
 3135TIP3   OH231039   0.577   6.455   0.454 -0.3780 -0.0115  0.4153
 3135TIP3    H131040   0.522   6.492   0.384 -1.0457  1.0851  1.4845
 3135TIP3    H231041   0.651   6.515   0.459  0.3440 -0.8210 -0.2053
 3136TIP3   OH231042   5.789   3.289   2.752  0.2144 -0.5511  0.3579
 3136TIP3    H131043   5.810   3.329   2.837  1.2379 -0.8285  0.2583
 3136TIP3    H231044   5.743   3.357   2.703  2.6838  0.8693 -0.1468
 3137TIP3   OH231045   1.995   4.386   7.590 -0.3986  0.1822 -0.2659
 3137TIP3    H131046   1.980   4.475   7.558  3.0173  0.3526 -1.8211
 3137TIP3    H231047   1.984   4.330   7.514  1.1883 -0.2288 -0.2237
 3138TIP3   OH231048   5.591   4.666   2.887 -0.0176  0.5912  0.5089
 3138TIP3    H131049   5.637   4.741   2.926 -0.2543 -0.0448  2.0548
 3138TIP3    H231050   5.511   4.657   2.939 -0.7503  0.2138 -0.6531
 3139TIP3   OH231051   5.966   5.996   1.951  0.8103 -0.3427  0.8016
 3139TIP3    H131052   5.997   5.930   2.014 -2.1710 -1.0186  1.7223
 3139TIP3    H231053   5.968   5.951   1.866 -2.6835 -2.4241  1.6124
 3140TIP3   OH231054   0.570   6.088   0.403 -0.2048  0.5325  0.5258
 3140TIP3    H131055   0.663   6.108   0.415 -0.3735  0.5012  2.1061
 3140TIP3    H231056   0.559   6.083   0.308  2.1820 -2.9733  0.2026
 3141TIP3   OH231057   1.315   3.718   8.606  0.6399 -0.5180 -0.2232
 3141TIP3    H131058   1.364   3.738   8.526 -2.1024  0.9551 -1.6689
 3141TIP3    H231059   1.242   3.664   8.577 -2.2350  2.6167  0.5582
 3142TIP3   OH231060   2.148   1.993   0.335  0.1359  0.1638 -0.1132
 3142TIP3    H131061   2.073   2.001   0.395 -0.1643  0.5142 -0.5325
 3142TIP3    H231062   2.216   1.951   0.388  0.2772  1.5203  0.8311
 3143TIP3   OH231063   1.613   2.998   2.338  0.6074 -1.1539 -0.3665
 3143TIP3    H131064   1.659   3.077   2.366  1.8563 -1.5809 -1.1568
 3143TIP3    H231065   1.524   3.027   2.319  0.1551 -0.5144  2.2825
 3144TIP3   OH231066   5.583   4.708   0.333 -0.2200 -0.2608 -0.2833
 3144TIP3    H131067   5.571   4.784   0.389  1.7294  0.8778 -1.3107
 3144TIP3    H231068   5.625   4.643   0.389  0.7074  0.4692 -0.1190
 3145TIP3   OH231069   1.657   1.324   1.954  0.1757 -0.0070  0.6699
 3145TIP3    H131070   1.680   1.365   1.871 -0.8713  0.1762  0.4590
 3145TIP3    H231071   1.716   1.249   1.961 -1.2466 -1.3985 -1.3557
 3146TIP3   OH231072   2.676   0.408   0.473 -0.6848  0.1705 -0.4266
 3146TIP3    H131073   2.708   0.493   0.444 -1.0763  0.2326 -0.6921
 3146TIP3    H231074   2.714   0.396   0.560 -0.1060  0.3258 -0.6512
 3147TIP3   OH231075   6.258   3.781   2.979  0.2799  0.3140 -0.4103
 3147TIP3    H131076   6.227   3.849   3.038  1.7172 -1.1379  2.2171
 3147TIP3    H231077   6.332   3.821   2.934 -1.1699  1.6191 -1.7385
 3148TIP3   OH231078   4.582   1.100   7.936 -0.4778 -0.2567  0.5105
 3148TIP3    H131079   4.489   1.118   7.941 -0.5380 -0.4428  0.0834
 3148TIP3    H231080   4.606   1.120   7.846 -0.3562 -1.3767  0.2784
 3149TIP3   OH231081   1.599   2.449   0.895  0.3001 -0.0038  0.6088
 3149TIP3    H131082   1.654   2.388   0.946  0.9903 -0.2770 -0.4443
 3149TIP3    H231083   1.582   2.403   0.813 -1.2580  0.2123  0.7927
 3150TIP3   OH231084   4.903   3.905   0.972 -0.3741 -0.0723 -0.3475
 3150TIP3    H131085   4.843   3.876   1.042 -1.2105  0.1794 -0.9404
 3150TIP3    H231086   4.875   3.855   0.895 -1.5711  1.9292 -1.2862
 3151TIP3   OH231087   4.664   5.846   7.888  0.2685  0.7502 -0.7292
 3151TIP3    H131088   4.610   5.924   7.873 -0.1382  0.2638 -1.9572
 3151TIP3    H231089   4.670   5.804   7.802  0.0062 -0.8759  0.0011
 3152TIP3   OH231090   6.156   4.487   2.286 -0.4211 -0.1673  0.5829
 3152TIP3    H131091   6.098   4.412   2.273 -1.9768  1.2700 -1.6001
 3152TIP3    H231092   6.105   4.547   2.341 -1.1690  1.1606 -1.4507
 3153TIP3   OH231093   1.036   1.488   1.564  0.0108  0.2605 -0.5200
 3153TIP3    H131094   1.004   1.448   1.646 -0.8163 -0.9624 -1.3963
 3153TIP3    H231095   1.017   1.581   1.574 -0.3492  0.0920  0.5592
 3154TIP3   OH231096   5.540   6.334   1.120  0.0225  0.2510 -1.1106
 3154TIP3    H131097   5.500   6.356   1.204 -0.5800 -0.3136 -1.2459
 3154TIP3    H231098   5.619   6.389   1.116 -0.0815  0.4694 -0.2986
 3155TIP3   OH231099   3.484   4.607   8.138 -0.1829 -0.3136  0.6759
 3155TIP3    H131100   3.561   4.663   8.151  0.4363 -1.0780  0.3430
 3155TIP3    H231101   3.512   4.521   8.169 -0.0102 -1.2460 -1.8537
 3156TIP3   OH231102   3.425   1.016   7.860 -0.2915 -0.2261  0.2115
 3156TIP3    H131103   3.422   1.070   7.939 -0.0626 -0.1592  0.1752
 3156TIP3    H231104   3.516   0.987   7.854 -0.2190  0.0952 -0.2488
 3157TIP3   OH231105   1.172   3.080   2.452  0.0157 -0.5714 -0.3973
 3157TIP3    H131106   1.211   3.162   2.422 -0.9515 -0.5251 -1.5872
 3157TIP3    H231107   1.116   3.105   2.526 -0.4344 -0.1180 -0.8876
 3158TIP3   OH231108   6.136   3.365   7.815 -0.1513  0.4302 -0.3344
 3158TIP3    H131109   6.173   3.410   7.739 -2.3464 -0.9090 -2.3299
 3158TIP3    H231110   6.118   3.435   7.878  0.3921  1.7612 -1.6030
 3159TIP3   OH231111   5.304   3.604   1.202 -0.2264  0.0846  0.2538
 3159TIP3    H131112   5.393   3.603   1.239 -0.8710 -0.3266  1.8909
 3159TIP3    H231113   5.301   3.528   1.144  0.8853  0.8629 -0.8895
 3160TIP3   OH231114   3.564   4.141   7.458 -0.0205  0.4882 -0.2167
 3160TIP3    H131115   3.477   4.115   7.489 -0.4937  0.1038 -1.7583
 3160TIP3    H231116   3.546   4.200   7.385  0.9873 -0.4143 -1.2348
 3161TIP3   OH231117   2.043   0.627   2.842 -0.6678 -0.4910 -0.6838
 3161TIP3    H131118   2.110   0.579   2.793 -0.0458  0.8278 -1.1564
 3161TIP3    H231119   1.961   0.605   2.797 -0.5841 -2.1583 -0.0698
 3162TIP3   OH231120   4.170   3.632   7.440  0.1164 -0.3069 -0.0058
 3162TIP3    H131121   4.187   3.561   7.502  0.9181  2.8207  3.7655
 3162TIP3    H231122   4.255   3.649   7.399  0.7154  0.4558  1.4893
 3163TIP3   OH231123   5.806   5.208   1.156  0.5326  0.0936 -0.2698
 3163TIP3    H131124   5.810   5.128   1.104 -1.1453  1.0848 -2.0671
 3163TIP3    H231125   5.723   5.202   1.203 -0.0817  1.1448 -1.1597
 3164TIP3   OH231126   3.909   4.325   8.214  1.2522 -0.2731 -0.4571
 3164TIP3    H131127   3.828   4.357   8.255  0.4490 -1.7586 -0.8234
 3164TIP3    H231128   3.913   4.370   8.130  0.1110 -1.1282 -0.9900
 3165TIP3   OH231129   0.364   2.918   0.282  0.0545 -0.2807  0.4093
 3165TIP3    H131130   0.345   2.986   0.347  1.2908 -0.7750  1.3215
 3165TIP3    H231131   0.435   2.867   0.321  0.7676 -0.6479 -1.3090
 3166TIP3   OH231132   3.277   2.621   1.336 -0.5680  0.1073  0.3114
 3166TIP3    H131133   3.308   2.530   1.339  2.2262  0.8600 -1.8179
 3166TIP3    H231134   3.262   2.638   1.244 -2.4040  1.4648  0.8077
 3167TIP3   OH231135   3.610   3.376   8.256 -0.1803  0.2960 -0.6824
 3167TIP3    H131136   3.516   3.369   8.246 -0.3878 -0.3186  1.1969
 3167TIP3    H231137   3.632   3.461   8.219 -1.1871 -0.2503 -2.6783
 3168TIP3   OH231138   3.535   4.053   0.788  0.3181  0.2004 -0.4514
 3168TIP3    H131139   3.446   4.019   0.800  1.3415 -2.4092  0.3958
 3168TIP3    H231140   3.556   4.094   0.872  0.0453  0.4931 -0.5254
 3169TIP3   OH231141   2.604   4.540   2.880 -0.5732  0.2920 -0.0178
 3169TIP3    H131142   2.696   4.515   2.874 -1.3947 -3.0087 -1.0358
 3169TIP3    H231143   2.592   4.602   2.808  0.9884  1.4739  0.6770
 3170TIP3   OH231144   3.736   5.189   0.289 -0.5906  0.6081  0.0243
 3170TIP3    H131145   3.758   5.174   0.197 -1.7131  1.2663 -0.3680
 3170TIP3    H231146   3.765   5.110   0.334 -0.5152  0.0584 -0.9723
 3171TIP3   OH231147   4.882   5.213   8.344  0.3030  0.4155  0.5410
 3171TIP3    H131148   4.895   5.133   8.396 -0.6066  0.2054  0.4544
 3171TIP3    H231149   4.904   5.187   8.254 -1.5763 -0.2080  0.2289
 3172TIP3   OH231150   4.634   5.347   3.322  0.2704  0.0028 -0.0876
 3172TIP3    H131151   4.630   5.422   3.382  2.0709  1.3568 -1.5518
 3172TIP3    H231152   4.689   5.283   3.367 -2.7103 -1.3580  1.9758
 3173TIP3   OH231153   6.815   6.086   8.033 -0.1613  0.3991  0.0821
 3173TIP3    H131154   6.841   6.175   8.060 -1.5959  1.0536 -0.6243
 3173TIP3    H231155   6.831   6.084   7.939  1.2693 -0.6217  0.3149
 3174TIP3   OH231156   6.449   0.521   1.161 -0.3479 -0.5751  0.5816
 3174TIP3    H131157   6.516   0.532   1.228 -0.9519 -2.5562  1.5890
 3174TIP3    H231158   6.366   0.528   1.209 -0.7946 -1.3965 -0.0438
 3175TIP3   OH231159   4.767   4.307   8.482 -0.2975 -0.2422  0.4227
 3175TIP3    H131160   4.702   4.237   8.479 -1.3115  0.5724  1.8511
 3175TIP3    H231161   4.715   4.388   8.477  0.7548  0.4316 -0.1331
 3176TIP3   OH231162   2.971   5.715   8.779 -0.1938  0.6517  0.2440
 3176TIP3    H131163   2.968   5.792   8.835  2.0205  1.5528 -0.7799
 3176TIP3    H231164   3.064   5.694   8.771 -0.6401 -1.1101 -0.8664
 3177TIP3   OH231165   2.982   0.693   1.408  0.2093 -0.1681  0.2597
 3177TIP3    H131166   2.949   0.711   1.495  1.5773 -0.0151  0.7620
 3177TIP3    H231167   2.964   0.600   1.394 -0.1016 -0.1660  0.6524
 3178TIP3   OH231168   1.406   2.706   2.837 -0.0923 -0.3115  0.2336
 3178TIP3    H131169   1.378   2.615   2.830  0.8097 -0.6820  1.1550
 3178TIP3    H231170   1.480   2.704   2.899 -0.1802  1.0645  0.4214
 3179TIP3   OH231171   6.161   0.484   0.532  0.5198 -0.5487 -0.5120
 3179TIP3    H131172   6.238   0.454   0.579  1.0825 -3.2290 -2.8910
 3179TIP3    H231173   6.194   0.552   0.472  0.9865 -1.4045 -1.2388
 3180TIP3   OH231174   5.594   2.015   8.067 -0.0336 -0.1891  0.5234
 3180TIP3    H131175   5.503   2.046   8.065 -0.0184 -0.1551 -0.4684
 3180TIP3    H231176   5.604   1.968   7.984  1.0348  0.3109  0.3570
 3181TIP3   OH231177   3.980   3.054   1.393  0.2843 -0.0860 -0.0727
 3181TIP3    H131178   3.941   3.133   1.429  0.9455 -0.3211  1.2368
 3181TIP3    H231179   3.912   3.016   1.338 -1.5666 -0.7262  2.4817
 3182TIP3   OH231180   3.998   6.357   1.863 -0.3945  0.7406 -0.2655
 3182TIP3    H131181   4.021   6.307   1.942  0.8001  0.1033 -0.9807
 3182TIP3    H231182   4.081   6.367   1.817 -0.8908  2.0470 -0.9228
 3183TIP3   OH231183   4.838   0.003   1.678 -0.0547  0.4709  0.1222
 3183TIP3    H131184   4.921  -0.020   1.637  0.7991  0.5123  1.7926
 3183TIP3    H231185   4.837   0.099   1.679 -0.5599  0.4886 -0.7139
 3184TIP3   OH231186   5.178   6.660   8.755 -0.3583  0.3110 -0.0162
 3184TIP3    H131187   5.266   6.634   8.727 -0.4035  1.5173 -1.3602
 3184TIP3    H231188   5.189   6.749   8.788 -1.1626  0.6692 -0.6921
 3185TIP3   OH231189   2.679   6.746   7.714 -0.1786 -0.3110  0.1870
 3185TIP3    H131190   2.758   6.791   7.744  0.5471 -1.3818 -0.0479
 3185TIP3    H231191   2.607   6.800   7.747  0.6277  1.7193 -1.1675
 3186TIP3   OH231192   1.617   1.712   0.323  0.1152  0.1918 -0.7643
 3186TIP3    H131193   1.568   1.795   0.327 -1.1232 -0.5325  2.7893
 3186TIP3    H231194   1.550   1.646   0.305  0.3453 -0.4308  0.5646
 3187TIP3   OH231195   1.959   4.765   0.425  0.2003 -0.0559  0.7434
 3187TIP3    H131196   1.988   4.856   0.414  1.4407 -0.3824  1.1760
 3187TIP3    H231197   1.994   4.739   0.510  0.4565 -1.1738  0.3092
 3188TIP3   OH231198   2.055   5.760   2.224  0.5149  0.2121  0.6805
 3188TIP3    H131199   2.102   5.724   2.148 -0.1712 -1.4624  1.0019
 3188TIP3    H231200   2.019   5.843   2.192  0.2647 -0.4340 -0.8357
 3189TIP3   OH231201   3.667   3.619   7.467 -0.8634  0.2545 -0.3788
 3189TIP3    H131202   3.745   3.604   7.413 -0.2569 -1.3283  0.8425
 3189TIP3    H231203   3.594   3.591   7.413 -0.1803 -2.3142 -0.1000
 3190TIP3   OH231204   3.454   2.813   0.778  0.3563  0.0342 -0.1649
 3190TIP3    H131205   3.538   2.769   0.768  0.1681 -0.4074  0.2167
 3190TIP3    H231206   3.416   2.812   0.690  1.0561  0.8729 -0.4982
 3191TIP3   OH231207   3.246   5.128   1.248 -0.1006  0.4011  0.3349
 3191TIP3    H131208   3.327   5.126   1.199  0.2435 -1.4710  0.8802
 3191TIP3    H231209   3.244   5.215   1.289  1.3447  0.6738 -0.1219
 3192TIP3   OH231210   2.789   2.021   1.879  0.0937  0.2090  0.2955
 3192TIP3    H131211   2.858   1.981   1.827 -0.5588 -0.2792 -0.2261
 3192TIP3    H231212   2.823   2.107   1.903  0.5716  0.2883 -0.6091
 3193TIP3   OH231213   3.765   4.038   2.372 -0.2368 -0.0732 -0.3469
 3193TIP3    H131214   3.680   4.078   2.355 -1.1682 -1.5577  0.5719
 3193TIP3    H231215   3.763   4.015   2.465  0.1414 -2.3259 -0.8203
 3194TIP3   OH231216   5.789   2.831   1.168 -0.2307  0.1171  0.1281
 3194TIP3    H131217   5.694   2.823   1.165 -0.1253 -2.1267  0.9861
 3194TIP3    H231218   5.813   2.861   1.080 -1.7121  0.7417 -0.0853
 3195TIP3   OH231219   0.254   2.594   7.489  0.0703  0.3892  0.2116
 3195TIP3    H131220   0.316   2.632   7.551 -0.6481  1.1328  0.4934
 3195TIP3    H231221   0.307   2.571   7.413  0.5764  1.8268  0.0979
 3196TIP3   OH231222   4.121   2.997   8.418  0.1303 -0.2183 -0.1392
 3196TIP3    H131223   4.147   3.089   8.427  3.5913 -1.1287  0.5700
 3196TIP3    H231224   4.068   2.979   8.496  2.0471  0.4548  1.3925
 3197TIP3   OH231225   0.770   3.699   3.561 -0.7687 -0.1056  0.5778
 3197TIP3    H131226   0.696   3.651   3.597 -0.5285 -1.1659 -0.2851
 3197TIP3    H231227   0.731   3.778   3.523 -1.1847  0.3392  1.8838
 3198TIP3   OH231228   6.109   0.116   2.075  0.1964 -0.1428  0.4257
 3198TIP3    H131229   6.116   0.202   2.116 -0.2131 -0.5817  1.4367
 3198TIP3    H231230   6.112   0.134   1.981  2.4123  0.7868  0.5990
 3199TIP3   OH231231   4.340   1.744   1.802  0.0640 -0.1385 -0.1978
 3199TIP3    H131232   4.430   1.725   1.827 -0.1200  0.3760  0.8841
 3199TIP3    H231233   4.288   1.727   1.881 -0.5090  1.6279 -0.1619
 3200TIP3   OH231234   2.814   4.357   7.933 -0.0592 -0.0548 -0.3120
 3200TIP3    H131235   2.843   4.362   7.842 -0.1017 -2.8102 -0.5829
 3200TIP3    H231236   2.896   4.353   7.983 -0.0318  0.8126 -0.2833
 3201TIP3   OH231237   2.932   2.905   1.682  0.3396  0.1115 -0.4080
 3201TIP3    H131238   2.858   2.846   1.671  2.2206 -2.2485 -1.3126
 3201TIP3    H231239   2.907   2.984   1.634 -0.5843 -1.6092 -2.9921
 3202TIP3   OH231240   3.318   2.749   8.313  0.2743  0.2529 -0.0152
 3202TIP3    H131241   3.236   2.740   8.265  1.2599  0.6853 -1.9279
 3202TIP3    H231242   3.329   2.843   8.326  2.5664  0.8171 -4.0512
 3203TIP3   OH231243   2.695   1.308   8.303  0.0037 -0.6097  0.2595
 3203TIP3    H131244   2.753   1.384   8.294 -0.0127 -0.6952 -0.7311
 3203TIP3    H231245   2.752   1.238   8.335 -0.2577  0.1404  2.4964
 3204TIP3   OH231246   2.192   1.216   1.571 -0.0522  0.1171 -0.1572
 3204TIP3    H131247   2.125   1.272   1.610  0.3695 -0.0326  0.8190
 3204TIP3    H231248   2.264   1.276   1.551 -0.8675  0.4688 -2.2355
 3205TIP3   OH231249   2.440   3.877   7.847  0.1140 -0.0341  0.0200
 3205TIP3    H131250   2.472   3.920   7.768  0.4219 -0.3108 -0.0082
 3205TIP3    H231251   2.424   3.787   7.820  0.9259 -0.3218  0.4461
 3206TIP3   OH231252   0.341   0.979   0.422  0.4721 -0.2375  0.3611
 3206TIP3    H131253   0.276   1.005   0.357  0.9556  1.3053  0.4388
 3206TIP3    H231254   0.416   0.950   0.371 -0.1830 -1.8622  0.2706
 3207TIP3   OH231255   1.538   4.748   1.461 -0.1018  0.1508 -0.3790
 3207TIP3    H131256   1.464   4.772   1.517  0.5114  0.9077  0.1164
 3207TIP3    H231257   1.498   4.700   1.389 -0.6358 -3.6383  2.1845
 3208TIP3   OH231258   0.488   2.241   1.748  0.2486  0.1689 -0.7805
 3208TIP3    H131259   0.463   2.227   1.839  1.0440 -2.1816 -0.8435
 3208TIP3    H231260   0.466   2.332   1.730  0.8815  0.9567  2.0077
 3209TIP3   OH231261   0.726   1.098   1.703 -0.0625  0.6152 -0.1896
 3209TIP3    H131262   0.735   1.131   1.613 -0.0147  0.4500 -0.2454
 3209TIP3    H231263   0.801   1.041   1.715 -1.2403 -1.1554 -0.8268
 3210TIP3   OH231264   4.190   5.467   1.471  0.6493 -0.3981 -0.6096
 3210TIP3    H131265   4.151   5.549   1.441  0.4931 -0.3901 -0.3879
 3210TIP3    H231266   4.116   5.413   1.498  0.8423  0.5442  2.2145
 3211TIP3   OH231267   3.028   3.378   8.536 -0.3777  0.6009  0.1540
 3211TIP3    H131268   3.109   3.326   8.533 -0.7342  0.0252  0.3172
 3211TIP3    H231269   2.966   3.323   8.585 -0.9426  0.9280 -0.1800
 3212TIP3   OH231270   6.083   3.510   8.722 -0.1842 -0.5461 -0.1724
 3212TIP3    H131271   6.033   3.447   8.774 -1.2488 -1.3138 -2.0317
 3212TIP3    H231272   6.019   3.575   8.694  0.5244  0.2917  0.1073
 3213TIP3   OH231273   3.178   5.800   0.347 -0.8170 -0.2781 -0.3097
 3213TIP3    H131274   3.198   5.718   0.301 -1.6321 -1.1543  0.8129
 3213TIP3    H231275   3.103   5.836   0.300 -2.1586 -1.5742  0.6939
 3214TIP3   OH231276   1.549   1.658   7.538  0.0604 -0.3529 -0.4176
 3214TIP3    H131277   1.567   1.742   7.495  1.0155 -0.0931  0.4604
 3214TIP3    H231278   1.472   1.674   7.593  0.7653  0.2024  0.4243
 3215TIP3   OH231279   1.811   3.598   1.522 -0.0949  0.2783  0.4253
 3215TIP3    H131280   1.760   3.577   1.444 -1.6754  0.0613  1.4758
 3215TIP3    H231281   1.845   3.513   1.552 -0.7853  0.1463  0.8404
 3216TIP3   OH231282   2.461   2.885   8.402 -0.1731  0.2943 -0.2083
 3216TIP3    H131283   2.398   2.815   8.384 -0.4712  0.4990  0.0314
 3216TIP3    H231284   2.545   2.840   8.409 -0.7849 -0.5705  3.3475
 3217TIP3   OH231285   1.785   3.189   2.462  0.3950 -0.3160 -0.2722
 3217TIP3    H131286   1.796   3.284   2.463  1.2387 -0.3216 -2.5193
 3217TIP3    H231287   1.825   3.159   2.543  2.9181  1.0419 -0.8949
 3218TIP3   OH231288   6.637   4.085   0.526  0.6634 -0.1920 -0.2371
 3218TIP3    H131289   6.637   4.043   0.612  2.8842 -1.9076 -0.9633
 3218TIP3    H231290   6.545   4.090   0.501  0.0632 -0.6834  1.7654
 3219TIP3   OH231291   3.860   4.404   1.981  0.2017 -0.0094  0.6150
 3219TIP3    H131292   3.789   4.395   1.916  0.6221 -2.2577  0.3921
 3219TIP3    H231293   3.939   4.382   1.932  0.5842 -1.2274  1.7344
 3220TIP3   OH231294   0.869   2.085   7.432 -0.2881  0.0986 -0.0454
 3220TIP3    H131295   0.941   2.146   7.421 -0.8009  0.9767  1.1629
 3220TIP3    H231296   0.790   2.139   7.423 -0.7723 -0.6309 -0.2670
 3221TIP3   OH231297   5.774   5.869   7.659  0.7050  0.5868 -0.2055
 3221TIP3    H131298   5.736   5.792   7.701 -0.1598  0.7558 -0.6488
 3221TIP3    H231299   5.737   5.944   7.706  0.9426  0.7417 -0.2650
 3222TIP3   OH231300   0.315   5.721   2.384 -0.1226 -0.2494 -0.4681
 3222TIP3    H131301   0.249   5.784   2.414 -0.7003 -0.2733 -1.6469
 3222TIP3    H231302   0.385   5.727   2.449 -1.6777 -0.8969  1.3468
 3223TIP3   OH231303   5.987   3.062   1.020 -0.0427  0.9403 -0.3909
 3223TIP3    H131304   6.063   3.073   0.962  0.2306 -1.1023 -0.4949
 3223TIP3    H231305   5.912   3.085   0.965  0.0145 -2.7527 -2.3428
 3224TIP3   OH231306   6.173   4.404   1.881 -0.7899  0.2771  0.5925
 3224TIP3    H131307   6.186   4.425   1.789  1.0798  1.0647  0.9896
 3224TIP3    H231308   6.248   4.347   1.903 -1.6030 -0.4904  1.4538
 3225TIP3   OH231309   3.639   3.433   1.842 -0.3488  0.1368 -0.3677
 3225TIP3    H131310   3.574   3.482   1.793 -1.8686 -1.3485  0.0438
 3225TIP3    H231311   3.667   3.493   1.911 -2.6349  0.2840  0.5312
 3226TIP3   OH231312   5.276   3.238   0.638 -0.1895 -0.0247 -0.3152
 3226TIP3    H131313   5.247   3.237   0.546 -1.0343 -3.1148 -0.1190
 3226TIP3    H231314   5.287   3.331   0.658 -0.9582  0.8134 -3.2323
 3227TIP3   OH231315   0.998   4.452   7.679  0.0436 -0.4779  0.5821
 3227TIP3    H131316   0.977   4.393   7.752  0.1327 -0.5031  0.5872
 3227TIP3    H231317   1.093   4.460   7.681  0.0599 -0.6134  0.3614
 3228TIP3   OH231318   1.253   0.708   0.641 -0.2986 -0.6492 -0.1083
 3228TIP3    H131319   1.266   0.618   0.612 -1.3226 -1.3233  1.4280
 3228TIP3    H231320   1.192   0.702   0.714  0.5731  1.1755  0.8467
 3229TIP3   OH231321   0.633   6.257   0.826  0.1189 -0.0978 -0.2475
 3229TIP3    H131322   0.695   6.329   0.819  0.6308 -0.5767 -0.9233
 3229TIP3    H231323   0.567   6.275   0.759  0.1923 -0.2017 -0.3487
 3230TIP3   OH231324   1.113   0.556   7.112 -0.3763 -0.1119  0.2734
 3230TIP3    H131325   1.056   0.621   7.070 -0.2589 -0.3829 -0.3108
 3230TIP3    H231326   1.084   0.472   7.076  0.8870 -0.1935 -0.6394
 3231TIP3   OH231327   6.264   1.325   2.949  0.2941 -1.0173  0.0932
 3231TIP3    H131328   6.358   1.326   2.930  0.2098 -1.0898 -0.3434
 3231TIP3    H231329   6.222   1.341   2.864 -0.0510  1.3096  0.6346
 3232TIP3   OH231330   6.458   0.497   0.219 -0.2462  0.0121  0.1739
 3232TIP3    H131331   6.454   0.423   0.158  0.7507  0.1340 -0.0491
 3232TIP3    H231332   6.510   0.465   0.292  0.0504  0.4356  0.1514
 3233TIP3   OH231333   4.676   4.646   1.843 -0.2678 -1.0886 -0.7942
 3233TIP3    H131334   4.663   4.575   1.780 -0.1522 -2.5466  0.7628
 3233TIP3    H231335   4.770   4.664   1.839 -0.3837 -0.5636 -1.6147
 3234TIP3   OH231336   2.187   2.829   0.370  0.9591  0.1794 -0.5090
 3234TIP3    H131337   2.252   2.836   0.440 -0.0556  0.5409  0.4270
 3234TIP3    H231338   2.157   2.919   0.356 -0.1407 -0.1151 -0.1330
 3235TIP3   OH231339   6.734   5.945   1.561 -0.0370  0.1932 -0.4066
 3235TIP3    H131340   6.759   5.993   1.482  0.0453  1.0568  0.1201
 3235TIP3    H231341   6.641   5.963   1.572 -0.3089 -0.8412 -0.9063
 3236TIP3   OH231342   1.510   4.892   0.846  0.3707  0.0317  0.3200
 3236TIP3    H131343   1.535   4.807   0.811 -0.0912 -0.1430  0.4067
 3236TIP3    H231344   1.592   4.939   0.856  0.4723  0.3877 -1.7523
 3237TIP3   OH231345   2.920   6.170   8.672 -0.7192 -0.1230  0.1171
 3237TIP3    H131346   2.926   6.090   8.620  1.6168  0.5418 -0.7692
 3237TIP3    H231347   2.832   6.168   8.710 -1.0530 -2.6101 -0.6412
 3238TIP3   OH231348   6.454   5.902   0.710 -0.4256  0.0397  0.5652
 3238TIP3    H131349   6.510   5.974   0.741 -1.7917  0.0927  3.2652
 3238TIP3    H231350   6.504   5.860   0.641  2.3730  0.8972  1.9244
 3239TIP3   OH231351   6.079   0.762   2.581  0.0708  0.3045  0.0766
 3239TIP3    H131352   6.076   0.666   2.580  1.1426  0.2510 -0.4976
 3239TIP3    H231353   6.172   0.782   2.567  0.6561  1.4231  4.3399
 3240TIP3   OH231354   1.708   3.770   8.169 -0.0173  0.3270 -0.4066
 3240TIP3    H131355   1.690   3.692   8.117 -0.3140 -0.1754  0.4303
 3240TIP3    H231356   1.738   3.835   8.105  1.7368 -0.9230 -0.9268
 3241TIP3   OH231357   5.945   5.672   8.053 -0.1038  0.4364 -0.0017
 3241TIP3    H131358   5.963   5.674   7.959 -0.2859 -1.5604 -0.1306
 3241TIP3    H231359   5.865   5.618   8.061  0.3101 -0.0252  1.3223
 3242TIP3   OH231360   0.241   0.316   0.791 -0.0738 -0.8581  0.2571
 3242TIP3    H131361   0.210   0.334   0.702  0.4940 -0.8729  0.0473
 3242TIP3    H231362   0.200   0.383   0.845  2.8076  1.8871 -0.6437
 3243TIP3   OH231363   6.404   4.114   3.801  0.1624 -0.1326  1.4122
 3243TIP3    H131364   6.480   4.056   3.811 -0.0628 -0.4587  1.2577
 3243TIP3    H231365   6.328   4.056   3.812 -0.1022 -0.2458 -0.5360
 3244TIP3   OH231366   3.727   0.220   2.318  0.8945 -0.6272  0.2226
 3244TIP3    H131367   3.699   0.228   2.226 -1.3834  0.2651  0.9063
 3244TIP3    H231368   3.815   0.256   2.319  0.6101  0.2800 -1.4791
 3245TIP3   OH231369   3.262   5.542   0.754  0.0189  0.0403 -0.1304
 3245TIP3    H131370   3.267   5.637   0.744  1.0866  0.2123  1.5702
 3245TIP3    H231371   3.253   5.529   0.848  0.7777 -1.5509 -0.2516
 3246TIP3   OH231372   4.065   5.416   0.581 -0.0097  0.4561  0.3034
 3246TIP3    H131373   4.003   5.482   0.551  0.1903  0.0852 -0.9604
 3246TIP3    H231374   4.051   5.341   0.523 -0.1209 -0.5687  1.6013
 3247TIP3   OH231375   6.706   1.628   1.898 -0.0115  0.6038 -0.3171
 3247TIP3    H131376   6.742   1.542   1.874  2.0954  0.9506  1.2725
 3247TIP3    H231377   6.712   1.680   1.818  1.6548  0.1498 -0.5208
 3248TIP3   OH231378   3.198   5.168   1.558  0.3107  0.4318  0.2615
 3248TIP3    H131379   3.255   5.092   1.541  2.6320  1.9408  0.8992
 3248TIP3    H231380   3.237   5.210   1.635 -0.8941  2.3104 -0.1142
 3249TIP3   OH231381   5.121   1.204   0.512 -0.0581 -0.5737 -0.6156
 3249TIP3    H131382   5.193   1.142   0.505  0.9592  0.5088 -0.0499
 3249TIP3    H231383   5.044   1.155   0.483  0.8592 -1.8180 -1.0180
 3250TIP3   OH231384   1.521   3.541   2.900 -0.6943 -0.3830  0.4673
 3250TIP3    H131385   1.454   3.475   2.916 -0.8926 -0.4525 -0.5873
 3250TIP3    H231386   1.602   3.500   2.930 -1.0111 -0.5663  1.0993
 3251TIP3   OH231387   2.060   5.505   0.887 -0.4276  0.8397 -0.6943
 3251TIP3    H131388   2.155   5.510   0.872 -0.6371  1.3331 -1.9782
 3251TIP3    H231389   2.049   5.430   0.945  0.8220  1.2772  0.1535
 3252TIP3   OH231390   3.163   3.284   2.112  0.2018  0.4008 -0.5229
 3252TIP3    H131391   3.224   3.218   2.081 -1.3945 -0.5833 -1.7429
 3252TIP3    H231392   3.078   3.239   2.115 -0.5569  1.8216  0.6738
 3253TIP3   OH231393   0.074   5.761   1.433  0.6366  0.0494 -0.3607
 3253TIP3    H131394   0.003   5.745   1.372  0.8445 -0.5820 -0.4456
 3253TIP3    H231395   0.033   5.809   1.506 -0.2570 -1.7313  0.3760
 3254TIP3   OH231396   1.994   1.599   7.318  0.0001 -0.0462 -1.0722
 3254TIP3    H131397   2.031   1.685   7.337 -1.7388  0.4757  0.1896
 3254TIP3    H231398   1.922   1.616   7.257  0.3583 -0.7607 -1.7159
 3255TIP3   OH231399   1.997   6.397   2.036  0.1997  0.0789  0.2575
 3255TIP3    H131400   2.022   6.464   1.973  0.1791  0.1134  0.2864
 3255TIP3    H231401   1.902   6.388   2.027  0.4529 -1.5725 -1.3962
 3256TIP3   OH231402   1.929   1.243   1.123 -0.0287 -0.5092  0.2173
 3256TIP3    H131403   1.930   1.230   1.218  1.0101 -1.1945  0.1272
 3256TIP3    H231404   1.890   1.330   1.111 -3.2852 -1.6975  1.0734
 3257TIP3   OH231405   0.234   6.021   2.708 -0.1611  0.6000  0.1380
 3257TIP3    H131406   0.182   6.000   2.631  0.0493  2.9396 -0.7353
 3257TIP3    H231407   0.201   5.964   2.777 -0.0824 -1.8643 -1.7431
 3258TIP3   OH231408   3.550   4.430   0.833  0.1265  0.2158  0.2190
 3258TIP3    H131409   3.472   4.396   0.877  0.2400  0.9136  0.9841
 3258TIP3    H231410   3.619   4.369   0.858  0.3663  1.0623  1.7370
 3259TIP3   OH231411   6.119   1.226   8.144  0.5580 -0.0541 -0.0973
 3259TIP3    H131412   6.036   1.243   8.099  0.3391 -2.3205 -0.6703
 3259TIP3    H231413   6.138   1.308   8.190 -0.6610  1.3881 -2.0178
 3260TIP3   OH231414   0.619   6.523   2.923  0.2526  0.4928  0.1939
 3260TIP3    H131415   0.562   6.471   2.866  0.4870  0.8497 -0.3850
 3260TIP3    H231416   0.694   6.466   2.942  0.3556  0.5027 -0.1749
 3261TIP3   OH231417   2.205   4.860   8.363  0.4302  0.1203  0.1187
 3261TIP3    H131418   2.191   4.773   8.327  0.1452  0.4161 -0.5152
 3261TIP3    H231419   2.149   4.865   8.440  1.6705 -0.8204  1.1230
 3262TIP3   OH231420   5.431   2.868   2.771  0.1692 -0.6093  0.5847
 3262TIP3    H131421   5.339   2.850   2.792 -0.1844  1.3155  0.8825
 3262TIP3    H231422   5.474   2.876   2.857  0.6343 -1.5670  0.4455
 3263TIP3   OH231423   2.009   5.703   8.135 -0.7300 -0.1050  0.2973
 3263TIP3    H131424   1.931   5.747   8.168 -0.4244 -1.4454  3.1139
 3263TIP3    H231425   2.000   5.613   8.166  1.0604 -0.7699 -0.9488
 3264TIP3   OH231426   0.610   3.182   2.594  0.6301  0.4801 -0.1170
 3264TIP3    H131427   0.516   3.192   2.614  0.4285 -0.2066 -0.7119
 3264TIP3    H231428   0.643   3.127   2.665  0.2930 -0.4340 -0.6618
 3265TIP3   OH231429   4.386   6.703   2.434 -0.5266 -0.7852 -0.4229
 3265TIP3    H131430   4.444   6.659   2.372  0.0166 -1.4945  0.5543
 3265TIP3    H231431   4.407   6.664   2.519  1.0172  2.2998  0.7993
 3266TIP3   OH231432   2.263   6.791   8.153 -0.2596 -0.1228 -0.0236
 3266TIP3    H131433   2.276   6.705   8.113 -1.5526 -0.0938 -0.5433
 3266TIP3    H231434   2.286   6.778   8.245  2.6781 -0.2020 -0.6702
 3267TIP3   OH231435   1.368   6.011   2.155  0.1036 -0.2499  0.0245
 3267TIP3    H131436   1.298   6.012   2.220 -0.2766 -0.9669 -0.3653
 3267TIP3    H231437   1.405   5.924   2.160 -1.1530 -0.9853 -1.9641
 3268TIP3   OH231438   0.651   4.284   0.417 -0.4560 -0.1926  0.0857
 3268TIP3    H131439   0.652   4.324   0.504 -1.8283 -0.0795  0.0604
 3268TIP3    H231440   0.622   4.194   0.432 -0.0806 -0.3621 -0.1865
 3269TIP3   OH231441   2.949   5.518   8.420 -0.0461  0.2381  0.2878
 3269TIP3    H131442   2.986   5.548   8.337 -0.1482  5.0057  1.6602
 3269TIP3    H231443   3.025   5.515   8.479 -0.3448 -0.6829  0.6384
 3270TIP3   OH231444   0.104   1.916   0.564  0.2073  0.3056  0.2286
 3270TIP3    H131445   0.164   1.843   0.548  0.4915  0.5653  0.1025
 3270TIP3    H231446   0.042   1.912   0.492  1.9772  1.9881 -1.4996
 3271TIP3   OH231447   3.279   5.443   2.572 -0.2450 -0.3200 -0.1574
 3271TIP3    H131448   3.287   5.349   2.583  0.3365 -0.2666 -0.1050
 3271TIP3    H231449   3.256   5.476   2.659  0.6885 -0.2932  0.0824
 3272TIP3   OH231450   4.245   0.291   2.331  0.5304  0.0012 -0.3743
 3272TIP3    H131451   4.286   0.373   2.304  2.0483 -1.3358 -2.4862
 3272TIP3    H231452   4.297   0.261   2.405  0.7472  0.3606 -0.3782
 3273TIP3   OH231453   6.793   2.917   2.540 -0.3729  0.2010  0.2470
 3273TIP3    H131454   6.799   2.978   2.614  1.5355  0.5795 -0.1759
 3273TIP3    H231455   6.734   2.849   2.570 -1.3479  1.4632  1.3055
 3274TIP3   OH231456   1.349   1.059   0.301 -0.1432  0.8659  0.5555
 3274TIP3    H131457   1.315   0.974   0.328 -1.1891  0.4362 -1.8489
 3274TIP3    H231458   1.284   1.122   0.332  0.1718  0.7260  1.5440
 3275TIP3   OH231459   1.391   5.987   3.242 -0.5237 -0.4350  0.1499
 3275TIP3    H131460   1.451   5.995   3.315 -1.3521 -0.4840  0.8592
 3275TIP3    H231461   1.339   6.067   3.245  0.5716  0.3844 -1.4640
 3276TIP3   OH231462   5.959   0.959   1.872  0.2773  0.0815 -0.5045
 3276TIP3    H131463   5.938   1.042   1.831 -1.6540 -0.3726 -0.5728
 3276TIP3    H231464   5.988   0.982   1.960  0.2131  0.8433 -0.6796
 3277TIP3   OH231465   5.420   2.397   1.118 -0.2184 -0.0600  0.2643
 3277TIP3    H131466   5.498   2.436   1.080  0.7073 -2.0310  0.0370
 3277TIP3    H231467   5.445   2.374   1.207 -0.8583  0.1704  0.5107
 3278TIP3   OH231468   5.089   0.284   0.277 -0.3726  0.3372  0.3019
 3278TIP3    H131469   5.156   0.216   0.283 -1.2193 -0.6281 -0.8249
 3278TIP3    H231470   5.039   0.262   0.199 -1.3606  1.6370  0.5340
 3279TIP3   OH231471   5.034   3.003   7.467  0.3535 -0.7969  0.4895
 3279TIP3    H131472   5.009   2.983   7.557  2.4431 -1.5336  0.9682
 3279TIP3    H231473   5.127   3.023   7.472  0.1989  0.6465 -1.3203
 3280TIP3   OH231474   5.073   1.644   2.429 -0.0505 -0.8549  0.1257
 3280TIP3    H131475   5.034   1.560   2.456  0.4651 -1.0036  0.4185
 3280TIP3    H231476   5.145   1.657   2.490 -0.0477 -0.2570 -0.0038
 3281TIP3   OH231477   5.079   5.309   2.066 -0.1216  0.1785  0.0740
 3281TIP3    H131478   5.103   5.250   2.136  0.1877 -0.7696 -0.8156
 3281TIP3    H231479   5.157   5.363   2.051  0.7089 -1.3201 -1.2254
 3282TIP3   OH231480   1.030   2.421   1.315  0.2617  0.7686  0.0321
 3282TIP3    H131481   1.016   2.348   1.255 -0.8109 -0.8557  2.1222
 3282TIP3    H231482   1.117   2.406   1.352 -0.4513 -0.2212  1.3826
 3283TIP3   OH231483   6.422   0.830   8.182 -0.0605 -0.1501  0.0281
 3283TIP3    H131484   6.451   0.740   8.168  2.3259  0.3071  1.3613
 3283TIP3    H231485   6.406   0.864   8.094 -1.3812 -1.9251 -0.4917
 3284TIP3   OH231486   0.013   1.985   0.048  0.1931  0.4680 -0.3175
 3284TIP3    H131487   0.024   2.080   0.061  0.5646  0.3536  0.2459
 3284TIP3    H231488   0.090   1.946   0.089 -1.4450 -0.2772  2.3413
 3285TIP3   OH231489   0.014   5.115   2.925 -0.1638 -0.6413  0.6207
 3285TIP3    H131490   0.101   5.137   2.958  0.9846 -1.8386 -1.3948
 3285TIP3    H231491   0.023   5.026   2.890 -1.4269  0.1972 -2.1348
 3286TIP3   OH231492   4.436   2.950   2.781 -0.2349 -0.2947  0.3382
 3286TIP3    H131493   4.478   3.030   2.752  1.0111 -0.9133  0.3451
 3286TIP3    H231494   4.373   2.929   2.713 -0.9090  0.9265  0.5660
 3287TIP3   OH231495   5.212   4.035   2.677 -0.1449 -0.3691  0.0074
 3287TIP3    H131496   5.121   4.039   2.645 -0.2744 -0.8706  0.3182
 3287TIP3    H231497   5.248   4.120   2.652 -0.2512 -0.7149 -1.4630
 3288TIP3   OH231498   2.004   0.977   7.644  0.3737 -0.2685 -0.1411
 3288TIP3    H131499   1.970   1.046   7.587  0.7443 -1.6569 -2.1944
 3288TIP3    H231500   1.977   1.002   7.732 -0.8192  1.6755 -0.9918
 3289TIP3   OH231501   2.116   1.477   1.357 -0.6051 -0.7733  0.3366
 3289TIP3    H131502   2.071   1.561   1.347  0.9844  0.1977  0.9937
 3289TIP3    H231503   2.048   1.417   1.388 -1.9825  0.0055 -0.9996
 3290TIP3   OH231504   2.489   1.022   0.192  0.0064  0.3602  0.1878
 3290TIP3    H131505   2.514   1.089   0.129  0.6608 -0.8103 -0.8372
 3290TIP3    H231506   2.447   0.954   0.139 -0.6649 -0.0379  1.2034
 3291TIP3   OH231507   5.994   1.944   1.955 -0.1969 -0.0199  0.3076
 3291TIP3    H131508   6.021   2.010   2.019 -4.7016  0.1869  2.3592
 3291TIP3    H231509   5.966   1.869   2.007 -0.4708 -1.3804 -1.6775
 3292TIP3   OH231510   4.986   1.977   7.077 -0.2171  0.1867 -0.0847
 3292TIP3    H131511   5.080   1.961   7.087 -0.3484 -0.1181  0.8078
 3292TIP3    H231512   4.978   2.073   7.076 -0.0115  0.2436  1.3190
 3293TIP3   OH231513   4.592   0.080   8.705  0.4377  0.0714  0.0227
 3293TIP3    H131514   4.519   0.142   8.702 -0.8964 -1.3982  0.6022
 3293TIP3    H231515   4.626   0.087   8.794 -0.2286 -0.5738  0.3360
 3294TIP3   OH231516   5.258   3.524   8.458  0.1639  0.1080 -0.4513
 3294TIP3    H131517   5.212   3.512   8.375 -1.0016  0.2348  0.1436
 3294TIP3    H231518   5.191   3.510   8.525  0.9143  0.6586  0.4589
 3295TIP3   OH231519   2.558   4.592   1.853  0.0602  0.2517 -0.0128
 3295TIP3    H131520   2.483   4.651   1.858 -0.2764 -0.0360 -1.1494
 3295TIP3    H231521   2.519   4.505   1.841  0.5676  0.0838 -0.5169
 3296TIP3   OH231522   5.199   1.455   0.406 -0.1275 -0.2119  0.3269
 3296TIP3    H131523   5.162   1.368   0.422 -1.0180  0.4391  2.0472
 3296TIP3    H231524   5.125   1.509   0.380 -0.3847  0.9580  3.1934
 3297TIP3   OH231525   4.759   6.336   8.610 -0.9139 -0.1583 -0.1073
 3297TIP3    H131526   4.718   6.250   8.600 -0.5950 -0.3116 -0.1245
 3297TIP3    H231527   4.740   6.381   8.528 -1.6858  0.0529  0.1771
 3298TIP3   OH231528   3.059   1.835   8.522  0.2719 -0.8342 -0.3435
 3298TIP3    H131529   3.028   1.745   8.514  0.5008 -1.1621  1.8558
 3298TIP3    H231530   3.144   1.827   8.565  1.7348  0.2887 -2.7982
 3299TIP3   OH231531   3.381   2.385   1.313 -0.5536 -0.1130  0.0634
 3299TIP3    H131532   3.321   2.314   1.292 -0.8880  0.3496 -0.5938
 3299TIP3    H231533   3.465   2.342   1.330 -1.0058 -0.7386  0.7197
 3300TIP3   OH231534   5.778   6.030   1.116 -0.0649 -0.6215  0.4476
 3300TIP3    H131535   5.735   6.015   1.200  0.0586  1.7056  1.0148
 3300TIP3    H231536   5.707   6.044   1.054 -0.1865 -3.3330 -0.1370
 3301TIP3   OH231537   1.400   0.616   1.418 -0.1855  0.4794 -0.4931
 3301TIP3    H131538   1.317   0.660   1.435 -0.2621  1.1463 -2.4245
 3301TIP3    H231539   1.459   0.650   1.485 -1.3395  0.2867  0.6697
 3302TIP3   OH231540   1.505   6.657   7.838 -0.2621  0.2134  0.1765
 3302TIP3    H131541   1.538   6.735   7.881 -2.2354  0.6824  0.9492
 3302TIP3    H231542   1.579   6.598   7.835  0.2986  0.6188  3.1345
 3303TIP3   OH231543   4.061   1.146   2.292 -0.1379 -0.4317  0.6110
 3303TIP3    H131544   4.082   1.230   2.251  0.0326 -0.7093  0.1128
 3303TIP3    H231545   4.025   1.093   2.221  0.2283 -0.9501  0.8025
 3304TIP3   OH231546   6.015   2.388   2.239 -0.4217 -0.3778  0.0016
 3304TIP3    H131547   6.046   2.418   2.325 -1.3607  2.8825 -0.6388
 3304TIP3    H231548   6.094   2.373   2.188  0.1349  0.1777  0.6887
 3305TIP3   OH231549   1.584   4.127   0.843 -0.3379 -0.6789  0.1196
 3305TIP3    H131550   1.658   4.184   0.864 -0.2192  0.1572 -2.2854
 3305TIP3    H231551   1.617   4.038   0.856  0.9362 -0.3008 -0.4668
 3306TIP3   OH231552   5.720   1.057   0.680  0.0135  0.5403  0.2893
 3306TIP3    H131553   5.804   1.098   0.662  0.4460  0.1486  1.3350
 3306TIP3    H231554   5.655   1.118   0.645  0.5639  2.9162  3.0985
 3307TIP3   OH231555   4.439   0.860   3.010 -0.7153 -0.2483  0.4279
 3307TIP3    H131556   4.369   0.818   2.961 -0.7631  0.1541  0.1422
 3307TIP3    H231557   4.425   0.954   2.996  1.9724 -0.1387 -2.7116
 3308TIP3   OH231558   0.606   3.180   8.095 -0.1907  0.0076  0.3210
 3308TIP3    H131559   0.665   3.125   8.147  0.4354  1.3016  1.0282
 3308TIP3    H231560   0.632   3.166   8.005 -0.5125 -1.3784  0.4150
 3309TIP3   OH231561   6.533   0.548   2.594  0.6426  0.0735 -0.2291
 3309TIP3    H131562   6.588   0.607   2.645 -0.0342  0.0498  0.5343
 3309TIP3    H231563   6.544   0.462   2.635  0.3166 -0.0022 -0.2953
 3310TIP3   OH231564   4.228   2.783   0.391 -0.2627 -0.6783  0.2493
 3310TIP3    H131565   4.251   2.821   0.475 -0.5085 -0.3796  0.1806
 3310TIP3    H231566   4.277   2.700   0.389  0.2466 -0.3898  0.4083
 3311TIP3   OH231567   4.207   5.022   0.703 -0.1307 -0.4173  0.0252
 3311TIP3    H131568   4.199   5.017   0.608 -1.3614  0.7562  0.0392
 3311TIP3    H231569   4.289   5.068   0.718 -0.1219 -0.2603 -0.4903
 3312TIP3   OH231570   1.946   0.381   0.457 -0.2142  0.3641  0.5437
 3312TIP3    H131571   1.880   0.316   0.431  0.8123 -0.7751  0.6790
 3312TIP3    H231572   1.948   0.444   0.386 -1.5782  0.5264  0.6268
 3313TIP3   OH231573   4.319   4.791   2.792  0.3035  0.3549  0.0032
 3313TIP3    H131574   4.409   4.761   2.804  0.7517  1.9277  0.8655
 3313TIP3    H231575   4.278   4.777   2.877 -0.0192  0.3882 -0.1478
 3314TIP3   OH231576   3.491   3.214   2.804  0.2031  0.2345 -0.3484
 3314TIP3    H131577   3.506   3.304   2.777  3.2982 -0.2862 -0.6673
 3314TIP3    H231578   3.552   3.199   2.875 -0.3782 -1.5753 -0.1730
 3315TIP3   OH231579   2.541   4.293   2.768 -0.3756 -0.1027 -0.2120
 3315TIP3    H131580   2.586   4.368   2.806  0.1433 -0.3269 -0.3709
 3315TIP3    H231581   2.570   4.292   2.676  1.4066 -1.7800  0.2960
 3316TIP3   OH231582   2.003   3.268   0.804 -0.3249 -0.2481 -0.2065
 3316TIP3    H131583   1.936   3.304   0.862  0.8577 -0.5352  1.4383
 3316TIP3    H231584   2.083   3.315   0.829  0.2075 -0.3041 -1.7262
 3317TIP3   OH231585   3.280   5.735   1.125  0.5447  0.0549  0.4284
 3317TIP3    H131586   3.301   5.652   1.081  0.2685 -0.0946  0.5812
 3317TIP3    H231587   3.320   5.802   1.068  0.9945 -0.1937  0.4424
 3318TIP3   OH231588   6.580   0.929   7.594  0.3305 -0.3028  0.5144
 3318TIP3    H131589   6.587   0.865   7.522 -2.3054 -0.4278  0.2790
 3318TIP3    H231590   6.666   0.927   7.635  0.8600 -2.8270 -0.4876
 3319TIP3   OH231591   2.360   5.526   0.954  0.0759  0.0971 -0.3170
 3319TIP3    H131592   2.391   5.568   0.873 -0.3527  3.7471  1.2463
 3319TIP3    H231593   2.420   5.557   1.022 -0.8011 -1.2280  1.1280
 3320TIP3   OH231594   3.565   3.158   1.443 -0.4730 -0.1724 -0.4414
 3320TIP3    H131595   3.583   3.161   1.537 -2.5497  0.3628  0.0106
 3320TIP3    H231596   3.577   3.066   1.419 -2.5786 -0.9279  1.0285
 3321TIP3   OH231597   5.525   2.390   1.366  0.3833  0.0763  0.2548
 3321TIP3    H131598   5.490   2.346   1.443  0.2694  0.9752  0.7347
 3321TIP3    H231599   5.546   2.479   1.396 -2.3899  1.4439 -1.3946
 3322TIP3   OH231600   5.976   4.277   2.281  0.1401  0.1371  0.7294
 3322TIP3    H131601   5.972   4.182   2.293  0.5840  0.3129  2.4207
 3322TIP3    H231602   5.899   4.310   2.325 -0.1910  0.5653 -0.1448
 3323TIP3   OH231603   5.299   4.632   2.745  0.0890  0.3251 -0.0841
 3323TIP3    H131604   5.380   4.584   2.727  0.0899  0.3611 -0.1763
 3323TIP3    H231605   5.254   4.634   2.661  0.1387  0.5806 -0.1047
 3324TIP3   OH231606   4.706   1.977   7.101  0.2325 -0.3612 -0.3425
 3324TIP3    H131607   4.723   1.887   7.129  0.4876 -0.8246 -1.8627
 3324TIP3    H231608   4.792   2.013   7.082  0.1532  0.3113  0.5264
 3325TIP3   OH231609   6.314   4.446   1.427  0.5679  0.4321 -0.4215
 3325TIP3    H131610   6.295   4.527   1.378  3.1701  1.8685  0.7741
 3325TIP3    H231611   6.280   4.462   1.515  2.0709  0.7382  0.1343
 3326TIP3   OH231612   3.607   0.492   7.996 -0.2498  0.0902  0.7379
 3326TIP3    H131613   3.691   0.526   8.026 -0.6010  1.3456  0.3702
 3326TIP3    H231614   3.624   0.458   7.909 -0.5163  2.3857 -0.2992
 3327TIP3   OH231615   1.491   4.031   7.645  0.3162  0.1049 -0.1263
 3327TIP3    H131616   1.508   4.050   7.553  2.9079  1.8941  0.5856
 3327TIP3    H231617   1.507   3.937   7.653  2.5620  0.3343 -1.1186
 3328TIP3   OH231618   5.751   5.883   3.145  0.1132 -0.0096  0.6219
 3328TIP3    H131619   5.755   5.976   3.167 -0.6899 -0.1144  1.2666
 3328TIP3    H231620   5.842   5.855   3.140  0.4200  1.2067 -1.3417
 3329TIP3   OH231621   0.812   1.253   8.080  0.9365  0.1945  0.6727
 3329TIP3    H131622   0.812   1.173   8.132  1.6293 -0.7398 -0.6980
 3329TIP3    H231623   0.890   1.245   8.025  1.1695  1.9481  0.7021
 3330TIP3   OH231624   6.464   3.400   8.394 -0.2974 -0.1788 -0.3235
 3330TIP3    H131625   6.418   3.461   8.452  1.3310  0.2159  0.6292
 3330TIP3    H231626   6.400   3.378   8.326 -1.5246  1.1357  0.3550
 3331TIP3   OH231627   5.968   5.353   8.515 -0.0431 -0.2500  0.0436
 3331TIP3    H131628   5.981   5.439   8.556 -2.7101 -0.2932  1.1909
 3331TIP3    H231629   5.969   5.292   8.589  0.4602 -1.0315 -0.6055
 3332TIP3   OH231630   2.568   6.257   2.727  0.1002  0.1241 -0.3933
 3332TIP3    H131631   2.554   6.202   2.804 -1.0784  0.0851 -0.6296
 3332TIP3    H231632   2.551   6.346   2.758 -1.2905  0.0249 -0.8082
 3333TIP3   OH231633   2.163   1.709   7.708 -0.2107  0.3254 -0.3528
 3333TIP3    H131634   2.189   1.729   7.618 -1.8771  1.8862 -0.5216
 3333TIP3    H231635   2.244   1.679   7.750  1.2493  2.2918 -1.6132
 3334TIP3   OH231636   1.996   5.586   8.696 -0.2480  0.0655  0.0226
 3334TIP3    H131637   2.089   5.602   8.681 -0.0236 -1.3942 -0.2018
 3334TIP3    H231638   1.992   5.547   8.783 -0.4894 -1.1582 -0.5153
 3335TIP3   OH231639   3.527   6.549   0.366 -0.4099 -0.1933  0.0742
 3335TIP3    H131640   3.500   6.458   0.357 -0.4406 -0.1866  0.1017
 3335TIP3    H231641   3.599   6.559   0.303 -1.7116  0.3009 -1.3739
 3336TIP3   OH231642   3.322   5.886   2.103 -0.2305  0.4147 -0.1489
 3336TIP3    H131643   3.279   5.809   2.138 -0.6980  0.9906  0.5685
 3336TIP3    H231644   3.387   5.910   2.169 -0.4161  0.9127 -0.1417
 3337TIP3   OH231645   5.380   2.690   1.669 -0.4927 -0.3169  0.5759
 3337TIP3    H131646   5.382   2.747   1.746  0.4252 -0.3366  0.5800
 3337TIP3    H231647   5.462   2.710   1.623 -0.3684 -1.3104  0.3525
 3338TIP3   OH231648   0.475   5.159   0.884  0.2236 -0.0532  0.5464
 3338TIP3    H131649   0.447   5.171   0.974 -0.2975  1.2646  0.2299
 3338TIP3    H231650   0.556   5.209   0.877  0.8427 -1.0299  0.5513
 3339TIP3   OH231651   5.309   3.874   0.900  0.2984  0.0130 -0.5484
 3339TIP3    H131652   5.259   3.793   0.906  2.3490 -1.2935 -0.2534
 3339TIP3    H231653   5.303   3.912   0.988 -2.0041  1.0974 -1.0937
 3340TIP3   OH231654   6.033   0.638   0.754  0.2449  0.5979  0.0670
 3340TIP3    H131655   6.062   0.606   0.839  0.9818  1.2513  0.0760
 3340TIP3    H231656   5.966   0.704   0.773  1.1232  1.4711  0.1967
 3341TIP3   OH231657   1.261   4.266   0.986  0.0404 -0.3264 -0.0782
 3341TIP3    H131658   1.344   4.252   1.031  0.3434  1.6456  0.0278
 3341TIP3    H231659   1.271   4.222   0.902  1.6592  0.8864 -0.5526
 3342TIP3   OH231660   1.139   3.960   1.533  0.4167 -0.5011 -0.7672
 3342TIP3    H131661   1.223   3.951   1.488  1.0651  1.5533 -0.0840
 3342TIP3    H231662   1.101   3.873   1.530  2.6519 -1.5403 -0.9419
 3343TIP3   OH231663   2.472   6.792   1.408 -0.3000  0.8352  0.0390
 3343TIP3    H131664   2.491   6.873   1.455  1.5682 -0.4613  1.6698
 3343TIP3    H231665   2.545   6.781   1.347 -0.7602  0.5836 -0.4766
 3344TIP3   OH231666   1.557   0.022   2.060 -0.5975 -0.6697  0.6409
 3344TIP3    H131667   1.463   0.034   2.070 -0.3591  1.8342  0.5652
 3344TIP3    H231668   1.592   0.029   2.149 -0.4385 -1.3795  0.6428
 3345TIP3   OH231669   2.153   5.515   0.455  0.0426 -0.1546  0.1259
 3345TIP3    H131670   2.207   5.554   0.524 -0.1118 -2.0420  1.3957
 3345TIP3    H231671   2.126   5.430   0.491  0.1526 -1.3418 -2.3504
 3346TIP3   OH231672   0.724   4.164   2.046  0.1984  0.2137 -0.0212
 3346TIP3    H131673   0.643   4.115   2.056  1.4597 -1.8663  0.4389
 3346TIP3    H231674   0.777   4.113   1.984  1.5238  1.0378  0.3768
 3347TIP3   OH231675   6.685   2.553   0.681  0.1054 -0.2350 -0.0131
 3347TIP3    H131676   6.716   2.567   0.771  2.3506 -1.7428 -0.4695
 3347TIP3    H231677   6.657   2.640   0.652  0.2464  0.4693  1.8136
 3348TIP3   OH231678   5.637   1.016   7.966 -0.7407 -0.0552 -0.3378
 3348TIP3    H131679   5.606   1.099   8.002 -0.2979 -0.4598  1.0430
 3348TIP3    H231680   5.594   1.009   7.880 -1.9622  0.8710  0.1709
 3349TIP3   OH231681   5.534   0.791   8.431  0.2626  0.7908  0.1206
 3349TIP3    H131682   5.531   0.846   8.352  0.2281 -0.3018 -0.6633
 3349TIP3    H231683   5.593   0.837   8.490 -0.3571  2.0537 -0.2141
 3350TIP3   OH231684   2.882   1.516   8.228 -0.0737  0.2950  0.1433
 3350TIP3    H131685   2.938   1.577   8.277  0.0071  0.3282  0.0137
 3350TIP3    H231686   2.944   1.461   8.180 -0.1522  0.4607 -0.1542
 3351TIP3   OH231687   4.756   5.441   7.879 -0.3727  0.1357  0.2133
 3351TIP3    H131688   4.750   5.451   7.784 -1.7389 -0.5996  0.1994
 3351TIP3    H231689   4.788   5.352   7.891  0.6540  0.5173  0.4586
 3352TIP3   OH231690   3.959   4.488   1.680  0.8464  0.1839  0.1594
 3352TIP3    H131691   3.947   4.503   1.587 -0.5718 -0.3259  0.2354
 3352TIP3    H231692   3.954   4.575   1.720 -2.2379  0.1211  0.1009
 3353TIP3   OH231693   1.327   5.008   8.565  0.0251  0.0229  0.0084
 3353TIP3    H131694   1.330   4.955   8.645 -2.9537 -0.4294 -0.0427
 3353TIP3    H231695   1.385   5.082   8.583  1.7801 -1.5853  1.3554
 3354TIP3   OH231696   0.884   1.749   8.269 -0.3592  0.3176 -0.4342
 3354TIP3    H131697   0.879   1.766   8.175 -0.2240  1.1832 -0.2876
 3354TIP3    H231698   0.872   1.654   8.277 -2.8173  0.5184 -1.1451
 3355TIP3   OH231699   0.739   2.077   2.291  0.0492 -0.4153  0.1450
 3355TIP3    H131700   0.799   2.103   2.361 -0.4656 -0.6014  0.6562
 3355TIP3    H231701   0.704   2.160   2.258  1.9955 -0.1322 -1.4644
 3356TIP3   OH231702   0.082   1.552   2.364  0.4249  0.4489  0.1104
 3356TIP3    H131703   0.133   1.624   2.326  0.6312  0.5172  0.5114
 3356TIP3    H231704   0.117   1.542   2.452 -1.9861  2.2518  1.3831
 3357TIP3   OH231705   5.841   2.559   1.876  0.0342 -0.2768 -0.4863
 3357TIP3    H131706   5.823   2.469   1.903  1.5787 -0.7271 -0.8332
 3357TIP3    H231707   5.774   2.611   1.919 -0.1053 -1.4532  0.7929
 3358TIP3   OH231708   4.229   1.813   8.206  0.0110  0.4023 -0.1948
 3358TIP3    H131709   4.201   1.759   8.280  1.8701  0.5261  0.6562
 3358TIP3    H231710   4.150   1.825   8.154 -1.3991  0.4357  1.8424
 3359TIP3   OH231711   1.686   3.287   8.078 -0.5722 -0.0635  0.0612
 3359TIP3    H131712   1.714   3.260   7.991 -1.0303  0.1377 -0.1555
 3359TIP3    H231713   1.726   3.223   8.137 -0.8764 -0.6613 -0.3633
 3360TIP3   OH231714   1.479   4.210   7.841  0.3571  0.2000  0.7091
 3360TIP3    H131715   1.477   4.158   7.761 -2.1119 -1.5004  1.7398
 3360TIP3    H231716   1.569   4.201   7.874  0.4893 -1.9761 -0.0931
 3361TIP3   OH231717   0.205   5.261   2.672 -0.3903 -0.1908 -0.0926
 3361TIP3    H131718   0.288   5.308   2.667  1.0148 -2.5986 -1.3775
 3361TIP3    H231719   0.178   5.269   2.763  0.3701  1.9988 -0.0014
 3362TIP3   OH231720   2.942   4.909   2.170 -0.4511 -0.0127 -0.1297
 3362TIP3    H131721   3.013   4.971   2.156 -0.4667  0.0339 -0.0106
 3362TIP3    H231722   2.937   4.900   2.266  0.2098 -0.9592 -0.1672
 3363TIP3   OH231723   2.314   1.038   1.325  0.1235 -0.7386  0.5739
 3363TIP3    H131724   2.389   1.098   1.333 -0.8530  0.4466  1.1914
 3363TIP3    H231725   2.260   1.076   1.256  0.2353 -1.7756 -0.1068
 3364TIP3   OH231726   4.474   4.951   8.122  0.5782  0.6448  0.2675
 3364TIP3    H131727   4.543   5.017   8.112 -0.3354  1.3582 -2.1796
 3364TIP3    H231728   4.393   5.003   8.129  0.0773 -0.2013  0.8566
 3365TIP3   OH231729   6.017   4.502   0.983 -0.1094  0.7109  0.1308
 3365TIP3    H131730   6.012   4.507   1.079  1.1738 -2.8769  0.5565
 3365TIP3    H231731   6.107   4.474   0.966 -0.5791  0.3910 -2.0600
 3366TIP3   OH231732   0.054   4.546   8.374 -0.1489 -0.4954 -0.0397
 3366TIP3    H131733   0.085   4.480   8.436  0.8111 -0.0470 -0.0093
 3366TIP3    H231734   0.097   4.524   8.292  0.3070  0.1682  0.0110
 3367TIP3   OH231735   4.992   3.114   2.321  0.1186 -0.0796 -0.4644
 3367TIP3    H131736   5.019   3.088   2.409 -1.9728 -1.9974 -0.3089
 3367TIP3    H231737   5.073   3.144   2.279  0.7560  3.7741  2.9267
 3368TIP3   OH231738   6.226   1.351   1.974 -0.1639  0.4475 -0.3622
 3368TIP3    H131739   6.305   1.365   1.923  0.3828 -1.7560 -0.1837
 3368TIP3    H231740   6.183   1.437   1.975  0.7536  1.0159 -2.8734
 3369TIP3   OH231741   2.553   2.312   2.031 -0.1014  0.2163  0.2879
 3369TIP3    H131742   2.466   2.307   1.992  0.4536  0.9245 -1.0921
 3369TIP3    H231743   2.561   2.231   2.082 -2.0021  0.6803  1.4333
 3370TIP3   OH231744   3.040   2.960   2.046 -0.4138 -0.3901  0.3756
 3370TIP3    H131745   3.012   2.905   1.973 -0.5305 -1.5498  1.2700
 3370TIP3    H231746   2.981   3.035   2.045 -0.0337 -0.0901 -1.0763
 3371TIP3   OH231747   2.264   4.273   3.224 -0.1743  0.2505  0.0786
 3371TIP3    H131748   2.216   4.335   3.169 -1.1125  0.0965  0.7092
 3371TIP3    H231749   2.333   4.325   3.265  1.1196  0.1964 -1.8892
 3372TIP3   OH231750   5.081   4.313   2.151 -0.4026  0.1992  0.3637
 3372TIP3    H131751   5.015   4.339   2.087 -1.0713  1.2607  1.4416
 3372TIP3    H231752   5.147   4.383   2.146 -1.5169  1.5014  2.2867
 3373TIP3   OH231753   6.650   5.798   3.433  0.1435 -0.0540 -0.3216
 3373TIP3    H131754   6.586   5.844   3.487  0.2050  0.9191 -1.0471
 3373TIP3    H231755   6.652   5.847   3.351  1.8991  0.0191 -0.2752
 3374TIP3   OH231756   6.363   2.567   2.475 -0.6716  0.6297  0.2110
 3374TIP3    H131757   6.325   2.600   2.393 -2.1855  0.3366  0.7542
 3374TIP3    H231758   6.386   2.476   2.455 -0.4438  0.7484 -0.0725
 3375TIP3   OH231759   1.185   1.836   3.302  0.0725  0.1854  0.3889
 3375TIP3    H131760   1.098   1.815   3.267  0.3393  1.5292 -1.2394
 3375TIP3    H231761   1.179   1.929   3.325  1.6997  1.0377 -2.1172
 3376TIP3   OH231762   5.181   2.416   0.728 -0.1517  0.8920  0.3137
 3376TIP3    H131763   5.143   2.375   0.650 -1.7779 -0.1406  1.5741
 3376TIP3    H231764   5.259   2.365   0.747  0.3168  1.2119 -0.6543
 3377TIP3   OH231765   6.088   4.694   0.554 -0.0974 -0.8523  0.2455
 3377TIP3    H131766   6.183   4.698   0.564  0.0244  0.1085 -0.9556
 3377TIP3    H231767   6.059   4.785   0.560 -0.4055 -0.5250 -3.4076
 3378TIP3   OH231768   5.628   1.376   2.304  0.0093 -0.3162 -0.3227
 3378TIP3    H131769   5.558   1.411   2.359  0.4898  0.6005 -0.2675
 3378TIP3    H231770   5.703   1.434   2.320  1.0190 -1.6901  0.1670
 3379TIP3   OH231771   1.520   0.773   0.784  0.1014  0.1261 -0.4195
 3379TIP3    H131772   1.489   0.820   0.862  0.4588  1.0675 -0.8279
 3379TIP3    H231773   1.440   0.745   0.740 -0.1091 -1.4488  0.8641
 3380TIP3   OH231774   1.104   2.115   2.443  0.0286  0.0501 -0.8120
 3380TIP3    H131775   1.038   2.052   2.474 -0.5076  1.3056  0.7099
 3380TIP3    H231776   1.057   2.198   2.437  1.3122  0.8296 -0.3458
 3381TIP3   OH231777   6.776   6.732   8.733 -0.7141 -0.6600 -0.3037
 3381TIP3    H131778   6.699   6.702   8.686 -1.2728  0.9254 -0.4747
 3381TIP3    H231779   6.844   6.740   8.666 -0.3921 -2.0152 -0.1602
 3382TIP3   OH231780   4.102   3.553   2.365 -0.0927  0.0073  0.6445
 3382TIP3    H131781   4.022   3.512   2.331 -0.0379  0.4468 -0.0182
 3382TIP3    H231782   4.071   3.627   2.416 -0.1961 -0.8650  1.8918
 3383TIP3   OH231783   4.508   2.389   1.671  0.4714  0.0168  0.1384
 3383TIP3    H131784   4.478   2.462   1.617  1.0466  0.5479  0.5260
 3383TIP3    H231785   4.535   2.322   1.608  1.1071  0.6157 -0.2337
 3384TIP3   OH231786   1.964   0.153   8.617  0.3169 -0.6844  0.4626
 3384TIP3    H131787   1.921   0.118   8.696 -1.8719  1.6630  0.4439
 3384TIP3    H231788   1.909   0.123   8.545 -0.8282  1.4661  0.3466
 3385TIP3   OH231789   3.671   1.268   1.990 -0.3738  0.1274 -0.1995
 3385TIP3    H131790   3.659   1.358   2.023  0.0575  0.6319 -1.3595
 3385TIP3    H231791   3.693   1.217   2.068  0.4575  1.2483  0.3323
 3386TIP3   OH231792   2.154   2.586   1.088  0.1902  0.0568 -0.7347
 3386TIP3    H131793   2.071   2.590   1.040 -0.0279  0.5665 -0.3197
 3386TIP3    H231794   2.154   2.664   1.142  0.9292  0.0396 -0.7022
 3387TIP3   OH231795   3.142   3.688   1.570  0.3143  0.2396  0.2411
 3387TIP3    H131796   3.075   3.625   1.545 -0.2458  0.8528  0.1647
 3387TIP3    H231797   3.135   3.695   1.665 -0.4396  1.0584  0.1430
 3388TIP3   OH231798   5.824   1.790   2.081 -0.0822 -1.2958  0.0863
 3388TIP3    H131799   5.791   1.718   2.026 -0.6949  0.4669 -2.0232
 3388TIP3    H231800   5.755   1.856   2.076  1.4974  0.4176 -0.1227
 3389TIP3   OH231801   1.664   2.560   2.244 -0.7153 -0.2245  0.8033
 3389TIP3    H131802   1.587   2.551   2.188  0.3230  0.3802 -0.7905
 3389TIP3    H231803   1.709   2.638   2.212  0.5786 -0.5617  1.6826
 3390TIP3   OH231804   0.237   2.323   1.135  0.0994  0.5764 -0.2294
 3390TIP3    H131805   0.176   2.396   1.126 -0.3616  0.0706 -1.4988
 3390TIP3    H231806   0.251   2.293   1.045  0.7934 -0.4700  0.2129
 3391TIP3   OH231807   0.280   3.712   2.682  0.7093 -0.4059 -0.1413
 3391TIP3    H131808   0.373   3.706   2.704  0.4100 -2.1246  0.8479
 3391TIP3    H231809   0.241   3.634   2.721 -1.0205 -0.1594 -1.2557
 3392TIP3   OH231810   3.277   0.103   0.739  0.2003  0.4839 -0.2948
 3392TIP3    H131811   3.328   0.182   0.757  0.2492  0.0357  1.7660
 3392TIP3    H231812   3.338   0.031   0.750 -0.1956  0.0700 -0.7214
 3393TIP3   OH231813   2.486   5.466   0.690  0.7266 -0.1065  0.4790
 3393TIP3    H131814   2.550   5.486   0.758  1.4731  0.3232 -0.3415
 3393TIP3    H231815   2.531   5.484   0.607  1.4941 -4.8197 -0.4401
 3394TIP3   OH231816   3.754   5.964   0.551  0.1361 -0.0303 -0.6000
 3394TIP3    H131817   3.726   5.993   0.638  0.8706 -0.5180 -0.1961
 3394TIP3    H231818   3.822   5.899   0.567 -0.4885 -0.9540 -1.5226
 3395TIP3   OH231819   3.265   4.363   8.559  0.0251 -0.4936  0.0968
 3395TIP3    H131820   3.282   4.437   8.500  0.9141  0.1541  1.1121
 3395TIP3    H231821   3.332   4.372   8.627 -1.4889 -0.7012  1.6736
 3396TIP3   OH231822   5.067   4.240   3.445  0.1048 -0.0376  0.2928
 3396TIP3    H131823   5.111   4.179   3.504  0.5611 -1.3884 -1.3754
 3396TIP3    H231824   4.978   4.205   3.435  0.7399 -1.2078 -1.6552
 3397TIP3   OH231825   3.819   3.217   0.657  0.3353 -0.2481 -0.6530
 3397TIP3    H131826   3.874   3.288   0.691  0.8960 -0.2103 -1.6127
 3397TIP3    H231827   3.750   3.261   0.607  1.2447 -0.3756 -2.0817
 3398TIP3   OH231828   3.736   2.130   0.447 -0.0462 -0.2495  0.4372
 3398TIP3    H131829   3.765   2.039   0.435  1.5813 -0.0144  2.1320
 3398TIP3    H231830   3.663   2.124   0.510 -1.0309 -0.4876 -0.6936
 3399TIP3   OH231831   2.546   2.437   1.354  0.1364 -0.5545 -0.8132
 3399TIP3    H131832   2.561   2.502   1.285  0.2027 -2.0280 -2.2401
 3399TIP3    H231833   2.457   2.455   1.384  0.2209  0.3093 -1.0423
 3400TIP3   OH231834   4.760   4.645   1.360  0.4197  0.2628  0.0552
 3400TIP3    H131835   4.738   4.734   1.387  3.2368  0.7542  1.0126
 3400TIP3    H231836   4.749   4.646   1.265 -0.6160  1.2828  0.1538
 3401TIP3   OH231837   6.030   1.601   1.549  0.6636  0.1929  0.2001
 3401TIP3    H131838   5.976   1.586   1.471  2.0965  0.3338 -0.8635
 3401TIP3    H231839   6.026   1.518   1.597 -0.3446  0.1482  0.0582
 3402TIP3   OH231840   5.087   2.233   8.214 -0.6796 -0.5565 -0.2148
 3402TIP3    H131841   5.076   2.313   8.266 -0.9460 -0.8822  0.2293
 3402TIP3    H231842   5.007   2.183   8.228  0.5777 -2.1766  1.7248
 3403TIP3   OH231843   1.045   1.223   0.940 -0.2461  0.3663 -0.2853
 3403TIP3    H131844   1.005   1.279   0.874 -0.9174  0.3694  0.1218
 3403TIP3    H231845   0.978   1.157   0.959  0.9190 -1.3230 -1.6214
 3404TIP3   OH231846   5.095   0.405   7.674 -0.3337  0.0135  0.2246
 3404TIP3    H131847   5.119   0.480   7.728  0.7920  0.4594 -0.8239
 3404TIP3    H231848   5.004   0.421   7.650 -0.5520  0.2818  1.2204
 3405TIP3   OH231849   5.809   5.495   0.776 -0.0122  0.4033  0.1665
 3405TIP3    H131850   5.874   5.565   0.775 -0.0865  0.4677 -0.0464
 3405TIP3    H231851   5.725   5.540   0.777 -0.0613  0.3154 -0.0412
 3406TIP3   OH231852   6.775   5.330   3.371 -0.2128 -0.1215  0.4164
 3406TIP3    H131853   6.805   5.396   3.432 -0.8200 -0.5362  1.1803
 3406TIP3    H231854   6.754   5.254   3.426  0.4038 -0.9259 -0.4276
 3407TIP3   OH231855   5.239   5.257   3.411 -1.0283  0.0954  0.0388
 3407TIP3    H131856   5.245   5.278   3.318 -0.4243 -0.9802 -0.1779
 3407TIP3    H231857   5.302   5.315   3.453  1.4970 -1.9711 -0.6854
 3408TIP3   OH231858   4.863   2.901   8.051  0.3626  0.3583  0.1261
 3408TIP3    H131859   4.957   2.885   8.043  0.1961  0.2907 -2.3517
 3408TIP3    H231860   4.842   2.962   7.981 -1.9931 -2.3364 -1.7846
 3409TIP3   OH231861   5.154   0.797   1.179 -0.5341  0.7713 -0.0472
 3409TIP3    H131862   5.188   0.711   1.157  1.3733  1.0572  1.5521
 3409TIP3    H231863   5.140   0.795   1.274 -1.1498  2.0001 -0.0832
 3410TIP3   OH231864   6.161   0.514   7.486  0.3985  0.1546  0.3474
 3410TIP3    H131865   6.097   0.491   7.419  0.8181 -0.6158  0.1984
 3410TIP3    H231866   6.172   0.609   7.478 -0.5248  0.2590  0.2066
 3411TIP3   OH231867   4.140   5.872   8.098 -0.0522 -0.3325 -0.1672
 3411TIP3    H131868   4.171   5.793   8.141 -0.2270  0.4096  1.4115
 3411TIP3    H231869   4.219   5.924   8.083  0.1393 -1.0657 -1.8053
 3412TIP3   OH231870   2.642   3.565   0.340 -0.4666  0.3781 -0.5371
 3412TIP3    H131871   2.578   3.493   0.345 -0.2002  0.2141  0.9469
 3412TIP3    H231872   2.725   3.521   0.322 -0.3736  0.3474 -0.0455
 3413TIP3   OH231873   5.365   2.220   8.573  0.7310 -0.3183  0.0674
 3413TIP3    H131874   5.438   2.262   8.619  0.4496  0.8600 -0.5250
 3413TIP3    H231875   5.404   2.183   8.494  0.8141 -0.2858  0.0937
 3414TIP3   OH231876   6.399   3.422   1.501 -0.1949  0.6152  0.4230
 3414TIP3    H131877   6.335   3.354   1.481  0.2109 -0.4634  2.4709
 3414TIP3    H231878   6.412   3.415   1.596  0.4159  3.0814  0.5825
 3415TIP3   OH231879   1.660   0.983   7.792 -0.2647  0.2418  0.1165
 3415TIP3    H131880   1.683   1.044   7.862 -2.5482  0.3257  0.8770
 3415TIP3    H231881   1.644   0.900   7.837 -1.0261  0.1072 -0.3721
 3416TIP3   OH231882   6.684   4.904   1.582 -0.2428 -0.3954 -0.0348
 3416TIP3    H131883   6.681   5.000   1.575 -1.7624 -0.3752  0.6358
 3416TIP3    H231884   6.700   4.887   1.675 -1.1456 -0.7915  0.0526
 3417TIP3   OH231885   6.093   2.333   3.317 -0.0026 -0.2235 -0.1260
 3417TIP3    H131886   6.175   2.338   3.268 -0.7156 -2.7812 -1.7382
 3417TIP3    H231887   6.072   2.424   3.337  2.4255  0.6107 -0.9754
 3418TIP3   OH231888   5.584   6.079   2.371 -0.1354 -0.0136  1.0520
 3418TIP3    H131889   5.639   6.114   2.300 -1.0982  2.3140  1.3426
 3418TIP3    H231890   5.646   6.045   2.435  1.0037  2.1756  1.2083
 3419TIP3   OH231891   1.176   6.009   0.684 -0.5782  0.0527  0.2774
 3419TIP3    H131892   1.095   6.057   0.699  0.2319  1.0996  1.5865
 3419TIP3    H231893   1.236   6.075   0.647 -0.7684 -1.0943 -2.2507
 3420TIP3   OH231894   5.304   1.794   2.836  0.2277  0.0730  0.5488
 3420TIP3    H131895   5.237   1.752   2.889  1.0580  0.4493  1.9398
 3420TIP3    H231896   5.314   1.882   2.873 -0.5303  1.0865 -1.4685
 3421TIP3   OH231897   1.284   1.289   2.303  0.3177 -0.0772  0.1525
 3421TIP3    H131898   1.265   1.220   2.239  0.1937 -0.5237  0.6608
 3421TIP3    H231899   1.380   1.294   2.304  0.3265 -0.2130  0.0797
 3422TIP3   OH231900   5.980   2.848   2.472 -0.4338  0.6358 -0.1753
 3422TIP3    H131901   6.022   2.849   2.387  1.5843  1.5439  0.7792
 3422TIP3    H231902   5.952   2.938   2.487  0.2127  0.7276  0.5643
 3423TIP3   OH231903   6.303   0.797   1.016 -0.2404  0.7116 -0.1436
 3423TIP3    H131904   6.264   0.710   1.011 -0.1971  0.7515 -2.5210
 3423TIP3    H231905   6.323   0.809   1.108  3.0042 -3.2628 -0.0145
 3424TIP3   OH231906   1.105   1.664   8.497 -0.2452  0.1455 -0.5444
 3424TIP3    H131907   1.130   1.723   8.426 -1.4202  0.3140 -0.8395
 3424TIP3    H231908   1.010   1.654   8.488 -0.3844 -0.0038  0.8687
 3425TIP3   OH231909   3.415   6.653   0.601 -0.5759  0.1536 -0.7879
 3425TIP3    H131910   3.442   6.596   0.673 -0.0604  0.8512 -0.4218
 3425TIP3    H231911   3.407   6.594   0.526 -0.4759 -0.4708 -0.3172
 3426TIP3   OH231912   5.196   6.259   1.213  0.1102 -0.2396  0.3876
 3426TIP3    H131913   5.133   6.331   1.216  0.7261  0.3346 -0.0898
 3426TIP3    H231914   5.276   6.296   1.250 -0.0721 -1.2415  1.9103
 3427TIP3   OH231915   3.468   0.387   8.245 -0.1070  0.5020  0.2847
 3427TIP3    H131916   3.518   0.401   8.164 -1.6520 -1.4175 -1.1081
 3427TIP3    H231917   3.399   0.453   8.242 -1.5388 -0.9465 -1.2507
 3428TIP3   OH231918   3.756   5.005   2.207 -0.1875 -0.2912  0.3388
 3428TIP3    H131919   3.752   5.064   2.282  4.7294 -0.4724  1.0808
 3428TIP3    H231920   3.738   5.061   2.131 -0.8765  0.9138  1.3524
 3429TIP3   OH231921   1.374   0.086   1.781  0.8644  0.4389  0.5210
 3429TIP3    H131922   1.351   0.109   1.691 -2.0778 -0.3634  0.9538
 3429TIP3    H231923   1.324   0.147   1.835  2.6349  0.9512  1.6715
 3430TIP3   OH231924   3.382   0.629   1.200 -0.6657 -0.6857 -0.1629
 3430TIP3    H131925   3.469   0.634   1.240 -1.5544 -1.1700  1.9956
 3430TIP3    H231926   3.331   0.575   1.261 -3.3072  2.0812  0.3175
 3431TIP3   OH231927   0.399   5.417   0.321 -0.2158  0.4940 -0.0022
 3431TIP3    H131928   0.425   5.330   0.350  1.4503  0.8577 -0.2890
 3431TIP3    H231929   0.422   5.475   0.394  0.1752  0.8873 -0.4313
 3432TIP3   OH231930   1.165   1.708   2.944 -0.1159  0.7838 -0.0667
 3432TIP3    H131931   1.096   1.646   2.920  0.0772  0.5635 -0.0639
 3432TIP3    H231932   1.122   1.771   3.001 -0.3002  0.6116 -0.0137
 3433TIP3   OH231933   3.165   5.979   1.713 -0.1533 -0.0401 -0.0344
 3433TIP3    H131934   3.211   5.965   1.630 -0.8893 -1.2601 -0.2539
 3433TIP3    H231935   3.193   6.066   1.740  3.8454 -1.3797  0.8422
 3434TIP3   OH231936   4.111   3.101   0.019  0.1812 -0.6544  0.5571
 3434TIP3    H131937   4.020   3.122   0.041 -0.4832 -2.4927 -0.2065
 3434TIP3    H231938   4.142   3.046   0.091  0.3528 -0.8190  0.3619
 3435TIP3   OH231939   2.206   2.726   8.404 -0.9363  0.3116 -0.0152
 3435TIP3    H131940   2.231   2.640   8.436  2.2884  1.1444  0.0604
 3435TIP3    H231941   2.193   2.779   8.482 -0.3808  0.5105 -0.0535
 3436TIP3   OH231942   5.653   0.732   8.773  0.2579 -0.2344 -0.4125
 3436TIP3    H131943   5.647   0.658   8.712  2.8655 -2.2836  1.5880
 3436TIP3    H231944   5.698   0.800   8.724  0.2809 -0.9949 -1.4839
 3437TIP3   OH231945   4.445   5.843   8.295  0.3686 -0.5078 -0.0552
 3437TIP3    H131946   4.382   5.865   8.362 -0.2037 -0.0442 -0.7319
 3437TIP3    H231947   4.444   5.747   8.291 -0.9901 -0.4853 -0.7015
 3438TIP3   OH231948   4.652   6.405   7.920 -0.3458  0.2478  0.0592
 3438TIP3    H131949   4.566   6.446   7.927 -0.1336  0.6975  0.1233
 3438TIP3    H231950   4.689   6.439   7.839 -0.5255 -0.5330 -0.3587
 3439TIP3   OH231951   1.174   5.294   0.736 -0.1044 -0.1682  0.2015
 3439TIP3    H131952   1.148   5.381   0.705  0.0142 -0.3381 -0.3932
 3439TIP3    H231953   1.257   5.308   0.782  0.9267 -0.2248 -1.5602
 3440TIP3   OH231954   0.265   5.946   0.610  0.9478 -0.3787 -0.1043
 3440TIP3    H131955   0.355   5.963   0.635  0.5474  1.9598 -0.0151
 3440TIP3    H231956   0.271   5.899   0.527  2.2667  0.5168 -0.5409
 3441TIP3   OH231957   3.729   1.632   1.356 -0.3257 -0.0448  0.3330
 3441TIP3    H131958   3.811   1.631   1.306 -0.1172 -0.7056  0.6707
 3441TIP3    H231959   3.746   1.691   1.429  0.6421 -1.8386  1.6425
 3442TIP3   OH231960   1.353   3.646   8.119 -0.1250  0.0262 -0.2654
 3442TIP3    H131961   1.320   3.717   8.174 -2.6764 -1.5373  0.3921
 3442TIP3    H231962   1.421   3.604   8.172 -1.2693 -0.3210  0.9985
 3443TIP3   OH231963   2.718   2.456   1.847  0.1846  0.5732 -0.0069
 3443TIP3    H131964   2.802   2.412   1.840  0.7586  1.5125  0.8013
 3443TIP3    H231965   2.663   2.396   1.897  0.3790 -0.0208 -0.4999
 3444TIP3   OH231966   2.136   3.363   1.161 -0.2709 -0.3641  0.6132
 3444TIP3    H131967   2.065   3.305   1.191  1.3607 -2.3228  0.9054
 3444TIP3    H231968   2.189   3.378   1.240  0.4215 -0.1134  0.1072
 3445TIP3   OH231969   3.903   2.789   2.983 -0.1298 -0.3274  0.0637
 3445TIP3    H131970   3.981   2.751   2.943  0.6394 -1.8475  2.7289
 3445TIP3    H231971   3.836   2.721   2.974  0.1115 -0.7709  1.4314
 3446TIP3   OH231972   2.317   6.385   0.124  0.1587 -0.9385 -0.3064
 3446TIP3    H131973   2.290   6.299   0.093 -0.6152 -1.3665  1.4625
 3446TIP3    H231974   2.387   6.368   0.187  0.2135 -0.2480 -0.1698
 3447TIP3   OH231975   2.748   4.074   1.705 -0.1399 -0.0644 -0.0045
 3447TIP3    H131976   2.675   4.133   1.726  0.1472  0.6230 -0.8702
 3447TIP3    H231977   2.815   4.131   1.668  0.2178 -0.9140 -0.7050
 3448TIP3   OH231978   3.080   0.992   8.597 -0.4761 -0.6038 -0.4022
 3448TIP3    H131979   3.032   1.072   8.618  1.1366  0.1852  0.4954
 3448TIP3    H231980   3.123   0.968   8.679  1.9684 -0.3106 -1.5004
 3449TIP3   OH231981   6.020   6.457   0.499  0.3129  0.2037  0.8899
 3449TIP3    H131982   6.001   6.421   0.586 -0.5957 -0.9596  0.2503
 3449TIP3    H231983   5.934   6.481   0.465  0.5373 -0.3098 -0.0734
 3450TIP3   OH231984   6.748   5.502   7.695 -0.1197 -0.3967 -0.3741
 3450TIP3    H131985   6.679   5.537   7.638 -0.4934 -0.4694  0.0298
 3450TIP3    H231986   6.826   5.552   7.672 -0.0901 -0.9113 -1.4627
 3451TIP3   OH231987   3.071   6.644   1.545 -0.4697  0.2111 -0.1765
 3451TIP3    H131988   3.051   6.705   1.616 -0.8428  1.5568 -1.3902
 3451TIP3    H231989   2.997   6.652   1.485  0.6708  0.4747 -1.5927
 3452TIP3   OH231990   1.270   5.332   0.087 -0.2826 -0.5334 -0.0118
 3452TIP3    H131991   1.191   5.289   0.053 -1.2903  0.7736  0.6074
 3452TIP3    H231992   1.275   5.415   0.039 -0.5733  0.4126  1.5219
 3453TIP3   OH231993   6.601   6.587   8.575 -0.0192  0.3816 -0.6074
 3453TIP3    H131994   6.619   6.502   8.535  0.6758  1.0447 -1.7422
 3453TIP3    H231995   6.557   6.565   8.657 -1.7663 -1.0222 -1.8380
 3454TIP3   OH231996   4.843   1.792   0.467  0.4052 -0.3294  0.6332
 3454TIP3    H131997   4.886   1.876   0.477  0.7473 -0.5744  1.2995
 3454TIP3    H231998   4.806   1.774   0.554 -0.7398 -0.2856  0.1755
 3455TIP3   OH231999   0.698   4.872   0.397  0.3011 -0.3024 -0.2541
 3455TIP3    H132000   0.627   4.878   0.462  0.0833  2.3943 -0.5977
 3455TIP3    H232001   0.778   4.887   0.447  0.3656 -0.6350 -0.2580
 3456TIP3   OH232002   5.987   5.131   1.358  0.8405 -0.4657  0.0277
 3456TIP3    H132003   6.062   5.096   1.309 -0.2216 -1.0739 -1.2259
 3456TIP3    H232004   5.916   5.134   1.294 -0.1831  0.2112  1.1547
 3457TIP3   OH232005   0.976   5.962   7.100  0.2015  0.2122  0.6084
 3457TIP3    H132006   0.882   5.969   7.084 -0.2202 -0.2633  2.5136
 3457TIP3    H232007   0.984   5.885   7.157  1.8844 -0.3975 -0.4000
 3458TIP3   OH232008   1.721   1.065   1.445  0.0260 -1.1770  0.4527
 3458TIP3    H132009   1.752   1.037   1.531 -1.7649  0.7363  1.8072
 3458TIP3    H232010   1.648   1.006   1.425  0.0773 -1.2584  0.5050
 3459TIP3   OH232011   1.249   5.685   1.271  0.1680 -0.2023 -0.2769
 3459TIP3    H132012   1.259   5.667   1.364 -0.0742 -2.3315 -0.6144
 3459TIP3    H232013   1.184   5.756   1.267  2.9578  2.7039  1.2623
 3460TIP3   OH232014   4.680   5.938   2.579 -0.1115 -0.3597  0.5984
 3460TIP3    H132015   4.688   5.878   2.653  4.5711  0.8145  1.3900
 3460TIP3    H232016   4.661   6.023   2.619 -0.9132 -0.3052  0.1052
 3461TIP3   OH232017   4.183   6.621   7.309 -0.1546 -0.1259 -0.6009
 3461TIP3    H132018   4.242   6.588   7.377  0.1113 -0.1747 -0.8517
 3461TIP3    H232019   4.242   6.658   7.243 -0.4072 -0.1427 -0.8369
 3462TIP3   OH232020   6.490   6.266   0.344  0.0248 -0.2610  0.3349
 3462TIP3    H132021   6.527   6.206   0.408  0.9377 -1.1318 -0.9567
 3462TIP3    H232022   6.456   6.339   0.396  0.5406 -1.0303  1.8029
 3463TIP3   OH232023   1.174   5.481   2.250 -0.6647  0.3295  0.0020
 3463TIP3    H132024   1.247   5.434   2.211  0.6225 -0.1710  2.7276
 3463TIP3    H232025   1.215   5.543   2.310 -2.4570  0.9257  0.6927
 3464TIP3   OH232026   2.079   3.144   7.335  0.1492  1.1119 -0.2308
 3464TIP3    H132027   2.019   3.216   7.318  0.7709  1.2912 -1.9084
 3464TIP3    H232028   2.101   3.110   7.248  0.6069 -0.5052  0.4668
 3465TIP3   OH232029   6.669   1.515   2.301 -0.0419  0.7193  0.1773
 3465TIP3    H132030   6.760   1.529   2.326  0.4410  0.1802 -1.1837
 3465TIP3    H232031   6.668   1.428   2.259 -1.5400 -0.1121  1.7934
 3466TIP3   OH232032   4.562   2.118   8.420  0.0316 -0.0002 -0.4980
 3466TIP3    H132033   4.572   2.026   8.397  2.3386 -0.1631  0.8352
 3466TIP3    H232034   4.613   2.129   8.500 -0.2143  2.4289 -0.5775
 3467TIP3   OH232035   3.557   3.165   8.503 -0.1141  0.8650 -0.0787
 3467TIP3    H132036   3.633   3.139   8.555  0.8049  3.4696  0.0098
 3467TIP3    H232037   3.585   3.245   8.458 -2.0719  0.6489 -1.8246
 3468TIP3   OH232038   2.089   3.638   1.651  0.1978 -0.0665  0.4146
 3468TIP3    H132039   1.995   3.655   1.642  0.0325  0.0362  2.0053
 3468TIP3    H232040   2.127   3.663   1.567 -1.1523  0.2413 -0.1166
 3469TIP3   OH232041   1.636   4.061   0.320  0.0728  0.4106 -0.3295
 3469TIP3    H132042   1.695   3.996   0.359  0.0511 -0.6774 -2.0193
 3469TIP3    H232043   1.614   4.119   0.393 -0.7442 -2.0698  1.5764
 3470TIP3   OH232044   4.583   1.678   1.903  0.2157 -0.2849  0.2984
 3470TIP3    H132045   4.564   1.628   1.982 -1.0829  0.0826  0.2430
 3470TIP3    H232046   4.644   1.622   1.853 -0.2715 -1.2690  0.7778
 3471TIP3   OH232047   3.394   0.113   8.262  0.0702  0.0702 -0.0345
 3471TIP3    H132048   3.444   0.190   8.290  0.5180 -1.0197  2.4212
 3471TIP3    H232049   3.303   0.134   8.282  0.2377 -0.1562  1.0423
 3472TIP3   OH232050   0.904   5.842   2.024 -0.1913 -0.3841 -0.2877
 3472TIP3    H132051   0.897   5.827   2.118  1.8528 -1.9282 -0.3308
 3472TIP3    H232052   0.818   5.817   1.989 -0.6125 -0.8608  1.0309
 3473TIP3   OH232053   1.406   6.326   0.129  0.0339 -0.2614 -0.7260
 3473TIP3    H132054   1.372   6.255   0.183  0.4069 -0.4900 -0.7887
 3473TIP3    H232055   1.488   6.291   0.092  0.9641  0.6967  0.3594
 3474TIP3   OH232056   4.662   5.086   1.731 -0.2168 -0.6867 -0.1270
 3474TIP3    H132057   4.666   5.177   1.702  1.0857 -0.1404  1.6199
 3474TIP3    H232058   4.729   5.041   1.680 -0.5031 -0.5698 -0.6146
 3475TIP3   OH232059   2.761   0.607   7.697  0.5547  0.6505 -0.3524
 3475TIP3    H132060   2.765   0.703   7.701 -0.8326  0.7739 -1.3221
 3475TIP3    H232061   2.669   0.586   7.715  0.4298 -0.3733 -2.0379
 3476TIP3   OH232062   5.522   5.508   2.594 -0.4385  0.0444  0.2945
 3476TIP3    H132063   5.558   5.552   2.516  0.2891 -0.4505  0.3396
 3476TIP3    H232064   5.580   5.433   2.607 -1.9582 -1.2400 -0.0883
 3477TIP3   OH232065   4.231   3.447   1.045 -0.5600 -0.4894 -0.5423
 3477TIP3    H132066   4.182   3.408   1.118 -2.3817 -0.3523 -1.6193
 3477TIP3    H232067   4.322   3.425   1.063 -1.0867 -1.5630  1.1036
 3478TIP3   OH232068   1.922   4.465   2.244 -0.3516 -0.1800  0.0600
 3478TIP3    H132069   1.852   4.477   2.308 -0.2093 -0.0315  0.1897
 3478TIP3    H232070   1.878   4.434   2.165 -0.9897  2.8086 -0.8545
 3479TIP3   OH232071   2.744   2.419   0.417  0.0502  0.2867  0.1260
 3479TIP3    H132072   2.802   2.495   0.417  1.0769 -0.4565 -1.4397
 3479TIP3    H232073   2.659   2.455   0.389  0.6425  0.8150 -1.0883
 3480TIP3   OH232074   0.768   1.957   7.200  0.2489 -0.6489  0.1696
 3480TIP3    H132075   0.858   1.987   7.193  0.8033 -1.9875  1.1063
 3480TIP3    H232076   0.728   1.979   7.116  1.4812 -0.1645 -0.3033
 3481TIP3   OH232077   0.025   6.744   1.380  0.1201 -0.4422 -0.6487
 3481TIP3    H132078   0.011   6.834   1.350  0.0405  0.0328  0.7596
 3481TIP3    H232079  -0.052   6.697   1.348 -0.8480  0.4418  0.3225
 3482TIP3   OH232080   5.061   6.161   0.522 -0.7055  0.4092  0.6891
 3482TIP3    H132081   4.990   6.104   0.490 -0.1229  0.5803 -1.0169
 3482TIP3    H232082   5.130   6.151   0.457 -0.1166  2.1474  1.0016
 3483TIP3   OH232083   1.872   5.176   7.291 -0.1823  0.3542 -0.7209
 3483TIP3    H132084   1.854   5.110   7.223  0.0320 -0.0310 -0.4090
 3483TIP3    H232085   1.959   5.209   7.270  0.8147 -1.2893  0.5607
 3484TIP3   OH232086   0.882   3.499   7.687 -0.2676 -0.3524 -0.1668
 3484TIP3    H132087   0.925   3.584   7.681 -0.0531 -0.1182  3.1564
 3484TIP3    H232088   0.788   3.520   7.679 -0.1803  0.0923 -0.0566
 3485TIP3   OH232089   0.731   5.179   1.851  0.4466 -0.2740  0.5764
 3485TIP3    H132090   0.758   5.137   1.933 -0.4294  0.2074  1.1297
 3485TIP3    H232091   0.797   5.246   1.836  0.4770 -0.2003  1.0260
 3486TIP3   OH232092   4.245   5.405   8.561 -0.4612 -0.0541 -0.4514
 3486TIP3    H132093   4.158   5.424   8.523  0.0289  2.7480 -0.3927
 3486TIP3    H232094   4.245   5.452   8.644  0.2858 -2.0393  0.7104
 3487TIP3   OH232095   1.168   2.418   7.653 -0.8496 -0.4060  0.0020
 3487TIP3    H132096   1.216   2.494   7.620 -0.7009 -0.8780 -0.9058
 3487TIP3    H232097   1.123   2.383   7.576 -1.4559 -0.8473  0.5451
 3488TIP3   OH232098   6.753   5.394   3.114 -0.4026 -0.2380 -0.1022
 3488TIP3    H132099   6.688   5.462   3.131 -1.0625 -0.6528 -0.9039
 3488TIP3    H232100   6.769   5.354   3.200 -0.0769  0.8444  0.3620
 3489TIP3   OH232101   3.086   6.686   0.570  0.1415 -0.4198  0.3703
 3489TIP3    H132102   3.169   6.685   0.617 -0.8183 -2.5309  2.2197
 3489TIP3    H232103   3.108   6.659   0.481  1.3069 -2.6502  1.2512
 3490TIP3   OH232104   6.462   3.162   1.939 -0.3583  0.3429 -0.5312
 3490TIP3    H132105   6.536   3.179   1.998 -1.0240 -1.3873  0.8839
 3490TIP3    H232106   6.482   3.077   1.900 -0.9853  0.4724 -1.1533
 3491TIP3   OH232107   4.424   1.247   0.311  0.4495 -0.2352 -0.6073
 3491TIP3    H132108   4.396   1.327   0.355  1.4505 -0.0229 -0.3196
 3491TIP3    H232109   4.376   1.176   0.354  1.0583  0.0170  0.5059
 3492TIP3   OH232110   4.947   5.393   8.603  0.0639 -0.1536  0.1144
 3492TIP3    H132111   4.931   5.303   8.576 -1.0775  0.0124  0.1810
 3492TIP3    H232112   4.919   5.395   8.695  0.7818  0.0929  0.3338
 3493TIP3   OH232113   1.727   1.452   7.511 -0.1351  0.0441  0.0339
 3493TIP3    H132114   1.646   1.504   7.511 -0.7327 -0.8593  0.5507
 3493TIP3    H232115   1.795   1.514   7.539 -0.7457  0.6687  0.1626
 3494TIP3   OH232116   1.684   5.031   8.232 -0.4970 -0.3569 -0.1929
 3494TIP3    H132117   1.616   5.013   8.167  0.3845 -0.3653 -1.1509
 3494TIP3    H232118   1.763   4.990   8.195 -0.0520 -0.6796  1.0724
 3495TIP3   OH232119   3.135   3.797   8.430 -0.0391  0.3391  0.8295
 3495TIP3    H132120   3.077   3.734   8.473  0.0605 -0.6343 -0.3906
 3495TIP3    H232121   3.201   3.818   8.496 -0.0314 -0.8998  1.2388
 3496TIP3   OH232122   1.052   0.352   2.227  0.4920 -0.1595  0.3863
 3496TIP3    H132123   1.127   0.302   2.260  0.6183 -0.2033  0.0414
 3496TIP3    H232124   1.086   0.397   2.149 -0.4571 -2.1377 -1.2620
 3497TIP3   OH232125   1.858   5.217   7.864 -0.1173 -0.0246 -0.7456
 3497TIP3    H132126   1.834   5.126   7.847 -1.2216  0.2523 -0.6861
 3497TIP3    H232127   1.781   5.256   7.904  0.1611  1.0824 -1.2474
 3498TIP3   OH232128   3.227   1.920   3.072  0.2896  0.1110  0.0024
 3498TIP3    H132129   3.319   1.903   3.052  0.5452  1.0318  0.3479
 3498TIP3    H232130   3.227   1.950   3.163 -0.3933 -0.1482  0.1014
 3499TIP3   OH232131   1.403   6.423   1.324  0.4995  0.5926  0.1711
 3499TIP3    H132132   1.376   6.456   1.409  0.2548  2.3208 -0.5295
 3499TIP3    H232133   1.334   6.454   1.264  1.5968  0.9927 -0.9161
 3500TIP3   OH232134   6.484   2.017   8.270  0.1108 -0.1763 -0.5013
 3500TIP3    H132135   6.433   1.993   8.347  0.8404  1.4756  0.5768
 3500TIP3    H232136   6.518   1.935   8.237  0.6624 -0.8706  1.6028
 3501TIP3   OH232137   0.075   6.444   1.772  0.3032 -0.4441 -0.3452
 3501TIP3    H132138   0.085   6.391   1.694  1.5439 -0.1130 -0.4319
 3501TIP3    H232139   0.013   6.513   1.747 -1.2168 -1.7254 -0.2650
 3502TIP3   OH232140   4.772   1.075   0.734 -0.2787  0.1480 -0.0599
 3502TIP3    H132141   4.703   1.068   0.669 -1.4128 -0.1748  1.1506
 3502TIP3    H232142   4.835   1.007   0.710 -0.9350 -0.3082 -0.5183
 3503TIP3   OH232143   5.201   6.781   0.337  0.2738  0.4562  0.0580
 3503TIP3    H132144   5.215   6.696   0.378 -0.7450 -0.1505 -0.7977
 3503TIP3    H232145   5.238   6.771   0.249 -0.8816  0.4893 -0.4512
 3504TIP3   OH232146   4.664   0.273   2.278  0.1579 -0.0144  0.1559
 3504TIP3    H132147   4.709   0.354   2.253 -0.0826 -0.4210 -1.7281
 3504TIP3    H232148   4.587   0.302   2.327 -1.0929  1.0627 -2.3157
 3505TIP3   OH232149   0.067   6.296   2.395 -0.3231  0.5325  0.4638
 3505TIP3    H132150   0.137   6.359   2.413 -0.3417  0.8610 -0.5238
 3505TIP3    H232151   0.112   6.212   2.383  0.1777  1.0499 -1.9777
 3506TIP3   OH232152   5.712   4.384   0.200  0.1270 -0.6565  0.6453
 3506TIP3    H132153   5.733   4.421   0.286  0.4380 -0.9032  0.6810
 3506TIP3    H232154   5.771   4.308   0.192  1.6377  0.5657 -0.6638
 3507TIP3   OH232155   0.416   2.494   0.141  0.2133  0.6912 -0.4162
 3507TIP3    H132156   0.476   2.466   0.072  2.2011  2.0074  0.6732
 3507TIP3    H232157   0.374   2.572   0.107  0.1359  0.5440 -0.6606
 3508TIP3   OH232158   0.530   6.806   2.363 -0.1204 -0.7262 -0.9366
 3508TIP3    H132159   0.506   6.730   2.417  0.2247  0.5413  1.1014
 3508TIP3    H232160   0.497   6.881   2.412 -0.2976  0.4818 -2.8317
 3509TIP3   OH232161   5.056   4.942   1.773 -0.7969 -0.1718  0.5469
 3509TIP3    H132162   5.108   4.909   1.847  0.4648  0.2485 -0.1249
 3509TIP3    H232163   5.051   5.036   1.787 -1.1064 -0.1687  0.4270
 3510TIP3   OH232164   2.525   1.337   1.014  0.1930 -0.2177 -0.2402
 3510TIP3    H132165   2.516   1.245   1.037 -0.4908 -0.1177 -0.0847
 3510TIP3    H232166   2.464   1.382   1.072  1.3267  0.4567  0.4754
 3511TIP3   OH232167   1.261   6.656   7.754  0.3550  0.1694  0.0385
 3511TIP3    H132168   1.213   6.732   7.785  0.8257  0.4649  0.0576
 3511TIP3    H232169   1.351   6.670   7.785  0.5439 -0.1732 -0.3393
 3512TIP3   OH232170   6.747   3.958   2.737  0.4089 -0.5135  0.1697
 3512TIP3    H132171   6.716   3.913   2.658 -2.1559  0.5829  0.4516
 3512TIP3    H232172   6.821   4.012   2.706 -0.1755 -0.5383 -1.3742
 3513TIP3   OH232173   4.828   1.049   7.631  0.1642 -0.1891 -0.5811
 3513TIP3    H132174   4.849   0.986   7.701 -2.2871 -1.2486 -0.6911
 3513TIP3    H232175   4.771   1.113   7.673  2.6366  2.0812 -0.4766
 3514TIP3   OH232176   4.950   3.689   2.808  0.5878 -0.7910  0.4017
 3514TIP3    H132177   4.892   3.700   2.883  0.4135 -1.7928  0.4291
 3514TIP3    H232178   5.038   3.707   2.843  0.5604 -1.7084  0.9631
 3515TIP3   OH232179   2.131   3.023   1.037  0.3300  0.1917 -0.4212
 3515TIP3    H132180   2.035   3.018   1.027  0.0799  1.1579  1.2386
 3515TIP3    H232181   2.157   2.936   1.065 -0.3710  0.4820  1.2307
 3516TIP3   OH232182   0.060   3.051   7.787  1.2734 -0.7861 -0.8387
 3516TIP3    H132183   0.012   2.983   7.834  1.0687  0.9408  1.6166
 3516TIP3    H232184   0.132   3.004   7.743  1.2934 -2.5600  0.9635
 3517TIP3   OH232185   0.660   0.334   8.474 -0.0599  0.5469 -0.0140
 3517TIP3    H132186   0.586   0.371   8.425 -0.0337  0.2909 -0.2525
 3517TIP3    H232187   0.634   0.244   8.492 -0.3767  0.8394  1.0868
 3518TIP3   OH232188   1.235   6.483   0.655  0.4648 -0.0260  0.0844
 3518TIP3    H132189   1.216   6.577   0.650  1.4732  0.3306  1.9007
 3518TIP3    H232190   1.329   6.477   0.639  0.2299 -0.8638 -1.0607
 3519TIP3   OH232191   4.897   2.690   1.231  0.2164 -0.4006 -0.2219
 3519TIP3    H132192   4.842   2.613   1.213 -0.3137 -0.1215  0.1782
 3519TIP3    H232193   4.915   2.685   1.325 -0.7150  0.5357  0.0231
 3520TIP3   OH232194   0.235   2.896   7.651 -0.5222  0.2686 -0.3991
 3520TIP3    H132195   0.306   2.839   7.679 -0.7564  0.7248  1.1948
 3520TIP3    H232196   0.161   2.836   7.637 -0.8031  0.1503  1.3856
 3521TIP3   OH232197   1.984   0.485   1.907  0.3795  0.1908 -0.5481
 3521TIP3    H132198   1.913   0.528   1.860 -0.8412 -0.0367  0.9976
 3521TIP3    H232199   2.061   0.496   1.850 -0.6553  1.3200 -1.8001
 3522TIP3   OH232200   4.166   1.344   0.561  0.0315  0.4485  0.6662
 3522TIP3    H132201   4.231   1.320   0.627 -1.3646 -0.7254  1.6858
 3522TIP3    H232202   4.211   1.406   0.504  1.1828  1.8481  2.9614
 3523TIP3   OH232203   6.808   4.851   1.030  0.0431 -0.0124  0.2147
 3523TIP3    H132204   6.894   4.867   1.069  0.4998 -1.0791 -0.3041
 3523TIP3    H232205   6.778   4.771   1.073  0.1212 -0.6511 -0.9011
 3524TIP3   OH232206   6.124   6.528   3.471  0.3085 -0.0496 -0.0201
 3524TIP3    H132207   6.157   6.446   3.434 -1.4162 -0.6255 -0.3685
 3524TIP3    H232208   6.100   6.506   3.561 -0.4291 -0.0339 -0.2009
 3525TIP3   OH232209   2.177   0.338   0.207 -0.0390  0.0208  0.1555
 3525TIP3    H132210   2.135   0.262   0.166 -2.1833  1.2676 -0.1123
 3525TIP3    H232211   2.134   0.414   0.168  1.3970  1.3875  1.0775
 3526TIP3   OH232212   1.109   3.550   1.907 -0.3376 -0.2912 -0.6657
 3526TIP3    H132213   1.134   3.641   1.924 -2.2465 -0.1790  1.9630
 3526TIP3    H232214   1.185   3.514   1.860  1.4816  2.0036  0.2784
 3527TIP3   OH232215   0.772   1.147   0.776 -0.5729 -0.5849  0.1359
 3527TIP3    H132216   0.816   1.067   0.805  1.1925  0.9790  2.0987
 3527TIP3    H232217   0.712   1.168   0.847 -0.8308 -0.0212 -0.2459
 3528TIP3   OH232218   4.056   5.830   8.672  0.1829  0.1983 -0.4153
 3528TIP3    H132219   4.053   5.836   8.768 -1.0722 -0.5821 -0.3856
 3528TIP3    H232220   3.966   5.814   8.646  0.5920 -0.1322 -1.7014
 3529TIP3   OH232221   4.614   0.735   3.575  0.2026 -0.3861 -0.2617
 3529TIP3    H132222   4.709   0.723   3.576  0.1152 -1.1106 -0.3338
 3529TIP3    H232223   4.580   0.655   3.535 -0.4003  0.1486 -0.8330
 3530TIP3   OH232224   0.978   5.953   0.005  0.2772  0.4511  0.0576
 3530TIP3    H132225   1.004   5.862   0.018  0.7300  0.3552 -1.4180
 3530TIP3    H232226   0.999   5.996   0.088 -0.0820 -0.7985  0.8323
 3531TIP3   OH232227   2.763   4.899   1.554  0.3385 -0.1646 -0.0066
 3531TIP3    H132228   2.733   4.919   1.466  1.2322 -0.9002 -0.4944
 3531TIP3    H232229   2.850   4.860   1.542  1.0669  0.9739  1.2913
 3532TIP3   OH232230   4.431   3.031   8.177 -0.0469  0.2854  0.3335
 3532TIP3    H132231   4.390   3.111   8.146 -1.2731 -0.0351  1.0876
 3532TIP3    H232232   4.454   2.983   8.097  2.3949  2.1470 -0.2166
 3533TIP3   OH232233   2.941   0.273   1.856 -0.3336 -0.8025 -0.1343
 3533TIP3    H132234   2.964   0.205   1.918  1.1843  0.6424  0.9826
 3533TIP3    H232235   2.938   0.354   1.908 -1.2409  0.1291 -1.5476
 3534TIP3   OH232236   3.819   5.826   0.211  0.4146 -0.1137 -0.7486
 3534TIP3    H132237   3.877   5.891   0.249  0.0579  0.7468 -1.6089
 3534TIP3    H232238   3.782   5.779   0.286  0.2468  1.0666 -0.0696
 3535TIP3   OH232239   6.136   6.017   2.531  0.8621  0.5004  0.0155
 3535TIP3    H132240   6.231   6.000   2.533  0.5187 -2.0315 -1.2546
 3535TIP3    H232241   6.114   6.022   2.438 -0.2045  1.4924  0.3021
 3536TIP3   OH232242   5.227   3.760   2.806 -0.0651  0.0238 -0.1905
 3536TIP3    H132243   5.226   3.784   2.714 -1.1313 -1.1924 -0.5261
 3536TIP3    H232244   5.235   3.665   2.806 -1.6605 -0.1585  0.9021
 3537TIP3   OH232245   6.769   0.267   0.144 -0.1026  0.0717 -0.6049
 3537TIP3    H132246   6.719   0.316   0.209 -0.4801 -0.3970 -0.5378
 3537TIP3    H232247   6.725   0.182   0.139 -0.5955  0.3874 -2.0765
 3538TIP3   OH232248   2.873   3.301   8.752  0.5823  0.0228  0.1336
 3538TIP3    H132249   2.822   3.232   8.711  1.3926 -0.4902 -0.0236
 3538TIP3    H232250   2.819   3.380   8.742  1.0394  0.0613 -2.5018
 3539TIP3   OH232251   2.793   0.119   0.344 -0.3065 -0.3504  0.0661
 3539TIP3    H132252   2.875   0.139   0.299 -1.0085 -1.7127 -1.9917
 3539TIP3    H232253   2.819   0.084   0.429  1.1597  0.6987  0.0736
 3540TIP3   OH232254   0.424   2.518   1.768 -0.2226  0.3202 -0.2284
 3540TIP3    H132255   0.366   2.595   1.761  1.1962  1.6800  1.8489
 3540TIP3    H232256   0.502   2.544   1.719  0.5138  0.4988  1.0120
 3541TIP3   OH232257   4.502   6.054   7.813  0.0078 -0.3426  0.3044
 3541TIP3    H132258   4.523   6.126   7.755 -3.6874  0.9203  0.2568
 3541TIP3    H232259   4.475   5.983   7.755 -2.5262  0.5204  0.2914
 3542TIP3   OH232260   6.519   2.931   7.996 -0.3219 -0.1131 -0.2242
 3542TIP3    H132261   6.456   2.925   8.068  0.6334 -2.9122  0.5036
 3542TIP3    H232262   6.470   2.973   7.925 -2.5056 -0.7430  0.8174
 3543TIP3   OH232263   6.547   3.794   1.445  0.0316  0.0621  0.0349
 3543TIP3    H132264   6.575   3.832   1.362  0.2048 -0.0337  0.0498
 3543TIP3    H232265   6.466   3.747   1.423  0.5623 -0.7300 -0.2662
 3544TIP3   OH232266   3.631   2.754   2.502  0.0243 -0.1681 -0.6793
 3544TIP3    H132267   3.670   2.680   2.549 -0.1784  1.7657  2.8269
 3544TIP3    H232268   3.539   2.730   2.491  0.0088 -0.5633  0.2339
 3545TIP3   OH232269   4.023   2.923   2.655  0.1578 -0.1658 -0.2444
 3545TIP3    H132270   3.953   2.974   2.695  0.4485  0.2300 -0.2437
 3545TIP3    H232271   4.047   2.858   2.721 -0.8976 -0.9658 -0.6095
 3546TIP3   OH232272   5.543   3.920   8.310 -0.1351 -0.6845  0.4284
 3546TIP3    H132273   5.559   3.953   8.222 -3.1839  1.8821  0.6539
 3546TIP3    H232274   5.618   3.951   8.361  0.4504 -0.0008 -0.8081
 3547TIP3   OH232275   6.624   0.417   0.415 -0.3086  0.1120 -0.6423
 3547TIP3    H132276   6.613   0.346   0.478 -2.4795 -0.6831 -1.7996
 3547TIP3    H232277   6.690   0.474   0.454 -2.5748  0.5148  3.0952
 3548TIP3   OH232278   4.678   0.007   0.508  0.2009  0.1138 -0.0137
 3548TIP3    H132279   4.749  -0.018   0.449 -0.6111  0.8848 -1.3664
 3548TIP3    H232280   4.606  -0.052   0.486  0.1156 -0.0724  0.7299
 3549TIP3   OH232281   3.730   2.226   0.194 -0.3816  0.5149 -0.0488
 3549TIP3    H132282   3.743   2.197   0.284 -0.9976  0.7739  0.1286
 3549TIP3    H232283   3.790   2.299   0.183  0.3560 -0.0923 -0.1420
 3550TIP3   OH232284   1.909   3.376   1.292 -0.2418 -0.1369  0.0869
 3550TIP3    H132285   1.896   3.367   1.387 -0.7416  0.4577  0.0852
 3550TIP3    H232286   1.865   3.458   1.270  1.1173  0.4973 -0.4235
 3551TIP3   OH232287   6.205   4.588   1.662 -0.3020  0.1029  0.2790
 3551TIP3    H132288   6.166   4.648   1.725  0.5330  0.9834 -0.0233
 3551TIP3    H232289   6.234   4.644   1.590  0.6634 -0.6321  0.0774
 3552TIP3   OH232290   2.219   3.840   1.862  0.2129 -0.3101  0.3357
 3552TIP3    H132291   2.163   3.779   1.814  0.7123  1.7011 -3.1249
 3552TIP3    H232292   2.308   3.810   1.843  0.5184  1.7853 -2.2316
 3553TIP3   OH232293   3.265   3.712   1.174 -0.3140 -0.3801 -0.0403
 3553TIP3    H132294   3.341   3.657   1.154 -1.1328 -1.3550 -0.6156
 3553TIP3    H232295   3.196   3.650   1.197 -0.1855  0.5589  3.4758
 3554TIP3   OH232296   5.540   3.850   2.611  0.4792  0.3762  0.7285
 3554TIP3    H132297   5.620   3.825   2.567  0.7540  1.0956  0.8096
 3554TIP3    H232298   5.474   3.789   2.577  1.3786 -1.3413  1.9221
 3555TIP3   OH232299   2.766   5.110   0.948  0.3840 -0.0167  0.1111
 3555TIP3    H132300   2.807   5.031   0.912 -0.3921 -0.1628 -0.4665
 3555TIP3    H232301   2.839   5.157   0.990  1.0925 -0.4188 -0.6258
 3556TIP3   OH232302   2.102   0.027   1.748  0.1424 -0.1223  0.6736
 3556TIP3    H132303   2.121   0.080   1.826  0.1681 -0.3463  0.8194
 3556TIP3    H232304   2.056  -0.050   1.782 -1.6651  0.7292  0.2636
 3557TIP3   OH232305   6.207   3.114   0.873  0.0328 -0.2971  0.4277
 3557TIP3    H132306   6.193   3.110   0.779 -0.4125  1.0141  0.4211
 3557TIP3    H232307   6.252   3.197   0.887  1.0657 -0.9803  1.2655
 3558TIP3   OH232308   4.063   6.852   8.667  0.2183  0.2887  0.1936
 3558TIP3    H132309   4.041   6.818   8.754  1.6692 -0.0427  0.4525
 3558TIP3    H232310   4.158   6.858   8.667  0.2854 -0.3060 -1.6008
 3559TIP3   OH232311   6.175   6.222   1.272 -0.0090  0.2841 -0.1393
 3559TIP3    H132312   6.170   6.311   1.307 -1.6453 -0.3744  1.4656
 3559TIP3    H232313   6.087   6.187   1.284  0.3124 -1.2221 -1.7246
 3560TIP3   OH232314   4.225   5.831   2.147  0.0911 -0.0413 -0.2589
 3560TIP3    H132315   4.145   5.799   2.188 -0.1217  1.3957  0.5181
 3560TIP3    H232316   4.197   5.870   2.064 -0.1918  1.2376  0.3985
 3561TIP3   OH232317   2.994   2.458   3.263  0.1982 -0.2975 -0.5301
 3561TIP3    H132318   3.057   2.387   3.274  0.5073  0.3021  2.4919
 3561TIP3    H232319   2.909   2.414   3.263  0.4586 -0.8294 -1.1550
 3562TIP3   OH232320   5.852   1.457   2.823  0.0806  0.0342 -0.6304
 3562TIP3    H132321   5.814   1.422   2.904 -0.0248 -0.8472 -1.0491
 3562TIP3    H232322   5.801   1.417   2.753  1.1488 -0.4146 -1.1815
 3563TIP3   OH232323   0.240   6.312   1.235 -0.1855 -0.4936  0.0738
 3563TIP3    H132324   0.214   6.230   1.278  1.6428 -1.0964  0.1154
 3563TIP3    H232325   0.181   6.320   1.161 -2.8900  0.1356  2.1332
 3564TIP3   OH232326   1.119   6.483   8.535 -0.1318 -0.1985 -0.4093
 3564TIP3    H132327   1.137   6.392   8.562  0.4058  0.2978  1.0518
 3564TIP3    H232328   1.130   6.533   8.616  0.4994  1.2934 -1.3824
 3565TIP3   OH232329   5.786   1.214   2.542  0.3134  0.0963  0.5602
 3565TIP3    H132330   5.725   1.188   2.611 -0.6031  0.9032  0.0834
 3565TIP3    H232331   5.747   1.182   2.461  1.8236 -1.6205  0.4567
 3566TIP3   OH232332   6.348   0.086   8.662  0.5254  0.3688 -0.1433
 3566TIP3    H132333   6.268   0.129   8.633 -0.6515 -1.2750  0.4881
 3566TIP3    H232334   6.319   0.027   8.731  2.1239 -1.0197 -0.5983
 3567TIP3   OH232335   4.492   6.252   7.427 -0.4466  0.3749  0.3255
 3567TIP3    H132336   4.537   6.336   7.439 -1.6901  0.8253  2.3007
 3567TIP3    H232337   4.400   6.272   7.444 -1.2455 -0.8242 -2.1179
 3568TIP3   OH232338   0.423   6.563   3.122  0.0512 -0.1425 -0.3492
 3568TIP3    H132339   0.353   6.600   3.067 -0.9394  0.8508  1.4914
 3568TIP3    H232340   0.498   6.556   3.063 -1.0481  0.5896 -1.9123
 3569TIP3   OH232341   3.354   2.818   7.509 -0.0365 -0.0208 -0.0909
 3569TIP3    H132342   3.336   2.724   7.501  0.7599 -0.1339 -0.7578
 3569TIP3    H232343   3.427   2.823   7.570  0.5635  0.0788 -0.8021
 3570TIP3   OH232344   1.225   0.452   7.838  0.2929  0.1056  0.1256
 3570TIP3    H132345   1.150   0.462   7.896  1.2247 -0.2207  1.4254
 3570TIP3    H232346   1.187   0.447   7.750 -1.1594  0.4061  0.7125
 3571TIP3   OH232347   4.455   5.256   1.131 -0.1460 -0.6665 -0.1749
 3571TIP3    H132348   4.467   5.197   1.056  1.2854 -0.3511 -0.2188
 3571TIP3    H232349   4.405   5.330   1.095  0.8631 -0.3315 -0.9302
 3572TIP3   OH232350   0.977   6.676   1.497 -0.3701  0.0393  0.0303
 3572TIP3    H132351   1.053   6.715   1.454 -0.7179 -0.4713 -1.1094
 3572TIP3    H232352   0.903   6.708   1.445 -0.7774 -0.8976  0.0228
 3573TIP3   OH232353   5.741   5.880   3.445  0.0656 -0.5714  0.0684
 3573TIP3    H132354   5.653   5.878   3.482  0.6820  0.5691  1.7615
 3573TIP3    H232355   5.730   5.917   3.358 -1.0166  0.8697  0.7731
 3574TIP3   OH232356   3.207   5.246   7.170  0.0093  0.1060  0.4106
 3574TIP3    H132357   3.268   5.304   7.215 -1.1422  0.0078  2.2134
 3574TIP3    H232358   3.240   5.158   7.186  0.3391  0.1247 -0.1284
 3575TIP3   OH232359   2.022   4.622   2.042  0.7308 -0.8174 -0.0743
 3575TIP3    H132360   1.988   4.583   2.122 -0.8342  0.9724  0.1827
 3575TIP3    H232361   1.944   4.642   1.990  1.3848  2.1862 -0.0522
 3576TIP3   OH232362   4.160   2.370   0.787 -0.2051  0.1771  0.1170
 3576TIP3    H132363   4.094   2.407   0.846 -0.7874  0.4894 -0.7073
 3576TIP3    H232364   4.110   2.319   0.724  0.4606 -0.6533  0.2418
 3577TIP3   OH232365   4.776   1.939   7.763 -0.1060  0.2683 -0.9365
 3577TIP3    H132366   4.827   1.911   7.687 -0.7286  0.0661 -1.2903
 3577TIP3    H232367   4.821   2.018   7.794  0.7461 -0.2328 -0.8848
 3578TIP3   OH232368   4.095   1.405   8.123 -0.0682 -0.0027 -0.0873
 3578TIP3    H132369   4.077   1.313   8.140 -0.6561  0.4511  2.1685
 3578TIP3    H232370   4.188   1.415   8.143  0.0096 -0.1273 -0.3939
 3579TIP3   OH232371   5.692   2.480   0.996 -0.3586 -0.2899  0.1585
 3579TIP3    H132372   5.736   2.539   0.935 -0.2965 -0.3017  0.1919
 3579TIP3    H232373   5.734   2.496   1.080 -1.2431  0.5842  0.4613
 3580TIP3   OH232374   1.228   5.531   8.382  0.3283  0.0956 -0.0007
 3580TIP3    H132375   1.273   5.452   8.410  0.5054  0.3474  0.4355
 3580TIP3    H232376   1.298   5.588   8.349  0.1711 -0.0307 -0.5794
 3581TIP3   OH232377   1.779   5.529   7.454 -0.2074  0.8944 -0.0910
 3581TIP3    H132378   1.716   5.595   7.483  1.0039  2.5060 -0.9529
 3581TIP3    H232379   1.862   5.558   7.491  0.2143 -0.6501  0.2247
 3582TIP3   OH232380   6.346   4.343   2.131  0.2328  0.0398 -0.1128
 3582TIP3    H132381   6.306   4.400   2.197 -0.6726 -0.2918 -0.3585
 3582TIP3    H232382   6.401   4.283   2.181  0.7476  0.7545  0.1954
 3583TIP3   OH232383   4.289   2.934   0.922 -1.0988 -0.4847 -0.3376
 3583TIP3    H132384   4.253   3.018   0.895 -0.6962 -0.6163 -1.3017
 3583TIP3    H232385   4.360   2.956   0.982 -1.8279 -0.1861  0.4378
 3584TIP3   OH232386   5.446   1.460   2.962 -0.2455  0.7276 -0.0300
 3584TIP3    H132387   5.458   1.495   3.050 -1.1046  2.0498 -0.3953
 3584TIP3    H232388   5.352   1.444   2.955 -0.2372  0.9483 -0.7977
 3585TIP3   OH232389   5.166   4.037   7.962 -0.2781 -0.0701  1.0151
 3585TIP3    H132390   5.207   4.123   7.954  0.9898 -0.7242  0.0397
 3585TIP3    H232391   5.228   3.985   8.012 -2.6609  0.5020  4.9587
 3586TIP3   OH232392   4.439   0.114   2.514  0.1791 -0.6110 -0.4181
 3586TIP3    H132393   4.534   0.104   2.519  0.2696  0.7208  2.9055
 3586TIP3    H232394   4.405   0.032   2.549  0.1715 -0.4035  0.0684
 3587TIP3   OH232395   1.668   1.567   0.826  0.3608  0.1977 -0.2422
 3587TIP3    H132396   1.699   1.632   0.889 -1.8638  1.1943 -0.1138
 3587TIP3    H232397   1.725   1.579   0.750  0.9095  1.2924  0.3181
 3588TIP3   OH232398   4.521   5.134   0.601  0.0598 -0.1124  0.2872
 3588TIP3    H132399   4.486   5.099   0.519  0.4829 -1.5194  0.6845
 3588TIP3    H232400   4.610   5.098   0.606  0.8313  1.7069  0.3233
 3589TIP3   OH232401   6.838   4.998   0.461 -0.2227 -0.1945 -0.0077
 3589TIP3    H132402   6.776   4.928   0.443 -0.4429  0.1545 -0.6445
 3589TIP3    H232403   6.918   4.954   0.488  0.2089 -0.7707 -2.0803
 3590TIP3   OH232404   5.791   1.279   8.045 -0.3360  0.2528 -0.4484
 3590TIP3    H132405   5.808   1.372   8.058 -2.0506  0.4649  0.6945
 3590TIP3    H232406   5.696   1.272   8.042 -0.3662 -1.6728  1.7390
 3591TIP3   OH232407   2.492   1.087   8.523 -0.0300  0.2563  0.2054
 3591TIP3    H132408   2.429   1.156   8.507 -0.3882  0.6041  2.7192
 3591TIP3    H232409   2.531   1.108   8.608  1.7975 -1.1980 -0.1879
 3592TIP3   OH232410   5.967   1.705   8.333 -0.0531 -0.2151  0.5946
 3592TIP3    H132411   5.967   1.798   8.310  1.1511 -0.4608 -0.5600
 3592TIP3    H232412   5.882   1.690   8.373  0.2058  1.6544  1.9725
 3593TIP3   OH232413   0.089   2.099   1.907  0.3670 -0.2064 -0.3008
 3593TIP3    H132414   0.141   2.179   1.902 -0.0127  0.0016 -0.9914
 3593TIP3    H232415   0.065   2.080   1.817  1.6735 -1.9262 -0.3423
 3594TIP3   OH232416   3.316   6.362   0.265  0.0661 -0.3657 -0.2508
 3594TIP3    H132417   3.400   6.316   0.272 -0.2217 -0.8905 -0.1888
 3594TIP3    H232418   3.251   6.295   0.287 -0.4350 -0.2656 -1.3687
 3595TIP3   OH232419   1.133   1.322   2.028  0.0959 -0.0773 -0.4408
 3595TIP3    H132420   1.075   1.320   1.952  1.3478 -0.7094 -1.4047
 3595TIP3    H232421   1.221   1.330   1.991  0.6440  0.9681  0.9900
 3596TIP3   OH232422   4.174   0.154   1.379 -0.0059  0.3916  0.2850
 3596TIP3    H132423   4.268   0.158   1.395  0.4461 -0.8841 -1.6875
 3596TIP3    H232424   4.161   0.072   1.331 -1.7249  1.8056 -1.8495
 3597TIP3   OH232425   3.610   4.904   8.722  0.5792 -0.0876  0.1591
 3597TIP3    H132426   3.598   4.907   8.627 -2.1971  0.5149  0.4565
 3597TIP3    H232427   3.533   4.857   8.754 -0.7576  3.3383  2.3824
 3598TIP3   OH232428   5.441   6.817   7.511 -0.4429 -0.4607  0.1330
 3598TIP3    H132429   5.482   6.832   7.596 -1.2746 -0.1155  0.4785
 3598TIP3    H232430   5.509   6.841   7.447 -0.2401  0.4737  0.6908
 3599TIP3   OH232431   5.135   0.049   2.088 -0.4759 -0.3149  0.0702
 3599TIP3    H132432   5.201   0.031   2.156  0.7382  0.6138 -0.8037
 3599TIP3    H232433   5.068   0.101   2.133  0.6860  0.9432  0.4318
 3600TIP3   OH232434   6.127   5.275   8.252 -0.1100 -0.1484 -0.2895
 3600TIP3    H132435   6.100   5.367   8.252 -2.4269 -0.7292 -1.5228
 3600TIP3    H232436   6.125   5.250   8.344  0.6553  1.0495  0.0748
 3601TIP3   OH232437   0.675   5.529   0.208 -0.0244  0.4506 -0.1519
 3601TIP3    H132438   0.705   5.558   0.294 -2.2955  1.5152  0.3496
 3601TIP3    H232439   0.593   5.576   0.194 -0.8576 -1.3957 -1.9433
 3602TIP3   OH232440   3.799   3.685   0.017  0.2718  0.7234  0.1048
 3602TIP3    H132441   3.768   3.651  -0.067  0.5321 -1.1393  0.7115
 3602TIP3    H232442   3.893   3.697   0.006  0.2756  0.6658  0.0753
 3603TIP3   OH232443   0.486   3.376   0.409 -0.2219  0.0627 -0.1995
 3603TIP3    H132444   0.463   3.348   0.498 -0.3447  0.5410 -0.0745
 3603TIP3    H232445   0.452   3.466   0.403 -1.8609 -0.5777 -1.3547
 3604TIP3   OH232446   6.559   3.087   1.606 -0.7373 -0.0581  0.6899
 3604TIP3    H132447   6.504   3.158   1.571 -1.7941 -0.1621  2.0459
 3604TIP3    H232448   6.516   3.007   1.576 -0.0364 -0.1485 -0.1104
 3605TIP3   OH232449   1.892   4.096   8.141 -0.6399 -0.2866  0.0285
 3605TIP3    H132450   1.896   4.062   8.231 -2.6394 -1.1299 -0.1639
 3605TIP3    H232451   1.911   4.190   8.151 -1.0709 -0.3163  1.3651
 3606TIP3   OH232452   1.569   2.205   2.502  0.2190  0.6765 -0.4826
 3606TIP3    H132453   1.593   2.154   2.425  0.5672  1.0748 -0.6404
 3606TIP3    H232454   1.491   2.162   2.536 -0.3523  0.9252 -1.4618
 3607TIP3   OH232455   5.928   5.800   0.057  0.2328 -0.6236  0.5821
 3607TIP3    H132456   5.967   5.798   0.144  1.6375 -2.4565 -0.0190
 3607TIP3    H232457   6.003   5.798  -0.003 -0.7283 -0.9422 -0.6513
 3608TIP3   OH232458   2.336   2.336   6.960  0.1564 -0.0508 -0.7816
 3608TIP3    H132459   2.409   2.353   7.019 -0.1090 -1.0020 -0.1632
 3608TIP3    H232460   2.292   2.421   6.950 -1.7016 -0.3747  2.9334
 3609TIP3   OH232461   3.181   3.128   1.385  0.3328 -0.0512  0.2341
 3609TIP3    H132462   3.239   3.193   1.345  0.1740 -0.7554 -1.2344
 3609TIP3    H232463   3.234   3.047   1.388 -0.4044 -0.5865 -0.7181
 3610TIP3   OH232464   0.352   4.365   8.366  1.1397  0.5751  0.4334
 3610TIP3    H132465   0.436   4.350   8.408  0.6943 -3.1561  0.3255
 3610TIP3    H232466   0.374   4.377   8.273  1.6683  2.3385  0.7534
 3611TIP3   OH232467   3.054   4.873   0.975  0.5942 -0.3832 -0.0297
 3611TIP3    H132468   3.094   4.949   0.931 -0.6761 -0.9739 -2.3635
 3611TIP3    H232469   3.128   4.817   0.996  1.5831  1.5140  1.8961
 3612TIP3   OH232470   2.036   6.537   8.006 -0.6460 -0.4160  0.0934
 3612TIP3    H132471   2.068   6.627   8.011 -1.8441  0.0164  0.4695
 3612TIP3    H232472   2.051   6.511   7.915 -1.3879  0.6164 -0.3539
 3613TIP3   OH232473   5.358   1.043   2.205 -0.3189 -0.6164  0.2995
 3613TIP3    H132474   5.423   1.067   2.139  0.6425  0.7491  1.6876
 3613TIP3    H232475   5.323   0.959   2.174  2.2392 -1.5353 -0.3963
 3614TIP3   OH232476   4.867   4.377   0.867  0.0591  0.1349  0.1494
 3614TIP3    H132477   4.858   4.449   0.805  0.0971 -0.4452 -0.5463
 3614TIP3    H232478   4.866   4.298   0.812  0.9994 -0.3495  0.7965
 3615TIP3   OH232479   5.946   2.669   0.356  0.7224  0.4494 -0.3657
 3615TIP3    H132480   5.886   2.689   0.285 -0.0585  0.7338  0.3603
 3615TIP3    H232481   5.916   2.585   0.391  2.2681 -0.6684 -1.5757
 3616TIP3   OH232482   0.112   0.558   0.955 -0.1418  0.0746 -0.6761
 3616TIP3    H132483   0.144   0.626   0.895 -0.5432  0.8601 -0.0183
 3616TIP3    H232484   0.065   0.606   1.022  0.3843 -0.7838  0.3309
 3617TIP3   OH232485   5.391   3.830   1.962  0.1352 -0.2763  0.6894
 3617TIP3    H132486   5.416   3.748   1.918  0.6727  0.0052  0.4603
 3617TIP3    H232487   5.338   3.877   1.898 -0.0972 -0.3999  0.7882
 3618TIP3   OH232488   0.001   4.526   3.691  0.0762 -0.8277  0.6866
 3618TIP3    H132489   0.033   4.490   3.608  0.8957 -2.0810  1.5104
 3618TIP3    H232490  -0.043   4.453   3.734 -1.6062  0.1763  0.7700
 3619TIP3   OH232491   5.526   6.280   8.542  0.2543  0.2016  0.1903
 3619TIP3    H132492   5.586   6.355   8.538  1.4041 -0.6482  0.8490
 3619TIP3    H232493   5.563   6.216   8.482 -1.7636  0.8070 -1.8555
 3620TIP3   OH232494   2.847   5.869   1.070  0.2510 -0.5297  0.0487
 3620TIP3    H132495   2.925   5.835   1.113  0.8783  0.1602 -0.5204
 3620TIP3    H232496   2.786   5.888   1.141  0.5275 -1.2295  0.4840
 3621TIP3   OH232497   2.451   6.340   8.241 -0.4272 -0.3313  0.0261
 3621TIP3    H132498   2.438   6.310   8.151  0.9606 -1.3051  0.1082
 3621TIP3    H232499   2.511   6.414   8.233  1.1501 -1.5129  0.2063
 3622TIP3   OH232500   1.779   1.480   1.101  0.0714  0.2737 -0.4522
 3622TIP3    H132501   1.695   1.435   1.094  1.1299 -2.1337  1.1238
 3622TIP3    H232502   1.767   1.542   1.173 -0.3376 -0.0257 -0.2588
 3623TIP3   OH232503   3.176   1.710   1.010 -0.1745 -0.6651  0.3189
 3623TIP3    H132504   3.119   1.641   0.976 -0.8894 -0.2258  0.6014
 3623TIP3    H232505   3.242   1.723   0.942 -2.2088  0.9999 -1.4806
 3624TIP3   OH232506   2.353   4.888   2.550  0.0323  0.5219  0.2985
 3624TIP3    H132507   2.302   4.924   2.478 -0.9378  1.4093  1.3942
 3624TIP3    H232508   2.403   4.963   2.583  2.0460 -0.3045 -0.7008
 3625TIP3   OH232509   3.567   2.221   1.969  0.2335 -0.5699  0.0934
 3625TIP3    H132510   3.500   2.289   1.976  1.6197  1.1692 -2.1118
 3625TIP3    H232511   3.518   2.139   1.965 -1.6374  0.4838  0.4093
 3626TIP3   OH232512   3.307   4.457   2.402 -0.5036  0.8496  0.0683
 3626TIP3    H132513   3.389   4.472   2.354 -0.6231  0.1913 -0.3510
 3626TIP3    H232514   3.315   4.369   2.437 -0.5932  1.1776  0.9272
 3627TIP3   OH232515   5.583   5.015   0.440  0.4059 -0.5195 -0.6108
 3627TIP3    H132516   5.503   5.017   0.387 -0.4713  1.2042  0.6723
 3627TIP3    H232517   5.610   5.106   0.446  0.5814 -0.6704  1.6695
 3628TIP3   OH232518   6.771   3.219   1.343  0.5396 -0.1148 -0.4956
 3628TIP3    H132519   6.838   3.153   1.357 -0.4665 -1.3017 -1.0829
 3628TIP3    H232520   6.734   3.198   1.257  1.0318  1.9824 -1.2881
 3629TIP3   OH232521   1.477   0.624   1.055  0.2255 -0.1497 -0.1190
 3629TIP3    H132522   1.477   0.719   1.052 -0.3462 -0.1759 -1.7362
 3629TIP3    H232523   1.567   0.601   1.081 -0.2343  0.8188  2.5951
 3630TIP3   OH232524   6.153   5.207   0.807  0.2795  0.9101 -0.0465
 3630TIP3    H132525   6.083   5.232   0.867  0.6337  0.9177  0.3655
 3630TIP3    H232526   6.109   5.156   0.739  0.1932 -1.2393  1.5245
 3631TIP3   OH232527   6.127   3.139   0.618 -0.6036  0.3691 -0.1026
 3631TIP3    H132528   6.100   3.057   0.575  0.3582  0.5343 -1.0631
 3631TIP3    H232529   6.047   3.171   0.660 -1.1068 -0.8133 -0.1151
 3632TIP3   OH232530   1.808   5.854   1.426  0.0517 -0.3185  0.4081
 3632TIP3    H132531   1.712   5.851   1.432  0.0471 -1.9923  0.0438
 3632TIP3    H232532   1.837   5.776   1.473  1.2350  0.0640  0.3390
 3633TIP3   OH232533   6.023   2.496   7.371  0.2757  0.2068  0.5338
 3633TIP3    H132534   6.013   2.426   7.307  0.8606  0.3533  0.2792
 3633TIP3    H232535   5.934   2.512   7.403  0.1264 -0.6019  0.5461
 3634TIP3   OH232536   1.263   3.358   2.403  0.0281  0.2458 -0.1413
 3634TIP3    H132537   1.294   3.389   2.488 -0.1679 -0.6783  0.2769
 3634TIP3    H232538   1.333   3.379   2.342  0.1865  0.8759  0.2524
 3635TIP3   OH232539   2.326   4.882   1.459  0.4688  0.4258 -0.4633
 3635TIP3    H132540   2.299   4.799   1.419  1.0572  0.1503 -0.3119
 3635TIP3    H232541   2.389   4.856   1.527  0.7304  1.0013 -0.4810
 3636TIP3   OH232542   5.746   4.697   0.813 -0.1833 -0.1340  0.1061
 3636TIP3    H132543   5.667   4.648   0.836 -0.7128  0.7133  0.1438
 3636TIP3    H232544   5.713   4.776   0.770  0.6634  0.0227 -0.2724
 3637TIP3   OH232545   6.051   2.091   2.557  0.3710 -0.0464 -0.1826
 3637TIP3    H132546   6.114   2.126   2.494  0.4765  0.5022  0.2192
 3637TIP3    H232547   5.966   2.105   2.516  0.4084  0.7191 -0.0228
 3638TIP3   OH232548   5.675   4.257   0.735  0.4267 -0.1521 -0.3371
 3638TIP3    H132549   5.711   4.169   0.727  0.3052 -0.3895  1.3931
 3638TIP3    H232550   5.700   4.286   0.823  0.8149  1.7092 -1.0052
 3639TIP3   OH232551   1.954   4.848   8.247 -0.6263 -0.1525 -0.0690
 3639TIP3    H132552   1.966   4.759   8.213 -0.5419 -0.0310 -0.3557
 3639TIP3    H232553   2.042   4.885   8.249 -0.6782 -0.0294 -0.0704
 3640TIP3   OH232554   4.334   2.315   2.904 -0.4268  0.1994 -0.3379
 3640TIP3    H132555   4.342   2.314   2.999 -1.6475  0.0870 -0.2225
 3640TIP3    H232556   4.415   2.275   2.872 -0.1409 -0.0336  0.6619
 3641TIP3   OH232557   0.181   2.713   8.072  0.3396 -0.1924  0.1056
 3641TIP3    H132558   0.130   2.786   8.036  2.5024  0.4267 -1.8894
 3641TIP3    H232559   0.193   2.653   7.999  3.0595  0.0754  0.2219
 3642TIP3   OH232560   4.036   4.527   0.633  0.1239  0.0140 -0.2078
 3642TIP3    H132561   4.129   4.545   0.646  0.2493 -0.3510 -0.5676
 3642TIP3    H232562   4.010   4.586   0.562 -0.0514  0.5057  0.2638
 3643TIP3   OH232563   2.488   2.436   0.611 -1.0209 -0.3201  0.2574
 3643TIP3    H132564   2.468   2.489   0.535  1.0800  0.3614  0.1154
 3643TIP3    H232565   2.550   2.370   0.579 -0.1549 -0.0656  1.3450
 3644TIP3   OH232566   5.103   3.687   0.912 -0.4720  0.1125  0.1349
 3644TIP3    H132567   5.055   3.634   0.976 -0.2043  0.0141  0.2572
 3644TIP3    H232568   5.044   3.759   0.890 -0.5129  0.2201  0.5930
 3645TIP3   OH232569   4.482   4.846   8.535 -0.0819  0.3435 -0.7193
 3645TIP3    H132570   4.535   4.842   8.614  1.5525 -0.8464 -1.7977
 3645TIP3    H232571   4.393   4.831   8.564  0.6901 -1.8791  0.7184
 3646TIP3   OH232572   3.716   4.499   8.396 -0.3363  0.3978  0.1228
 3646TIP3    H132573   3.663   4.431   8.353  0.2968 -0.8077  1.1879
 3646TIP3    H232574   3.724   4.567   8.330 -2.1630  0.0733 -0.5051
 3647TIP3   OH232575   6.625   1.349   0.557  0.1837 -0.0019 -0.2935
 3647TIP3    H132576   6.646   1.335   0.650  1.6031 -0.3985 -0.6495
 3647TIP3    H232577   6.639   1.443   0.545 -0.2913  0.1049 -0.0458
 3648TIP3   OH232578   6.016   5.685   0.634  0.3698  0.1356 -0.1659
 3648TIP3    H132579   6.013   5.761   0.692 -0.6597 -0.3796  0.4752
 3648TIP3    H232580   6.107   5.681   0.604  0.9320  0.3866  1.4401
 3649TIP3   OH232581   1.439   1.330   7.546  0.2177  0.1418 -0.6081
 3649TIP3    H132582   1.500   1.258   7.554  1.1808  0.6935 -2.4437
 3649TIP3    H232583   1.494   1.408   7.539 -0.6960  0.7290 -1.6072
 3650TIP3   OH232584   1.796   4.893   8.467  0.8307  0.2826  0.5086
 3650TIP3    H132585   1.842   4.877   8.384  1.6763 -1.5495  1.2574
 3650TIP3    H232586   1.802   4.809   8.514 -2.2419  0.3110  1.1836
 3651TIP3   OH232587   6.231   1.788   0.677 -0.1058 -0.0446  0.3574
 3651TIP3    H132588   6.277   1.721   0.626  2.3685  1.3255  0.6217
 3651TIP3    H232589   6.280   1.794   0.759 -1.9697  0.1853  1.5142
 3652TIP3   OH232590   5.661   6.113   8.366  0.4068  0.1980  0.1398
 3652TIP3    H132591   5.672   6.034   8.419  0.8510  1.6748  2.3759
 3652TIP3    H232592   5.641   6.080   8.278  3.6088 -2.4506  0.2044
 3653TIP3   OH232593   1.238   1.495   0.555 -0.1459  0.5215 -0.5854
 3653TIP3    H132594   1.180   1.431   0.514  1.4907 -0.5024 -1.4105
 3653TIP3    H232595   1.269   1.452   0.634  0.9489  0.2786 -1.1338
 3654TIP3   OH232596   1.587   5.346   7.914  0.1239  0.1046 -0.2885
 3654TIP3    H132597   1.495   5.334   7.891 -0.0497  1.3338 -0.2533
 3654TIP3    H232598   1.604   5.439   7.904  1.7304 -0.2686 -1.5838
 3655TIP3   OH232599   1.739   3.854   1.421  0.3746 -0.1793  0.2858
 3655TIP3    H132600   1.828   3.873   1.391 -0.3823  1.6011 -1.0668
 3655TIP3    H232601   1.717   3.771   1.379  0.7819  0.2783 -0.8847
 3656TIP3   OH232602   1.799   6.826   7.639 -0.4115 -0.4881 -0.1862
 3656TIP3    H132603   1.807   6.915   7.673 -1.3739  0.0310 -1.2228
 3656TIP3    H232604   1.712   6.823   7.599 -0.0954 -1.6526 -0.8544
 3657TIP3   OH232605   4.015   1.662   7.555  0.1064  0.7898 -0.1914
 3657TIP3    H132606   4.074   1.610   7.501  1.2987  0.5353  1.3123
 3657TIP3    H232607   3.987   1.734   7.498  0.9425  0.2659 -1.2864
 3658TIP3   OH232608   1.497   5.133   1.415 -0.5133 -0.7068  0.6374
 3658TIP3    H132609   1.402   5.128   1.423 -0.4705 -1.3529  0.8127
 3658TIP3    H232610   1.513   5.203   1.351 -1.1190 -1.0084  0.1496
 3659TIP3   OH232611   2.651   3.285   2.615 -0.0307  0.0444 -0.5465
 3659TIP3    H132612   2.561   3.255   2.625 -0.6202  1.4368 -1.3326
 3659TIP3    H232613   2.698   3.244   2.687 -1.4477 -0.1681  0.3000
 3660TIP3   OH232614   0.197   0.674   1.841 -0.3774 -0.0579  0.1726
 3660TIP3    H132615   0.171   0.582   1.855 -0.6548 -0.0796 -0.4392
 3660TIP3    H232616   0.282   0.669   1.798 -0.3223 -0.0217  0.2760
 3661TIP3   OH232617   4.542   4.824   0.833  0.8274 -0.2071  0.1352
 3661TIP3    H132618   4.560   4.845   0.741 -0.2631  0.7510  0.1257
 3661TIP3    H232619   4.529   4.729   0.834  1.7677 -0.3620 -0.5261
 3662TIP3   OH232620   3.003   3.498   8.172 -0.1073  0.4477 -0.3283
 3662TIP3    H132621   2.912   3.507   8.200 -0.1663  0.4922 -0.5325
 3662TIP3    H232622   3.054   3.503   8.253 -0.3189 -0.0858 -0.1563
 3663TIP3   OH232623   3.800   0.855   8.729 -0.9152 -0.3029  0.2625
 3663TIP3    H132624   3.726   0.799   8.749 -2.3008  1.3567  0.0070
 3663TIP3    H232625   3.862   0.842   8.801 -1.3455 -1.8585  0.3683
 3664TIP3   OH232626   3.194   6.408   8.165 -0.5017 -0.5468  0.3636
 3664TIP3    H132627   3.219   6.407   8.072  1.1617 -0.7947  0.7713
 3664TIP3    H232628   3.226   6.324   8.199 -1.7920 -0.8019  1.0102
 3665TIP3   OH232629   0.869   3.118   0.328 -0.2713 -0.5463  0.5992
 3665TIP3    H132630   0.881   3.213   0.330  0.4691 -0.6232  2.5287
 3665TIP3    H232631   0.775   3.105   0.336 -0.3310  0.0440  0.9665
 3666TIP3   OH232632   3.403   2.663   0.525  0.7635 -0.5557  0.5638
 3666TIP3    H132633   3.339   2.596   0.498 -0.1782  0.3632  0.4448
 3666TIP3    H232634   3.486   2.616   0.532  0.3857 -1.4810 -0.7972
 3667TIP3   OH232635   6.033   4.662   0.016  0.1128  0.8724 -1.0283
 3667TIP3    H132636   6.025   4.660   0.112  1.5140 -0.9564 -0.9044
 3667TIP3    H232637   5.951   4.626  -0.016  0.0060  0.6325 -0.4894
 3668TIP3   OH232638   5.874   4.704   2.377 -0.3282  0.2789  0.3378
 3668TIP3    H132639   5.797   4.731   2.328 -1.5452  0.6692  2.3612
 3668TIP3    H232640   5.890   4.613   2.350 -1.2465  0.3351 -0.4023
 3669TIP3   OH232641   0.056   2.833   8.758  0.1995  0.7430 -0.0171
 3669TIP3    H132642   0.040   2.879   8.676  1.3808  2.0992  0.4807
 3669TIP3    H232643  -0.021   2.776   8.769 -0.1997  0.8843 -1.7982
 3670TIP3   OH232644   3.238   3.232   8.004 -0.2854 -0.1084  0.3163
 3670TIP3    H132645   3.170   3.174   8.036  0.6036 -0.8920  0.8401
 3670TIP3    H232646   3.216   3.248   7.912 -1.2332 -0.2447  0.5175
 3671TIP3   OH232647   6.702   0.581   8.387  0.1577 -0.4154 -0.3243
 3671TIP3    H132648   6.764   0.526   8.339 -1.5826 -1.5280 -1.3874
 3671TIP3    H232649   6.664   0.523   8.452 -2.0467 -0.7065 -1.7653
 3672TIP3   OH232650   3.329   6.429   2.685  1.0077  0.4009 -0.5105
 3672TIP3    H132651   3.313   6.348   2.735 -0.0002  0.4768 -0.7006
 3672TIP3    H232652   3.385   6.481   2.743 -0.1936  0.5157  0.6205
 3673TIP3   OH232653   5.906   3.332   0.053  0.5210  0.6838  0.2045
 3673TIP3    H132654   5.854   3.375   0.121 -0.2271  0.9978 -0.5526
 3673TIP3    H232655   5.843   3.308  -0.014  1.1798 -0.0793 -0.1614
 3674TIP3   OH232656   3.972   0.868   8.196 -0.1354  0.0369  0.0106
 3674TIP3    H132657   3.960   0.893   8.287 -0.7017  1.2409 -0.3770
 3674TIP3    H232658   3.940   0.943   8.146  0.8609 -0.2997 -1.1747
 3675TIP3   OH232659   6.166   1.106   1.692 -0.3925 -0.2333  0.1673
 3675TIP3    H132660   6.246   1.067   1.656 -0.3315 -0.5381  0.6263
 3675TIP3    H232661   6.111   1.031   1.714  0.3763 -0.1825  2.5954
 3676TIP3   OH232662   3.924   6.191   2.797 -0.1940 -0.2392 -0.1705
 3676TIP3    H132663   3.857   6.223   2.736  0.6147  1.8693 -0.0133
 3676TIP3    H232664   3.889   6.213   2.883  0.0003 -0.5765 -0.0036
 3677TIP3   OH232665   0.098   1.167   1.779  0.6676  0.4005 -0.2260
 3677TIP3    H132666   0.083   1.206   1.693  1.0092 -1.8335 -1.3864
 3677TIP3    H232667   0.034   1.208   1.836  0.3507  1.8533 -1.5594
 3678TIP3   OH232668   4.555   1.526   2.120  0.1223  0.7181 -0.7421
 3678TIP3    H132669   4.519   1.452   2.072  0.4932 -0.3141  0.5335
 3678TIP3    H232670   4.639   1.495   2.155  0.4607  1.8468 -0.4846
 3679TIP3   OH232671   6.025   2.580   7.766  0.2149  0.0619  0.1837
 3679TIP3    H132672   6.101   2.638   7.772 -0.4486  1.0275 -0.3836
 3679TIP3    H232673   5.955   2.629   7.809 -0.4340 -0.1907 -0.5641
 3680TIP3   OH232674   4.838   4.721   1.054  0.3643  0.1645 -0.2734
 3680TIP3    H132675   4.870   4.787   1.115  0.9059 -0.6448  0.3457
 3680TIP3    H232676   4.908   4.712   0.989  0.9060 -0.7419  0.4032
 3681TIP3   OH232677   0.890   3.457   1.752 -0.2434 -0.3841 -0.2964
 3681TIP3    H132678   0.837   3.443   1.831 -1.2120  0.8160 -0.6953
 3681TIP3    H232679   0.979   3.472   1.784 -0.3976 -1.0614  0.4745
 3682TIP3   OH232680   5.277   1.000   7.553  0.3501  0.9058 -1.0283
 3682TIP3    H132681   5.240   1.026   7.637  0.2641  3.1881 -1.7123
 3682TIP3    H232682   5.275   0.904   7.555  1.5965  0.8366  2.0660
 3683TIP3   OH232683   2.004   5.543   1.239 -0.0026 -0.2027 -0.3429
 3683TIP3    H132684   1.964   5.630   1.233 -1.3217 -0.7391  0.2149
 3683TIP3    H232685   1.945   5.487   1.189  1.1701 -0.6890 -1.2160
 3684TIP3   OH232686   5.861   0.180   8.137 -0.4203  0.6397  0.0485
 3684TIP3    H132687   5.947   0.218   8.155 -0.3538 -0.1034  1.4603
 3684TIP3    H232688   5.804   0.255   8.121  0.8837  1.1063 -3.2255
 3685TIP3   OH232689   5.446   6.634   3.171 -0.3678  0.0319  1.2227
 3685TIP3    H132690   5.537   6.661   3.181 -0.5893  1.4796 -0.2704
 3685TIP3    H232691   5.395   6.710   3.202 -1.0769 -0.5970  1.6385
 3686TIP3   OH232692   0.381   4.902   0.967  0.4290 -0.3906 -0.2601
 3686TIP3    H132693   0.340   4.951   0.895  2.3231  0.8272 -0.5739
 3686TIP3    H232694   0.389   4.813   0.934 -1.1450 -0.4690 -0.5024
 3687TIP3   OH232695   1.074   2.816   2.429  0.0681 -0.4275  0.2692
 3687TIP3    H132696   1.107   2.906   2.436 -0.1198 -0.4115  0.9958
 3687TIP3    H232697   1.124   2.768   2.495 -0.5025 -0.6553  0.5375
 3688TIP3   OH232698   5.789   2.420   7.520 -0.0407  0.3282  0.0227
 3688TIP3    H132699   5.704   2.403   7.560  0.3880 -0.2386  0.7214
 3688TIP3    H232700   5.773   2.493   7.460 -0.8946  0.5955  0.5555
 3689TIP3   OH232701   5.036   0.942   0.518 -0.6098 -0.1902  0.3015
 3689TIP3    H132702   5.110   0.896   0.480 -2.5734 -1.2276 -2.6874
 3689TIP3    H232703   4.991   0.876   0.571  0.1139  0.2183  1.4590
 3690TIP3   OH232704   2.347   4.818   0.241  0.2595  0.3874 -0.4588
 3690TIP3    H132705   2.414   4.865   0.191  0.0115  0.2825 -0.8973
 3690TIP3    H232706   2.313   4.882   0.303  0.8255  0.4162 -0.1755
 3691TIP3   OH232707   5.946   0.679   0.476  0.0187  0.3567 -0.1186
 3691TIP3    H132708   6.001   0.645   0.546 -1.4012  0.8747  1.3303
 3691TIP3    H232709   5.981   0.767   0.459 -0.3513  0.7085  0.8356
 3692TIP3   OH232710   0.475   0.098   8.422  0.1213 -0.0764  0.0032
 3692TIP3    H132711   0.485   0.003   8.426 -0.6340 -0.1496  0.3949
 3692TIP3    H232712   0.519   0.124   8.341 -1.5546 -1.0374 -1.2820
 3693TIP3   OH232713   6.769   4.069   1.353  0.6371 -0.1496  0.1332
 3693TIP3    H132714   6.748   4.153   1.312 -0.2338 -0.8028 -0.8071
 3693TIP3    H232715   6.726   4.004   1.298  2.7457 -1.3545 -0.1948
 3694TIP3   OH232716   3.348   0.747   8.702 -0.1669 -0.3717  0.7196
 3694TIP3    H132717   3.300   0.719   8.781  1.0062 -0.2835  1.4931
 3694TIP3    H232718   3.438   0.718   8.718  0.3593  0.8299 -0.0015
 3695TIP3   OH232719   4.773   6.282   0.477 -0.2926  0.4942  0.1941
 3695TIP3    H132720   4.858   6.325   0.487  0.6274 -1.0210 -0.7121
 3695TIP3    H232721   4.794   6.192   0.452 -2.2008  0.5677 -2.0002
 3696TIP3   OH232722   4.514   5.344   8.144 -0.2827  0.2413 -0.5047
 3696TIP3    H132723   4.529   5.434   8.115 -1.7475  1.2372  1.5304
 3696TIP3    H232724   4.438   5.315   8.093  0.1593  0.1477 -1.1267
 3697TIP3   OH232725   4.382   2.189   0.120 -0.6642 -0.1828 -0.3410
 3697TIP3    H132726   4.295   2.177   0.159 -0.0531  0.3166  1.2481
 3697TIP3    H232727   4.390   2.284   0.111  1.0557  0.1244  2.9212
 3698TIP3   OH232728   5.031   2.462   2.390  0.2633  0.5629  0.0183
 3698TIP3    H132729   5.056   2.551   2.366  0.1582  0.4964 -0.3529
 3698TIP3    H232730   5.114   2.416   2.401  0.3379  0.9714  1.2733
 3699TIP3   OH232731   5.463   5.371   0.457 -0.3079 -0.0233  0.1092
 3699TIP3    H132732   5.441   5.403   0.369  0.0227  1.1746  0.4475
 3699TIP3    H232733   5.553   5.339   0.449 -0.2666  0.1135  0.0169
 3700TIP3   OH232734   6.078   2.043   8.674  0.1722  0.4651 -0.0874
 3700TIP3    H132735   6.088   1.979   8.744 -0.6270  1.5754  1.0911
 3700TIP3    H232736   6.168   2.069   8.653  0.4046  1.1378  1.5456
 3701TIP3   OH232737   6.134   0.520   1.030 -0.3755 -0.5202  0.5217
 3701TIP3    H132738   6.072   0.532   1.101 -0.5462 -1.2264  0.4976
 3701TIP3    H232739   6.143   0.426   1.021  1.0147 -0.4333  0.7957
 3702TIP3   OH232740   0.819   0.393   0.997 -0.1456  0.1300  0.7997
 3702TIP3    H132741   0.908   0.366   0.972 -0.5924 -0.1046 -0.6366
 3702TIP3    H232742   0.815   0.486   0.974 -0.5384 -0.0671  0.0500
 3703TIP3   OH232743   4.859   0.382   8.635  0.0778  0.9086 -0.8983
 3703TIP3    H132744   4.819   0.442   8.698 -1.7928 -2.9424  1.9511
 3703TIP3    H232745   4.951   0.380   8.659 -0.2422  1.0264  0.4044
 3704TIP3   OH232746   3.148   1.426   8.100 -0.0835  0.3322  0.2744
 3704TIP3    H132747   3.241   1.409   8.118 -0.0020 -1.1078 -1.3046
 3704TIP3    H232748   3.144   1.442   8.006 -1.0191  3.7194  0.7682
 3705TIP3   OH232749   6.362   1.429   7.475 -0.0608 -0.4062  0.1918
 3705TIP3    H132750   6.379   1.520   7.451 -0.1156 -0.2303  0.8024
 3705TIP3    H232751   6.318   1.392   7.399 -1.1762  0.4251  0.4081
 3706TIP3   OH232752   6.448   0.306   0.021  0.7225  0.0128 -0.4974
 3706TIP3    H132753   6.453   0.219  -0.019  0.2355  0.1000 -0.7523
 3706TIP3    H232754   6.357   0.333   0.009  1.0428  0.8769 -1.0906
 3707TIP3   OH232755   4.901   2.774   1.810  0.4922 -0.3343 -0.0721
 3707TIP3    H132756   4.903   2.729   1.895  0.5357 -1.0300 -0.4380
 3707TIP3    H232757   4.990   2.766   1.777  0.2972 -0.6967 -0.5122
 3708TIP3   OH232758   0.467   1.725   1.597 -0.1997  0.0933 -0.6880
 3708TIP3    H132759   0.426   1.759   1.677  1.2645 -0.5555  0.3775
 3708TIP3    H232760   0.448   1.792   1.531  0.9254  2.0856  0.8717
 3709TIP3   OH232761   0.927   2.373   0.246 -0.1285  0.3593  0.9341
 3709TIP3    H132762   0.951   2.288   0.284 -0.3575 -0.2829 -0.3109
 3709TIP3    H232763   0.995   2.391   0.181 -0.9388  0.3439  0.0556
 3710TIP3   OH232764   0.528   3.498   8.743 -0.1284  0.4310 -0.4404
 3710TIP3    H132765   0.483   3.436   8.801 -0.1670 -0.1665 -1.1064
 3710TIP3    H232766   0.457   3.546   8.699 -0.1182  1.6971  0.8157
 3711TIP3   OH232767   5.795   0.799   0.237  0.2070  0.5559 -0.1726
 3711TIP3    H132768   5.812   0.718   0.284  1.7681  1.5566  1.1066
 3711TIP3    H232769   5.751   0.772   0.156 -1.4724 -1.3280  1.2836
 3712TIP3   OH232770   5.826   1.148   8.281  0.1380 -0.3061  0.2745
 3712TIP3    H132771   5.809   1.215   8.348  0.5793  0.0732  0.0191
 3712TIP3    H232772   5.816   1.195   8.198  1.6565 -0.2263  0.1030
 3713TIP3   OH232773   4.032   2.161   8.338  0.0142 -0.6895 -0.3457
 3713TIP3    H132774   4.010   2.068   8.341  1.9911 -1.1730  1.7089
 3713TIP3    H232775   4.126   2.163   8.321  0.0283  0.9482 -0.2312
 3714TIP3   OH232776   5.886   0.907   8.024 -0.1561  0.4712 -0.7944
 3714TIP3    H132777   5.794   0.921   8.001 -0.4452 -1.2006 -0.7525
 3714TIP3    H232778   5.884   0.878   8.115  0.4066  0.3411 -0.8207
 3715TIP3   OH232779   2.232   5.109   8.284 -0.0150  0.0119  0.7699
 3715TIP3    H132780   2.190   5.095   8.198  0.6666  0.8375  0.2875
 3715TIP3    H232781   2.236   5.022   8.322 -0.2693 -0.3848 -0.0711
 3716TIP3   OH232782   5.291   4.541   0.892  0.8726  0.0391  0.4650
 3716TIP3    H132783   5.375   4.574   0.921  2.4928 -1.2479 -2.3588
 3716TIP3    H232784   5.300   4.446   0.895 -0.2807 -0.1243 -0.3096
 3717TIP3   OH232785   0.529   4.209   1.806  0.1320 -0.0819  0.2005
 3717TIP3    H132786   0.540   4.250   1.891  0.7749  0.6749 -0.2355
 3717TIP3    H232787   0.552   4.278   1.743  0.3323 -0.8348 -0.5661
 3718TIP3   OH232788   5.072   3.698   0.353 -0.2007  0.4381  0.1952
 3718TIP3    H132789   4.991   3.646   0.347  0.0465 -0.0813  1.0735
 3718TIP3    H232790   5.141   3.632   0.357  0.1763  0.8565  0.5626
 3719TIP3   OH232791   0.580   5.206   0.450  0.4062 -0.1232  0.4497
 3719TIP3    H132792   0.573   5.133   0.511 -0.1272  0.3983  1.0413
 3719TIP3    H232793   0.644   5.265   0.490 -1.3983  1.1856  1.5951
 3720TIP3   OH232794   6.162   6.744   3.252 -0.2558  0.5190  0.0127
 3720TIP3    H132795   6.139   6.696   3.332  1.8867  0.1211  0.4517
 3720TIP3    H232796   6.079   6.781   3.222 -1.3601 -0.4835  1.6430
 3721TIP3   OH232797   4.841   1.675   8.586  0.0382  0.0272  0.2284
 3721TIP3    H132798   4.803   1.617   8.520 -2.4879  2.0822 -0.3206
 3721TIP3    H232799   4.816   1.636   8.670  1.8467 -1.7147  0.0340
 3722TIP3   OH232800   6.022   0.676   7.728 -0.4175  0.2230  0.4593
 3722TIP3    H132801   6.082   0.603   7.710  0.3292  1.0056 -0.3609
 3722TIP3    H232802   5.940   0.650   7.686  0.3254  0.5404 -1.3077
 3723TIP3   OH232803   3.643   0.661   0.540 -0.4594  0.1827 -0.2437
 3723TIP3    H132804   3.593   0.588   0.576  0.7929 -0.7240 -0.2397
 3723TIP3    H232805   3.691   0.696   0.615 -2.1890  2.0515  0.0785
 3724TIP3   OH232806   4.915   4.105   0.399 -0.4397  0.6282 -0.4335
 3724TIP3    H132807   4.831   4.072   0.432  0.5908 -0.7180  0.9929
 3724TIP3    H232808   4.932   4.051   0.322 -1.6515  2.0730 -1.7822
 3725TIP3   OH232809   1.519   0.217   0.149  0.1315  0.5260  0.1698
 3725TIP3    H132810   1.425   0.222   0.135  0.1660 -2.0430 -1.5760
 3725TIP3    H232811   1.529   0.160   0.225  0.2802 -0.7984 -0.8226
 3726TIP3   OH232812   6.764   3.720   2.868 -0.1965 -0.0337  0.2559
 3726TIP3    H132813   6.766   3.814   2.852 -0.1734  0.0897  0.9592
 3726TIP3    H232814   6.818   3.707   2.945  1.2098 -0.8457 -0.8165
 3727TIP3   OH232815   2.174   2.496   2.536 -0.2068 -0.5382 -0.4962
 3727TIP3    H132816   2.201   2.581   2.571 -1.8607 -0.0948 -0.1909
 3727TIP3    H232817   2.197   2.501   2.443  0.1321  0.0552 -0.3876
 3728TIP3   OH232818   2.768   5.965   3.090  0.3527  0.1323 -0.0506
 3728TIP3    H132819   2.823   5.906   3.038  0.5298  1.0470 -0.9245
 3728TIP3    H232820   2.789   5.943   3.181  2.2858  0.5457 -0.3501
 3729TIP3   OH232821   2.555   0.368   1.364 -0.5495 -0.3219  0.5131
 3729TIP3    H132822   2.493   0.439   1.382 -0.1181 -0.1644  1.3781
 3729TIP3    H232823   2.584   0.385   1.274 -1.8457 -0.4714  0.0392
 3730TIP3   OH232824   0.373   3.052   7.924 -0.2755  0.2927 -0.0270
 3730TIP3    H132825   0.443   3.031   7.986 -0.1937 -0.7867 -0.4606
 3730TIP3    H232826   0.295   3.061   7.978 -0.0925 -0.0385  0.3013
 3731TIP3   OH232827   6.461   4.911   1.406 -0.1627  0.7393 -0.2759
 3731TIP3    H132828   6.548   4.883   1.436 -0.8069 -1.0325  0.0670
 3731TIP3    H232829   6.470   5.005   1.391  1.8336  0.5891 -0.3193
 3732TIP3   OH232830   0.570   6.763   1.116 -0.0642  0.4073 -0.2180
 3732TIP3    H132831   0.562   6.725   1.028  1.9056 -0.2475 -0.1619
 3732TIP3    H232832   0.507   6.714   1.169 -0.4221 -0.0154 -1.0163
 3733TIP3   OH232833   0.948   2.509   2.628 -0.5581 -0.5727 -0.1986
 3733TIP3    H132834   1.003   2.586   2.642  1.5613 -1.5839 -2.2042
 3733TIP3    H232835   0.909   2.522   2.542  0.7590 -2.1478 -1.1094
 3734TIP3   OH232836   1.713   6.800   7.978  0.1975 -0.0226  0.1964
 3734TIP3    H132837   1.785   6.740   7.958  0.2944 -0.0201  0.5303
 3734TIP3    H232838   1.757   6.881   8.005  0.0699  0.0492  0.1856
 3735TIP3   OH232839   6.040   0.892   1.132  0.7641 -0.1240  0.2077
 3735TIP3    H132840   6.111   0.848   1.085  0.7597  0.8691 -0.7766
 3735TIP3    H232841   6.038   0.980   1.094 -1.8274 -0.4916 -0.7287
 3736TIP3   OH232842   0.606   1.779   8.638  0.3659 -0.4353 -0.0561
 3736TIP3    H132843   0.532   1.809   8.586  0.0435  2.5778  1.8796
 3736TIP3    H232844   0.680   1.830   8.606 -0.0521  2.3559  2.8626
 3737TIP3   OH232845   5.911   2.243   1.629 -0.4630  0.2599  0.3192
 3737TIP3    H132846   5.918   2.148   1.637  0.6398  0.4192  1.6669
 3737TIP3    H232847   5.861   2.257   1.549  2.4747 -1.4128 -2.0284
 3738TIP3   OH232848   0.556   0.907   2.310 -0.1204 -0.2741 -0.0824
 3738TIP3    H132849   0.470   0.948   2.296 -0.6277 -0.9066  1.0149
 3738TIP3    H232850   0.536   0.825   2.354  1.1707  0.8611  2.8908
 3739TIP3   OH232851   1.893   0.730   8.759  0.2840  0.4202  0.4623
 3739TIP3    H132852   1.911   0.662   8.694 -3.5278 -1.0653  0.7456
 3739TIP3    H232853   1.850   0.799   8.710 -0.3046  0.4272  0.9831
 3740TIP3   OH232854   6.284   3.010   8.387  0.0899  0.1934 -0.3605
 3740TIP3    H132855   6.317   3.100   8.380  0.2046  0.1592 -0.2515
 3740TIP3    H232856   6.332   2.972   8.460  0.8576 -0.3115 -1.1015
 3741TIP3   OH232857   3.635   2.496   8.186 -0.2192  0.5427  0.7458
 3741TIP3    H132858   3.683   2.415   8.196  0.2201  0.6795 -0.1424
 3741TIP3    H232859   3.547   2.477   8.220  0.5717  0.4428  2.8650
 3742TIP3   OH232860   1.684   5.178   1.918  0.4515 -0.1450 -0.2233
 3742TIP3    H132861   1.674   5.203   1.826  0.7105 -3.9885 -1.4750
 3742TIP3    H232862   1.779   5.179   1.932  0.3672  1.7605  0.5253
 3743TIP3   OH232863   4.669   6.533   3.535 -0.8955  0.0624 -0.1134
 3743TIP3    H132864   4.713   6.552   3.618 -0.0952 -2.9434  0.2747
 3743TIP3    H232865   4.590   6.486   3.560 -0.8732 -0.4753 -1.0131
 3744TIP3   OH232866   0.719   2.725   8.069  0.4686 -0.6403 -0.0482
 3744TIP3    H132867   0.677   2.708   7.984 -0.2731  2.2241 -0.3707
 3744TIP3    H232868   0.646   2.727   8.131 -0.1925  4.2931 -0.5987
 3745TIP3   OH232869   2.848   2.433   8.078 -0.2329  0.1625  0.1759
 3745TIP3    H132870   2.868   2.457   8.168 -0.7724  2.1242 -0.1763
 3745TIP3    H232871   2.928   2.453   8.029 -0.3739  0.3183  0.0111
 3746TIP3   OH232872   2.270   5.720   0.255  0.3151  0.9851  0.2335
 3746TIP3    H132873   2.230   5.668   0.324 -0.9923  1.3749 -0.1985
 3746TIP3    H232874   2.357   5.741   0.287  0.6782 -1.0181  0.6310
 3747TIP3   OH232875   4.895   3.201   0.156  0.0045  0.1410 -0.1340
 3747TIP3    H132876   4.976   3.241   0.124 -0.4110  0.7307 -0.4608
 3747TIP3    H232877   4.825   3.254   0.117 -0.5508 -0.7255 -0.3354
 3748TIP3   OH232878   5.610   5.078   1.616  0.0254 -0.4081  0.1939
 3748TIP3    H132879   5.620   5.044   1.527 -0.0654 -2.6061  0.9420
 3748TIP3    H232880   5.517   5.099   1.623  0.4271  2.0533 -0.9097
 3749TIP3   OH232881   5.657   2.733   2.029 -0.9702  0.9620  0.1332
 3749TIP3    H132882   5.588   2.668   2.022 -0.4423  0.5482 -1.5542
 3749TIP3    H232883   5.702   2.711   2.111  1.0773 -2.7816 -1.7166
 3750TIP3   OH232884   5.801   0.350   7.860 -1.0255 -0.1859 -0.1257
 3750TIP3    H132885   5.827   0.276   7.805 -1.7024 -0.0110 -0.6960
 3750TIP3    H232886   5.884   0.385   7.894 -0.6634 -0.8392 -0.3222
 3751TIP3   OH232887   2.004   0.471   2.536  0.7072 -0.0857 -0.5061
 3751TIP3    H132888   1.926   0.458   2.590  1.3293 -1.6967  0.0514
 3751TIP3    H232889   2.077   0.455   2.595  1.4483  0.4043 -1.2742
 3752TIP3   OH232890   5.427   4.848   0.864  0.3555  0.1383  0.0918
 3752TIP3    H132891   5.514   4.877   0.837 -0.4235  2.9690  0.2258
 3752TIP3    H232892   5.442   4.799   0.945  1.8081  1.3915  0.6487
 3753TIP3   OH232893   2.794   4.758   1.108 -0.5546 -0.5451  0.1576
 3753TIP3    H132894   2.797   4.785   1.200 -0.9790  0.8963 -0.2330
 3753TIP3    H232895   2.860   4.812   1.064  1.3977 -2.8813 -0.0386
 3754TIP3   OH232896   3.708   0.431   8.581 -0.0611 -0.1659  0.0460
 3754TIP3    H132897   3.697   0.340   8.555  1.3635 -0.5952  0.8711
 3754TIP3    H232898   3.796   0.436   8.617 -0.2547  1.4585  0.3870
 3755TIP3   OH232899   5.974   2.834   0.627  0.7189 -0.0221 -0.7459
 3755TIP3    H132900   5.930   2.815   0.544  0.0685 -1.6318 -0.0788
 3755TIP3    H232901   6.067   2.830   0.607  0.6007  1.3742 -1.7455
 3756TIP3   OH232902   1.269   0.222   2.315 -0.2758  0.3489  0.2771
 3756TIP3    H132903   1.319   0.143   2.294 -0.7331  0.1437 -0.0518
 3756TIP3    H232904   1.331   0.276   2.364  0.4106  0.2830 -0.4809
 3757TIP3   OH232905   6.454   0.161   7.815 -0.1967  0.0234 -0.4491
 3757TIP3    H132906   6.450   0.084   7.872 -0.9444 -0.8421 -1.6210
 3757TIP3    H232907   6.362   0.187   7.806 -0.0143  0.5684 -0.7160
 3758TIP3   OH232908   3.750   5.532   2.703  0.4904 -0.1406 -0.1282
 3758TIP3    H132909   3.825   5.501   2.754 -0.6485 -2.2181  0.3760
 3758TIP3    H232910   3.785   5.606   2.653  2.2374  0.5419  1.9344
 3759TIP3   OH232911   5.850   2.031   1.420  0.9808  0.7283 -0.1374
 3759TIP3    H132912   5.776   1.971   1.414 -0.0945  2.0819 -1.1298
 3759TIP3    H232913   5.927   1.975   1.415  0.0298 -0.6408 -0.0076
 3760TIP3   OH232914   0.289   6.531   0.138  0.4783 -0.2152 -0.0202
 3760TIP3    H132915   0.309   6.439   0.119 -0.1580 -0.5633  0.8891
 3760TIP3    H232916   0.197   6.530   0.163  0.2994  0.7779 -0.5952
 3761TIP3   OH232917   2.148   5.004   0.780 -0.0242  0.6395 -0.4826
 3761TIP3    H132918   2.188   4.961   0.856 -2.2737  1.9103  1.5442
 3761TIP3    H232919   2.187   5.092   0.780  0.6704  0.3418 -1.4120
 3762TIP3   OH232920   0.386   4.130   1.584 -0.0853 -0.3653  0.7205
 3762TIP3    H132921   0.418   4.133   1.674  0.9891  1.0263  0.3425
 3762TIP3    H232922   0.300   4.172   1.587  1.0289  2.0818  0.7553
 3763TIP3   OH232923   3.888   6.538   7.281  0.4256  0.4319  0.2908
 3763TIP3    H132924   3.976   6.576   7.275 -0.7509  3.2779 -0.6626
 3763TIP3    H232925   3.855   6.566   7.366  0.3955 -0.6664  0.6647
 3764TIP3   OH232926   5.999   5.977   7.564  0.2869  0.4381 -0.0650
 3764TIP3    H132927   5.910   5.944   7.571 -0.2632  1.7933 -0.2489
 3764TIP3    H232928   5.988   6.070   7.543  1.7417  0.9024  1.1005
 3765TIP3   OH232929   1.730   5.828   8.688  0.1165  0.2783  0.3275
 3765TIP3    H132930   1.657   5.875   8.649 -0.2213  0.5654  1.2703
 3765TIP3    H232931   1.719   5.840   8.783  1.1006 -0.0920  0.5078
 3766TIP3   OH232932   1.397   6.126   2.464  0.4838  0.4483 -0.5883
 3766TIP3    H132933   1.460   6.077   2.516 -0.7689 -0.8919 -0.2550
 3766TIP3    H232934   1.447   6.159   2.390  1.4410 -1.2069 -0.7212
 3767TIP3   OH232935   6.390   3.387   2.863  0.6054  0.0022 -0.2315
 3767TIP3    H132936   6.449   3.460   2.881  2.2768 -1.2952 -0.2034
 3767TIP3    H232937   6.377   3.345   2.949  0.6901 -0.4669 -0.4420
 3768TIP3   OH232938   1.354   6.117   8.151  0.2156 -0.6126  0.0828
 3768TIP3    H132939   1.313   6.203   8.140 -1.1285 -1.2097  0.2535
 3768TIP3    H232940   1.322   6.065   8.078 -1.0148 -1.7046  1.3430
 3769TIP3   OH232941   4.710   0.553   2.239 -0.9363 -0.2512  0.1507
 3769TIP3    H132942   4.781   0.589   2.293  0.1908  0.1157 -1.5143
 3769TIP3    H232943   4.649   0.626   2.229  0.8588  1.0398 -2.3911
 3770TIP3   OH232944   0.910   4.238   8.316  0.2727  0.7557 -0.3974
 3770TIP3    H132945   0.941   4.157   8.277  2.2536  2.1950 -2.0631
 3770TIP3    H232946   0.949   4.239   8.404  0.3389 -0.0229 -0.4118
 3771TIP3   OH232947   2.111   4.877   0.071  0.1196  0.1078 -0.3223
 3771TIP3    H132948   2.143   4.967   0.077  0.0923  0.0358  1.4008
 3771TIP3    H232949   2.166   4.828   0.133  0.9492 -1.3278 -2.1003
 3772TIP3   OH232950   1.181   1.843   7.621 -0.2874 -0.4413 -0.2893
 3772TIP3    H132951   1.117   1.827   7.552  0.7777 -0.6707 -1.2440
 3772TIP3    H232952   1.219   1.928   7.600 -0.7985  0.0469  0.7007
 3773TIP3   OH232953   5.408   2.950   0.636 -0.1085  0.4296 -0.3405
 3773TIP3    H132954   5.343   2.994   0.581 -1.7923  0.2998  1.4153
 3773TIP3    H232955   5.453   2.890   0.577 -2.1634 -0.0660 -1.5033
 3774TIP3   OH232956   6.791   1.941   0.342  0.1970  0.3764 -0.0671
 3774TIP3    H132957   6.734   1.939   0.266 -0.4974 -0.9016  0.4568
 3774TIP3    H232958   6.878   1.922   0.307  0.2093  1.6323 -0.7704
 3775TIP3   OH232959   3.031   3.384   3.238 -0.0364 -0.5350  0.2690
 3775TIP3    H132960   3.017   3.479   3.234  2.1753 -0.1886 -0.4739
 3775TIP3    H232961   2.985   3.357   3.318 -1.3575  1.0069  0.0960
 3776TIP3   OH232962   3.775   6.566   2.069 -0.3381  0.0465  0.3340
 3776TIP3    H132963   3.794   6.526   1.984 -0.7229 -2.0025  1.1638
 3776TIP3    H232964   3.858   6.563   2.116 -0.3294  0.3886  0.3427
 3777TIP3   OH232965   2.303   0.910   1.052 -0.0442  0.0717  0.2030
 3777TIP3    H132966   2.326   1.003   1.059  1.6583 -0.4510  3.1478
 3777TIP3    H232967   2.387   0.865   1.056 -1.0229 -1.6945  2.6166
 3778TIP3   OH232968   4.821   5.364   7.616  0.0465 -0.0866  0.1308
 3778TIP3    H132969   4.910   5.370   7.651 -0.2701  1.1571  0.8072
 3778TIP3    H232970   4.820   5.427   7.543  0.1484 -1.2350 -0.8860
 3779TIP3   OH232971   4.364   6.455   1.452 -0.2093  0.7246 -0.2342
 3779TIP3    H132972   4.444   6.419   1.414 -1.3754 -0.2449 -1.8611
 3779TIP3    H232973   4.361   6.545   1.421 -0.0696  0.5749 -0.6846
 3780TIP3   OH232974   2.759   6.028   0.356  0.4904 -0.3794 -0.0441
 3780TIP3    H132975   2.766   6.003   0.449  2.5993 -1.1788 -0.3552
 3780TIP3    H232976   2.791   6.118   0.353 -1.4255  0.3632  0.2249
 3781TIP3   OH232977   4.744   1.154   8.724 -0.0201  0.1284  0.6487
 3781TIP3    H132978   4.726   1.061   8.711  0.4624  0.0242  0.6845
 3781TIP3    H232979   4.811   1.175   8.659  1.4121 -0.0741  1.9868
 3782TIP3   OH232980   6.666   5.214   8.501 -0.3772 -0.3345 -0.1624
 3782TIP3    H132981   6.752   5.173   8.514 -0.3089 -1.0853 -2.5463
 3782TIP3    H232982   6.612   5.180   8.573 -0.1739 -4.3247 -1.6516
 3783TIP3   OH232983   1.072   3.291   2.224 -0.5920 -0.3378  0.3645
 3783TIP3    H132984   1.147   3.339   2.260  0.5254 -0.9442 -1.0402
 3783TIP3    H232985   1.016   3.273   2.300  0.3440  0.7197  1.3471
 3784TIP3   OH232986   6.543   2.256   1.797 -0.0098 -0.1593 -0.4059
 3784TIP3    H132987   6.520   2.163   1.807 -1.2951  0.2981  1.6878
 3784TIP3    H232988   6.477   2.290   1.738 -1.8380  0.0941  1.6511
 3785TIP3   OH232989   3.005   1.829   3.322  0.1541 -0.0572 -0.0118
 3785TIP3    H132990   2.952   1.811   3.244 -0.4707  0.4513  0.2824
 3785TIP3    H232991   3.092   1.797   3.300  0.1093  0.5297 -1.1216
 3786TIP3   OH232992   2.297   1.440   1.169  0.2667  0.1936 -0.8198
 3786TIP3    H132993   2.242   1.449   1.247  0.7807  1.6205 -0.5851
 3786TIP3    H232994   2.270   1.357   1.130 -0.3035 -0.3510  0.6424
 3787TIP3   OH232995   5.733   0.220   2.723 -0.1395 -0.3750 -0.1119
 3787TIP3    H132996   5.797   0.207   2.792  0.8677  1.4483 -0.6232
 3787TIP3    H232997   5.648   0.209   2.765  0.4135  1.5286  1.6830
 3788TIP3   OH232998   3.031   2.616   1.815 -0.0603  0.1445  0.4808
 3788TIP3    H132999   2.958   2.659   1.859  0.3284 -1.1525  2.5411
 3788TIP3    H233000   3.023   2.642   1.724 -0.6868  3.3215  1.3198
 3789TIP3   OH233001   4.933   6.729   2.803 -0.1779  1.0826 -0.4591
 3789TIP3    H133002   4.941   6.817   2.765 -1.3770  0.7190 -1.6432
 3789TIP3    H233003   4.943   6.742   2.897  4.0885  1.9126 -0.8209
 3790TIP3   OH233004   3.665   1.564   0.004 -1.0679 -0.1855  0.4890
 3790TIP3    H133005   3.710   1.481   0.019  0.7872  0.6337 -0.2495
 3790TIP3    H233006   3.657   1.603   0.091  1.8307  0.6706  0.4905
 3791TIP3   OH233007   2.765   3.181   8.175  0.0158  0.4279 -0.1538
 3791TIP3    H133008   2.772   3.276   8.178  1.7840  0.3924 -1.5037
 3791TIP3    H233009   2.782   3.152   8.265  1.2530  1.3203 -0.0797
 3792TIP3   OH233010   4.338   2.291   8.038 -0.9277 -0.5213 -0.8545
 3792TIP3    H133011   4.314   2.249   8.120 -0.4665 -0.4602 -0.6904
 3792TIP3    H233012   4.254   2.305   7.993 -1.2663  0.2891  0.0093
 3793TIP3   OH233013   0.938   5.997   2.695 -0.2477  0.4439 -0.0519
 3793TIP3    H133014   0.845   5.985   2.676 -0.0902 -1.0446 -0.0491
 3793TIP3    H233015   0.941   6.028   2.785 -0.7296 -0.0467  0.1361
 3794TIP3   OH233016   4.197   5.876   1.872 -0.0908  0.1482  0.1084
 3794TIP3    H133017   4.101   5.877   1.870 -0.0839  1.1333 -2.1600
 3794TIP3    H233018   4.222   5.806   1.813  0.5840  0.7698 -0.3620
 3795TIP3   OH233019   0.884   0.278   2.776  0.1999 -0.2776 -0.2457
 3795TIP3    H133020   0.910   0.323   2.696  3.0691 -1.9071 -0.3548
 3795TIP3    H233021   0.788   0.278   2.773  0.1723 -0.5237 -3.8285
 3796TIP3   OH233022   5.346   2.213   0.844  0.5853 -0.4200 -0.0335
 3796TIP3    H133023   5.335   2.142   0.908  1.7578 -0.0649  0.5938
 3796TIP3    H233024   5.432   2.249   0.863  1.1888 -0.6163 -2.1612
 3797TIP3   OH233025   4.163   1.153   2.014  0.2675  0.1242  0.2441
 3797TIP3    H133026   4.138   1.110   1.933  1.2576 -0.4047  0.2020
 3797TIP3    H233027   4.102   1.226   2.023 -1.1554 -0.9901  0.0709
 3798TIP3   OH233028   2.573   6.406   1.697  0.6939  0.7525 -0.2327
 3798TIP3    H133029   2.668   6.404   1.699  0.6879  0.7026  0.0922
 3798TIP3    H233030   2.549   6.470   1.764  0.4394 -1.0377  1.4724
 3799TIP3   OH233031   4.624   0.919   3.215 -0.3416  0.0247 -0.4698
 3799TIP3    H133032   4.573   1.000   3.219  0.1244  0.3349 -0.7524
 3799TIP3    H233033   4.579   0.866   3.148 -2.1935 -1.0494  1.5115
 3800TIP3   OH233034   6.444   5.260   7.612  0.0683  0.2006  0.2908
 3800TIP3    H133035   6.370   5.201   7.599  0.2920 -0.3307  1.3484
 3800TIP3    H233036   6.404   5.347   7.619 -0.2902  0.1503 -0.8819
 3801TIP3   OH233037   0.720   4.705   1.796 -0.4125 -0.5271 -0.0088
 3801TIP3    H133038   0.755   4.675   1.712 -0.2731 -0.5228  0.0480
 3801TIP3    H233039   0.694   4.625   1.841  0.8865 -0.6487  0.5600
 3802TIP3   OH233040   4.995   3.433   0.353 -0.3568 -0.0455 -0.1504
 3802TIP3    H133041   5.086   3.406   0.344  0.1215  0.5481  2.1274
 3802TIP3    H233042   4.958   3.373   0.418 -1.4988 -0.0341 -0.7583
 3803TIP3   OH233043   3.123   1.472   2.451  0.5286 -0.2397 -0.3177
 3803TIP3    H133044   3.084   1.530   2.517  0.0578 -1.4642  0.5285
 3803TIP3    H233045   3.052   1.456   2.389  0.8364  0.5495 -0.8839
 3804TIP3   OH233046   4.083   0.235   0.281  0.4812  0.2032  0.4943
 3804TIP3    H133047   3.999   0.200   0.310 -0.8296 -0.4013 -3.4318
 3804TIP3    H233048   4.086   0.324   0.318 -0.5906 -0.6519  2.8105
 3805TIP3   OH233049   0.433   0.887   2.022 -0.6468  0.4084 -0.1320
 3805TIP3    H133050   0.428   0.912   1.929  0.1221 -0.2219 -0.3542
 3805TIP3    H233051   0.343   0.897   2.054 -1.5139 -1.7690 -1.6086
 3806TIP3   OH233052   1.959   3.262   7.600 -0.3462 -0.3043  0.1509
 3806TIP3    H133053   2.044   3.241   7.639 -1.3004 -2.0387  1.4525
 3806TIP3    H233054   1.976   3.269   7.507  1.0125 -2.0092  0.2241
 3807TIP3   OH233055   2.673   6.679   2.495 -0.2312 -0.7914 -0.0420
 3807TIP3    H133056   2.743   6.670   2.560 -0.2250 -2.6244 -0.2401
 3807TIP3    H233057   2.594   6.650   2.540 -0.9221  1.2923  0.1886
 3808TIP3   OH233058   6.437   5.061   0.426  0.0481 -0.2103  0.0934
 3808TIP3    H133059   6.419   5.003   0.500  2.2630 -0.5642  0.4432
 3808TIP3    H233060   6.387   5.023   0.354  1.8106 -3.0030  0.1777
 3809TIP3   OH233061   5.051   2.744   3.095  0.1175  0.1119  0.4489
 3809TIP3    H133062   5.070   2.795   3.173 -0.3348 -0.4201  0.9130
 3809TIP3    H233063   4.961   2.714   3.107 -0.1684  0.5197 -0.5549
 3810TIP3   OH233064   3.529   0.188   0.296  0.1017  0.0051 -0.0258
 3810TIP3    H133065   3.470   0.214   0.367  0.7797  1.2567  0.1109
 3810TIP3    H233066   3.490   0.109   0.260  0.5280 -1.6083  2.7413
 3811TIP3   OH233067   3.870   1.308   8.457  0.2733 -0.3987 -0.3955
 3811TIP3    H133068   3.961   1.322   8.482 -0.0584 -0.3097  0.7946
 3811TIP3    H233069   3.838   1.241   8.517 -0.1320 -1.2808 -1.5552
 3812TIP3   OH233070   6.842   3.707   3.458  0.2799  0.5191 -0.0613
 3812TIP3    H133071   6.918   3.697   3.515 -0.1975  2.3609  0.9891
 3812TIP3    H233072   6.772   3.736   3.517 -1.0451 -0.4016 -1.1277
 3813TIP3   OH233073   0.605   1.618   7.926  0.3876  0.4357  0.0047
 3813TIP3    H133074   0.647   1.645   7.845  0.1040  0.5550 -0.1056
 3813TIP3    H233075   0.513   1.609   7.903  0.4340 -0.3442  0.1203
 3814TIP3   OH233076   5.179   6.163   1.499  0.1954 -0.3678 -0.2096
 3814TIP3    H133077   5.162   6.069   1.502 -0.6395 -0.2150  0.1423
 3814TIP3    H233078   5.218   6.177   1.412 -0.7400 -0.8817 -0.7360
 3815TIP3   OH233079   3.434   2.700   1.828  0.0721  0.6858  0.0893
 3815TIP3    H133080   3.351   2.738   1.797  0.1635  1.1080  0.3487
 3815TIP3    H233081   3.501   2.758   1.794  0.3475 -0.2278 -0.9910
 3816TIP3   OH233082   4.893   6.221   1.241 -0.4197 -0.5944  0.7615
 3816TIP3    H133083   4.920   6.271   1.164 -2.1632 -1.8216 -0.7393
 3816TIP3    H233084   4.885   6.287   1.311  0.7648  0.6236 -0.1939
 3817TIP3   OH233085   3.345   5.483   1.023 -0.3669  0.1005 -0.3464
 3817TIP3    H133086   3.337   5.454   1.114 -1.8801  0.9827 -0.1779
 3817TIP3    H233087   3.424   5.439   0.992  2.4238  2.6776  2.4704
 3818TIP3   OH233088   3.247   1.387   7.570  0.4671  0.1189  0.0184
 3818TIP3    H133089   3.239   1.298   7.536  0.0258 -0.5296  1.7443
 3818TIP3    H233090   3.199   1.441   7.507 -0.5900 -1.0851 -0.2409
 3819TIP3   OH233091   1.174   1.985   7.941  0.1240 -0.2740 -0.1615
 3819TIP3    H133092   1.080   1.971   7.949  0.4302 -1.8870  1.1572
 3819TIP3    H233093   1.214   1.904   7.973  1.9969  0.9965  0.9653
 3820TIP3   OH233094   4.904   2.129   1.742 -0.9450  0.2307 -0.3980
 3820TIP3    H133095   4.992   2.100   1.718  0.0584  0.6347  2.3878
 3820TIP3    H233096   4.846   2.058   1.713  0.4481 -0.6734 -1.0628
 3821TIP3   OH233097   4.037   4.770   2.536  0.0782 -0.0281  0.1702
 3821TIP3    H133098   4.036   4.858   2.573  0.1950  0.4490 -0.9286
 3821TIP3    H233099   4.127   4.757   2.506  0.3300 -0.9304  1.2346
 3822TIP3   OH233100   0.633   4.685   8.465  0.3571  0.3426  0.1656
 3822TIP3    H133101   0.723   4.663   8.439  0.2018  0.6809 -0.6855
 3822TIP3    H233102   0.579   4.655   8.392 -0.0986  1.2263  0.1271
 3823TIP3   OH233103   6.333   5.012   1.662 -0.2203 -0.1839 -0.3494
 3823TIP3    H133104   6.413   5.054   1.693 -0.4627  1.5051 -1.8157
 3823TIP3    H233105   6.352   4.987   1.571 -1.0650 -0.5524 -0.4388
 3824TIP3   OH233106   6.476   1.171   8.776  0.5668 -0.2699  0.1766
 3824TIP3    H133107   6.430   1.103   8.727 -1.5890  0.7110  0.7072
 3824TIP3    H233108   6.525   1.124   8.844 -1.8799 -1.2918  1.3393
 3825TIP3   OH233109   1.574   3.838   1.075  0.6057  0.5327 -0.0467
 3825TIP3    H133110   1.658   3.883   1.067  1.6476 -1.3947 -0.3821
 3825TIP3    H233111   1.586   3.778   1.149  0.0859 -0.8847 -1.0726
 3826TIP3   OH233112   3.932   3.497   7.627  0.0799 -0.3856 -0.3242
 3826TIP3    H133113   3.884   3.552   7.565 -1.5528 -2.9542 -1.5199
 3826TIP3    H233114   4.024   3.515   7.609 -0.3115  2.7236  0.1743
 3827TIP3   OH233115   1.140   4.749   2.380 -0.0129 -0.1657 -0.4332
 3827TIP3    H133116   1.188   4.686   2.434 -0.6429  0.5133  0.9751
 3827TIP3    H233117   1.104   4.696   2.308 -0.3080 -1.3789  0.5661
 3828TIP3   OH233118   1.281   1.934   0.723 -0.1252  0.3280  0.4012
 3828TIP3    H133119   1.288   1.848   0.681 -1.0404 -0.2332  1.3614
 3828TIP3    H233120   1.334   1.927   0.802 -1.1297  0.2469  1.0836
 3829TIP3   OH233121   0.855   2.450   7.713  0.3082 -0.2349 -0.0376
 3829TIP3    H133122   0.771   2.423   7.749  0.8645 -1.6874  0.2552
 3829TIP3    H233123   0.837   2.533   7.669 -0.8773  0.4010  1.5625
 3830TIP3   OH233124   2.455   5.882   2.202 -0.5522 -0.4915 -0.3043
 3830TIP3    H133125   2.549   5.892   2.211 -0.3616 -2.1489 -0.1212
 3830TIP3    H233126   2.418   5.924   2.280  0.1651 -1.4841  0.5945
 3831TIP3   OH233127   4.656   0.187   8.017  0.7724  0.2473  0.2149
 3831TIP3    H133128   4.668   0.177   8.112  0.2337 -0.7364  0.1861
 3831TIP3    H233129   4.703   0.113   7.979  0.5991  0.3807 -0.2690
 3832TIP3   OH233130   3.819   0.803   2.524  0.6405 -0.2025  0.2063
 3832TIP3    H133131   3.793   0.739   2.457  1.0829 -0.3566  0.1839
 3832TIP3    H233132   3.740   0.856   2.537  0.6751  0.1224 -0.7720
 3833TIP3   OH233133   4.180   6.390   2.169  0.2296 -0.1135  0.0862
 3833TIP3    H133134   4.123   6.313   2.176  0.5562 -0.3331  0.3228
 3833TIP3    H233135   4.240   6.382   2.242  0.6085  0.0878 -0.2004
 3834TIP3   OH233136   1.937   1.951   7.605 -0.3269 -0.0590  0.0970
 3834TIP3    H133137   1.995   1.927   7.533 -0.2471  1.7155 -0.4739
 3834TIP3    H233138   1.856   1.979   7.563 -0.3595  0.7838  0.6974
 3835TIP3   OH233139   2.529   0.015   7.458  0.2576 -0.1461 -0.9275
 3835TIP3    H133140   2.498   0.096   7.500 -0.2569 -1.6227  1.7322
 3835TIP3    H233141   2.624   0.027   7.451  0.1520  0.8063 -0.8558
 3836TIP3   OH233142   5.619   4.532   7.649  0.7239  0.0669 -0.0788
 3836TIP3    H133143   5.585   4.453   7.690  1.5476 -0.0456  0.3934
 3836TIP3    H233144   5.543   4.590   7.643  0.2063 -0.5968 -0.0509
 3837TIP3   OH233145   1.084   2.276   7.408 -0.0339  0.0982  0.2490
 3837TIP3    H133146   1.161   2.296   7.355 -0.4420 -0.7580 -0.7227
 3837TIP3    H233147   1.010   2.310   7.356 -0.3204  0.9376  1.1816
 3838TIP3   OH233148   3.379   2.327   0.545  0.0224 -0.0776 -0.7490
 3838TIP3    H133149   3.386   2.295   0.455 -1.1512 -0.3023 -0.7754
 3838TIP3    H233150   3.351   2.251   0.596 -0.4332  0.3139 -0.4002
 3839TIP3   OH233151   0.900   6.648   0.582 -0.0642  0.3682 -0.3665
 3839TIP3    H133152   0.820   6.684   0.544 -0.6296  1.5706  1.8083
 3839TIP3    H233153   0.947   6.724   0.617 -0.0413 -0.6576  2.0812
 3840TIP3   OH233154   2.583   2.080   2.208  0.1214 -0.1095  0.3797
 3840TIP3    H133155   2.592   1.985   2.221  0.3228 -0.4337 -1.7625
 3840TIP3    H233156   2.515   2.106   2.271  0.2747 -1.6116  1.2166
 3841TIP3   OH233157   0.301   3.313   8.600  0.4538  0.0294  0.6840
 3841TIP3    H133158   0.341   3.290   8.516  1.2417  0.4881  0.9217
 3841TIP3    H233159   0.275   3.404   8.590 -1.8544 -0.6276  0.0484
 3842TIP3   OH233160   1.173   0.449   8.409  0.1261  0.4361  0.2738
 3842TIP3    H133161   1.099   0.502   8.378 -0.1150  0.3035  0.6088
 3842TIP3    H233162   1.132   0.383   8.465  0.0952 -1.7397 -2.1110
 3843TIP3   OH233163   3.372   5.199   8.017 -0.1591 -0.0214  0.1099
 3843TIP3    H133164   3.397   5.268   8.078 -1.2449 -1.1889  1.9938
 3843TIP3    H233165   3.276   5.196   8.022 -0.2104 -0.7850 -0.9549
 3844TIP3   OH233166   4.703   0.995   0.292 -0.4599 -0.0145 -0.2329
 3844TIP3    H133167   4.721   1.089   0.282  0.6118 -0.0004  1.3558
 3844TIP3    H233168   4.785   0.953   0.266 -0.0473 -0.3220  1.4170
 3845TIP3   OH233169   4.539   0.245   1.868 -0.5082  1.1091  0.0692
 3845TIP3    H133170   4.583   0.236   1.783 -1.8641  2.0470 -0.7722
 3845TIP3    H233171   4.548   0.337   1.890 -0.0290  0.8438  1.0514
 3846TIP3   OH233172   5.241   1.997   3.475  0.1684  0.2734  0.2004
 3846TIP3    H133173   5.292   1.948   3.539  1.0956  0.2331 -0.5539
 3846TIP3    H233174   5.284   2.082   3.471  0.5065  0.0690 -0.8116
 3847TIP3   OH233175   3.189   3.842   3.420 -0.0612 -0.3079 -0.3855
 3847TIP3    H133176   3.255   3.792   3.469 -2.1649 -1.1461  1.7860
 3847TIP3    H233177   3.185   3.926   3.465 -0.6636 -0.3593 -0.3453
 3848TIP3   OH233178   5.346   1.385   8.234 -0.5298 -0.5777  0.4860
 3848TIP3    H133179   5.399   1.464   8.221  0.8298 -1.3952  0.7847
 3848TIP3    H233180   5.265   1.416   8.274 -1.4906  1.0495 -2.3996
 3849TIP3   OH233181   1.537   4.643   2.802 -0.8736 -0.2936  0.3540
 3849TIP3    H133182   1.575   4.707   2.743 -0.9526 -0.4414  0.1405
 3849TIP3    H233183   1.584   4.656   2.885  0.0431 -0.8535 -0.0588
 3850TIP3   OH233184   3.251   0.608   7.188 -0.2349  0.1113 -0.4193
 3850TIP3    H133185   3.252   0.571   7.100  0.3942 -2.9508  0.7660
 3850TIP3    H233186   3.240   0.533   7.246  2.1640  1.6455  2.2765
 3851TIP3   OH233187   1.992   2.260   8.448  0.6477  0.3395 -0.2535
 3851TIP3    H133188   1.926   2.281   8.514  1.2261  0.7957  0.1912
 3851TIP3    H233189   2.053   2.202   8.493  1.6474  1.5283 -0.0423
 3852TIP3   OH233190   5.421   3.176   3.425 -0.5818  0.2235  0.0438
 3852TIP3    H133191   5.402   3.096   3.473 -0.9219  0.0341 -0.4030
 3852TIP3    H233192   5.348   3.186   3.364 -1.3576  1.7234  1.1696
 3853TIP3   OH233193   4.660   5.081   2.000 -0.5035  0.0383  0.0877
 3853TIP3    H133194   4.652   5.093   1.905 -2.4435 -3.8863 -0.4213
 3853TIP3    H233195   4.711   5.001   2.010 -1.9905 -0.7071  2.2825
 3854TIP3   OH233196   2.761   4.143   8.149 -0.0984 -0.1692  0.0126
 3854TIP3    H133197   2.778   4.188   8.067 -1.6174  0.8056  0.1751
 3854TIP3    H233198   2.726   4.057   8.123 -0.2193 -0.0084 -0.3614
 3855TIP3   OH233199   4.243   5.909   2.805 -0.6157  0.6513  0.9878
 3855TIP3    H133200   4.334   5.929   2.784 -0.7952  1.3778  0.8855
 3855TIP3    H233201   4.240   5.813   2.811  0.1639  0.6272  1.0550
 3856TIP3   OH233202   6.293   5.620   0.546 -0.3503  0.0053  0.2774
 3856TIP3    H133203   6.319   5.537   0.587  1.1934  0.6879  0.7151
 3856TIP3    H233204   6.353   5.630   0.472  0.7376  1.6178  1.3174
 3857TIP3   OH233205   2.494   2.037   3.333 -0.1967 -0.3512 -0.5268
 3857TIP3    H133206   2.541   1.992   3.403 -1.1900 -0.3450  0.1663
 3857TIP3    H233207   2.446   1.968   3.287  1.0873 -0.4821 -1.7680
 3858TIP3   OH233208   0.109   4.936   1.468  0.5038  0.1639  0.0110
 3858TIP3    H133209   0.021   4.899   1.464  1.0460 -1.2283  0.2656
 3858TIP3    H233210   0.136   4.943   1.377  0.7161 -0.9497 -0.0333
 3859TIP3   OH233211   4.050   4.258   0.652  0.0194  0.1758 -0.4342
 3859TIP3    H133212   3.993   4.264   0.575 -0.9153  1.5281  0.3193
 3859TIP3    H233213   4.060   4.349   0.681  0.1770 -0.3309  1.1696
 3860TIP3   OH233214   1.006   0.439   8.031 -0.3731  0.1617 -0.1470
 3860TIP3    H133215   0.917   0.447   7.998  0.4695 -0.1633 -2.6830
 3860TIP3    H233216   1.020   0.345   8.042  0.1016  0.0914 -1.1992
 3861TIP3   OH233217   5.851   2.342   3.120 -0.3716 -0.0608  0.4440
 3861TIP3    H133218   5.900   2.342   3.202  0.4603  0.7865 -0.0190
 3861TIP3    H233219   5.823   2.433   3.108 -1.0114 -0.2945  0.0915
 3862TIP3   OH233220   4.753   4.481   1.084 -0.2754  0.3224  0.8024
 3862TIP3    H133221   4.795   4.438   1.010  1.4575 -1.2560  2.5897
 3862TIP3    H233222   4.784   4.571   1.080 -0.3989  0.3244 -0.4899
 3863TIP3   OH233223   5.242   0.962   8.038  0.1527 -0.5288  0.0126
 3863TIP3    H133224   5.248   1.057   8.050  0.6362 -0.6442  0.7700
 3863TIP3    H233225   5.239   0.927   8.127 -0.0960 -1.2207 -0.2649
 3864TIP3   OH233226   3.405   5.041   8.365  0.2787  0.3487  0.1508
 3864TIP3    H133227   3.501   5.047   8.369  0.4719  0.1088 -2.3167
 3864TIP3    H233228   3.377   5.131   8.345  0.1550  0.1396 -0.6775
 3865TIP3   OH233229   2.326   0.595   7.954  0.1048  0.3460 -0.2258
 3865TIP3    H133230   2.399   0.656   7.963 -1.5167  2.8431 -2.3996
 3865TIP3    H233231   2.312   0.587   7.860 -1.7060 -0.9423  0.0909
 3866TIP3   OH233232   3.035   3.638   8.664 -0.6666  0.5679 -0.5855
 3866TIP3    H133233   3.052   3.547   8.640  0.9524  0.5669  0.4304
 3866TIP3    H233234   3.104   3.660   8.726 -2.0119  1.9892  0.4767
 3867TIP3   OH233235   2.785   4.410   1.709 -0.4683  0.2567 -0.0430
 3867TIP3    H133236   2.849   4.366   1.652  0.1635  0.3834  0.5458
 3867TIP3    H233237   2.712   4.349   1.713  0.3828 -0.7577  0.7270
 3868TIP3   OH233238   2.291   1.794   8.607 -0.0909  1.2386  0.2370
 3868TIP3    H133239   2.257   1.724   8.663  2.6986  1.0956  1.9151
 3868TIP3    H233240   2.274   1.764   8.518  0.8345 -1.5107  0.9037
 3869TIP3   OH233241   4.064   5.213   0.365  0.1910 -0.2948  0.3031
 3869TIP3    H133242   4.002   5.140   0.363 -1.9242  1.3889  0.3515
 3869TIP3    H233243   4.099   5.217   0.276 -2.2325  0.5874 -0.7058
 3870TIP3   OH233244   6.639   2.459   1.195 -0.4312 -0.3825  0.5139
 3870TIP3    H133245   6.633   2.377   1.147 -1.3821 -0.8557  1.3810
 3870TIP3    H233246   6.621   2.434   1.286  0.0027  0.6746  0.9022
 3871TIP3   OH233247   1.465   3.449   7.854  0.4262  0.4143  0.4585
 3871TIP3    H133248   1.446   3.357   7.873  1.9154  0.2467  1.3650
 3871TIP3    H233249   1.380   3.491   7.852 -0.4311 -1.2624 -1.6955
 3872TIP3   OH233250   4.665   1.779   2.318  0.2072  0.3592  0.1336
 3872TIP3    H133251   4.665   1.685   2.301 -0.4353  0.6906 -1.9654
 3872TIP3    H233252   4.588   1.794   2.374  1.1805 -0.5062  1.7914
 3873TIP3   OH233253   2.059   4.822   8.589 -0.7128  0.0471 -0.4642
 3873TIP3    H133254   2.000   4.747   8.587 -2.8453  1.5687  0.8600
 3873TIP3    H233255   2.073   4.839   8.682 -0.1118  1.1576 -0.7388
 3874TIP3   OH233256   2.414   6.404   7.770  0.4091  0.2487 -0.0834
 3874TIP3    H133257   2.458   6.327   7.735 -1.3068  0.1566 -2.1699
 3874TIP3    H233258   2.393   6.457   7.693 -0.5159  1.6877  1.1048
 3875TIP3   OH233259   3.592   5.792   2.739  0.1518  0.2152 -0.0730
 3875TIP3    H133260   3.638   5.710   2.757  2.0482  1.3995  0.7573
 3875TIP3    H233261   3.616   5.850   2.811  1.0696  2.3779 -1.9745
 3876TIP3   OH233262   5.499   1.210   0.648 -0.6328  0.4746 -0.0522
 3876TIP3    H133263   5.536   1.228   0.734 -1.5294 -1.7881  0.8949
 3876TIP3    H233264   5.490   1.295   0.606 -0.5495  1.6709  2.2476
 3877TIP3   OH233265   4.856   3.883   1.507  0.5465  0.0029 -0.3070
 3877TIP3    H133266   4.814   3.805   1.544  0.4374 -0.1069 -0.6659
 3877TIP3    H233267   4.789   3.951   1.513  0.6998  0.1219  0.1716
 3878TIP3   OH233268   3.804   4.463   2.236  0.0974 -0.2687  0.3181
 3878TIP3    H133269   3.882   4.435   2.284  0.4989  0.7828  0.3076
 3878TIP3    H233270   3.831   4.466   2.145 -0.0457 -0.1982  0.2769
 3879TIP3   OH233271   3.630   4.128   1.297 -0.3187 -0.0969 -0.2400
 3879TIP3    H133272   3.556   4.173   1.337  0.1550 -0.1992  0.8081
 3879TIP3    H233273   3.703   4.144   1.357 -0.0506 -1.9667  0.0106
 3880TIP3   OH233274   0.710   6.451   1.115 -0.0294 -0.4641 -0.1221
 3880TIP3    H133275   0.661   6.485   1.189 -0.2064  1.6051 -1.1136
 3880TIP3    H233276   0.665   6.485   1.038  1.7319 -0.2340 -1.1101
 3881TIP3   OH233277   2.638   2.955   8.086 -0.2300 -0.6779 -0.1060
 3881TIP3    H133278   2.675   3.027   8.137 -0.8587 -1.9297  2.2485
 3881TIP3    H233279   2.558   2.991   8.048  1.5186  1.0300 -2.4543
 3882TIP3   OH233280   5.900   6.230   1.379  0.4275  0.3870 -0.0683
 3882TIP3    H133281   5.856   6.183   1.307 -0.7344  1.5881 -0.1676
 3882TIP3    H233282   5.833   6.240   1.446  1.3909 -0.3457  1.0446
 3883TIP3   OH233283   1.616   4.712   0.476 -0.0036  0.1977  0.4218
 3883TIP3    H133284   1.706   4.683   0.459  0.6565  2.5378 -0.4326
 3883TIP3    H233285   1.616   4.804   0.452 -2.6233  0.2944  0.5663
 3884TIP3   OH233286   2.374   3.845   0.611  0.3403 -0.4692 -0.2214
 3884TIP3    H133287   2.464   3.876   0.595  0.0161  0.1909 -0.8297
 3884TIP3    H233288   2.382   3.750   0.615  0.6076 -0.7311 -3.6774
 3885TIP3   OH233289   5.304   4.468   1.429 -0.6281  0.1910 -0.0186
 3885TIP3    H133290   5.214   4.499   1.416 -1.0913  0.1066  2.5935
 3885TIP3    H233291   5.345   4.534   1.484  0.5776 -0.3621 -0.2230
 3886TIP3   OH233292   5.048   5.066   3.411  0.3128  0.7899 -0.3170
 3886TIP3    H133293   5.097   4.984   3.405 -1.6190 -0.5389  0.7074
 3886TIP3    H233294   5.114   5.133   3.426  2.0930 -0.3561 -2.3708
 3887TIP3   OH233295   4.131   1.283   1.187  0.3537  0.0421 -0.0370
 3887TIP3    H133296   4.175   1.285   1.272 -0.4453  1.7958  0.3844
 3887TIP3    H233297   4.104   1.373   1.172 -1.7302 -0.6723 -0.9800
 3888TIP3   OH233298   0.814   0.278   2.072  0.4700 -0.0129  0.2307
 3888TIP3    H133299   0.769   0.245   2.150 -1.2782  1.4114 -0.1136
 3888TIP3    H233300   0.902   0.299   2.102 -0.3994  1.2223  2.0317
 3889TIP3   OH233301   0.761   5.065   7.852 -0.4523 -0.3714  0.4163
 3889TIP3    H133302   0.685   5.115   7.821 -0.7167 -0.5062  0.8490
 3889TIP3    H233303   0.780   5.004   7.780 -0.5388 -0.1026  0.1637
 3890TIP3   OH233304   3.521   6.159   1.622 -0.2983  0.3435 -0.0004
 3890TIP3    H133305   3.518   6.064   1.608  1.9658  0.0361  1.1111
 3890TIP3    H233306   3.611   6.183   1.601 -1.3296  2.6734 -2.3494
 3891TIP3   OH233307   5.388   0.148   7.161  0.7931  0.1027 -0.5001
 3891TIP3    H133308   5.453   0.153   7.231 -0.1127  0.6990  0.3461
 3891TIP3    H233309   5.349   0.236   7.159 -1.3667 -0.7667  0.4330
 3892TIP3   OH233310   1.964   5.423   0.230  0.1823  0.5151  0.2055
 3892TIP3    H133311   2.005   5.395   0.312  0.8934  0.8660 -0.0104
 3892TIP3    H233312   1.915   5.502   0.253 -2.6466 -1.3689  1.0140
 3893TIP3   OH233313   1.657   6.158   0.610 -0.0067  1.1719 -0.3157
 3893TIP3    H133314   1.740   6.190   0.644  0.6573 -0.2662 -0.5505
 3893TIP3    H233315   1.629   6.090   0.672 -0.1605  0.4704 -1.1339
 3894TIP3   OH233316   3.476   3.908   0.499 -0.7936  0.1256  0.0157
 3894TIP3    H133317   3.413   3.977   0.523  1.7115  2.5901  0.0001
 3894TIP3    H233318   3.486   3.917   0.404 -0.4764 -0.3010  0.0082
 3895TIP3   OH233319   0.059   1.064   2.167  0.1419  0.3186  0.3149
 3895TIP3    H133320   0.108   1.143   2.190  0.7185 -0.3367  1.4114
 3895TIP3    H233321   0.112   1.021   2.099 -0.1621  0.8424 -0.2657
 3896TIP3   OH233322   0.481   6.054   0.985  0.1945  0.5978 -0.0160
 3896TIP3    H133323   0.437   5.985   0.934 -1.1440 -0.8587  2.8482
 3896TIP3    H233324   0.489   6.127   0.924 -2.5880 -0.4709 -1.9040
 3897TIP3   OH233325   6.747   4.633   1.209  0.0684 -0.4387  0.2352
 3897TIP3    H133326   6.725   4.646   1.301  1.7294 -0.1973  0.6373
 3897TIP3    H233327   6.794   4.550   1.206  0.0063 -0.4603 -0.3927
 3898TIP3   OH233328   2.728   3.409   1.402 -0.1202  0.1854  0.3274
 3898TIP3    H133329   2.785   3.484   1.385  0.4909 -0.8587 -2.9417
 3898TIP3    H233330   2.643   3.434   1.365 -0.5720  0.0769  1.2615
 3899TIP3   OH233331   0.626   4.567   7.601 -0.5368  0.6862 -0.6097
 3899TIP3    H133332   0.638   4.547   7.694  0.5751  2.2341 -0.3793
 3899TIP3    H233333   0.532   4.573   7.590 -0.6529  1.4346  0.6470
 3900TIP3   OH233334   5.701   0.146   2.432 -0.1816  0.2486 -0.1924
 3900TIP3    H133335   5.788   0.168   2.399 -0.8428  0.9766 -1.5233
 3900TIP3    H233336   5.705   0.167   2.526  0.7530  1.2411 -0.4308
 3901TIP3   OH233337   4.624   0.584   7.538  0.1492  0.0285 -0.1451
 3901TIP3    H133338   4.596   0.666   7.498 -1.8992 -0.2945  0.5293
 3901TIP3    H233339   4.574   0.517   7.492 -0.2117 -0.5815  1.1008
 3902TIP3   OH233340   5.516   5.383   8.498  0.0577 -0.5153  0.4219
 3902TIP3    H133341   5.540   5.371   8.590 -1.2056 -0.2428  0.8019
 3902TIP3    H233342   5.423   5.406   8.500  0.1844  0.2156 -0.8761
 3903TIP3   OH233343   3.217   0.411   7.372  0.1981  1.1213  0.2179
 3903TIP3    H133344   3.225   0.433   7.465 -1.7608  1.7220  0.2765
 3903TIP3    H233345   3.218   0.316   7.370  0.3222  1.1036  0.8353
 3904TIP3   OH233346   2.206   3.563   2.021  0.4596  0.2081 -0.7064
 3904TIP3    H133347   2.116   3.576   1.989 -0.3382 -1.6393  0.5611
 3904TIP3    H233348   2.233   3.648   2.053 -0.8714  0.8092 -1.0931
 3905TIP3   OH233349   4.097   3.471   1.962  0.9473  0.0727  0.0338
 3905TIP3    H133350   4.179   3.465   2.012  0.4172  0.0064  0.9219
 3905TIP3    H233351   4.050   3.544   2.003  0.6390  0.2270 -0.5881
 3906TIP3   OH233352   0.043   2.116   2.426  0.6697  0.3929  0.1249
 3906TIP3    H133353   0.061   2.102   2.333  1.2536  2.0458 -0.0471
 3906TIP3    H233354   0.038   2.028   2.463 -1.6695 -0.3960 -1.8292
 3907TIP3   OH233355   1.985   5.246   1.486  0.0734  0.2650 -0.2491
 3907TIP3    H133356   2.005   5.331   1.525 -0.9679  0.3000  0.2393
 3907TIP3    H233357   2.071   5.206   1.470  0.5653  0.0615  2.4480
 3908TIP3   OH233358   2.049   1.410   8.300  0.3990 -0.2079  0.4165
 3908TIP3    H133359   2.128   1.455   8.273  0.0589  0.4045  0.4311
 3908TIP3    H233360   1.978   1.473   8.284  0.1244  0.0157  2.2830
 3909TIP3   OH233361   5.123   0.806   2.558 -0.2622  0.1954 -0.2376
 3909TIP3    H133362   5.090   0.896   2.556  2.4270  1.3520  1.3805
 3909TIP3    H233363   5.064   0.760   2.618 -1.3522  0.9920 -0.6646
 3910TIP3   OH233364   0.398   1.887   2.362 -0.5750 -0.2417  0.3560
 3910TIP3    H133365   0.438   1.805   2.392 -0.8750 -0.5309 -0.0236
 3910TIP3    H233366   0.413   1.949   2.434  0.8881 -0.2314  0.0647
 3911TIP3   OH233367   5.035   6.663   0.842 -0.2169  0.1320  0.1905
 3911TIP3    H133368   5.106   6.601   0.853  1.2280  1.6565 -0.1427
 3911TIP3    H233369   5.000   6.644   0.755 -0.0488 -0.4632  0.2506
 3912TIP3   OH233370   2.443   6.498   2.851 -0.0110 -0.3161 -0.0403
 3912TIP3    H133371   2.395   6.453   2.920  0.0853  1.3824  1.2052
 3912TIP3    H233372   2.508   6.551   2.898  0.3577  0.5470 -1.4724
 3913TIP3   OH233373   5.071   4.737   0.583  0.2220  0.6259 -0.6130
 3913TIP3    H133374   5.166   4.735   0.589  0.2325  1.4120 -0.4556
 3913TIP3    H233375   5.050   4.675   0.513  0.7764 -0.2934  0.0140
 3914TIP3   OH233376   0.759   1.027   8.230 -0.2988  0.9655 -0.0885
 3914TIP3    H133377   0.755   0.942   8.186 -0.7669  1.1138 -0.3377
 3914TIP3    H233378   0.773   1.005   8.322  0.6022  0.6532 -0.2913
 3915TIP3   OH233379   4.870   4.890   2.064 -0.0971 -0.0600  0.1671
 3915TIP3    H133380   4.905   4.915   2.149 -0.7408  0.6500  0.2383
 3915TIP3    H233381   4.920   4.812   2.039  0.7625  0.2955  0.7429
 3916TIP3   OH233382   2.934   3.172   1.513 -0.2674 -0.2529  0.3409
 3916TIP3    H133383   2.865   3.159   1.449  0.2056  0.1275 -0.2509
 3916TIP3    H233384   3.014   3.147   1.468  0.3132  1.8459  0.1147
 3917TIP3   OH233385   6.127   6.618   7.609 -0.1987  0.5882  0.3452
 3917TIP3    H133386   6.037   6.594   7.629  0.7782 -0.6724  4.1735
 3917TIP3    H233387   6.142   6.698   7.660  1.3784 -0.4542  1.6317
 3918TIP3   OH233388   1.063   2.351   7.931 -0.4535  0.3546 -0.5102
 3918TIP3    H133389   0.981   2.395   7.908  0.3518  2.6037  0.5900
 3918TIP3    H233390   1.117   2.357   7.852 -0.5272  1.0086 -0.5207
 3919TIP3   OH233391   4.818   2.406   1.643 -0.6689 -0.0916 -0.0192
 3919TIP3    H133392   4.878   2.333   1.659  0.4480  0.7009 -0.4178
 3919TIP3    H233393   4.731   2.366   1.644 -0.0172 -1.7259 -1.8229
 3920TIP3   OH233394   2.630   6.616   2.222  0.4208 -0.5856  0.6603
 3920TIP3    H133395   2.641   6.697   2.172  0.0068 -0.9525 -0.0443
 3920TIP3    H233396   2.645   6.642   2.313  2.0836 -0.0705  0.2844
 3921TIP3   OH233397   2.583   1.606   0.994 -0.0016  0.2788  0.1922
 3921TIP3    H133398   2.589   1.510   0.990 -1.1885  0.2140 -0.2380
 3921TIP3    H233399   2.515   1.629   0.931 -0.3786  1.3322  0.9514
 3922TIP3   OH233400   2.207   3.459   2.585  0.4151 -0.4693 -0.3628
 3922TIP3    H133401   2.251   3.526   2.637 -1.0355 -1.7960  2.8540
 3922TIP3    H233402   2.222   3.377   2.632 -1.4455 -1.7121 -1.7484
 3923TIP3   OH233403   3.781   5.482   8.545 -0.0596  0.6400 -0.1006
 3923TIP3    H133404   3.798   5.438   8.628  0.2707  0.8166 -0.0736
 3923TIP3    H233405   3.695   5.449   8.517 -0.2785  0.7653  0.4238
 3924TIP3   OH233406   3.256   4.076   2.743  0.2724 -0.3825 -0.2122
 3924TIP3    H133407   3.314   4.003   2.763 -1.4439 -1.2619  1.8848
 3924TIP3    H233408   3.169   4.038   2.737 -0.7595  1.4806  1.4889
 3925TIP3   OH233409   2.656   6.543   8.174  0.2587  0.0732 -0.0873
 3925TIP3    H133410   2.698   6.458   8.183 -2.6480 -1.2580  2.8185
 3925TIP3    H233411   2.709   6.602   8.228  1.1084 -0.3334 -0.4590
 3926TIP3   OH233412   4.856   4.163   3.301 -0.5644 -0.4180  0.0592
 3926TIP3    H133413   4.793   4.092   3.290  1.7403 -2.3682 -1.6981
 3926TIP3    H233414   4.873   4.194   3.212  0.0962  0.8745  0.6020
 3927TIP3   OH233415   6.144   4.236   1.404 -0.1117 -0.0930 -0.7045
 3927TIP3    H133416   6.084   4.280   1.465 -0.7633 -0.0020 -1.3927
 3927TIP3    H233417   6.221   4.292   1.402  0.0210 -0.2193  0.2090
 3928TIP3   OH233418   6.426   0.865   0.763 -0.0032  0.2719  0.3161
 3928TIP3    H133419   6.343   0.872   0.715  0.6425  0.1263 -0.8429
 3928TIP3    H233420   6.403   0.818   0.844 -1.4503  2.0423  1.0149
 3929TIP3   OH233421   2.900   2.948   7.444 -0.4050  0.2878 -0.4588
 3929TIP3    H133422   2.891   2.854   7.433 -0.3067  0.2438 -0.1633
 3929TIP3    H233423   2.905   2.982   7.355  1.2861 -0.1538 -0.5557
 3930TIP3   OH233424   5.596   2.372   1.652 -0.4272 -0.6057 -0.5368
 3930TIP3    H133425   5.518   2.326   1.619 -2.3298 -0.3473  3.0511
 3930TIP3    H233426   5.581   2.378   1.747  2.8456  1.7081 -0.0172
 3931TIP3   OH233427   5.333   6.439   3.482 -0.3195  0.1099  0.9444
 3931TIP3    H133428   5.333   6.527   3.443 -0.3161  0.3261  1.4348
 3931TIP3    H233429   5.350   6.453   3.575 -1.9519 -0.2636  1.3429
 3932TIP3   OH233430   5.643   0.813   1.635 -0.0715  0.1646 -0.0087
 3932TIP3    H133431   5.673   0.834   1.723  0.1148 -0.2840  0.0393
 3932TIP3    H233432   5.709   0.851   1.577 -0.9283  1.6959 -0.0210
 3933TIP3   OH233433   6.181   1.156   8.414  0.4477 -0.6808 -0.1779
 3933TIP3    H133434   6.222   1.070   8.424  2.9998  0.2822 -1.5736
 3933TIP3    H233435   6.129   1.149   8.334 -1.4004 -1.5551  0.9976
 3934TIP3   OH233436   4.240   0.153   1.874  0.1652 -0.3628  0.1582
 3934TIP3    H133437   4.320   0.198   1.847 -0.0451 -0.9461 -1.5777
 3934TIP3    H233438   4.187   0.221   1.914 -0.5567  1.3277 -3.2463
 3935TIP3   OH233439   6.703   4.709   2.858 -0.1529  0.9422 -0.6217
 3935TIP3    H133440   6.646   4.694   2.933 -0.9976 -1.4087 -1.6303
 3935TIP3    H233441   6.645   4.745   2.791 -0.5275 -1.2952 -1.5959
 3936TIP3   OH233442   6.694   4.777   0.396 -0.2558 -0.2898  0.2350
 3936TIP3    H133443   6.602   4.767   0.373 -0.1129  0.2862 -0.6022
 3936TIP3    H233444   6.741   4.773   0.313  0.4094  0.1890  0.5748
 3937TIP3   OH233445   2.784   0.085   0.869  0.0033  0.1237  0.3376
 3937TIP3    H133446   2.879   0.077   0.870  0.1554  1.6644  1.2090
 3937TIP3    H233447   2.767   0.157   0.809 -0.5930  0.0520  0.4155
 3938TIP3   OH233448   0.694   2.477   1.918 -0.3888  0.9837 -0.4780
 3938TIP3    H133449   0.745   2.484   1.837 -0.3400 -2.1150 -0.8240
 3938TIP3    H233450   0.605   2.502   1.891 -0.2609  0.5461 -1.3597
 3939TIP3   OH233451   6.423   0.885   7.864 -0.0403  0.5589 -0.2445
 3939TIP3    H133452   6.418   0.827   7.787 -0.8202 -2.6271  1.9863
 3939TIP3    H233453   6.331   0.905   7.883 -0.0377 -0.4849  1.0168
 3940TIP3   OH233454   0.838   5.097   2.542 -0.0611 -0.3417  0.2767
 3940TIP3    H133455   0.857   5.191   2.536  0.4986 -0.2771  2.3786
 3940TIP3    H233456   0.842   5.078   2.636  0.3836 -2.5780 -0.1495
 3941TIP3   OH233457   1.627   3.838   1.672  0.3190  0.6163 -0.7283
 3941TIP3    H133458   1.647   3.744   1.677  1.3108  0.8669  1.9847
 3941TIP3    H233459   1.672   3.868   1.593  3.2709 -0.5439  0.3527
 3942TIP3   OH233460   0.986   0.100   0.149  0.2001  0.1209  0.4216
 3942TIP3    H133461   0.999   0.119   0.242 -1.6192  0.0118  0.7425
 3942TIP3    H233462   0.994   0.005   0.143 -0.3195  0.0624  0.5970
 3943TIP3   OH233463   6.838   6.534   2.126  0.0346 -0.2261 -0.1340
 3943TIP3    H133464   6.808   6.618   2.093  2.2301  0.3949 -0.7274
 3943TIP3    H233465   6.798   6.525   2.212 -1.5451  0.6246 -0.7482
 3944TIP3   OH233466   4.384   0.298   2.920 -0.1758  0.4623  0.0731
 3944TIP3    H133467   4.457   0.344   2.962 -0.2015 -0.2371  0.9172
 3944TIP3    H233468   4.381   0.213   2.965  1.2136 -1.2503 -2.7646
 3945TIP3   OH233469   4.585   6.292   1.735  0.0338  0.5769 -0.0373
 3945TIP3    H133470   4.670   6.248   1.744 -1.8868 -3.1295  2.6153
 3945TIP3    H233471   4.586   6.359   1.804  0.0634 -0.9640  1.5133
 3946TIP3   OH233472   1.879   3.632   7.624  0.5450  0.5000 -0.0735
 3946TIP3    H133473   1.801   3.579   7.641  1.1089  0.2685  2.1588
 3946TIP3    H233474   1.948   3.568   7.610  0.6223  0.6935 -0.5872
 3947TIP3   OH233475   0.454   1.425   0.900  0.3613 -0.1139 -0.3221
 3947TIP3    H133476   0.371   1.446   0.943 -1.0016 -1.7200 -1.9658
 3947TIP3    H233477   0.436   1.436   0.807  1.9588 -0.6212 -0.7215
 3948TIP3   OH233478   4.155   0.267   8.775 -0.0732 -0.5290 -0.3502
 3948TIP3    H133479   4.240   0.235   8.807  0.0647  0.9231  0.8330
 3948TIP3    H233480   4.098   0.265   8.852 -1.2240 -1.6937 -1.1794
 3949TIP3   OH233481   3.840   5.605   2.413 -0.1143 -0.0608 -0.5714
 3949TIP3    H133482   3.839   5.687   2.461  1.2443  1.3436 -2.7626
 3949TIP3    H233483   3.918   5.559   2.445 -1.4895 -1.1387  1.4859
 3950TIP3   OH233484   2.540   4.363   2.222  0.1588 -0.5000  0.3687
 3950TIP3    H133485   2.559   4.297   2.289 -0.5676 -1.1409 -0.0473
 3950TIP3    H233486   2.445   4.368   2.220  0.1362 -1.1584 -1.2684
 3951TIP3   OH233487   4.571   0.071   2.105 -0.1143 -0.4115  0.2175
 3951TIP3    H133488   4.570   0.137   2.036 -2.1605  0.8857  1.3838
 3951TIP3    H233489   4.600   0.118   2.183 -0.2136 -1.2513  0.7735
 3952TIP3   OH233490   2.269   6.310   2.082 -0.7173 -0.4500  0.1552
 3952TIP3    H133491   2.179   6.341   2.092 -0.5218  0.6082 -1.0335
 3952TIP3    H233492   2.303   6.361   2.008  0.6184 -1.3704  0.1081
 3953TIP3   OH233493   5.197   2.614   7.725 -0.0719  0.2398 -0.4264
 3953TIP3    H133494   5.244   2.560   7.789 -0.8000  1.6426  1.3497
 3953TIP3    H233495   5.230   2.584   7.640  1.2347 -1.3880  0.6022
 3954TIP3   OH233496   6.836   1.661   0.222  0.0988  0.5969  0.0177
 3954TIP3    H133497   6.913   1.690   0.173  0.1776  0.4575  0.0605
 3954TIP3    H233498   6.870   1.600   0.287  0.0818  1.2597  0.6742
 3955TIP3   OH233499   0.420   2.657   8.167  0.1379  0.1638  0.0514
 3955TIP3    H133500   0.399   2.580   8.220 -0.5571 -1.9231 -3.0269
 3955TIP3    H233501   0.336   2.694   8.142  0.3923  0.1124 -0.9294
 3956TIP3   OH233502   0.688   0.752   1.760 -0.0184  0.0751  0.2589
 3956TIP3    H133503   0.741   0.766   1.682 -0.3739 -0.8855 -0.1728
 3956TIP3    H233504   0.751   0.733   1.829  0.2352 -0.6241 -0.1548
 3957TIP3   OH233505   6.746   1.890   8.002  0.2304 -0.2961  0.2230
 3957TIP3    H133506   6.702   1.975   7.993  2.0736  0.6539 -0.3585
 3957TIP3    H233507   6.785   1.892   8.089 -1.2609 -1.3415  0.9346
 3958TIP3   OH233508   1.066   1.437   0.069 -0.1537  0.7144  0.0389
 3958TIP3    H133509   1.082   1.521   0.113  0.5238 -1.2254  3.8978
 3958TIP3    H233510   0.971   1.425   0.076 -0.3080  1.2945 -0.8921
 3959TIP3   OH233511   0.793   3.415   8.737  0.1799 -0.0754  0.0494
 3959TIP3    H133512   0.818   3.363   8.661 -1.0828  0.5936 -0.8505
 3959TIP3    H233513   0.697   3.414   8.737  0.1327 -0.8992  2.2267
 3960TIP3   OH233514   0.732   4.151   7.847  0.1457 -0.3251 -0.0184
 3960TIP3    H133515   0.802   4.201   7.889  0.5404 -0.3020 -0.6860
 3960TIP3    H233516   0.773   4.067   7.824 -0.4037 -0.8056  0.7422
 3961TIP3   OH233517   1.480   0.581   0.284  0.0179 -0.3495 -0.5684
 3961TIP3    H133518   1.514   0.548   0.201  2.1840  0.6994 -0.1731
 3961TIP3    H233519   1.532   0.537   0.351  0.7237  1.3774  0.0717
 3962TIP3   OH233520   4.609   1.236   2.283 -0.0662  0.4196 -0.3534
 3962TIP3    H133521   4.534   1.182   2.257  0.4123 -0.5868  0.2810
 3962TIP3    H233522   4.685   1.192   2.245  0.5769 -0.6732  1.9493
 3963TIP3   OH233523   1.114   2.888   2.003  0.1986 -0.2807 -0.5848
 3963TIP3    H133524   1.184   2.854   1.948  0.6981  1.5085 -1.1303
 3963TIP3    H233525   1.118   2.983   1.991 -0.8879  0.0278  1.1094
 3964TIP3   OH233526   5.432   0.414   1.672  0.4510 -0.0572  0.3643
 3964TIP3    H133527   5.364   0.444   1.732  0.7738 -0.5482  0.9742
 3964TIP3    H233528   5.386   0.353   1.614 -0.4492  2.2199 -1.5054
 3965TIP3   OH233529   1.694   5.362   1.461  0.4041  0.4293  0.1134
 3965TIP3    H133530   1.680   5.356   1.556  0.7554 -0.0432  0.1427
 3965TIP3    H233531   1.764   5.299   1.444  0.3718  0.5455 -0.4551
 3966TIP3   OH233532   1.777   5.434   1.754 -0.3191 -0.6555 -0.5054
 3966TIP3    H133533   1.811   5.517   1.786 -1.1558  0.2991 -1.9765
 3966TIP3    H233534   1.688   5.429   1.789 -0.4543 -0.6869 -0.8551
 3967TIP3   OH233535   4.387   2.977   8.460  0.3183 -0.0116 -0.0736
 3967TIP3    H133536   4.293   2.970   8.445  0.3437  1.1363 -0.9146
 3967TIP3    H233537   4.425   2.987   8.373  1.0894  0.7228  0.3236
 3968TIP3   OH233538   3.056   5.576   1.684  0.5890  0.1042 -0.1448
 3968TIP3    H133539   3.099   5.641   1.739 -0.2544  0.8517 -0.3310
 3968TIP3    H233540   3.014   5.516   1.746  0.3837  0.4303  0.0355
 3969TIP3   OH233541   3.125   3.048   7.223 -0.3473 -0.3548 -0.1037
 3969TIP3    H133542   3.135   2.964   7.177 -1.8685 -0.1908 -0.8108
 3969TIP3    H233543   3.198   3.051   7.285  1.5742 -0.7917 -2.2033
 3970TIP3   OH233544   5.406   5.877   7.749  0.8361  0.2036  0.1913
 3970TIP3    H133545   5.472   5.810   7.731  1.3760  0.9697 -0.7950
 3970TIP3    H233546   5.349   5.875   7.672  1.6261  1.7383 -0.4727
 3971TIP3   OH233547   5.490   6.286   1.943 -0.1363 -0.3450  0.0302
 3971TIP3    H133548   5.447   6.228   1.881  1.4454  0.1960 -1.6685
 3971TIP3    H233549   5.422   6.309   2.007 -2.2932  0.3311 -2.3667
 3972TIP3   OH233550   1.563   0.227   7.621  1.2144 -0.0231 -0.0409
 3972TIP3    H133551   1.516   0.146   7.640 -0.4530  0.6435 -1.0840
 3972TIP3    H233552   1.611   0.208   7.540  0.2795  0.1942 -0.6713
 3973TIP3   OH233553   1.332   6.743   8.525  0.1669 -0.2820 -0.3800
 3973TIP3    H133554   1.409   6.726   8.470  2.3024  0.3869  2.1397
 3973TIP3    H233555   1.331   6.670   8.587 -3.2796 -2.0235 -2.2202
 3974TIP3   OH233556   6.069   5.687   3.425 -0.2696 -0.2248  0.1791
 3974TIP3    H133557   6.032   5.772   3.448  1.3656  0.3772  0.7543
 3974TIP3    H233558   6.164   5.700   3.431  0.0745 -1.6420 -1.3347
 3975TIP3   OH233559   2.914   5.345   7.297  0.3497  0.1616  0.3847
 3975TIP3    H133560   2.931   5.330   7.390  0.1563 -0.4586  0.3229
 3975TIP3    H233561   2.999   5.336   7.256  0.2559 -0.6986  0.3623
 3976TIP3   OH233562   6.080   1.872   1.441  0.4053 -0.0535  0.1382
 3976TIP3    H133563   6.076   1.778   1.461 -1.6734  0.1418  0.9433
 3976TIP3    H233564   6.098   1.913   1.526  0.6069  0.3047 -0.0791
 3977TIP3   OH233565   2.536   2.399   1.659 -0.9813 -0.1388 -0.3898
 3977TIP3    H133566   2.610   2.406   1.718 -1.5397  0.5644  0.2557
 3977TIP3    H233567   2.552   2.467   1.593 -1.3786  0.4813  0.1392
 3978TIP3   OH233568   3.756   1.927   1.862 -0.3613 -0.2699 -0.5008
 3978TIP3    H133569   3.665   1.899   1.852 -0.2249 -0.7245 -0.5024
 3978TIP3    H233570   3.773   1.920   1.956 -0.2045 -0.5840 -0.5512
 3979TIP3   OH233571   6.343   0.095   0.892 -0.1132 -0.5796 -0.2059
 3979TIP3    H133572   6.365   0.085   0.799  2.0917 -2.6219  0.4418
 3979TIP3    H233573   6.413   0.149   0.927 -1.3082  0.7722  0.1970
 3980TIP3   OH233574   4.550   0.979   1.923 -0.1647  0.0793  0.2151
 3980TIP3    H133575   4.611   1.027   1.868 -1.6585  1.8558  0.0046
 3980TIP3    H233576   4.605   0.917   1.972  1.5769  0.6174 -0.9771
 3981TIP3   OH233577   3.152   5.428   0.545 -0.6957  0.3690 -0.3661
 3981TIP3    H133578   3.188   5.461   0.627 -0.3796  0.2597 -0.4606
 3981TIP3    H233579   3.220   5.372   0.509 -1.6109 -1.2413  0.3115
 3982TIP3   OH233580   6.456   5.259   1.905 -0.1978 -0.4548 -0.1813
 3982TIP3    H133581   6.421   5.227   1.988 -0.0150 -1.4455 -0.4658
 3982TIP3    H233582   6.496   5.344   1.926  1.5207 -1.5279  1.1653
 3983TIP3   OH233583   6.008   3.895   0.073  0.2072 -0.4621  0.2070
 3983TIP3    H133584   5.938   3.959   0.059  0.1643 -0.8709 -1.7157
 3983TIP3    H233585   5.964   3.810   0.068  0.4494 -0.6849  1.5847
 3984TIP3   OH233586   3.396   5.902   3.143  0.1810  0.1316 -0.0525
 3984TIP3    H133587   3.342   5.835   3.185  1.5783 -1.5739 -0.8582
 3984TIP3    H233588   3.340   5.937   3.073 -0.1023 -1.2412 -0.5478
 3985TIP3   OH233589   4.739   5.620   8.400  0.1634 -1.0503 -0.3856
 3985TIP3    H133590   4.648   5.598   8.377 -0.7304  1.0894  0.8236
 3985TIP3    H233591   4.758   5.564   8.475 -0.3886 -1.0790 -0.2576
 3986TIP3   OH233592   1.178   0.037   2.959 -0.2541 -0.0394  0.0600
 3986TIP3    H133593   1.256  -0.004   2.998  0.2160  0.1279 -0.6979
 3986TIP3    H233594   1.189   0.026   2.865 -0.4453  1.2532 -0.1311
 3987TIP3   OH233595   5.433   6.386   0.765  0.0228  0.5595  0.1991
 3987TIP3    H133596   5.351   6.352   0.729 -0.8844  0.9291  1.8189
 3987TIP3    H233597   5.413   6.477   0.786  1.6018  1.3885 -1.5824
 3988TIP3   OH233598   2.382   3.104   2.184 -0.3772  0.0957 -0.1913
 3988TIP3    H133599   2.359   3.110   2.277 -1.3587 -1.9330 -0.2461
 3988TIP3    H233600   2.311   3.052   2.146  1.3670 -1.3922 -1.5536
 3989TIP3   OH233601   0.071   3.506   3.291 -0.2263 -0.3111  0.2547
 3989TIP3    H133602   0.051   3.581   3.348  1.3244 -0.6005  1.2377
 3989TIP3    H233603   0.002   3.443   3.310 -2.0551  1.1221 -1.1962
 3990TIP3   OH233604   5.140   6.208   3.518 -0.2253 -0.1772  0.5574
 3990TIP3    H133605   5.097   6.284   3.557 -0.5208  0.3689 -0.7953
 3990TIP3    H233606   5.199   6.245   3.453 -2.0194 -1.1623 -1.7448
 3991TIP3   OH233607   3.899   5.762   3.209  0.0755  0.3539  0.2360
 3991TIP3    H133608   3.945   5.767   3.293  0.8331  0.5469 -0.1822
 3991TIP3    H233609   3.903   5.670   3.184 -2.0673 -0.1330  1.4408
 3992TIP3   OH233610   5.964   6.752   1.846 -0.3072  0.4106  0.0813
 3992TIP3    H133611   5.983   6.835   1.802 -2.1532  0.5003 -0.6736
 3992TIP3    H233612   6.045   6.702   1.840  1.0757  2.3747  1.1317
 3993TIP3   OH233613   2.960   2.809   1.231  0.7055 -0.1971  0.1650
 3993TIP3    H133614   2.995   2.789   1.144  0.1144  0.1313 -0.1577
 3993TIP3    H233615   3.008   2.886   1.259  1.1091 -0.4815  0.2610
 3994TIP3   OH233616   0.951   4.070   0.414  0.3153 -0.2982  0.1176
 3994TIP3    H133617   0.895   4.034   0.345  0.3114 -0.9242  0.4374
 3994TIP3    H233618   0.891   4.105   0.479  0.3048 -0.3601  0.1413
 3995TIP3   OH233619   1.011   5.249   2.291  0.1721  0.2080  0.5660
 3995TIP3    H133620   1.005   5.260   2.386  0.3772 -1.0008  0.7318
 3995TIP3    H233621   1.099   5.279   2.269 -0.4198  2.0072  0.5106
 3996TIP3   OH233622   5.461   3.316   8.378  0.1444  0.7150  0.7072
 3996TIP3    H133623   5.408   3.389   8.410 -2.1362  0.8469 -2.8715
 3996TIP3    H233624   5.518   3.354   8.312  0.5821 -0.3698  0.4453
 3997TIP3   OH233625   5.516   5.112   8.482 -0.3015 -0.4037 -0.6790
 3997TIP3    H133626   5.504   5.077   8.394  0.2447  0.1237 -0.9692
 3997TIP3    H233627   5.526   5.206   8.469  0.2716 -0.3774 -0.0977
 3998TIP3   OH233628   0.822   5.125   2.135 -0.2005 -0.4637  0.0641
 3998TIP3    H133629   0.881   5.070   2.084 -0.6803 -0.2137 -0.7845
 3998TIP3    H233630   0.880   5.181   2.187  0.2901 -1.0235  0.1245
 3999TIP3   OH233631   0.621   2.635   1.636  0.2550  0.4002  0.3195
 3999TIP3    H133632   0.703   2.674   1.668  0.5113  0.3047 -0.2086
 3999TIP3    H233633   0.624   2.648   1.541  0.4584 -1.1128  0.0972
 4000TIP3   OH233634   0.988   2.286   3.345 -0.1660  0.1395  0.5451
 4000TIP3    H133635   0.978   2.381   3.335 -0.2973  0.4226  2.8833
 4000TIP3    H233636   0.933   2.249   3.276  1.2803  1.7132 -1.5642
 4001TIP3   OH233637   6.228   5.495   2.175 -0.8953  0.3720 -0.0950
 4001TIP3    H133638   6.312   5.480   2.131 -0.7511  2.9708 -0.8381
 4001TIP3    H233639   6.252   5.508   2.267 -0.6919 -0.4056 -0.0243
 4002TIP3   OH233640   1.671   4.445   2.683 -0.1699 -0.5101 -0.0701
 4002TIP3    H133641   1.629   4.527   2.711 -0.1037 -0.5486  0.1461
 4002TIP3    H233642   1.707   4.409   2.764  0.1903 -0.5282 -0.2400
 4003TIP3   OH233643   2.993   1.045   1.138  0.7813 -0.1466 -0.1690
 4003TIP3    H133644   3.041   0.963   1.128  0.6851 -0.0647 -1.5012
 4003TIP3    H233645   2.932   1.028   1.209  1.0831 -1.0772 -0.1173
 4004TIP3   OH233646   3.443   4.241   2.899  0.2059 -0.1705 -0.2046
 4004TIP3    H133647   3.436   4.146   2.888 -0.1219 -0.2148  0.3595
 4004TIP3    H233648   3.521   4.265   2.849  0.6677 -0.8261  0.1925
 4005TIP3   OH233649   1.293   5.238   2.215  0.1315 -0.1118  0.5267
 4005TIP3    H133650   1.256   5.151   2.228  0.8721 -0.2908  1.5723
 4005TIP3    H233651   1.387   5.228   2.232  0.3750  0.7186 -0.1993
 4006TIP3   OH233652   0.229   5.595   1.742  0.3753  0.0532  0.2163
 4006TIP3    H133653   0.146   5.638   1.762  0.9532  0.5252  1.7200
 4006TIP3    H233654   0.229   5.517   1.797  1.9184  1.2834  2.0880
 4007TIP3   OH233655   5.398   0.781   7.910 -0.6396  0.6109 -0.0561
 4007TIP3    H133656   5.331   0.825   7.962 -2.3905 -2.4177  0.4590
 4007TIP3    H233657   5.465   0.849   7.896 -3.5788  3.7119 -0.3677
 4008TIP3   OH233658   0.109   6.829   8.107  0.3828  0.5958 -0.2267
 4008TIP3    H133659   0.204   6.825   8.116  0.2493  1.3796  2.6415
 4008TIP3    H233660   0.082   6.737   8.105  1.0580  0.2444  2.5539
 4009TIP3   OH233661   6.308   1.855   1.196 -0.4759  0.4391 -0.0884
 4009TIP3    H133662   6.284   1.908   1.121 -1.6724 -0.6154 -0.4721
 4009TIP3    H233663   6.240   1.873   1.261 -0.3743  0.0752  0.1189
 4010TIP3   OH233664   0.472   3.281   0.670 -0.5886  0.0336  0.2799
 4010TIP3    H133665   0.399   3.253   0.725  0.6304  0.7177  2.3756
 4010TIP3    H233666   0.504   3.361   0.713 -0.3275  1.3123 -2.1615
 4011TIP3   OH233667   4.947   4.274   8.298  0.2089 -0.3618  0.7895
 4011TIP3    H133668   4.872   4.275   8.357 -2.0902  3.2250 -1.7507
 4011TIP3    H233669   4.911   4.250   8.213  2.6730 -1.8253  0.0602
 4012TIP3   OH233670   6.343   0.838   1.283 -0.3487 -0.1223 -0.4847
 4012TIP3    H133671   6.374   0.766   1.337  0.6467 -0.9452 -2.0611
 4012TIP3    H233672   6.377   0.917   1.326  1.7009 -0.8414 -0.6836
 4013TIP3   OH233673   4.213   2.263   1.873  0.2204 -0.1071 -0.1968
 4013TIP3    H133674   4.191   2.181   1.828 -0.7689 -0.1007  0.2465
 4013TIP3    H233675   4.248   2.319   1.804  0.8932 -0.8930 -0.5070
 4014TIP3   OH233676   0.594   6.418   0.133  0.0900 -0.5066 -0.1555
 4014TIP3    H133677   0.512   6.463   0.116 -0.0394 -0.8333 -0.4078
 4014TIP3    H233678   0.569   6.327   0.147  0.5006 -0.7729 -1.1285
 4015TIP3   OH233679   3.623   5.550   8.059  0.0108  0.0750 -0.8287
 4015TIP3    H133680   3.628   5.560   7.964  0.1094  1.0314 -0.7356
 4015TIP3    H233681   3.589   5.634   8.090 -1.6025 -0.7894 -0.1455
 4016TIP3   OH233682   6.178   3.910   8.627 -0.2182 -0.0846  0.3427
 4016TIP3    H133683   6.129   3.885   8.705  0.1362 -2.0704 -0.0215
 4016TIP3    H233684   6.175   3.833   8.570  1.4178  0.5137 -0.6428
 4017TIP3   OH233685   4.493   4.474   2.657  0.3255  0.0809  0.7546
 4017TIP3    H133686   4.493   4.455   2.750 -1.0520 -1.7347  0.4470
 4017TIP3    H233687   4.512   4.567   2.651  0.4082  0.2405  2.8283
 4018TIP3   OH233688   1.047   1.436   1.120 -0.0906  0.1906 -0.3520
 4018TIP3    H133689   1.040   1.357   1.066 -0.2343 -0.6362  0.8397
 4018TIP3    H233690   1.032   1.405   1.209 -0.2511  1.5917  0.1258
 4019TIP3   OH233691   1.887   4.309   8.542 -0.3926 -0.1005 -0.1882
 4019TIP3    H133692   1.915   4.263   8.621  1.5869 -0.3572 -0.9874
 4019TIP3    H233693   1.959   4.368   8.521 -0.7143 -0.2773 -1.9825
 4020TIP3   OH233694   2.260   4.556   0.194 -0.2075  0.1491 -0.5079
 4020TIP3    H133695   2.275   4.651   0.197  2.2153 -0.1423 -1.0260
 4020TIP3    H233696   2.327   4.523   0.134  0.0220 -2.0408  0.8180
 4021TIP3   OH233697   0.415   5.378   2.550  0.2120  0.4733 -0.4734
 4021TIP3    H133698   0.368   5.329   2.483 -1.8022  2.2757 -0.4922
 4021TIP3    H233699   0.496   5.406   2.508  0.1807 -0.5718 -1.2709
 4022TIP3   OH233700   1.976   4.625   7.441  0.6881 -0.0957 -0.3853
 4022TIP3    H133701   2.063   4.661   7.426  0.8058 -0.6213 -1.0318
 4022TIP3    H233702   1.950   4.590   7.355 -0.5141  0.8161 -0.4278
 4023TIP3   OH233703   2.368   1.593   0.745  0.4783 -0.0271  0.0545
 4023TIP3    H133704   2.415   1.617   0.666 -0.5516 -0.6245 -0.7625
 4023TIP3    H233705   2.369   1.498   0.746 -2.6760 -0.1717 -1.2628
 4024TIP3   OH233706   3.503   5.802   0.721 -0.3878 -0.2227  0.2107
 4024TIP3    H133707   3.550   5.745   0.660 -0.0608  0.3469 -0.0718
 4024TIP3    H233708   3.441   5.850   0.667 -1.6405 -1.2892  0.6414
 4025TIP3   OH233709   0.584   1.402   8.450 -0.0140 -0.5516  0.5539
 4025TIP3    H133710   0.601   1.308   8.459  0.3549 -0.5675 -0.2125
 4025TIP3    H233711   0.560   1.413   8.358  0.7050  0.2153  0.4485
 4026TIP3   OH233712   2.986   3.284   0.228  0.0663 -0.3284  0.1986
 4026TIP3    H133713   2.939   3.279   0.145  0.5700 -1.2860 -0.0468
 4026TIP3    H233714   3.035   3.201   0.233  0.0841 -0.2611  1.4263
 4027TIP3   OH233715   1.664   5.060   0.130 -0.0436 -0.1208 -0.5321
 4027TIP3    H133716   1.655   5.014   0.047  0.4439  0.6558 -1.0287
 4027TIP3    H233717   1.724   5.132   0.112 -1.4048  1.2028  0.0058
 4028TIP3   OH233718   2.644   0.790   8.540 -0.3616  0.3526  0.2294
 4028TIP3    H133719   2.666   0.820   8.452  0.6494 -0.0874  0.3176
 4028TIP3    H233720   2.621   0.698   8.530 -3.5292  1.0737 -0.0487
 4029TIP3   OH233721   1.253   4.863   7.788  0.1921  0.0175  0.1153
 4029TIP3    H133722   1.284   4.918   7.860  2.7680  2.1561 -2.3967
 4029TIP3    H233723   1.310   4.786   7.791 -0.1956 -0.2638  0.7086
 4030TIP3   OH233724   6.848   3.581   0.071  0.0188  0.1483  0.3870
 4030TIP3    H133725   6.809   3.666   0.053 -0.7440 -0.2766 -0.0499
 4030TIP3    H233726   6.941   3.598   0.080  0.2229  0.6990 -2.0868
 4031TIP3   OH233727   5.245   0.452   2.827  0.5847  0.0750  0.4608
 4031TIP3    H133728   5.265   0.495   2.744  0.0336  0.4301  0.5091
 4031TIP3    H233729   5.169   0.499   2.860 -0.4451 -1.3661  0.2024
 4032TIP3   OH233730   5.522   6.012   8.776 -0.8103 -0.3651  0.2026
 4032TIP3    H133731   5.577   6.057   8.711 -1.0264  2.1682  1.6430
 4032TIP3    H233732   5.452   5.974   8.724 -0.7816  1.2628 -1.1419
 4033TIP3   OH233733   5.933   3.300   7.959 -0.4095 -0.1736  0.0333
 4033TIP3    H133734   5.985   3.366   8.005 -1.9401  1.2391 -0.1685
 4033TIP3    H233735   5.984   3.278   7.881  1.5748 -1.5828  1.5994
 4034TIP3   OH233736   6.570   0.841   8.445 -0.2418  0.1294  0.5560
 4034TIP3    H133737   6.616   0.757   8.443  0.8589  0.7284 -0.1939
 4034TIP3    H233738   6.525   0.845   8.360  0.4696  0.6964  0.1957
 4035TIP3   OH233739   4.261   5.123   8.539  0.5289  0.3725  0.2246
 4035TIP3    H133740   4.315   5.097   8.614 -0.1867 -1.1903  0.2459
 4035TIP3    H233741   4.265   5.219   8.539  1.2759  0.3797  1.7130
 4036TIP3   OH233742   1.469   1.681   2.882  0.6057  0.5074 -0.0456
 4036TIP3    H133743   1.383   1.643   2.860 -0.0015  0.7650  1.7353
 4036TIP3    H233744   1.479   1.754   2.820 -0.6652  0.7434 -0.0016
 4037TIP3   OH233745   3.365   4.644   7.388 -0.0801 -0.1884  0.3716
 4037TIP3    H133746   3.381   4.738   7.393 -0.2556 -0.1454  0.1315
 4037TIP3    H233747   3.426   4.606   7.451  1.1681 -0.0420 -0.7039
 4038TIP3   OH233748   3.011   2.990   2.323 -0.4657 -0.0804  0.0626
 4038TIP3    H133749   2.920   2.989   2.353 -0.5693  3.1715  0.2399
 4038TIP3    H233750   3.007   3.029   2.235  0.6414 -1.3305 -0.5745
 4039TIP3   OH233751   2.090   1.012   2.395 -0.7316  0.2137  0.0094
 4039TIP3    H133752   2.041   1.093   2.411  0.1513  0.9383 -0.8596
 4039TIP3    H233753   2.022   0.946   2.380 -1.4723  1.2650 -1.4733
 4040TIP3   OH233754   5.003   4.474   8.738 -0.1447  0.1151 -0.7809
 4040TIP3    H133755   4.948   4.405   8.775 -0.6148  0.9949  0.2331
 4040TIP3    H233756   5.062   4.499   8.810  0.3536  0.4239 -1.2869
 4041TIP3   OH233757   6.308   2.339   7.919 -0.0217  0.3894 -0.1678
 4041TIP3    H133758   6.370   2.352   7.848  1.3233  0.2458  0.9365
 4041TIP3    H233759   6.284   2.428   7.947 -0.4438  0.4440 -0.6900
 4042TIP3   OH233760   3.299   1.981   7.335  0.6428 -0.4020 -0.0563
 4042TIP3    H133761   3.375   1.962   7.279 -0.1200  0.1189 -1.3013
 4042TIP3    H233762   3.305   2.074   7.353  0.9414 -0.5853  0.8532
 4043TIP3   OH233763   1.533   2.059   1.222  0.3384 -0.1510  0.0681
 4043TIP3    H133764   1.466   2.003   1.259  0.0567 -1.2822 -1.9906
 4043TIP3    H233765   1.542   2.132   1.284 -0.3569 -1.6865  2.0504
 4044TIP3   OH233766   0.412   1.998   8.270 -0.2982 -0.3125 -0.2792
 4044TIP3    H133767   0.407   1.931   8.339  2.1100  0.0938  0.4115
 4044TIP3    H233768   0.503   2.029   8.274 -0.7037  1.3324 -2.1662
 4045TIP3   OH233769   4.918   2.364   1.383  0.0125  0.1874  0.7814
 4045TIP3    H133770   4.915   2.271   1.406 -0.7308  0.0919  0.3450
 4045TIP3    H233771   4.877   2.408   1.457 -1.5892 -0.0441  0.1012
 4046TIP3   OH233772   4.864   2.302   0.384  0.6300 -0.1264 -0.2584
 4046TIP3    H133773   4.931   2.319   0.450  0.2155  0.8749 -0.0820
 4046TIP3    H233774   4.890   2.219   0.344  1.5807 -0.1035  0.2937
 4047TIP3   OH233775   3.826   1.462   3.051  0.6949 -0.1210  0.3374
 4047TIP3    H133776   3.745   1.506   3.079  0.2074 -0.7913  0.0187
 4047TIP3    H233777   3.871   1.527   2.997  1.3170  0.9512  2.0388
 4048TIP3   OH233778   5.965   4.774   1.015  0.1037  0.1950 -0.8662
 4048TIP3    H133779   5.918   4.815   0.943  1.1748 -0.1947 -1.8258
 4048TIP3    H233780   5.966   4.681   0.993  1.3630  0.2005 -0.9233
 4049TIP3   OH233781   4.926   0.729   2.727 -0.1303 -0.5406 -0.3254
 4049TIP3    H133782   4.936   0.655   2.787 -0.0381 -1.5576 -1.5538
 4049TIP3    H233783   4.857   0.782   2.766 -2.1085 -2.6473 -0.7219
 4050TIP3   OH233784   2.471   1.688   1.258  0.5629  0.2595  0.1449
 4050TIP3    H133785   2.436   1.632   1.188 -2.0469  0.5353  1.1323
 4050TIP3    H233786   2.517   1.758   1.211  1.5138 -1.1516 -1.1665
 4051TIP3   OH233787   1.961   0.802   3.364  0.0337  0.7752  0.6380
 4051TIP3    H133788   1.871   0.780   3.340  0.6180 -1.3612  0.1693
 4051TIP3    H233789   1.953   0.854   3.444 -1.6841  2.5852 -0.6201
 4052TIP3   OH233790   6.232   2.326   2.065 -0.1849 -0.2123 -0.3984
 4052TIP3    H133791   6.218   2.258   1.998 -1.7778  0.0335 -0.3471
 4052TIP3    H233792   6.259   2.403   2.015 -4.1710  0.8675 -1.2364
 4053TIP3   OH233793   0.400   2.206   8.703  0.7389 -0.4143 -0.0354
 4053TIP3    H133794   0.323   2.166   8.745 -0.0729  0.0001 -1.0876
 4053TIP3    H233795   0.368   2.237   8.618  2.3787 -1.3696 -1.0554
 4054TIP3   OH233796   1.630   4.965   8.653 -0.2558 -0.2397 -0.2806
 4054TIP3    H133797   1.561   4.899   8.660 -1.1591  0.7245  0.2735
 4054TIP3    H233798   1.693   4.929   8.591 -0.4517 -1.8489  0.4074
 4055TIP3   OH233799   2.318   1.932   0.989 -0.0203 -0.6016 -0.1733
 4055TIP3    H133800   2.303   1.847   1.029 -0.6783  0.0391  1.0001
 4055TIP3    H233801   2.243   1.946   0.931 -0.7167 -0.1679  0.8122
 4056TIP3   OH233802   3.095   4.008   0.079  0.0069  0.3393  0.6744
 4056TIP3    H133803   3.000   4.019   0.077 -0.0824 -0.5607 -0.9756
 4056TIP3    H233804   3.125   4.073   0.143 -1.8819 -0.7602  2.8154
 4057TIP3   OH233805   3.754   6.258   1.518 -0.4688  0.7064  0.0706
 4057TIP3    H133806   3.737   6.312   1.442  0.6738 -1.9582 -2.2749
 4057TIP3    H233807   3.839   6.288   1.551 -0.2563  0.9142 -0.6629
 4058TIP3   OH233808   0.727   0.051   2.197 -0.0563  0.0712 -0.1189
 4058TIP3    H133809   0.716  -0.011   2.125 -1.0981 -1.2005  1.0924
 4058TIP3    H233810   0.649   0.039   2.251  0.9093  0.6774  1.4597
 4059TIP3   OH233811   0.134   3.143   1.108 -0.8785  0.1600 -0.4418
 4059TIP3    H133812   0.062   3.080   1.122  1.0396 -1.9924  0.5124
 4059TIP3    H233813   0.202   3.091   1.065 -0.2173  2.4050 -2.2845
 4060TIP3   OH233814   6.299   4.494   0.067  0.8435  0.1081 -0.3053
 4060TIP3    H133815   6.393   4.510   0.063  0.9745  0.1861  1.7363
 4060TIP3    H233816   6.289   4.434   0.141 -0.7969  0.9133  0.1711
 4061TIP3   OH233817   2.861   3.991   8.371  0.2008  0.0371 -0.1705
 4061TIP3    H133818   2.873   4.021   8.280  1.0197  3.6286  0.9360
 4061TIP3    H233819   2.937   4.027   8.417 -0.4539 -1.2642  2.0355
 4062TIP3   OH233820   4.935   5.038   7.472  0.2927  0.1152  0.5136
 4062TIP3    H133821   4.868   5.021   7.538 -2.8349 -0.3124 -2.5130
 4062TIP3    H233822   4.970   4.951   7.452 -2.8692 -0.7115 -2.2315
 4063TIP3   OH233823   3.316   1.981   2.372 -0.2996 -0.1405  0.5190
 4063TIP3    H133824   3.244   1.923   2.346  1.0802 -2.1995  1.0406
 4063TIP3    H233825   3.273   2.050   2.424 -2.0873 -0.2695 -0.6764
 4064TIP3   OH233826   0.443   4.706   0.527  0.1028 -0.1881  0.2615
 4064TIP3    H133827   0.467   4.636   0.467  0.2911  0.5174 -0.5199
 4064TIP3    H233828   0.371   4.671   0.578 -0.0616 -0.8144 -0.3823
 4065TIP3   OH233829   2.488   4.052   1.397 -0.1317  0.4546 -0.1522
 4065TIP3    H133830   2.477   4.035   1.491 -0.9065 -0.2361 -0.3547
 4065TIP3    H233831   2.538   4.134   1.393  2.2404 -0.8104  0.8958
 4066TIP3   OH233832   6.289   1.919   7.892 -0.9027 -0.7006 -0.0986
 4066TIP3    H133833   6.275   1.965   7.809 -2.1782  1.9825  1.4574
 4066TIP3    H233834   6.203   1.881   7.912 -0.7554 -0.8514  0.2446
 4067TIP3   OH233835   2.480   1.528   8.033 -0.2714  0.1345  0.1906
 4067TIP3    H133836   2.469   1.445   7.986 -2.4512  0.2197  0.4292
 4067TIP3    H233837   2.396   1.541   8.078  0.1788  2.2647  0.5128
 4068TIP3   OH233838   1.722   2.607   2.507 -0.4005 -0.1426  0.0268
 4068TIP3    H133839   1.651   2.552   2.542  0.7752 -2.1915 -0.6208
 4068TIP3    H233840   1.723   2.587   2.414  1.9589 -1.3829  0.2495
 4069TIP3   OH233841   6.548   1.906   0.154 -0.6711 -0.0370  0.0572
 4069TIP3    H133842   6.470   1.905   0.209 -0.3469  0.3621  0.5404
 4069TIP3    H233843   6.552   1.995   0.120 -0.1658  0.0822  0.4202
 4070TIP3   OH233844   2.688   5.005   2.636  0.4274 -0.2959 -0.3167
 4070TIP3    H133845   2.781   5.015   2.657  0.5316  0.2918 -1.0092
 4070TIP3    H233846   2.687   4.978   2.544 -0.0860 -0.3069 -0.3116
 4071TIP3   OH233847   3.375   5.210   2.169  0.6083 -0.1884 -0.2277
 4071TIP3    H133848   3.402   5.119   2.163 -0.2078 -0.3997 -0.8676
 4071TIP3    H233849   3.406   5.239   2.255 -3.2786 -2.5352  2.3157
 4072TIP3   OH233850   0.505   3.628   2.110  0.3004 -0.3726 -0.0530
 4072TIP3    H133851   0.469   3.711   2.078 -1.8223 -1.3644 -0.4493
 4072TIP3    H233852   0.522   3.644   2.203  0.9141  0.8013 -0.3518
 4073TIP3   OH233853   4.921   4.189   8.684  0.0878 -0.1413 -0.0569
 4073TIP3    H133854   4.869   4.110   8.671  0.2168 -0.0068 -1.6150
 4073TIP3    H233855   4.897   4.245   8.610 -2.1272  2.4955  2.3885
 4074TIP3   OH233856   0.151   0.981   2.528 -0.4628  0.4268  0.3109
 4074TIP3    H133857   0.109   1.039   2.464  0.9348  0.3648 -0.6991
 4074TIP3    H233858   0.086   0.972   2.598 -1.3676  1.8480 -0.3019
 4075TIP3   OH233859   1.775   3.958   7.517  0.1934  0.1310 -0.0096
 4075TIP3    H133860   1.729   4.028   7.471  1.5963  0.4731 -0.9544
 4075TIP3    H233861   1.820   3.909   7.447  1.0592 -0.3239  0.8433
 4076TIP3   OH233862   4.418   3.537   2.404 -0.3080 -0.1338  0.2559
 4076TIP3    H133863   4.475   3.614   2.396 -0.1516 -0.0216  1.9512
 4076TIP3    H233864   4.363   3.557   2.480 -1.6998 -0.8257 -0.5292
 4077TIP3   OH233865   4.375   6.071   8.060 -0.8152 -0.1865  0.1962
 4077TIP3    H133866   4.439   6.029   8.117 -0.4324 -2.2721 -1.6377
 4077TIP3    H233867   4.426   6.108   7.989 -1.4762  0.1502 -0.1106
 4078TIP3   OH233868   3.672   1.289   2.884  0.6106  0.9122 -0.1752
 4078TIP3    H133869   3.595   1.239   2.914  1.3099 -0.2057 -0.1722
 4078TIP3    H233870   3.724   1.302   2.963  0.8191  0.9349 -0.3178
 4079TIP3   OH233871   4.867   5.166   7.891  0.0941  0.4207  0.1622
 4079TIP3    H133872   4.951   5.207   7.870 -0.3866  2.1288  1.3567
 4079TIP3    H233873   4.837   5.130   7.808  1.1778  1.3569 -0.6763
 4080TIP3   OH233874   1.054   4.492   2.555  0.5464 -0.4329  0.4171
 4080TIP3    H133875   0.992   4.551   2.513  0.3169 -1.1037 -0.2126
 4080TIP3    H233876   1.050   4.514   2.648 -1.0572 -0.8337  0.4680
 4081TIP3   OH233877   2.808   1.563   0.274 -0.0048 -0.2080 -0.3449
 4081TIP3    H133878   2.895   1.560   0.235 -0.4235  0.2766 -1.3354
 4081TIP3    H233879   2.822   1.595   0.363  1.0385 -1.9772  0.1786
 4082TIP3   OH233880   1.082   3.450   1.202 -0.3841 -0.0334  0.2131
 4082TIP3    H133881   1.027   3.421   1.275  0.1578  2.6043  1.8241
 4082TIP3    H233882   1.043   3.533   1.174  0.0154 -0.4946 -1.8780
 4083TIP3   OH233883   3.684   2.195   1.118 -0.5757 -0.4193  0.3041
 4083TIP3    H133884   3.732   2.276   1.136 -4.1240  2.6369 -2.4018
 4083TIP3    H233885   3.646   2.170   1.202  1.1479  0.2715  1.3289
 4084TIP3   OH233886   0.650   6.189   1.866  0.2071 -0.6985 -0.1013
 4084TIP3    H133887   0.604   6.166   1.947  1.2345 -1.1723  0.3577
 4084TIP3    H233888   0.663   6.284   1.873 -3.2341  0.0593 -1.5875
 4085TIP3   OH233889   1.776   4.637   1.558  0.5159 -0.2503 -1.0286
 4085TIP3    H133890   1.743   4.566   1.613  2.0626  0.1213  0.4607
 4085TIP3    H233891   1.698   4.675   1.519 -0.4009 -2.3280 -1.3441
 4086TIP3   OH233892   5.251   1.387   0.129 -0.4966  0.5556 -0.2778
 4086TIP3    H133893   5.259   1.432   0.213 -0.5220 -1.1105  0.6671
 4086TIP3    H233894   5.166   1.415   0.094 -1.3886 -0.1949  1.1987
 4087TIP3   OH233895   1.480   3.535   1.531 -0.0092  0.2888 -0.3276
 4087TIP3    H133896   1.525   3.572   1.455  0.3355  0.6064  0.0210
 4087TIP3    H233897   1.398   3.501   1.497 -0.0188  0.7529 -0.7794
 4088TIP3   OH233898   0.971   6.106   2.008 -0.3140 -0.5210  0.3563
 4088TIP3    H133899   0.890   6.145   1.977 -0.2668  0.4019  1.3308
 4088TIP3    H233900   0.956   6.012   2.005 -0.8949 -0.4055 -0.8215
 4089TIP3   OH233901   4.678   1.008   8.456 -0.1140 -0.3006  0.6551
 4089TIP3    H133902   4.625   0.948   8.509  1.2887 -2.2493 -0.0212
 4089TIP3    H233903   4.744   0.952   8.416  1.5759  1.8202  0.3236
 4090TIP3   OH233904   1.374   6.166   0.782 -0.0242 -0.8131  0.5122
 4090TIP3    H133905   1.442   6.229   0.804 -2.2124  2.2414 -0.6456
 4090TIP3    H233906   1.333   6.144   0.865  0.6906 -0.6044  0.9265
 4091TIP3   OH233907   5.258   0.835   0.391 -0.6022  0.2439 -0.3812
 4091TIP3    H133908   5.267   0.740   0.399 -1.5032  0.1533 -0.3624
 4091TIP3    H233909   5.349   0.867   0.387 -0.2889 -0.6810 -1.2083
 4092TIP3   OH233910   5.019   5.671   8.738 -0.3481  0.3849 -0.3842
 4092TIP3    H133911   5.079   5.637   8.804 -1.1850 -1.2523 -0.4063
 4092TIP3    H233912   4.933   5.640   8.766 -0.6918 -0.5765 -2.3618
 4093TIP3   OH233913   3.366   3.764   8.238  0.2063  0.4104  0.4831
 4093TIP3    H133914   3.318   3.747   8.319  3.3036 -0.0370  2.3893
 4093TIP3    H233915   3.382   3.859   8.240  0.6595  0.3314  0.6336
 4094TIP3   OH233916   1.889   0.946   1.647 -0.3207  0.0088 -0.0804
 4094TIP3    H133917   1.914   0.920   1.558 -0.0497  0.6350 -0.1982
 4094TIP3    H233918   1.962   0.916   1.701 -1.0792 -1.5221  0.1296
 4095TIP3   OH233919   0.457   1.816   1.315 -0.0359 -0.5987  0.0417
 4095TIP3    H133920   0.512   1.761   1.258 -0.0654 -0.2438 -0.3327
 4095TIP3    H233921   0.455   1.901   1.271  0.5522 -0.0990  0.9588
 4096TIP3   OH233922   5.676   1.307   8.556  0.7584 -0.0060  0.1548
 4096TIP3    H133923   5.600   1.295   8.500  0.6751 -1.7862  0.6139
 4096TIP3    H233924   5.689   1.402   8.557 -0.1732  0.1832 -1.5938
 4097TIP3   OH233925   5.418   6.325   8.275  0.1722  0.1216  0.4775
 4097TIP3    H133926   5.431   6.419   8.260 -1.4912  0.7407  2.4885
 4097TIP3    H233927   5.420   6.315   8.370  0.4492 -1.9294  0.3065
 4098TIP3   OH233928   1.828   4.211   3.430 -0.5620  0.0507  0.4461
 4098TIP3    H133929   1.763   4.161   3.381 -1.1007  0.7759  0.4203
 4098TIP3    H233930   1.912   4.171   3.404 -1.0014 -1.1157  0.7506
 4099TIP3   OH233931   6.064   1.369   1.719 -0.0208 -0.2006  0.3868
 4099TIP3    H133932   6.131   1.301   1.718  0.7976  0.5663 -1.8378
 4099TIP3    H233933   5.986   1.325   1.755  0.4031 -2.4286 -1.2103
 4100TIP3   OH233934   4.196   0.646   2.579 -0.4330  0.1390  0.0508
 4100TIP3    H133935   4.141   0.626   2.503 -1.4620  0.4088  0.7134
 4100TIP3    H233936   4.215   0.561   2.618 -0.6213  0.0679 -0.0139
 4101TIP3   OH233937   2.366   3.099   1.814 -0.3934 -0.2641  0.2953
 4101TIP3    H133938   2.304   3.144   1.871  0.8567  0.2842  1.2600
 4101TIP3    H233939   2.312   3.063   1.744 -2.0996 -1.6783  2.2322
 4102TIP3   OH233940   3.454   6.311   1.238  0.0450  0.1457 -0.0238
 4102TIP3    H133941   3.396   6.366   1.186 -0.5487  1.4445  1.9088
 4102TIP3    H233942   3.396   6.270   1.303  1.1831  1.3641  1.8554
 4103TIP3   OH233943   6.827   6.390   2.661  0.2247  0.0287 -0.1093
 4103TIP3    H133944   6.909   6.369   2.705  0.3608  1.4973  0.4197
 4103TIP3    H233945   6.847   6.383   2.568  0.5138 -1.1132  0.0341
 4104TIP3   OH233946   5.675   1.105   2.313 -0.5175 -0.1855 -0.1541
 4104TIP3    H133947   5.747   1.097   2.251  0.1047 -1.2928  0.6712
 4104TIP3    H233948   5.629   1.185   2.288 -0.2029 -0.5382 -1.9522
 4105TIP3   OH233949   4.806   5.112   0.624 -0.1152  0.4221  0.1118
 4105TIP3    H133950   4.821   5.054   0.699 -2.2318  0.3991  0.5913
 4105TIP3    H233951   4.857   5.073   0.553  0.8671 -0.3148  1.1769
 4106TIP3   OH233952   6.777   0.102   2.589 -0.5660  0.1183  0.2971
 4106TIP3    H133953   6.750   0.187   2.623  0.3175  1.2735 -1.7175
 4106TIP3    H233954   6.695   0.056   2.571 -1.1416  1.5172 -0.8592
 4107TIP3   OH233955   3.160   4.130   1.727  0.5175  0.0110  0.1058
 4107TIP3    H133956   3.161   4.138   1.632  0.2670  1.6524  0.2200
 4107TIP3    H233957   3.252   4.136   1.752  0.6286 -0.8670 -0.0374
 4108TIP3   OH233958   4.515   0.512   0.589  0.3410  0.0127 -0.3032
 4108TIP3    H133959   4.535   0.422   0.561  0.4771 -0.0985  0.1385
 4108TIP3    H233960   4.432   0.533   0.546  0.1044 -0.4737 -0.0954
 4109TIP3   OH233961   4.785   3.222   1.862  0.5405 -0.3169  0.5243
 4109TIP3    H133962   4.816   3.185   1.944  1.3392 -2.3846 -0.6473
 4109TIP3    H233963   4.751   3.147   1.813 -0.0487  0.8876 -0.9826
 4110TIP3   OH233964   3.200   3.624   8.044 -0.0023  0.1327 -0.1019
 4110TIP3    H133965   3.245   3.670   8.115  1.5004 -0.1287 -0.8602
 4110TIP3    H233966   3.139   3.564   8.089  2.1546 -1.3097  1.0629
 4111TIP3   OH233967   4.891   3.801   1.855 -0.1594 -0.1326 -0.1840
 4111TIP3    H133968   4.811   3.780   1.807  0.3096  0.1401 -1.1123
 4111TIP3    H233969   4.941   3.720   1.853  0.3043  0.1544 -1.0782
 4112TIP3   OH233970   0.071   6.322   0.969  0.4783  0.9179 -0.1995
 4112TIP3    H133971   0.118   6.309   0.887 -1.3374  0.3963 -1.2248
 4112TIP3    H233972   0.064   6.234   1.007 -0.6039  0.7952 -0.6381
 4113TIP3   OH233973   0.528   4.882   1.725 -0.3004 -0.2333  0.3808
 4113TIP3    H133974   0.599   4.819   1.739 -0.8018 -0.3692  2.9296
 4113TIP3    H233975   0.564   4.946   1.663  0.9594 -1.8763 -0.6542
 4114TIP3   OH233976   3.852   3.568   3.326  0.1361 -0.2049  0.8418
 4114TIP3    H133977   3.909   3.639   3.297 -1.6576  1.3527  0.9371
 4114TIP3    H233978   3.772   3.577   3.273 -0.3185 -1.8979  1.1559
 4115TIP3   OH233979   0.417   2.770   1.958  0.6805  0.4991  0.5190
 4115TIP3    H133980   0.328   2.794   1.931  0.2449  1.7736  2.7686
 4115TIP3    H233981   0.404   2.697   2.019  1.4044 -0.7853 -0.8226
 4116TIP3   OH233982   2.808   5.160   7.932  0.4205  0.0408  0.0408
 4116TIP3    H133983   2.845   5.247   7.941 -0.2495  0.1173  2.9396
 4116TIP3    H233984   2.714   5.174   7.922  0.5606 -0.3271 -2.8393
 4117TIP3   OH233985   1.663   5.611   2.163  0.1694 -0.3181  0.4607
 4117TIP3    H133986   1.701   5.605   2.250  0.9879 -0.8643  0.0770
 4117TIP3    H233987   1.718   5.555   2.108 -1.1793 -1.1376 -0.1148
 4118TIP3   OH233988   4.166   5.124   1.336 -0.0039 -0.0859 -0.4621
 4118TIP3    H133989   4.149   5.044   1.387  0.6149  0.2971  0.3741
 4118TIP3    H233990   4.151   5.195   1.398  0.6548  0.3952 -0.8440
 4119TIP3   OH233991   1.214   0.827   0.030  0.1588 -0.1630  0.2269
 4119TIP3    H133992   1.168   0.746   0.008 -1.1606  0.5800  0.1284
 4119TIP3    H233993   1.148   0.895   0.020  1.3041  0.9625  0.0755
 4120TIP3   OH233994   3.414   0.188   2.969  0.1689  0.2767 -0.4153
 4120TIP3    H133995   3.458   0.104   2.980  0.4774  0.1058 -2.5396
 4120TIP3    H233996   3.322   0.170   2.986  0.3520 -0.3138 -0.0362
 4121TIP3   OH233997   1.265   2.079   7.510  0.6144 -0.2380  0.2043
 4121TIP3    H133998   1.358   2.100   7.500  0.6127 -0.9655 -1.8989
 4121TIP3    H233999   1.219   2.158   7.481  0.6264 -0.8104 -1.5274
 4122TIP3   OH234000   0.600   4.065   0.682 -0.0359  0.0448  0.2746
 4122TIP3    H134001   0.691   4.090   0.668 -0.1452  0.5914  0.5239
 4122TIP3    H234002   0.554   4.148   0.695 -0.8325 -0.1008 -1.3469
 4123TIP3   OH234003   2.642   6.763   2.928 -0.4341  0.0913 -0.8192
 4123TIP3    H134004   2.715   6.820   2.906 -0.3146 -0.4574 -1.8997
 4123TIP3    H234005   2.682   6.683   2.960 -0.5755  0.0235 -0.8082
 4124TIP3   OH234006   6.263   0.609   8.156  0.6438  0.0582 -0.1344
 4124TIP3    H134007   6.239   0.620   8.248  0.3018  0.1782 -0.2400
 4124TIP3    H234008   6.226   0.685   8.112  0.9433  0.0830 -0.3469
 4125TIP3   OH234009   1.584   1.129   1.148  0.0001  0.2294  0.0006
 4125TIP3    H134010   1.541   1.127   1.234 -1.1776 -2.4000 -0.5565
 4125TIP3    H234011   1.529   1.187   1.095  0.3887  1.3797  0.8070
 4126TIP3   OH234012   2.100   0.501   0.651 -0.4103 -0.6181 -0.5807
 4126TIP3    H134013   2.058   0.438   0.593  0.1483 -1.6758  0.1426
 4126TIP3    H234014   2.191   0.472   0.656  0.0308  0.6405 -0.7633
 4127TIP3   OH234015   5.961   1.810   0.511  0.3981  0.0350 -0.7450
 4127TIP3    H134016   5.969   1.718   0.537 -0.7745 -0.3711 -1.7412
 4127TIP3    H234017   6.050   1.835   0.485  0.9872 -0.4250  0.7060
 4128TIP3   OH234018   2.429   4.644   0.507  0.1037  0.1210 -0.8194
 4128TIP3    H134019   2.369   4.706   0.467 -1.1174 -0.2903  0.2994
 4128TIP3    H234020   2.393   4.558   0.484  0.2806 -0.1314 -0.1712
 4129TIP3   OH234021   0.489   3.192   1.394  0.0453 -0.5733  0.0298
 4129TIP3    H134022   0.540   3.124   1.348  1.3166 -0.4744  1.2382
 4129TIP3    H234023   0.540   3.272   1.383 -1.6862  0.3864 -1.8131
 4130TIP3   OH234024   0.862   3.294   2.499 -0.3145 -0.0835  0.0039
 4130TIP3    H134025   0.916   3.283   2.578  0.4984  1.4366 -0.3064
 4130TIP3    H234026   0.791   3.232   2.511  0.8032 -1.2437  1.0451
 4131TIP3   OH234027   2.777   5.593   8.621 -0.4100  0.6768  0.0101
 4131TIP3    H134028   2.827   5.564   8.544  0.1743 -0.0838  0.6577
 4131TIP3    H234029   2.839   5.645   8.672 -0.5576  0.5231  0.3522
 4132TIP3   OH234030   2.814   5.755   1.921 -0.2552 -0.0680 -0.6922
 4132TIP3    H134031   2.810   5.850   1.908 -1.6705 -0.3729 -3.0914
 4132TIP3    H234032   2.798   5.744   2.015 -0.2474  2.0401 -0.3769
 4133TIP3   OH234033   4.603   0.495   1.867  0.3876 -0.7290 -0.4775
 4133TIP3    H134034   4.617   0.545   1.947  1.8970  0.0955 -1.2250
 4133TIP3    H234035   4.545   0.551   1.814  0.1679 -0.8467 -0.3654
 4134TIP3   OH234036   3.383   5.507   1.758 -0.1351  0.8948 -0.3307
 4134TIP3    H134037   3.304   5.546   1.794 -0.8944 -0.8446  0.0093
 4134TIP3    H234038   3.422   5.460   1.832 -0.5669 -0.9512 -1.2146
 4135TIP3   OH234039   1.628   4.253   0.516 -0.8603 -0.0845 -0.4909
 4135TIP3    H134040   1.717   4.255   0.550 -0.5735 -0.4167 -1.1933
 4135TIP3    H234041   1.573   4.275   0.590 -0.0498  2.5189 -0.5840
 4136TIP3   OH234042   6.181   1.195   0.390  0.0887 -0.2383 -0.4054
 4136TIP3    H134043   6.271   1.180   0.363  0.0548 -1.0912 -0.0639
 4136TIP3    H234044   6.170   1.290   0.386  1.5082  0.0331  1.1366
 4137TIP3   OH234045   4.824   4.773   7.778 -0.2630  0.5155  0.8103
 4137TIP3    H134046   4.915   4.767   7.748 -0.2691  1.5504  0.5520
 4137TIP3    H234047   4.807   4.867   7.783 -2.0672  0.3893 -1.4028
 4138TIP3   OH234048   5.175   1.292   2.065  0.1682 -0.1247  0.1469
 4138TIP3    H134049   5.199   1.358   2.129  0.1586  0.9596 -0.9357
 4138TIP3    H234050   5.195   1.208   2.107  0.9123  0.5913  1.2371
 4139TIP3   OH234051   4.683   3.830   7.973 -0.8002 -0.7120 -0.2712
 4139TIP3    H134052   4.653   3.767   7.908 -0.1056 -0.2718 -1.0441
 4139TIP3    H234053   4.723   3.901   7.922 -0.6670 -0.1236  0.6153
 4140TIP3   OH234054   6.049   2.463   1.723 -0.0572 -0.2429 -0.3985
 4140TIP3    H134055   5.993   2.516   1.780  0.5868 -0.2166  0.2296
 4140TIP3    H234056   5.999   2.383   1.708  0.3542 -0.8979  1.4450
 4141TIP3   OH234057   2.522   5.236   0.879  0.3644 -0.4654  0.0185
 4141TIP3    H134058   2.606   5.197   0.900  0.5135  0.8415  2.1492
 4141TIP3    H234059   2.543   5.312   0.825  0.5194 -0.3948  0.1786
 4142TIP3   OH234060   3.072   6.245   0.096  0.1175  0.3869 -0.7768
 4142TIP3    H134061   3.144   6.307   0.083 -0.4013  1.3360  0.6709
 4142TIP3    H234062   3.029   6.240   0.010  1.1996  0.6937 -1.3492
 4143TIP3   OH234063   3.369   5.054   1.783  0.3079  0.4128  0.3657
 4143TIP3    H134064   3.297   5.095   1.831  0.2872  0.0700  0.6330
 4143TIP3    H234065   3.415   5.001   1.849  0.6195  0.3847  0.1307
 4144TIP3   OH234066   4.555   1.396   1.662  0.3257 -0.2151 -0.0531
 4144TIP3    H134067   4.490   1.461   1.636  2.4774  0.9713 -3.0828
 4144TIP3    H234068   4.607   1.382   1.583  3.2433 -1.6507  1.9588
 4145TIP3   OH234069   3.978   3.841   7.871  0.0249  0.6647  0.3635
 4145TIP3    H134070   4.066   3.841   7.833 -0.7971 -0.3858 -1.7323
 4145TIP3    H234071   3.972   3.756   7.915  0.2428  0.9853  1.0235
 4146TIP3   OH234072   3.474   5.086   1.104 -0.9632 -0.6940 -0.0001
 4146TIP3    H134073   3.538   5.049   1.166 -1.6785 -1.2499  0.4209
 4146TIP3    H234074   3.438   5.010   1.059 -1.3090 -0.3801 -0.2519
 4147TIP3   OH234075   4.500   2.642   2.953  0.2781  0.0354 -0.1858
 4147TIP3    H134076   4.491   2.548   2.970  0.6879 -0.1418 -0.8972
 4147TIP3    H234077   4.483   2.650   2.859 -1.0731  0.8555  0.1093
 4148TIP3   OH234078   4.445   5.054   0.349 -0.1971 -0.5879  0.4119
 4148TIP3    H134079   4.512   5.022   0.289  0.3788 -2.8923  2.1379
 4148TIP3    H234080   4.372   4.993   0.337 -1.0782  0.4764  0.2519
 4149TIP3   OH234081   4.424   1.646   2.987 -0.3706 -0.0804 -0.2878
 4149TIP3    H134082   4.435   1.555   2.961  1.0660  0.4550 -1.7600
 4149TIP3    H234083   4.511   1.685   2.976 -1.0706  1.5878 -0.2800
 4150TIP3   OH234084   6.202   1.496   2.706 -0.3571 -0.0504  0.2985
 4150TIP3    H134085   6.132   1.449   2.660 -0.8758  0.0163  0.9995
 4150TIP3    H234086   6.209   1.580   2.659 -0.3248 -0.3021 -0.1502
 4151TIP3   OH234087   4.710   3.800   1.148 -0.4995  0.0956  0.0484
 4151TIP3    H134088   4.731   3.755   1.230  1.7346  0.2881 -0.3650
 4151TIP3    H234089   4.625   3.763   1.122 -0.0163 -1.8993  1.0858
 4152TIP3   OH234090   2.992   4.639   8.696  0.6389 -0.0944 -0.2259
 4152TIP3    H134091   2.992   4.555   8.742  1.3488 -0.6048 -1.1124
 4152TIP3    H234092   3.054   4.693   8.745  0.1090 -0.0473  0.4028
 4153TIP3   OH234093   0.771   1.940   8.441  0.2860 -0.3482  0.4584
 4153TIP3    H134094   0.765   2.018   8.387 -0.9229 -0.7145  0.0425
 4153TIP3    H234095   0.814   1.875   8.385  1.1462 -0.0359  0.7493
 4154TIP3   OH234096   2.239   2.422   8.370  0.2573  0.2265 -0.0085
 4154TIP3    H134097   2.165   2.365   8.392 -0.6975  0.6230 -1.9369
 4154TIP3    H234098   2.231   2.435   8.276  2.5393  0.6926 -0.1828
 4155TIP3   OH234099   3.946   0.883   8.475 -0.2086 -0.6412  0.3520
 4155TIP3    H134100   4.017   0.903   8.536 -0.7580  1.9259  0.2351
 4155TIP3    H234101   3.867   0.887   8.529 -0.5068 -0.5899 -0.0905
 4156TIP3   OH234102   5.699   5.527   8.345 -0.4569 -0.4078  0.4741
 4156TIP3    H134103   5.742   5.575   8.416 -0.9248 -0.3635  0.7270
 4156TIP3    H234104   5.627   5.480   8.387  0.5780 -2.1296  0.4070
 4157TIP3   OH234105   1.849   0.313   2.092 -0.0792 -0.2365  0.0538
 4157TIP3    H134106   1.909   0.382   2.064 -0.8023  0.2780 -0.2594
 4157TIP3    H234107   1.858   0.245   2.026 -2.8336  1.5521 -2.4332
 4158TIP3   OH234108   1.681   0.765   1.929 -0.3382 -0.5089  0.3116
 4158TIP3    H134109   1.735   0.723   1.862  1.3630  1.5220  0.3318
 4158TIP3    H234110   1.743   0.797   1.994 -1.9092 -1.9693  2.6850
 4159TIP3   OH234111   2.358   0.985   1.648 -0.4404  0.4461 -0.2054
 4159TIP3    H134112   2.319   1.038   1.578  2.6878  0.7195 -1.9153
 4159TIP3    H234113   2.405   1.049   1.703 -0.8702 -0.0407  0.7553
 4160TIP3   OH234114   4.444   3.323   8.424  0.1465 -0.0317 -0.3576
 4160TIP3    H134115   4.457   3.249   8.364 -1.0978 -0.6409  0.0853
 4160TIP3    H234116   4.350   3.322   8.441  0.3572  0.7032  0.8893
 4161TIP3   OH234117   1.201   6.584   0.007  0.4929  0.3569  0.2383
 4161TIP3    H134118   1.258   6.658   0.026  1.7885 -0.3193 -0.8634
 4161TIP3    H234119   1.216   6.523   0.078 -0.0701  0.8306  0.7845
 4162TIP3   OH234120   2.170   3.744   1.405  0.1477 -0.2797 -0.0937
 4162TIP3    H134121   2.250   3.718   1.359  0.8237  1.0939  0.2478
 4162TIP3    H234122   2.103   3.747   1.337  0.8916  0.6506 -0.8224
 4163TIP3   OH234123   3.060   6.276   1.345  0.1156 -0.1694  0.4165
 4163TIP3    H134124   3.140   6.236   1.379  2.0844  0.1967 -3.2232
 4163TIP3    H234125   3.024   6.211   1.285 -0.8260  0.6741  0.0391
 4164TIP3   OH234126   1.324   6.350   6.866 -0.2818 -0.0224  0.3400
 4164TIP3    H134127   1.287   6.290   6.931 -1.4560  0.0623 -0.2326
 4164TIP3    H234128   1.265   6.425   6.866  0.5169  0.6252  0.1917
 4165TIP3   OH234129   4.465   3.563   3.229 -0.4391 -0.3144  0.0410
 4165TIP3    H134130   4.433   3.619   3.158  1.0943 -0.1047 -0.5271
 4165TIP3    H234131   4.443   3.474   3.201 -1.2227 -0.1350  0.0586
 4166TIP3   OH234132   1.713   4.025   8.566 -0.3679  0.3946 -0.7158
 4166TIP3    H134133   1.668   3.941   8.571  3.6147 -2.0253 -0.8510
 4166TIP3    H234134   1.691   4.070   8.648 -2.9960 -0.4754 -0.8755
 4167TIP3   OH234135   6.678   0.420   0.851  0.3189 -0.2460  0.1618
 4167TIP3    H134136   6.639   0.492   0.800  0.3574 -0.7297 -0.5598
 4167TIP3    H234137   6.740   0.379   0.792  1.8318  0.3998  1.2444
 4168TIP3   OH234138   1.135   1.532   7.475 -0.2913  0.4266  0.0914
 4168TIP3    H134139   1.213   1.584   7.459 -0.4008  0.5715  0.0306
 4168TIP3    H234140   1.064   1.581   7.435 -0.7413  1.3119  1.8578
 4169TIP3   OH234141   1.768   6.528   7.790 -0.1428 -0.0762 -0.1670
 4169TIP3    H134142   1.787   6.459   7.727 -0.1740  0.0163 -0.2785
 4169TIP3    H234143   1.752   6.606   7.736 -0.3784 -0.0460 -0.0551
 4170TIP3   OH234144   3.630   3.702   1.770  0.8146  0.2497 -0.5401
 4170TIP3    H134145   3.575   3.727   1.696 -0.1039 -1.8993 -0.6581
 4170TIP3    H234146   3.607   3.765   1.839 -1.1573 -0.0205 -0.8778
 4171TIP3   OH234147   1.960   5.102   3.135 -0.2216 -0.8208 -0.9259
 4171TIP3    H134148   1.889   5.166   3.129 -0.0867 -0.6420 -0.6396
 4171TIP3    H234149   1.938   5.048   3.211  0.2492 -0.3924 -0.4813
 4172TIP3   OH234150   3.090   5.048   7.854 -0.3642  0.7923 -0.3054
 4172TIP3    H134151   3.170   5.062   7.804  0.7612 -0.5450  1.0014
 4172TIP3    H234152   3.061   4.960   7.829  1.0700 -0.5819  2.2959
 4173TIP3   OH234153   2.063   4.099   3.328  0.3712 -0.3682  0.3447
 4173TIP3    H134154   2.077   4.004   3.321 -0.6501 -0.5111  0.0732
 4173TIP3    H234155   2.144   4.138   3.295  0.2609 -1.1371 -0.8848
 4174TIP3   OH234156   0.068   5.343   7.411  0.1548 -0.0368 -0.7160
 4174TIP3    H134157   0.007   5.291   7.463 -0.3524  0.5599 -0.6942
 4174TIP3    H234158   0.013   5.413   7.374  0.9239  0.8263 -0.2580
 4175TIP3   OH234159   5.013   5.446   0.912 -0.0064  0.2888 -0.1468
 4175TIP3    H134160   5.046   5.410   0.829  0.3203 -0.2986  0.2341
 4175TIP3    H234161   4.920   5.421   0.913 -0.2366  1.0705 -0.7442
 4176TIP3   OH234162   3.490   4.728   2.963  0.1602 -0.9169  0.3530
 4176TIP3    H134163   3.580   4.701   2.980  0.0177 -1.9227 -0.4417
 4176TIP3    H234164   3.498   4.801   2.902  0.4354 -0.9295  0.3722
 4177TIP3   OH234165   4.206   2.313   0.449 -0.3047  0.0897 -0.5018
 4177TIP3    H134166   4.173   2.271   0.369  3.1255 -1.4983 -1.2694
 4177TIP3    H234167   4.247   2.394   0.419 -1.1950  0.7629  0.0548
 4178TIP3   OH234168   2.558   1.935   1.125 -0.4881  0.1122 -0.6033
 4178TIP3    H134169   2.475   1.921   1.081 -0.9633  1.0810 -0.0344
 4178TIP3    H234170   2.622   1.943   1.054 -0.8759 -0.5380 -1.0420
 4179TIP3   OH234171   3.694   4.748   2.582 -0.1908 -0.3299 -0.1879
 4179TIP3    H134172   3.660   4.725   2.496 -0.5210  0.5820 -0.3057
 4179TIP3    H234173   3.764   4.811   2.565 -2.4346  2.5171  0.2914
 4180TIP3   OH234174   0.749   3.317   8.444  0.3842 -0.2620 -0.0131
 4180TIP3    H134175   0.662   3.338   8.410 -0.5856 -0.7790  1.9687
 4180TIP3    H234176   0.804   3.307   8.367 -1.0817  1.0343 -1.2901
 4181TIP3   OH234177   0.733   5.786   8.072  0.3173 -0.0241 -1.0951
 4181TIP3    H134178   0.740   5.770   8.166 -0.3576 -1.1081 -1.2208
 4181TIP3    H234179   0.815   5.830   8.049 -0.3980  2.3309  0.3929
 4182TIP3   OH234180   0.499   5.419   1.432  0.2942 -0.3518  0.0148
 4182TIP3    H134181   0.423   5.474   1.450 -0.0737 -0.8961  0.1271
 4182TIP3    H234182   0.532   5.395   1.519  1.3480  0.8906 -0.0003
 4183TIP3   OH234183   1.320   1.741   1.550  0.2768 -0.2757 -0.2462
 4183TIP3    H134184   1.300   1.776   1.637  0.0933 -0.1262 -0.3490
 4183TIP3    H234185   1.277   1.655   1.548  0.0485 -0.1599 -0.2924
 4184TIP3   OH234186   4.676   2.457   8.585 -0.0082 -0.1163 -0.0353
 4184TIP3    H134187   4.589   2.492   8.603 -1.8827 -3.5885 -1.5186
 4184TIP3    H234188   4.688   2.468   8.491  0.9021 -0.2931  0.0504
 4185TIP3   OH234189   3.692   4.759   0.312 -0.5800 -1.0157 -0.4781
 4185TIP3    H134190   3.677   4.699   0.385 -0.6117  0.5639  0.8709
 4185TIP3    H234191   3.783   4.786   0.321 -0.1605 -1.8508 -1.8791
 4186TIP3   OH234192   5.878   0.221   1.248  0.3766 -0.6269  0.0263
 4186TIP3    H134193   5.836   0.247   1.166  1.9757  1.0339 -0.3239
 4186TIP3    H234194   5.899   0.128   1.237 -0.8452 -0.8295 -0.7839
 4187TIP3   OH234195   5.898   4.704   1.919 -0.3854  0.1336  0.0255
 4187TIP3    H134196   5.871   4.762   1.991 -1.7618  1.9023 -1.7763
 4187TIP3    H234197   5.988   4.681   1.939 -0.8516  0.1796  2.5266
 4188TIP3   OH234198   6.579   6.759   1.060 -0.2223 -0.2522 -0.1901
 4188TIP3    H134199   6.636   6.682   1.052  0.2097 -0.2881  2.3044
 4188TIP3    H234200   6.633   6.832   1.031  1.2892 -0.2658  2.2734
 4189TIP3   OH234201   5.663   3.829   1.054  0.0701  0.3666  0.0670
 4189TIP3    H134202   5.698   3.858   1.138 -0.1150  2.1861 -0.4426
 4189TIP3    H234203   5.740   3.817   0.998  0.0846  0.8636 -0.0159
 4190TIP3   OH234204   0.351   3.211   2.691  0.3727  0.2312 -0.8698
 4190TIP3    H134205   0.296   3.216   2.613  0.1577 -0.1387 -0.7420
 4190TIP3    H234206   0.292   3.184   2.761  0.6772  0.0161 -0.6934
 4191TIP3   OH234207   0.249   1.435   0.697 -0.5553  0.1145 -0.5984
 4191TIP3    H134208   0.195   1.385   0.636 -1.0004 -0.0865 -0.0495
 4191TIP3    H234209   0.209   1.419   0.783 -0.7860  1.5137 -0.4221
 4192TIP3   OH234210   1.029   0.147   1.360  0.8610 -0.1243 -0.2004
 4192TIP3    H134211   1.108   0.101   1.332  0.5386 -0.0688 -1.2564
 4192TIP3    H234212   1.055   0.239   1.368  1.0252 -0.1851 -0.0363
 4193TIP3   OH234213   0.971   2.218   1.141  0.1534 -0.4188 -0.0404
 4193TIP3    H134214   0.973   2.195   1.048 -0.5588  1.1343 -0.4824
 4193TIP3    H234215   0.893   2.174   1.175  0.2552 -0.7614 -0.2472
 4194TIP3   OH234216   1.347   6.004   7.715 -0.2753  0.6653  0.4066
 4194TIP3    H134217   1.308   6.009   7.628 -1.3789  0.7020  0.8840
 4194TIP3    H234218   1.286   5.949   7.765  1.1240 -0.6520  0.7503
 4195TIP3   OH234219   2.661   4.501   0.544 -0.2351 -0.7648 -0.4115
 4195TIP3    H134220   2.579   4.549   0.541 -0.1691 -0.6302 -0.1341
 4195TIP3    H234221   2.636   4.412   0.572 -0.6495 -1.5805 -3.0527
 4196TIP3   OH234222   1.041   1.030   0.002  0.0630  0.1372 -0.0371
 4196TIP3    H134223   1.104   1.103   0.001  0.2070  0.1311  2.3383
 4196TIP3    H234224   1.029   1.007  -0.090  1.7312  1.6920 -0.7008
 4197TIP3   OH234225   1.320   1.895   1.327  0.1722  0.3289  0.0296
 4197TIP3    H134226   1.279   1.813   1.298 -1.3345  1.6515 -1.9156
 4197TIP3    H234227   1.344   1.880   1.418 -2.0735 -1.5435  0.3975
 4198TIP3   OH234228   3.400   3.818   7.540  0.4344  0.3744  0.1426
 4198TIP3    H134229   3.381   3.911   7.527  1.1269  0.7434  1.6350
 4198TIP3    H234230   3.329   3.773   7.494 -1.0372  1.6583  1.0503
 4199TIP3   OH234231   5.173   1.239   8.057 -0.0473  0.4803  0.8073
 4199TIP3    H134232   5.093   1.285   8.034  1.0044  2.2042  0.4483
 4199TIP3    H234233   5.231   1.306   8.093  1.1386 -0.7663  1.3303
 4200TIP3   OH234234   3.343   3.651   2.265 -0.3224 -0.3732 -0.8585
 4200TIP3    H134235   3.408   3.582   2.251  0.7084  0.4523 -0.2784
 4200TIP3    H234236   3.281   3.614   2.328  2.2509  0.4182  2.4059
 4201TIP3   OH234237   1.451   3.181   0.128  0.2677  0.5171 -0.4893
 4201TIP3    H134238   1.455   3.085   0.125  1.1391  0.5665 -2.2550
 4201TIP3    H234239   1.540   3.208   0.154  0.0689  0.8582 -0.1525
 4202TIP3   OH234240   4.685   1.851   2.694 -0.6709 -0.0532  0.2656
 4202TIP3    H134241   4.672   1.757   2.700  0.5222 -0.2630 -0.0773
 4202TIP3    H234242   4.626   1.888   2.760  1.7057 -1.3263  3.3781
 4203TIP3   OH234243   4.807   0.492   2.593 -0.2612  0.1374 -0.2897
 4203TIP3    H134244   4.823   0.481   2.687  0.4619 -2.3388 -0.6325
 4203TIP3    H234245   4.741   0.561   2.588  0.2620  0.8782  1.9819
 4204TIP3   OH234246   6.630   5.298   8.210  0.0214 -0.2619 -0.4619
 4204TIP3    H134247   6.540   5.280   8.186  0.0384  0.1940 -0.8690
 4204TIP3    H234248   6.639   5.263   8.299 -0.2475 -1.2655 -0.8244
 4205TIP3   OH234249   3.490   1.919   8.778  0.5287 -0.6251 -0.7090
 4205TIP3    H134250   3.551   1.949   8.710  0.1867 -0.6200 -1.0238
 4205TIP3    H234251   3.544   1.903   8.854  0.7545  0.6835 -0.5638
 4206TIP3   OH234252   6.328   2.450   0.718  0.2774  0.4014 -0.1376
 4206TIP3    H134253   6.333   2.494   0.803  0.3557  1.0444 -0.4629
 4206TIP3    H234254   6.258   2.497   0.671 -1.1968 -1.2696  0.3006
 4207TIP3   OH234255   4.933   1.019   1.314  0.7160 -0.5795  0.3491
 4207TIP3    H134256   4.895   1.009   1.227  1.6858 -1.5267  0.0205
 4207TIP3    H234257   4.923   1.112   1.333 -0.8845 -0.6153 -0.1103
 4208TIP3   OH234258   1.375   0.150   1.479  0.4481  0.2473 -0.0385
 4208TIP3    H134259   1.333   0.188   1.402  1.3579  0.1823 -0.5813
 4208TIP3    H234260   1.433   0.082   1.443  1.0922  0.4076  0.6811
 4209TIP3   OH234261   4.240   0.732   2.917  0.3441  0.1171  0.0464
 4209TIP3    H134262   4.241   0.657   2.977  1.6319  1.1122  1.3292
 4209TIP3    H234263   4.152   0.730   2.879 -0.1014 -1.2786  1.0410
 4210TIP3   OH234264   1.792   1.819   2.093 -0.3359  0.2782  0.2704
 4210TIP3    H134265   1.848   1.841   2.019 -0.0257 -0.5028  0.2605
 4210TIP3    H234266   1.819   1.880   2.162 -0.7462  1.1205 -0.2979
 4211TIP3   OH234267   4.673   0.294   0.274  0.3044  0.2561  0.0981
 4211TIP3    H134268   4.696   0.368   0.217 -0.5449  1.3622  1.1327
 4211TIP3    H234269   4.740   0.294   0.342  0.6389 -0.3099 -0.2246
 4212TIP3   OH234270   4.736   3.177   0.926  0.0512 -0.1940 -0.3376
 4212TIP3    H134271   4.720   3.089   0.960  0.1760  0.1764  0.6976
 4212TIP3    H234272   4.823   3.172   0.887 -0.0324 -0.5798 -0.4853
 4213TIP3   OH234273   2.866   2.899   0.784  0.6752  0.4862  0.2826
 4213TIP3    H134274   2.826   2.984   0.802  1.8273  1.4883 -1.5277
 4213TIP3    H234275   2.806   2.856   0.723  0.3953  0.2380  0.7243
 4214TIP3   OH234276   1.856   6.773   8.708  0.4001 -0.0234  0.8093
 4214TIP3    H134277   1.913   6.746   8.636  0.8806 -0.9994  1.5527
 4214TIP3    H234278   1.775   6.723   8.694 -0.0768  0.8948  0.1186
 4215TIP3   OH234279   2.799   4.861   0.422  0.2833 -0.9644 -0.0501
 4215TIP3    H134280   2.893   4.867   0.440  0.3730 -0.8488 -0.5546
 4215TIP3    H234281   2.793   4.805   0.345  0.1967  1.7897 -2.1987
 4216TIP3   OH234282   3.039   2.213   1.596 -0.1907  0.3073 -0.2603
 4216TIP3    H134283   2.956   2.171   1.615 -1.5739  1.9918 -2.1202
 4216TIP3    H234284   3.104   2.163   1.646 -2.2550 -1.2077  1.0485
 4217TIP3   OH234285   6.508   4.511   1.639  0.1063  0.0555  0.0341
 4217TIP3    H134286   6.542   4.474   1.720  1.0961  1.1380  0.1353
 4217TIP3    H234287   6.423   4.548   1.664  0.1694 -0.0722  0.4456
 4218TIP3   OH234288   3.751   6.221   8.317  0.6996  0.1007 -0.0116
 4218TIP3    H134289   3.838   6.224   8.278 -0.2699  0.7114 -2.3105
 4218TIP3    H234290   3.701   6.164   8.258 -0.0475 -1.7796  2.2745
 4219TIP3   OH234291   4.704   4.411   0.409  0.2941  0.0285  0.0448
 4219TIP3    H134292   4.662   4.375   0.487 -1.6237  1.6330 -0.1526
 4219TIP3    H234293   4.702   4.340   0.345 -0.7578 -0.4290  0.5567
 4220TIP3   OH234294   1.525   5.878   8.494 -0.2609  0.2281  0.1367
 4220TIP3    H134295   1.529   5.934   8.417 -0.8836 -0.1964 -0.2109
 4220TIP3    H234296   1.571   5.798   8.469 -1.2148 -0.2660 -0.1204
 4221TIP3   OH234297   6.797   1.249   0.330 -0.1413 -0.2061 -0.1167
 4221TIP3    H134298   6.750   1.303   0.266  2.3281  1.4819 -0.6865
 4221TIP3    H234299   6.753   1.266   0.413 -0.6590  1.1844 -0.6404
 4222TIP3   OH234300   2.433   6.114   0.624  0.1831 -0.0389  0.6882
 4222TIP3    H134301   2.473   6.076   0.702 -0.8994 -0.3477  1.1223
 4222TIP3    H234302   2.366   6.173   0.658 -0.6208 -0.5257  0.0096
 4223TIP3   OH234303   1.803   5.925   0.533  0.0825  0.6088  0.2670
 4223TIP3    H134304   1.830   5.955   0.446 -0.0577 -2.7424 -1.1137
 4223TIP3    H234305   1.862   5.852   0.551 -2.0533 -0.9471  1.3984
 4224TIP3   OH234306   2.466   3.186   1.499 -0.5937 -0.0052 -0.1103
 4224TIP3    H134307   2.523   3.252   1.541 -0.2588  0.2084 -0.8871
 4224TIP3    H234308   2.520   3.107   1.496 -0.0681  0.3813 -1.4665
 4225TIP3   OH234309   4.320   5.346   7.910  0.0576  0.0792 -0.1091
 4225TIP3    H134310   4.284   5.434   7.920 -0.0664 -0.0860  0.9638
 4225TIP3    H234311   4.254   5.288   7.949 -0.4024 -0.6193 -1.8155
 4226TIP3   OH234312   0.230   0.519   0.540 -0.1405  0.1087  0.3649
 4226TIP3    H134313   0.228   0.584   0.469 -1.5118 -0.8905 -0.5671
 4226TIP3    H234314   0.319   0.485   0.539  0.1726  0.8968 -0.1203
 4227TIP3   OH234315   2.024   1.719   0.708  0.4643 -0.2855  0.4863
 4227TIP3    H134316   2.086   1.781   0.747 -0.2661  0.2779  0.7775
 4227TIP3    H234317   1.963   1.698   0.780 -0.7651  0.5857 -0.2589
 4228TIP3   OH234318   5.176   4.126   8.445  0.5423  0.7283 -0.3949
 4228TIP3    H134319   5.099   4.168   8.407  1.0096 -0.1799 -2.4458
 4228TIP3    H234320   5.239   4.123   8.374  2.1215  0.5258  0.9716
 4229TIP3   OH234321   1.768   0.908   1.135  0.2021  0.0144 -0.0537
 4229TIP3    H134322   1.711   0.976   1.171  1.5518  0.5773  1.1107
 4229TIP3    H234323   1.855   0.948   1.133  1.2697 -2.0105  1.7775
 4230TIP3   OH234324   6.593   0.967   1.390 -0.1097 -0.1808  0.3913
 4230TIP3    H134325   6.625   0.908   1.321 -0.4686  0.2057 -0.1169
 4230TIP3    H234326   6.637   0.938   1.469  1.2066  0.0936 -0.2147
 4231TIP3   OH234327   6.228   5.523   0.094  0.0548 -0.1597 -0.7902
 4231TIP3    H134328   6.199   5.433   0.107  0.5980 -0.5268 -1.9838
 4231TIP3    H234329   6.154   5.567   0.052 -0.4915  0.1753  0.4631
 4232TIP3   OH234330   3.331   6.352   1.574 -0.3156 -0.0594  0.3856
 4232TIP3    H134331   3.396   6.408   1.532 -1.0497  0.1462 -0.4818
 4232TIP3    H234332   3.382   6.277   1.606  0.0038 -1.4093 -2.9077
 4233TIP3   OH234333   3.102   2.995   8.475  0.2110 -0.9600  0.2877
 4233TIP3    H134334   3.123   3.013   8.566 -0.4890 -1.5151  0.5698
 4233TIP3    H234335   3.183   3.013   8.427 -0.0700  1.6582  0.6760
 4234TIP3   OH234336   0.549   0.874   1.374  0.9045  0.3371  0.3682
 4234TIP3    H134337   0.570   0.787   1.408 -1.3484  0.1960  1.5502
 4234TIP3    H234338   0.595   0.878   1.290  1.2647 -1.8965  0.3956
 4235TIP3   OH234339   2.981   1.684   0.564  0.2177 -0.9166  0.4877
 4235TIP3    H134340   2.923   1.716   0.633 -0.9968 -0.0131 -0.8734
 4235TIP3    H234341   2.966   1.590   0.561 -1.6222 -0.6614 -0.1297
 4236TIP3   OH234342   0.760   2.072   1.283  0.3541 -0.0722  0.3788
 4236TIP3    H134343   0.761   1.979   1.305 -1.5567 -0.2146  0.0463
 4236TIP3    H234344   0.678   2.104   1.320 -1.2609  0.4730 -3.2729
 4237TIP3   OH234345   1.730   6.405   0.227  0.2940  0.1010  0.5060
 4237TIP3    H134346   1.683   6.331   0.188 -1.3919  0.3946  1.8485
 4237TIP3    H234347   1.699   6.481   0.178  0.5019  0.1341  0.4269
 4238TIP3   OH234348   2.275   6.656   8.427 -0.0795 -0.0496  0.1300
 4238TIP3    H134349   2.355   6.615   8.461 -0.1374  0.0117  0.3402
 4238TIP3    H234350   2.210   6.586   8.428 -1.2483  0.8809  4.0191
 4239TIP3   OH234351   1.147   3.015   0.428  0.2728  0.1986 -0.0798
 4239TIP3    H134352   1.075   3.051   0.376  1.6193  1.0168 -1.4683
 4239TIP3    H234353   1.222   3.070   0.405  1.5042 -1.0657  0.7940
 4240TIP3   OH234354   6.663   3.480   1.812  0.8310 -0.0079  0.5567
 4240TIP3    H134355   6.688   3.411   1.751 -2.1386 -0.9580  0.2311
 4240TIP3    H234356   6.649   3.557   1.757  0.9167 -0.0787  0.4372
 4241TIP3   OH234357   6.496   5.807   8.177  0.0525  0.0283 -0.0929
 4241TIP3    H134358   6.445   5.738   8.133  1.3912 -0.9277 -0.1958
 4241TIP3    H234359   6.430   5.867   8.211 -1.3266 -2.3390  1.7775
 4242TIP3   OH234360   6.776   4.354   7.938 -0.1038 -0.2781  0.4847
 4242TIP3    H134361   6.854   4.359   7.883  0.4501  1.5522  1.3379
 4242TIP3    H234362   6.742   4.444   7.939 -3.0053 -1.2171 -0.8894
 4243TIP3   OH234363   1.369   1.448   0.830  0.2932 -0.4535 -0.1303
 4243TIP3    H134364   1.365   1.459   0.925 -0.9464 -1.9434  0.0300
 4243TIP3    H234365   1.428   1.374   0.816 -0.0726 -0.6947 -0.4564
 4244TIP3   OH234366   5.907   4.289   1.859  0.3622  0.1599 -0.0328
 4244TIP3    H134367   5.857   4.347   1.917  1.9860  0.0264  1.5967
 4244TIP3    H234368   5.995   4.288   1.896  0.9142 -1.7119 -1.2431
 4245TIP3   OH234369   6.718   2.239   0.199  0.0270 -0.5961 -0.3377
 4245TIP3    H134370   6.640   2.211   0.152 -0.9250  0.3400  0.6445
 4245TIP3    H234371   6.773   2.280   0.132 -0.7159 -0.4735 -0.8742
 4246TIP3   OH234372   0.012   4.373   1.224  0.4817  0.2315  0.1243
 4246TIP3    H134373   0.102   4.350   1.203  0.3709 -0.2400  0.1610
 4246TIP3    H234374   0.012   4.386   1.319  0.3798 -0.3937  0.2168
 4247TIP3   OH234375   4.392   4.438   0.494  0.3793  0.6177 -0.2095
 4247TIP3    H134376   4.354   4.351   0.507  0.9780  0.4531  0.4781
 4247TIP3    H234377   4.388   4.452   0.399 -0.5499  0.2286 -0.2402
 4248TIP3   OH234378   3.129   6.752   0.260 -0.6350 -0.1043 -0.5754
 4248TIP3    H134379   3.033   6.752   0.257 -0.6565  0.8933 -0.4464
 4248TIP3    H234380   3.155   6.693   0.189 -1.3413 -0.2944 -0.6895
 4249TIP3   OH234381   1.631   1.427   3.297 -0.2272  0.5170 -0.6185
 4249TIP3    H134382   1.552   1.445   3.245 -1.6035 -2.8853 -0.0071
 4249TIP3    H234383   1.604   1.440   3.387  0.8594  2.1850 -0.5008
 4250TIP3   OH234384   0.822   0.532   7.404 -0.1894  0.5739 -0.5748
 4250TIP3    H134385   0.740   0.513   7.449 -1.5556  1.6719 -2.4396
 4250TIP3    H234386   0.821   0.475   7.327 -0.4198  2.2440 -1.8882
 4251TIP3   OH234387   3.335   5.525   7.539 -0.1037  0.2308 -0.4926
 4251TIP3    H134388   3.328   5.544   7.445  0.0084  1.9009 -0.1935
 4251TIP3    H234389   3.317   5.609   7.581 -0.8827 -0.6751  1.0151
 4252TIP3   OH234390   2.554   5.286   7.604  0.0473 -0.4632  0.4212
 4252TIP3    H134391   2.557   5.272   7.509 -4.0728  1.1539 -0.1514
 4252TIP3    H234392   2.519   5.204   7.639 -1.9877  0.1908  0.0068
 4253TIP3   OH234393   5.811   3.104   0.439  0.4238  0.1131  0.2549
 4253TIP3    H134394   5.755   3.042   0.392 -0.8009  0.2244  1.5108
 4253TIP3    H234395   5.898   3.066   0.435  0.2317 -0.2386 -1.4559
 4254TIP3   OH234396   2.253   4.478   8.682 -0.2719 -0.4233  0.2591
 4254TIP3    H134397   2.275   4.570   8.678 -0.7486 -0.1229  2.6784
 4254TIP3    H234398   2.326   4.433   8.640  1.4129  0.9203  1.6078
 4255TIP3   OH234399   0.977   5.820   7.891  0.8135  0.3834 -0.0646
 4255TIP3    H134400   0.962   5.740   7.941 -0.0281  0.6574  0.1274
 4255TIP3    H234401   0.959   5.794   7.800  0.4255  0.3814  0.0110
 4256TIP3   OH234402   3.404   3.019   2.335 -0.1484 -0.0719  0.2290
 4256TIP3    H134403   3.351   3.090   2.371  0.3267  0.3250  0.1535
 4256TIP3    H234404   3.346   2.943   2.337 -0.3531  0.0986  1.1856
 4257TIP3   OH234405   1.871   4.477   3.513 -0.1865  0.1595  0.0888
 4257TIP3    H134406   1.854   4.399   3.460  1.2721 -0.3069  0.2721
 4257TIP3    H234407   1.800   4.477   3.578  0.4620 -1.7239  0.8653
 4258TIP3   OH234408   0.932   6.137   0.731 -0.3380 -0.2540 -0.2584
 4258TIP3    H134409   0.883   6.177   0.659  1.4952 -1.1832 -2.1509
 4258TIP3    H234410   0.972   6.210   0.776 -0.1108  0.2870 -1.3005
 4259TIP3   OH234411   5.711   2.415   7.968 -0.1999  0.2985  0.2596
 4259TIP3    H134412   5.681   2.505   7.952 -1.4185  0.2150  1.7727
 4259TIP3    H234413   5.758   2.421   8.052  0.7352 -0.2886 -0.2055
 4260TIP3   OH234414   2.095   5.417   8.474  0.0656 -0.0099  0.2293
 4260TIP3    H134415   2.141   5.367   8.542  0.0129 -0.6943 -0.2317
 4260TIP3    H234416   2.048   5.485   8.523  2.0381  1.1405  0.6733
 4261TIP3   OH234417   3.953   2.583   6.867  0.3827  0.4137 -0.1724
 4261TIP3    H134418   3.967   2.514   6.802 -0.3451 -1.7280  1.8055
 4261TIP3    H234419   4.041   2.607   6.896  0.6664 -2.1941  1.4766
 4262TIP3   OH234420   0.263   1.344   3.173 -0.1162 -0.8245  0.1505
 4262TIP3    H134421   0.200   1.363   3.241  0.2540 -0.4814  0.4012
 4262TIP3    H234422   0.213   1.298   3.106 -0.4714 -1.2060  0.6705
 4263TIP3   OH234423   0.590   2.777   8.357  0.2092  0.2954 -0.4833
 4263TIP3    H134424   0.545   2.783   8.441  1.3311 -0.8270  0.2248
 4263TIP3    H234425   0.522   2.749   8.296  0.1176 -2.7287  0.8239
 4264TIP3   OH234426   3.429   6.542   0.958  0.2439  0.0362  1.0024
 4264TIP3    H134427   3.367   6.614   0.951  0.2985 -0.0559 -0.9776
 4264TIP3    H234428   3.513   6.583   0.979  0.9878  1.0623 -3.0827
 4265TIP3   OH234429   2.796   4.002   3.124 -0.1263 -0.8211 -0.0347
 4265TIP3    H134430   2.872   3.949   3.100 -0.1886 -0.6863 -0.5352
 4265TIP3    H234431   2.821   4.043   3.207 -0.3675 -2.2166  0.7607
 4266TIP3   OH234432   4.275   3.568   1.758  0.2669 -0.3886  0.2156
 4266TIP3    H134433   4.219   3.529   1.825 -0.6613 -0.9746 -0.8629
 4266TIP3    H234434   4.360   3.579   1.801 -0.3163 -0.6913  1.4943
 4267TIP3   OH234435   3.651   1.389   8.248 -0.5526  0.3022 -0.2680
 4267TIP3    H134436   3.714   1.370   8.318  0.3448 -1.0827 -1.3863
 4267TIP3    H234437   3.699   1.448   8.189  0.2179 -1.6840 -1.7387
 4268TIP3   OH234438   3.993   4.801   8.317 -0.6394  0.4935  0.1731
 4268TIP3    H134439   3.972   4.773   8.228 -2.0754  1.9799  0.0037
 4268TIP3    H234440   4.075   4.848   8.309 -1.0466  1.1127 -0.4908
 4269TIP3   OH234441   5.264   1.131   1.268 -0.1523  0.5579  0.3349
 4269TIP3    H134442   5.190   1.071   1.280 -0.3287  0.5329 -0.7598
 4269TIP3    H234443   5.310   1.130   1.352 -0.7357 -0.3258  0.6556
 4270TIP3   OH234444   2.460   5.162   0.560  0.2589 -0.4054  0.3270
 4270TIP3    H134445   2.474   5.214   0.639 -1.6515 -0.6501  0.8657
 4270TIP3    H234446   2.548   5.145   0.527  1.0423  0.7681  1.6950
 4271TIP3   OH234447   6.834   4.203   0.398  0.1811 -0.2940 -0.4941
 4271TIP3    H134448   6.881   4.121   0.415  0.1371  0.3482  3.4777
 4271TIP3    H234449   6.743   4.183   0.415 -0.1524  0.1157 -1.6598
 4272TIP3   OH234450   0.746   2.767   3.267 -0.7200 -0.4659 -0.0375
 4272TIP3    H134451   0.688   2.806   3.333  0.0471 -0.5507  0.6874
 4272TIP3    H234452   0.746   2.831   3.196  0.3272  0.7840  1.0369
 4273TIP3   OH234453   6.621   6.086   0.490 -0.0548  0.7651 -0.3055
 4273TIP3    H134454   6.663   6.030   0.425  1.1527  1.2520  0.0283
 4273TIP3    H234455   6.677   6.079   0.567 -1.1419  0.6626  0.4865
 4274TIP3   OH234456   5.530   0.489   1.063 -0.1351  0.2120  0.2780
 4274TIP3    H134457   5.572   0.501   0.978 -1.7913  1.4392 -0.4173
 4274TIP3    H234458   5.592   0.527   1.126 -0.1595  1.9848 -0.7060
 4275TIP3   OH234459   0.351   0.821   1.552 -0.0276 -0.0059  0.2062
 4275TIP3    H134460   0.409   0.853   1.484 -3.3878  2.1899 -1.9287
 4275TIP3    H234461   0.378   0.867   1.631  0.8881  1.2019 -0.7726
 4276TIP3   OH234462   6.526   1.666   2.093  0.2869  0.1767 -0.0479
 4276TIP3    H134463   6.578   1.629   2.021 -0.6956 -2.2209  0.3828
 4276TIP3    H234464   6.573   1.640   2.172  0.2942  1.0807  0.2588
 4277TIP3   OH234465   6.278   5.877   3.240 -0.3116  0.4048  0.0287
 4277TIP3    H134466   6.351   5.939   3.236 -0.8263  0.9723 -0.9261
 4277TIP3    H234467   6.311   5.806   3.295  0.4836  1.2616  0.6931
 4278TIP3   OH234468   5.024   0.471   0.939 -0.5456 -0.0304 -0.1394
 4278TIP3    H134469   4.933   0.441   0.942  0.1530 -2.5280 -1.0228
 4278TIP3    H234470   5.038   0.497   0.848 -0.6307  1.3822  0.2279
 4279TIP3   OH234471   2.337   1.446   2.211 -0.2851 -0.0426 -0.0799
 4279TIP3    H134472   2.287   1.431   2.131  0.3996 -1.6282 -0.2395
 4279TIP3    H234473   2.429   1.440   2.184 -0.0482 -0.8111  0.8434
 4280TIP3   OH234474   3.916   6.753   8.462  0.4095  0.3714 -0.4185
 4280TIP3    H134475   3.954   6.776   8.546  0.2495 -1.6631  0.2552
 4280TIP3    H234476   3.986   6.773   8.398  1.2786  0.0578  0.4112
 4281TIP3   OH234477   2.012   3.080   1.322 -0.2421 -0.2397  0.0029
 4281TIP3    H134478   1.930   3.035   1.344 -0.4539  1.0751  2.2879
 4281TIP3    H234479   1.983   3.165   1.287  0.1657 -0.6784 -1.4507
 4282TIP3   OH234480   0.973   3.275   1.436  0.2283 -0.5178 -0.1638
 4282TIP3    H134481   0.944   3.308   1.521  0.3846  1.5426 -0.8617
 4282TIP3    H234482   1.043   3.213   1.457  0.8652  0.6089  1.1902
 4283TIP3   OH234483   1.262   3.332   0.992 -0.2457  0.3319 -0.6325
 4283TIP3    H134484   1.205   3.376   1.055 -0.9385 -3.9475  2.2303
 4283TIP3    H234485   1.348   3.332   1.033  0.5010  1.6756 -2.1229
 4284TIP3   OH234486   5.970   5.649   2.072 -0.8343  0.2824  0.3747
 4284TIP3    H134487   6.034   5.720   2.085 -2.3637  1.4894  1.7321
 4284TIP3    H234488   5.976   5.597   2.151 -0.5356 -0.4641 -0.1288
 4285TIP3   OH234489   3.491   3.485   2.708 -0.5372  0.4595  0.2775
 4285TIP3    H134490   3.437   3.538   2.649  1.3236  1.0776 -0.9486
 4285TIP3    H234491   3.580   3.499   2.678  0.2471 -1.3322  1.6048
 4286TIP3   OH234492   0.460   2.407   0.969 -0.5302  0.0316 -0.0510
 4286TIP3    H134493   0.433   2.471   0.903  0.4966 -0.7997 -1.3249
 4286TIP3    H234494   0.501   2.459   1.037 -1.8471  0.9382  0.0842
 4287TIP3   OH234495   0.020   1.836   2.465 -0.0906  0.3669 -0.4165
 4287TIP3    H134496   0.004   1.748   2.498  1.8002 -0.4651 -1.5689
 4287TIP3    H234497  -0.006   1.832   2.372  0.1587  0.9838 -0.5151
 4288TIP3   OH234498   0.854   6.496   0.103  0.3181 -0.0677 -0.4849
 4288TIP3    H134499   0.765   6.464   0.117  0.2593 -0.0164 -0.7372
 4288TIP3    H234500   0.908   6.441   0.160 -0.0575  0.9823  0.9486
 4289TIP3   OH234501   1.150   2.052   0.064 -0.1350  0.2751 -0.0719
 4289TIP3    H134502   1.062   2.030   0.097  0.4976 -0.9292  0.9110
 4289TIP3    H234503   1.166   1.987  -0.004  0.1963  0.1276  0.1405
 4290TIP3   OH234504   0.085   5.114   1.730  0.4959  0.5504  0.0382
 4290TIP3    H134505   0.088   5.105   1.635 -0.0703  0.4107  0.0367
 4290TIP3    H234506   0.010   5.172   1.746  1.3285  1.5931  0.3241
 4291TIP3   OH234507   0.899   4.110   3.374  0.0184 -0.4854 -0.2797
 4291TIP3    H134508   0.860   4.195   3.354 -3.1304 -1.7595 -0.1597
 4291TIP3    H234509   0.929   4.077   3.289  2.7909  1.2734 -0.1320
 4292TIP3   OH234510   1.457   6.515   0.914 -0.2365 -0.1026 -0.0521
 4292TIP3    H134511   1.507   6.435   0.904 -0.2654 -0.0458 -0.6585
 4292TIP3    H234512   1.472   6.564   0.833 -1.9259 -0.4560 -0.6110
 4293TIP3   OH234513   1.224   4.054   0.355  0.8219 -0.3424 -0.3909
 4293TIP3    H134514   1.263   4.101   0.429  1.6664 -0.3984 -0.7892
 4293TIP3    H234515   1.130   4.057   0.372  1.0018 -0.3259  0.6649
 4294TIP3   OH234516   6.334   3.714   0.130  0.1753  0.7792 -0.2224
 4294TIP3    H134517   6.248   3.726   0.091 -0.7529 -0.1414  1.4427
 4294TIP3    H234518   6.342   3.619   0.143  0.9011  0.9550  0.7776
 4295TIP3   OH234519   6.296   6.357   0.548 -0.2677 -0.6897  0.3187
 4295TIP3    H134520   6.323   6.437   0.594  2.3181 -1.0532 -0.4135
 4295TIP3    H234521   6.207   6.376   0.518 -0.3885  1.2104  1.6938
 4296TIP3   OH234522   3.264   3.989   1.092  0.5943  0.6792 -0.2100
 4296TIP3    H134523   3.172   4.009   1.104  0.2581 -1.2702  0.9308
 4296TIP3    H234524   3.270   3.894   1.106  3.1476  1.0983  2.4524
 4297TIP3   OH234525   1.203   6.458   2.800  0.0172  0.1603 -0.7365
 4297TIP3    H134526   1.253   6.497   2.872 -2.2208  0.5522  0.6942
 4297TIP3    H234527   1.189   6.530   2.739 -0.4932  0.5628 -0.1574
 4298TIP3   OH234528   4.151   2.463   8.708  0.1639 -0.1605 -0.4060
 4298TIP3    H134529   4.240   2.480   8.676  0.1977 -0.9196 -0.7196
 4298TIP3    H234530   4.146   2.368   8.717 -1.0026 -0.2233 -1.5109
 4299TIP3   OH234531   0.137   5.503   3.037 -0.3745  0.5362  0.9612
 4299TIP3    H134532   0.054   5.480   3.079 -0.3926  0.2369  0.7681
 4299TIP3    H234533   0.181   5.419   3.024 -0.3012  0.6415  0.5267
 4300TIP3   OH234534   2.143   3.276   8.049  0.3931  0.3551  0.3322
 4300TIP3    H134535   2.083   3.351   8.049  0.9918  0.8577  1.6617
 4300TIP3    H234536   2.087   3.202   8.071  0.4288  1.0371  3.0912
 4301TIP3   OH234537   0.282   4.810   1.622 -0.9437 -0.0117  0.5195
 4301TIP3    H134538   0.362   4.861   1.628 -0.0303 -1.1574 -1.2403
 4301TIP3    H234539   0.219   4.869   1.580 -0.7134  0.5338  0.9301
 4302TIP3   OH234540   3.881   1.661   0.291  0.1854 -0.3413  0.6330
 4302TIP3    H134541   3.833   1.579   0.304  0.6265 -0.6106  0.5582
 4302TIP3    H234542   3.972   1.635   0.282  0.4776  0.2460  1.7098
 4303TIP3   OH234543   1.802   0.286   1.167  0.1694 -0.0417 -0.3185
 4303TIP3    H134544   1.750   0.319   1.241  0.6115  0.3166 -0.1700
 4303TIP3    H234545   1.881   0.250   1.208 -0.0677 -0.8279 -0.5224
 4304TIP3   OH234546   0.875   4.422   1.407  0.0503  0.0787 -0.3150
 4304TIP3    H134547   0.920   4.344   1.377  0.9802  0.3368  0.3693
 4304TIP3    H234548   0.783   4.408   1.382  0.5215 -0.3689 -1.8946
 4305TIP3   OH234549   2.853   0.668   8.182  0.1228 -0.0821 -0.0509
 4305TIP3    H134550   2.787   0.734   8.203  0.1282  0.0210 -0.3611
 4305TIP3    H234551   2.936   0.710   8.202  0.1181 -0.0645 -0.0687
 4306TIP3   OH234552   3.789   2.099   7.934  0.3345 -0.9075 -0.2202
 4306TIP3    H134553   3.816   2.147   8.012 -1.2887  0.8269 -0.6481
 4306TIP3    H234554   3.745   2.021   7.968 -1.1346  0.2619  0.6956
 4307TIP3   OH234555   0.496   0.405   7.857  0.1402 -0.6245  0.0089
 4307TIP3    H134556   0.448   0.449   7.786  0.7286 -0.2076 -0.1438
 4307TIP3    H234557   0.447   0.426   7.936  0.1063 -0.1367 -0.1354
 4308TIP3   OH234558   3.290   2.724   7.946 -0.3387 -0.2403  0.0962
 4308TIP3    H134559   3.350   2.767   8.007  0.4134 -2.2381  0.8498
 4308TIP3    H234560   3.271   2.790   7.880  2.3227  0.6396  0.0952
 4309TIP3   OH234561   6.312   2.157   8.570 -0.5296 -0.2573  0.0711
 4309TIP3    H134562   6.349   2.193   8.651 -0.2365 -0.2623 -0.0601
 4309TIP3    H234563   6.368   2.083   8.548  1.1107  1.3700 -1.6195
 4310TIP3   OH234564   0.489   0.067   1.386  0.0980 -0.5405 -0.6469
 4310TIP3    H134565   0.579   0.071   1.420  0.0934 -0.8064 -0.6013
 4310TIP3    H234566   0.443   0.009   1.447 -0.7677  1.5972  0.8547
 4311TIP3   OH234567   6.509   2.945   0.421  0.1906  0.2520  0.3655
 4311TIP3    H134568   6.457   3.024   0.433  0.2400  0.0029  2.7078
 4311TIP3    H234569   6.495   2.920   0.329 -1.3868  1.8637  0.1212
 4312TIP3   OH234570   1.823   0.187   7.787  0.6152 -0.5301  0.3894
 4312TIP3    H134571   1.886   0.246   7.828  1.2944 -0.5983 -0.5386
 4312TIP3    H234572   1.743   0.240   7.779  0.5601 -0.4247  1.5047
 4313TIP3   OH234573   5.168   2.560   7.266  0.4067 -0.0455 -0.0430
 4313TIP3    H134574   5.114   2.494   7.310 -0.1491 -0.4998 -1.3641
 4313TIP3    H234575   5.256   2.524   7.269  0.3033 -0.2842  0.2981
 4314TIP3   OH234576   4.167   1.913   7.579 -0.3682  0.1763 -0.2374
 4314TIP3    H134577   4.095   1.871   7.533 -0.8951  1.8378 -1.0255
 4314TIP3    H234578   4.240   1.908   7.517 -0.4904  0.5806 -0.4187
 4315TIP3   OH234579   1.472   5.638   0.759 -0.3691 -0.2364  0.1284
 4315TIP3    H134580   1.471   5.577   0.685  0.3735 -0.0722 -0.0207
 4315TIP3    H234581   1.554   5.619   0.805 -0.1076  0.6757  0.0577
 4316TIP3   OH234582   4.062   4.545   8.414  0.6865 -0.0921  0.1702
 4316TIP3    H134583   4.013   4.626   8.400  0.1967 -0.1824  1.2624
 4316TIP3    H234584   4.033   4.514   8.500  1.6644 -0.8648  0.2402
 4317TIP3   OH234585   3.857   4.446   3.116  0.0086 -0.3363 -0.0901
 4317TIP3    H134586   3.938   4.491   3.142  0.0269 -0.3075 -0.1959
 4317TIP3    H234587   3.855   4.367   3.170 -0.2269 -0.0112  0.3843
 4318TIP3   OH234588   1.074   3.324   0.238  0.0724 -0.5964  0.5071
 4318TIP3    H134589   1.103   3.354   0.324  1.4092 -2.1074  0.6523
 4318TIP3    H234590   1.146   3.347   0.179 -1.5932  2.0458 -0.6261
 4319TIP3   OH234591   1.520   6.631   0.694 -0.6877  1.0617 -0.1426
 4319TIP3    H134592   1.597   6.629   0.639 -0.6748  1.3534 -0.1363
 4319TIP3    H234593   1.492   6.723   0.694  0.2125  1.3872  1.5716
 4320TIP3   OH234594   1.727   0.092   8.440  0.4320  0.1614  0.5382
 4320TIP3    H134595   1.681   0.024   8.390  1.7068 -2.0658  2.2431
 4320TIP3    H234596   1.662   0.123   8.503  0.1704 -0.2812  0.4876
 4321TIP3   OH234597   0.380   4.199   2.352 -0.3646 -0.2793 -0.7868
 4321TIP3    H134598   0.308   4.245   2.394  0.4813 -0.0547  0.4625
 4321TIP3    H234599   0.338   4.141   2.289 -1.5028  1.7267 -1.9776
 4322TIP3   OH234600   5.687   4.270   8.352  0.5471 -0.2387 -0.1187
 4322TIP3    H134601   5.634   4.262   8.272 -0.8754 -0.9567  0.8611
 4322TIP3    H234602   5.656   4.351   8.393  0.3205 -0.5692  0.3726
 4323TIP3   OH234603   6.356   2.399   1.634  0.1662  0.0807  0.1786
 4323TIP3    H134604   6.272   2.408   1.680  0.1028 -1.5851  0.4558
 4323TIP3    H234605   6.403   2.479   1.654 -0.5492  0.1517  1.7357
 4324TIP3   OH234606   4.088   5.333   0.828  0.0630 -0.4023 -0.4125
 4324TIP3    H134607   4.085   5.373   0.741  0.6394 -0.4315 -0.4517
 4324TIP3    H234608   3.999   5.342   0.862 -0.4582 -1.3992 -1.4446
 4325TIP3   OH234609   0.495   2.833   1.422 -0.5878 -0.2983 -0.4353
 4325TIP3    H134610   0.485   2.915   1.470 -0.5767 -1.4055  1.5576
 4325TIP3    H234611   0.545   2.857   1.344 -1.0584  1.6727 -0.1825
 4326TIP3   OH234612   5.141   1.545   8.052 -0.3422 -0.3018 -0.4543
 4326TIP3    H134613   5.055   1.568   8.016 -1.3218 -1.3529  1.1018
 4326TIP3    H234614   5.200   1.552   7.977 -1.7554  0.4967 -1.5614
 4327TIP3   OH234615   1.333   2.299   0.733  0.1719 -0.3037 -0.0656
 4327TIP3    H134616   1.338   2.213   0.775  1.4688 -0.0142  0.4311
 4327TIP3    H234617   1.321   2.360   0.806 -0.5529 -0.0429 -0.3993
 4328TIP3   OH234618   2.290   1.561   8.255  0.0190 -0.1403 -0.1357
 4328TIP3    H134619   2.227   1.601   8.314 -0.1303  0.9406 -1.0014
 4328TIP3    H234620   2.372   1.559   8.304  0.4827  2.8310 -0.5878
 4329TIP3   OH234621   5.712   3.983   0.773 -0.2392  0.7616  0.1747
 4329TIP3    H134622   5.780   3.992   0.840 -0.3474  0.7836  0.2819
 4329TIP3    H234623   5.736   3.904   0.725  0.0841  0.9884 -0.0433
 4330TIP3   OH234624   0.918   4.354   2.371  0.0908 -0.4060 -0.2139
 4330TIP3    H134625   0.975   4.389   2.440 -1.0371 -3.0215  2.2804
 4330TIP3    H234626   0.856   4.425   2.353  3.8682  2.5407 -3.0528
 4331TIP3   OH234627   4.179   0.672   8.227 -0.2536 -0.3814 -0.5001
 4331TIP3    H134628   4.212   0.679   8.138  0.4338  0.5980 -0.1815
 4331TIP3    H234629   4.113   0.742   8.234 -0.2729 -0.4237 -0.2220
 4332TIP3   OH234630   1.168   0.261   1.855 -0.2465  0.3630 -0.7659
 4332TIP3    H134631   1.103   0.193   1.836  1.3657 -1.1073 -1.3549
 4332TIP3    H234632   1.178   0.308   1.772 -0.9189  0.9404 -0.5278
 4333TIP3   OH234633   2.718   1.815   2.033  0.2690  0.0853  0.1186
 4333TIP3    H134634   2.749   1.877   1.968  0.7608 -0.4948 -0.2044
 4333TIP3    H234635   2.783   1.745   2.033 -0.9614 -1.1045 -0.4915
 4334TIP3   OH234636   6.284   6.526   1.346  0.2372  0.4914  0.4118
 4334TIP3    H134637   6.231   6.525   1.426  0.3867  0.9148  0.5184
 4334TIP3    H234638   6.266   6.611   1.307  0.9605  0.7063  0.5311
 4335TIP3   OH234639   5.143   2.633   1.843 -0.4491 -0.3490  0.4293
 4335TIP3    H134640   5.188   2.569   1.788 -1.9727 -0.9476 -0.1867
 4335TIP3    H234641   5.121   2.586   1.923  2.2772  0.6768  1.9328
 4336TIP3   OH234642   1.582   4.062   1.398  0.3740  0.2585 -0.4530
 4336TIP3    H134643   1.649   3.996   1.416 -0.1688  0.1169  1.2437
 4336TIP3    H234644   1.628   4.145   1.403  0.6807  0.1021 -0.6374
 4337TIP3   OH234645   5.491   0.235   3.113  0.2910  0.2631 -0.1661
 4337TIP3    H134646   5.475   0.236   3.207 -0.2712  1.3617 -0.2619
 4337TIP3    H234647   5.407   0.259   3.074  0.3340 -0.8339 -0.9908
 4338TIP3   OH234648   6.400   2.891   8.606  0.6742  0.3259 -0.0648
 4338TIP3    H134649   6.314   2.850   8.606  0.2038  1.3079 -0.4036
 4338TIP3    H234650   6.461   2.817   8.595 -0.0842 -0.4120  0.5349
 4339TIP3   OH234651   1.534   0.574   8.419  0.2400 -0.0787 -0.3506
 4339TIP3    H134652   1.450   0.528   8.427 -0.2461  0.4791 -1.7945
 4339TIP3    H234653   1.600   0.507   8.438 -0.5202 -0.7159  0.0923
 4340TIP3   OH234654   2.259   6.304   0.731 -0.1668  0.3087  0.5424
 4340TIP3    H134655   2.224   6.365   0.666  0.7190  0.2881  0.0230
 4340TIP3    H234656   2.187   6.244   0.750 -0.2287 -0.1507 -1.0079
 4341TIP3   OH234657   5.887   2.650   2.251 -0.8505 -0.2370 -0.4680
 4341TIP3    H134658   5.957   2.711   2.227 -1.0994  0.0334 -0.5033
 4341TIP3    H234659   5.924   2.564   2.233  1.0564 -0.4210  3.3213
 4342TIP3   OH234660   2.651   1.158   0.626  0.2653  0.2153  0.0993
 4342TIP3    H134661   2.648   1.073   0.670  1.2639 -0.1103 -0.4296
 4342TIP3    H234662   2.581   1.209   0.667 -0.0675 -0.7174  0.7166
 4343TIP3   OH234663   2.824   1.169   0.396  0.1068 -0.4946 -0.4457
 4343TIP3    H134664   2.890   1.127   0.451 -0.7597 -1.0392  0.1937
 4343TIP3    H234665   2.745   1.171   0.449  0.0533  1.8453 -0.4784
 4344TIP3   OH234666   6.480   5.535   2.094  0.2549 -0.1617  0.4120
 4344TIP3    H134667   6.546   5.558   2.028  1.3330  0.5748  1.7179
 4344TIP3    H234668   6.439   5.618   2.117 -0.8126 -0.5469 -0.0059
 4345TIP3   OH234669   5.256   4.818   1.928  0.2241 -0.5066  0.4531
 4345TIP3    H134670   5.340   4.797   1.886 -1.2176 -1.2932 -2.3554
 4345TIP3    H234671   5.274   4.816   2.022  2.9979 -2.1811 -0.0004
 4346TIP3   OH234672   6.681   1.094   8.482 -0.7996  0.2196  0.8322
 4346TIP3    H134673   6.658   1.002   8.466 -0.1626  0.0811  0.7012
 4346TIP3    H234674   6.689   1.132   8.395 -0.5518  0.2712  0.8782
 4347TIP3   OH234675   4.567   5.784   1.535  0.3645  0.1079  0.4467
 4347TIP3    H134676   4.537   5.855   1.591  1.8558  1.7045 -0.6606
 4347TIP3    H234677   4.492   5.765   1.478 -0.1973  0.4917  1.0481
 4348TIP3   OH234678   1.670   0.102   2.309  0.1654  0.3575 -0.0364
 4348TIP3    H134679   1.748   0.141   2.270  0.1008  0.5809  0.0576
 4348TIP3    H234680   1.703   0.055   2.385  0.5600 -1.6374 -1.3638
 4349TIP3   OH234681   1.868   5.426   2.076  0.1613  0.3498  0.3117
 4349TIP3    H134682   1.923   5.349   2.093  2.3623  1.5114 -1.0461
 4349TIP3    H234683   1.916   5.474   2.008 -1.6483  2.4318  0.4229
 4350TIP3   OH234684   0.426   2.816   2.319 -0.4745  0.2286 -0.7610
 4350TIP3    H134685   0.521   2.806   2.314 -0.4611 -0.1321  0.0973
 4350TIP3    H234686   0.405   2.877   2.249  0.6288  1.8437  0.2461
 4351TIP3   OH234687   0.286   4.380   1.093  0.6375  0.2084 -0.8916
 4351TIP3    H134688   0.335   4.336   1.162  1.9416 -0.1705 -2.0071
 4351TIP3    H234689   0.306   4.330   1.014  0.3366  1.4639 -1.7923
 4352TIP3   OH234690   6.539   0.894   3.356 -0.0469 -0.6843 -0.2464
 4352TIP3    H134691   6.502   0.981   3.371 -0.3656 -0.4342 -2.2255
 4352TIP3    H234692   6.631   0.903   3.379  0.4110  0.8117 -2.3190
 4353TIP3   OH234693   6.360   5.216   8.133 -0.0065 -0.0975  0.0283
 4353TIP3    H134694   6.333   5.281   8.068 -1.4443  0.4998  1.1535
 4353TIP3    H234695   6.277   5.185   8.171  0.6195 -2.7852 -0.6182
 4354TIP3   OH234696   0.330   4.246   1.314  0.7465 -0.1385  0.3315
 4354TIP3    H134697   0.316   4.158   1.349 -0.2274 -0.4755 -0.8064
 4354TIP3    H234698   0.383   4.290   1.379  1.3815 -1.6223  0.8579
 4355TIP3   OH234699   5.188   1.561   7.561  0.6442  0.1848  0.3198
 4355TIP3    H134700   5.125   1.611   7.509  2.1793  0.4671 -1.3886
 4355TIP3    H234701   5.134   1.508   7.620 -1.0868  2.7479  1.2080
 4356TIP3   OH234702   3.455   0.172   7.981  0.4559 -0.6032 -0.7571
 4356TIP3    H134703   3.413   0.255   7.955  0.9316 -0.8692 -2.4447
 4356TIP3    H234704   3.410   0.148   8.062  0.3103  1.3078 -0.2110
 4357TIP3   OH234705   5.714   0.841   7.135  0.6003 -0.1332  0.1659
 4357TIP3    H134706   5.777   0.788   7.086  0.4432 -0.1529 -0.0154
 4357TIP3    H234707   5.752   0.849   7.223  2.0884  1.8877 -0.5791
 4358TIP3   OH234708   1.743   4.237   7.934  0.0463 -0.1496 -0.6703
 4358TIP3    H134709   1.783   4.176   7.996 -1.1182  0.7285  1.0559
 4358TIP3    H234710   1.810   4.304   7.920  0.5512 -0.6882 -0.8771
 4359TIP3   OH234711   3.514   6.017   0.459  0.3280  0.0464  0.4145
 4359TIP3    H134712   3.600   5.993   0.493 -0.6170 -1.8085  1.6520
 4359TIP3    H234713   3.517   5.994   0.366  1.3621  0.6771  0.2671
 4360TIP3   OH234714   2.435   5.054   7.609  0.1249  0.0962  0.2639
 4360TIP3    H134715   2.452   4.966   7.641 -1.1381 -0.0602  0.5712
 4360TIP3    H234716   2.363   5.043   7.546  1.1536  0.6794 -1.0725
 4361TIP3   OH234717   3.410   5.395   7.831 -0.2860 -0.5592  0.1062
 4361TIP3    H134718   3.384   5.419   7.920  0.2247 -0.9292  0.3627
 4361TIP3    H234719   3.448   5.307   7.841  1.1896  0.0208 -0.2242
 4362TIP3   OH234720   2.610   0.688   1.380 -0.2536  0.5351 -0.0946
 4362TIP3    H134721   2.519   0.717   1.393 -0.7542  0.1095 -2.2073
 4362TIP3    H234722   2.644   0.675   1.468 -2.4548  0.0807  0.7527
 4363TIP3   OH234723   2.415   4.035   1.025  0.0019  0.5477  0.4864
 4363TIP3    H134724   2.374   4.055   0.941 -1.2789 -1.0233  0.6935
 4363TIP3    H234725   2.502   4.000   1.002  0.5184  2.0899 -0.0418
 4364TIP3   OH234726   3.053   3.862   2.232 -0.5055  0.7219 -0.7078
 4364TIP3    H134727   3.036   3.907   2.149  2.4431 -0.3757 -2.0342
 4364TIP3    H234728   3.012   3.776   2.222 -0.2420  0.6286 -1.0016
 4365TIP3   OH234729   4.122   4.120   1.283 -0.5193 -0.1106  0.1632
 4365TIP3    H134730   4.054   4.111   1.216  0.5617  0.8308 -1.1376
 4365TIP3    H234731   4.203   4.130   1.233  0.1476  2.2421  1.5647
 4366TIP3   OH234732   6.654   2.732   1.226 -0.3895 -0.3458 -0.2706
 4366TIP3    H134733   6.661   2.639   1.201 -0.1608 -0.2002 -0.7595
 4366TIP3    H234734   6.689   2.735   1.315 -0.9535 -0.8285 -0.0291
 4367TIP3   OH234735   6.099   0.159   1.776 -0.2607 -0.3580 -0.1401
 4367TIP3    H134736   6.144   0.239   1.750 -1.7688  0.6316  0.2249
 4367TIP3    H234737   6.011   0.186   1.799 -0.6172 -2.0236  0.6566
 4368TIP3   OH234738   1.854   6.098   2.377  0.0459  0.0062  0.0534
 4368TIP3    H134739   1.929   6.054   2.417 -0.1513 -0.3630  0.0239
 4368TIP3    H234740   1.820   6.034   2.314  0.6321  0.7410 -1.0596
 4369TIP3   OH234741   2.692   2.170   1.616  0.1196 -0.0179  0.3883
 4369TIP3    H134742   2.607   2.161   1.573  0.7959 -1.4201 -0.7544
 4369TIP3    H234743   2.685   2.117   1.695  0.3313 -1.2406 -0.3877
 4370TIP3   OH234744   1.478   6.484   8.598  0.6391  0.0918  0.0836
 4370TIP3    H134745   1.442   6.395   8.594 -2.2268  1.1356  0.2945
 4370TIP3    H234746   1.564   6.477   8.557 -0.3933 -2.3418 -1.9444
 4371TIP3   OH234747   5.931   3.905   1.959 -0.0847  0.2073  0.3827
 4371TIP3    H134748   6.009   3.879   2.008  1.4436 -2.5016 -3.0747
 4371TIP3    H234749   5.894   3.822   1.928 -1.7226  1.6712 -1.8448
 4372TIP3   OH234750   4.018   0.437   7.960 -0.2308  0.6119  0.7526
 4372TIP3    H134751   4.022   0.367   7.895  1.2918  1.1147  0.2674
 4372TIP3    H234752   3.961   0.403   8.029  1.1621 -1.4806  0.9525
 4373TIP3   OH234753   4.505   0.415   7.367  0.7841  0.2056  0.3240
 4373TIP3    H134754   4.422   0.368   7.360  0.5394  0.1210  2.9713
 4373TIP3    H234755   4.507   0.472   7.290 -0.7821 -1.1926 -0.8166
 4374TIP3   OH234756   2.626   5.563   1.219 -0.0163 -0.6726 -0.0744
 4374TIP3    H134757   2.560   5.565   1.289 -1.0720 -1.7022 -1.0126
 4374TIP3    H234758   2.614   5.645   1.172  2.5145  1.3706  2.4895
 4375TIP3   OH234759   3.445   1.134   8.110  0.2232  0.3950 -0.0616
 4375TIP3    H134760   3.382   1.123   8.181  0.1658  0.6844 -0.0692
 4375TIP3    H234761   3.524   1.167   8.153  0.5693 -0.5235  0.0374
 4376TIP3   OH234762   5.750   0.363   2.111 -0.0424  0.3553 -0.3552
 4376TIP3    H134763   5.762   0.435   2.049 -1.8324  0.2714 -0.8475
 4376TIP3    H234764   5.726   0.406   2.193  1.7317  0.4309  0.1753
 4377TIP3   OH234765   5.242   1.758   2.161 -0.0137 -0.0803  0.1955
 4377TIP3    H134766   5.254   1.786   2.070  1.8657  1.0023  0.7242
 4377TIP3    H234767   5.148   1.752   2.173 -0.3810  2.1698 -1.1246
 4378TIP3   OH234768   3.547   2.210   8.206 -0.2222 -0.0771  0.3442
 4378TIP3    H134769   3.494   2.234   8.283 -1.8562  0.9411 -1.0302
 4378TIP3    H234770   3.483   2.201   8.135  1.3574  0.0909 -1.1542
 4379TIP3   OH234771   3.810   5.573   1.465 -0.0742 -0.3819 -0.3062
 4379TIP3    H134772   3.719   5.600   1.474 -0.0365 -0.4364  0.2787
 4379TIP3    H234773   3.808   5.501   1.402 -0.8620 -2.4629  1.9415
 4380TIP3   OH234774   5.833   2.734   0.884 -0.4587  0.4464 -1.0409
 4380TIP3    H134775   5.871   2.759   0.800  0.8094 -0.1943 -0.6955
 4380TIP3    H234776   5.901   2.682   0.926 -0.3537  2.2147  1.1576
 4381TIP3   OH234777   5.328   4.258   0.816  0.3863 -0.0328  0.4887
 4381TIP3    H134778   5.290   4.221   0.896 -0.6300 -0.0964 -0.0128
 4381TIP3    H234779   5.368   4.184   0.772 -1.2240 -0.4917 -0.2742
 4382TIP3   OH234780   6.303   5.717   2.703 -0.4397 -0.7233 -0.6659
 4382TIP3    H134781   6.224   5.727   2.757  0.7114 -0.5838  1.0385
 4382TIP3    H234782   6.362   5.663   2.755  0.3539 -1.4265 -2.2265
 4383TIP3   OH234783   3.553   3.249   2.096  0.1618  0.0623  0.8427
 4383TIP3    H134784   3.529   3.322   2.152  1.4659 -0.8279  2.6590
 4383TIP3    H234785   3.549   3.284   2.007  0.6983  2.3186  1.6564
 4384TIP3   OH234786   1.074   4.702   1.054 -0.0638 -0.1963 -0.3954
 4384TIP3    H134787   1.063   4.608   1.041 -1.2460 -0.1471  0.1682
 4384TIP3    H234788   1.163   4.720   1.023  0.8019 -1.7790  1.0287
 4385TIP3   OH234789   2.881   2.534   8.682  0.4226 -0.8117  0.2376
 4385TIP3    H134790   2.943   2.482   8.734  1.1733 -2.2215 -1.8761
 4385TIP3    H234791   2.929   2.553   8.601 -2.2441 -3.3419 -2.2301
 4386TIP3   OH234792   3.224   5.831   0.620 -0.0046  0.5336 -0.5112
 4386TIP3    H134793   3.244   5.924   0.609  1.6093  0.2154 -0.4703
 4386TIP3    H234794   3.211   5.798   0.531  0.0931  0.6620 -0.5729
 4387TIP3   OH234795   0.956   5.519   0.398  0.1960 -0.2370  0.3076
 4387TIP3    H134796   0.974   5.603   0.438  2.1096  0.6864 -2.1996
 4387TIP3    H234797   1.041   5.475   0.396 -0.8530 -2.5629  2.0767
 4388TIP3   OH234798   4.663   4.183   1.045  0.9032  0.1309  0.0124
 4388TIP3    H134799   4.635   4.233   1.122 -3.1914 -0.9722 -0.5472
 4388TIP3    H234800   4.724   4.118   1.081  1.5525  1.6110  1.7479
 4389TIP3   OH234801   0.187   4.472   1.823 -0.2121 -0.1996  0.4648
 4389TIP3    H134802   0.247   4.413   1.869 -1.6985 -0.7831  1.7168
 4389TIP3    H234803   0.226   4.559   1.834  0.5660 -0.5942  0.9729
 4390TIP3   OH234804   4.085   1.137   7.822 -0.4799 -0.0180  0.5024
 4390TIP3    H134805   3.997   1.113   7.791 -0.1299  0.3072 -0.7681
 4390TIP3    H234806   4.140   1.132   7.744  0.4170  0.8656  1.0662
 4391TIP3   OH234807   6.788   0.068   1.002 -1.0114  0.1338  0.1921
 4391TIP3    H134808   6.784   0.154   1.045  1.3229  0.7039 -0.5780
 4391TIP3    H234809   6.817   0.087   0.913 -1.3037 -1.3996 -0.2608
 4392TIP3   OH234810   3.016   6.024   1.264 -0.2880 -0.3639  0.4482
 4392TIP3    H134811   2.934   5.982   1.238 -0.0271 -1.5595  1.4311
 4392TIP3    H234812   3.012   6.027   1.359  0.8310 -0.4849  0.5092
 4393TIP3   OH234813   3.102   1.960   1.146 -0.8313  0.0335  0.2542
 4393TIP3    H134814   3.086   1.927   1.235 -0.0235 -0.3782  0.2527
 4393TIP3    H234815   3.146   1.888   1.101 -0.4732  0.5460 -0.2327
 4394TIP3   OH234816   2.680   1.797   0.502 -0.0355 -0.1777 -0.1362
 4394TIP3    H134817   2.733   1.791   0.582 -1.8714 -1.0392  1.0782
 4394TIP3    H234818   2.736   1.844   0.441  1.4993  0.4059  1.5971
 4395TIP3   OH234819   1.146   2.439   8.172  0.2557  0.0955 -0.3291
 4395TIP3    H134820   1.079   2.507   8.168 -1.5031 -1.3517  1.8433
 4395TIP3    H234821   1.156   2.410   8.081 -0.8148  1.4989 -0.9374
 4396TIP3   OH234822   3.218   6.237   1.864 -0.4303  0.4520 -0.4952
 4396TIP3    H134823   3.216   6.319   1.814  0.9260 -0.2127 -1.7334
 4396TIP3    H234824   3.194   6.262   1.953 -0.8366  2.0467 -1.0183
 4397TIP3   OH234825   0.203   4.315   2.520 -0.0269  0.4671 -0.5758
 4397TIP3    H134826   0.192   4.254   2.593 -1.8138  0.1996 -1.0094
 4397TIP3    H234827   0.215   4.400   2.562 -2.8779  0.6280  0.1537
 4398TIP3   OH234828   3.384   3.102   3.071  0.1616  0.5449  0.2664
 4398TIP3    H134829   3.431   3.165   3.017 -0.1653  0.3370 -0.2728
 4398TIP3    H234830   3.452   3.046   3.108  0.4657  1.2882  0.8532
 4399TIP3   OH234831   6.089   0.913   2.296 -0.0717 -0.1400 -0.9023
 4399TIP3    H134832   6.044   0.834   2.325 -0.4881  1.4780  3.5692
 4399TIP3    H234833   6.176   0.883   2.270 -0.0561 -2.0602  1.1170
 4400TIP3   OH234834   5.132   1.559   1.922 -0.2870 -0.2052  0.0946
 4400TIP3    H134835   5.043   1.546   1.887 -0.2665 -0.4324  0.1255
 4400TIP3    H234836   5.152   1.477   1.967  0.0635 -0.2784 -0.1901
 4401TIP3   OH234837   5.014   5.961   0.006 -0.1793 -0.1494  0.5177
 4401TIP3    H134838   5.003   5.866  -0.005  3.9338 -0.9904  1.9335
 4401TIP3    H234839   5.027   5.973   0.100  1.5026  1.5037  0.1212
 4402TIP3   OH234840   2.509   6.648   0.135 -0.0078 -0.4425 -0.1466
 4402TIP3    H134841   2.522   6.656   0.229 -1.3440 -2.8745  0.3448
 4402TIP3    H234842   2.464   6.564   0.124 -2.0140  0.8155 -2.7420
 4403TIP3   OH234843   4.505   6.828   7.832 -0.1804  0.3080 -0.3887
 4403TIP3    H134844   4.523   6.841   7.925  2.2261  0.2420 -0.7784
 4403TIP3    H234845   4.413   6.799   7.829 -1.2172  2.9528  1.6843
 4404TIP3   OH234846   3.088   5.404   0.967  0.4037  0.2739 -0.0787
 4404TIP3    H134847   3.166   5.418   1.020  1.1561 -2.0513 -0.4681
 4404TIP3    H234848   3.016   5.432   1.024  1.0364 -3.2933  2.8664
 4405TIP3   OH234849   0.040   2.435   2.089 -0.7965 -0.4875  0.1358
 4405TIP3    H134850  -0.021   2.482   2.145  0.2763 -0.4079  1.2934
 4405TIP3    H234851   0.083   2.373   2.147  0.9213  0.1402 -0.3818
 4406TIP3   OH234852   6.312   6.290   1.024 -0.1557  0.0966 -0.0062
 4406TIP3    H134853   6.257   6.231   0.972  0.6549  0.3151 -1.1640
 4406TIP3    H234854   6.283   6.276   1.114 -0.9048 -1.0761 -0.3934
 4407TIP3   OH234855   2.999   0.678   2.135 -0.1369  0.0220 -0.4025
 4407TIP3    H134856   3.062   0.666   2.064  0.5989 -0.4514  0.3040
 4407TIP3    H234857   2.950   0.595   2.137  1.5632 -1.0390  1.2409
 4408TIP3   OH234858   3.550   3.834   8.580 -0.0353 -0.3812 -0.7728
 4408TIP3    H134859   3.460   3.866   8.577 -0.0441 -0.0318  1.2538
 4408TIP3    H234860   3.603   3.913   8.571  0.1854 -0.7906 -3.9903
 4409TIP3   OH234861   5.169   1.003   8.620 -0.0355 -0.0762  0.3495
 4409TIP3    H134862   5.191   1.089   8.582 -2.9716  0.4655 -0.3223
 4409TIP3    H234863   5.218   1.001   8.702  1.1468  1.6586 -0.2449
 4410TIP3   OH234864   5.035   6.488   2.288 -0.3109 -0.3433 -0.2397
 4410TIP3    H134865   4.948   6.456   2.265  0.1078  0.4233 -3.3176
 4410TIP3    H234866   5.026   6.583   2.289  0.5361 -0.2375 -1.0255
 4411TIP3   OH234867   5.650   4.922   0.702 -0.1105  0.1417  0.0437
 4411TIP3    H134868   5.608   4.947   0.620 -1.3115 -0.0681  0.5741
 4411TIP3    H234869   5.711   4.993   0.720 -1.7224  1.5257  0.2926
 4412TIP3   OH234870   5.852   0.283   1.861 -0.2072  0.1764  0.1431
 4412TIP3    H134871   5.788   0.324   1.804 -1.0194 -0.6787  0.4277
 4412TIP3    H234872   5.811   0.283   1.948  0.4840  0.3052  0.4784
 4413TIP3   OH234873   1.484   2.185   1.809  0.2383  0.1529  0.1027
 4413TIP3    H134874   1.419   2.161   1.743  1.8116 -1.7350 -0.8694
 4413TIP3    H234875   1.472   2.279   1.821 -1.9793  0.0448 -0.7498
 4414TIP3   OH234876   1.150   2.720   3.003 -0.0184  0.2533 -0.1508
 4414TIP3    H134877   1.115   2.643   3.048 -0.2116  1.0254  1.0626
 4414TIP3    H234878   1.243   2.700   2.990 -0.1262 -0.2945 -0.0958
 4415TIP3   OH234879   0.028   0.487   2.771  0.0864  0.1004  0.2097
 4415TIP3    H134880   0.118   0.516   2.784  0.1493 -0.1598  0.3472
 4415TIP3    H234881   0.005   0.443   2.853  0.8418 -2.5413 -0.8832
 4416TIP3   OH234882   6.838   3.831   1.601  0.1384  0.3241  0.1308
 4416TIP3    H134883   6.763   3.815   1.544  0.3036 -2.2359  0.4964
 4416TIP3    H234884   6.903   3.767   1.572  1.1674  0.6786  1.5656
 4417TIP3   OH234885   0.499   3.922   1.784  0.0047 -0.5297 -0.2141
 4417TIP3    H134886   0.493   4.016   1.803  0.6215 -0.1094 -1.9505
 4417TIP3    H234887   0.467   3.880   1.864 -1.2708  1.1549  0.2195
 4418TIP3   OH234888   1.398   0.409   0.911  0.4096 -0.3549 -0.3761
 4418TIP3    H134889   1.421   0.496   0.945  0.6057 -0.3360 -0.5609
 4418TIP3    H234890   1.407   0.351   0.987 -0.3294 -0.1155 -0.0910
 4419TIP3   OH234891   1.714   3.123   8.295 -0.3633  0.1592 -0.1891
 4419TIP3    H134892   1.738   3.035   8.324  0.3365 -0.2645 -1.9460
 4419TIP3    H234893   1.625   3.135   8.328 -0.1470 -0.8343  0.8409
 4420TIP3   OH234894   1.317   3.840   1.016  0.0453 -0.6644  0.4051
 4420TIP3    H134895   1.409   3.859   1.033  0.1992 -2.5728  1.9982
 4420TIP3    H234896   1.297   3.763   1.069 -2.4155 -0.4741 -0.0877
 4421TIP3   OH234897   1.054   3.005   0.683  0.2357  1.1728  0.4268
 4421TIP3    H134898   1.090   2.993   0.596 -0.2326  0.2685  0.3537
 4421TIP3    H234899   1.128   2.992   0.742  0.0657 -0.7261  0.2838
 4422TIP3   OH234900   6.225   0.590   8.449 -0.0311 -0.5956 -0.2885
 4422TIP3    H134901   6.303   0.640   8.475 -0.5232  1.8677 -3.1048
 4422TIP3    H234902   6.175   0.580   8.530  1.0777  1.7895  0.7743
 4423TIP3   OH234903   2.676   5.673   3.289 -0.3281  0.1161  0.2953
 4423TIP3    H134904   2.623   5.697   3.212 -0.8090 -2.3906 -0.2226
 4423TIP3    H234905   2.612   5.648   3.355  0.1574 -1.1677  0.2929
 4424TIP3   OH234906   3.505   2.499   1.980 -0.8555  0.6461 -0.7839
 4424TIP3    H134907   3.599   2.495   1.964 -0.3234  0.8094  1.7768
 4424TIP3    H234908   3.478   2.584   1.946  0.2911  1.3060 -0.1099
 4425TIP3   OH234909   6.792   2.390   1.657  0.0382 -0.0914  0.1592
 4425TIP3    H134910   6.746   2.316   1.696  3.0160 -2.2073  0.0651
 4425TIP3    H234911   6.815   2.445   1.732 -1.7609  0.5412  0.2919
 4426TIP3   OH234912   3.617   2.597   3.273 -0.3187 -0.3668 -0.2955
 4426TIP3    H134913   3.669   2.519   3.252 -0.1064 -0.6946  1.3098
 4426TIP3    H234914   3.646   2.623   3.360 -1.1081  0.9206 -0.3848
 4427TIP3   OH234915   1.744   6.178   8.065  0.0776  0.0868 -0.4310
 4427TIP3    H134916   1.797   6.098   8.066  1.4310  0.9031 -1.6277
 4427TIP3    H234917   1.747   6.207   7.973 -2.8444 -0.0285 -0.6358
 4428TIP3   OH234918   5.382   3.476   2.567  0.0132 -0.0839  0.3963
 4428TIP3    H134919   5.471   3.467   2.599  0.3854 -1.4413 -0.8988
 4428TIP3    H234920   5.356   3.565   2.591  1.7063  0.3355  0.7805
 4429TIP3   OH234921   2.581   0.656   2.376  0.2894  0.4220 -0.1710
 4429TIP3    H134922   2.548   0.695   2.457  2.7566  1.8597  0.2479
 4429TIP3    H234923   2.580   0.562   2.393 -0.9458  0.5782  0.8009
 4430TIP3   OH234924   0.822   5.471   1.903 -0.4798 -0.0221  0.5017
 4430TIP3    H134925   0.760   5.542   1.919  0.0112  0.8617 -1.2646
 4430TIP3    H234926   0.905   5.504   1.937 -0.3935 -0.0384  0.3060
 4431TIP3   OH234927   1.914   1.694   0.970 -0.3130  0.0307 -0.0408
 4431TIP3    H134928   1.900   1.627   1.037  1.5629 -0.1380  0.2401
 4431TIP3    H234929   1.983   1.750   1.007  1.9674 -1.0078 -2.4662
 4432TIP3   OH234930   2.043   2.960   2.085 -0.0969 -0.1845 -0.0553
 4432TIP3    H134931   2.061   2.999   1.999 -3.7749 -0.6250 -1.1780
 4432TIP3    H234932   2.012   3.033   2.138 -0.9337 -0.4357 -0.1771
 4433TIP3   OH234933   6.752   6.538   0.979 -0.4120  0.0824  0.3978
 4433TIP3    H134934   6.805   6.463   1.008  1.8588  1.1765 -0.6725
 4433TIP3    H234935   6.670   6.499   0.949  0.6869 -1.9952 -0.1114
 4434TIP3   OH234936   2.153   3.946   0.735  0.1932 -0.1102 -0.1413
 4434TIP3    H134937   2.231   3.913   0.690  0.9327  0.3485  0.7690
 4434TIP3    H234938   2.186   4.011   0.796 -0.9340  0.2188  0.1480
 4435TIP3   OH234939   2.569   1.442   2.059 -0.1196  0.0404  0.0618
 4435TIP3    H134940   2.513   1.468   1.986  0.1152  1.8942  0.4713
 4435TIP3    H234941   2.655   1.428   2.019  0.4114  2.6334  0.1057
 4436TIP3   OH234942   4.662   4.129   2.367 -0.6397  0.2698 -0.2429
 4436TIP3    H134943   4.661   4.122   2.272 -0.9890 -0.9454 -0.1637
 4436TIP3    H234944   4.572   4.111   2.394 -0.3381 -0.4062  0.3625
 4437TIP3   OH234945   0.219   3.282   8.281  0.0011  0.2413  0.1581
 4437TIP3    H134946   0.153   3.220   8.313 -0.0466  0.2454  0.0661
 4437TIP3    H234947   0.168   3.351   8.238  0.1654 -0.8649 -1.8985
 4438TIP3   OH234948   5.814   2.849   2.899 -0.4269  0.3377 -0.0160
 4438TIP3    H134949   5.894   2.900   2.892 -0.4628  0.4046  0.0502
 4438TIP3    H234950   5.841   2.767   2.940 -0.2538  0.0306 -0.7344
 4439TIP3   OH234951   2.564   2.621   2.574  0.9815  0.0139  0.5561
 4439TIP3    H134952   2.520   2.699   2.540  1.8679  1.0202  1.6129
 4439TIP3    H234953   2.625   2.655   2.640 -0.5972 -1.7598  3.1325
 4440TIP3   OH234954   0.225   2.342   1.885  0.4553  0.7612 -0.2988
 4440TIP3    H134955   0.293   2.410   1.884  0.0264  1.2443  0.7812
 4440TIP3    H234956   0.156   2.379   1.941 -0.1078 -0.2686 -0.2894
 4441TIP3   OH234957   1.038   2.407   8.776 -0.1892 -0.0834  0.1762
 4441TIP3    H134958   0.998   2.326   8.745  1.5697 -1.0364  0.2169
 4441TIP3    H234959   1.084   2.442   8.699  0.2246  0.1006  0.5011
 4442TIP3   OH234960   2.459   2.381   0.066  0.4256  0.8115  0.3947
 4442TIP3    H134961   2.378   2.347   0.028  0.0036  0.7923  1.2800
 4442TIP3    H234962   2.527   2.356   0.003 -0.2576  0.8996 -0.4040
 4443TIP3   OH234963   5.903   3.927   7.851 -0.2524 -0.2943 -0.1142
 4443TIP3    H134964   5.971   3.977   7.896 -0.2194 -0.3800 -0.0682
 4443TIP3    H234965   5.951   3.865   7.796 -0.2924  0.0174 -0.5016
 4444TIP3   OH234966   5.345   0.217   1.885 -0.7272 -0.4655 -0.4541
 4444TIP3    H134967   5.330   0.123   1.895  1.8624 -0.8526  0.5274
 4444TIP3    H234968   5.426   0.223   1.834 -0.0581  1.1720  0.7068
 4445TIP3   OH234969   6.084   5.744   2.850  0.0879  0.0913  0.4442
 4445TIP3    H134970   6.039   5.676   2.901  1.7141 -0.1226  1.6634
 4445TIP3    H234971   6.022   5.817   2.847 -0.6526 -0.4824  1.3983
 4446TIP3   OH234972   4.666   4.550   7.792 -0.4364 -0.7986  0.7304
 4446TIP3    H134973   4.620   4.537   7.710  2.8576 -3.5607 -0.9617
 4446TIP3    H234974   4.716   4.631   7.780 -1.4124 -0.1705  0.8275
 4447TIP3   OH234975   4.258   6.542   1.939  0.5250 -0.2036  0.5958
 4447TIP3    H134976   4.238   6.631   1.968 -2.5804 -0.9791  1.2095
 4447TIP3    H234977   4.262   6.491   2.020  0.5830 -0.9075  0.1542
 4448TIP3   OH234978   0.236   6.682   2.954  0.2829 -0.4415  0.2524
 4448TIP3    H134979   0.168   6.694   2.888  2.8719  3.2345 -2.1577
 4448TIP3    H234980   0.234   6.764   3.005  1.1687 -1.4075  1.9176
 4449TIP3   OH234981   3.537   2.164   2.876  0.1539  0.0889 -0.9978
 4449TIP3    H134982   3.575   2.077   2.893 -0.4729 -0.1983 -1.0442
 4449TIP3    H234983   3.583   2.194   2.797  1.9063  0.7384  0.2058
 4450TIP3   OH234984   4.559   6.424   1.023 -0.2972  1.2471  0.0711
 4450TIP3    H134985   4.572   6.334   0.993 -1.5120  1.1006 -0.0491
 4450TIP3    H234986   4.587   6.423   1.115 -1.3321  0.4775  0.3922
 4451TIP3   OH234987   2.626   4.187   0.256 -0.3901  0.4692 -0.2552
 4451TIP3    H134988   2.565   4.116   0.273 -0.3588  0.3385 -0.6726
 4451TIP3    H234989   2.588   4.262   0.301 -0.9985  0.4498 -0.7161
 4452TIP3   OH234990   6.459   0.101   1.849 -0.0747  0.7261  0.1508
 4452TIP3    H134991   6.493   0.168   1.908  0.3635  0.9980 -0.4027
 4452TIP3    H234992   6.480   0.018   1.892  2.2389  0.8377 -0.6549
 4453TIP3   OH234993   5.523   0.144   2.855 -0.3853  0.2594  0.2551
 4453TIP3    H134994   5.462   0.070   2.852 -0.2470  0.1633 -0.7251
 4453TIP3    H234995   5.523   0.172   2.946 -0.6382 -0.7922  0.5924
 4454TIP3   OH234996   3.436   4.152   8.374  0.7887 -0.3660  0.5350
 4454TIP3    H134997   3.515   4.122   8.418  1.4047  0.7547  0.2431
 4454TIP3    H234998   3.378   4.178   8.446 -0.4261 -3.6195  0.8843
 4455TIP3   OH234999   5.494   2.303   2.882  0.5141 -0.4799 -0.3482
 4455TIP3    H135000   5.522   2.394   2.879 -0.0462 -0.1968  1.6104
 4455TIP3    H235001   5.574   2.254   2.899  0.8803 -0.4244 -1.7955
 4456TIP3   OH235002   6.838   5.440   1.138 -0.0680 -0.0856  0.5612
 4456TIP3    H135003   6.806   5.350   1.138  0.7618 -0.3951 -0.4385
 4456TIP3    H235004   6.917   5.438   1.192  0.2280 -0.0711  0.1363
 4457TIP3   OH235005   3.485   2.784   2.098 -0.3202  0.5291  0.0011
 4457TIP3    H135006   3.536   2.704   2.106 -0.1235  0.6631  0.1043
 4457TIP3    H235007   3.394   2.756   2.100 -0.2511  0.3169  0.1211
 4458TIP3   OH235008   0.626   4.347   8.467 -0.0535 -0.1003 -0.3548
 4458TIP3    H135009   0.594   4.362   8.556  1.4907 -1.7171  0.5421
 4458TIP3    H235010   0.697   4.409   8.455 -0.9528  0.8591 -0.9084
 4459TIP3   OH235011   0.641   5.161   8.618  0.5446  0.4262  0.0826
 4459TIP3    H135012   0.549   5.142   8.634  0.4219 -0.2426 -1.2848
 4459TIP3    H235013   0.655   5.246   8.661 -0.3145 -0.1321  1.5445
 4460TIP3   OH235014   3.140   6.582   8.359 -0.0774  0.1251  0.6097
 4460TIP3    H135015   3.057   6.618   8.327  0.5694  0.1222 -1.2257
 4460TIP3    H235016   3.176   6.535   8.284  2.4149  1.6120  0.7638
 4461TIP3   OH235017   1.594   3.230   0.647  0.2827 -0.6133 -0.7776
 4461TIP3    H135018   1.601   3.203   0.739 -0.1355 -1.0836 -0.8812
 4461TIP3    H235019   1.682   3.259   0.624 -0.3321  3.2277  0.9060
 4462TIP3   OH235020   4.630   0.452   7.876  0.0931 -0.1990 -0.2031
 4462TIP3    H135021   4.695   0.510   7.915  0.5556 -0.0918 -1.1165
 4462TIP3    H235022   4.635   0.372   7.927  0.2356  0.1633  0.3565
 4463TIP3   OH235023   3.465   1.799   7.502 -0.5505 -0.1657 -0.0190
 4463TIP3    H135024   3.426   1.883   7.477  0.3578  0.3323  0.1570
 4463TIP3    H235025   3.443   1.740   7.431  0.6743  0.8144 -1.2634
 4464TIP3   OH235026   2.540   2.552   1.111  0.2019  0.2403  0.6985
 4464TIP3    H135027   2.504   2.637   1.138  0.0305  0.4250 -0.0894
 4464TIP3    H235028   2.482   2.522   1.042  2.1453  1.1052 -1.4509
 4465TIP3   OH235029   4.999   5.148   1.371 -0.4156 -0.2554  0.0236
 4465TIP3    H135030   4.983   5.168   1.279  0.6589 -0.4914 -0.2261
 4465TIP3    H235031   4.978   5.229   1.418  1.5455  0.7617 -0.7242
 4466TIP3   OH235032   2.497   0.743   2.690 -0.7804  0.0229  0.1220
 4466TIP3    H135033   2.413   0.789   2.684 -1.8557 -1.9524 -0.8728
 4466TIP3    H235034   2.474   0.655   2.719  1.0306 -0.3766  0.4285
 4467TIP3   OH235035   3.256   5.500   2.899  0.3364  0.3391  0.7793
 4467TIP3    H135036   3.286   5.586   2.868 -1.4813  0.6059 -0.4481
 4467TIP3    H235037   3.182   5.521   2.957 -0.0075 -0.3760  0.6079
 4468TIP3   OH235038   2.702   3.194   7.789 -0.4114 -0.0652 -0.3856
 4468TIP3    H135039   2.734   3.110   7.754 -1.5493 -0.8430  0.3881
 4468TIP3    H235040   2.643   3.226   7.721  0.2580  0.2775 -0.8191
 4469TIP3   OH235041   2.389   0.745   0.517  0.4352  0.1498  0.2377
 4469TIP3    H135042   2.320   0.744   0.450  1.0229 -0.7691 -0.3791
 4469TIP3    H235043   2.441   0.822   0.496  0.1137  0.3482  0.1644
 4470TIP3   OH235044   0.123   6.437   0.504  0.5518  0.0086  0.2543
 4470TIP3    H135045   0.183   6.364   0.518 -0.5914 -0.6934  1.7438
 4470TIP3    H235046   0.078   6.415   0.422  0.2059 -0.9874  0.6957
 4471TIP3   OH235047   2.897   3.176   2.112  0.0057  0.3182 -0.2257
 4471TIP3    H135048   2.857   3.174   2.025 -0.5937 -2.9779  0.0139
 4471TIP3    H235049   2.834   3.221   2.167 -1.3192 -0.7574 -0.8050
 4472TIP3   OH235050   2.815   2.754   1.450  0.1910 -0.2052 -0.1265
 4472TIP3    H135051   2.877   2.687   1.479 -0.7769 -1.6351 -1.2646
 4472TIP3    H235052   2.853   2.787   1.368 -0.0947 -0.4578 -0.3627
 4473TIP3   OH235053   3.325   2.901   1.410  0.0139 -0.1883  0.1495
 4473TIP3    H135054   3.313   2.807   1.422  3.2969 -0.6738  0.4049
 4473TIP3    H235055   3.395   2.908   1.345 -1.0765  2.1372 -0.8684
 4474TIP3   OH235056   3.132   5.175   0.010 -0.1813  0.1876  0.0943
 4474TIP3    H135057   3.093   5.243   0.065 -1.5491 -0.2588 -0.2908
 4474TIP3    H235058   3.133   5.097   0.065  2.2734  0.6861  0.8719
 4475TIP3   OH235059   2.729   6.819   2.073 -0.1693  0.1734 -0.2733
 4475TIP3    H135060   2.669   6.851   2.006  1.7602 -1.7008 -3.1366
 4475TIP3    H235061   2.814   6.857   2.049  0.4488  0.1001  1.6426
 4476TIP3   OH235062   4.062   0.154   8.061 -0.4656 -0.1441  0.3003
 4476TIP3    H135063   4.137   0.178   8.115 -0.0957 -2.8174  1.1178
 4476TIP3    H235064   3.993   0.216   8.087  1.1734  1.8904  0.0577
 4477TIP3   OH235065   5.089   3.772   8.043  0.0684 -0.2743 -0.1675
 4477TIP3    H135066   5.067   3.854   7.999  0.6897  0.2248  0.4368
 4477TIP3    H235067   5.063   3.704   7.980 -1.7288  0.3164 -0.0999
 4478TIP3   OH235068   3.024   1.503   1.321 -0.1985 -0.3382  0.1507
 4478TIP3    H135069   2.942   1.523   1.276  0.9707  1.1899 -1.4579
 4478TIP3    H235070   3.056   1.423   1.278  0.8730  1.0677 -1.8475
 4479TIP3   OH235071   0.617   5.111   0.196  0.2564 -0.2688  0.5744
 4479TIP3    H135072   0.610   5.150   0.283 -0.5324 -1.7371  1.2018
 4479TIP3    H235073   0.710   5.121   0.173  0.6646 -0.6187  1.9629
 4480TIP3   OH235074   2.028   0.340   7.862 -0.2302  0.7298  0.2319
 4480TIP3    H135075   2.064   0.388   7.936  2.6704 -1.3562  0.3376
 4480TIP3    H235076   2.100   0.284   7.832 -2.3352 -0.9993 -2.0072
 4481TIP3   OH235077   5.555   1.876   2.762 -0.3109 -0.7082  0.2032
 4481TIP3    H135078   5.492   1.805   2.771 -0.2820 -0.7471  0.0899
 4481TIP3    H235079   5.584   1.872   2.671 -1.3369  0.3188 -0.1902
 4482TIP3   OH235080   0.168   5.477   0.637 -0.3376  0.1759 -0.5690
 4482TIP3    H135081   0.089   5.465   0.690  1.0604 -1.5826  1.2803
 4482TIP3    H235082   0.202   5.389   0.625  2.1396  0.9766  0.0124
 4483TIP3   OH235083   5.254   5.554   0.563 -0.1136  0.2110 -0.1664
 4483TIP3    H135084   5.317   5.625   0.566 -0.2918  0.3481  0.2879
 4483TIP3    H235085   5.303   5.480   0.525  0.5511  0.0781  0.9173
 4484TIP3   OH235086   0.673   1.444   1.787 -0.6098  0.4621 -0.1377
 4484TIP3    H135087   0.612   1.451   1.713  0.0867  0.1393 -0.7587
 4484TIP3    H235088   0.642   1.370   1.838 -0.6104  0.1620 -0.5717
 4485TIP3   OH235089   1.264   0.171   0.067  0.0788  0.3347 -0.2367
 4485TIP3    H135090   1.251   0.253   0.019  0.3344  0.3100 -0.3452
 4485TIP3    H235091   1.175   0.143   0.090 -0.1748 -0.4839 -2.0476
 4486TIP3   OH235092   6.089   1.096   8.767  0.3777 -0.2308  0.0990
 4486TIP3    H135093   6.013   1.113   8.823  0.9964 -1.3064  1.3020
 4486TIP3    H235094   6.144   1.173   8.777  0.4722 -0.4073  0.9607
 4487TIP3   OH235095   0.262   4.601   2.568  0.6719  0.6532 -0.3688
 4487TIP3    H135096   0.247   4.635   2.656 -1.1398 -1.1252  0.0775
 4487TIP3    H235097   0.189   4.634   2.517 -1.1640 -2.3788  0.0869
 4488TIP3   OH235098   2.578   0.372   1.069  0.0039 -0.3761 -0.5941
 4488TIP3    H135099   2.508   0.342   1.011  0.6595 -0.2725 -1.4623
 4488TIP3    H235100   2.641   0.415   1.010  0.5278  0.0146  0.2376
 4489TIP3   OH235101   6.160   0.382   2.180  0.0451  0.6273  0.1332
 4489TIP3    H135102   6.101   0.454   2.202  0.3124  1.0414 -0.4755
 4489TIP3    H235103   6.246   0.423   2.170  0.3314  0.1176  0.4598
 4490TIP3   OH235104   0.798   1.102   0.144 -0.3132  0.0368 -0.1882
 4490TIP3    H135105   0.791   1.032   0.078 -0.2437 -0.1908  0.0463
 4490TIP3    H235106   0.829   1.058   0.223 -1.5710  0.0898  0.3603
 4491TIP3   OH235107   5.922   6.837   0.819  0.3109  0.7687  0.1873
 4491TIP3    H135108   5.828   6.829   0.807 -0.0266  3.0072  0.8098
 4491TIP3    H235109   5.948   6.759   0.867 -1.2890  0.3080  0.3395
 4492TIP3   OH235110   0.761   4.655   8.190 -0.5857 -0.6306 -0.1020
 4492TIP3    H135111   0.807   4.639   8.108  0.6664  0.2692  0.3923
 4492TIP3    H235112   0.720   4.740   8.179  1.2420  0.4328  0.8705
 4493TIP3   OH235113   4.667   1.446   8.711  0.5148  0.3844 -0.2426
 4493TIP3    H135114   4.674   1.359   8.749  1.6503  0.6786  0.2489
 4493TIP3    H235115   4.696   1.435   8.620 -0.2632  0.0756 -0.4613
 4494TIP3   OH235116   1.599   6.494   1.698  0.0549 -0.0657 -0.5745
 4494TIP3    H135117   1.592   6.516   1.790  0.8885 -0.1696 -0.4774
 4494TIP3    H235118   1.634   6.572   1.656  0.2858 -0.2307 -0.6961
 4495TIP3   OH235119   4.053   4.425   2.361  0.1391 -0.0953  0.5202
 4495TIP3    H135120   4.103   4.400   2.439 -0.5334  0.1180  1.0260
 4495TIP3    H235121   4.107   4.491   2.318  1.2134 -1.2717 -0.0006
 4496TIP3   OH235122   0.683   0.111   7.239  0.1239  0.2200 -0.2052
 4496TIP3    H135123   0.591   0.085   7.248 -0.1807  1.3729  0.2623
 4496TIP3    H235124   0.708   0.082   7.152 -0.5657 -0.4600 -0.1856
 4497TIP3   OH235125   6.665   2.743   0.035  0.0013  0.2089  0.5028
 4497TIP3    H135126   6.627   2.706   0.114 -1.1929  0.6177  0.1397
 4497TIP3    H235127   6.653   2.676  -0.032  1.4928 -0.3577  0.7588
 4498TIP3   OH235128   2.959   3.617   3.092 -0.0040  0.4214  0.9074
 4498TIP3    H135129   2.984   3.600   3.001  0.9498 -1.3095  1.4468
 4498TIP3    H235130   2.864   3.602   3.094  0.2600 -1.4721  0.5758
 4499TIP3   OH235131   4.617   0.035   0.204 -0.3989 -0.7615  0.3309
 4499TIP3    H135132   4.559  -0.024   0.252  0.2888 -0.6206  1.3675
 4499TIP3    H235133   4.631   0.109   0.264 -0.9881  0.3147 -0.8200
 4500TIP3   OH235134   5.855   6.424   1.940 -0.0489  0.4491  0.5790
 4500TIP3    H135135   5.810   6.505   1.918 -1.8931 -0.7696 -0.3785
 4500TIP3    H235136   5.863   6.426   2.035  1.2481  2.3660  0.4826
 4501TIP3   OH235137   1.584   0.325   2.039 -0.4036 -0.7084 -0.6605
 4501TIP3    H135138   1.551   0.235   2.043  0.8143 -1.2081  3.5945
 4501TIP3    H235139   1.674   0.319   2.073 -0.7160  2.1964  1.0059
 4502TIP3   OH235140   6.125   0.821   7.941  0.8507  0.2412  0.1817
 4502TIP3    H135141   6.098   0.768   7.866  1.4474  2.6512 -1.8778
 4502TIP3    H235142   6.043   0.860   7.973  0.7329  0.1502 -0.0031
 4503TIP3   OH235143   5.248   1.550   1.284  0.1223  0.0386  0.0636
 4503TIP3    H135144   5.233   1.489   1.211  0.0284 -0.5610  0.5722
 4503TIP3    H235145   5.160   1.580   1.308  0.1545  0.2457 -0.0718
 4504TIP3   OH235146   3.379   0.294   1.658  0.4204  0.1052  0.5946
 4504TIP3    H135147   3.445   0.346   1.612 -0.0569  0.2962  0.1189
 4504TIP3    H235148   3.361   0.221   1.600 -0.1506  0.3221  0.4943
 4505TIP3   OH235149   6.397   5.794   2.213  0.5673  0.4248 -0.6629
 4505TIP3    H135150   6.484   5.833   2.212  0.0124  1.7446 -0.0883
 4505TIP3    H235151   6.371   5.797   2.305  0.5616 -1.5036 -0.5630
 4506TIP3   OH235152   2.411   0.433   0.284  0.2620  0.1035 -0.6317
 4506TIP3    H135153   2.325   0.396   0.264 -0.6032  1.8588 -0.3406
 4506TIP3    H235154   2.414   0.516   0.237  0.8079  1.2240  1.2614
 4507TIP3   OH235155   3.798   1.081   1.028  0.4469  0.3577  0.3488
 4507TIP3    H135156   3.859   1.011   1.008  0.6337  0.4586  0.5695
 4507TIP3    H235157   3.752   1.052   1.106  0.0335  0.1688  0.0402
 4508TIP3   OH235158   1.827   5.625   2.361  0.0508 -0.0072  0.3676
 4508TIP3    H135159   1.868   5.556   2.413  1.6872  1.0534  0.5511
 4508TIP3    H235160   1.896   5.655   2.303 -0.9367  0.7864 -0.4227
 4509TIP3   OH235161   6.265   5.842   0.244  0.0777  0.3352 -0.2017
 4509TIP3    H135162   6.267   5.900   0.320 -0.0475 -0.7596  0.6585
 4509TIP3    H235163   6.307   5.761   0.274 -1.1949 -0.6092 -0.8692
 4510TIP3   OH235164   1.872   5.749   7.723  0.0065  0.2269  0.0074
 4510TIP3    H135165   1.846   5.829   7.678  0.4717  0.3539 -0.0304
 4510TIP3    H235166   1.949   5.717   7.675  1.3689  1.1081  1.5203
 4511TIP3   OH235167   3.325   6.728   8.149  0.0332  0.1339 -0.1872
 4511TIP3    H135168   3.242   6.767   8.123  0.3758  0.1090 -1.4280
 4511TIP3    H235169   3.362   6.789   8.213 -0.5693  0.5591 -0.2405
 4512TIP3   OH235170   3.501   6.177   7.737 -0.3686 -0.3771  0.1837
 4512TIP3    H135171   3.532   6.233   7.666  0.1457 -1.0304 -0.1171
 4512TIP3    H235172   3.428   6.127   7.698 -0.5733 -0.1991  0.3365
 4513TIP3   OH235173   6.687   3.490   1.350  0.2582 -0.0435  0.2328
 4513TIP3    H135174   6.608   3.495   1.402  1.3957  1.1917  1.9273
 4513TIP3    H235175   6.727   3.406   1.375 -0.8276 -1.0524 -1.2094
 4514TIP3   OH235176   3.679   2.994   2.550  0.1880 -1.1285 -0.1919
 4514TIP3    H135177   3.712   2.994   2.640 -0.1128  1.3016  0.0087
 4514TIP3    H235178   3.643   2.907   2.537  2.3589 -2.3183  1.1970
 4515TIP3   OH235179   4.565   2.578   1.320  0.5415 -0.4546 -0.1141
 4515TIP3    H135180   4.598   2.507   1.266  1.1469 -0.4850  0.2839
 4515TIP3    H235181   4.535   2.645   1.258 -0.5894 -1.2870 -0.5077
 4516TIP3   OH235182   5.792   2.252   2.594 -0.6097 -0.0922 -0.5086
 4516TIP3    H135183   5.829   2.287   2.675 -1.0632  1.6665 -1.0255
 4516TIP3    H235184   5.785   2.327   2.536 -1.7072 -1.0331 -1.6627
 4517TIP3   OH235185   3.843   3.594   0.539 -0.5661  0.5316  0.2701
 4517TIP3    H135186   3.845   3.646   0.459 -0.9058  0.9760  0.5437
 4517TIP3    H235187   3.771   3.631   0.590 -0.5404  0.0667  0.6560
 4518TIP3   OH235188   5.611   4.663   1.450 -0.0377  0.4009  0.1124
 4518TIP3    H135189   5.517   4.668   1.434  0.0033  2.4563  0.2490
 4518TIP3    H235190   5.639   4.755   1.456  1.7181 -0.1780  1.5440
 4519TIP3   OH235191   2.002   6.822   7.952  0.2525 -0.1219  0.1972
 4519TIP3    H135192   2.015   6.885   8.023 -1.8979  0.6115  0.0405
 4519TIP3    H235193   1.951   6.871   7.887  0.5224 -1.3509 -0.9783
 4520TIP3   OH235194   4.690   4.921   8.288  0.1312 -0.0260 -0.2238
 4520TIP3    H135195   4.628   4.928   8.361 -0.4266 -1.4551 -0.5269
 4520TIP3    H235196   4.657   4.983   8.223 -1.6392 -1.4700 -0.7980
 4521TIP3   OH235197   5.682   6.121   1.814  0.4166  0.0344 -0.3604
 4521TIP3    H135198   5.660   6.030   1.830 -0.1467  0.0939 -0.7815
 4521TIP3    H235199   5.661   6.166   1.896  1.4729 -0.3392  0.1334
 4522TIP3   OH235200   2.499   1.522   0.097 -0.1019 -0.2757 -0.1277
 4522TIP3    H135201   2.568   1.458   0.109  0.7287  0.5650 -0.3016
 4522TIP3    H235202   2.422   1.483   0.139  0.7750 -0.7123  1.1274
 4523TIP3   OH235203   2.392   2.182   1.606 -0.0188  1.0029 -0.1493
 4523TIP3    H135204   2.446   2.262   1.606 -0.2424  1.1553  0.0390
 4523TIP3    H235205   2.430   2.128   1.675  0.6633  0.5809 -0.8410
 4524TIP3   OH235206   1.387   4.845   0.019 -0.0150 -0.0950  0.0847
 4524TIP3    H135207   1.428   4.777   0.072 -1.2784 -0.5638  0.5140
 4524TIP3    H235208   1.367   4.915   0.081  0.7183  0.4069 -0.2395
 4525TIP3   OH235209   5.065   1.726   3.011 -0.1684 -0.6089  0.2736
 4525TIP3    H135210   5.040   1.633   3.009 -0.8197 -0.4505  0.6457
 4525TIP3    H235211   5.004   1.765   3.073 -0.6427  0.2799 -0.7198
 4526TIP3   OH235212   5.796   4.521   8.726  0.0824 -0.8407 -0.0424
 4526TIP3    H135213   5.730   4.532   8.794 -1.4320  1.3562 -1.7080
 4526TIP3    H235214   5.794   4.428   8.704  0.8021 -1.6943  2.9495
 4527TIP3   OH235215   3.768   5.323   7.979  0.0252 -0.1209  0.1783
 4527TIP3    H135216   3.850   5.344   7.936  0.1585 -1.6688 -0.3651
 4527TIP3    H235217   3.750   5.399   8.035  1.9871  0.1039  0.5707
 4528TIP3   OH235218   1.904   3.101   2.681 -0.2030 -0.1519 -0.2039
 4528TIP3    H135219   1.924   3.029   2.741  1.0145 -0.2131 -0.6437
 4528TIP3    H235220   1.944   3.178   2.722 -0.6389  0.0799 -0.2164
 4529TIP3   OH235221   1.958   2.257   1.616 -0.1055  0.0067 -0.2179
 4529TIP3    H135222   1.951   2.241   1.711  0.2704 -0.4212 -0.2558
 4529TIP3    H235223   1.881   2.214   1.579 -1.2045  1.6614  0.0418
 4530TIP3   OH235224   4.851   5.206   2.598 -0.1504 -0.0666 -0.6189
 4530TIP3    H135225   4.923   5.240   2.651  0.2067 -0.9608 -0.5131
 4530TIP3    H235226   4.784   5.274   2.602  0.0812  0.1180  0.5470
 4531TIP3   OH235227   0.259   6.704   0.500  0.0088 -0.0761 -0.3013
 4531TIP3    H135228   0.251   6.743   0.413 -1.7611 -0.0955 -0.1823
 4531TIP3    H235229   0.194   6.634   0.500 -1.0978  0.8826  1.5241
 4532TIP3   OH235230   6.156   1.552   7.631  0.6810  0.1806 -0.2364
 4532TIP3    H135231   6.122   1.500   7.558  0.8560  1.0767 -0.9729
 4532TIP3    H235232   6.143   1.643   7.604  0.9054  0.5331  0.7817
 4533TIP3   OH235233   2.304   2.297   7.807 -0.4101  0.2258  0.2926
 4533TIP3    H135234   2.221   2.313   7.763 -0.1742 -1.6909 -1.0127
 4533TIP3    H235235   2.366   2.282   7.736  0.2115 -2.0141  1.2019
 4534TIP3   OH235236   5.821   6.614   1.625 -0.2669 -0.1137 -0.2463
 4534TIP3    H135237   5.870   6.667   1.688  1.3312  0.7277 -2.1073
 4534TIP3    H235238   5.806   6.531   1.671  2.6506 -0.2990  0.5922
 4535TIP3   OH235239   2.300   0.768   1.378 -0.0099  0.0039  0.4367
 4535TIP3    H135240   2.301   0.749   1.285  0.7733 -0.0205  0.4385
 4535TIP3    H235241   2.300   0.863   1.384 -0.2069  0.0056  0.4138
 4536TIP3   OH235242   0.266   4.386   7.893  0.4844  0.4726 -0.0402
 4536TIP3    H135243   0.224   4.352   7.814  0.6440 -0.0584  0.1049
 4536TIP3    H235244   0.318   4.314   7.926 -0.5422  0.2830  1.2311
 4537TIP3   OH235245   3.010   3.441   1.633  0.4172 -0.1371 -0.0066
 4537TIP3    H135246   2.922   3.472   1.652  0.4586  2.0605 -2.6743
 4537TIP3    H235247   2.997   3.360   1.582 -0.0734  0.1486 -0.3411
 4538TIP3   OH235248   6.733   3.277   2.483  0.1945 -0.2014 -0.2306
 4538TIP3    H135249   6.704   3.290   2.574 -1.3445 -1.1433 -0.5417
 4538TIP3    H235250   6.652   3.279   2.432  0.7896 -1.7895 -1.3173
 4539TIP3   OH235251   2.962   4.282   2.546  0.6499  0.2539  0.4750
 4539TIP3    H135252   2.886   4.227   2.566  0.3034  0.6760  0.3405
 4539TIP3    H235253   2.929   4.346   2.482  1.2823  0.0323 -0.0893
 4540TIP3   OH235254   2.177   1.659   2.439  0.5650 -0.0870 -0.3077
 4540TIP3    H135255   2.263   1.700   2.431  0.2289  0.5613 -0.6417
 4540TIP3    H235256   2.130   1.714   2.502  1.4606 -2.2533  2.4619
 4541TIP3   OH235257   6.266   4.537   3.300 -0.1841  0.2763  0.2387
 4541TIP3    H135258   6.361   4.526   3.300 -0.0184  1.5682  0.0777
 4541TIP3    H235259   6.235   4.479   3.369  0.9254  1.3776  1.7105
 4542TIP3   OH235260   3.500   0.214   2.447 -0.0094 -0.3156  0.9752
 4542TIP3    H135261   3.567   0.234   2.381 -2.0564  2.1616 -0.5323
 4542TIP3    H235262   3.538   0.244   2.530  1.7382 -1.4649  0.6507
 4543TIP3   OH235263   6.125   1.731   2.553  0.1066 -0.3832 -0.1568
 4543TIP3    H135264   6.139   1.757   2.462  0.2943  1.5305  0.3789
 4543TIP3    H235265   6.030   1.735   2.565  0.1690  0.5727  0.0548
 4544TIP3   OH235266   6.506   0.236   2.404 -0.1982 -0.1193 -0.1794
 4544TIP3    H135267   6.493   0.163   2.464  1.5786 -0.4231 -0.1265
 4544TIP3    H235268   6.579   0.209   2.348 -0.4931  0.9969 -1.1409
 4545TIP3   OH235269   0.890   3.016   1.902  0.7024  0.0312  0.3455
 4545TIP3    H135270   0.939   3.070   1.964  1.5501 -0.6010  0.2571
 4545TIP3    H235271   0.842   2.954   1.957  0.7240  0.0680  0.4061
 4546TIP3   OH235272   3.796   4.007   8.034  0.4213 -0.1016  0.0135
 4546TIP3    H135273   3.778   4.098   8.012  0.1842 -0.0414  0.4551
 4546TIP3    H235274   3.883   4.007   8.073 -0.2088  0.1742  1.4807
 4547TIP3   OH235275   3.554   1.516   2.132 -1.1938  0.7314  0.3962
 4547TIP3    H135276   3.489   1.479   2.193  0.0765 -1.4303  0.5698
 4547TIP3    H235277   3.616   1.562   2.189  1.0881 -2.8982  1.2434
 4548TIP3   OH235278   4.001   2.346   2.458 -0.6159 -0.3245 -0.4227
 4548TIP3    H135279   3.946   2.417   2.491  0.1670  0.0443  0.1116
 4548TIP3    H235280   3.939   2.284   2.418 -1.3636  0.3232 -0.2848
 4549TIP3   OH235281   6.157   0.647   1.561  0.5037  0.2476 -0.3502
 4549TIP3    H135282   6.136   0.741   1.559 -0.5330  0.0403 -2.7278
 4549TIP3    H235283   6.074   0.603   1.543  0.9527 -1.1704  0.8206
 4550TIP3   OH235284   4.928   2.180   8.538  0.1714 -0.6669 -0.3835
 4550TIP3    H135285   4.953   2.088   8.527  0.7963 -0.8050  1.8183
 4550TIP3    H235286   4.833   2.178   8.547  0.1890 -1.1062 -0.2570
 4551TIP3   OH235287   2.927   4.739   2.440  0.3108 -0.1168  0.4212
 4551TIP3    H135288   2.917   4.662   2.384  0.6221  0.9932 -1.2506
 4551TIP3    H235289   2.973   4.707   2.517  2.1498 -1.2892 -1.0657
 4552TIP3   OH235290   0.727   2.233   2.515  0.0067  0.9539  0.0902
 4552TIP3    H135291   0.688   2.320   2.524 -0.1090  0.7765  1.5420
 4552TIP3    H235292   0.654   2.173   2.524  0.3137  0.6697  0.7457
 4553TIP3   OH235293   6.626   1.852   0.569 -0.3464  0.7813 -0.5118
 4553TIP3    H135294   6.681   1.790   0.616 -0.5792  0.0637 -1.1630
 4553TIP3    H235295   6.668   1.863   0.484 -1.4647 -0.2110 -1.2345
 4554TIP3   OH235296   4.612   4.257   7.851 -0.0184 -0.4586 -0.5868
 4554TIP3    H135297   4.609   4.350   7.831  0.4298 -0.5780 -1.2591
 4554TIP3    H235298   4.535   4.220   7.806 -0.2280 -0.4099 -0.2737
 4555TIP3   OH235299   6.211   5.583   8.149 -0.3320 -0.1572 -0.3241
 4555TIP3    H135300   6.241   5.526   8.079  2.0124 -0.1145  0.5432
 4555TIP3    H235301   6.125   5.614   8.121  0.2397 -0.6708 -2.8346
 4556TIP3   OH235302   4.102   2.304   7.879  0.4054 -1.8645 -0.0172
 4556TIP3    H135303   4.157   2.287   7.802  0.6277 -1.3595  0.0299
 4556TIP3    H235304   4.021   2.340   7.843 -0.0139 -2.8648 -0.1073
 4557TIP3   OH235305   1.605   5.299   2.175  0.3467 -0.2663 -0.4627
 4557TIP3    H135306   1.606   5.217   2.127  1.2452  0.5482 -1.9058
 4557TIP3    H235307   1.683   5.346   2.144  0.8597  0.3946  1.6564
 4558TIP3   OH235308   2.101   6.024   2.186  0.5494 -0.9178 -0.2323
 4558TIP3    H135309   2.141   6.063   2.263 -0.6790  2.2591 -1.0692
 4558TIP3    H235310   2.174   6.012   2.125  1.0800 -0.7391  0.3613
 4559TIP3   OH235311   2.459   4.446   8.464  0.0909 -0.4144  0.0798
 4559TIP3    H135312   2.431   4.537   8.470 -0.1013 -0.5580  2.4754
 4559TIP3    H235313   2.397   4.405   8.405 -0.0178  0.9186 -0.7610
 4560TIP3   OH235314   3.430   2.063   7.686 -0.8596 -0.1112  0.5414
 4560TIP3    H135315   3.419   2.006   7.762 -0.3334 -1.3542 -0.2702
 4560TIP3    H235316   3.341   2.095   7.667 -1.2667 -1.1007  0.7074
 4561TIP3   OH235317   1.654   2.951   1.039  0.3855 -0.0367 -0.2955
 4561TIP3    H135318   1.749   2.954   1.029  0.5109  0.8917  0.9977
 4561TIP3    H235319   1.638   2.880   1.101  0.2029 -0.3643 -0.7080
 4562TIP3   OH235320   2.357   3.320   8.191  0.2241  0.2432 -0.4199
 4562TIP3    H135321   2.264   3.324   8.169 -0.2208 -1.0005  1.0567
 4562TIP3    H235322   2.401   3.360   8.116 -1.4940  0.9885 -1.0905
 4563TIP3   OH235323   0.471   3.038   1.897 -0.3767  0.1705  0.0022
 4563TIP3    H135324   0.445   2.949   1.874 -1.8461  0.2656  1.1269
 4563TIP3    H235325   0.479   3.037   1.992 -2.9109  1.8083  0.3202
 4564TIP3   OH235326   6.105   6.238   8.131 -0.6969  0.2683  0.2654
 4564TIP3    H135327   6.105   6.171   8.199 -1.1236 -1.0712 -1.0102
 4564TIP3    H235328   6.192   6.232   8.091 -1.5549 -1.3083 -1.4944
 4565TIP3   OH235329   6.385   6.194   1.770  0.2352 -0.1163 -0.2633
 4565TIP3    H135330   6.355   6.283   1.750  1.7371  0.1030 -1.8344
 4565TIP3    H235331   6.313   6.137   1.743 -0.6148  0.5975  0.4611
 4566TIP3   OH235332   6.379   5.657   1.650 -0.2870  0.7908 -0.1981
 4566TIP3    H135333   6.376   5.564   1.672  0.8806  0.6495 -0.5741
 4566TIP3    H235334   6.390   5.659   1.555 -1.4706  1.3429 -0.3386
 4567TIP3   OH235335   6.249   6.153   0.777  0.2484  0.5747 -1.0431
 4567TIP3    H135336   6.253   6.191   0.689 -0.7546  0.5842 -1.0957
 4567TIP3    H235337   6.340   6.136   0.799  0.6056  1.5710 -1.6497
 4568TIP3   OH235338   1.746   0.645   1.188  0.4109 -0.1482  0.2378
 4568TIP3    H135339   1.752   0.739   1.170 -0.9239 -0.2817 -1.0557
 4568TIP3    H235340   1.747   0.639   1.284 -0.7234  1.2765  0.3685
 4569TIP3   OH235341   5.763   6.346   8.321  0.1980  0.1132 -0.3089
 4569TIP3    H135342   5.716   6.263   8.318  2.4651 -1.3620  1.5115
 4569TIP3    H235343   5.842   6.331   8.268  1.0508  0.7751  0.7395
 4570TIP3   OH235344   0.917   1.003   1.058  0.6939  0.3672 -0.3544
 4570TIP3    H135345   0.860   1.077   1.078  0.2270 -0.2017  0.5082
 4570TIP3    H235346   0.977   0.997   1.133 -0.3056 -1.0829  0.3745
 4571TIP3   OH235347   0.734   6.764   8.377  0.5716  0.3665 -0.4631
 4571TIP3    H135348   0.750   6.798   8.465 -2.2795  1.2188 -0.1514
 4571TIP3    H235349   0.737   6.669   8.386 -1.3599  0.3869  1.0163
 4572TIP3   OH235350   0.670   6.391   8.188 -0.1694 -0.1288 -0.2533
 4572TIP3    H135351   0.755   6.434   8.184 -0.0140 -0.4445 -0.3672
 4572TIP3    H235352   0.689   6.297   8.179 -0.4493 -0.2780  0.6453
 4573TIP3   OH235353   4.613   5.134   2.251 -0.5197  0.3446  0.0054
 4573TIP3    H135354   4.701   5.152   2.284  0.3152  0.5154 -2.1882
 4573TIP3    H235355   4.626   5.105   2.161 -2.7326  0.6208 -0.4617
 4574TIP3   OH235356   6.586   5.454   0.007  0.4771  0.0882 -0.4812
 4574TIP3    H135357   6.639   5.401   0.066 -0.3747  0.5586  0.7644
 4574TIP3    H235358   6.609   5.424  -0.081 -0.2205 -2.6016  0.1682
 4575TIP3   OH235359   0.841   5.830   2.312 -0.0735 -0.3380  0.1548
 4575TIP3    H135360   0.756   5.846   2.353  0.2845 -0.6007  1.0327
 4575TIP3    H235361   0.902   5.884   2.362 -0.0256  1.7469 -1.9828
 4576TIP3   OH235362   0.382   2.104   0.300 -0.1704 -0.6178 -0.2666
 4576TIP3    H135363   0.432   2.132   0.377  0.5758 -1.5448 -0.3957
 4576TIP3    H235364   0.332   2.182   0.274 -2.6884 -0.9631  2.8297
 4577TIP3   OH235365   1.943   6.103   1.485 -0.1615  0.2137  0.2998
 4577TIP3    H135366   1.884   6.177   1.502  2.0901  2.0322  0.7148
 4577TIP3    H235367   1.886   6.026   1.486 -2.5110  1.8532  0.5820
 4578TIP3   OH235368   1.337   0.720   2.311  0.0385  0.4740  0.6306
 4578TIP3    H135369   1.347   0.702   2.404 -0.1529  0.7330  0.7029
 4578TIP3    H235370   1.378   0.646   2.267  0.2268  0.4059  0.9208
 4579TIP3   OH235371   0.596   0.588   1.148 -0.1727 -0.0882 -0.1757
 4579TIP3    H135372   0.530   0.562   1.084 -0.9054  1.3755 -0.0628
 4579TIP3    H235373   0.608   0.682   1.133 -2.0087  0.8602  3.2083
 4580TIP3   OH235374   1.172   2.335   2.631  0.6647 -0.8189  0.1737
 4580TIP3    H135375   1.098   2.394   2.616  0.2684 -1.1309  0.8710
 4580TIP3    H235376   1.143   2.278   2.701  1.0234 -1.8915 -0.5333
 4581TIP3   OH235377   4.914   5.667   0.293  0.0176  0.0308 -0.0352
 4581TIP3    H135378   4.983   5.728   0.319 -0.5074  0.9756 -0.7880
 4581TIP3    H235379   4.845   5.723   0.259 -0.7439 -0.9623 -0.1550
 4582TIP3   OH235380   2.991   6.046   2.135 -0.4060 -0.0020  0.0260
 4582TIP3    H135381   2.900   6.017   2.148 -0.3065  0.1439  1.1528
 4582TIP3    H235382   3.043   5.973   2.167 -0.1482  0.6826  1.2516
 4583TIP3   OH235383   3.510   4.164   0.253 -0.5874 -0.1383 -0.4704
 4583TIP3    H135384   3.535   4.227   0.321 -1.1821  0.8710 -1.1641
 4583TIP3    H235385   3.416   4.152   0.265 -0.4922 -0.8404 -0.4013
 4584TIP3   OH235386   0.862   2.815   0.351 -0.4792 -0.7176  0.4870
 4584TIP3    H135387   0.936   2.866   0.383  0.6252 -1.9792  0.0825
 4584TIP3    H235388   0.791   2.835   0.411  0.1799  0.5370  0.8921
 4585TIP3   OH235389   5.607   5.574   1.721  0.7820 -0.0391 -0.4654
 4585TIP3    H135390   5.679   5.604   1.777 -0.2341 -0.6293  1.2671
 4585TIP3    H235391   5.576   5.653   1.676  0.2560  0.9587  1.5017
 4586TIP3   OH235392   0.401   4.682   1.875  0.5311 -0.3981  0.3831
 4586TIP3    H135393   0.461   4.637   1.933  1.7464  1.6192  0.7776
 4586TIP3    H235394   0.453   4.750   1.834 -0.9900  0.0575 -0.9165
 4587TIP3   OH235395   1.671   2.628   0.368  0.1489 -0.0440 -0.4283
 4587TIP3    H135396   1.615   2.555   0.341 -1.9884  0.4909  2.0955
 4587TIP3    H235397   1.736   2.589   0.426 -0.9735 -0.0393  0.8929
 4588TIP3   OH235398   2.084   1.867   2.775  0.7051  0.7328  0.1487
 4588TIP3    H135399   2.099   1.961   2.785  0.2198  0.7756  0.5472
 4588TIP3    H235400   2.161   1.825   2.813  0.8748  0.9685  0.0638
 4589TIP3   OH235401   4.068   2.537   1.449 -0.0301  0.2957 -0.3726
 4589TIP3    H135402   4.102   2.449   1.464 -0.3244  0.6546  3.1026
 4589TIP3    H235403   3.973   2.525   1.447 -0.3338  0.7590  3.6144
 4590TIP3   OH235404   5.555   4.770   8.186 -0.3230  0.2461  0.3040
 4590TIP3    H135405   5.571   4.851   8.234  1.4623  0.3700 -0.4274
 4590TIP3    H235406   5.491   4.794   8.119  0.4672  1.1659 -0.1462
 4591TIP3   OH235407   2.483   3.368   2.231 -0.0607 -0.3184  0.2124
 4591TIP3    H135408   2.448   3.289   2.189  0.1936  0.3646 -1.3474
 4591TIP3    H235409   2.406   3.421   2.251 -0.0768  0.8295 -2.4975
 4592TIP3   OH235410   2.345   4.531   8.075 -0.3484  0.2467  0.2321
 4592TIP3    H135411   2.347   4.455   8.017 -0.3209  0.5153 -0.1209
 4592TIP3    H235412   2.436   4.541   8.104 -0.0507  1.0365 -0.8961
 4593TIP3   OH235413   3.139   4.919   8.195 -0.6359 -0.1776 -0.2619
 4593TIP3    H135414   3.168   4.838   8.152 -2.0236 -1.2333  0.7164
 4593TIP3    H235415   3.186   4.920   8.278 -0.4794  0.1360 -0.3517
 4594TIP3   OH235416   4.468   2.225   0.473  0.0156 -0.1928  0.1410
 4594TIP3    H135417   4.392   2.277   0.445  0.0666 -0.7399 -1.0713
 4594TIP3    H235418   4.542   2.269   0.432  0.3529  0.2221  1.1622
 4595TIP3   OH235419   5.534   1.259   8.042  0.2816 -0.2115  0.2959
 4595TIP3    H135420   5.493   1.311   8.111  1.4958  0.9680  0.1533
 4595TIP3    H235421   5.486   1.282   7.962  0.6386  0.4907  0.2819
 4596TIP3   OH235422   3.576   2.053   0.691  0.1436 -0.3745 -0.2891
 4596TIP3    H135423   3.558   2.068   0.784  1.2581  1.8475 -0.3750
 4596TIP3    H235424   3.660   2.007   0.690  1.3181  1.6288 -0.1693
 4597TIP3   OH235425   0.819   2.169   7.675  0.2621 -0.2437 -0.4440
 4597TIP3    H135426   0.831   2.249   7.625 -0.5759 -0.1290 -0.4743
 4597TIP3    H235427   0.802   2.102   7.608 -1.4865  0.0245 -0.3247
 4598TIP3   OH235428   4.866   4.999   8.541  0.0628  0.2420  0.0266
 4598TIP3    H135429   4.774   5.020   8.525 -0.0543 -0.5151 -0.3402
 4598TIP3    H235430   4.872   4.904   8.529  1.3112  0.5250 -2.0012
 4599TIP3   OH235431   0.118   1.693   1.784  0.2739 -0.6725 -0.6366
 4599TIP3    H135432   0.168   1.720   1.706  0.9825  0.6300  0.2230
 4599TIP3    H235433   0.169   1.620   1.820  0.4892 -0.6311 -0.8473
 4600TIP3   OH235434   6.318   3.644   1.362  0.6522  0.0057  0.2710
 4600TIP3    H135435   6.354   3.571   1.411  1.3334  0.1928  0.0524
 4600TIP3    H235436   6.226   3.647   1.388  0.5955 -0.9852  0.2069
 4601TIP3   OH235437   4.682   4.349   2.080  0.6022 -0.0450 -0.4819
 4601TIP3    H135438   4.749   4.395   2.029 -0.6538  0.9387 -1.2806
 4601TIP3    H235439   4.704   4.257   2.070  1.9843  0.2583 -0.5149
 4602TIP3   OH235440   2.602   2.585   2.137  0.2274  0.1549  0.1444
 4602TIP3    H135441   2.636   2.501   2.104 -0.3120 -0.6306  1.5009
 4602TIP3    H235442   2.514   2.564   2.170  0.3673  1.0925  1.1720
 4603TIP3   OH235443   6.036   3.571   1.410  0.1798  0.2977 -0.3414
 4603TIP3    H135444   5.943   3.580   1.390  0.0805 -1.3663 -0.8494
 4603TIP3    H235445   6.041   3.569   1.505 -0.3491  0.1560 -0.3145
 4604TIP3   OH235446   5.460   0.751   0.197 -0.5211  0.3199  0.0124
 4604TIP3    H135447   5.520   0.764   0.124  0.1420  0.1568  0.5169
 4604TIP3    H235448   5.480   0.662   0.228 -1.0937  0.2272  0.1235
 4605TIP3   OH235449   2.913   6.731   2.372  0.0325  0.6053  0.8416
 4605TIP3    H135450   2.832   6.720   2.422  0.1054 -0.8669  0.6896
 4605TIP3    H235451   2.930   6.825   2.375 -3.0105  1.3675 -1.2293
 4606TIP3   OH235452   1.436   1.705   2.016 -1.0478  0.9017  0.7196
 4606TIP3    H135453   1.369   1.702   1.948 -1.2330  0.3062  0.9235
 4606TIP3    H235454   1.400   1.653   2.088  0.9223 -2.3204 -0.3602
 4607TIP3   OH235455   6.784   3.639   2.248  0.6983  0.3751 -0.3501
 4607TIP3    H135456   6.798   3.635   2.343  1.5325 -1.7625 -0.4950
 4607TIP3    H235457   6.724   3.567   2.230 -1.7871  2.4959 -1.1786
 4608TIP3   OH235458   2.205   5.979   1.466 -0.2317 -0.5372  0.2744
 4608TIP3    H135459   2.122   6.026   1.462 -0.9689 -1.8586 -1.0869
 4608TIP3    H235460   2.180   5.888   1.479  0.9883 -1.0019 -0.5008
 4609TIP3   OH235461   2.431   6.586   1.069 -0.4806  0.0434 -0.1574
 4609TIP3    H135462   2.516   6.630   1.083 -0.5170  0.0513  0.0497
 4609TIP3    H235463   2.439   6.504   1.117  0.3080 -1.1063 -2.1523
 4610TIP3   OH235464   4.289   2.513   1.155 -0.3777  0.0691 -0.0757
 4610TIP3    H135465   4.215   2.537   1.210  0.0055  0.2304  0.3782
 4610TIP3    H235466   4.322   2.432   1.193  2.3501  2.1297  2.5058
 4611TIP3   OH235467   1.983   6.315   8.677  0.8664  0.2210 -0.6359
 4611TIP3    H135468   1.927   6.322   8.599  0.7519 -0.1501 -0.5898
 4611TIP3    H235469   1.958   6.231   8.717  0.0905  0.9424  0.4427
 4612TIP3   OH235470   3.542   5.901   1.230  0.0647  0.4926 -0.0950
 4612TIP3    H135471   3.462   5.947   1.203  0.3542 -0.2949 -2.5413
 4612TIP3    H235472   3.520   5.862   1.314 -2.0306  0.5679 -0.5477
 4613TIP3   OH235473   5.404   1.162   0.021  0.1525  0.5456  0.2270
 4613TIP3    H135474   5.344   1.211  -0.035  0.2159 -1.2927 -1.5332
 4613TIP3    H235475   5.355   1.148   0.102 -1.6451 -0.4389 -0.9613
 4614TIP3   OH235476   0.919   1.059   1.887 -0.2814  0.2838  0.3301
 4614TIP3    H135477   0.938   0.994   1.819  1.3688 -0.4163  1.4056
 4614TIP3    H235478   0.832   1.034   1.920 -1.1037  0.6224 -1.4438
 4615TIP3   OH235479   2.011   6.510   1.595  0.0783  0.1916  0.3936
 4615TIP3    H135480   1.929   6.478   1.558 -0.5471  1.2327  0.8589
 4615TIP3    H235481   2.036   6.584   1.540  0.2590  0.4054  0.7567
 4616TIP3   OH235482   2.940   2.097   3.354  0.1201 -0.4598  0.3499
 4616TIP3    H135483   3.010   2.143   3.308  1.0189 -0.1826  1.9425
 4616TIP3    H235484   2.964   2.004   3.348  0.6256 -0.3648  0.8908
 4617TIP3   OH235485   2.485   3.604   0.610  0.1093  0.1310  0.2428
 4617TIP3    H135486   2.513   3.664   0.541 -0.2600 -0.1761 -0.1771
 4617TIP3    H235487   2.433   3.538   0.565  1.3391 -1.0939  0.5394
 4618TIP3   OH235488   2.417   2.579   8.558  0.4170 -0.6867  0.7519
 4618TIP3    H135489   2.416   2.488   8.530 -0.0502  0.2962 -3.0714
 4618TIP3    H235490   2.505   2.593   8.591  0.6079 -2.4299  1.0479
 4619TIP3   OH235491   5.775   2.220   3.463  0.0486  0.7268  0.3016
 4619TIP3    H135492   5.747   2.185   3.378  0.5735 -1.5990  1.0407
 4619TIP3    H235493   5.695   2.258   3.500 -0.3297  1.1904 -0.9319
 4620TIP3   OH235494   2.360   6.171   0.364 -0.0596  0.1475  0.0259
 4620TIP3    H135495   2.440   6.137   0.324 -1.2355 -2.8587 -0.0735
 4620TIP3    H235496   2.369   6.151   0.457 -0.5018  0.2316  0.0889
 4621TIP3   OH235497   2.195   6.117   0.136  0.1283 -0.3398  0.3867
 4621TIP3    H135498   2.220   6.034   0.095  1.6310  0.4966 -0.4819
 4621TIP3    H235499   2.254   6.125   0.212 -2.3695 -1.6935  2.6331
 4622TIP3   OH235500   3.150   5.767   7.641  0.0915  0.4236 -0.4100
 4622TIP3    H135501   3.130   5.770   7.547 -1.0736 -0.4029 -0.2139
 4622TIP3    H235502   3.125   5.678   7.668  0.4930  0.6247  0.6676
 4623TIP3   OH235503   2.243   4.709   1.910 -0.3527  0.2988 -0.5476
 4623TIP3    H135504   2.227   4.655   1.833 -0.8846 -1.0828  0.4897
 4623TIP3    H235505   2.164   4.699   1.963 -0.8817  2.8606 -0.7079
 4624TIP3   OH235506   3.842   0.388   1.823 -0.2005  0.1502  0.0209
 4624TIP3    H135507   3.792   0.308   1.839  0.2552 -0.1959 -0.2635
 4624TIP3    H235508   3.778   0.459   1.831 -1.1059 -0.3765 -1.8719
 4625TIP3   OH235509   6.561   3.580   2.058 -0.6388 -0.3583  0.3376
 4625TIP3    H135510   6.612   3.544   1.986 -1.0238 -0.2609  0.0107
 4625TIP3    H235511   6.485   3.621   2.015 -1.1093 -0.7062  0.8325
 4626TIP3   OH235512   2.996   5.250   3.043  0.4192  0.9110 -0.1929
 4626TIP3    H135513   2.903   5.252   3.065  0.5121 -1.0539  0.6849
 4626TIP3    H235514   3.038   5.296   3.116  0.1911  0.8682 -0.0309
 4627TIP3   OH235515   1.426   5.959   7.063  0.4966 -0.0884 -0.4459
 4627TIP3    H135516   1.439   5.982   6.971  1.2711  0.8792 -0.1162
 4627TIP3    H235517   1.377   5.877   7.061 -1.4931  1.0505 -1.7076
 4628TIP3   OH235518   0.086   3.316   2.298 -0.0259  0.4475  0.0776
 4628TIP3    H135519   0.060   3.235   2.255  0.2496  0.0502  0.6506
 4628TIP3    H235520   0.018   3.331   2.364 -0.3076  0.9181 -0.3045
 4629TIP3   OH235521   5.217   1.884   8.346  0.1437  0.0812  0.2373
 4629TIP3    H135522   5.244   1.974   8.366  0.4129 -0.0438  0.4452
 4629TIP3    H235523   5.266   1.862   8.267  0.2816  0.0261  0.3371
 4630TIP3   OH235524   4.505   5.982   0.286  0.4924  0.2305 -0.4814
 4630TIP3    H135525   4.448   5.984   0.363  1.8622 -2.2736  0.7370
 4630TIP3    H235526   4.490   6.066   0.243 -0.8954  1.4367  2.0946
 4631TIP3   OH235527   4.432   1.981   7.194 -0.5162  0.3115 -0.3398
 4631TIP3    H135528   4.515   2.008   7.155 -0.7362  0.2272 -0.8707
 4631TIP3    H235529   4.377   1.956   7.120 -0.8422 -0.1260  0.0409
 4632TIP3   OH235530   4.685   1.785   3.050 -0.2995  0.0127 -0.1569
 4632TIP3    H135531   4.757   1.807   3.109  0.2496 -0.1097 -0.7750
 4632TIP3    H235532   4.698   1.692   3.030  1.5469  0.7827 -3.1591
 4633TIP3   OH235533   3.710   1.146   2.505 -0.3278  0.0203  0.2656
 4633TIP3    H135534   3.656   1.075   2.540 -0.7403  0.9123  1.5147
 4633TIP3    H235535   3.664   1.173   2.426 -0.4835 -0.7169  0.0963
 4634TIP3   OH235536   6.246   4.168   3.070  0.6754 -0.2083 -0.0504
 4634TIP3    H135537   6.177   4.110   3.101  0.6337 -0.7108 -1.0626
 4634TIP3    H235538   6.327   4.125   3.096  0.6382  0.2757  0.9449
 4635TIP3   OH235539   3.657   1.019   0.783  0.1911  0.7662 -0.2559
 4635TIP3    H135540   3.703   1.096   0.818 -0.7567  0.4943  1.7168
 4635TIP3    H235541   3.637   1.043   0.693  3.8575  1.0116 -1.1476
 4636TIP3   OH235542   5.058   5.622   1.895  0.4661 -0.1108  0.4083
 4636TIP3    H135543   5.067   5.696   1.835 -1.2258 -1.2479 -1.3670
 4636TIP3    H235544   5.044   5.546   1.838  0.3200 -1.5189  2.2116
 4637TIP3   OH235545   2.142   0.189   0.888 -0.3114 -0.5827 -0.3545
 4637TIP3    H135546   2.096   0.145   0.816  0.2258 -1.5699 -0.1078
 4637TIP3    H235547   2.108   0.279   0.886 -1.5276 -1.0218 -0.8002
 4638TIP3   OH235548   5.734   0.858   7.410 -0.0878  0.4851  0.0728
 4638TIP3    H135549   5.830   0.866   7.413 -0.1064  0.5295  0.6512
 4638TIP3    H235550   5.702   0.938   7.450 -0.3240 -0.4804  1.9320
 4639TIP3   OH235551   0.528   0.965   0.230  0.0335 -0.1977 -0.2140
 4639TIP3    H135552   0.582   0.907   0.176 -0.9780  1.5991 -3.4692
 4639TIP3    H235553   0.560   1.053   0.210 -3.2885  0.8686 -1.5075
 4640TIP3   OH235554   5.959   4.087   0.903 -0.6101 -0.5128  0.5076
 4640TIP3    H135555   5.928   4.177   0.908  1.6179  0.4124 -0.8525
 4640TIP3    H235556   5.995   4.069   0.990  0.2072  0.4435  0.3853
 4641TIP3   OH235557   3.233   1.540   2.897 -0.4971  0.6033 -0.3798
 4641TIP3    H135558   3.261   1.457   2.859 -2.7204 -0.7038  0.6123
 4641TIP3    H235559   3.313   1.591   2.905  1.3603 -2.2481  0.9474
 4642TIP3   OH235560   6.045   6.225   2.966 -0.4451 -1.3071  0.5390
 4642TIP3    H135561   6.117   6.161   2.969 -0.1726 -0.9943  2.4474
 4642TIP3    H235562   6.083   6.304   3.003 -1.2099 -0.4928 -0.3899
 4643TIP3   OH235563   2.347   2.111   0.147  0.6594  0.2254 -0.0753
 4643TIP3    H135564   2.387   2.190   0.185  2.3011 -0.8000  0.4304
 4643TIP3    H235565   2.260   2.107   0.186  0.6371  1.6346  0.0879
 4644TIP3   OH235566   3.995   3.086   7.992  0.8952  0.1261 -0.0548
 4644TIP3    H135567   3.928   3.051   7.933  0.6041 -1.3842  1.1052
 4644TIP3    H235568   4.078   3.053   7.957  0.9279  0.9073 -0.7413
 4645TIP3   OH235569   1.287   3.386   0.069  0.3866 -0.0750 -0.1455
 4645TIP3    H135570   1.259   3.379  -0.022 -1.3141  0.9766  0.2429
 4645TIP3    H235571   1.345   3.311   0.082 -1.1769 -1.5899 -1.4512
 4646TIP3   OH235572   4.382   1.989   2.714 -0.4081 -0.2500  0.0883
 4646TIP3    H135573   4.303   2.028   2.676 -1.2011 -1.6494  0.2207
 4646TIP3    H235574   4.355   1.959   2.801 -0.5572 -3.2004 -0.8774
 4647TIP3   OH235575   4.422   5.083   0.897 -0.3469  0.0220 -0.6090
 4647TIP3    H135576   4.449   4.994   0.873 -2.0844 -0.2983 -1.6288
 4647TIP3    H235577   4.459   5.139   0.829  0.4355  0.0312 -0.1781
 4648TIP3   OH235578   0.267   0.943   0.096 -0.7356  0.3310 -0.2513
 4648TIP3    H135579   0.243   0.877   0.031 -1.7920  1.6876 -1.3061
 4648TIP3    H235580   0.361   0.932   0.109 -1.2642 -3.3449  1.9029
 4649TIP3   OH235581   6.568   0.288   2.711  0.0360 -0.0445  0.2699
 4649TIP3    H135582   6.581   0.291   2.806  1.0919 -2.2444  0.2492
 4649TIP3    H235583   6.480   0.250   2.700 -0.4326  0.9824  0.3392
 4650TIP3   OH235584   5.190   2.883   0.434  0.3076 -0.1790  0.0095
 4650TIP3    H135585   5.120   2.823   0.460 -0.1198  0.2385 -0.1689
 4650TIP3    H235586   5.159   2.923   0.353  0.1362  1.0204  0.6449
 4651TIP3   OH235587   4.050   0.244   7.751  0.0293 -0.0090 -0.0420
 4651TIP3    H135588   4.110   0.210   7.817  0.2092  0.3799 -0.0053
 4651TIP3    H235589   4.094   0.230   7.668 -0.9079 -2.0703 -0.2586
 4652TIP3   OH235590   0.767   3.520   0.670  0.0795 -0.4497 -0.5264
 4652TIP3    H135591   0.743   3.606   0.636 -1.1434 -0.9305 -0.9224
 4652TIP3    H235592   0.702   3.502   0.738  0.7451 -0.7709  0.0353
 4653TIP3   OH235593   4.169   3.041   0.325  0.1903  0.6254 -0.1661
 4653TIP3    H135594   4.136   3.045   0.415 -0.8192  0.8012 -0.5310
 4653TIP3    H235595   4.183   2.947   0.308  0.2034  0.5783  0.1076
 4654TIP3   OH235596   4.768   0.531   0.120  0.2481 -0.7852 -0.2354
 4654TIP3    H135597   4.825   0.578   0.182 -1.2460 -1.4162  1.7499
 4654TIP3    H235598   4.680   0.563   0.141 -0.3428 -1.2061 -1.9312
 4655TIP3   OH235599   0.094   2.879   2.332  0.5722  0.2993  0.4372
 4655TIP3    H135600   0.071   2.787   2.325  1.2841  0.1771 -0.4959
 4655TIP3    H235601   0.059   2.907   2.416 -1.5727 -0.2644 -0.2056
 4656TIP3   OH235602   5.488   4.023   1.740  0.1784  0.0485 -0.3620
 4656TIP3    H135603   5.564   3.996   1.792 -0.6977 -0.1730  0.8460
 4656TIP3    H235604   5.520   4.095   1.686  1.2022  0.0934  0.2734
 4657TIP3   OH235605   6.660   6.264   1.720  0.0009 -0.2154  0.4083
 4657TIP3    H135606   6.565   6.272   1.724  0.0824  0.4151  1.1590
 4657TIP3    H235607   6.684   6.217   1.800  0.1776 -1.9379 -0.6052
 4658TIP3   OH235608   5.178   3.292   0.014 -0.6359  0.6816  0.0483
 4658TIP3    H135609   5.229   3.352   0.070  1.1442  0.7810 -1.5758
 4658TIP3    H235610   5.142   3.348  -0.054 -1.6134  0.3437  0.2712
 4659TIP3   OH235611   2.178   5.301   0.651 -0.6645  0.2574 -0.6165
 4659TIP3    H135612   2.268   5.296   0.619 -0.5703 -2.2721 -0.1262
 4659TIP3    H235613   2.187   5.315   0.745 -0.7536 -0.3253 -0.5168
 4660TIP3   OH235614   2.493   5.145   8.385  0.2948  0.1913  0.1374
 4660TIP3    H135615   2.409   5.149   8.339 -0.1032 -1.1327  0.7028
 4660TIP3    H235616   2.475   5.094   8.464  1.9888 -1.6344 -0.5799
 4661TIP3   OH235617   5.320   6.763   2.936 -0.0756 -0.8530 -0.0366
 4661TIP3    H135618   5.265   6.704   2.884 -0.7000 -1.2431  1.0399
 4661TIP3    H235619   5.258   6.814   2.987  0.5471 -1.6471  1.5783
 4662TIP3   OH235620   4.993   0.960   0.199 -0.2729 -0.4623  0.0419
 4662TIP3    H135621   5.022   0.971   0.289  1.5285  0.7995 -0.6250
 4662TIP3    H235622   4.964   1.048   0.172 -1.0291 -0.8767 -0.5312
 4663TIP3   OH235623   1.818   5.920   7.982  0.2485  0.1023  0.5097
 4663TIP3    H135624   1.750   5.942   7.918  1.3197  0.3742 -0.5642
 4663TIP3    H235625   1.769   5.898   8.062 -1.2276 -1.7246 -0.7931
 4664TIP3   OH235626   5.112   3.915   0.671 -0.0688 -0.5204  0.2930
 4664TIP3    H135627   5.191   3.927   0.723 -0.6316  0.6307  0.9395
 4664TIP3    H235628   5.138   3.936   0.582  0.5773 -1.1310  0.3296
 4665TIP3   OH235629   1.300   3.920   8.189 -0.4207  0.3789 -0.5394
 4665TIP3    H135630   1.388   3.943   8.218 -0.6252  0.9860 -0.3729
 4665TIP3    H235631   1.247   3.927   8.269 -0.6862  0.3866 -0.7167
 4666TIP3   OH235632   6.842   2.449   0.466  0.0824 -0.3282  0.0217
 4666TIP3    H135633   6.815   2.357   0.463 -1.1319  0.0438 -1.8409
 4666TIP3    H235634   6.793   2.486   0.539 -1.5438 -0.5598 -0.9130
 4667TIP3   OH235635   4.675   3.962   0.496  0.4870 -0.3273  0.0941
 4667TIP3    H135636   4.692   3.950   0.590 -0.2284 -1.4483  0.1069
 4667TIP3    H235637   4.679   3.873   0.460  0.4981  0.0651 -0.8919
 4668TIP3   OH235638   3.230   6.537   0.084  0.1890  0.4076 -0.0497
 4668TIP3    H135639   3.261   6.480   0.155  1.6065  0.9486 -0.2169
 4668TIP3    H235640   3.233   6.482   0.006 -3.1366 -0.7902  0.4988
 4669TIP3   OH235641   2.487   0.203   7.962 -0.6381 -0.4278  0.5862
 4669TIP3    H135642   2.435   0.136   7.917  0.2090 -0.3911 -0.4892
 4669TIP3    H235643   2.570   0.206   7.913 -0.0588  0.3068  1.5724
 4670TIP3   OH235644   4.159   6.685   0.189 -0.4565  0.1735  0.5645
 4670TIP3    H135645   4.081   6.741   0.194 -0.8954  0.0564 -2.8852
 4670TIP3    H235646   4.146   6.633   0.110  1.9381 -1.7884  1.3579
 4671TIP3   OH235647   4.360   4.153   2.512  0.1171 -0.4898 -0.4568
 4671TIP3    H135648   4.371   4.248   2.510  0.7360 -0.5642 -1.0703
 4671TIP3    H235649   4.274   4.138   2.472 -0.4233 -0.1377  0.5467
 4672TIP3   OH235650   4.385   0.100   1.167 -0.3221  0.4356 -0.4379
 4672TIP3    H135651   4.443   0.172   1.194 -0.4918 -0.1060  1.5783
 4672TIP3    H235652   4.386   0.040   1.242  0.7873 -2.3157 -2.4905
 4673TIP3   OH235653   2.205   0.833   7.360 -0.2469  0.3576  0.1257
 4673TIP3    H135654   2.142   0.806   7.293 -1.0167  1.6057  0.3231
 4673TIP3    H235655   2.156   0.831   7.442  0.1714  0.6502  0.3867
 4674TIP3   OH235656   1.175   6.150   7.015 -0.5033  0.1425  0.4006
 4674TIP3    H135657   1.247   6.086   7.014 -0.3371  0.3075 -0.9712
 4674TIP3    H235658   1.099   6.100   7.044 -0.2593 -0.5711 -0.1438
 4675TIP3   OH235659   0.719   3.938   0.303 -0.1821  1.0181  0.3320
 4675TIP3    H135660   0.767   3.931   0.220 -0.3825 -0.4976  0.3150
 4675TIP3    H235661   0.628   3.923   0.279 -0.0602 -1.1750  1.0028
 4676TIP3   OH235662   5.969   5.838   0.353 -0.1752 -0.0313 -0.2255
 4676TIP3    H135663   6.063   5.826   0.366  0.5250  1.4085 -3.0376
 4676TIP3    H235664   5.948   5.918   0.401 -0.2219 -0.9283  1.2750
 4677TIP3   OH235665   1.336   2.411   8.343 -0.0319  0.6321 -0.2645
 4677TIP3    H135666   1.268   2.437   8.281  1.4551  2.1165 -1.3619
 4677TIP3    H235667   1.350   2.488   8.397  2.1274  1.0785 -1.3628
 4678TIP3   OH235668   4.644   5.361   2.641 -0.1215  0.5035 -0.0522
 4678TIP3    H135669   4.603   5.364   2.727 -1.7696 -1.6208 -0.6692
 4678TIP3    H235670   4.584   5.408   2.583  1.0811  2.1082 -0.0646
 4679TIP3   OH235671   4.803   5.804   1.682 -0.8609  0.2744 -0.2843
 4679TIP3    H135672   4.800   5.878   1.621 -2.4377  0.2929 -0.2132
 4679TIP3    H235673   4.743   5.739   1.644 -0.0932 -0.6663  0.0581
 4680TIP3   OH235674   6.351   2.523   1.908  0.3650 -0.1718 -0.3052
 4680TIP3    H135675   6.404   2.570   1.844 -0.6315  2.0056  0.3366
 4680TIP3    H235676   6.348   2.582   1.984 -1.5587 -0.9664  0.3031
 4681TIP3   OH235677   6.803   1.699   0.681  0.2221  0.0624 -0.5798
 4681TIP3    H135678   6.796   1.609   0.713 -1.5297 -0.2521 -1.6787
 4681TIP3    H235679   6.893   1.706   0.650  0.6701 -0.9971  0.4169
 4682TIP3   OH235680   2.412   3.766   2.126  0.2130  0.1734  0.0336
 4682TIP3    H135681   2.403   3.718   2.208 -0.3573  1.1441  0.5567
 4682TIP3    H235682   2.499   3.805   2.130 -0.1179  0.8789  0.5544
 4683TIP3   OH235683   6.112   0.503   2.589  0.3572 -0.3701 -0.5300
 4683TIP3    H135684   6.183   0.488   2.527 -1.4163  0.9449 -3.1040
 4683TIP3    H235685   6.053   0.428   2.577  0.1153 -0.2340 -0.2221
 4684TIP3   OH235686   4.423   3.113   0.158 -0.1787  0.2880  0.3525
 4684TIP3    H135687   4.415   3.068   0.242  1.2950  0.9326  0.8662
 4684TIP3    H235688   4.433   3.043   0.094  0.1891 -0.1732  0.9077
 4685TIP3   OH235689   2.379   2.189   1.166 -0.6927 -0.2152 -0.2397
 4685TIP3    H135690   2.419   2.107   1.137 -0.0114  0.9714 -3.0634
 4685TIP3    H235691   2.451   2.253   1.164 -1.7167  0.9754 -0.6895
 4686TIP3   OH235692   1.937   3.681   2.274  0.2701 -0.0489 -0.1627
 4686TIP3    H135693   1.968   3.647   2.358  0.3393 -2.1204 -0.9645
 4686TIP3    H235694   2.006   3.739   2.244  0.9389 -0.4823  0.5189
 4687TIP3   OH235695   0.902   1.959   2.101 -0.0155 -0.5686 -0.1098
 4687TIP3    H135696   0.851   2.004   2.168  0.6850  1.1366 -0.6768
 4687TIP3    H235697   0.956   2.027   2.061  0.7578 -1.8311 -1.3331
 4688TIP3   OH235698   5.345   1.785   8.102 -0.6535 -0.3098 -0.1403
 4688TIP3    H135699   5.438   1.771   8.084 -0.8730 -0.3469 -1.3145
 4688TIP3    H235700   5.306   1.698   8.094 -1.0529 -0.0332 -1.3592
 4689TIP3   OH235701   6.504   2.670   1.707  0.4030 -0.2997  0.3193
 4689TIP3    H135702   6.530   2.738   1.769  0.3692  0.0315 -0.0262
 4689TIP3    H235703   6.508   2.712   1.621 -2.9738  0.3344  0.3514
 4690TIP3   OH235704   5.288   1.697   2.582 -0.2047  0.0229 -0.0293
 4690TIP3    H135705   5.309   1.726   2.671  0.7415  1.2453 -0.6068
 4690TIP3    H235706   5.336   1.614   2.571 -0.9030 -0.4989  0.8247
 4691TIP3   OH235707   3.346   3.953   2.252 -0.4840 -0.3591  0.3588
 4691TIP3    H135708   3.394   3.872   2.268 -0.7196 -0.4547  0.5867
 4691TIP3    H235709   3.256   3.924   2.235 -0.7282 -0.0984  1.1698
 4692TIP3   OH235710   0.712   1.774   0.271  0.1647  0.1553 -0.0702
 4692TIP3    H135711   0.714   1.858   0.317  0.6139 -0.6763  1.5029
 4692TIP3    H235712   0.780   1.781   0.204 -1.6532  2.0249 -1.8879
 4693TIP3   OH235713   1.850   6.132   2.774 -0.3109  0.1934  0.3568
 4693TIP3    H135714   1.908   6.097   2.706  2.3995  1.0603  2.0699
 4693TIP3    H235715   1.833   6.222   2.748 -0.4739  0.0947  0.1171
 4694TIP3   OH235716   6.545   0.600   2.126  0.0471 -0.9397 -0.0977
 4694TIP3    H135717   6.626   0.603   2.076 -0.1327  0.3964 -0.3362
 4694TIP3    H235718   6.573   0.599   2.217  0.3334 -0.8100 -0.1828
 4695TIP3   OH235719   1.791   1.729   2.499 -0.1369  0.8133  0.3962
 4695TIP3    H135720   1.724   1.754   2.562 -1.7049 -1.0544 -0.4508
 4695TIP3    H235721   1.866   1.785   2.520 -1.6484  2.3569  1.9181
 4696TIP3   OH235722   5.775   2.536   1.474 -0.0384 -0.0648 -0.5599
 4696TIP3    H135723   5.725   2.501   1.548  0.2376 -2.2981 -1.3485
 4696TIP3    H235724   5.768   2.469   1.406  2.1135  0.5745 -1.5178
 4697TIP3   OH235725   3.003   0.446   2.325 -0.2621  0.1272 -0.5583
 4697TIP3    H135726   3.070   0.515   2.331 -1.8089  1.7876 -1.4932
 4697TIP3    H235727   2.970   0.438   2.415  1.0445 -0.6096 -0.1156
 4698TIP3   OH235728   4.024   5.790   0.403 -0.8418  0.4802 -0.2132
 4698TIP3    H135729   4.001   5.789   0.496 -0.6507  3.3062 -0.0368
 4698TIP3    H235730   4.088   5.862   0.395  0.9909 -1.2185 -2.1750
 4699TIP3   OH235731   4.155   1.024   0.671 -0.1608 -0.4939 -0.1629
 4699TIP3    H135732   4.148   1.056   0.581  0.1843 -0.0495 -0.0330
 4699TIP3    H235733   4.083   0.961   0.679 -0.9824  0.3850 -0.3658
 4700TIP3   OH235734   2.809   6.307   8.191  0.5210 -0.0466 -0.8625
 4700TIP3    H135735   2.870   6.304   8.264 -0.1885 -0.5284 -0.2779
 4700TIP3    H235736   2.756   6.228   8.201 -1.3045  1.1773 -0.3802
 4701TIP3   OH235737   6.514   2.780   8.334 -0.4902 -0.3874 -0.2637
 4701TIP3    H135738   6.436   2.748   8.287 -0.7566 -0.7221  0.4050
 4701TIP3    H235739   6.559   2.701   8.363 -1.9621 -0.2514  2.7469
 4702TIP3   OH235740   3.206   4.385   2.707  0.1640  0.1816  0.4910
 4702TIP3    H135741   3.240   4.471   2.683 -1.4156  0.9248  0.8539
 4702TIP3    H235742   3.129   4.373   2.651 -1.0688  0.0842  2.1462
 4703TIP3   OH235743   3.593   2.902   0.158  0.2983 -0.2945  0.3727
 4703TIP3    H135744   3.653   2.880   0.229 -0.0486 -1.3272  0.3641
 4703TIP3    H235745   3.615   2.842   0.088  0.5333  0.6186 -0.3597
 4704TIP3   OH235746   3.241   0.650   0.151  0.4307  0.1148 -0.0064
 4704TIP3    H135747   3.313   0.592   0.175  1.6440  1.9067  0.8829
 4704TIP3    H235748   3.180   0.593   0.103  1.5408 -1.8637  0.7969
 4705TIP3   OH235749   0.421   2.024   1.144 -0.4627  0.4198 -0.5430
 4705TIP3    H135750   0.425   2.119   1.152 -2.1428  0.5058 -0.3995
 4705TIP3    H235751   0.441   2.008   1.052  1.4144  0.7596 -0.2325
 4706TIP3   OH235752   2.317   5.187   7.849  0.0624 -0.0624  0.2861
 4706TIP3    H135753   2.250   5.247   7.817  2.5257  2.4015 -0.6624
 4706TIP3    H235754   2.355   5.149   7.770  0.1243 -1.0386  0.7786
 4707TIP3   OH235755   2.983   2.191   1.086 -0.0289 -0.2399 -0.3152
 4707TIP3    H135756   3.059   2.242   1.058 -1.0339  1.0128 -0.8518
 4707TIP3    H235757   3.015   2.101   1.092  0.8934 -0.1963 -3.0878
 4708TIP3   OH235758   6.833   1.178   2.454  0.4315  0.2081 -0.2470
 4708TIP3    H135759   6.830   1.240   2.527  2.1484 -1.4136  1.3040
 4708TIP3    H235760   6.742   1.147   2.445  0.1156  0.7539  0.9019
 4709TIP3   OH235761   2.688   5.202   7.357  0.2131 -0.5080  0.2909
 4709TIP3    H135762   2.615   5.219   7.297  0.1101 -1.4315  0.1440
 4709TIP3    H235763   2.766   5.226   7.307  0.1721 -1.7957 -0.4513
 4710TIP3   OH235764   1.154   6.025   2.532  0.4361  0.4019 -0.2819
 4710TIP3    H135765   1.181   6.117   2.531  0.1337  0.5165  0.7427
 4710TIP3    H235766   1.106   6.015   2.614  0.6178 -0.7178 -0.2913
 4711TIP3   OH235767   6.131   3.569   3.068 -0.2886 -0.1569 -0.4840
 4711TIP3    H135768   6.169   3.646   3.026 -0.0477 -0.2073 -0.3632
 4711TIP3    H235769   6.191   3.550   3.141  1.5193 -2.3761 -2.3755
 4712TIP3   OH235770   5.801   2.703   8.377 -0.1935  0.6281  0.0404
 4712TIP3    H135771   5.800   2.640   8.305 -0.5807  0.9415 -0.2399
 4712TIP3    H235772   5.893   2.728   8.386 -0.2485  1.3042 -1.0032
 4713TIP3   OH235773   5.703   5.425   8.781 -0.1067 -0.1892 -0.1308
 4713TIP3    H135774   5.680   5.332   8.789 -2.3694  0.4569  2.1605
 4713TIP3    H235775   5.792   5.430   8.814 -0.1689 -1.4851  0.3031
 4714TIP3   OH235776   5.296   3.752   1.691  0.1539 -0.4044  0.6519
 4714TIP3    H135777   5.382   3.768   1.650 -0.5210  3.2983  0.3200
 4714TIP3    H235778   5.239   3.730   1.618 -0.0509  1.5818  0.1539
 4715TIP3   OH235779   2.893   4.657   0.239  0.2536 -0.1887  0.4099
 4715TIP3    H135780   2.851   4.572   0.249 -0.3213 -0.0756 -0.9012
 4715TIP3    H235781   2.947   4.666   0.318 -0.6997 -1.1709  1.2120
 4716TIP3   OH235782   4.571   5.632   0.255 -0.4196  0.4796  0.1544
 4716TIP3    H135783   4.498   5.677   0.297 -0.8360 -0.0667  0.0318
 4716TIP3    H235784   4.573   5.546   0.297 -0.5916  0.0684 -0.6623
 4717TIP3   OH235785   2.452   1.903   0.014 -0.5101 -0.2161 -0.2256
 4717TIP3    H135786   2.383   1.873  -0.045 -0.0260  1.1928 -1.5969
 4717TIP3    H235787   2.408   1.968   0.070 -0.4769  0.1602 -0.6251
 4718TIP3   OH235788   4.278   3.238   1.945 -0.2409 -0.0943  0.0119
 4718TIP3    H135789   4.209   3.220   2.009 -0.8070 -0.4245 -0.6643
 4718TIP3    H235790   4.359   3.232   1.994 -0.6735 -0.1250  0.7408
 4719TIP3   OH235791   4.453   0.033   8.430  0.3417  0.4219  0.0242
 4719TIP3    H135792   4.446  -0.036   8.364 -0.6465  1.5147 -1.0705
 4719TIP3    H235793   4.428  -0.009   8.512  1.2656 -0.8847 -0.3346
 4720TIP3   OH235794   6.530   0.008   2.551  0.0188 -0.5906 -0.2577
 4720TIP3    H135795   6.540  -0.084   2.529  0.8472 -0.4129 -0.6551
 4720TIP3    H235796   6.499   0.008   2.642  1.1239 -1.2400  0.1316
 4721TIP3   OH235797   3.416   4.243   1.010 -0.0040  0.2994  0.6488
 4721TIP3    H135798   3.480   4.297   1.056 -1.5905  1.0269  2.1049
 4721TIP3    H235799   3.416   4.160   1.057 -0.7671  0.6295  1.2612
 4722TIP3   OH235800   1.125   2.454   0.903  0.1641  0.4093 -0.0072
 4722TIP3    H135801   1.060   2.483   0.838 -0.7387 -0.1179  0.6316
 4722TIP3    H235802   1.094   2.491   0.985  0.3806 -0.2877  0.3953
 4723TIP3   OH235803   4.414   4.921   7.805 -0.0872 -0.0116  0.0428
 4723TIP3    H135804   4.321   4.905   7.787  0.4326 -1.7687 -1.3104
 4723TIP3    H235805   4.427   5.013   7.781 -1.2838  0.0203 -0.5921
 4724TIP3   OH235806   6.033   3.901   2.672 -0.3256  0.0947 -0.4131
 4724TIP3    H135807   5.964   3.962   2.699  0.6577  2.0135 -1.9448
 4724TIP3    H235808   6.089   3.892   2.748 -1.0030  0.3702  0.1282
 4725TIP3   OH235809   0.819   2.928   1.469 -0.4789 -0.2094  0.2997
 4725TIP3    H135810   0.887   2.902   1.531  0.1792 -0.0531 -0.3450
 4725TIP3    H235811   0.784   3.010   1.505  0.5097  0.3563  0.0197
 4726TIP3   OH235812   4.822   6.568   1.618 -0.2108  0.2123  0.5333
 4726TIP3    H135813   4.754   6.565   1.550 -0.9071 -0.8918  1.2593
 4726TIP3    H235814   4.832   6.662   1.637 -1.8083  0.3820  0.6767
 4727TIP3   OH235815   2.211   4.012   1.512  0.0347 -0.3118 -0.0344
 4727TIP3    H135816   2.183   3.927   1.548 -0.5204 -1.2118 -2.4429
 4727TIP3    H235817   2.214   3.998   1.418 -1.1947  2.6995 -0.6095
 4728TIP3   OH235818   4.195   2.180   3.178  0.5222 -0.2427  0.2483
 4728TIP3    H135819   4.283   2.218   3.183  0.3817  0.5192 -1.9447
 4728TIP3    H235820   4.136   2.252   3.200  0.3708  0.0427 -1.0123
 4729TIP3   OH235821   0.214   1.544   0.988 -0.0928 -0.0890  0.4576
 4729TIP3    H135822   0.224   1.629   1.030  0.8427 -1.3246  2.9365
 4729TIP3    H235823   0.138   1.505   1.031 -0.1374 -0.7599 -0.2168
 4730TIP3   OH235824   1.143   6.677   3.383 -0.2173 -0.0802  0.0887
 4730TIP3    H135825   1.181   6.607   3.330 -0.5136  1.0329 -1.6743
 4730TIP3    H235826   1.185   6.668   3.469  0.5285 -1.7375 -0.4125
 4731TIP3   OH235827   1.029   6.651   3.088  0.2077  0.5215  0.4459
 4731TIP3    H135828   1.123   6.647   3.070  0.2170  1.1814  0.3340
 4731TIP3    H235829   1.022   6.646   3.183  0.4631  2.0897  0.5736
 4732TIP3   OH235830   3.961   4.186   2.162 -0.3647 -0.0618 -0.3969
 4732TIP3    H135831   4.026   4.243   2.121 -0.4779  0.3435 -0.0319
 4732TIP3    H235832   3.877   4.227   2.141 -0.6007 -1.2527 -1.8942
 4733TIP3   OH235833   3.158   5.823   8.531  0.5704  0.0914 -0.6166
 4733TIP3    H135834   3.070   5.860   8.521  0.8915  1.3187  0.6611
 4733TIP3    H235835   3.193   5.821   8.442 -0.7739 -0.5051 -1.1552
 4734TIP3   OH235836   1.557   5.956   0.848  0.0796 -0.6675  0.1174
 4734TIP3    H135837   1.503   6.007   0.788 -0.9969 -1.9798 -0.0859
 4734TIP3    H235838   1.520   5.974   0.935  1.7405  1.3601  0.4707
 4735TIP3   OH235839   5.602   6.728   2.339 -0.6520  0.6249 -0.3456
 4735TIP3    H135840   5.632   6.806   2.384 -1.8442  0.4842  0.7532
 4735TIP3    H235841   5.624   6.743   2.247  1.2483  1.1945  0.1617
 4736TIP3   OH235842   1.926   1.004   3.547  0.9130  0.0138  0.1051
 4736TIP3    H135843   1.987   1.076   3.531 -0.2721  1.5411  1.9792
 4736TIP3    H235844   1.840   1.046   3.544  0.2711 -0.8539  3.2535
 4737TIP3   OH235845   0.495   5.856   2.818 -0.1623  0.0831 -0.2463
 4737TIP3    H135846   0.493   5.933   2.874  0.4979  0.7461 -1.1057
 4737TIP3    H235847   0.415   5.808   2.839 -0.6174  1.0408  0.2459
 4738TIP3   OH235848   3.905   2.280   8.118 -0.0119  0.2825  0.5082
 4738TIP3    H135849   3.954   2.227   8.181 -0.4313 -0.2755  0.3602
 4738TIP3    H235850   3.965   2.290   8.044 -0.7018 -1.8189 -0.4038
 4739TIP3   OH235851   5.666   6.774   0.869  0.1054  0.0300 -0.0454
 4739TIP3    H135852   5.634   6.851   0.916 -1.1011 -0.1575 -0.5379
 4739TIP3    H235853   5.641   6.700   0.924  1.1570 -0.0375  0.3670
 4740TIP3   OH235854   3.701   5.123   8.432 -0.1152 -0.3041  0.1379
 4740TIP3    H135855   3.735   5.038   8.458  0.7455 -0.0513 -0.1091
 4740TIP3    H235856   3.743   5.140   8.347 -1.2796 -0.2080 -0.4289
 4741TIP3   OH235857   1.728   0.161   7.363  0.5809 -0.0149 -0.2012
 4741TIP3    H135858   1.632   0.169   7.361  0.4103 -1.1498  1.3846
 4741TIP3    H235859   1.758   0.220   7.295 -1.1288  2.6971  1.2002
 4742TIP3   OH235860   1.167   6.780   1.784 -0.4112  0.1857 -0.2277
 4742TIP3    H135861   1.101   6.837   1.824  0.6555  0.4500  1.2375
 4742TIP3    H235862   1.250   6.825   1.799  0.1923 -0.4551 -1.4713
 4743TIP3   OH235863   4.861   0.228   2.497 -0.2399  0.0301  0.6421
 4743TIP3    H135864   4.815   0.160   2.447  0.2490 -0.6711  1.1243
 4743TIP3    H235865   4.793   0.290   2.522 -0.3092  1.2542 -2.1652
 4744TIP3   OH235866   1.967   1.944   1.106  0.1575 -0.0384 -0.2079
 4744TIP3    H135867   1.881   1.930   1.065  0.0034 -0.1041  0.1354
 4744TIP3    H235868   1.994   2.030   1.074  0.5486 -0.5566 -1.3357
 4745TIP3   OH235869   2.309   6.268   8.011  0.5594 -0.6092  0.1819
 4745TIP3    H135870   2.299   6.349   7.960 -1.7153 -1.1526 -0.3756
 4745TIP3    H235871   2.223   6.255   8.052 -0.0094 -3.9522 -1.6840
 4746TIP3   OH235872   4.348   5.439   0.637  0.0228  0.8116  0.1596
 4746TIP3    H135873   4.262   5.397   0.635  0.0928  0.6159  0.8098
 4746TIP3    H235874   4.341   5.504   0.707  0.9956 -0.5535  1.5989
 4747TIP3   OH235875   2.746   6.433   8.693 -0.1697 -0.3190 -0.1508
 4747TIP3    H135876   2.694   6.362   8.656  0.2478 -0.8754  0.3181
 4747TIP3    H235877   2.823   6.390   8.731 -0.8880  0.1615  1.9678
 4748TIP3   OH235878   3.187   2.420   0.922 -0.7026 -0.0698 -0.4142
 4748TIP3    H135879   3.228   2.505   0.940  0.3095 -0.5635 -0.3393
 4748TIP3    H235880   3.097   2.442   0.897 -0.2372  1.0860 -1.1576
 4749TIP3   OH235881   4.815   5.706   2.369 -0.2953 -0.3945  0.0034
 4749TIP3    H135882   4.844   5.667   2.287  1.1032 -0.7697  0.6414
 4749TIP3    H235883   4.869   5.785   2.379  0.5071 -1.0532  1.1741
 4750TIP3   OH235884   3.999   0.495   1.633  0.7151 -0.2610 -0.0061
 4750TIP3    H135885   3.922   0.467   1.683  0.0961  1.0700 -0.1853
 4750TIP3    H235886   4.060   0.528   1.699  0.7904 -0.5132  0.0536
 4751TIP3   OH235887   3.177   0.681   1.937 -0.4828  0.7157 -0.2653
 4751TIP3    H135888   3.180   0.608   1.874  1.7956  0.9633 -0.5300
 4751TIP3    H235889   3.263   0.723   1.929 -0.4589  1.3220  2.3721
 4752TIP3   OH235890   3.304   3.744   0.040 -0.8864 -0.4064  0.3649
 4752TIP3    H135891   3.243   3.802   0.086 -0.4013  2.5951 -2.3719
 4752TIP3    H235892   3.382   3.743   0.095 -1.5511  0.0937  1.3477
 4753TIP3   OH235893   4.436   0.315   1.365  0.5084 -0.1992  0.3327
 4753TIP3    H135894   4.404   0.381   1.304  0.9246 -0.3921 -0.0975
 4753TIP3    H235895   4.428   0.356   1.451 -0.8233 -0.2153  0.2342
 4754TIP3   OH235896   4.405   0.560   8.364 -0.2996 -0.2302 -0.3415
 4754TIP3    H135897   4.340   0.586   8.299 -1.2448 -0.9999  0.2766
 4754TIP3    H235898   4.361   0.495   8.418  0.0217  1.2780  1.8579
 4755TIP3   OH235899   0.158   5.495   0.184  0.3721 -0.2112  0.1706
 4755TIP3    H135900   0.184   5.482   0.276 -1.4996 -2.7863  0.4365
 4755TIP3    H235901   0.181   5.413   0.141 -0.9600  0.0482 -1.0965
 4756TIP3   OH235902   6.416   1.585   2.457  0.3128  0.0017 -0.3258
 4756TIP3    H135903   6.345   1.583   2.393 -1.1135  1.2723  1.1338
 4756TIP3    H235904   6.492   1.552   2.409 -1.4981 -2.6916 -1.6147
 4757TIP3   OH235905   2.074   4.269   1.520  0.4133 -0.1312 -0.1180
 4757TIP3    H135906   2.122   4.344   1.485  0.8157 -0.2081  0.2475
 4757TIP3    H235907   2.142   4.212   1.556  0.0702 -0.3969  0.1227
 4758TIP3   OH235908   4.696   2.669   1.675  0.4105  0.2328 -0.5257
 4758TIP3    H135909   4.746   2.625   1.606  0.0031 -0.2126 -0.5455
 4758TIP3    H235910   4.762   2.700   1.737  0.7069 -0.4503 -0.4908
 4759TIP3   OH235911   0.228   2.567   7.848  0.0202 -0.2607 -0.2547
 4759TIP3    H135912   0.150   2.572   7.793  0.1815 -1.2464 -0.6001
 4759TIP3    H235913   0.301   2.587   7.789  0.1517 -0.8493 -0.2990
 4760TIP3   OH235914   3.780   6.285   7.268  0.0878 -0.3288  0.2531
 4760TIP3    H135915   3.839   6.211   7.256 -0.1075 -0.6544  1.2742
 4760TIP3    H235916   3.835   6.362   7.253 -0.1932 -0.6335 -3.1480
 4761TIP3   OH235917   5.946   4.316   1.571  0.3464  0.2335  0.3293
 4761TIP3    H135918   5.899   4.233   1.561  0.0017  0.3952  0.5663
 4761TIP3    H235919   5.884   4.373   1.618  1.2555  0.0367  1.8510
 4762TIP3   OH235920   0.040   6.790   2.425  0.3676  0.5669 -0.2277
 4762TIP3    H135921   0.017   6.855   2.491 -0.2346 -0.5402  0.6854
 4762TIP3    H235922   0.080   6.841   2.354  0.6485  1.8259  0.7987
 4763TIP3   OH235923   5.063   5.149   8.692 -0.3595  0.6027 -0.7846
 4763TIP3    H135924   5.019   5.077   8.648 -0.6214  0.3968 -0.1945
 4763TIP3    H235925   5.156   5.136   8.673 -0.5204  0.9023 -1.8343
 4764TIP3   OH235926   1.533   0.774   1.617 -0.3932 -0.0621  0.3115
 4764TIP3    H135927   1.529   0.867   1.593  1.2080 -0.0785 -0.1339
 4764TIP3    H235928   1.517   0.773   1.711  0.7322  0.8157  0.5402
 4765TIP3   OH235929   6.849   3.769   8.337 -0.2931 -0.6027  0.1259
 4765TIP3    H135930   6.792   3.837   8.301 -1.1186 -1.3962 -0.1188
 4765TIP3    H235931   6.898   3.737   8.261 -1.2675 -1.5478 -0.1341
 4766TIP3   OH235932   1.485   2.281   3.054  0.0805 -0.2376 -0.5921
 4766TIP3    H135933   1.549   2.264   3.123  0.8292  1.0109 -0.9394
 4766TIP3    H235934   1.418   2.214   3.066  1.4672 -1.6246 -0.2502
 4767TIP3   OH235935   6.580   5.308   7.871 -0.6278  0.5893 -0.4418
 4767TIP3    H135936   6.615   5.366   7.803  1.6912 -0.0111  0.1635
 4767TIP3    H235937   6.600   5.220   7.840 -0.0652  0.2936  0.7224
 4768TIP3   OH235938   0.207   1.484   0.325  0.2411  0.2380  0.1362
 4768TIP3    H135939   0.220   1.526   0.240 -0.6682  1.5150  0.5982
 4768TIP3    H235940   0.260   1.404   0.321 -0.0133  0.1318 -1.7225
 4769TIP3   OH235941   0.736   6.222   8.756  0.0163 -0.2462  0.3541
 4769TIP3    H135942   0.708   6.306   8.792 -1.0711  0.2761 -1.5797
 4769TIP3    H235943   0.831   6.220   8.772  0.2095  1.7202 -0.2526
 4770TIP3   OH235944   3.354   3.026   8.366  0.1984 -0.4778 -0.2348
 4770TIP3    H135945   3.400   3.037   8.283 -1.1169  0.0030 -0.9369
 4770TIP3    H235946   3.366   3.110   8.412 -0.4583 -0.1335 -0.6788
 4771TIP3   OH235947   3.002   2.176   7.436  0.1736 -0.6021 -0.2982
 4771TIP3    H135948   3.043   2.260   7.417  3.4042 -1.9300  0.1559
 4771TIP3    H235949   2.972   2.144   7.352 -0.1788  0.5238 -0.6237
 4772TIP3   OH235950   3.614   3.192   7.826  0.2939  0.2016 -0.2561
 4772TIP3    H135951   3.586   3.277   7.791  1.8435  1.2675  0.9612
 4772TIP3    H235952   3.582   3.191   7.916  1.3336  0.0648  0.1300
 4773TIP3   OH235953   4.969   0.811   7.569  0.5176 -0.1822  0.1561
 4773TIP3    H135954   4.956   0.815   7.474  2.2141 -2.1106 -0.2088
 4773TIP3    H235955   4.968   0.903   7.596 -2.4136  0.3402 -1.3093
 4774TIP3   OH235956   1.723   0.603   0.716  0.0477 -0.2860 -0.2018
 4774TIP3    H135957   1.635   0.637   0.734  0.4682 -0.1885  1.9995
 4774TIP3    H235958   1.781   0.678   0.732  0.5169 -0.0798 -2.5698
 4775TIP3   OH235959   3.589   5.976   2.544 -0.1103 -0.3520 -0.3056
 4775TIP3    H135960   3.575   5.891   2.585 -1.5975 -0.3390 -0.7166
 4775TIP3    H235961   3.580   6.040   2.615 -0.5375 -0.4532 -0.2663
 4776TIP3   OH235962   2.825   4.866   0.774 -0.3228 -0.4772  0.3481
 4776TIP3    H135963   2.879   4.909   0.708  0.4287 -1.6920  0.1246
 4776TIP3    H235964   2.745   4.841   0.727  0.0931 -1.0916 -0.0508
 4777TIP3   OH235965   4.388   3.346   8.149 -0.5698 -0.2390  0.0136
 4777TIP3    H135966   4.343   3.329   8.066 -0.8994 -0.3495  0.2144
 4777TIP3    H235967   4.320   3.378   8.208  0.0400  1.8270 -0.3481
 4778TIP3   OH235968   0.951   0.892   1.699 -0.1404  0.5804 -0.4548
 4778TIP3    H135969   0.946   0.816   1.641 -1.8094  0.6877 -0.5108
 4778TIP3    H235970   1.010   0.953   1.655  1.1828 -0.6373 -0.4334
 4779TIP3   OH235971   5.876   3.675   8.737 -0.3033  0.3043  0.1404
 4779TIP3    H135972   5.797   3.633   8.769 -0.9817 -0.0603 -1.8545
 4779TIP3    H235973   5.848   3.724   8.660  1.4200  0.1029 -0.6819
 4780TIP3   OH235974   6.598   0.745   7.402  0.2310 -0.5747  0.2914
 4780TIP3    H135975   6.518   0.725   7.354  0.1058 -1.1148  0.7142
 4780TIP3    H235976   6.659   0.676   7.377  0.2058 -0.7843  0.7963
 4781TIP3   OH235977   1.984   6.356   0.238  0.0237 -0.5172 -0.0775
 4781TIP3    H135978   1.892   6.381   0.246 -0.1750 -0.9902 -0.7974
 4781TIP3    H235979   1.992   6.324   0.148  0.9030 -0.4387 -0.0334
 4782TIP3   OH235980   4.021   3.929   8.714  0.1462  0.1992  0.3247
 4782TIP3    H135981   4.017   4.017   8.677 -1.5167 -0.7875 -2.1102
 4782TIP3    H235982   4.062   3.876   8.645  0.0416 -1.1690  1.2579
 4783TIP3   OH235983   1.529   5.696   8.015  0.1856  0.6781 -0.0637
 4783TIP3    H135984   1.441   5.689   7.979  0.3029 -0.4737 -0.1659
 4783TIP3    H235985   1.586   5.657   7.949  0.9763  2.6226 -0.6168
 4784TIP3   OH235986   6.235   2.414   2.693 -0.1775  0.0746  0.5891
 4784TIP3    H135987   6.291   2.420   2.770 -1.3644  4.4122  1.3671
 4784TIP3    H235988   6.293   2.434   2.620 -0.0103  1.1348  0.9970
 4785TIP3   OH235989   3.638   0.753   1.258 -0.5688 -0.0839 -0.1727
 4785TIP3    H135990   3.717   0.708   1.288 -1.2841 -1.1744  0.1149
 4785TIP3    H235991   3.614   0.811   1.331 -0.5766 -0.4702  0.1345
 4786TIP3   OH235992   4.652   3.042   8.557 -0.2433 -0.2306 -0.4751
 4786TIP3    H135993   4.658   2.948   8.570  0.1549 -0.0964  0.3937
 4786TIP3    H235994   4.560   3.057   8.534 -0.9494 -0.5986  1.7872
 4787TIP3   OH235995   2.559   6.141   2.960  0.5757  0.3174  0.1361
 4787TIP3    H135996   2.485   6.081   2.959  0.3478  0.5989 -0.2818
 4787TIP3    H235997   2.629   6.093   3.005  0.0580  0.1586  0.7794
 4788TIP3   OH235998   0.446   3.733   3.399  0.1591 -0.0136 -0.3843
 4788TIP3    H135999   0.459   3.805   3.460  0.2132 -0.3635  0.0247
 4788TIP3    H236000   0.415   3.661   3.454  1.6772 -0.8077 -0.5038
 4789TIP3   OH236001   3.776   0.641   2.285 -0.1459  0.0711  0.7580
 4789TIP3    H136002   3.707   0.590   2.327 -0.0268  0.0088  0.8803
 4789TIP3    H236003   3.733   0.687   2.213 -1.0717  2.7769  2.8738
 4790TIP3   OH236004   3.214   2.570   7.681  0.0819 -0.4144 -0.2899
 4790TIP3    H136005   3.279   2.540   7.617  0.7618 -1.0003  0.6402
 4790TIP3    H236006   3.262   2.572   7.764 -0.5208  1.2474  0.0573
 4791TIP3   OH236007   1.639   1.238   8.683  0.5858  0.5008  0.2678
 4791TIP3    H136008   1.591   1.246   8.766  0.8785 -1.4806  0.6582
 4791TIP3    H236009   1.706   1.172   8.700  1.8678  1.4064 -1.0224
 4792TIP3   OH236010   3.883   0.204   8.728  0.1141  0.0809  0.0686
 4792TIP3    H136011   3.809   0.144   8.718 -0.2069  0.2689  1.1828
 4792TIP3    H236012   3.960   0.148   8.715 -0.1847 -0.5191  0.7823
 4793TIP3   OH236013   4.800   6.519   1.288 -0.0715  0.0335 -0.3599
 4793TIP3    H136014   4.828   6.596   1.240 -0.1411  0.4507  0.2658
 4793TIP3    H236015   4.759   6.553   1.368 -1.6793 -0.5705 -0.8781
 4794TIP3   OH236016   3.563   6.504   1.588  0.0067 -0.1882  0.1837
 4794TIP3    H136017   3.628   6.455   1.638 -0.4541 -0.3239  0.6639
 4794TIP3    H236018   3.612   6.542   1.516  0.7726  0.3695  0.9818
 4795TIP3   OH236019   4.683   2.493   1.944  0.3610 -0.1995 -0.0006
 4795TIP3    H136020   4.767   2.528   1.973  0.9510 -0.4082 -1.3655
 4795TIP3    H236021   4.671   2.531   1.857 -1.1794  0.1682  0.3433
 4796TIP3   OH236022   1.001   6.429   1.594  0.1400  0.6920  0.1286
 4796TIP3    H136023   0.935   6.386   1.540 -0.4359  0.5055  0.9654
 4796TIP3    H236024   1.004   6.519   1.561  0.0030  0.5147 -0.3907
 4797TIP3   OH236025   1.021   6.717   0.268 -0.1058 -0.1395  0.2974
 4797TIP3    H136026   1.090   6.727   0.334 -0.0866  0.3757  0.2022
 4797TIP3    H236027   1.030   6.626   0.238  0.5834 -0.0590  0.2323
 4798TIP3   OH236028   2.628   6.540   1.957 -0.6236  0.0423 -0.2290
 4798TIP3    H136029   2.709   6.495   1.931 -0.0459  1.3438 -0.7381
 4798TIP3    H236030   2.647   6.574   2.044 -0.2196  1.2694 -0.7817
 4799TIP3   OH236031   1.997   0.241   7.553  0.2169  0.1341 -0.0710
 4799TIP3    H136032   1.937   0.192   7.609 -0.2648  1.2355  0.4092
 4799TIP3    H236033   2.006   0.187   7.474 -0.5445 -0.5617  0.3040
 4800TIP3   OH236034   5.006   4.453   3.105 -0.1631  0.6707  0.2179
 4800TIP3    H136035   4.931   4.454   3.044  0.8854  0.0512 -1.1269
 4800TIP3    H236036   4.992   4.530   3.160 -1.6662  0.7013 -0.1412
 4801TIP3   OH236037   1.041   4.635   1.401  0.8407  0.5058  0.3980
 4801TIP3    H136038   1.121   4.582   1.395  0.2456 -0.2565 -1.8760
 4801TIP3    H236039   0.971   4.570   1.402  0.1779  1.2057 -0.1427
 4802TIP3   OH236040   3.220   6.371   8.658  0.4626 -0.4425  0.0249
 4802TIP3    H136041   3.268   6.402   8.582 -2.4002  0.0248 -1.7214
 4802TIP3    H236042   3.195   6.281   8.636 -0.5465 -0.2440  0.2933
 4803TIP3   OH236043   6.550   1.226   7.526  0.5072 -0.6001 -0.3486
 4803TIP3    H136044   6.490   1.301   7.525  0.0371 -0.8446  2.2340
 4803TIP3    H236045   6.496   1.154   7.559  2.0251 -0.9432  1.5532
 4804TIP3   OH236046   2.287   4.408   2.505  0.3762  0.0313  0.7622
 4804TIP3    H136047   2.196   4.386   2.485  0.4693 -0.7811  1.1766
 4804TIP3    H236048   2.330   4.323   2.515  1.1425  0.4110  0.7433
 4805TIP3   OH236049   6.699   2.258   2.519  0.3002 -0.4832  0.1496
 4805TIP3    H136050   6.715   2.244   2.612  0.5883 -1.8555 -0.0926
 4805TIP3    H236051   6.771   2.213   2.475 -0.0388 -0.1664 -0.7529
 4806TIP3   OH236052   5.793   3.373   1.049  0.5369  0.1950 -0.3310
 4806TIP3    H136053   5.782   3.282   1.077 -0.7901 -0.3690 -2.4441
 4806TIP3    H236054   5.730   3.383   0.977  0.9874  2.6581 -0.4476
 4807TIP3   OH236055   1.581   6.811   8.258  0.2000  0.4580  0.6293
 4807TIP3    H136056   1.623   6.831   8.174 -2.4093  0.1895 -0.8491
 4807TIP3    H236057   1.551   6.721   8.249  0.0385  0.3673  1.9328
 4808TIP3   OH236058   5.096   2.992   0.194  0.1972  0.0043 -0.0635
 4808TIP3    H136059   5.025   3.045   0.159  0.0232 -0.3678 -0.2776
 4808TIP3    H236060   5.110   2.924   0.128 -0.7423 -1.2504  0.9690
 4809TIP3   OH236061   2.716   2.955   7.663 -0.3740 -0.2992 -0.0853
 4809TIP3    H136062   2.647   2.890   7.655 -0.4235 -0.1934 -0.5468
 4809TIP3    H236063   2.769   2.943   7.584 -0.1629 -0.0340  0.0143
 4810TIP3   OH236064   1.398   5.102   3.262 -0.2730  0.0248  0.7793
 4810TIP3    H136065   1.479   5.083   3.309  1.6535  0.5144 -2.0728
 4810TIP3    H236066   1.387   5.028   3.202 -1.9178  0.0183  1.0514
 4811TIP3   OH236067   6.044   5.946   3.570  0.7226  0.0018 -0.1646
 4811TIP3    H136068   6.015   6.009   3.503  1.6620 -0.9508 -1.5342
 4811TIP3    H236069   5.971   5.941   3.631  0.4876  2.1912 -0.1540
 4812TIP3   OH236070   0.033   3.108   8.376 -0.3424 -0.6596  0.0005
 4812TIP3    H136071  -0.046   3.074   8.335 -1.5158  1.1912  0.5675
 4812TIP3    H236072   0.003   3.146   8.459  1.8001 -3.4679  2.2877
 4813TIP3   OH236073   6.155   1.836   0.090  0.5036 -0.1292  0.0248
 4813TIP3    H136074   6.210   1.813   0.016 -2.3221 -2.8105 -1.4646
 4813TIP3    H236075   6.184   1.777   0.160 -0.9849 -2.3254 -1.0881
 4814TIP3   OH236076   0.405   1.887   1.800 -0.1087  0.3965  0.0761
 4814TIP3    H136077   0.475   1.885   1.865 -0.7287 -2.1350  0.7741
 4814TIP3    H236078   0.368   1.975   1.808  1.1517  0.8265  1.6923
 4815TIP3   OH236079   5.802   1.217   1.822 -0.0721  0.2866  0.4567
 4815TIP3    H136080   5.727   1.204   1.764  1.0212 -3.6566 -0.3793
 4815TIP3    H236081   5.764   1.254   1.902 -2.7277 -0.4463 -0.3474
 4816TIP3   OH236082   6.417   1.444   0.014  0.8088 -0.3058 -0.0681
 4816TIP3    H136083   6.436   1.355  -0.014  0.1178 -0.8124  0.9634
 4816TIP3    H236084   6.492   1.469   0.068 -0.0319 -1.2086  1.6230
 4817TIP3   OH236085   6.443   6.598   8.204 -0.5161 -0.3927  0.4083
 4817TIP3    H136086   6.357   6.579   8.241 -2.3353 -1.0922 -3.6037
 4817TIP3    H236087   6.473   6.515   8.167  0.8278  0.3158 -0.1888
 4818TIP3   OH236088   3.934   5.769   0.661 -0.2605 -0.0006  1.0218
 4818TIP3    H136089   3.865   5.704   0.646 -1.1049  0.4994  2.5249
 4818TIP3    H236090   3.954   5.762   0.754  1.2348  0.3706  0.7522
 4819TIP3   OH236091   1.288   1.254   8.166 -0.5973  0.1663  0.1381
 4819TIP3    H136092   1.276   1.321   8.233  0.9680 -0.6384  1.3040
 4819TIP3    H236093   1.365   1.205   8.195 -0.4315 -0.8064 -1.7856
 4820TIP3   OH236094   1.010   1.313   1.360  0.1777 -0.5227  0.2402
 4820TIP3    H136095   1.012   1.357   1.445  1.9153  2.2565 -1.0805
 4820TIP3    H236096   1.089   1.258   1.360  0.4610 -0.1240  0.2667
 4821TIP3   OH236097   6.715   6.386   8.435 -0.0309  0.1208  0.0014
 4821TIP3    H136098   6.712   6.295   8.465 -2.3513 -0.1800 -0.9287
 4821TIP3    H236099   6.808   6.410   8.439  0.5225 -1.9887  1.0926
 4822TIP3   OH236100   0.310   1.021   8.400  0.5714 -0.0704 -0.2391
 4822TIP3    H136101   0.232   1.055   8.356  0.9513  1.8423  0.4813
 4822TIP3    H236102   0.382   1.071   8.363  1.2955 -0.7930  0.1661
 4823TIP3   OH236103   5.837   4.937   0.365 -0.4088  0.2534  0.2552
 4823TIP3    H136104   5.742   4.947   0.374 -1.1393 -0.2366 -4.4043
 4823TIP3    H236105   5.853   4.845   0.388 -0.7057  0.7046  2.5056
 4824TIP3   OH236106   4.325   0.196   7.860 -0.2768 -0.1901 -0.1936
 4824TIP3    H136107   4.345   0.103   7.875  0.5393  0.0125 -0.0278
 4824TIP3    H236108   4.301   0.201   7.767  1.4966 -0.2556 -0.6800
 4825TIP3   OH236109   4.841   6.333   2.498 -0.5240 -0.4929  0.1739
 4825TIP3    H136110   4.853   6.326   2.403  0.3337 -0.2288  0.2497
 4825TIP3    H236111   4.866   6.423   2.518 -1.2801 -0.3670  0.5764
 4826TIP3   OH236112   5.938   1.301   1.407  0.1668  0.2183  0.1811
 4826TIP3    H136113   6.002   1.356   1.363  1.5875 -0.7549  0.9548
 4826TIP3    H236114   5.989   1.249   1.470 -1.2679 -1.1093  0.3343
 4827TIP3   OH236115   2.484   0.013   8.323  0.1789  0.1368  0.1990
 4827TIP3    H136116   2.443   0.043   8.242 -3.8866 -2.6667  0.8854
 4827TIP3    H236117   2.447   0.070   8.391  2.2904  1.4135  0.3614
 4828TIP3   OH236118   3.078   1.223   0.669  0.5396 -0.2527  0.3130
 4828TIP3    H136119   3.032   1.147   0.632 -0.6326 -0.0428  1.2698
 4828TIP3    H236120   3.171   1.203   0.658  0.2410 -1.5290 -0.0308
 4829TIP3   OH236121   0.226   6.205   0.764 -0.4269 -0.1557  0.3514
 4829TIP3    H136122   0.312   6.231   0.732 -1.5654  0.3398 -2.6729
 4829TIP3    H236123   0.211   6.119   0.724 -2.6087  1.2333 -2.1818
 4830TIP3   OH236124   5.148   0.271   8.714 -0.3046 -0.7481  0.3936
 4830TIP3    H136125   5.208   0.276   8.640 -1.4676 -1.9469 -0.7054
 4830TIP3    H236126   5.145   0.360   8.749  1.5300 -0.5131  0.0505
 4831TIP3   OH236127   5.054   1.669   7.291 -0.0576 -0.2662  0.3045
 4831TIP3    H136128   5.074   1.612   7.216 -1.2676 -0.3417  0.0095
 4831TIP3    H236129   4.972   1.712   7.267  0.2865  0.8129  0.9839
 4832TIP3   OH236130   3.635   3.619   2.064  0.0237  0.0048  0.2238
 4832TIP3    H136131   3.573   3.548   2.047  1.7176 -1.1107 -1.8384
 4832TIP3    H236132   3.589   3.698   2.038 -0.3186 -0.8856 -2.1651
 4833TIP3   OH236133   0.157   4.068   8.156  0.0820 -0.0238 -0.0640
 4833TIP3    H136134   0.225   4.115   8.109  1.1726 -0.3492  1.1326
 4833TIP3    H236135   0.165   3.978   8.126  1.1125 -0.3330  1.0496
 4834TIP3   OH236136   0.042   1.226   0.894  0.3336  0.5797  0.2072
 4834TIP3    H136137   0.100   1.154   0.868 -0.2354  0.3664 -0.5106
 4834TIP3    H236138  -0.041   1.183   0.913  0.0874  1.0141  0.1165
 4835TIP3   OH236139   1.436   0.275   1.148  0.0629  0.2284 -0.5164
 4835TIP3    H136140   1.484   0.325   1.213 -0.0299 -0.5868  0.1923
 4835TIP3    H236141   1.489   0.197   1.132  0.4682  0.7614 -1.9949
 4836TIP3   OH236142   3.979   3.713   1.287  0.4122  0.2840 -0.8441
 4836TIP3    H136143   3.884   3.713   1.296  0.5234  1.0237  0.6871
 4836TIP3    H236144   4.011   3.689   1.373  1.6186  0.2386 -1.2884
 4837TIP3   OH236145   5.296   2.067   0.381  0.1320  0.2017 -0.2181
 4837TIP3    H136146   5.387   2.078   0.408 -0.3821  0.7741  1.4362
 4837TIP3    H236147   5.286   1.973   0.369  0.2873 -0.1816  2.2275
 4838TIP3   OH236148   5.006   0.117   8.314 -0.8192 -0.2198  0.4963
 4838TIP3    H136149   4.913   0.104   8.334 -1.1366  1.1775  0.0567
 4838TIP3    H236150   5.019   0.069   8.232 -1.4199  0.4191  0.0128
 4839TIP3   OH236151   3.675   6.111   0.771  0.3199  0.4684  0.4850
 4839TIP3    H136152   3.751   6.161   0.739  0.5729  1.4725  2.4900
 4839TIP3    H236153   3.616   6.177   0.806 -0.9766 -0.4074  0.0127
 4840TIP3   OH236154   2.631   1.615   8.648 -0.6772  0.1027 -0.2563
 4840TIP3    H136155   2.662   1.701   8.675  1.1108 -0.7865  0.6801
 4840TIP3    H236156   2.574   1.586   8.719  1.2343 -0.7642  0.9868
 4841TIP3   OH236157   2.631   5.393   2.188 -0.7567 -0.6909 -0.0571
 4841TIP3    H136158   2.565   5.435   2.243 -0.0428  0.7094 -0.2229
 4841TIP3    H236159   2.649   5.310   2.232 -0.8136  0.0242  1.3880
 4842TIP3   OH236160   2.327   0.882   2.357 -0.5011  0.6591 -0.6722
 4842TIP3    H136161   2.246   0.931   2.372 -0.8660 -0.1652  0.1283
 4842TIP3    H236162   2.307   0.793   2.387  0.2711  0.1020 -1.7508
 4843TIP3   OH236163   1.872   3.989   2.798  0.3754  0.8889 -0.0730
 4843TIP3    H136164   1.783   4.015   2.772  0.7288  1.1025 -1.1237
 4843TIP3    H236165   1.893   4.045   2.871 -0.1180  1.2823 -0.2236
 4844TIP3   OH236166   6.044   1.596   7.369  0.3515 -0.2118 -0.1792
 4844TIP3    H136167   5.957   1.555   7.374  1.0645 -1.9058 -0.9732
 4844TIP3    H236168   6.031   1.684   7.404 -1.9348 -0.0353 -1.2971
 4845TIP3   OH236169   1.804   0.726   8.473 -0.7999  0.4024 -0.4401
 4845TIP3    H136170   1.771   0.686   8.393 -2.1062  2.1387 -0.8247
 4845TIP3    H236171   1.725   0.751   8.521 -0.0785  2.5869 -0.2842
 4846TIP3   OH236172   4.906   1.735   7.944 -0.1697  0.8177 -0.7702
 4846TIP3    H136173   4.939   1.790   8.016 -1.4183  1.7767 -0.9084
 4846TIP3    H236174   4.813   1.757   7.937 -1.3345 -2.9406  0.6529
 4847TIP3   OH236175   1.602   3.796   7.677 -0.0060  0.2256 -0.2092
 4847TIP3    H136176   1.625   3.836   7.761  0.8329  0.6657 -0.6320
 4847TIP3    H236177   1.665   3.833   7.615 -0.8282  0.1689 -1.0999
 4848TIP3   OH236178   1.971   0.942   3.055 -0.2994 -0.1760  0.3956
 4848TIP3    H136179   1.980   0.959   2.961  2.9115 -3.3873 -0.1004
 4848TIP3    H236180   2.023   1.009   3.097 -0.2718  0.2247 -0.2576
 4849TIP3   OH236181   1.029   1.867   0.764 -0.0515 -0.5838 -0.2833
 4849TIP3    H136182   1.046   1.784   0.809 -0.7578 -0.1656  0.7990
 4849TIP3    H236183   1.116   1.904   0.749  0.3010 -1.6632 -1.1131
 4850TIP3   OH236184   6.043   4.974   8.143 -0.1782 -0.2057  0.1503
 4850TIP3    H136185   5.964   4.940   8.102 -1.4668 -0.6828  2.8434
 4850TIP3    H236186   6.018   5.061   8.175  0.9479  0.3627 -0.4231
 4851TIP3   OH236187   0.678   4.009   0.044  0.0795 -0.7955 -0.7337
 4851TIP3    H136188   0.627   3.958  -0.019 -1.1971 -1.3507  0.7127
 4851TIP3    H236189   0.636   4.094   0.046 -0.0698 -0.8771 -0.4026
 4852TIP3   OH236190   5.768   2.776   1.715 -0.1240  0.0337  0.6057
 4852TIP3    H136191   5.735   2.771   1.625  1.3244  0.1224  0.0515
 4852TIP3    H236192   5.757   2.687   1.749 -0.0688 -0.1625  0.1185
 4853TIP3   OH236193   4.442   2.464   0.067  0.7204 -0.0975  0.1164
 4853TIP3    H136194   4.508   2.507   0.121 -0.4983  1.1272  0.7033
 4853TIP3    H236195   4.432   2.521  -0.009 -0.5519  0.4358  0.6544
 4854TIP3   OH236196   1.661   0.660   2.358  0.3441 -0.3775  0.0201
 4854TIP3    H136197   1.600   0.614   2.300 -0.4970 -0.4334  0.9298
 4854TIP3    H236198   1.668   0.604   2.435 -1.0038  1.1685  1.3205
 4855TIP3   OH236199   2.580   3.337   7.969 -0.0100 -0.5128  1.3165
 4855TIP3    H136200   2.639   3.280   7.919  0.5135  1.3662 -0.3232
 4855TIP3    H236201   2.625   3.351   8.052  2.0218  0.9636  0.0639
 4856TIP3   OH236202   1.416   6.320   2.647 -0.0965  0.3185 -0.4330
 4856TIP3    H136203   1.334   6.357   2.678  0.3047  1.3549 -0.5715
 4856TIP3    H236204   1.393   6.270   2.569 -1.0375 -1.8554  1.1477
 4857TIP3   OH236205   6.443   5.037   1.023  0.5393  0.2406 -0.1627
 4857TIP3    H136206   6.426   4.943   1.026  1.8532  0.0213  0.8832
 4857TIP3    H236207   6.372   5.076   1.074  1.1686 -0.3721  1.2229
 4858TIP3   OH236208   1.652   4.758   1.054  0.0176 -0.3848  0.4430
 4858TIP3    H136209   1.615   4.799   1.133  0.6962  0.9449  0.0953
 4858TIP3    H236210   1.607   4.674   1.048  0.2540 -0.6979  2.4792
 4859TIP3   OH236211   5.965   6.468   2.195 -0.4655 -0.4016  0.4050
 4859TIP3    H136212   6.039   6.492   2.140 -1.4817 -0.7401 -1.1663
 4859TIP3    H236213   6.005   6.426   2.272  0.9837  0.1662 -0.0079
 4860TIP3   OH236214   3.484   6.307   0.843 -0.1430  0.2111  0.3676
 4860TIP3    H136215   3.527   6.365   0.780 -1.4823  1.1466  0.2644
 4860TIP3    H236216   3.471   6.362   0.921 -1.4436  0.0846  0.2623
 4861TIP3   OH236217   2.762   6.299   2.495 -0.0305 -0.1425  0.0205
 4861TIP3    H136218   2.784   6.376   2.549  0.6826 -0.2578 -0.1027
 4861TIP3    H236219   2.711   6.243   2.553 -1.0648  0.6824 -0.0599
 4862TIP3   OH236220   1.858   0.392   1.507 -0.2425 -0.1473  0.3923
 4862TIP3    H136221   1.943   0.430   1.529 -0.0618 -0.3911  0.1258
 4862TIP3    H236222   1.810   0.462   1.463  0.0623 -0.2063 -0.0356
 4863TIP3   OH236223   5.575   4.071   7.559 -0.2825 -0.0455 -0.2750
 4863TIP3    H136224   5.520   4.114   7.493 -0.9556  0.0717  0.3466
 4863TIP3    H236225   5.553   3.978   7.552 -1.3332  0.1075  0.6461
 4864TIP3   OH236226   0.620   5.997   0.113  0.3794 -0.2519  0.4726
 4864TIP3    H136227   0.673   6.053   0.056 -0.9851  1.8600  1.1459
 4864TIP3    H236228   0.683   5.944   0.160  1.9722  2.1238  1.2109
 4865TIP3   OH236229   0.252   5.345   1.871  0.3326 -0.1432 -0.1625
 4865TIP3    H136230   0.291   5.268   1.829  1.8715  0.6787 -0.3308
 4865TIP3    H236231   0.309   5.363   1.945 -0.2405  0.5968  0.1076
 4866TIP3   OH236232   4.381   2.541   7.880 -0.0983  0.1447 -0.3771
 4866TIP3    H136233   4.382   2.465   7.938 -0.5755  1.8309  1.9884
 4866TIP3    H236234   4.402   2.505   7.793 -0.2590 -2.6362  0.6266
 4867TIP3   OH236235   4.888   0.630   3.558  0.0622  0.3837  0.3519
 4867TIP3    H136236   4.982   0.612   3.563 -0.1300 -0.3491  1.9366
 4867TIP3    H236237   4.854   0.565   3.497  0.6404  0.9889 -0.6390
 4868TIP3   OH236238   5.098   4.265   1.298  0.2649  0.3921 -0.1555
 4868TIP3    H136239   5.115   4.174   1.322  0.3301  0.8118  1.4893
 4868TIP3    H236240   5.165   4.315   1.343 -1.5126  1.5132  1.4154
 4869TIP3   OH236241   2.698   0.918   8.178  0.0651  0.0795 -0.2107
 4869TIP3    H136242   2.704   0.966   8.260 -2.9003  0.4731 -0.1355
 4869TIP3    H236243   2.731   0.979   8.112  1.3809  0.1758  0.5033
 4870TIP3   OH236244   4.595   2.869   2.127  0.5675 -0.1453 -0.2065
 4870TIP3    H136245   4.688   2.882   2.147  0.8774  0.1557 -1.6672
 4870TIP3    H236246   4.583   2.912   2.042 -1.2234  0.9564  0.5426
 4871TIP3   OH236247   4.247   2.056   8.536  0.3563 -0.3842  0.1502
 4871TIP3    H136248   4.155   2.037   8.516  0.2950 -0.2975  0.3486
 4871TIP3    H236249   4.280   1.975   8.577  0.8677 -1.0845 -1.5518
 4872TIP3   OH236250   5.320   3.517   0.396  0.1716 -0.0688  0.5159
 4872TIP3    H136251   5.287   3.464   0.468  1.2794 -1.0802  0.3124
 4872TIP3    H236252   5.364   3.590   0.438 -0.2147 -0.0179  0.8354
 4873TIP3   OH236253   3.592   4.940   3.138  0.0608  0.1017 -0.1571
 4873TIP3    H136254   3.684   4.967   3.143  0.0373  0.0220  0.8702
 4873TIP3    H236255   3.595   4.853   3.098  0.4717 -0.0733  0.2416
 4874TIP3   OH236256   5.564   0.625   0.810  0.3625  0.1659  0.4086
 4874TIP3    H136257   5.501   0.696   0.792 -0.2207  0.2210  2.4303
 4874TIP3    H236258   5.647   0.670   0.823  0.3886  0.2973 -0.2065
 4875TIP3   OH236259   6.364   5.874   2.477  0.1187  0.3412 -0.0987
 4875TIP3    H136260   6.456   5.888   2.499  0.0603  2.3064 -0.9250
 4875TIP3    H236261   6.330   5.821   2.550  2.1420 -1.5011 -0.3973
 4876TIP3   OH236262   0.261   4.930   0.708  0.5656  0.2557 -0.1641
 4876TIP3    H136263   0.254   4.906   0.615 -0.1771 -2.6108  0.5332
 4876TIP3    H236264   0.171   4.925   0.741  0.9214  0.5000  0.8794
 4877TIP3   OH236265   6.544   6.587   1.635 -0.5782 -0.0912 -0.4790
 4877TIP3    H136266   6.611   6.638   1.680 -0.7539 -0.0067 -0.3125
 4877TIP3    H236267   6.594   6.525   1.581 -0.3654  0.1579 -0.5744
 4878TIP3   OH236268   0.052   3.882   3.181 -0.0234  0.3182 -0.3097
 4878TIP3    H136269   0.123   3.821   3.201  0.2632  1.1998  1.5045
 4878TIP3    H236270   0.081   3.929   3.103 -0.3903 -2.0078 -1.9797
 4879TIP3   OH236271   4.582   3.261   0.501  0.4404  0.9946  0.1496
 4879TIP3    H136272   4.608   3.188   0.444  0.8851  0.6778  0.7457
 4879TIP3    H236273   4.545   3.219   0.579 -1.3655  1.4339 -0.4242
 4880TIP3   OH236274   5.660   0.305   0.793 -0.3440 -0.1543 -0.1054
 4880TIP3    H136275   5.656   0.224   0.744  1.4223  0.4950 -1.4189
 4880TIP3    H236276   5.661   0.374   0.727 -0.7421  0.9005  0.9425
 4881TIP3   OH236277   6.311   3.616   2.667  0.3527 -0.8832  0.0268
 4881TIP3    H136278   6.252   3.545   2.691 -0.8629 -0.3912 -1.4258
 4881TIP3    H236279   6.383   3.609   2.731 -0.8167 -2.0262  1.2846
 4882TIP3   OH236280   5.112   1.122   2.296 -0.3508  0.5089 -0.0997
 4882TIP3    H136281   5.194   1.077   2.277  1.7687  3.5506  0.9157
 4882TIP3    H236282   5.122   1.152   2.387 -1.6663  2.6451 -0.5855
 4883TIP3   OH236283   3.896   3.071   0.214 -0.6014  0.8507 -0.0225
 4883TIP3    H136284   3.903   3.052   0.307 -0.6497  0.3186 -0.1272
 4883TIP3    H236285   3.871   3.164   0.210 -0.3561  0.9385  0.4842
 4884TIP3   OH236286   4.549   2.188   1.840  0.1358  0.2966  0.3948
 4884TIP3    H136287   4.508   2.127   1.779 -0.3997 -0.8484  1.8615
 4884TIP3    H236288   4.521   2.274   1.810  0.1249 -0.2194 -1.1383
 4885TIP3   OH236289   1.665   1.911   2.669 -0.1050 -0.1926 -0.3441
 4885TIP3    H136290   1.696   1.922   2.759 -0.5855 -0.5176 -0.1380
 4885TIP3    H236291   1.598   1.979   2.658 -0.6138 -0.6651 -0.1937
 4886TIP3   OH236292   4.480   0.270   0.509  0.3653  0.4029  0.1700
 4886TIP3    H136293   4.567   0.229   0.516  0.2262  0.2034  0.8511
 4886TIP3    H236294   4.433   0.217   0.446  0.7703  0.5641 -0.2716
 4887TIP3   OH236295   6.691   1.654   1.256  0.3237  0.4161 -0.5007
 4887TIP3    H136296   6.749   1.631   1.329 -0.1256 -1.0861 -0.5976
 4887TIP3    H236297   6.707   1.748   1.242  2.7323  0.0536 -0.5363
 4888TIP3   OH236298   6.062   1.105   3.328 -0.1123 -0.2422 -0.1822
 4888TIP3    H136299   6.038   1.068   3.243 -1.1322  1.4478 -0.6715
 4888TIP3    H236300   5.983   1.100   3.380  0.1879 -0.2277  0.2835
 4889TIP3   OH236301   3.770   6.463   1.791 -0.1518 -0.2143 -0.2016
 4889TIP3    H136302   3.708   6.404   1.834 -1.5959  2.4337  1.7068
 4889TIP3    H236303   3.856   6.425   1.807 -1.0506 -2.2152  0.1323
 4890TIP3   OH236304   4.109   0.541   8.703 -0.0462 -0.2407  0.4264
 4890TIP3    H136305   4.070   0.538   8.615 -0.2597 -0.9551  0.5360
 4890TIP3    H236306   4.127   0.449   8.723 -0.6493 -0.1483  1.4247
 4891TIP3   OH236307   5.845   0.023   0.406  0.3387 -0.5861  0.7423
 4891TIP3    H136308   5.771   0.074   0.372  0.2089  0.6554  2.6948
 4891TIP3    H236309   5.903   0.088   0.446  4.2269 -1.0861 -3.3813
 4892TIP3   OH236310   3.773   1.797   8.082 -0.2368 -0.5446 -0.1881
 4892TIP3    H136311   3.713   1.794   8.156  0.1551  2.1157  0.3537
 4892TIP3    H236312   3.716   1.799   8.005 -0.7740 -0.3155  0.2099
 4893TIP3   OH236313   6.075   6.203   7.835 -0.0391  0.4691 -0.3995
 4893TIP3    H136314   6.062   6.200   7.930 -0.9486 -0.5190 -0.5375
 4893TIP3    H236315   6.141   6.271   7.822 -0.5052  1.2010  0.8789
 4894TIP3   OH236316   6.813   4.424   8.694  0.6614  0.0451 -0.3083
 4894TIP3    H136317   6.887   4.385   8.647  0.5665 -1.1827  0.5015
 4894TIP3    H236318   6.821   4.390   8.783 -0.4561  0.5012 -0.0186
 4895TIP3   OH236319   4.477   2.616   2.670 -0.2802 -0.3539  0.3056
 4895TIP3    H136320   4.419   2.568   2.612 -0.0125  1.2501 -1.3607
 4895TIP3    H236321   4.470   2.708   2.643  2.3855  0.0346  0.5615
 4896TIP3   OH236322   0.646   1.360   2.691  0.0549  0.2962 -0.4081
 4896TIP3    H136323   0.552   1.381   2.686 -0.3565 -0.8026  1.7067
 4896TIP3    H236324   0.677   1.404   2.769  0.3034 -2.5826  1.2785
 4897TIP3   OH236325   2.893   1.335   1.546  0.2146  0.3342  0.4591
 4897TIP3    H136326   2.831   1.381   1.602  1.0497 -0.4476  2.0943
 4897TIP3    H236327   2.913   1.397   1.475 -1.2182  1.1687  0.7595
 4898TIP3   OH236328   1.657   1.656   1.827 -0.1876 -0.8849 -0.4475
 4898TIP3    H136329   1.579   1.649   1.883  0.9349 -0.6300  1.2261
 4898TIP3    H236330   1.677   1.750   1.825 -2.3362 -0.2853 -4.4629
 4899TIP3   OH236331   0.921   6.679   8.648 -0.0556  0.3270  0.4925
 4899TIP3    H136332   0.908   6.627   8.568 -0.3087 -0.8212  1.2458
 4899TIP3    H236333   0.909   6.616   8.719 -0.3315  1.4301  1.4541
 4900TIP3   OH236334   0.086   1.396   1.596 -0.0231  0.2157 -0.1062
 4900TIP3    H136335   0.084   1.483   1.556 -0.4074  0.2335 -0.0504
 4900TIP3    H236336   0.167   1.396   1.648  0.8001 -0.0227 -1.3433
 4901TIP3   OH236337   4.103   5.317   3.186  0.2936 -0.4161  0.0626
 4901TIP3    H136338   4.131   5.227   3.169 -1.0587 -1.3515  2.2660
 4901TIP3    H236339   4.074   5.316   3.277 -1.5513  1.7829 -0.4014
 4902TIP3   OH236340   1.587   6.774   1.721 -0.0603 -0.4124  0.5711
 4902TIP3    H136341   1.616   6.849   1.669  1.1597  0.4377  2.3703
 4902TIP3    H236342   1.497   6.794   1.745  0.6685  1.1845  2.1526
 4903TIP3   OH236343   0.204   5.285   0.989  0.4694  0.4689 -0.2338
 4903TIP3    H136344   0.281   5.341   1.001  0.2313  0.7485 -0.0022
 4903TIP3    H236345   0.196   5.277   0.894  2.3652 -1.7702 -0.3060
 4904TIP3   OH236346   3.365   3.650   3.515  0.8199 -0.4862 -0.4182
 4904TIP3    H136347   3.277   3.618   3.531  0.6938  0.8917  2.1674
 4904TIP3    H236348   3.404   3.585   3.456 -1.4326 -1.8559 -0.5033
 4905TIP3   OH236349   2.884   4.425   8.569  0.3317 -0.3642 -0.2300
 4905TIP3    H136350   2.932   4.507   8.555  2.7481 -1.7657 -0.7598
 4905TIP3    H236351   2.914   4.393   8.654 -0.9521 -0.4918  0.1964
 4906TIP3   OH236352   4.692   5.002   3.179 -0.7551  0.2447 -0.8100
 4906TIP3    H136353   4.682   4.920   3.132 -0.4751 -0.0995 -0.2729
 4906TIP3    H236354   4.750   4.981   3.252 -0.3388  1.0124 -0.9058
 4907TIP3   OH236355   0.769   1.225   3.254 -0.2773 -0.3322 -0.3088
 4907TIP3    H136356   0.675   1.223   3.236 -0.2079  1.0165 -0.9786
 4907TIP3    H236357   0.779   1.290   3.323  0.1925 -0.1848 -0.5104
 4908TIP3   OH236358   2.632   4.120   2.056 -0.6120 -0.3114  0.5831
 4908TIP3    H136359   2.585   4.203   2.067 -2.1790 -0.4741 -3.3086
 4908TIP3    H236360   2.569   4.053   2.082 -0.0655 -0.3865  1.7741
 4909TIP3   OH236361   1.607   5.731   0.471 -0.2663 -0.0488 -0.3871
 4909TIP3    H136362   1.684   5.786   0.481  0.5176 -1.3512  1.1824
 4909TIP3    H236363   1.555   5.747   0.550 -0.8203 -0.3541 -0.6836
 4910TIP3   OH236364   1.937   2.226   0.938  0.7353  0.0571  0.2634
 4910TIP3    H136365   1.903   2.303   0.893 -0.6854 -0.6525  0.0770
 4910TIP3    H236366   2.013   2.259   0.987 -0.3580  1.7795  0.8987
 4911TIP3   OH236367   6.027   0.007   2.984  0.0964  0.8469  0.1362
 4911TIP3    H136368   6.004   0.100   2.981  0.6439  0.9553 -2.1853
 4911TIP3    H236369   5.966  -0.031   3.047 -0.5457  2.6580  0.6582
 4912TIP3   OH236370   2.741   2.272   0.861 -0.0494  0.1010 -0.0349
 4912TIP3    H136371   2.811   2.207   0.864  1.5905  1.6740 -1.8026
 4912TIP3    H236372   2.702   2.262   0.774 -0.5797  0.6785  0.1260
 4913TIP3   OH236373   0.640   3.019   1.263 -0.0226 -0.5680 -0.2354
 4913TIP3    H136374   0.664   3.046   1.174  0.0649  1.4606  0.3575
 4913TIP3    H236375   0.724   3.003   1.307 -0.0694 -1.7736 -0.5324
 4914TIP3   OH236376   2.225   4.632   2.316  0.2512 -0.0409  0.0844
 4914TIP3    H136377   2.188   4.720   2.315 -0.4890 -0.2780  1.8938
 4914TIP3    H236378   2.261   4.622   2.404  1.0623 -1.2667 -0.3568
 4915TIP3   OH236379   1.769   0.893   0.198  0.3416 -0.1917 -0.0632
 4915TIP3    H136380   1.782   0.861   0.287  2.3336 -0.1868 -0.3038
 4915TIP3    H236381   1.798   0.820   0.142  1.0813  0.5446 -0.6665
 4916TIP3   OH236382   2.939   2.486   8.319 -0.1898 -0.4307  0.4747
 4916TIP3    H136383   2.990   2.479   8.400  1.0267 -1.5222 -0.3516
 4916TIP3    H236384   2.957   2.573   8.286 -1.4827  0.4123  1.8507
 4917TIP3   OH236385   2.120   1.729   8.387  0.2046 -0.0516 -0.4131
 4917TIP3    H136386   2.106   1.808   8.334 -0.9021 -0.5653 -0.9399
 4917TIP3    H236387   2.060   1.738   8.461  1.7687  0.6753  0.8122
 4918TIP3   OH236388   3.746   4.062   0.588 -0.5164  0.0870  0.1562
 4918TIP3    H136389   3.677   4.088   0.649 -0.1755 -0.9619  1.0370
 4918TIP3    H236390   3.703   4.003   0.527 -0.8256  1.0235 -0.5614
 4919TIP3   OH236391   4.009   6.038   2.357  0.0797 -0.1977  0.0690
 4919TIP3    H136392   4.002   5.954   2.312 -1.3784 -1.3803  2.2793
 4919TIP3    H236393   4.028   6.015   2.448 -2.1453  1.7067  1.1344
 4920TIP3   OH236394   0.928   6.420   2.920  0.4881 -0.1585 -0.3062
 4920TIP3    H136395   0.940   6.501   2.968  0.7545  1.0304 -2.2669
 4920TIP3    H236396   1.017   6.392   2.898  0.3490  0.6601 -2.1387
 4921TIP3   OH236397   5.932   6.845   2.552  0.2915  0.0247  0.5985
 4921TIP3    H136398   5.853   6.815   2.596 -0.0886 -1.1765 -0.8338
 4921TIP3    H236399   5.910   6.844   2.459  1.7451  0.4158  0.2271
 4922TIP3   OH236400   1.873   6.187   1.771 -0.0381 -0.5679  0.1589
 4922TIP3    H136401   1.892   6.194   1.678 -0.4309  0.3358  0.1365
 4922TIP3    H236402   1.957   6.167   1.812  0.7188  1.8857 -0.0897
 4923TIP3   OH236403   4.733   5.809   2.816  0.0785  0.0294 -0.3454
 4923TIP3    H136404   4.691   5.739   2.864  0.1102 -0.1976 -0.6432
 4923TIP3    H236405   4.816   5.771   2.786  1.0982  0.8486  1.2893
 4924TIP3   OH236406   4.317   3.454   2.136 -0.2007  0.4281  0.2952
 4924TIP3    H136407   4.272   3.371   2.152  1.8706 -0.9364 -0.5201
 4924TIP3    H236408   4.333   3.491   2.223  2.1573 -1.9566  1.0054
 4925TIP3   OH236409   2.826   4.438   2.808  0.3047 -0.1268  0.7637
 4925TIP3    H136410   2.876   4.485   2.742 -0.1808  1.2913  1.3573
 4925TIP3    H236411   2.890   4.380   2.851  0.9158 -0.0220  0.0075
 4926TIP3   OH236412   2.950   6.270   1.035 -0.1722 -0.6330 -0.2505
 4926TIP3    H136413   3.012   6.201   1.011  2.0417  0.9146  0.6716
 4926TIP3    H236414   3.004   6.349   1.041 -2.3291  0.8654  0.2810
 4927TIP3   OH236415   1.916   0.169   2.377  0.4113  0.0498  0.0313
 4927TIP3    H136416   1.983   0.142   2.314 -0.2731 -1.6716 -0.0209
 4927TIP3    H236417   1.905   0.263   2.361  2.2137  0.2073 -0.4996
 4928TIP3   OH236418   4.912   6.602   2.568 -0.2372  0.1283  0.3600
 4928TIP3    H136419   4.976   6.588   2.499  0.5024 -2.6355  1.4925
 4928TIP3    H236420   4.958   6.656   2.633  1.6643 -3.0597  1.8774
 4929TIP3   OH236421   1.567   5.159   1.660 -0.4083  0.0607 -0.3132
 4929TIP3    H136422   1.483   5.172   1.703 -0.6550 -1.1424 -0.4028
 4929TIP3    H236423   1.546   5.148   1.568  0.0823  2.1765 -0.7528
 4930TIP3   OH236424   6.676   0.961   2.066  0.2940  0.2460 -0.2994
 4930TIP3    H136425   6.706   0.900   2.133 -0.4164 -0.1868 -0.3632
 4930TIP3    H236426   6.744   1.028   2.062  0.3484  0.2722  0.8406
 4931TIP3   OH236427   4.877   5.748   3.607 -0.4179  0.1108 -0.1822
 4931TIP3    H136428   4.907   5.706   3.688 -0.0746 -1.4390 -1.0762
 4931TIP3    H236429   4.944   5.814   3.588  0.2659 -0.5189  0.0131
 4932TIP3   OH236430   6.824   0.341   1.105 -0.1402  0.2563  0.1283
 4932TIP3    H136431   6.756   0.399   1.139  0.8056  1.2738  0.3475
 4932TIP3    H236432   6.870   0.394   1.040  0.4859 -0.3790  0.0410
 4933TIP3   OH236433   1.543   3.161   0.909  0.1524 -0.4939 -0.8714
 4933TIP3    H136434   1.528   3.227   0.976 -2.2746 -1.0516 -0.7690
 4933TIP3    H236435   1.576   3.085   0.957  0.2228 -0.2786 -0.5781
 4934TIP3   OH236436   1.308   0.181   0.404  0.0955 -0.4798  0.1451
 4934TIP3    H136437   1.287   0.243   0.335 -1.0404 -0.1377  0.7784
 4934TIP3    H236438   1.356   0.233   0.469  1.3179 -0.8392 -0.4323
 4935TIP3   OH236439   3.544   3.861   1.985  0.2013 -0.0288 -0.1912
 4935TIP3    H136440   3.456   3.891   2.007 -0.2077 -0.6465 -0.9411
 4935TIP3    H236441   3.601   3.906   2.047 -0.7230 -0.2921  0.8746
 4936TIP3   OH236442   4.527   2.720   1.101  0.2185 -0.2821  0.8190
 4936TIP3    H136443   4.442   2.690   1.069  0.5275 -2.1956  1.7027
 4936TIP3    H236444   4.580   2.729   1.022  0.0768 -2.0099  0.4846
 4937TIP3   OH236445   5.249   3.476   2.849  0.1982 -0.3253 -0.8370
 4937TIP3    H136446   5.280   3.428   2.772  0.3384 -0.0730 -0.9384
 4937TIP3    H236447   5.293   3.433   2.923  1.8616  0.8591 -1.0746
 4938TIP3   OH236448   1.433   1.762   0.876  0.5762 -0.5043 -0.3963
 4938TIP3    H136449   1.415   1.708   0.953 -0.8341 -1.0087 -1.0443
 4938TIP3    H236450   1.461   1.700   0.809  1.2297 -0.1335 -0.4811
 4939TIP3   OH236451   4.962   1.095   8.332 -0.2779 -0.3945  0.0436
 4939TIP3    H136452   4.897   1.067   8.268 -0.6024  0.3740  0.0237
 4939TIP3    H236453   5.043   1.052   8.305 -0.4086 -0.0776 -0.8731
 4940TIP3   OH236454   5.073   5.285   7.407  0.1297  0.3963  0.2497
 4940TIP3    H136455   5.026   5.209   7.443  1.9370 -0.0316  1.8483
 4940TIP3    H236456   5.003   5.343   7.377 -1.3514 -1.3521  0.0719
 4941TIP3   OH236457   1.949   0.397   8.301  0.7253 -0.3494  0.6623
 4941TIP3    H136458   2.008   0.471   8.289  0.1053  0.0475  0.0258
 4941TIP3    H236459   2.005   0.327   8.334  1.4665  0.1529  0.4824
 4942TIP3   OH236460   6.091   6.244   0.207  0.0976  0.2343 -0.4742
 4942TIP3    H136461   6.054   6.169   0.253  1.9138  0.2111  1.0544
 4942TIP3    H236462   6.015   6.297   0.183 -0.9993 -0.1666  1.8467
 4943TIP3   OH236463   5.220   3.221   0.358 -0.0006  0.3647  0.3560
 4943TIP3    H136464   5.307   3.225   0.319  0.0593 -1.2622  0.2797
 4943TIP3    H236465   5.181   3.141   0.323 -1.1920  0.5945  1.0890
 4944TIP3   OH236466   2.204   2.314   8.735 -0.0694 -0.1094 -0.1132
 4944TIP3    H136467   2.162   2.295   8.818 -0.9501  2.1654  0.0497
 4944TIP3    H236468   2.175   2.245   8.676 -1.1313 -0.5871  0.9405
 4945TIP3   OH236469   5.614   4.720   0.069  0.0536  0.0698 -0.4526
 4945TIP3    H136470   5.611   4.744   0.161  0.9016 -1.1872 -0.0625
 4945TIP3    H236471   5.555   4.645   0.062 -1.6735  1.4393 -1.4021
 4946TIP3   OH236472   5.908   6.028   1.597 -0.1542 -1.2661  0.2926
 4946TIP3    H136473   5.929   6.117   1.626  1.0227 -1.7149  0.9069
 4946TIP3    H236474   5.934   6.025   1.505 -1.8761 -0.4699 -0.2568
 4947TIP3   OH236475   6.327   6.045   8.412  0.0257  0.4346 -0.9683
 4947TIP3    H136476   6.243   6.080   8.441  0.5267  2.1029 -1.4487
 4947TIP3    H236477   6.308   6.004   8.328 -0.3404  0.6298 -0.9828
 4948TIP3   OH236478   3.098   1.989   7.611 -0.4555  0.0941 -0.0759
 4948TIP3    H136479   3.147   1.923   7.562  0.5704  1.7996 -1.4377
 4948TIP3    H236480   3.063   2.048   7.545 -0.3240  1.6198  1.1561
 4949TIP3   OH236481   4.687   0.194   1.077 -0.2153  0.1638  0.4305
 4949TIP3    H136482   4.682   0.127   1.009  0.0295 -0.3962  0.9544
 4949TIP3    H236483   4.739   0.264   1.038  1.0931 -0.7358  0.5009
 4950TIP3   OH236484   1.207   5.442   0.367 -0.0148 -0.3578  0.0109
 4950TIP3    H136485   1.238   5.410   0.282  0.5805 -4.0524  1.4583
 4950TIP3    H236486   1.288   5.463   0.414 -0.1710 -1.0214  0.5881
 4951TIP3   OH236487   2.458   0.800   2.104 -0.5214 -0.3803 -0.3339
 4951TIP3    H136488   2.426   0.812   2.193 -1.0145 -0.3035 -0.5217
 4951TIP3    H236489   2.553   0.805   2.112 -0.5163 -1.3036  0.3275
 4952TIP3   OH236490   5.125   5.886   0.269 -0.0041  0.2015 -0.2582
 4952TIP3    H136491   5.146   5.812   0.212  1.3249 -0.3213  0.8523
 4952TIP3    H236492   5.200   5.945   0.260 -0.6471  1.0126 -0.4552
 4953TIP3   OH236493   2.789   4.470   2.068 -0.7531  0.0904 -0.5571
 4953TIP3    H136494   2.866   4.417   2.090  0.4422  1.7641 -0.5045
 4953TIP3    H236495   2.723   4.443   2.131  0.2701 -0.3330  0.3665
 4954TIP3   OH236496   2.900   3.713   1.066  0.2025 -0.9075  0.1134
 4954TIP3    H136497   2.849   3.735   0.987  0.3700 -0.4088  0.1350
 4954TIP3    H236498   2.974   3.663   1.033  0.3953 -0.5035 -0.0843
 4955TIP3   OH236499   4.626   5.345   8.380 -0.0447 -1.1763  0.3177
 4955TIP3    H136500   4.577   5.347   8.297  0.9873  1.7757 -0.3522
 4955TIP3    H236501   4.714   5.318   8.354  0.5960  0.8792  0.1547
 4956TIP3   OH236502   3.820   6.842   7.023  0.2182  0.0984 -0.5064
 4956TIP3    H136503   3.882   6.903   6.983  1.5453 -1.0085 -0.2253
 4956TIP3    H236504   3.739   6.892   7.034  1.4796  2.0096  0.4197
 4957TIP3   OH236505   5.919   5.369   0.547 -0.7491 -0.1308  0.8382
 4957TIP3    H136506   5.874   5.425   0.611 -0.2673 -0.1160  1.1640
 4957TIP3    H236507   5.984   5.427   0.507 -1.3813  0.0021 -0.0331
 4958TIP3   OH236508   4.748   4.308   1.304 -0.1484  0.7011  0.8800
 4958TIP3    H136509   4.837   4.284   1.331 -0.5636  1.7233  3.4321
 4958TIP3    H236510   4.761   4.371   1.233  1.0382 -1.4607 -0.9725
 4959TIP3   OH236511   5.500   1.949   1.674  0.1629 -0.6334  0.2793
 4959TIP3    H136512   5.505   2.033   1.629  1.0084 -0.4950  0.6089
 4959TIP3    H236513   5.408   1.940   1.699  0.1748  0.4700  0.7529
 4960TIP3   OH236514   0.282   4.553   1.542  0.3248  0.1475  0.4094
 4960TIP3    H136515   0.278   4.645   1.569  0.8250  0.2968 -0.0015
 4960TIP3    H236516   0.285   4.557   1.446  1.1506 -0.2573  0.4119
 4961TIP3   OH236517   2.679   4.169   7.303  0.2646 -0.5818 -0.6342
 4961TIP3    H136518   2.663   4.076   7.324 -1.3576 -0.2355 -0.1678
 4961TIP3    H236519   2.716   4.168   7.215  0.6513 -1.6933 -0.4771
 4962TIP3   OH236520   4.998   6.285   3.154 -0.2056  0.6227  0.6024
 4962TIP3    H136521   5.057   6.254   3.085 -0.3563 -0.1787  0.8246
 4962TIP3    H236522   5.055   6.329   3.217  0.2913 -0.8621  1.2318
 4963TIP3   OH236523   1.357   1.639   8.640  0.5963  0.5924 -0.2591
 4963TIP3    H136524   1.310   1.696   8.702 -1.2159 -0.0433 -0.9671
 4963TIP3    H236525   1.293   1.622   8.571  1.5796 -1.1141 -0.8080
 4964TIP3   OH236526   5.782   1.514   7.402 -0.3656 -0.2679  0.4416
 4964TIP3    H136527   5.713   1.568   7.364 -1.4087 -2.1312 -0.4570
 4964TIP3    H236528   5.749   1.424   7.395  1.8124 -1.1548  0.7108
 4965TIP3   OH236529   3.678   0.026   8.673 -0.1814 -0.5456  0.0884
 4965TIP3    H136530   3.712  -0.050   8.719 -0.1302 -1.2599 -1.0912
 4965TIP3    H236531   3.679   0.001   8.581 -1.3092  0.4351 -0.2167
 4966TIP3   OH236532   2.094   0.247   1.189 -0.6107 -0.4287 -0.3071
 4966TIP3    H136533   2.045   0.166   1.175 -0.6198 -0.5980  0.6159
 4966TIP3    H236534   2.185   0.222   1.178 -0.6867 -0.1231 -1.9828
 4967TIP3   OH236535   4.029   6.728   3.241 -0.2630 -0.7131  0.5928
 4967TIP3    H136536   4.009   6.690   3.327 -0.2116  3.0367  2.4632
 4967TIP3    H236537   4.118   6.763   3.251  0.5157 -1.8691 -1.7143
 4968TIP3   OH236538   1.540   5.924   1.379  0.7426  0.0554 -0.8545
 4968TIP3    H136539   1.458   5.966   1.352  0.5680  0.0935 -0.2771
 4968TIP3    H236540   1.514   5.835   1.402  0.7396  0.2690 -0.0068
 4969TIP3   OH236541   5.543   5.885   1.834 -0.1631 -0.1022 -0.1866
 4969TIP3    H136542   5.522   5.884   1.741  0.0095 -0.0916 -0.2260
 4969TIP3    H236543   5.472   5.836   1.876 -1.0758  1.1987 -0.1477
 4970TIP3   OH236544   1.951   2.222   7.736  0.3392  0.3509  0.1482
 4970TIP3    H136545   1.958   2.219   7.831 -0.5528  1.5774  0.2820
 4970TIP3    H236546   1.958   2.130   7.708  0.7869 -0.0016  1.3673
 4971TIP3   OH236547   1.738   0.419   8.452  0.1175  0.3250 -0.0148
 4971TIP3    H136548   1.801   0.373   8.398  0.5345 -0.2874  0.9650
 4971TIP3    H236549   1.789   0.453   8.526 -0.5378  0.6324  0.3087
 4972TIP3   OH236550   2.735   0.165   7.405 -0.7119 -0.2175 -0.2172
 4972TIP3    H136551   2.728   0.260   7.394 -1.4755 -0.3405 -0.8787
 4972TIP3    H236552   2.829   0.146   7.396 -0.5691  0.4582 -0.1710
 4973TIP3   OH236553   1.923   3.987   8.394  0.0696 -0.3510 -0.3401
 4973TIP3    H136554   1.845   3.993   8.449 -0.7855 -1.8133 -1.3149
 4973TIP3    H236555   1.952   3.897   8.405 -0.0543 -0.6475 -2.1496
 4974TIP3   OH236556   2.423   4.380   0.379  0.2442 -0.5304 -0.0253
 4974TIP3    H136557   2.363   4.429   0.322 -0.6884 -0.1427  1.2492
 4974TIP3    H236558   2.371   4.307   0.412  0.9540 -1.0951 -0.1212
 4975TIP3   OH236559   6.164   1.806   2.817 -0.5521 -0.7027 -0.2296
 4975TIP3    H136560   6.145   1.785   2.726 -2.5244 -0.6757  0.1255
 4975TIP3    H236561   6.119   1.738   2.867  0.4410 -0.6723  0.7355
 4976TIP3   OH236562   6.372   3.774   2.472 -0.1199 -0.0327  0.0918
 4976TIP3    H136563   6.307   3.841   2.451 -1.1691 -0.6243  1.2878
 4976TIP3    H236564   6.335   3.727   2.547  1.3716 -0.8558  0.3642
 4977TIP3   OH236565   2.891   6.038   0.589 -0.2606 -0.0329  0.4786
 4977TIP3    H136566   2.839   6.012   0.666 -0.7350  1.8531  0.8709
 4977TIP3    H236567   2.912   6.130   0.606  0.3531  0.1721 -1.2766
 4978TIP3   OH236568   3.547   3.234   2.497  0.1259 -0.2451 -0.1349
 4978TIP3    H136569   3.552   3.271   2.585 -2.7255 -0.1052  0.0657
 4978TIP3    H236570   3.593   3.150   2.503 -0.2893 -0.3765  1.5988
 4979TIP3   OH236571   5.542   5.989   8.159  0.2905  0.0097  0.2956
 4979TIP3    H136572   5.583   5.948   8.083 -1.3765  1.4114 -1.4586
 4979TIP3    H236573   5.474   5.927   8.186  1.9696 -1.2992  1.8519
 4980TIP3   OH236574   1.650   2.180   0.982 -0.3707 -0.1389 -0.1901
 4980TIP3    H136575   1.744   2.170   0.969 -0.6359 -2.5125 -0.6483
 4980TIP3    H236576   1.631   2.132   1.063 -1.1642  0.4876  0.0135
 4981TIP3   OH236577   2.553   2.418   2.370 -0.0653  0.2675 -0.6793
 4981TIP3    H136578   2.562   2.499   2.420  1.3570 -1.1696  1.5775
 4981TIP3    H236579   2.641   2.380   2.370 -0.9447 -1.9341 -0.4767
 4982TIP3   OH236580   5.685   0.888   1.899 -0.7063 -0.6533 -0.2837
 4982TIP3    H136581   5.623   0.959   1.918 -1.7569 -1.7414  0.4353
 4982TIP3    H236582   5.768   0.920   1.935 -1.7001 -0.7773  2.2892
 4983TIP3   OH236583   3.997   0.719   2.790  0.2985  0.1427 -0.1328
 4983TIP3    H136584   3.915   0.675   2.768  0.4704 -1.4688  2.0342
 4983TIP3    H236585   4.056   0.699   2.718 -0.0566 -2.1678  0.1450
 4984TIP3   OH236586   1.259   4.470   1.391  0.4730  0.2451 -0.6168
 4984TIP3    H136587   1.285   4.444   1.480 -2.3492  1.9603  0.8315
 4984TIP3    H236588   1.223   4.390   1.353 -2.4231  0.3866  1.5169
 4985TIP3   OH236589   0.653   3.856   7.621  0.1183 -0.4983  0.5734
 4985TIP3    H136590   0.744   3.877   7.641 -0.2788  1.5431  0.4262
 4985TIP3    H236591   0.651   3.761   7.615  2.4893 -0.5427 -0.5981
 4986TIP3   OH236592   1.214   0.995   0.942 -0.3009 -0.1224 -0.0510
 4986TIP3    H136593   1.164   1.074   0.965  2.2266  1.6844 -0.4096
 4986TIP3    H236594   1.243   1.010   0.853  2.3819 -0.2037  0.7311
 4987TIP3   OH236595   4.510   2.491   2.365  0.4514 -0.6467 -0.2190
 4987TIP3    H136596   4.576   2.539   2.413 -0.6469  1.1785 -0.4432
 4987TIP3    H236597   4.503   2.536   2.280 -2.0478  0.1912  0.3266
 4988TIP3   OH236598   5.676   0.732   8.138  0.2562 -0.5701 -0.1258
 4988TIP3    H136599   5.764   0.714   8.107  0.6858 -0.5823  1.0373
 4988TIP3    H236600   5.639   0.646   8.158  0.0949 -0.5465 -0.3205
 4989TIP3   OH236601   1.231   5.796   0.846  0.4311 -0.7589 -0.2711
 4989TIP3    H136602   1.318   5.767   0.819  1.2445  0.3721  1.0255
 4989TIP3    H236603   1.227   5.888   0.819  1.7745  0.8687  4.1693
 4990TIP3   OH236604   0.546   3.678   2.773 -0.4538 -0.0176  0.3238
 4990TIP3    H136605   0.617   3.715   2.826  0.2660  0.2765 -0.8145
 4990TIP3    H236606   0.535   3.589   2.806  1.3077 -0.4973 -0.2880
 4991TIP3   OH236607   6.302   5.860   7.896 -0.0491  0.0891  0.1162
 4991TIP3    H136608   6.364   5.814   7.841  0.6464  1.8496 -0.6322
 4991TIP3    H236609   6.216   5.841   7.857  0.2883 -0.0195 -0.5851
 4992TIP3   OH236610   2.375   4.792   7.995 -0.0649 -0.2019 -0.4143
 4992TIP3    H136611   2.467   4.793   8.022  0.3230 -0.5329 -1.6322
 4992TIP3    H236612   2.341   4.709   8.028  0.1503 -0.2055 -0.2019
 4993TIP3   OH236613   5.171   1.798   0.762  0.3240  0.4034 -0.4723
 4993TIP3    H136614   5.206   1.715   0.794 -0.0764 -0.0639 -1.2136
 4993TIP3    H236615   5.247   1.846   0.731  0.6577  0.6513  0.6768
 4994TIP3   OH236616   2.353   3.723   1.183 -0.3001  0.4876  0.0409
 4994TIP3    H136617   2.355   3.682   1.097  0.5656  1.8889 -0.6577
 4994TIP3    H236618   2.439   3.764   1.191 -0.6283  0.9785  1.2798
 4995TIP3   OH236619   0.098   5.539   8.631 -0.4197  0.4350 -0.3745
 4995TIP3    H136620   0.109   5.459   8.682 -0.4186  0.7317  0.0957
 4995TIP3    H236621   0.133   5.517   8.544 -2.7934 -0.9050 -1.0750
 4996TIP3   OH236622   0.122   4.294   2.914  0.2592 -0.1445  0.1354
 4996TIP3    H136623   0.044   4.334   2.874  0.5387 -0.0204 -0.2958
 4996TIP3    H236624   0.144   4.352   2.986  0.3514  0.1913 -0.1618
 4997TIP3   OH236625   5.720   4.916   1.434  1.3203  0.1191 -0.0512
 4997TIP3    H136626   5.804   4.872   1.446  0.8219 -0.5078  1.4491
 4997TIP3    H236627   5.717   4.937   1.341  1.9567 -2.3119 -0.7037
 4998TIP3   OH236628   4.963   2.753   7.380 -0.0348 -0.0798  0.4835
 4998TIP3    H136629   5.044   2.705   7.366  0.6178  0.4783  2.1555
 4998TIP3    H236630   4.990   2.836   7.417 -1.3709  0.1598  0.9831
 4999TIP3   OH236631   2.623   4.801   8.091 -0.1181 -0.0035 -0.2092
 4999TIP3    H136632   2.659   4.730   8.145 -0.5154  0.0834  0.1766
 4999TIP3    H236633   2.690   4.868   8.092 -0.8136  0.7455  1.6586
 5000TIP3   OH236634   3.551   3.804   0.141  0.1051  0.3457 -0.5056
 5000TIP3    H136635   3.626   3.765   0.096  0.2971  0.2974 -0.1491
 5000TIP3    H236636   3.533   3.884   0.092 -2.1597 -1.5415 -3.1060
 5001TIP3   OH236637   5.789   4.135   7.730 -0.2835 -0.6567 -0.3264
 5001TIP3    H136638   5.813   4.045   7.753 -1.5873 -1.4476 -1.8227
 5001TIP3    H236639   5.740   4.126   7.648 -2.2126  1.1974  0.5247
 5002TIP3   OH236640   5.797   1.600   1.397  0.1020 -0.1708  0.3665
 5002TIP3    H136641   5.736   1.532   1.369  0.7533 -0.7892  0.4284
 5002TIP3    H236642   5.757   1.682   1.366 -0.1546 -0.6695 -0.6617
 5003TIP3   OH236643   1.037   0.355   6.919 -0.3819  0.0815 -0.6156
 5003TIP3    H136644   1.124   0.375   6.884 -0.6620  1.7560 -0.4315
 5003TIP3    H236645   1.022   0.264   6.894  1.7158 -0.4833 -0.0092
 5004TIP3   OH236646   2.164   0.934   7.024  0.3730  0.2352 -0.7173
 5004TIP3    H136647   2.085   0.886   6.997  0.6773 -1.0595  0.5380
 5004TIP3    H236648   2.135   0.989   7.097  0.2776  1.1091 -1.3984
 5005TIP3   OH236649   3.428   1.598   0.219 -0.5619  0.0671  0.7043
 5005TIP3    H136650   3.491   1.621   0.287  1.1395  0.8066 -1.0487
 5005TIP3    H236651   3.348   1.644   0.245  0.2165  0.8154  1.8912
 5006TIP3   OH236652   6.521   0.267   1.045 -0.3522 -0.7258  0.5973
 5006TIP3    H136653   6.590   0.290   0.982 -0.7276 -1.0520  0.0499
 5006TIP3    H236654   6.499   0.350   1.088 -1.5194 -0.0530 -1.1655
 5007TIP3   OH236655   2.276   3.267   0.033 -0.3944 -0.0010  0.2859
 5007TIP3    H136656   2.307   3.340  -0.020 -0.0946  0.7841  1.4892
 5007TIP3    H236657   2.355   3.216   0.051 -0.2654  0.4343  1.0019
 5008TIP3   OH236658   2.492   3.354   0.338 -0.3663 -0.2460 -0.9605
 5008TIP3    H136659   2.403   3.347   0.305 -0.2614 -1.0994 -1.0962
 5008TIP3    H236660   2.519   3.263   0.353 -0.5993  0.0738  1.9564
 5009TIP3   OH236661   4.586   6.267   1.413 -0.2100  0.1877  0.4661
 5009TIP3    H136662   4.668   6.311   1.392  0.4410 -1.1019  0.2098
 5009TIP3    H236663   4.582   6.267   1.508  1.2728 -1.7528  0.5952
 5010TIP3   OH236664   1.685   5.368   0.497  0.0120  0.1404  0.3075
 5010TIP3    H136665   1.693   5.330   0.585 -0.1380 -0.7922 -0.0732
 5010TIP3    H236666   1.770   5.352   0.456 -0.0835  0.1387  0.1101
 5011TIP3   OH236667   2.786   2.291   3.278  0.5985 -0.0270 -0.3331
 5011TIP3    H136668   2.698   2.256   3.267  0.8305 -0.5473 -0.5344
 5011TIP3    H236669   2.836   2.220   3.317  0.9637  0.2179 -0.3493
 5012TIP3   OH236670   4.332   6.651   3.469 -0.3520 -0.0786 -0.1750
 5012TIP3    H136671   4.300   6.710   3.401 -1.8965  0.2982  0.8064
 5012TIP3    H236672   4.324   6.564   3.431  0.1190  0.2166 -0.9631
 5013TIP3   OH236673   2.447   3.985   0.337  0.2866  0.2644  0.3455
 5013TIP3    H136674   2.380   3.945   0.392  0.6664 -1.3046 -0.3032
 5013TIP3    H236675   2.478   3.915   0.280  3.4458  0.5078  1.5334
 5014TIP3   OH236676   1.395   3.484   2.632 -0.1827  0.8954  0.6005
 5014TIP3    H136677   1.490   3.494   2.634  0.0109 -0.6523  1.0094
 5014TIP3    H236678   1.370   3.479   2.724 -0.3429 -0.9058  0.5033
 5015TIP3   OH236679   0.524   5.015   0.642 -0.0078 -0.2870 -0.2093
 5015TIP3    H136680   0.454   5.033   0.704 -0.1632  0.9385 -0.6934
 5015TIP3    H236681   0.599   4.990   0.696 -0.4153 -0.1842  0.4103
 5016TIP3   OH236682   4.479   3.512   1.928  0.4814  0.2409  0.3999
 5016TIP3    H136683   4.431   3.498   2.010  2.6061 -1.9695  1.3870
 5016TIP3    H236684   4.501   3.424   1.897  1.5837  1.0879 -1.4026
 5017TIP3   OH236685   1.312   1.055   7.587  0.1227 -0.2875  0.1076
 5017TIP3    H136686   1.289   0.962   7.588  0.4548 -0.4174 -1.6810
 5017TIP3    H236687   1.407   1.056   7.577 -0.0771  0.1701 -2.4237
 5018TIP3   OH236688   1.103   0.957   1.264 -0.5739  0.2042  0.8322
 5018TIP3    H136689   1.140   1.038   1.299  0.5117 -0.5396  1.4866
 5018TIP3    H236690   1.131   0.890   1.327 -0.4998 -0.8384 -0.2878
 5019TIP3   OH236691   3.173   4.594   1.147  0.3535  0.5439 -0.2554
 5019TIP3    H136692   3.239   4.652   1.108 -0.0243  1.0306 -0.1888
 5019TIP3    H236693   3.124   4.651   1.207 -0.7053  0.4167 -0.9728
 5020TIP3   OH236694   1.908   2.843   1.494 -0.0968  0.1402  0.4994
 5020TIP3    H136695   1.926   2.787   1.569  0.8982 -0.7441 -0.3482
 5020TIP3    H236696   1.879   2.782   1.426  1.9662  0.4724 -0.7583
 5021TIP3   OH236697   4.939   1.864   1.842 -0.3463 -0.9451 -0.2843
 5021TIP3    H136698   5.008   1.876   1.777  0.2964  0.0079  0.5335
 5021TIP3    H236699   4.956   1.778   1.880  0.3538 -0.7463 -0.1425
 5022TIP3   OH236700   6.136   3.423   0.408  0.0258 -0.3607  0.0317
 5022TIP3    H136701   6.218   3.428   0.456  0.6760  1.4426 -1.1564
 5022TIP3    H236702   6.146   3.347   0.351  1.6954  0.8776 -1.4376
 5023TIP3   OH236703   1.059   1.463   7.958  0.0140 -0.2181  0.0745
 5023TIP3    H136704   1.011   1.396   7.910 -0.9592 -0.2451  1.0514
 5023TIP3    H236705   1.014   1.545   7.936 -1.4555 -0.4138  2.1119
 5024TIP3   OH236706   3.747   6.415   7.525  0.2204 -0.4429  0.2051
 5024TIP3    H136707   3.712   6.379   7.443 -0.2870 -2.5241  1.2762
 5024TIP3    H236708   3.832   6.373   7.535  0.7484  0.6042  0.2523
 5025TIP3   OH236709   3.521   6.266   2.260 -0.1611 -0.4747  0.3769
 5025TIP3    H136710   3.606   6.226   2.277  0.6040  1.2812  0.9713
 5025TIP3    H236711   3.497   6.306   2.343 -0.1194  1.5623 -0.5293
 5026TIP3   OH236712   0.411   1.245   8.696  0.1733 -0.2534 -0.2213
 5026TIP3    H136713   0.490   1.208   8.655 -0.2692 -1.8420  0.2701
 5026TIP3    H236714   0.361   1.281   8.624  1.3559  0.8216 -0.5419
 5027TIP3   OH236715   6.687   3.389   3.031  0.1783 -0.3915  0.3896
 5027TIP3    H136716   6.664   3.473   3.070 -0.5566 -0.0484 -0.7569
 5027TIP3    H236717   6.777   3.373   3.060  0.0411  0.3713  1.2931
 5028TIP3   OH236718   3.961   6.323   2.442 -0.2928 -0.1401 -0.6051
 5028TIP3    H136719   3.927   6.242   2.405 -0.4688 -0.8643  1.0370
 5028TIP3    H236720   3.925   6.326   2.531  1.2884  0.7368  0.0593
 5029TIP3   OH236721   2.032   5.367   1.825 -0.4066 -0.1901 -0.0338
 5029TIP3    H136722   2.026   5.296   1.889  0.5077 -1.4327 -1.2563
 5029TIP3    H236723   1.948   5.366   1.778 -0.4127 -0.4356 -0.0155
 5030TIP3   OH236724   1.512   3.797   8.402  0.1534  0.0058 -0.5324
 5030TIP3    H136725   1.569   3.771   8.474 -1.1752 -0.4644  0.3974
 5030TIP3    H236726   1.564   3.783   8.323  1.4669  0.0501  0.3104
 5031TIP3   OH236727   5.224   3.829   8.285 -0.5197 -0.5059 -0.1295
 5031TIP3    H136728   5.236   3.847   8.191  0.2716  0.6085  0.1650
 5031TIP3    H236729   5.129   3.838   8.298 -0.3936  2.0828 -0.3391
 5032TIP3   OH236730   6.013   1.806   1.164  0.1247  0.3123  0.3655
 5032TIP3    H136731   6.013   1.841   1.253 -0.6935 -0.7750  0.8259
 5032TIP3    H236732   6.046   1.877   1.109  1.5652  0.6880  1.6579
 5033TIP3   OH236733   3.705   2.693   7.423  0.1143 -0.3816 -0.3207
 5033TIP3    H136734   3.645   2.643   7.368 -0.5303  0.7455 -0.6760
 5033TIP3    H236735   3.650   2.730   7.491  0.5082  0.1785 -0.3034
 5034TIP3   OH236736   6.330   3.162   0.448  0.3010 -0.1094 -0.0109
 5034TIP3    H136737   6.276   3.121   0.516 -0.0539  1.4691  0.7010
 5034TIP3    H236738   6.270   3.175   0.375  0.3500 -0.5881 -0.1420
 5035TIP3   OH236739   2.949   0.361   2.576 -0.0492 -0.0901 -0.1279
 5035TIP3    H136740   2.946   0.265   2.581 -2.4989 -0.0657  0.1414
 5035TIP3    H236741   2.860   0.389   2.596  0.2240  2.2036 -1.6999
 5036TIP3   OH236742   4.268   5.147   1.788 -0.1727 -0.3565 -0.2327
 5036TIP3    H136743   4.362   5.168   1.784  0.1370 -1.6859 -0.6891
 5036TIP3    H236744   4.234   5.200   1.860  0.1183  3.0220 -2.3506
 5037TIP3   OH236745   6.731   2.616   3.045  0.2360  0.7281 -0.1430
 5037TIP3    H136746   6.659   2.662   3.003 -1.6387  0.3798  2.4391
 5037TIP3    H236747   6.760   2.675   3.114  2.0374  0.5762 -0.7165
 5038TIP3   OH236748   1.325   0.394   6.816 -0.1183 -0.0721  0.0850
 5038TIP3    H136749   1.397   0.437   6.863 -1.1658  0.9794  0.8113
 5038TIP3    H236750   1.353   0.303   6.808  2.8873  0.8825 -2.8486
 5039TIP3   OH236751   4.540   2.137   7.791  0.2800  0.3984  0.6308
 5039TIP3    H136752   4.571   2.112   7.704  0.6548 -1.7472  1.3199
 5039TIP3    H236753   4.449   2.110   7.793 -0.0479  1.4713  0.5395
 5040TIP3   OH236754   6.444   1.376   8.239 -0.1167 -0.2157  0.3653
 5040TIP3    H136755   6.532   1.338   8.237  0.3262  0.7605 -1.5049
 5040TIP3    H236756   6.410   1.355   8.326  1.9550 -0.6192  1.1292
 5041TIP3   OH236757   3.014   4.291   2.090 -0.1153  0.1020  0.4495
 5041TIP3    H136758   2.962   4.244   2.155  0.8973 -0.8508  0.5923
 5041TIP3    H236759   3.034   4.225   2.023  0.5577  0.5562  0.1925
 5042TIP3   OH236760   1.268   5.611   1.538 -0.0046 -0.4647 -0.1518
 5042TIP3    H136761   1.310   5.577   1.617 -1.5652 -2.4355 -0.1180
 5042TIP3    H236762   1.176   5.622   1.562  0.0665  2.1806 -0.7366
 5043TIP3   OH236763   4.748   3.237   2.311  0.3535 -0.1729 -0.5050
 5043TIP3    H136764   4.808   3.172   2.348 -0.5090 -1.2763 -0.9644
 5043TIP3    H236765   4.675   3.241   2.372  0.2478  0.1215 -0.6475
 5044TIP3   OH236766   5.841   3.213   8.419 -0.2643  0.0190 -0.1285
 5044TIP3    H136767   5.914   3.162   8.454 -0.4145 -0.1966 -0.1260
 5044TIP3    H236768   5.783   3.226   8.494 -1.9012 -2.6922 -0.7761
 5045TIP3   OH236769   6.165   2.660   8.484 -0.4419 -0.1048 -0.2910
 5045TIP3    H136770   6.203   2.619   8.407  0.6074  0.5297 -0.1280
 5045TIP3    H236771   6.093   2.602   8.509  0.8527 -1.7385 -0.1885
 5046TIP3   OH236772   4.123   2.506   7.461  0.2151 -0.7158 -0.0255
 5046TIP3    H136773   4.215   2.526   7.479 -0.1047  0.0504  0.8600
 5046TIP3    H236774   4.114   2.519   7.366  1.0586 -1.0020 -0.1525
 5047TIP3   OH236775   2.252   3.902   7.126 -0.4700  0.4976  0.5188
 5047TIP3    H136776   2.216   3.978   7.171 -1.2737  0.9526 -0.8187
 5047TIP3    H236777   2.174   3.855   7.094  0.0617  0.3072 -0.5390
 5048TIP3   OH236778   0.967   0.455   7.676 -0.3298  0.1174  0.1564
 5048TIP3    H136779   0.915   0.379   7.651 -0.0377 -0.9376  2.4906
 5048TIP3    H236780   1.015   0.478   7.596 -2.4983 -0.3640 -1.3919
 5049TIP3   OH236781   3.044   5.012   8.575 -0.8781 -0.5910  0.3789
 5049TIP3    H136782   3.009   5.084   8.523  1.6014  0.4020 -0.0480
 5049TIP3    H236783   3.089   5.055   8.648 -1.2431 -1.8134  1.3559
 5050TIP3   OH236784   5.291   6.094   0.394  0.0958  0.5656 -0.2417
 5050TIP3    H136785   5.356   6.032   0.425  1.1509  1.9745  0.4821
 5050TIP3    H236786   5.331   6.134   0.316 -0.3102  0.7833 -0.3450
 5051TIP3   OH236787   4.637   5.783   7.634 -0.5851 -0.3765 -0.4976
 5051TIP3    H136788   4.611   5.861   7.585  0.9876  0.8534  0.5224
 5051TIP3    H236789   4.572   5.717   7.610 -2.1592  1.3208 -1.1579
 5052TIP3   OH236790   2.426   0.730   1.786  0.0736 -0.5598  0.0218
 5052TIP3    H136791   2.417   0.806   1.729 -0.6681 -0.8391 -0.2456
 5052TIP3    H236792   2.475   0.762   1.862  0.7039 -0.0858 -0.5787
 5053TIP3   OH236793   3.050   5.162   0.833 -0.1085  0.3254  0.0149
 5053TIP3    H136794   3.061   5.251   0.866  0.8649  0.0883  0.3628
 5053TIP3    H236795   3.138   5.134   0.810 -0.2914 -0.8119  0.6156
 5054TIP3   OH236796   1.609   5.866   3.096 -0.1888  0.0558  0.0881
 5054TIP3    H136797   1.552   5.911   3.158 -2.9370 -2.2005 -0.6003
 5054TIP3    H236798   1.612   5.923   3.019 -0.8595  0.5749  0.4344
 5055TIP3   OH236799   0.761   0.822   1.209 -0.0025  0.7704 -0.0277
 5055TIP3    H136800   0.809   0.875   1.146 -0.3480 -1.3915 -2.2420
 5055TIP3    H236801   0.828   0.771   1.254  0.0395 -0.4891 -1.4331
 5056TIP3   OH236802   3.629   5.766   1.016 -0.6452  0.0694  0.4915
 5056TIP3    H136803   3.621   5.788   1.109 -0.6352  0.0814  0.4896
 5056TIP3    H236804   3.555   5.812   0.975  1.1698  2.8189  0.0036
 5057TIP3   OH236805   5.194   1.285   7.704  0.1938  0.1658 -0.0165
 5057TIP3    H136806   5.157   1.201   7.732 -2.0484  0.2343 -2.4288
 5057TIP3    H236807   5.122   1.347   7.715  0.8274  1.1345 -1.1869
 5058TIP3   OH236808   3.409   3.035   0.544 -0.2658  0.5451 -0.3398
 5058TIP3    H136809   3.426   3.032   0.639  0.3059  1.5894 -0.3881
 5058TIP3    H236810   3.485   2.993   0.505 -0.7695 -0.3997 -0.3228
 5059TIP3   OH236811   1.261   4.394   1.671  1.0739 -0.5052 -0.8036
 5059TIP3    H136812   1.218   4.477   1.692 -0.1853 -1.3987  0.3394
 5059TIP3    H236813   1.316   4.375   1.746 -0.3088 -1.7203 -0.0400
 5060TIP3   OH236814   4.638   0.072   2.951 -0.5783 -0.2783  0.1190
 5060TIP3    H136815   4.594   0.088   3.034  1.1763  0.9629  0.8599
 5060TIP3    H236816   4.728   0.051   2.975  0.9671  3.6440 -1.4772
 5061TIP3   OH236817   2.755   3.341   2.270 -0.1198  0.5526  0.1623
 5061TIP3    H136818   2.659   3.346   2.263 -0.1738  0.4818  0.7942
 5061TIP3    H236819   2.774   3.370   2.359  0.3131 -0.9658  0.5963
 5062TIP3   OH236820   6.512   0.222   8.172  0.6118 -0.1723 -0.5497
 5062TIP3    H136821   6.515   0.132   8.204  1.1425  0.2557  0.6661
 5062TIP3    H236822   6.599   0.238   8.136  1.1231  0.4072  0.8777
 5063TIP3   OH236823   2.690   5.775   8.302  0.5698 -0.7068 -0.2721
 5063TIP3    H136824   2.618   5.834   8.280  0.4004 -1.3277 -1.4574
 5063TIP3    H236825   2.649   5.702   8.348  0.0431 -2.0792 -2.7012
 5064TIP3   OH236826   6.585   4.137   1.877  0.4278 -0.2611 -0.2040
 5064TIP3    H136827   6.525   4.088   1.820  0.9062  0.7593 -1.6555
 5064TIP3    H236828   6.671   4.125   1.837  0.5631  1.7063 -0.6368
 5065TIP3   OH236829   1.392   3.156   0.435 -0.0013 -0.2574 -0.2386
 5065TIP3    H136830   1.425   3.194   0.353 -1.3560  2.5145  0.3572
 5065TIP3    H236831   1.463   3.170   0.498  0.9584 -2.2013 -0.8208
 5066TIP3   OH236832   0.218   3.816   1.102 -0.3413 -0.3952 -0.6307
 5066TIP3    H136833   0.158   3.840   1.032 -0.5477  0.6807 -0.0985
 5066TIP3    H236834   0.295   3.780   1.057 -0.6683 -0.1711 -1.3820
 5067TIP3   OH236835   3.948   3.100   3.040 -0.2394  0.4519 -0.3422
 5067TIP3    H136836   4.002   3.179   3.039  0.6442 -0.1408 -1.3378
 5067TIP3    H236837   4.002   3.033   2.997 -1.3530 -0.4335 -0.4107
 5068TIP3   OH236838   1.497   2.051   2.834  0.5633 -0.6346  0.6753
 5068TIP3    H136839   1.578   2.070   2.882 -0.3161  0.7412  1.6914
 5068TIP3    H236840   1.436   2.021   2.902  0.1550 -1.5389 -0.0636
 5069TIP3   OH236841   2.194   6.358   6.921 -0.1542  0.3437 -0.3484
 5069TIP3    H136842   2.272   6.403   6.953 -0.1150  1.7118 -2.2501
 5069TIP3    H236843   2.121   6.413   6.949 -0.2708  0.4007 -0.7676
 5070TIP3   OH236844   3.803   3.283   3.367  0.2576  0.3405  0.3174
 5070TIP3    H136845   3.843   3.370   3.364  0.3881  0.2535 -2.5375
 5070TIP3    H236846   3.731   3.287   3.304 -0.1440 -1.4344  0.6213
 5071TIP3   OH236847   6.318   5.985   0.474 -0.4014  0.4176 -0.0441
 5071TIP3    H136848   6.380   6.053   0.448 -1.3143  1.3918  0.2405
 5071TIP3    H236849   6.344   5.961   0.563 -0.5724  1.0049  0.1703
 5072TIP3   OH236850   5.988   5.837   0.956 -0.2140  0.1355  0.3705
 5072TIP3    H136851   5.941   5.868   1.033  1.0394  1.2933  0.6876
 5072TIP3    H236852   6.033   5.758   0.986 -2.1884 -1.2372 -0.0417
 5073TIP3   OH236853   6.533   2.647   7.971  0.3241  0.0542 -0.0202
 5073TIP3    H136854   6.487   2.731   7.970  0.9017  0.3746  0.0852
 5073TIP3    H236855   6.576   2.642   7.885  2.4577  1.0986  0.9033
 5074TIP3   OH236856   2.369   1.328   0.502  0.0887  0.2386  0.0707
 5074TIP3    H136857   2.381   1.293   0.590 -0.4875  0.4764  0.2489
 5074TIP3    H236858   2.431   1.400   0.496  0.1633  0.1910  0.2643
 5075TIP3   OH236859   2.949   1.132   0.155  0.6866 -0.1995  0.5017
 5075TIP3    H136860   2.892   1.157   0.228  2.1986 -0.2458  1.7483
 5075TIP3    H236861   2.998   1.211   0.135  0.6367 -0.3308 -0.1433
 5076TIP3   OH236862   4.296   6.313   2.941 -0.7068  0.2938 -0.2741
 5076TIP3    H136863   4.264   6.398   2.972  0.0395  0.8389 -0.9397
 5076TIP3    H236864   4.357   6.335   2.870 -1.5184 -0.8587 -1.3634
 5077TIP3   OH236865   5.478   5.726   0.570  0.1738  0.0376 -0.0637
 5077TIP3    H136866   5.473   5.822   0.576 -0.8407 -0.0653  1.0867
 5077TIP3    H236867   5.568   5.709   0.544  1.1570  1.2455  2.2236
 5078TIP3   OH236868   2.858   0.455   2.087  0.4032 -0.0289 -0.0253
 5078TIP3    H136869   2.879   0.435   2.178  0.9242  5.2082  1.3256
 5078TIP3    H236870   2.764   0.475   2.088  0.5525  0.7354 -0.4545
 5079TIP3   OH236871   1.965   1.917   1.911 -0.2235 -0.5319  0.4184
 5079TIP3    H136872   1.996   1.870   1.833  0.7153 -1.9976  1.6270
 5079TIP3    H236873   2.045   1.937   1.959 -0.8118  0.2478  1.0993
 5080TIP3   OH236874   3.357   2.320   2.487  0.6194 -0.4870 -0.2079
 5080TIP3    H136875   3.446   2.294   2.510  1.0275 -0.7516 -1.9174
 5080TIP3    H236876   3.358   2.327   2.391 -0.9295  0.5093 -0.1949
 5081TIP3   OH236877   5.276   2.442   1.641  0.1089 -0.1004 -0.2743
 5081TIP3    H136878   5.326   2.518   1.610  0.8821 -0.7103 -0.5614
 5081TIP3    H236879   5.244   2.400   1.561  0.8385 -0.8309 -0.2008
 5082TIP3   OH236880   0.750   5.633   8.724  0.5989 -0.5996 -0.5080
 5082TIP3    H136881   0.767   5.552   8.677 -0.0405 -1.2596  0.3618
 5082TIP3    H236882   0.771   5.612   8.815 -4.9090 -1.6822  0.8540
 5083TIP3   OH236883   1.422   5.761   2.232  0.4629  0.2059 -0.4681
 5083TIP3    H136884   1.488   5.700   2.199 -2.4291 -3.3352 -0.4251
 5083TIP3    H236885   1.405   5.732   2.321  0.1979  2.2842  0.1894
 5084TIP3   OH236886   4.889   5.293   3.384 -0.2373  0.5918 -0.5401
 5084TIP3    H136887   4.904   5.199   3.376 -1.1832  0.2861  0.7982
 5084TIP3    H236888   4.916   5.314   3.473  0.2930  1.6704 -0.9368
 5085TIP3   OH236889   3.644   6.018   0.118  0.0653  0.1337  0.2537
 5085TIP3    H136890   3.668   5.938   0.166 -0.7660 -0.4841 -0.3388
 5085TIP3    H236891   3.727   6.065   0.108  0.1339  0.9344  3.3631
 5086TIP3   OH236892   0.102   4.660   7.413 -0.3394 -0.3862 -0.7517
 5086TIP3    H136893   0.038   4.598   7.450  0.1932 -0.3652  0.2302
 5086TIP3    H236894   0.051   4.740   7.398 -0.5708 -0.3916 -0.0424
 5087TIP3   OH236895   1.980   6.616   3.017 -0.2739 -0.0807 -0.1929
 5087TIP3    H136896   1.942   6.533   2.990 -0.4654 -0.0479 -0.0287
 5087TIP3    H236897   1.935   6.682   2.964 -1.5105  0.0984  1.0311
 5088TIP3   OH236898   6.198   5.169   7.548  0.0596 -0.6065  0.1972
 5088TIP3    H136899   6.166   5.259   7.555  0.9645 -0.3020  0.6894
 5088TIP3    H236900   6.136   5.126   7.490  0.2795  0.6576 -1.0384
 5089TIP3   OH236901   1.944   2.504   7.830  0.3695 -0.4114  0.4684
 5089TIP3    H136902   1.849   2.514   7.841  0.5508  1.6026  0.5560
 5089TIP3    H236903   1.954   2.434   7.766 -1.1730 -0.8061  0.6314
 5090TIP3   OH236904   3.504   5.016   2.027 -0.2584  0.1782 -0.5324
 5090TIP3    H136905   3.569   4.965   2.075 -0.6594 -0.8244 -1.0212
 5090TIP3    H236906   3.552   5.093   1.996  0.2065  0.4288  0.7369
 5091TIP3   OH236907   3.254   5.084   7.640  0.4944 -0.0237  0.1478
 5091TIP3    H136908   3.281   4.992   7.634 -0.3813 -0.2086 -2.6727
 5091TIP3    H236909   3.312   5.129   7.579 -0.2860  0.9798  0.1305
 5092TIP3   OH236910   3.928   5.037   1.194 -0.2568  0.0548  0.2368
 5092TIP3    H136911   3.958   5.060   1.106  1.2678 -0.1537  0.6566
 5092TIP3    H236912   4.004   5.055   1.250 -0.7694 -1.0045  1.3248
 5093TIP3   OH236913   5.988   5.910   8.186  0.1252  0.0951  0.1927
 5093TIP3    H136914   5.942   5.954   8.115 -1.0134 -0.3875  0.6190
 5093TIP3    H236915   5.979   5.817   8.167 -2.0842 -0.1587  2.0539
 5094TIP3   OH236916   3.965   3.086   1.897 -0.0281 -0.2106  0.1102
 5094TIP3    H136917   4.011   3.050   1.821  1.1032  1.2792  0.0314
 5094TIP3    H236918   3.961   3.180   1.880 -2.2651 -0.1592  0.6178
 5095TIP3   OH236919   0.198   5.284   8.693  0.3325 -0.6740 -0.1759
 5095TIP3    H136920   0.241   5.206   8.728  1.2035 -1.4806 -2.8254
 5095TIP3    H236921   0.243   5.302   8.611 -0.6759  1.9121 -0.2637
 5096TIP3   OH236922   6.465   2.045   1.345  0.2949  0.0936 -0.2526
 5096TIP3    H136923   6.455   2.130   1.302 -0.9190 -0.1292 -0.4267
 5096TIP3    H236924   6.438   1.981   1.279  1.1754 -0.4453 -0.1142
 5097TIP3   OH236925   1.031   4.580   2.186 -0.4391 -0.4655 -1.0179
 5097TIP3    H136926   0.965   4.514   2.162  1.4522 -3.3424  1.0064
 5097TIP3    H236927   1.113   4.543   2.155  0.6554  1.4055 -0.4913
 5098TIP3   OH236928   6.785   2.807   8.503 -0.9250  0.4482  0.5899
 5098TIP3    H136929   6.878   2.796   8.481 -0.9392  1.0629  0.2220
 5098TIP3    H236930   6.739   2.794   8.420 -1.0657  1.5081  0.4893
 5099TIP3   OH236931   5.236   0.915   0.101 -0.2992 -0.1516 -0.0158
 5099TIP3    H136932   5.303   0.864   0.148  0.2369  1.4020  0.9783
 5099TIP3    H236933   5.153   0.889   0.141 -0.1832 -1.1316 -0.3732
 5100TIP3   OH236934   1.104   1.068   8.200 -0.0301 -0.2339 -0.2947
 5100TIP3    H136935   1.177   1.129   8.185 -1.3482  0.9921 -1.9772
 5100TIP3    H236936   1.110   1.004   8.129 -0.6734 -0.0483 -0.5200
 5101TIP3   OH236937   2.569   0.786   7.964  0.4106 -0.3034  0.0884
 5101TIP3    H136938   2.610   0.809   8.048  1.8850 -1.3112 -0.3037
 5101TIP3    H236939   2.627   0.826   7.898  0.4532 -1.2815 -0.4768
 5102TIP3   OH236940   1.817   0.097   1.914 -0.4010 -0.1116  0.0724
 5102TIP3    H136941   1.746   0.040   1.942  1.2760 -2.9396 -1.0475
 5102TIP3    H236942   1.795   0.120   1.823  0.5962 -1.9231 -0.6623
 5103TIP3   OH236943   2.802   5.051   7.640 -0.2006  0.0939 -0.1891
 5103TIP3    H136944   2.800   5.081   7.731  1.4963 -0.3314  0.0197
 5103TIP3    H236945   2.775   5.127   7.589 -0.6576  0.4971  0.6259
 5104TIP3   OH236946   0.389   3.655   0.422 -0.2323 -0.5647  0.9896
 5104TIP3    H136947   0.437   3.699   0.492 -0.1649  2.6691 -0.9041
 5104TIP3    H236948   0.306   3.629   0.463  0.5226 -0.4647  2.6905
 5105TIP3   OH236949   6.476   2.309   2.364 -0.8737 -0.1446 -0.1936
 5105TIP3    H136950   6.532   2.269   2.430 -1.4121  1.3182  1.2188
 5105TIP3    H236951   6.537   2.345   2.299 -0.2675 -0.2876  0.2905
 5106TIP3   OH236952   0.971   5.454   8.470 -0.1653 -0.5354 -0.2777
 5106TIP3    H136953   0.983   5.417   8.383 -0.6941 -2.0158  0.2450
 5106TIP3    H236954   1.044   5.515   8.480  1.6897 -2.5370 -0.6411
 5107TIP3   OH236955   4.605   6.614   1.441  0.5482 -0.1043  0.3433
 5107TIP3    H136956   4.520   6.629   1.482 -0.3055 -1.9787 -0.5698
 5107TIP3    H236957   4.607   6.675   1.367 -0.8013 -1.1596 -0.6256
 5108TIP3   OH236958   1.038   3.836   0.556 -0.5352 -0.8563  0.0739
 5108TIP3    H136959   1.014   3.924   0.528  0.0934 -0.2144  1.4438
 5108TIP3    H236960   1.127   3.845   0.592 -0.7290 -1.8859  0.8897
 5109TIP3   OH236961   2.992   4.670   1.827 -0.9767  0.6868  0.0164
 5109TIP3    H136962   3.050   4.600   1.856 -1.6821  0.5648  1.2231
 5109TIP3    H236963   3.051   4.735   1.788 -0.1324  0.1743  0.4084
 5110TIP3   OH236964   4.722   3.376   2.636 -0.3798 -0.7303  0.3039
 5110TIP3    H136965   4.800   3.391   2.583 -0.9554 -2.3823 -1.0998
 5110TIP3    H236966   4.712   3.457   2.688  0.0884  1.0733 -2.2353
 5111TIP3   OH236967   4.905   6.748   2.287 -0.4132  1.1104 -0.0572
 5111TIP3    H136968   4.913   6.839   2.315 -0.2757  1.1144 -0.1101
 5111TIP3    H236969   4.873   6.755   2.196  0.4368  1.1232 -0.3619
 5112TIP3   OH236970   5.752   4.867   1.168 -0.3133  0.3014  0.6306
 5112TIP3    H136971   5.709   4.906   1.092 -0.5654 -2.3491 -0.7065
 5112TIP3    H236972   5.845   4.869   1.147 -0.3389  0.0426  0.4937
 5113TIP3   OH236973   1.948   2.772   8.303  0.2867  0.2863  0.6592
 5113TIP3    H136974   1.941   2.714   8.227  1.3966  1.6534 -0.5345
 5113TIP3    H236975   2.038   2.760   8.334  0.6515  1.6291  0.1614
 5114TIP3   OH236976   6.378   5.666   3.383 -0.1342  0.4532  0.0642
 5114TIP3    H136977   6.377   5.571   3.373 -0.0168  0.5762 -1.2689
 5114TIP3    H236978   6.466   5.686   3.414 -0.5849  0.0306  1.7603
 5115TIP3   OH236979   4.585   4.738   2.640 -0.3665 -0.7250 -0.2276
 5115TIP3    H136980   4.580   4.802   2.569  1.3476  0.0110  0.2802
 5115TIP3    H236981   4.644   4.777   2.704 -2.6415 -0.9046  2.1401
 5116TIP3   OH236982   5.610   1.620   2.841 -0.1378 -0.2410 -0.3940
 5116TIP3    H136983   5.555   1.553   2.883 -0.1990 -0.3628 -0.6646
 5116TIP3    H236984   5.690   1.621   2.893 -1.0511  1.1540  1.0623
 5117TIP3   OH236985   1.917   0.790   2.362  0.7811 -0.3319  0.3060
 5117TIP3    H136986   1.976   0.750   2.297 -0.2268 -0.3778 -0.6052
 5117TIP3    H236987   1.829   0.763   2.335 -0.0322  2.8762 -0.6840
 5118TIP3   OH236988   1.248   2.154   1.203 -0.3545 -0.3323  0.1837
 5118TIP3    H136989   1.255   2.059   1.214 -0.5508 -0.3101  0.5016
 5118TIP3    H236990   1.163   2.167   1.159 -0.2813 -0.3089  0.0469
 5119TIP3   OH236991   4.971   1.891   1.090 -0.3508  0.2708 -0.6441
 5119TIP3    H136992   4.942   1.880   1.180 -0.6153 -1.7899 -0.9187
 5119TIP3    H236993   4.897   1.931   1.045 -0.9768 -0.4923 -0.3261
 5120TIP3   OH236994   2.018   4.359   2.486 -0.4076  0.5619  0.2001
 5120TIP3    H136995   1.985   4.403   2.408  2.5683  1.1390 -0.8934
 5120TIP3    H236996   1.964   4.281   2.496 -1.5593  1.0641 -1.7907
 5121TIP3   OH236997   5.527   3.136   1.532  0.1882  0.1777  0.0820
 5121TIP3    H136998   5.499   3.185   1.609  0.6123 -2.5096  2.0889
 5121TIP3    H236999   5.614   3.104   1.554  1.9525  2.2009 -3.0513
 5122TIP3   OH237000   3.270   3.051   7.442 -0.0803  0.1769  0.7547
 5122TIP3    H137001   3.289   2.959   7.458 -0.0515 -0.0291 -0.3758
 5122TIP3    H237002   3.220   3.079   7.519  1.7718 -0.1711  2.1550
 5123TIP3   OH237003   3.139   2.742   3.190  0.1919  0.0006  0.1936
 5123TIP3    H137004   3.111   2.814   3.246 -0.1013 -0.3267  0.4701
 5123TIP3    H237005   3.088   2.667   3.219  0.9367 -0.4663  0.3170
 5124TIP3   OH237006   1.654   2.382   1.929  0.4582 -0.4362  0.0988
 5124TIP3    H137007   1.685   2.327   2.001  2.1198 -1.5932 -1.4138
 5124TIP3    H237008   1.663   2.327   1.851 -0.3618  1.1001 -1.1357
 5125TIP3   OH237009   5.659   5.815   7.951  0.3562  0.1384  0.0667
 5125TIP3    H137010   5.630   5.764   7.875 -0.2448  1.4082 -0.5953
 5125TIP3    H237011   5.653   5.754   8.025 -1.0090 -0.5480 -0.5715
 5126TIP3   OH237012   0.008   2.149   1.108 -0.3558  0.6470 -0.2540
 5126TIP3    H137013   0.092   2.168   1.149 -0.0861 -2.2888  0.8000
 5126TIP3    H237014   0.030   2.088   1.037 -1.5207  0.4462 -0.4617
 5127TIP3   OH237015   0.601   3.186   2.951  0.2977 -0.2069  0.0943
 5127TIP3    H137016   0.585   3.094   2.974 -0.7685  0.0504  0.4446
 5127TIP3    H237017   0.696   3.196   2.957  0.3247 -0.9836  1.2613
 5128TIP3   OH237018   0.752   3.133   1.017 -0.4433 -0.9062  0.5213
 5128TIP3    H137019   0.835   3.149   0.972  0.3469 -0.7192  2.0061
 5128TIP3    H237020   0.687   3.133   0.946  0.7541 -0.6620 -0.6250
 5129TIP3   OH237021   2.064   6.055   0.714  0.3095  0.1742 -0.3218
 5129TIP3    H137022   2.047   6.020   0.626  1.2831  0.6120 -0.7020
 5129TIP3    H237023   1.985   6.034   0.764 -0.4668  0.3509 -1.4323
 5130TIP3   OH237024   2.964   5.763   0.755  0.3338 -0.3857  0.5314
 5130TIP3    H137025   3.055   5.774   0.726 -0.1903  2.5735 -0.3565
 5130TIP3    H237026   2.946   5.669   0.744  2.4496 -0.6139 -1.8930
 5131TIP3   OH237027   3.079   0.972   1.771  0.3396  0.3554 -0.0349
 5131TIP3    H137028   3.025   0.897   1.796 -0.3138  1.7658  3.3027
 5131TIP3    H237029   3.053   0.990   1.681 -0.6526 -2.3802 -0.4141
 5132TIP3   OH237030   3.218   5.473   8.512  0.1998 -0.2082  0.1366
 5132TIP3    H137031   3.246   5.520   8.591 -0.5343 -0.9639  0.8627
 5132TIP3    H237032   3.273   5.395   8.510 -1.8228 -1.7658  1.6394
 5133TIP3   OH237033   2.342   1.024   7.927 -0.1591 -0.0428 -0.1323
 5133TIP3    H137034   2.418   0.981   7.887  0.7264  0.6529  0.7206
 5133TIP3    H237035   2.346   0.997   8.019 -0.6930  0.3449  0.0088
 5134TIP3   OH237036   4.709   0.832   0.919 -0.6304  0.0116  0.3076
 5134TIP3    H137037   4.622   0.814   0.883 -0.2956 -1.3706  0.1203
 5134TIP3    H237038   4.711   0.787   1.003 -0.5344  1.1455  0.9361
 5135TIP3   OH237039   1.793   1.075   2.345  0.7394 -0.7142  0.0163
 5135TIP3    H137040   1.821   1.040   2.260 -0.2396  0.5985 -0.8769
 5135TIP3    H237041   1.701   1.051   2.352  0.4838  0.2749  0.1245
 5136TIP3   OH237042   2.051   0.515   8.588 -0.4612 -0.0178 -0.4060
 5136TIP3    H137043   1.984   0.479   8.646 -1.1375  1.9309  0.1066
 5136TIP3    H237044   2.111   0.442   8.571 -0.9462 -0.9748  1.7197
 5137TIP3   OH237045   3.495   2.511   0.251  0.1800  0.0640  0.0842
 5137TIP3    H137046   3.585   2.500   0.282  0.1113 -1.5307 -0.1685
 5137TIP3    H237047   3.449   2.433   0.283 -1.0079  0.6417 -0.1597
 5138TIP3   OH237048   5.963   6.792   1.319 -0.4271  0.5842 -0.2127
 5138TIP3    H137049   5.957   6.697   1.331 -0.7345  0.5057 -0.9216
 5138TIP3    H237050   6.056   6.812   1.331  0.2779 -0.3152 -3.2836
 5139TIP3   OH237051   0.126   6.083   1.341 -0.0804 -0.1432 -0.0829
 5139TIP3    H137052   0.057   6.047   1.285 -0.2451 -0.5688  0.3873
 5139TIP3    H237053   0.207   6.048   1.304 -0.1158  0.3063 -0.5981
 5140TIP3   OH237054   6.380   5.468   7.960  0.2999  0.3888  0.5444
 5140TIP3    H137055   6.441   5.398   7.936 -1.3199 -0.8532 -0.1075
 5140TIP3    H237056   6.382   5.528   7.885 -1.6655 -1.3683 -1.0535
 5141TIP3   OH237057   1.712   1.632   0.028 -0.0206 -0.4190 -1.0528
 5141TIP3    H137058   1.626   1.599   0.053 -0.3753 -0.1879 -1.9168
 5141TIP3    H237059   1.704   1.727   0.034  0.6931 -0.4261  0.4621
 5142TIP3   OH237060   3.010   2.611   7.105 -0.4116 -0.2275  0.4383
 5142TIP3    H137061   2.935   2.664   7.081  0.1975  1.0846  1.3310
 5142TIP3    H237062   3.084   2.672   7.105  0.5720 -1.3805  0.0774
 5143TIP3   OH237063   5.416   3.044   2.028  0.1702 -0.4996 -0.1186
 5143TIP3    H137064   5.390   3.133   2.005 -2.5819 -0.7871  1.4581
 5143TIP3    H237065   5.467   3.054   2.108  0.3027 -0.3138 -0.2252
 5144TIP3   OH237066   3.470   1.394   1.837  0.6600  0.7914 -0.1351
 5144TIP3    H137067   3.527   1.326   1.872  0.1418 -0.4381 -1.5642
 5144TIP3    H237068   3.522   1.437   1.769  0.4327  0.7115 -0.3636
 5145TIP3   OH237069   3.263   6.359   7.891  0.2419 -0.3536  0.4761
 5145TIP3    H137070   3.274   6.269   7.859  0.2723 -0.3710  0.5336
 5145TIP3    H237071   3.242   6.410   7.813  0.6031 -0.3440  0.3815
 5146TIP3   OH237072   0.662   6.724   0.448  0.1852 -0.3269  0.3911
 5146TIP3    H137073   0.622   6.722   0.362 -1.2686 -0.4393  1.0390
 5146TIP3    H237074   0.642   6.812   0.481  0.9633 -0.1896  0.5204
 5147TIP3   OH237075   5.521   2.734   1.222 -0.1361  0.5679 -0.6583
 5147TIP3    H137076   5.446   2.718   1.280  1.2064  0.0001  0.9952
 5147TIP3    H237077   5.491   2.704   1.136 -0.5777 -3.4039  0.6552
 5148TIP3   OH237078   5.757   4.434   2.464  0.1389  0.3473  0.3757
 5148TIP3    H137079   5.835   4.479   2.497  0.1281  1.6294 -1.2097
 5148TIP3    H237080   5.687   4.460   2.523  0.4007  1.3848  0.2530
 5149TIP3   OH237081   2.794   4.385   7.418 -0.2089 -0.2385 -0.1587
 5149TIP3    H137082   2.833   4.425   7.340 -1.9468  2.7970  0.3863
 5149TIP3    H237083   2.741   4.313   7.385  0.7437 -0.3532 -1.5124
 5150TIP3   OH237084   2.674   0.201   1.920 -0.0029 -0.3288 -0.4069
 5150TIP3    H137085   2.590   0.221   1.961  0.6639 -0.6133  1.1695
 5150TIP3    H237086   2.734   0.267   1.953  0.3830 -0.0294 -1.6481
 5151TIP3   OH237087   3.495   3.150   8.091  0.4607  0.1291 -0.5936
 5151TIP3    H137088   3.531   3.228   8.132  1.5484 -0.1217 -1.0376
 5151TIP3    H237089   3.407   3.177   8.063  0.8807  1.2573 -0.9102
 5152TIP3   OH237090   6.244   0.398   1.745 -0.2825 -0.6250 -0.3095
 5152TIP3    H137091   6.332   0.363   1.756 -0.0531 -0.1090 -0.4714
 5152TIP3    H237092   6.256   0.475   1.690 -0.6333  0.3621  0.9467
 5153TIP3   OH237093   1.503   3.109   8.501 -0.0188 -0.1724  0.0390
 5153TIP3    H137094   1.489   3.019   8.532 -1.3421  0.1798  0.5213
 5153TIP3    H237095   1.435   3.160   8.543 -1.0802  0.5808 -2.4205
 5154TIP3   OH237096   3.041   2.720   0.960 -0.1364  0.2214 -0.7304
 5154TIP3    H137097   3.006   2.781   0.895 -2.1590 -0.0103  0.0793
 5154TIP3    H237098   2.988   2.641   0.949 -0.9574  0.4003  1.6110
 5155TIP3   OH237099   1.904   5.394   2.800 -0.0685 -0.1446  0.2971
 5155TIP3    H137100   1.996   5.399   2.777  0.0673  0.2892  0.8998
 5155TIP3    H237101   1.878   5.485   2.817 -0.9554 -0.0959 -1.1639
 5156TIP3   OH237102   3.556   0.002   0.696  0.1342 -0.3140  0.5053
 5156TIP3    H137103   3.512  -0.064   0.642 -0.5481 -0.5877  1.3772
 5156TIP3    H237104   3.609   0.053   0.633 -1.9480  0.4775 -0.7053
 5157TIP3   OH237105   1.707   6.505   0.490 -0.3563 -0.1767  0.2331
 5157TIP3    H137106   1.770   6.460   0.547 -1.4725 -0.7365  1.0587
 5157TIP3    H237107   1.724   6.468   0.403  0.4603 -0.3028  0.4293
 5158TIP3   OH237108   2.351   3.728   8.182  0.8544  0.2896  0.1761
 5158TIP3    H137109   2.287   3.704   8.116  1.0582 -1.4293  0.5722
 5158TIP3    H237110   2.304   3.789   8.240 -0.4314 -0.9176  0.4479
 5159TIP3   OH237111   5.104   0.727   8.570 -0.2887 -0.3285 -0.4711
 5159TIP3    H137112   5.168   0.680   8.518 -1.0221 -0.7777 -0.9882
 5159TIP3    H237113   5.152   0.801   8.607  1.0360 -1.7831  0.8567
 5160TIP3   OH237114   6.218   2.264   8.342 -0.2475 -0.0739  0.4401
 5160TIP3    H137115   6.248   2.236   8.429  1.3474  0.7167  0.1708
 5160TIP3    H237116   6.237   2.190   8.285 -0.6812 -0.3366  0.6273
 5161TIP3   OH237117   0.869   4.626   7.482  0.4903 -0.1745  0.2512
 5161TIP3    H137118   0.777   4.608   7.499  0.1843  0.1001 -1.0428
 5161TIP3    H237119   0.916   4.562   7.535 -0.3695  0.7516  2.2687
 5162TIP3   OH237120   1.842   1.201   0.835 -0.0527  0.0263 -0.3460
 5162TIP3    H137121   1.889   1.201   0.918 -2.6463  1.2748  1.2699
 5162TIP3    H237122   1.828   1.109   0.815 -1.0247 -0.3317  1.6873
 5163TIP3   OH237123   0.391   0.191   2.111  0.8731  0.7792  0.4655
 5163TIP3    H137124   0.355   0.246   2.041  1.9057  0.1847 -0.5716
 5163TIP3    H237125   0.482   0.219   2.120  0.8958  0.4954  1.2127
 5164TIP3   OH237126   1.795   1.250   2.655  0.6256  0.7570  0.0780
 5164TIP3    H137127   1.800   1.209   2.568 -1.4219 -2.7839  1.3998
 5164TIP3    H237128   1.715   1.302   2.652 -0.6719 -1.1227  0.3854
 5165TIP3   OH237129   4.826   6.029   1.491 -0.3837 -0.0651  0.2965
 5165TIP3    H137130   4.802   6.064   1.405 -0.5320 -0.9943 -0.0593
 5165TIP3    H237131   4.849   6.106   1.543  2.7311  0.3392 -1.4690
 5166TIP3   OH237132   2.783   2.092   1.338 -0.2814 -0.2160 -0.1520
 5166TIP3    H137133   2.750   2.059   1.421 -0.5492  0.1993 -0.0896
 5166TIP3    H237134   2.721   2.059   1.273 -0.6094  0.2416 -0.0778
 5167TIP3   OH237135   6.128   3.666   8.471 -0.1479 -0.5692 -0.0499
 5167TIP3    H137136   6.167   3.683   8.385  0.6791  2.8546  0.8756
 5167TIP3    H237137   6.201   3.635   8.525 -0.1282 -0.3463  0.0507
 5168TIP3   OH237138   0.424   4.221   8.006 -0.0523  0.6021  0.0277
 5168TIP3    H137139   0.453   4.141   8.051  1.0265 -0.6038 -2.6287
 5168TIP3    H237140   0.475   4.291   8.048  0.5217 -0.3658  1.0251
 5169TIP3   OH237141   3.537   0.565   2.347 -0.3289 -0.8214 -0.0259
 5169TIP3    H137142   3.506   0.561   2.256 -0.9638 -0.9543  0.1907
 5169TIP3    H237143   3.457   0.572   2.399  0.0200 -0.9825  0.5376
 5170TIP3   OH237144   4.927   2.873   2.708 -0.3496 -0.7829 -0.2511
 5170TIP3    H137145   4.870   2.932   2.659 -0.2065 -1.2815 -1.0311
 5170TIP3    H237146   4.872   2.797   2.726 -1.4656  0.6486  3.2107
 5171TIP3   OH237147   1.634   0.766   7.964  0.1075  0.0573 -0.6286
 5171TIP3    H137148   1.606   0.674   7.959 -1.1004  0.3554  0.1352
 5171TIP3    H237149   1.599   0.797   8.047  0.5461  1.2022 -0.8518
 5172TIP3   OH237150   0.421   5.759   1.285  0.1473  0.0355 -0.0281
 5172TIP3    H137151   0.399   5.703   1.359 -0.3988 -0.1930 -0.3606
 5172TIP3    H237152   0.348   5.749   1.224 -0.0049  1.1510 -0.0673
 5173TIP3   OH237153   3.675   5.534   0.875  0.5540 -0.1406 -0.3886
 5173TIP3    H137154   3.668   5.625   0.903 -2.0627 -0.5175  0.4559
 5173TIP3    H237155   3.626   5.531   0.792  1.6905 -0.5537 -1.0636
 5174TIP3   OH237156   0.760   0.582   8.645 -0.0819 -0.0595 -0.6294
 5174TIP3    H137157   0.686   0.628   8.607 -1.3672 -0.1197  1.6466
 5174TIP3    H237158   0.744   0.490   8.626  1.3495  0.1199 -3.2404
 5175TIP3   OH237159   3.100   3.480   1.220 -0.1114 -0.1508  0.4215
 5175TIP3    H137160   3.087   3.456   1.312  0.8859  1.6616  1.1065
 5175TIP3    H237161   3.155   3.411   1.184  0.0268 -0.5476  1.3675
 5176TIP3   OH237162   0.996   3.604   2.171  0.1619 -0.0448 -0.0419
 5176TIP3    H137163   0.952   3.573   2.250  1.6026  0.0411  0.8263
 5176TIP3    H237164   1.032   3.525   2.131  2.2202  0.1783  1.1756
 5177TIP3   OH237165   6.260   0.738   2.156  0.2268  0.0131 -0.4490
 5177TIP3    H137166   6.355   0.728   2.150  0.2256 -0.0939 -0.3123
 5177TIP3    H237167   6.229   0.727   2.066  0.5794  2.8159 -1.0044
 5178TIP3   OH237168   5.095   2.463   0.292 -0.0173 -0.0824 -0.2643
 5178TIP3    H137169   5.149   2.539   0.270 -0.5927  1.0339  1.9331
 5178TIP3    H237170   5.030   2.458   0.222  0.5109  0.9750 -0.8477
 5179TIP3   OH237171   1.076   5.526   7.799 -0.6889 -0.0922 -0.1374
 5179TIP3    H137172   1.050   5.602   7.747 -0.3483 -0.7359 -1.2883
 5179TIP3    H237173   1.113   5.465   7.735  0.4599 -0.6031  0.9748
 5180TIP3   OH237174   4.309   4.675   8.366  0.0502 -0.3172 -0.0091
 5180TIP3    H137175   4.261   4.706   8.442  0.4420 -0.1697  0.1780
 5180TIP3    H237176   4.247   4.618   8.320 -0.7186  0.8235 -0.4266
 5181TIP3   OH237177   3.117   5.433   8.204 -0.1722 -0.5649 -0.0327
 5181TIP3    H137178   3.156   5.434   8.292  0.6673 -1.5103 -0.3728
 5181TIP3    H237179   3.089   5.342   8.192 -0.8000 -0.3145 -0.5308
 5182TIP3   OH237180   0.565   0.944   0.731  0.6809 -0.5844  0.3456
 5182TIP3    H137181   0.590   0.915   0.643  1.5819  0.5774  0.1939
 5182TIP3    H237182   0.544   1.036   0.720  0.3025 -0.5551  1.2708
 5183TIP3   OH237183   5.108   2.493   2.088 -0.0836  0.3203 -0.4036
 5183TIP3    H137184   5.198   2.479   2.118 -0.0906 -0.3532 -0.6863
 5183TIP3    H237185   5.066   2.407   2.095 -1.1331  0.8901  1.1041
 5184TIP3   OH237186   2.987   1.930   0.096 -0.1636 -0.2624  0.2534
 5184TIP3    H137187   3.073   1.965   0.118  1.0095 -2.8828  0.1719
 5184TIP3    H237188   2.953   1.989   0.029  2.9790 -0.8581 -2.0723
 5185TIP3   OH237189   0.418   6.845   8.058  0.0429 -0.4632 -0.5617
 5185TIP3    H137190   0.478   6.772   8.070  0.4434 -0.2100 -1.0450
 5185TIP3    H237191   0.428   6.871   7.967  0.2646  0.5115 -0.2727
 5186TIP3   OH237192   4.130   1.549   0.285 -0.6788  0.3465  0.2291
 5186TIP3    H137193   4.190   1.601   0.232  0.1938 -0.6780  0.1768
 5186TIP3    H237194   4.162   1.459   0.277 -1.7431 -0.1156  0.8630
 5187TIP3   OH237195   1.946   6.298   8.364 -0.1040  0.0894  0.0045
 5187TIP3    H137196   1.943   6.257   8.278 -1.9733 -0.2331  0.1758
 5187TIP3    H237197   2.032   6.339   8.368 -0.5547  1.5387 -2.6817
 5188TIP3   OH237198   4.265   3.272   7.907 -0.3039  0.0641  0.5176
 5188TIP3    H137199   4.276   3.177   7.895 -1.9521  0.0721 -1.7305
 5188TIP3    H237200   4.212   3.299   7.832  1.6389  3.1028  0.1021
 5189TIP3   OH237201   5.645   0.086   1.777 -0.1877 -0.3615 -0.2808
 5189TIP3    H137202   5.615   0.009   1.824 -0.0763  0.5871  1.4383
 5189TIP3    H237203   5.736   0.097   1.804 -0.1116  0.2193 -0.7383
 5190TIP3   OH237204   3.023   1.195   3.055  0.3954 -0.0361 -0.0719
 5190TIP3    H137205   3.016   1.185   3.150 -0.5631  0.8821 -0.0318
 5190TIP3    H237206   3.004   1.107   3.021 -0.2327 -0.1593  0.5592
 5191TIP3   OH237207   4.772   5.321   0.961 -0.6127  0.0083  0.7560
 5191TIP3    H137208   4.719   5.328   0.882  0.6514  0.1936 -0.0997
 5191TIP3    H237209   4.741   5.393   1.017  0.2592  1.5605 -0.6764
 5192TIP3   OH237210   1.953   6.328   2.988  0.6707  0.1125  0.1490
 5192TIP3    H137211   1.891   6.321   3.060  0.3007  1.6027  0.0024
 5192TIP3    H237212   2.001   6.245   2.989  1.4224  0.4952  2.8056
 5193TIP3   OH237213   5.651   2.862   1.451  0.0034  0.3121 -0.0219
 5193TIP3    H137214   5.599   2.943   1.450  1.0053  0.9861  0.2531
 5193TIP3    H237215   5.707   2.868   1.373  0.7799  0.3766  0.5211
 5194TIP3   OH237216   4.108   1.601   3.134 -0.2096  0.5770  0.7568
 5194TIP3    H137217   4.033   1.608   3.193 -0.7670  1.8662 -0.0410
 5194TIP3    H237218   4.131   1.508   3.134 -1.3571  0.2757  1.5766
 5195TIP3   OH237219   0.851   6.380   2.213  0.6890  0.1094  1.3725
 5195TIP3    H137220   0.839   6.324   2.289  2.6104  0.1077  1.7255
 5195TIP3    H237221   0.925   6.341   2.166  0.8756  1.2943  0.6409
 5196TIP3   OH237222   4.015   4.036   1.028 -0.0092  0.0076  0.7650
 5196TIP3    H137223   3.941   3.983   1.060  0.5623 -0.9915  0.4595
 5196TIP3    H237224   4.031   4.004   0.939  1.4913 -0.5803  1.2115
 5197TIP3   OH237225   2.200   2.554   0.270 -0.2572 -0.0458  0.4514
 5197TIP3    H137226   2.193   2.637   0.318  0.2663  0.3538 -0.1448
 5197TIP3    H237227   2.182   2.578   0.179  0.6863 -0.4279  0.1486
 5198TIP3   OH237228   2.191   6.095   7.308 -0.4154 -0.1512  0.1298
 5198TIP3    H137229   2.271   6.147   7.300  0.5414 -1.5291  0.3260
 5198TIP3    H237230   2.187   6.044   7.227 -2.0079  1.0781 -0.6155
 5199TIP3   OH237231   1.647   4.234   2.296  0.6963  0.2754  0.9731
 5199TIP3    H137232   1.612   4.290   2.227 -0.7257 -1.8667 -0.1461
 5199TIP3    H237233   1.586   4.246   2.369  0.7226  0.5753  0.9499
 5200TIP3   OH237234   2.142   4.615   7.878  0.1502 -0.1600 -0.5857
 5200TIP3    H137235   2.119   4.667   7.801  0.2183 -0.3730 -0.7502
 5200TIP3    H237236   2.224   4.572   7.854  0.3397  0.0206 -0.2755
 5201TIP3   OH237237   1.809   5.707   1.845 -0.1468 -0.3164 -0.4972
 5201TIP3    H137238   1.767   5.794   1.848 -0.3838 -0.4405  1.1982
 5201TIP3    H237239   1.902   5.726   1.830 -0.4518  0.0928 -2.0491
 5202TIP3   OH237240   0.611   0.284   1.156 -0.8515 -0.2680 -0.5089
 5202TIP3    H137241   0.684   0.292   1.096 -0.3491 -1.8173 -0.1662
 5202TIP3    H237242   0.644   0.315   1.240 -1.4355  1.5357 -0.9155
 5203TIP3   OH237243   4.999   6.427   7.702  0.2936  0.0010 -0.6866
 5203TIP3    H137244   5.003   6.365   7.629  1.2734  0.4905 -1.0627
 5203TIP3    H237245   4.909   6.457   7.702  0.1215 -0.4731 -1.3014
 5204TIP3   OH237246   0.555   6.428   8.595 -0.1607  0.5073 -0.0673
 5204TIP3    H137247   0.640   6.386   8.583 -0.3859  0.3373 -1.1724
 5204TIP3    H237248   0.491   6.358   8.580 -0.5151  0.4478  1.4946
 5205TIP3   OH237249   4.050   6.862   1.770 -0.4220 -0.1521 -0.2690
 5205TIP3    H137250   4.119   6.909   1.818 -0.9730  0.1986  0.1918
 5205TIP3    H237251   4.016   6.926   1.708  0.1642 -0.5504 -1.0180
 5206TIP3   OH237252   4.881   2.844   7.131 -0.5665 -0.3456  0.3880
 5206TIP3    H137253   4.787   2.823   7.123 -0.4731 -0.8919  0.6918
 5206TIP3    H237254   4.909   2.799   7.211 -0.4960  1.4706  1.4400
 5207TIP3   OH237255   2.342   6.535   7.552  0.0303  0.1126  0.2650
 5207TIP3    H137256   2.304   6.622   7.536 -0.3391 -0.2445 -0.8996
 5207TIP3    H237257   2.402   6.522   7.479 -0.4743 -0.9147  0.0211
 5208TIP3   OH237258   3.295   3.304   7.731  0.4558 -0.4849 -0.2352
 5208TIP3    H137259   3.310   3.387   7.775  0.6640 -0.7189  0.1365
 5208TIP3    H237260   3.380   3.281   7.693  0.8640 -1.4108  1.1862
 5209TIP3   OH237261   0.930   3.330   0.538 -0.1342 -0.7025 -0.8248
 5209TIP3    H137262   1.026   3.339   0.535 -0.1798 -0.2618 -1.0648
 5209TIP3    H237263   0.902   3.401   0.596 -0.4327  0.1581 -1.9827
 5210TIP3   OH237264   6.037   1.585   1.876  0.2319 -0.0345  1.3536
 5210TIP3    H137265   6.061   1.523   1.807 -0.0382  1.2462  0.0623
 5210TIP3    H237266   5.941   1.583   1.878  0.0620  2.0911 -0.4651
 5211TIP3   OH237267   0.851   3.678   8.600  0.4982 -0.1413 -0.2067
 5211TIP3    H137268   0.900   3.721   8.671 -0.6635  0.5399  0.1954
 5211TIP3    H237269   0.790   3.620   8.645  1.1142 -1.2249 -0.7195
 5212TIP3   OH237270   4.948   0.141   2.251  0.0941 -0.5093  0.5008
 5212TIP3    H137271   4.980   0.230   2.268  0.9826 -0.7960  0.3742
 5212TIP3    H237272   4.854   0.152   2.238  0.1652  0.3901  0.6667
 5213TIP3   OH237273   1.695   3.565   0.252 -0.1502  0.3248  0.4779
 5213TIP3    H137274   1.611   3.611   0.253 -0.4743 -0.2603  0.7552
 5213TIP3    H237275   1.738   3.594   0.172 -1.4786 -0.9131 -0.7350
 5214TIP3   OH237276   1.223   1.015   7.138  0.0850  0.0436  0.2731
 5214TIP3    H137277   1.249   0.924   7.130  0.7944  0.2562  0.0024
 5214TIP3    H237278   1.146   1.024   7.081  2.8686  0.6893 -3.8868
 5215TIP3   OH237279   3.208   6.756   8.580  0.0578 -0.6085 -0.0560
 5215TIP3    H137280   3.178   6.729   8.493  0.4650  1.1832 -0.7908
 5215TIP3    H237281   3.292   6.711   8.592  0.8560  0.4543 -1.3687
 5216TIP3   OH237282   6.338   1.390   8.495  0.1536  0.3329  0.9511
 5216TIP3    H137283   6.284   1.313   8.479 -1.9876  1.5043  2.2033
 5216TIP3    H237284   6.296   1.460   8.444  1.2890  0.9892  0.8727
 5217TIP3   OH237285   5.421   2.726   2.307  0.5583  0.3577  0.2119
 5217TIP3    H137286   5.347   2.770   2.264  1.1055  0.4535 -0.6504
 5217TIP3    H237287   5.474   2.797   2.342  1.3318  0.4031 -0.9999
 5218TIP3   OH237288   4.560   6.268   0.260  0.2199  0.3552 -0.5414
 5218TIP3    H137289   4.635   6.276   0.319  1.3163 -0.4833 -1.7509
 5218TIP3    H237290   4.588   6.316   0.181  0.1376 -1.2547 -1.5903
 5219TIP3   OH237291   4.969   1.313   1.390 -0.3367 -0.1619 -0.1360
 5219TIP3    H137292   4.967   1.309   1.486 -1.9807  0.7641 -0.0829
 5219TIP3    H237293   4.997   1.403   1.370 -0.5636 -0.1677 -0.4990
 5220TIP3   OH237294   1.812   3.303   7.818  0.5232 -0.0741 -0.0940
 5220TIP3    H137295   1.878   3.286   7.751  0.7197  1.0870 -0.2266
 5220TIP3    H237296   1.731   3.318   7.770  0.4512 -0.2051 -0.0140
 5221TIP3   OH237297   2.668   3.716   8.117 -0.1494 -0.5060 -0.1330
 5221TIP3    H137298   2.618   3.790   8.151 -0.9279 -1.3535  0.6078
 5221TIP3    H237299   2.740   3.757   8.069  0.2829  0.7534  1.4734
 5222TIP3   OH237300   2.293   4.637   1.130  0.3705 -0.8793  0.0500
 5222TIP3    H137301   2.233   4.711   1.141 -0.5443 -1.2228 -2.1123
 5222TIP3    H237302   2.370   4.675   1.088  0.4423 -0.9446  0.1229
 5223TIP3   OH237303   4.838   6.304   0.831 -0.1757 -0.4215 -0.4730
 5223TIP3    H137304   4.752   6.263   0.839 -0.2576 -0.8374 -2.6725
 5223TIP3    H237305   4.828   6.366   0.759  1.0803  0.3355 -0.0192
 5224TIP3   OH237306   6.767   2.091   7.506  0.1392 -0.6345  0.0870
 5224TIP3    H137307   6.677   2.072   7.534  0.0318  0.0849  0.2353
 5224TIP3    H237308   6.771   2.061   7.416 -0.2254 -0.7477  0.1059
 5225TIP3   OH237309   3.241   4.059   3.053  0.3857 -0.4894 -0.0511
 5225TIP3    H137310   3.209   3.969   3.060  0.9869 -0.5932  2.0850
 5225TIP3    H237311   3.291   4.073   3.133  2.0324  1.1049 -1.2617
 5226TIP3   OH237312   2.043   1.776   7.972  0.1488 -0.3463 -0.2672
 5226TIP3    H137313   2.073   1.744   7.888  0.4674 -2.1199  0.4879
 5226TIP3    H237314   2.116   1.829   8.005  0.7892 -1.1965 -0.2898
 5227TIP3   OH237315   1.137   2.208   2.868 -0.3997 -0.3491  0.5622
 5227TIP3    H137316   1.070   2.140   2.877  1.0252 -1.8777  0.0784
 5227TIP3    H237317   1.165   2.227   2.957  0.1744 -1.4484  0.6290
 5228TIP3   OH237318   0.796   3.156   1.665 -0.0987 -0.7262  0.0800
 5228TIP3    H137319   0.834   3.111   1.740  0.6024  1.4380  1.1296
 5228TIP3    H237320   0.730   3.214   1.703 -0.4576 -0.3374 -1.1015
 5229TIP3   OH237321   0.531   4.694   1.205  0.0846 -0.1404 -0.0876
 5229TIP3    H137322   0.592   4.709   1.132  0.7111 -1.2168  0.1860
 5229TIP3    H237323   0.526   4.778   1.251  0.1084  0.4008 -1.0424
 5230TIP3   OH237324   1.606   1.131   7.569 -0.4585  0.2128  0.4061
 5230TIP3    H137325   1.630   1.076   7.644  0.0613  1.9689  1.5950
 5230TIP3    H237326   1.656   1.094   7.496  0.4760 -0.4281  1.3250
 5231TIP3   OH237327   0.422   6.543   1.206  0.4786  0.1296 -0.0548
 5231TIP3    H137328   0.404   6.451   1.224  1.3308 -0.1136 -0.4050
 5231TIP3    H237329   0.353   6.570   1.145  0.6844 -0.5002 -0.5754
 5232TIP3   OH237330   4.659   5.469   1.171  0.3402 -0.2110  0.2111
 5232TIP3    H137331   4.673   5.542   1.231 -0.9438  1.2425 -1.1372
 5232TIP3    H237332   4.602   5.409   1.219  1.4255 -0.3859  1.3461
 5233TIP3   OH237333   1.504   2.887   0.118 -0.7511  0.4128 -0.5639
 5233TIP3    H137334   1.499   2.792   0.112 -1.3528  0.5211 -2.0169
 5233TIP3    H237335   1.597   2.908   0.105 -0.3593 -0.0301  1.2108
 5234TIP3   OH237336   6.736   2.221   8.601  0.2449 -0.3330  0.1331
 5234TIP3    H137337   6.830   2.237   8.601  0.4795 -1.5668 -0.5258
 5234TIP3    H237338   6.713   2.213   8.508 -0.1902 -1.6762  0.3394
 5235TIP3   OH237339   0.654   2.776   2.542 -0.5420  0.4878 -0.1679
 5235TIP3    H137340   0.646   2.685   2.571 -0.9647  0.7714  0.6395
 5235TIP3    H237341   0.596   2.825   2.600 -2.8345  0.8953 -2.5973
 5236TIP3   OH237342   4.876   4.735   8.556 -0.3044  0.0805  0.4451
 5236TIP3    H137343   4.946   4.676   8.585  0.5962 -1.0034 -3.4347
 5236TIP3    H237344   4.801   4.678   8.539 -1.1374  0.8184  1.4976
 5237TIP3   OH237345   5.548   0.321   1.333  0.1735 -0.0326 -0.8498
 5237TIP3    H137346   5.634   0.281   1.340  0.4801  0.7505  0.2589
 5237TIP3    H237347   5.562   0.412   1.359 -0.6797  0.5560 -2.3110
 5238TIP3   OH237348   2.019   3.286   8.674 -0.1517 -0.1283 -0.2698
 5238TIP3    H137349   1.937   3.312   8.631 -0.6932 -2.7101 -0.9818
 5238TIP3    H237350   2.072   3.247   8.603  2.4398  2.8548 -0.1733
 5239TIP3   OH237351   3.120   4.119   8.485 -0.0597  0.0817 -0.1028
 5239TIP3    H137352   3.188   4.060   8.519  0.3205 -1.2119 -2.8563
 5239TIP3    H237353   3.155   4.207   8.501  0.6888 -0.4741  1.5205
 5240TIP3   OH237354   1.777   1.764   7.278 -0.1215  0.0908  0.1225
 5240TIP3    H137355   1.732   1.798   7.356 -1.4265  0.6528 -0.8467
 5240TIP3    H237356   1.756   1.826   7.209 -0.6149 -1.4270 -1.1388
 5241TIP3   OH237357   1.770   3.880   1.930 -0.2399 -0.1395 -0.1883
 5241TIP3    H137358   1.838   3.833   1.882 -0.7022 -1.1328  0.0838
 5241TIP3    H237359   1.699   3.891   1.867  0.7934  2.4661 -1.0039
 5242TIP3   OH237360   6.314   5.420   3.067  0.3606 -0.4092  0.0795
 5242TIP3    H137361   6.292   5.351   3.129  0.6232  0.0846  0.7375
 5242TIP3    H237362   6.248   5.488   3.084  1.6764  0.6158  1.2967
 5243TIP3   OH237363   5.847   2.144   0.861 -0.0262 -0.1402  0.2377
 5243TIP3    H137364   5.846   2.056   0.825 -1.0721  0.3891 -1.1195
 5243TIP3    H237365   5.935   2.178   0.839  0.9530 -1.3121  2.0997
 5244TIP3   OH237366   3.739   5.974   1.495 -0.0528 -0.0874 -0.6399
 5244TIP3    H137367   3.722   6.063   1.463  1.0516  0.8506  1.1983
 5244TIP3    H237368   3.833   5.973   1.513 -0.4377 -0.7747  1.6904
 5245TIP3   OH237369   4.394   4.020   0.419  0.6479  0.6219  0.2447
 5245TIP3    H137370   4.487   4.007   0.437  0.7637 -0.7452 -1.1268
 5245TIP3    H237371   4.351   3.942   0.454 -0.1868  1.7957  1.9672
 5246TIP3   OH237372   4.697   0.763   7.761  0.0414  0.0117  0.1128
 5246TIP3    H137373   4.656   0.730   7.681  1.5251 -1.2233 -0.1835
 5246TIP3    H237374   4.636   0.736   7.831 -0.4681 -0.3250 -0.4514
 5247TIP3   OH237375   0.922   0.676   1.488  0.1561 -0.4723 -0.3321
 5247TIP3    H137376   0.914   0.604   1.550 -1.2977 -0.0141  0.0312
 5247TIP3    H237377   0.870   0.650   1.412  0.3700 -0.1908 -0.5848
 5248TIP3   OH237378   2.365   6.076   1.685 -0.3774  0.1009  0.2878
 5248TIP3    H137379   2.301   6.147   1.683 -1.3401 -0.7400  0.1019
 5248TIP3    H237380   2.353   6.031   1.601 -1.2748 -1.5178  1.2225
 5249TIP3   OH237381   5.056   4.273   0.537 -0.3569 -0.0670  0.5167
 5249TIP3    H137382   5.095   4.248   0.621 -1.3028  0.9257  1.2969
 5249TIP3    H237383   5.027   4.191   0.498  0.6121 -0.6038  0.8836
 5250TIP3   OH237384   3.025   2.593   1.511 -0.1645 -1.1950  0.2613
 5250TIP3    H137385   3.106   2.577   1.462  1.1916 -1.7521  2.5319
 5250TIP3    H237386   2.971   2.515   1.493  1.1994 -2.4373  1.2711
 5251TIP3   OH237387   2.724   6.147   0.092 -0.1028 -0.0042 -0.7892
 5251TIP3    H137388   2.636   6.136   0.127  0.5363 -0.9713  0.6262
 5251TIP3    H237389   2.765   6.212   0.149  0.4388 -0.3687 -0.7551
 5252TIP3   OH237390   4.683   5.106   8.086 -0.3013  0.4503 -0.1982
 5252TIP3    H137391   4.771   5.122   8.052  0.2299 -0.4229  0.6976
 5252TIP3    H237392   4.650   5.192   8.111  0.6608  0.6996  0.2700
 5253TIP3   OH237393   1.523   0.927   1.357  0.4926 -0.4299 -0.3237
 5253TIP3    H137394   1.441   0.975   1.367  1.4939  0.9559  2.2383
 5253TIP3    H237395   1.497   0.834   1.358 -0.9356 -0.2270  4.1489
 5254TIP3   OH237396   2.141   0.763   7.773  0.0770  0.0424  0.7376
 5254TIP3    H137397   2.092   0.729   7.848 -2.3099 -0.6307 -1.0217
 5254TIP3    H237398   2.091   0.839   7.743  0.4584 -0.2544 -0.7250
 5255TIP3   OH237399   4.810   5.357   2.041  0.0457 -0.4002 -0.0417
 5255TIP3    H137400   4.764   5.274   2.026 -0.0908 -0.6786  1.7927
 5255TIP3    H237401   4.901   5.333   2.054  0.1499 -0.1658 -0.3100
 5256TIP3   OH237402   0.441   4.860   7.899  0.6203 -0.3502 -0.1138
 5256TIP3    H137403   0.422   4.779   7.852  1.1448 -0.3525 -0.3295
 5256TIP3    H237404   0.451   4.926   7.830  2.1682 -0.5097 -0.0712
 5257TIP3   OH237405   3.132   0.657   0.438  0.0511 -0.1433 -0.0356
 5257TIP3    H137406   3.137   0.682   0.346 -1.9244 -0.7249 -0.3480
 5257TIP3    H237407   3.071   0.583   0.439  0.8241 -0.8131  1.6341
 5258TIP3   OH237408   6.540   1.550   1.548  0.4386  0.6251  0.3902
 5258TIP3    H137409   6.473   1.618   1.546 -0.0410  0.1525 -0.7279
 5258TIP3    H237410   6.623   1.597   1.548  0.1114  1.2086  0.6486
 5259TIP3   OH237411   3.445   0.476   0.092  0.0439 -0.3295  0.2728
 5259TIP3    H137412   3.467   0.404   0.150  1.1933 -0.2312 -0.0054
 5259TIP3    H237413   3.426   0.435   0.008 -0.6780 -0.4023  0.4681
 5260TIP3   OH237414   0.470   3.408   2.871  0.4292 -0.1276 -0.6178
 5260TIP3    H137415   0.421   3.390   2.791  0.8237 -0.5156 -0.7736
 5260TIP3    H237416   0.475   3.324   2.917  1.5754 -0.2670 -0.9599
 5261TIP3   OH237417   5.894   2.433   0.689  0.4354  0.1410  0.3367
 5261TIP3    H137418   5.892   2.338   0.692  2.9073 -0.0460 -1.2612
 5261TIP3    H237419   5.941   2.459   0.769 -0.5297  0.0852  0.9415
 5262TIP3   OH237420   2.503   3.110   0.089  0.4532  0.1637 -0.5045
 5262TIP3    H137421   2.563   3.109   0.016  1.0153 -1.2764 -0.0725
 5262TIP3    H237422   2.554   3.143   0.163 -0.4819  2.9308 -0.9802
 5263TIP3   OH237423   0.219   0.152   8.418 -0.1664  0.1700  0.2202
 5263TIP3    H137424   0.313   0.135   8.423 -0.4113 -1.0135  1.0742
 5263TIP3    H237425   0.205   0.179   8.327  1.2112  1.8700  0.4548
 5264TIP3   OH237426   3.843   5.338   0.955  0.0711 -0.2415 -0.1456
 5264TIP3    H137427   3.779   5.401   0.922 -2.8723 -3.3005 -0.8061
 5264TIP3    H237428   3.851   5.358   1.048  0.8012  2.2726 -0.6847
 5265TIP3   OH237429   1.742   3.058   1.390  0.1017  0.1388 -0.4633
 5265TIP3    H137430   1.753   3.045   1.484  0.4057  1.1882 -0.3410
 5265TIP3    H237431   1.690   3.138   1.382  0.9102  0.6143 -1.1899
 5266TIP3   OH237432   5.284   3.727   2.263 -0.2511 -0.0410  0.0555
 5266TIP3    H137433   5.224   3.652   2.259  0.3823 -0.6008  0.7874
 5266TIP3    H237434   5.287   3.759   2.173  1.0306 -2.1473 -0.7362
 5267TIP3   OH237435   2.394   4.105   2.558 -0.1710 -0.3075  0.7422
 5267TIP3    H137436   2.309   4.085   2.596 -1.5204  0.6679 -1.5646
 5267TIP3    H237437   2.415   4.029   2.503 -0.6900  0.3844 -0.4605
 5268TIP3   OH237438   1.885   2.427   0.785  0.5173  0.0689 -0.3258
 5268TIP3    H137439   1.808   2.477   0.757  1.2135  0.2419 -2.0521
 5268TIP3    H237440   1.946   2.493   0.818 -0.9430 -0.2474  3.5944
 5269TIP3   OH237441   5.666   1.824   1.308 -0.3747 -0.6057 -0.2767
 5269TIP3    H137442   5.572   1.831   1.293 -0.2399  2.0653 -0.4277
 5269TIP3    H237443   5.705   1.844   1.223  0.3007  0.5126  0.2708
 5270TIP3   OH237444   1.966   0.815   2.633  0.2525  0.0894  0.0462
 5270TIP3    H137445   1.943   0.741   2.689 -0.5702 -0.4732 -1.0045
 5270TIP3    H237446   1.938   0.789   2.545  0.8003  1.2679 -0.5049
 5271TIP3   OH237447   2.111   5.714   1.500 -0.0954  0.0051 -0.3644
 5271TIP3    H137448   2.170   5.639   1.497 -0.1646 -0.0974  0.5823
 5271TIP3    H237449   2.024   5.678   1.482 -0.3045 -0.3557  1.2333
 5272TIP3   OH237450   1.593   0.039   1.094 -0.8111 -0.4830 -0.3559
 5272TIP3    H137451   1.588  -0.040   1.148 -2.6811 -1.3631 -1.7041
 5272TIP3    H237452   1.678   0.077   1.115 -0.9560 -1.4419  2.2522
 5273TIP3   OH237453   4.504   0.662   3.275 -0.1832 -0.7207 -0.1260
 5273TIP3    H137454   4.563   0.733   3.300 -0.2726 -0.8667  0.5192
 5273TIP3    H237455   4.430   0.671   3.334  0.1111 -1.7556  0.4288
 5274TIP3   OH237456   3.736   2.355   0.849 -0.1394 -0.0304 -0.8263
 5274TIP3    H137457   3.728   2.286   0.915  0.3538  1.0795  0.4321
 5274TIP3    H237458   3.821   2.395   0.866 -0.0164  0.2953 -2.1321
 5275TIP3   OH237459   6.127   1.373   2.297  0.1765  0.2519 -0.0192
 5275TIP3    H137460   6.151   1.315   2.224 -2.5469  1.1230 -1.7518
 5275TIP3    H237461   6.169   1.456   2.275  1.5788 -0.1725  0.8954
 5276TIP3   OH237462   1.046   3.693   0.870  0.2895  0.1836 -0.2126
 5276TIP3    H137463   1.125   3.646   0.844  0.2785 -0.2200  0.4622
 5276TIP3    H237464   0.983   3.624   0.892 -0.0262  0.5094 -0.0782
 5277TIP3   OH237465   5.384   0.751   7.629 -0.2341  0.1711 -0.5116
 5277TIP3    H137466   5.315   0.743   7.694 -1.2127  1.4005 -1.3679
 5277TIP3    H237467   5.434   0.670   7.638 -3.6826 -2.3671 -2.0355
 5278TIP3   OH237468   2.050   5.123   8.036 -0.0072 -0.0500  0.4681
 5278TIP3    H137469   1.989   5.171   7.980 -0.3407  1.5232  2.0941
 5278TIP3    H237470   2.054   5.035   7.997 -1.0163  0.6664 -1.3710
 5279TIP3   OH237471   6.700   4.652   1.494 -0.0857  0.0107  0.2308
 5279TIP3    H137472   6.687   4.742   1.526 -0.7356 -0.3442  0.9953
 5279TIP3    H237473   6.631   4.601   1.537 -0.7452 -0.5674 -1.4354
 5280TIP3   OH237474   1.829   6.731   0.240  0.1790  0.4414 -0.1133
 5280TIP3    H137475   1.782   6.685   0.170 -0.3466  0.7909 -0.0022
 5280TIP3    H237476   1.921   6.707   0.228 -0.2188 -1.7945  0.8103
 5281TIP3   OH237477   5.650   3.957   8.049 -0.2164 -0.0141  0.3626
 5281TIP3    H137478   5.742   3.975   8.066 -0.1495 -0.5301  0.5653
 5281TIP3    H237479   5.643   3.951   7.954 -0.0046 -0.1651  0.3582
 5282TIP3   OH237480   1.987   6.223   0.974 -0.3483 -0.1042  0.2574
 5282TIP3    H137481   1.932   6.147   0.956 -0.2876 -0.9751  3.2285
 5282TIP3    H237482   2.076   6.189   0.973 -0.2808  0.0301  0.9741
 5283TIP3   OH237483   3.227   2.138   2.835 -0.4883 -0.2108  0.2489
 5283TIP3    H137484   3.259   2.224   2.862  1.1992 -0.3757 -1.0966
 5283TIP3    H237485   3.256   2.079   2.904  0.2871 -0.0310  0.0821
 5284TIP3   OH237486   1.795   1.265   7.263  0.1926 -0.8855  0.6563
 5284TIP3    H137487   1.876   1.313   7.248 -1.6999  1.6651 -3.1091
 5284TIP3    H237488   1.746   1.318   7.326 -0.7815  0.9220 -1.4785
 5285TIP3   OH237489   2.425   5.002   0.992  0.3456  0.7548  0.7132
 5285TIP3    H137490   2.470   5.082   0.966  2.1768  0.1920  1.9554
 5285TIP3    H237491   2.371   5.028   1.067 -2.8573  1.7877 -1.7354
 5286TIP3   OH237492   1.706   6.252   1.541 -0.0437 -0.2223 -0.5564
 5286TIP3    H137493   1.657   6.325   1.577  0.6624  1.1198 -2.1574
 5286TIP3    H237494   1.646   6.178   1.544 -1.0452  0.6093  0.4067
 5287TIP3   OH237495   0.092   1.923   8.533 -0.2115  0.2418 -0.5091
 5287TIP3    H137496   0.100   2.018   8.540  1.1463  0.0384  1.2401
 5287TIP3    H237497   0.029   1.899   8.601 -0.1226 -0.1766 -0.5743
 5288TIP3   OH237498   0.321   5.113   0.368  0.7237  0.1546 -0.3643
 5288TIP3    H137499   0.304   5.020   0.384  0.9614  0.2739  0.6511
 5288TIP3    H237500   0.384   5.138   0.435 -0.7558  1.4904  0.6183
 5289TIP3   OH237501   5.328   3.356   2.034  0.6131 -0.0952 -0.0786
 5289TIP3    H137502   5.296   3.437   1.995  3.0204  1.3536  0.7385
 5289TIP3    H237503   5.423   3.363   2.029  0.9054 -2.7484  0.3259
 5290TIP3   OH237504   3.986   4.951   8.031  0.3510  0.3896  0.0662
 5290TIP3    H137505   3.973   4.856   8.033 -2.4289  0.6086 -2.1286
 5290TIP3    H237506   3.986   4.973   7.938 -1.3360  2.7517  0.5499
 5291TIP3   OH237507   5.408   5.046   0.211  0.0641 -0.0973  0.3694
 5291TIP3    H137508   5.321   5.012   0.195 -0.2930  0.7140  0.5113
 5291TIP3    H237509   5.414   5.123   0.154 -0.1360  1.1220  1.9209
 5292TIP3   OH237510   5.699   3.251   2.398  0.3545  0.4483 -0.4334
 5292TIP3    H137511   5.706   3.345   2.381  0.2915  0.4743 -0.3165
 5292TIP3    H237512   5.764   3.234   2.466 -0.2712  0.5792  0.2141
 5293TIP3   OH237513   4.370   0.739   1.016  0.2923  0.3953 -0.4745
 5293TIP3    H137514   4.395   0.824   1.051 -1.7806  0.8544  0.0269
 5293TIP3    H237515   4.435   0.720   0.949  1.0993  2.1102 -0.2256
 5294TIP3   OH237516   5.681   0.807   0.528  0.2438  0.4481  0.1512
 5294TIP3    H137517   5.729   0.840   0.452 -1.2557  1.9102 -0.2314
 5294TIP3    H237518   5.617   0.876   0.547 -1.1096 -1.0135  1.1535
 5295TIP3   OH237519   5.285   3.005   7.595  0.1241  0.1372  0.5309
 5295TIP3    H137520   5.303   2.926   7.545  1.7859  1.0331 -0.3963
 5295TIP3    H237521   5.351   3.006   7.664  1.4433  1.6173 -0.6487
 5296TIP3   OH237522   1.897   3.577   8.247 -0.6623  0.1488  0.3708
 5296TIP3    H137523   1.831   3.632   8.206 -0.1707  0.3919 -0.1158
 5296TIP3    H237524   1.924   3.626   8.324  1.6820  1.9676 -1.4287
 5297TIP3   OH237525   6.422   6.680   7.435 -0.1463  0.0819 -0.2693
 5297TIP3    H137526   6.381   6.666   7.521 -2.3870 -0.5451 -1.3522
 5297TIP3    H237527   6.480   6.755   7.448 -0.1849 -0.1897  1.8540
 5298TIP3   OH237528   3.954   2.381   0.152 -0.0672  0.3065 -0.0598
 5298TIP3    H137529   3.983   2.452   0.209  1.9070  0.5362 -1.2694
 5298TIP3    H237530   3.973   2.411   0.063 -0.3684 -1.2250 -0.6811
 5299TIP3   OH237531   2.909   4.250   1.547  0.1522 -0.1590 -0.3169
 5299TIP3    H137532   2.851   4.261   1.471  0.1307  0.1902 -0.2539
 5299TIP3    H237533   2.997   4.241   1.509  0.2679  0.9648 -0.3579
 5300TIP3   OH237534   3.507   6.518   8.098 -0.3326  0.1324 -0.5493
 5300TIP3    H137535   3.435   6.555   8.149 -0.2532  0.5377 -0.7218
 5300TIP3    H237536   3.583   6.522   8.156 -0.5816 -0.9214 -0.1249
 5301TIP3   OH237537   5.839   6.240   8.050 -0.5521  0.1196  0.8599
 5301TIP3    H137538   5.839   6.155   8.005  0.7072  0.6918 -0.3122
 5301TIP3    H237539   5.924   6.243   8.095 -1.2355  0.1301  2.1799
 5302TIP3   OH237540   5.071   0.550   0.017 -0.5602 -0.1873 -0.0766
 5302TIP3    H137541   5.055   0.630  -0.033 -3.3716 -1.3416 -1.2282
 5302TIP3    H237542   5.026   0.564   0.100 -1.8626 -0.8561 -0.6387
 5303TIP3   OH237543   5.081   5.737   8.478 -0.5737 -0.0507 -0.4849
 5303TIP3    H137544   5.010   5.797   8.455  0.5099  1.1386 -0.8626
 5303TIP3    H237545   5.055   5.700   8.562 -1.4492  0.6809 -0.4159
 5304TIP3   OH237546   2.454   2.386   7.208  0.0100  0.2128  0.0981
 5304TIP3    H137547   2.469   2.306   7.258  1.9358  1.7152  2.0650
 5304TIP3    H237548   2.369   2.418   7.239  0.2370  0.0448  0.9215
 5305TIP3   OH237549   6.669   3.317   7.863 -0.3679  0.3356  0.5297
 5305TIP3    H137550   6.621   3.343   7.942 -0.1661  0.5426  0.5873
 5305TIP3    H237551   6.610   3.257   7.817 -1.1761  1.5355 -0.0294
 5306TIP3   OH237552   5.482   2.132   1.145  0.5555 -0.1226 -0.4830
 5306TIP3    H137553   5.401   2.122   1.195  0.4350  3.5085  0.3227
 5306TIP3    H237554   5.470   2.214   1.096  2.8368 -0.7190 -2.2341
 5307TIP3   OH237555   5.428   1.463   8.663 -0.5412  0.2775  1.0063
 5307TIP3    H137556   5.522   1.466   8.684 -0.6147 -0.2247  1.4521
 5307TIP3    H237557   5.385   1.470   8.748 -0.9020  0.3185  0.8208
 5308TIP3   OH237558   6.489   3.889   8.255  0.4753  0.2122 -0.1029
 5308TIP3    H137559   6.565   3.940   8.283  1.6610 -1.2856 -0.4895
 5308TIP3    H237560   6.427   3.897   8.328  1.3311  0.7804  0.5872
 5309TIP3   OH237561   0.810   2.593   8.360 -0.1372 -0.5997  0.3898
 5309TIP3    H137562   0.776   2.522   8.414  0.0298 -0.5595  0.5480
 5309TIP3    H237563   0.733   2.646   8.340  0.0581  0.4151  2.1191
 5310TIP3   OH237564   3.625   3.046   0.815  0.4516 -0.6110  0.0705
 5310TIP3    H137565   3.632   2.951   0.802 -0.1959 -0.5182 -1.1607
 5310TIP3    H237566   3.690   3.083   0.756 -1.1483 -0.2280 -1.5631
 5311TIP3   OH237567   6.563   5.120   2.334 -0.4577  0.1745  0.6562
 5311TIP3    H137568   6.490   5.121   2.271  1.0184  0.7474 -1.1257
 5311TIP3    H237569   6.604   5.034   2.322  2.0096  1.5375 -1.9381
 5312TIP3   OH237570   1.727   5.419   8.635  0.7042 -0.3263  0.3370
 5312TIP3    H137571   1.737   5.401   8.542 -1.5501 -0.0295 -0.0191
 5312TIP3    H237572   1.800   5.373   8.677  1.8494 -0.3277 -1.5555
 5313TIP3   OH237573   0.151   1.183   8.764 -0.1124  0.3919  0.3638
 5313TIP3    H137574   0.205   1.113   8.800  0.3485  1.5037  1.9582
 5313TIP3    H237575   0.187   1.199   8.677 -0.6159 -1.7135 -0.2826
 5314TIP3   OH237576   3.799   5.286   3.412 -0.0163  0.2202 -0.0205
 5314TIP3    H137577   3.882   5.301   3.456  0.0449 -0.3452  0.0676
 5314TIP3    H237578   3.766   5.204   3.449  0.5791 -0.8819 -1.8110
 5315TIP3   OH237579   6.232   5.100   1.224 -0.9379  0.2517  0.1666
 5315TIP3    H137580   6.298   5.121   1.291 -0.0835 -0.7684 -0.3215
 5315TIP3    H237581   6.237   5.005   1.215  0.2704  0.4911 -2.6204
 5316TIP3   OH237582   6.336   6.309   7.967 -0.3624  0.0999  0.1015
 5316TIP3    H137583   6.389   6.354   7.900  1.1141  1.0199  1.7980
 5316TIP3    H237584   6.381   6.227   7.982 -0.7549 -0.1529 -0.0747
 5317TIP3   OH237585   6.160   2.706   2.704 -0.1388 -0.6945 -0.7765
 5317TIP3    H137586   6.128   2.739   2.620  2.2604  0.6481 -1.2741
 5317TIP3    H237587   6.148   2.612   2.699 -1.7182 -0.4806 -1.8377
 5318TIP3   OH237588   5.627   6.020   2.791  0.1226 -0.3547  0.7683
 5318TIP3    H137589   5.625   5.969   2.710 -2.8278  2.0497 -0.8936
 5318TIP3    H237590   5.662   6.105   2.764  1.4509 -0.2563  2.6314
 5319TIP3   OH237591   0.150   1.722   8.333  0.0156 -0.1946 -0.4887
 5319TIP3    H137592   0.204   1.801   8.331 -0.2181 -0.0366 -2.8697
 5319TIP3    H237593   0.082   1.741   8.398  0.1063  1.4788 -0.8343
 5320TIP3   OH237594   2.270   5.569   8.699 -0.3285  0.5152 -0.5329
 5320TIP3    H137595   2.295   5.491   8.749 -0.1439 -0.1446 -1.6317
 5320TIP3    H237596   2.350   5.595   8.654 -0.9322 -0.0380 -1.9844
 5321TIP3   OH237597   1.833   0.916   2.090  0.5303 -0.1193 -0.1566
 5321TIP3    H137598   1.851   0.987   2.030  3.4373  0.4752  1.2287
 5321TIP3    H237599   1.919   0.878   2.110 -0.2159 -0.3227  3.4820
 5322TIP3   OH237600   5.609   6.529   8.442  0.0217 -0.3941 -0.4136
 5322TIP3    H137601   5.680   6.481   8.400  2.0023  1.0265  1.1366
 5322TIP3    H237602   5.554   6.558   8.369  1.3241 -1.0681 -1.7215
 5323TIP3   OH237603   2.133   4.161   2.260  0.5218 -0.1194 -0.0072
 5323TIP3    H137604   2.161   4.253   2.255  1.5422 -0.4246 -0.3551
 5323TIP3    H237605   2.040   4.162   2.237  1.0865  0.5594 -2.6124
 5324TIP3   OH237606   5.335   2.768   8.775  0.1679  0.7048 -0.2101
 5324TIP3    H137607   5.310   2.694   8.721 -1.4333  1.0054  0.0794
 5324TIP3    H237608   5.281   2.841   8.744 -1.0111  0.8198  1.9057
 5325TIP3   OH237609   3.766   0.088   7.678  0.1511  0.7569 -0.3403
 5325TIP3    H137610   3.843   0.115   7.729  0.7414 -0.9012 -0.3156
 5325TIP3    H237611   3.697   0.078   7.743  0.7946 -0.9450  0.1210
 5326TIP3   OH237612   5.183   1.937   7.960  0.0133 -0.3372  0.0999
 5326TIP3    H137613   5.242   1.879   8.009  0.9553  0.7972  0.3431
 5326TIP3    H237614   5.183   1.901   7.871  0.0242 -1.1297  0.4131
 5327TIP3   OH237615   6.437   0.448   7.996 -0.0800 -0.5119 -0.7765
 5327TIP3    H137616   6.376   0.503   8.047 -0.8383 -0.6751 -1.4784
 5327TIP3    H237617   6.462   0.378   8.056 -0.0933 -0.0990 -0.2758
 5328TIP3   OH237618   3.531   4.467   1.185  0.1065 -0.1497 -0.3058
 5328TIP3    H137619   3.571   4.479   1.272  0.1552  0.1577 -0.3704
 5328TIP3    H237620   3.577   4.529   1.129  0.1345 -0.4138 -0.5726
 5329TIP3   OH237621   4.559   3.837   8.539  0.1394  0.0213 -0.0191
 5329TIP3    H137622   4.536   3.746   8.523 -0.4605  0.1846 -0.1092
 5329TIP3    H237623   4.483   3.873   8.587  0.1163  0.6218 -0.4987
 5330TIP3   OH237624   3.538   0.959   0.548 -0.0729 -0.5870  0.0465
 5330TIP3    H137625   3.473   0.905   0.593 -1.5986  0.2704 -1.0218
 5330TIP3    H237626   3.607   0.899   0.522  0.9637 -1.1225  3.5621
 5331TIP3   OH237627   1.918   0.130   0.147 -0.0823 -0.1802  0.0827
 5331TIP3    H137628   2.013   0.118   0.135  0.0503  1.8861 -1.4050
 5331TIP3    H237629   1.891   0.052   0.196  2.7227  0.2377  2.5789
 5332TIP3   OH237630   0.525   5.799   1.606  0.4028  0.0870 -0.1661
 5332TIP3    H137631   0.486   5.868   1.661  0.2219  0.6200 -0.9399
 5332TIP3    H237632   0.450   5.752   1.570  0.5062  0.1231 -0.4311
 5333TIP3   OH237633   5.335   4.794   1.257  0.2295  0.1093  0.6592
 5333TIP3    H137634   5.269   4.765   1.320  0.9102 -1.5470  0.6743
 5333TIP3    H237635   5.323   4.888   1.251 -2.9267 -0.2517 -0.2525
 5334TIP3   OH237636   1.867   4.662   0.786  0.2977 -0.1386 -0.2429
 5334TIP3    H137637   1.772   4.664   0.791  0.3029  1.9373 -0.2058
 5334TIP3    H237638   1.890   4.570   0.800 -1.7655 -0.9999 -1.9565
 5335TIP3   OH237639   3.926   0.812   0.217  0.1002 -0.2309  0.3373
 5335TIP3    H137640   3.921   0.874   0.289  0.7672 -1.5365  1.5739
 5335TIP3    H237641   3.839   0.772   0.213 -0.0337  0.0715  0.1897
 5336TIP3   OH237642   5.682   2.894   8.705  0.3410 -0.2859  0.2536
 5336TIP3    H137643   5.645   2.928   8.624  0.9982 -2.2092 -0.8988
 5336TIP3    H237644   5.647   2.953   8.773 -2.8155 -0.5031 -1.0070
 5337TIP3   OH237645   4.276   5.244   2.670 -0.4435 -0.4409  0.4471
 5337TIP3    H137646   4.266   5.297   2.749 -0.9698 -0.2355  0.2415
 5337TIP3    H237647   4.328   5.299   2.611  0.5743 -0.8757  0.9070
 5338TIP3   OH237648   2.440   0.731   7.655  0.2095 -0.1670 -0.1038
 5338TIP3    H137649   2.361   0.722   7.708  0.7902  0.1007  0.8270
 5338TIP3    H237650   2.449   0.648   7.610 -1.3125  0.2402 -1.2284
 5339TIP3   OH237651   0.894   0.569   2.325 -0.5223  0.2698 -0.2535
 5339TIP3    H137652   0.950   0.503   2.285 -1.2888 -1.3107  1.1824
 5339TIP3    H237653   0.915   0.566   2.418 -3.1452 -0.5899  0.3846
 5340TIP3   OH237654   6.098   4.286   3.363  0.1851 -0.1648  0.0088
 5340TIP3    H137655   6.053   4.204   3.338  1.0365 -0.6424  0.0068
 5340TIP3    H237656   6.149   4.263   3.440 -0.4880  0.6871  0.7338
 5341TIP3   OH237657   3.340   2.367   2.218  0.7638  0.8994 -0.3277
 5341TIP3    H137658   3.404   2.421   2.172 -1.0701  2.1610 -1.5641
 5341TIP3    H237659   3.264   2.365   2.160 -0.2220 -0.8189  0.9115
 5342TIP3   OH237660   4.219   6.573   0.428  0.5856 -0.1436  0.0430
 5342TIP3    H137661   4.222   6.650   0.485 -1.2929 -0.8190  1.1460
 5342TIP3    H237662   4.184   6.606   0.345  0.2462  0.2736  0.3506
 5343TIP3   OH237663   5.724   2.166   2.966  0.2643  0.2625 -0.1700
 5343TIP3    H137664   5.790   2.127   2.908  0.3301  0.5066 -0.2632
 5343TIP3    H237665   5.770   2.239   3.007  0.3102 -0.0950  0.4272
 5344TIP3   OH237666   5.463   2.495   2.535 -0.0544 -0.9389 -0.1499
 5344TIP3    H137667   5.500   2.461   2.617 -0.5676  0.0928  0.5463
 5344TIP3    H237668   5.456   2.590   2.550 -1.1600 -0.8635 -0.9862
 5345TIP3   OH237669   5.731   5.903   8.530  0.5988  0.6073  0.0683
 5345TIP3    H137670   5.812   5.949   8.552  0.4048  0.5588  0.9236
 5345TIP3    H237671   5.742   5.816   8.568  0.6961  0.1426 -0.9863
 5346TIP3   OH237672   5.585   6.079   7.821 -0.4411 -0.7021 -0.2486
 5346TIP3    H137673   5.543   5.994   7.831 -0.6778 -0.6200 -0.5282
 5346TIP3    H237674   5.546   6.133   7.891 -1.0339 -0.5399 -0.6949
 5347TIP3   OH237675   0.384   2.381   1.370  0.0320 -0.0308 -0.3178
 5347TIP3    H137676   0.345   2.460   1.408 -0.2026  1.0904 -2.6468
 5347TIP3    H237677   0.328   2.362   1.294  1.4830 -1.0135 -1.1746
 5348TIP3   OH237678   1.172   3.216   8.338  0.4630  0.3520  0.2640
 5348TIP3    H137679   1.251   3.269   8.342  0.4266  0.3480  1.1000
 5348TIP3    H237680   1.198   3.136   8.292  0.5663  0.9940 -0.8267
 5349TIP3   OH237681   3.103   4.820   0.403  0.1331  0.2071 -0.3696
 5349TIP3    H137682   3.125   4.846   0.492 -1.4272  0.6734 -0.0837
 5349TIP3    H237683   3.152   4.739   0.388  1.7715  1.0394  0.2577
 5350TIP3   OH237684   1.787   4.428   0.057 -0.2991  0.2507 -0.2822
 5350TIP3    H137685   1.875   4.411   0.091 -1.5959 -0.2466  3.2636
 5350TIP3    H237686   1.773   4.522   0.072 -0.6396  0.1757 -0.1213
 5351TIP3   OH237687   0.699   4.050   8.413  0.1176  0.4070 -0.5432
 5351TIP3    H137688   0.676   4.143   8.410 -1.5721  0.0526  0.5032
 5351TIP3    H237689   0.764   4.043   8.483  0.3391  0.7981 -0.7052
 5352TIP3   OH237690   0.792   2.142   8.233  0.4580 -0.8747 -0.9235
 5352TIP3    H137691   0.796   2.226   8.188 -0.9905 -1.4078 -2.1538
 5352TIP3    H237692   0.831   2.080   8.170  1.9918 -1.0789  0.1765
 5353TIP3   OH237693   4.296   6.748   1.328 -0.7280 -0.2551  0.2696
 5353TIP3    H137694   4.202   6.730   1.330 -0.8001  0.0614 -0.0663
 5353TIP3    H237695   4.320   6.763   1.419 -0.9225 -0.7407  0.4025
 5354TIP3   OH237696   0.257   2.054   2.198  0.1346 -0.7552 -0.0666
 5354TIP3    H137697   0.288   2.038   2.109  1.3140  0.5723  0.0625
 5354TIP3    H237698   0.307   1.993   2.252 -0.3314 -1.3229 -0.2721
 5355TIP3   OH237699   3.048   4.656   0.723  0.0047 -0.5501 -0.4985
 5355TIP3    H137700   3.009   4.729   0.771 -3.0836 -2.3301  0.0019
 5355TIP3    H237701   3.133   4.643   0.764 -0.1769  1.4990  0.6864
 5356TIP3   OH237702   3.612   1.877   7.886 -0.5467 -0.1137 -0.5600
 5356TIP3    H137703   3.525   1.917   7.883  1.0007  4.0438  1.3360
 5356TIP3    H237704   3.647   1.891   7.797 -0.0317  3.3468  0.0295
 5357TIP3   OH237705   5.462   5.392   8.042  0.5817 -0.0416 -0.2055
 5357TIP3    H137706   5.455   5.427   7.954  1.5737  0.4174 -0.1138
 5357TIP3    H237707   5.455   5.297   8.031 -1.7861  0.1203 -0.4882
 5358TIP3   OH237708   4.238   3.755   7.749  0.2035 -0.0235 -0.4903
 5358TIP3    H137709   4.325   3.715   7.746 -0.1171 -0.7097 -2.0444
 5358TIP3    H237710   4.187   3.706   7.684 -2.1964 -1.5431  2.2915
 5359TIP3   OH237711   6.537   2.741   2.585 -0.0421  0.4230  0.8357
 5359TIP3    H137712   6.476   2.671   2.563  0.4431  0.3259 -0.2621
 5359TIP3    H237713   6.504   2.818   2.538 -0.1886  0.7614  1.4828
 5360TIP3   OH237714   0.517   1.451   1.556  0.4804 -0.2074  0.1348
 5360TIP3    H137715   0.521   1.471   1.463 -0.0619 -0.4322  0.0576
 5360TIP3    H237716   0.483   1.531   1.596 -0.9766 -0.6914 -0.0833
 5361TIP3   OH237717   4.688   2.760   8.545 -0.2170 -0.3510 -0.4434
 5361TIP3    H137718   4.773   2.747   8.586 -0.4177 -0.5386 -0.0894
 5361TIP3    H237719   4.684   2.695   8.475 -0.4862 -1.0256  0.1885
 5362TIP3   OH237720   1.756   5.941   2.171  0.4091 -0.7289 -0.4006
 5362TIP3    H137721   1.715   5.854   2.169  1.0350 -1.0674  0.8467
 5362TIP3    H237722   1.801   5.948   2.087 -0.4554 -1.1974 -0.9263
 5363TIP3   OH237723   1.354   3.457   1.791  0.3261 -0.1592 -0.1180
 5363TIP3    H137724   1.384   3.514   1.862 -0.9689  0.8731 -0.3704
 5363TIP3    H237725   1.397   3.492   1.712  0.7786 -0.5326 -0.0426
 5364TIP3   OH237726   5.718   3.380   3.328  0.5300  0.1563 -0.0721
 5364TIP3    H137727   5.655   3.387   3.400  0.6179  0.5943 -0.0377
 5364TIP3    H237728   5.713   3.465   3.283 -0.7381 -0.6572 -1.5880
 5365TIP3   OH237729   4.950   1.419   2.531  0.6309  0.2467 -0.2353
 5365TIP3    H137730   4.901   1.407   2.613  0.0941 -2.4543 -0.8535
 5365TIP3    H237731   5.014   1.348   2.530  2.7100  2.0089 -0.8251
 5366TIP3   OH237732   0.194   3.165   2.491  0.4541 -0.1278  0.5827
 5366TIP3    H137733   0.105   3.177   2.522  0.4802 -0.6238  0.8544
 5366TIP3    H237734   0.203   3.227   2.418 -0.5263 -0.9950 -0.3013
 5367TIP3   OH237735   4.435   5.361   2.229 -0.0747 -1.1550  0.0591
 5367TIP3    H137736   4.486   5.281   2.217  1.9172  0.1907 -0.9328
 5367TIP3    H237737   4.482   5.428   2.180 -1.1387  0.8704  1.6170
 5368TIP3   OH237738   6.008   4.479   2.555 -0.1402 -0.1540 -0.3346
 5368TIP3    H137739   5.988   4.499   2.646  1.4260  1.3167 -0.2649
 5368TIP3    H237740   6.018   4.383   2.553 -1.0188 -0.2897  0.8277
 5369TIP3   OH237741   0.204   0.809   0.806  0.7417  0.1290 -0.3239
 5369TIP3    H137742   0.258   0.886   0.821  1.5177 -0.3541 -0.5832
 5369TIP3    H237743   0.188   0.810   0.711  0.7375 -0.0261 -0.3239
 5370TIP3   OH237744   5.455   6.819   8.140 -0.3354  0.2209 -0.2542
 5370TIP3    H137745   5.408   6.757   8.196 -0.5924 -0.4984 -1.2336
 5370TIP3    H237746   5.387   6.879   8.110 -0.0362  1.2094  0.9381
 5371TIP3   OH237747   4.179   4.169   8.608  0.3154  0.4677 -0.2151
 5371TIP3    H137748   4.206   4.121   8.687 -0.6524 -0.3897 -0.3767
 5371TIP3    H237749   4.261   4.187   8.562  0.7052 -1.7298 -0.5203
 5372TIP3   OH237750   4.243   0.739   1.992  0.6419 -0.0665  0.3238
 5372TIP3    H137751   4.237   0.795   1.915  0.6375 -0.9388 -0.3318
 5372TIP3    H237752   4.155   0.704   2.003  1.4410 -3.3695 -1.9822
 5373TIP3   OH237753   4.862   6.762   1.066 -0.3395  0.3674  0.0725
 5373TIP3    H137754   4.928   6.779   1.133 -0.7443  0.5878  0.4193
 5373TIP3    H237755   4.909   6.772   0.983  0.4657 -1.0638  0.3201
 5374TIP3   OH237756   1.198   5.838   1.978  0.1123  0.1448 -0.6344
 5374TIP3    H137757   1.264   5.907   1.982  1.6369 -1.3146  1.1420
 5374TIP3    H237758   1.132   5.864   2.042 -0.3500  0.8871 -1.3861
 5375TIP3   OH237759   1.865   4.690   8.025 -0.0138  0.6937 -0.2466
 5375TIP3    H137760   1.775   4.660   8.013  0.4893 -0.5060 -1.2288
 5375TIP3    H237761   1.893   4.720   7.939 -0.4521  4.1210  0.6461
 5376TIP3   OH237762   2.863   4.969   8.153 -0.1689 -0.1977  0.4631
 5376TIP3    H137763   2.859   5.040   8.089 -0.0155 -0.6809 -0.0910
 5376TIP3    H237764   2.951   4.932   8.141 -0.4930 -0.9195  0.2672
 5377TIP3   OH237765   6.740   2.128   2.124 -0.5187 -0.4319 -0.2673
 5377TIP3    H137766   6.684   2.199   2.092  0.0692  0.1690 -0.0029
 5377TIP3    H237767   6.808   2.120   2.058 -0.3972 -0.5198 -0.1316
 5378TIP3   OH237768   5.399   0.983   1.583 -0.4133 -0.4018  0.3752
 5378TIP3    H137769   5.308   0.967   1.558  0.4669 -0.0461 -3.7846
 5378TIP3    H237770   5.447   0.910   1.545  1.4852  1.7969 -1.7330
 5379TIP3   OH237771   5.046   3.364   0.822  0.1682  0.6435 -0.0352
 5379TIP3    H137772   5.071   3.318   0.741 -0.7898 -0.8423  0.4612
 5379TIP3    H237773   5.123   3.357   0.878 -0.0936 -0.7674  0.1818
 5380TIP3   OH237774   2.660   0.119   2.447  0.0939 -0.3455 -0.6737
 5380TIP3    H137775   2.635   0.028   2.430 -1.0824 -0.5348  1.7261
 5380TIP3    H237776   2.741   0.113   2.496 -0.1811 -0.1240 -0.1872
 5381TIP3   OH237777   1.839   4.058   1.087  0.0585  0.1232 -0.2806
 5381TIP3    H137778   1.920   4.016   1.058  0.0270  0.4490 -0.8620
 5381TIP3    H237779   1.862   4.103   1.168  0.4893  0.3138 -0.5095
 5382TIP3   OH237780   4.321   2.150   8.270  0.3390 -0.1756 -0.1465
 5382TIP3    H137781   4.333   2.155   8.365  0.5046 -0.1467 -0.1682
 5382TIP3    H237782   4.400   2.106   8.239  1.3201  1.7279 -0.4850
 5383TIP3   OH237783   0.180   3.555   8.597 -0.7342  0.9982 -0.0092
 5383TIP3    H137784   0.162   3.612   8.673 -0.2995  1.1047  0.0171
 5383TIP3    H237785   0.250   3.600   8.550  3.0121 -1.6804  2.4824
 5384TIP3   OH237786   3.005   1.169   3.323  0.1052  0.1009 -0.0985
 5384TIP3    H137787   2.988   1.083   3.361 -1.4588  0.3283 -0.2070
 5384TIP3    H237788   3.038   1.222   3.395  0.4165 -0.4094  0.1302
 5385TIP3   OH237789   1.399   5.384   0.890  0.0633 -0.2776 -0.6878
 5385TIP3    H137790   1.443   5.384   0.975 -1.1540 -0.3442 -0.0386
 5385TIP3    H237791   1.388   5.477   0.869  1.4607 -0.2480 -1.3767
 5386TIP3   OH237792   3.327   0.226   2.114 -0.0707 -0.9956  0.7740
 5386TIP3    H137793   3.300   0.138   2.085 -1.3172 -0.3929  0.0438
 5386TIP3    H237794   3.271   0.245   2.189 -0.6701 -0.3377  0.1686
 5387TIP3   OH237795   2.292   5.812   1.253 -0.5493  0.0050  0.5487
 5387TIP3    H137796   2.267   5.719   1.254  1.7062 -0.6605  1.3074
 5387TIP3    H237797   2.224   5.856   1.304 -1.0869 -1.3963  1.0860
 5388TIP3   OH237798   1.086   2.167   2.050 -0.4838  0.4869  0.8401
 5388TIP3    H137799   1.182   2.166   2.044 -0.4763 -0.1213  0.9740
 5388TIP3    H237800   1.062   2.258   2.033  0.1901  0.8678  1.8340
 5389TIP3   OH237801   3.419   1.218   2.402  0.5934 -0.0681  0.5788
 5389TIP3    H137802   3.419   1.133   2.359  2.7975  0.0330  0.2602
 5389TIP3    H237803   3.416   1.198   2.495  1.1582 -0.5086  0.5074
 5390TIP3   OH237804   2.446   1.319   0.756 -0.0657  0.1487  0.1136
 5390TIP3    H137805   2.370   1.281   0.798  1.3809 -0.2849  2.5279
 5390TIP3    H237806   2.513   1.322   0.825  2.0312  0.7238 -1.8120
 5391TIP3   OH237807   0.416   5.602   0.547  0.4816  0.2166  0.0417
 5391TIP3    H137808   0.335   5.559   0.574 -0.0751  0.6833 -0.8212
 5391TIP3    H237809   0.434   5.665   0.616 -1.1041  1.6302 -0.7684
 5392TIP3   OH237810   2.389   0.826   0.784 -0.1715  0.5688  0.0144
 5392TIP3    H137811   2.349   0.822   0.697 -0.1901 -0.7031  0.0603
 5392TIP3    H237812   2.315   0.828   0.844 -0.2944 -2.6765  0.1392
 5393TIP3   OH237813   0.335   0.138   1.697  0.0807  0.2682 -0.5648
 5393TIP3    H137814   0.267   0.090   1.650 -0.9255  0.6454  0.4608
 5393TIP3    H237815   0.366   0.076   1.763 -0.1734  0.5133 -0.2090
 5394TIP3   OH237816   3.279   3.261   8.550  0.3513  0.2545  0.0316
 5394TIP3    H137817   3.369   3.228   8.557  0.2686 -0.3191 -1.2890
 5394TIP3    H237818   3.257   3.287   8.639  1.7908  0.3200  0.4053
 5395TIP3   OH237819   4.417   2.967   1.664  0.8119 -0.0907 -0.6685
 5395TIP3    H137820   4.391   3.044   1.614  0.6106 -0.2321 -0.7816
 5395TIP3    H237821   4.455   2.908   1.599 -1.5897 -1.2726 -1.0954
 5396TIP3   OH237822   1.272   5.007   0.804  0.3129 -0.7321 -0.1820
 5396TIP3    H137823   1.357   4.970   0.826 -0.3748 -1.7805  0.8298
 5396TIP3    H237824   1.287   5.055   0.723  2.1923  0.3816  0.7758
 5397TIP3   OH237825   0.843   0.660   0.395  0.3535  0.3044 -0.1025
 5397TIP3    H137826   0.911   0.617   0.342  0.2569  0.0331 -0.0063
 5397TIP3    H237827   0.866   0.639   0.486  0.1946  0.2943 -0.0641
 5398TIP3   OH237828   1.436   3.448   8.458 -0.3438  0.5449 -0.9804
 5398TIP3    H137829   1.461   3.436   8.367  1.0063  0.5523 -0.6307
 5398TIP3    H237830   1.519   3.457   8.505 -1.0485  2.4229 -0.0087
 5399TIP3   OH237831   4.372   0.880   0.586  0.1170 -0.0410  0.2013
 5399TIP3    H137832   4.340   0.867   0.497 -0.0273  1.1028  0.0695
 5399TIP3    H237833   4.302   0.928   0.631  1.3788  2.1422  0.0280
 5400TIP3   OH237834   3.366   1.156   0.124  0.0702  0.0328 -0.5061
 5400TIP3    H137835   3.365   1.194   0.037 -2.2037  0.8191 -0.2177
 5400TIP3    H237836   3.312   1.077   0.116  0.8801 -0.5807 -0.0650
 5401TIP3   OH237837   1.284   5.409   1.183  0.2906  0.1261  0.1663
 5401TIP3    H137838   1.275   5.503   1.198 -0.8506 -0.0392  0.5698
 5401TIP3    H237839   1.205   5.370   1.222  0.0626 -0.8689 -1.2351
 5402TIP3   OH237840   0.695   6.099   8.145 -0.3088 -0.0352  0.2271
 5402TIP3    H137841   0.714   6.017   8.189 -0.9898  0.0572  0.7119
 5402TIP3    H237842   0.639   6.074   8.071 -0.2559 -0.0442  0.1898
 5403TIP3   OH237843   4.763   2.221   0.747  0.0491 -0.2721  0.8380
 5403TIP3    H137844   4.780   2.297   0.802 -1.3335  0.6598  0.0352
 5403TIP3    H237845   4.668   2.222   0.733  0.3385 -0.4476 -1.5318
 5404TIP3   OH237846   0.860   5.647   0.785  0.1755 -0.1252  0.3375
 5404TIP3    H137847   0.819   5.704   0.850  1.6970  0.4981  0.8147
 5404TIP3    H237848   0.875   5.704   0.710 -1.9213 -0.9376 -0.7493
 5405TIP3   OH237849   4.177   5.567   7.963  0.3729 -0.2492 -0.1097
 5405TIP3    H137850   4.136   5.576   8.049  0.8200 -1.2329  0.2322
 5405TIP3    H237851   4.109   5.527   7.908  1.1290 -2.9579  0.7569
 5406TIP3   OH237852   0.626   2.600   2.953  0.1719  0.1566 -0.5827
 5406TIP3    H137853   0.590   2.562   3.034  0.2958 -1.0123 -1.0480
 5406TIP3    H237854   0.674   2.528   2.913  0.0547  0.7003 -1.7327
 5407TIP3   OH237855   6.708   6.119   2.029 -0.3934  0.1632 -0.3107
 5407TIP3    H137856   6.627   6.105   2.076 -1.0376  0.4765 -1.2981
 5407TIP3    H237857   6.742   6.202   2.063  0.5983 -0.9339  1.5654
 5408TIP3   OH237858   6.394   2.869   1.533 -0.0641 -0.5266  0.4365
 5408TIP3    H137859   6.325   2.844   1.595 -0.8308  0.3142 -0.0607
 5408TIP3    H237860   6.352   2.864   1.447  0.9183 -1.4230 -0.0157
 5409TIP3   OH237861   5.074   0.305   1.785  0.1964 -0.9063  0.1227
 5409TIP3    H137862   5.147   0.280   1.841 -0.1768 -0.9310  0.6091
 5409TIP3    H237863   5.111   0.370   1.725  0.6875 -1.1485  0.1603
 5410TIP3   OH237864   2.148   6.725   0.616  0.8241  0.0504 -0.1873
 5410TIP3    H137865   2.195   6.734   0.699 -1.1301 -0.2994  1.0024
 5410TIP3    H237866   2.118   6.635   0.615  1.4824 -0.1747 -1.6707
 5411TIP3   OH237867   4.902   1.700   7.059 -0.4382 -0.2533 -0.6065
 5411TIP3    H137868   4.937   1.787   7.045  0.0279 -0.2107  0.6656
 5411TIP3    H237869   4.813   1.715   7.090  0.1414 -0.1244  1.1235
 5412TIP3   OH237870   4.662   6.010   8.354  0.7377  0.2433 -0.3974
 5412TIP3    H137871   4.605   5.950   8.305 -0.2912 -0.4925  1.5946
 5412TIP3    H237872   4.657   6.093   8.305 -0.5848 -0.3276 -1.2853
 5413TIP3   OH237873   1.429   2.990   1.569 -0.2400 -0.0922 -0.5173
 5413TIP3    H137874   1.464   2.923   1.510  1.3905  1.0002 -0.8442
 5413TIP3    H237875   1.505   3.042   1.595 -0.6991 -0.9432  3.1653
 5414TIP3   OH237876   2.265   5.934   2.708  0.3843 -0.3540  0.2143
 5414TIP3    H137877   2.299   5.944   2.797  0.1064  1.3838  0.1625
 5414TIP3    H237878   2.242   6.023   2.681 -0.5311 -0.9838 -1.2095
 5415TIP3   OH237879   2.209   2.753   2.646 -0.5045 -0.5470  0.7239
 5415TIP3    H137880   2.131   2.799   2.614  0.0547  0.8764  1.3240
 5415TIP3    H237881   2.260   2.820   2.691  0.3859 -1.7541  1.5996
 5416TIP3   OH237882   2.051   0.138   0.614  0.1390 -0.1181  0.1422
 5416TIP3    H137883   2.117   0.186   0.565  1.9062 -0.7206  1.7932
 5416TIP3    H237884   2.067   0.046   0.591 -0.8005 -0.2051 -0.1995
 5417TIP3   OH237885   0.982   3.986   8.255 -0.5883  0.0088 -0.3621
 5417TIP3    H137886   1.033   3.957   8.331 -0.7701 -0.0284 -0.2534
 5417TIP3    H237887   0.971   3.906   8.203 -1.1166 -0.1337 -0.0470
 5418TIP3   OH237888   5.414   5.412   1.203  0.4162 -0.5279 -0.0997
 5418TIP3    H137889   5.371   5.396   1.119 -1.1301 -0.0776  0.5717
 5418TIP3    H237890   5.467   5.490   1.188 -2.4810  1.6502  0.1654
 5419TIP3   OH237891   4.329   3.925   2.217 -0.0027  0.9266  0.1260
 5419TIP3    H137892   4.391   3.876   2.271  1.4911  1.8354 -0.6779
 5419TIP3    H237893   4.335   4.015   2.249 -1.6214  0.8807  0.6274
 5420TIP3   OH237894   0.707   2.301   3.101  0.4527  0.2222  0.1964
 5420TIP3    H137895   0.736   2.339   3.018  0.2078 -1.8988 -0.9278
 5420TIP3    H237896   0.629   2.351   3.124  0.6797  1.0173 -0.6796
 5421TIP3   OH237897   6.501   2.029   7.594 -0.5401  0.5589  0.0840
 5421TIP3    H137898   6.466   2.060   7.677 -0.7921 -2.0495  1.0301
 5421TIP3    H237899   6.423   2.016   7.539 -0.4262  1.6293 -0.3521
 5422TIP3   OH237900   4.943   2.233   7.124  0.1863  0.0789  0.7086
 5422TIP3    H137901   4.867   2.252   7.179 -3.7222 -2.6305 -3.1331
 5422TIP3    H237902   4.949   2.306   7.063 -1.0849 -0.8053 -0.5433
 5423TIP3   OH237903   2.934   2.052   8.628 -0.2861 -0.1425  0.1255
 5423TIP3    H137904   2.981   1.969   8.615 -0.0002  0.1118 -0.4574
 5423TIP3    H237905   2.842   2.029   8.615 -0.0392  0.1534 -2.9010
 5424TIP3   OH237906   5.770   5.276   2.408 -0.4524 -0.0858  0.3415
 5424TIP3    H137907   5.726   5.281   2.494 -1.3649 -3.0603  0.1345
 5424TIP3    H237908   5.812   5.191   2.407 -0.0654  0.0677 -2.0253
 5425TIP3   OH237909   3.416   5.414   7.209  0.0423 -0.1665 -0.0048
 5425TIP3    H137910   3.380   5.499   7.235 -0.7104 -0.0472 -1.3376
 5425TIP3    H237911   3.510   5.428   7.202 -0.0058  0.3813  0.4028
 5426TIP3   OH237912   2.396   0.481   8.675 -0.1137  0.2073  0.0789
 5426TIP3    H137913   2.343   0.420   8.624  0.5292 -0.5732  0.3068
 5426TIP3    H237914   2.477   0.490   8.624 -0.1731  0.8048  0.0899
 5427TIP3   OH237915   5.827   4.525   3.273 -0.1630  0.3391  0.1698
 5427TIP3    H137916   5.843   4.531   3.368  1.0627  1.8930 -0.0761
 5427TIP3    H237917   5.892   4.585   3.235 -0.6050 -0.2930 -1.6621
 5428TIP3   OH237918   5.406   2.306   1.863  0.3532 -0.3090  0.9200
 5428TIP3    H137919   5.358   2.345   1.790 -1.3952  0.4631  2.3809
 5428TIP3    H237920   5.350   2.234   1.892 -0.8675  1.5206  3.6088
 5429TIP3   OH237921   5.543   2.823   0.213 -0.2595  0.5448  0.2952
 5429TIP3    H137922   5.582   2.737   0.196 -2.4567 -0.8693  2.0122
 5429TIP3    H237923   5.474   2.831   0.147 -1.5047 -0.0312  1.4970
 5430TIP3   OH237924   0.422   0.161   0.505 -0.8629  0.0292 -0.0074
 5430TIP3    H137925   0.507   0.202   0.522 -0.8837 -0.1085  0.4554
 5430TIP3    H237926   0.423   0.142   0.412 -0.5664  0.4366 -0.0903
 5431TIP3   OH237927   1.417   0.427   2.442 -0.0853  1.1531 -0.0280
 5431TIP3    H137928   1.486   0.464   2.498 -0.9437  1.0437  1.1529
 5431TIP3    H237929   1.340   0.423   2.499 -0.4397 -0.9890 -0.5701
 5432TIP3   OH237930   2.654   5.421   0.445 -0.6583 -0.5294  0.2374
 5432TIP3    H137931   2.651   5.325   0.446 -1.1187 -0.5284 -0.4677
 5432TIP3    H237932   2.740   5.442   0.410 -0.7041 -0.6871  0.0321
 5433TIP3   OH237933   5.653   3.574   2.643 -0.6971 -0.4838  0.2906
 5433TIP3    H137934   5.708   3.633   2.694 -1.3517 -1.1398  1.8563
 5433TIP3    H237935   5.700   3.561   2.561  1.2750 -0.6970  1.3852
 5434TIP3   OH237936   3.041   3.316   2.642 -0.1940 -0.1065  0.2680
 5434TIP3    H137937   3.042   3.400   2.688  1.2065  0.3432 -0.5060
 5434TIP3    H237938   3.019   3.252   2.709  2.7767  0.3871  1.9059
 5435TIP3   OH237939   4.343   6.294   8.482 -0.5927  0.2143  0.1103
 5435TIP3    H137940   4.264   6.346   8.499 -0.2613  0.6526  0.3459
 5435TIP3    H237941   4.341   6.277   8.388 -1.1224 -0.0382  0.1645
 5436TIP3   OH237942   1.452   2.550   2.042 -0.0623 -0.0476 -0.4989
 5436TIP3    H137943   1.405   2.598   1.973  0.2419  0.7380 -0.1674
 5436TIP3    H237944   1.501   2.483   1.995 -0.9566 -0.4361 -0.9190
 5437TIP3   OH237945   0.777   5.632   2.629  0.4092 -0.0554  0.9700
 5437TIP3    H137946   0.821   5.686   2.564  1.9697 -1.9864  0.3227
 5437TIP3    H237947   0.848   5.599   2.685 -0.1719 -2.7551  0.2874
 5438TIP3   OH237948   2.011   3.858   1.212  0.1030 -0.3213  0.3831
 5438TIP3    H137949   1.983   3.845   1.122 -0.2126 -0.9312  0.5622
 5438TIP3    H237950   2.080   3.924   1.207 -0.1549 -0.0952 -0.2616
 5439TIP3   OH237951   6.385   1.762   8.102  0.0938  0.2615  0.0214
 5439TIP3    H137952   6.380   1.820   8.026 -1.8857 -0.3702 -0.4101
 5439TIP3    H237953   6.387   1.674   8.064 -2.0903 -0.1141  0.6425
 5440TIP3   OH237954   1.023   0.969   0.284 -0.3678 -0.0990 -1.1386
 5440TIP3    H137955   1.085   0.899   0.302 -1.3820 -0.6777  0.3045
 5440TIP3    H237956   1.062   1.018   0.212  2.4755  0.4693  0.6594
 5441TIP3   OH237957   2.212   2.123   2.809  0.2282 -0.0980  0.1757
 5441TIP3    H137958   2.267   2.099   2.884  0.8281  0.1027 -0.1839
 5441TIP3    H237959   2.233   2.215   2.793 -2.7061  1.0440  2.1085
 5442TIP3   OH237960   5.596   1.334   2.765  0.2512 -0.1563  0.1749
 5442TIP3    H137961   5.532   1.363   2.700  0.9762 -2.8749 -1.9409
 5442TIP3    H237962   5.559   1.362   2.849 -2.6229  0.2788 -1.1077
 5443TIP3   OH237963   0.781   5.392   0.590  0.3784  0.3308 -0.3257
 5443TIP3    H137964   0.823   5.313   0.624  0.6901 -0.2578 -1.9414
 5443TIP3    H237965   0.854   5.445   0.557  0.2130  1.5314  1.1262
 5444TIP3   OH237966   3.616   5.695   3.169  0.0891 -0.1378  0.5750
 5444TIP3    H137967   3.710   5.713   3.178  0.3735  0.5409 -2.5756
 5444TIP3    H237968   3.583   5.768   3.115 -1.8764 -1.2896  0.1285
 5445TIP3   OH237969   5.123   0.659   7.751  0.4258 -0.3368 -0.1083
 5445TIP3    H137970   5.106   0.661   7.845 -1.3393 -0.7302 -0.3956
 5445TIP3    H237971   5.046   0.700   7.712  0.8534 -0.7434 -1.4243
 5446TIP3   OH237972   1.758   6.219   8.548 -0.0839 -0.0239  0.0133
 5446TIP3    H137973   1.808   6.270   8.484 -0.0938 -1.8903 -1.5729
 5446TIP3    H237974   1.682   6.187   8.499  0.0851 -1.7879  0.8511
 5447TIP3   OH237975   4.536   6.200   0.622 -0.3389  0.0255 -0.1138
 5447TIP3    H137976   4.470   6.270   0.621  0.8670  1.2223  0.7404
 5447TIP3    H237977   4.615   6.240   0.587  0.8411 -0.3746  1.9285
 5448TIP3   OH237978   1.204   5.132   1.393  0.7823  0.3858 -0.1335
 5448TIP3    H137979   1.162   5.058   1.351  3.5694 -3.1596  2.6199
 5448TIP3    H237980   1.144   5.157   1.464  1.5877 -2.4811  1.7531
 5449TIP3   OH237981   6.636   2.937   2.269 -0.2574  0.2423  0.2567
 5449TIP3    H137982   6.707   2.943   2.333  0.1220  0.1461 -0.1548
 5449TIP3    H237983   6.676   2.896   2.193 -1.0114 -0.7552  0.3852
 5450TIP3   OH237984   4.935   6.660   8.297 -0.2161 -0.2142 -0.1330
 5450TIP3    H137985   5.023   6.658   8.335 -0.1948 -1.1148 -0.2180
 5450TIP3    H237986   4.876   6.650   8.372 -0.1702 -2.1587 -0.3093
 5451TIP3   OH237987   3.227   1.067   8.300  0.4724 -0.0332 -0.1772
 5451TIP3    H137988   3.277   1.029   8.371  1.6637  0.5242 -0.6824
 5451TIP3    H237989   3.195   0.992   8.250  1.5899 -0.4144 -0.3619
 5452TIP3   OH237990   4.698   3.401   0.764  0.4087 -0.3918 -0.4822
 5452TIP3    H137991   4.645   3.480   0.774 -1.7936 -1.5875 -1.8274
 5452TIP3    H237992   4.693   3.358   0.849  0.3409  0.1698 -0.1988
 5453TIP3   OH237993   2.728   4.782   7.574 -0.5575 -0.1023  0.5795
 5453TIP3    H137994   2.656   4.761   7.632 -1.1153 -1.6531 -0.5889
 5453TIP3    H237995   2.766   4.862   7.610 -1.8234 -0.1588  2.1507
 5454TIP3   OH237996   2.486   4.463   3.258 -0.3121 -0.5148 -0.0103
 5454TIP3    H137997   2.450   4.552   3.260 -0.2025 -0.4672  1.4744
 5454TIP3    H237998   2.580   4.475   3.274 -0.0737 -0.8195 -1.1327
 5455TIP3   OH237999   6.495   6.490   2.167 -0.4330  0.0404 -0.2154
 5455TIP3    H138000   6.576   6.474   2.120 -0.0140  0.2125  0.4410
 5455TIP3    H238001   6.467   6.403   2.198 -0.8300 -0.1049 -0.9665
 5456TIP3   OH238002   3.236   4.185   0.265  0.2728  0.2113  0.2144
 5456TIP3    H138003   3.250   4.196   0.359  0.4028  3.0037 -0.0468
 5456TIP3    H238004   3.222   4.274   0.233  0.3598 -0.6624 -2.4463
 5457TIP3   OH238005   0.342   0.037   7.780  0.3032 -0.1566 -0.0766
 5457TIP3    H138006   0.313   0.120   7.740  0.8710 -0.1275 -0.4348
 5457TIP3    H238007   0.428   0.020   7.741 -0.0826 -1.2482 -0.4989
 5458TIP3   OH238008   6.080   2.925   0.373  0.0288  0.3367 -0.1513
 5458TIP3    H138009   6.126   2.936   0.290 -0.0636 -0.7554 -0.3694
 5458TIP3    H238010   6.034   2.842   0.363 -2.2645  1.5203 -0.0553
 5459TIP3   OH238011   0.289   2.380   8.044  0.5834  0.2795 -0.3337
 5459TIP3    H138012   0.256   2.447   7.984 -1.6379 -0.7390 -0.3667
 5459TIP3    H238013   0.245   2.299   8.016  3.7353 -1.4441 -0.7890
 5460TIP3   OH238014   1.276   0.476   8.752  0.0905 -0.0301  0.1123
 5460TIP3    H138015   1.187   0.508   8.739 -0.3581 -1.3382 -0.1824
 5460TIP3    H238016   1.311   0.462   8.664  0.7139  0.7422  0.2172
 5461TIP3   OH238017   3.211   3.635   7.397 -0.2013 -0.2900  0.5921
 5461TIP3    H138018   3.171   3.569   7.453 -0.1474 -0.7521  0.1038
 5461TIP3    H238019   3.138   3.688   7.365 -0.2871 -0.3428  0.7022
 5462TIP3   OH238020   1.007   5.246   1.531  0.1825  0.3894 -0.0027
 5462TIP3    H138021   1.027   5.291   1.449  0.8965  0.0855 -0.0023
 5462TIP3    H238022   0.944   5.303   1.575 -2.0497 -0.5394 -1.7752
 5463TIP3   OH238023   4.479   1.392   0.896 -0.3080  0.0133 -0.1947
 5463TIP3    H138024   4.564   1.350   0.879  0.8185  1.9311  0.3712
 5463TIP3    H238025   4.447   1.351   0.976 -1.2095 -2.5314 -1.7364
 5464TIP3   OH238026   2.521   1.549   0.459 -0.1146 -0.1279 -0.1615
 5464TIP3    H138027   2.579   1.533   0.384  1.0548  0.8658  0.4893
 5464TIP3    H238028   2.539   1.639   0.485 -1.1017 -0.1836  0.8139
 5465TIP3   OH238029   4.106   1.831   2.849 -0.3750 -0.6623 -0.0918
 5465TIP3    H138030   4.050   1.903   2.819 -2.6658 -2.7392 -1.1463
 5465TIP3    H238031   4.133   1.788   2.768  1.5065 -0.6455  0.4996
 5466TIP3   OH238032   0.546   1.801   0.654  0.7094  0.3172  0.2748
 5466TIP3    H138033   0.468   1.857   0.659 -0.4711 -1.2253 -0.2504
 5466TIP3    H238034   0.619   1.863   0.659 -0.4608  1.6924  2.7458
 5467TIP3   OH238035   3.225   0.773   8.465 -0.2906  0.0391  0.5572
 5467TIP3    H138036   3.277   0.755   8.543  1.1235  2.2379  0.2037
 5467TIP3    H238037   3.144   0.812   8.498 -0.3952 -0.5471  0.9915
 5468TIP3   OH238038   5.418   4.719   7.950  0.0329 -0.8223  0.1610
 5468TIP3    H138039   5.334   4.758   7.925  0.4884  0.6600  0.8000
 5468TIP3    H238040   5.402   4.625   7.952 -0.5077 -0.9702 -3.7820
 5469TIP3   OH238041   0.837   2.407   2.873 -0.2562 -0.0044 -0.5289
 5469TIP3    H138042   0.849   2.314   2.857 -1.0341 -0.0439 -0.9285
 5469TIP3    H238043   0.883   2.450   2.801  0.9601 -0.0367  0.1957
 5470TIP3   OH238044   4.449   3.708   1.211  0.2827  0.2048  0.2482
 5470TIP3    H138045   4.422   3.633   1.264  2.7630  0.0523  1.4604
 5470TIP3    H238046   4.368   3.744   1.175 -1.0497 -2.4415  0.4451
 5471TIP3   OH238047   0.664   0.844   7.493 -0.0806  0.4249  0.3066
 5471TIP3    H138048   0.571   0.820   7.495 -0.3625  1.4111 -0.2599
 5471TIP3    H238049   0.675   0.902   7.568  0.1634  0.0539  0.5624
 5472TIP3   OH238050   4.434   3.911   1.672  0.1068  0.2978 -0.6026
 5472TIP3    H138051   4.403   3.864   1.595 -0.6968 -1.4293  0.7237
 5472TIP3    H238052   4.463   3.843   1.732  1.1138  1.6228  0.4906
 5473TIP3   OH238053   4.523   3.585   8.519  0.5435  0.1552  0.2130
 5473TIP3    H138054   4.489   3.506   8.476  3.1083 -0.6022 -0.6447
 5473TIP3    H238055   4.544   3.557   8.608  2.5277 -0.5578 -0.4153
 5474TIP3   OH238056   3.311   0.810   7.370 -0.0668 -0.0244 -0.4557
 5474TIP3    H138057   3.346   0.897   7.348  0.9306  0.4921  2.6329
 5474TIP3    H238058   3.313   0.762   7.288  0.9304  2.3568 -1.9342
 5475TIP3   OH238059   4.258   0.613   7.972 -0.5385  0.3231 -0.4460
 5475TIP3    H138060   4.307   0.601   7.890  0.1309  0.7745 -0.1135
 5475TIP3    H238061   4.199   0.537   7.975 -0.8692  0.5114 -1.5479
 5476TIP3   OH238062   0.164   6.727   1.945 -0.0725  0.1368 -0.5794
 5476TIP3    H138063   0.072   6.741   1.966 -0.7992 -0.9344 -2.7610
 5476TIP3    H238064   0.211   6.759   2.022 -2.3177 -0.8357  1.3385
 5477TIP3   OH238065   0.079   5.177   0.285  0.1571 -0.1780 -0.1266
 5477TIP3    H138066   0.035   5.102   0.326  0.0561  0.0728  0.2292
 5477TIP3    H238067   0.172   5.155   0.286 -0.0185 -1.0270 -1.5281
 5478TIP3   OH238068   6.672   1.854   1.738  0.7077  0.3241 -0.3061
 5478TIP3    H138069   6.607   1.916   1.770  0.7853  1.4390 -2.1410
 5478TIP3    H238070   6.755   1.885   1.774  0.3514 -0.7711  1.5751
 5479TIP3   OH238071   0.984   0.219   0.423 -0.1432  0.1452  0.0059
 5479TIP3    H138072   0.891   0.219   0.448 -0.3021  0.4286 -0.5570
 5479TIP3    H238073   1.029   0.176   0.496 -0.5700  1.0669  0.8362
 5480TIP3   OH238074   3.151   1.990   2.601  0.1410  0.8671  0.4406
 5480TIP3    H138075   3.061   2.014   2.582  0.2144  0.1949 -0.9395
 5480TIP3    H238076   3.177   2.047   2.673 -1.6195  0.5215  1.4018
 5481TIP3   OH238077   1.808   3.348   0.379  0.1741  0.2240 -0.3371
 5481TIP3    H138078   1.817   3.282   0.310  1.4178  0.2197 -0.1980
 5481TIP3    H238079   1.774   3.425   0.334  0.7019  0.1293 -0.9122
 5482TIP3   OH238080   4.669   2.230   2.445 -0.3127  0.0527 -0.0798
 5482TIP3    H138081   4.732   2.204   2.377  0.4275  0.2268  0.5188
 5482TIP3    H238082   4.721   2.282   2.506 -1.2037  0.7862  0.0759
 5483TIP3   OH238083   6.681   1.436   0.159  0.1524 -0.0406  0.4701
 5483TIP3    H138084   6.721   1.523   0.154  0.8801 -0.4183 -0.6541
 5483TIP3    H238085   6.696   1.398   0.072  0.4099 -1.5391  1.1438
 5484TIP3   OH238086   3.096   1.280   1.188 -0.3129 -0.1680  0.1704
 5484TIP3    H138087   3.063   1.192   1.169 -0.8373  0.1440 -0.4083
 5484TIP3    H238088   3.159   1.298   1.118 -1.0479  0.3522 -0.3714
 5485TIP3   OH238089   1.177   4.030   1.825 -0.3967 -0.3165  0.7383
 5485TIP3    H138090   1.214   3.972   1.759  1.3521  0.5505  0.8910
 5485TIP3    H238091   1.113   4.083   1.776 -0.6268 -1.0716  0.2025
 5486TIP3   OH238092   6.353   3.729   0.879 -0.1453  0.1307 -0.1628
 5486TIP3    H138093   6.312   3.713   0.963  0.0341 -3.3378 -0.6014
 5486TIP3    H238094   6.280   3.742   0.818 -0.4680 -1.3766 -0.1276
 5487TIP3   OH238095   4.093   5.492   1.938  0.1206  0.0918 -0.2471
 5487TIP3    H138096   4.153   5.544   1.885 -1.1645  0.2917 -1.5916
 5487TIP3    H238097   4.149   5.431   1.985  1.3384 -0.1133 -1.8758
 5488TIP3   OH238098   5.100   5.476   1.284  0.5917  0.1222  0.5929
 5488TIP3    H138099   5.163   5.413   1.251 -0.5223 -0.7092 -0.0422
 5488TIP3    H238100   5.118   5.556   1.236  0.7768 -0.2888 -0.0322
 5489TIP3   OH238101   2.037   3.247   0.531 -0.1136 -0.6151  0.4142
 5489TIP3    H138102   2.025   3.216   0.621  0.1558  0.5852  0.8843
 5489TIP3    H238103   1.964   3.308   0.518  1.6593  1.8045  1.0409
 5490TIP3   OH238104   2.205   0.308   1.467  0.0074  0.3487  0.3898
 5490TIP3    H138105   2.277   0.290   1.407 -0.4428  0.6889 -0.2614
 5490TIP3    H238106   2.131   0.331   1.411 -1.0224 -1.3470  0.9688
 5491TIP3   OH238107   1.662   2.615   8.612  0.2092  0.4274  0.5945
 5491TIP3    H138108   1.740   2.629   8.666 -0.0330  2.2914  0.5311
 5491TIP3    H238109   1.682   2.536   8.561  2.9800  1.9523 -0.9773
 5492TIP3   OH238110   0.536   0.724   8.548  0.1652  0.5699  0.2071
 5492TIP3    H138111   0.461   0.698   8.602 -0.6824 -1.1993 -1.6742
 5492TIP3    H238112   0.498   0.745   8.462  1.8190 -1.1738 -1.0420
 5493TIP3   OH238113   0.306   0.236   8.156 -0.0292  0.0029 -0.2512
 5493TIP3    H138114   0.243   0.255   8.086  0.5534  3.3916 -0.0492
 5493TIP3    H238115   0.357   0.162   8.124 -2.1765 -0.9060 -1.7246
 5494TIP3   OH238116   3.066   0.608   8.052 -0.2467 -0.2688  1.2431
 5494TIP3    H138117   3.044   0.639   7.965  0.2085 -1.0682  0.8317
 5494TIP3    H238118   2.998   0.544   8.073  0.1681 -0.7862  1.0615
 5495TIP3   OH238119   0.250   1.614   8.582  0.3106  0.1782  0.2816
 5495TIP3    H138120   0.158   1.590   8.578  0.2886 -0.0534  1.5891
 5495TIP3    H238121   0.297   1.542   8.540  0.0617 -1.0013  1.9235
 5496TIP3   OH238122   3.526   1.441   8.533  0.1542  0.1428  0.4606
 5496TIP3    H138123   3.585   1.479   8.598 -0.0440 -1.6172  1.7551
 5496TIP3    H238124   3.581   1.384   8.480 -0.0653 -0.1573  0.5483
 5497TIP3   OH238125   2.753   3.614   1.752 -0.1374  0.5484 -0.5071
 5497TIP3    H138126   2.727   3.703   1.727  0.6435  0.3328 -2.2391
 5497TIP3    H238127   2.761   3.617   1.847  0.5685  2.5277 -0.5847
 5498TIP3   OH238128   5.033   3.031   1.447 -0.1809 -0.0358 -0.1881
 5498TIP3    H138129   4.998   2.956   1.497 -0.7926 -0.5645 -1.3723
 5498TIP3    H238130   5.125   3.009   1.432  0.2224  0.4866  1.3295
 5499TIP3   OH238131   1.908   2.502   0.462  0.0431 -0.0745  0.0069
 5499TIP3    H138132   1.902   2.577   0.521  1.1299  1.4200 -1.6754
 5499TIP3    H238133   1.995   2.464   0.481 -0.8391 -1.5346  1.4628
 5500TIP3   OH238134   1.034   6.751   7.410  0.2816  0.2255  0.5035
 5500TIP3    H138135   0.953   6.802   7.417 -0.2180 -0.4983  0.1402
 5500TIP3    H238136   1.075   6.759   7.496 -0.0017  0.8863  0.5811
 5501TIP3   OH238137   3.246   2.455   1.788 -0.8808 -0.1901 -0.2448
 5501TIP3    H138138   3.166   2.506   1.801  0.4591  2.0123 -0.1824
 5501TIP3    H238139   3.316   2.520   1.784  0.8353 -1.9784 -1.1471
 5502TIP3   OH238140   6.632   5.102   2.825 -0.0508 -0.7495  0.3329
 5502TIP3    H138141   6.636   5.133   2.735 -2.1136  1.2864  0.8407
 5502TIP3    H238142   6.719   5.121   2.861 -0.5142  2.5811 -0.0418
 5503TIP3   OH238143   4.176   3.743   1.049  0.6969  0.0331 -0.3107
 5503TIP3    H138144   4.159   3.667   0.992  0.6499  0.8206 -1.3924
 5503TIP3    H238145   4.102   3.744   1.110  0.3122 -0.3703 -0.7584
 5504TIP3   OH238146   6.515   0.579   1.706  0.3762 -0.2982  0.0115
 5504TIP3    H138147   6.590   0.635   1.687  0.3555 -0.4423 -0.5036
 5504TIP3    H238148   6.551   0.491   1.710  0.0295 -0.5501 -1.6619
 5505TIP3   OH238149   2.125   5.328   7.463  0.1762  0.0818  0.1576
 5505TIP3    H138150   2.116   5.246   7.415 -2.8196  1.2534 -1.5023
 5505TIP3    H238151   2.161   5.389   7.399 -1.3333  1.0074  0.1625
 5506TIP3   OH238152   6.679   5.400   2.231  0.0366  0.0632  1.0585
 5506TIP3    H138153   6.667   5.305   2.240  1.0022 -0.2620 -0.6373
 5506TIP3    H238154   6.594   5.431   2.199  0.6099 -0.7840 -1.5924
 5507TIP3   OH238155   5.567   4.478   2.690  0.0733 -0.2822 -0.1037
 5507TIP3    H138156   5.623   4.404   2.715 -1.7118 -1.6484  0.0440
 5507TIP3    H238157   5.570   4.536   2.766  1.6628 -0.0691 -0.2982
 5508TIP3   OH238158   4.084   3.446   3.457  0.4707  0.0914 -0.3735
 5508TIP3    H138159   4.011   3.505   3.438 -0.3114 -0.9517 -0.7259
 5508TIP3    H238160   4.049   3.384   3.520  1.3085  0.0517  0.0674
 5509TIP3   OH238161   1.668   6.213   0.041 -0.0340  0.0614 -0.0459
 5509TIP3    H138162   1.661   6.223  -0.054 -1.9618 -0.1964  0.0163
 5509TIP3    H238163   1.749   6.165   0.055  2.2870  3.2962 -1.2599
 5510TIP3   OH238164   0.555   4.451   1.659  0.2814  0.2812  0.2041
 5510TIP3    H138165   0.551   4.447   1.563 -0.7854 -1.2245  0.2793
 5510TIP3    H238166   0.498   4.523   1.682  0.9743  1.0129 -0.3014
 5511TIP3   OH238167   0.420   0.707   7.780  0.2551  0.3052  0.4163
 5511TIP3    H138168   0.434   0.769   7.709  1.5023 -1.2703 -0.7965
 5511TIP3    H238169   0.388   0.628   7.738  0.5766 -0.5222  1.6537
 5512TIP3   OH238170   4.267   5.791   8.505  0.0269  0.3424  0.1709
 5512TIP3    H138171   4.326   5.752   8.569  1.1430 -0.3616 -1.2256
 5512TIP3    H238172   4.185   5.804   8.553  0.5082 -1.0657  1.4711
 5513TIP3   OH238173   3.730   2.950   7.318  0.2614 -0.3581  0.8862
 5513TIP3    H138174   3.741   2.941   7.224  4.0987 -0.1999  1.1731
 5513TIP3    H238175   3.727   2.860   7.351  0.4587 -0.4189  0.7371
 5514TIP3   OH238176   1.227   1.588   2.646 -0.2508 -0.2387 -0.0070
 5514TIP3    H138177   1.182   1.611   2.565 -0.6422  2.6670  0.9253
 5514TIP3    H238178   1.279   1.665   2.668 -1.3107 -0.2859  3.2302
 5515TIP3   OH238179   5.416   1.070   2.473 -0.5381 -0.0338  0.0137
 5515TIP3    H138180   5.446   1.070   2.382  0.6090  1.0053  0.3545
 5515TIP3    H238181   5.408   1.163   2.495 -1.5332 -0.2770  0.7603
 5516TIP3   OH238182   3.899   1.619   2.574  0.1217 -0.2154  0.5709
 5516TIP3    H138183   3.917   1.533   2.536  0.5920  0.7026 -1.4531
 5516TIP3    H238184   3.916   1.609   2.667  1.3892 -1.9938  0.1955
 5517TIP3   OH238185   6.120   3.330   8.515  0.3676 -0.4024 -0.0967
 5517TIP3    H138186   6.076   3.410   8.545  0.0916 -0.5425 -0.1273
 5517TIP3    H238187   6.204   3.330   8.562  0.6627  0.2535 -0.5949
 5518TIP3   OH238188   3.214   5.764   1.856  0.1063 -0.0835 -0.1952
 5518TIP3    H138189   3.239   5.793   1.944  0.0353  0.4590 -0.3501
 5518TIP3    H238190   3.196   5.845   1.808 -0.0242 -0.3826 -0.6604
 5519TIP3   OH238191   2.835   2.164   2.145 -0.0032 -0.5273 -0.5678
 5519TIP3    H138192   2.743   2.141   2.157 -0.2733  0.2938 -0.9553
 5519TIP3    H238193   2.883   2.086   2.173 -0.7129 -0.1602  1.9916
 5520TIP3   OH238194   1.962   3.613   0.859 -0.2370  0.4221  0.5772
 5520TIP3    H138195   1.895   3.563   0.906 -0.2292  0.4497  0.6182
 5520TIP3    H238196   2.041   3.559   0.866 -0.6851 -0.4889 -1.0473
 5521TIP3   OH238197   6.738   0.185   2.276 -0.1524  0.0946 -0.5808
 5521TIP3    H138198   6.792   0.248   2.230  1.2014  0.0559  0.8635
 5521TIP3    H238199   6.792   0.156   2.350 -0.4736 -3.1965 -1.4915
 5522TIP3   OH238200   6.738   1.223   1.933 -0.4516 -0.0323 -0.2639
 5522TIP3    H138201   6.703   1.279   1.864 -1.2442 -1.0962 -0.7575
 5522TIP3    H238202   6.671   1.226   2.002  0.9745  2.1651  1.1487
 5523TIP3   OH238203   4.669   3.659   0.828 -0.1124 -0.6349  0.0214
 5523TIP3    H138204   4.593   3.717   0.838 -1.0843 -1.6640 -1.1160
 5523TIP3    H238205   4.739   3.716   0.796 -0.4264  0.2941  0.9100
 5524TIP3   OH238206   3.509   1.949   0.335  0.3689  0.3880 -0.5568
 5524TIP3    H138207   3.546   1.913   0.416 -0.0687 -1.1240 -0.9902
 5524TIP3    H238208   3.573   1.926   0.268 -0.9625 -1.7298 -1.2164
 5525TIP3   OH238209   1.397   1.103   8.510 -0.5924  0.5521 -0.1038
 5525TIP3    H138210   1.371   1.101   8.602  2.1615  3.5609  0.9156
 5525TIP3    H238211   1.317   1.128   8.463 -1.4861  1.5437  1.8376
 5526TIP3   OH238212   1.070   5.174   7.815  0.1775  0.0249  0.3364
 5526TIP3    H138213   1.088   5.233   7.742 -1.3703 -0.2587 -0.3054
 5526TIP3    H238214   1.039   5.231   7.885 -1.1966  0.0227 -0.2416
 5527TIP3   OH238215   2.523   6.195   1.870 -0.7585 -0.1184 -0.0392
 5527TIP3    H138216   2.538   6.277   1.824 -1.9748  0.2974  0.2900
 5527TIP3    H238217   2.472   6.142   1.809 -0.4457 -0.4272 -0.0374
 5528TIP3   OH238218   5.409   2.181   3.204 -0.0231 -0.2455 -0.4358
 5528TIP3    H138219   5.367   2.228   3.276  0.6057 -1.0169  0.4433
 5528TIP3    H238220   5.336   2.154   3.148 -0.3759  2.3868 -1.3847
 5529TIP3   OH238221   3.589   0.261   1.826 -0.6036  0.1833 -0.7443
 5529TIP3    H138222   3.510   0.250   1.772 -1.3989 -0.1863  0.4465
 5529TIP3    H238223   3.649   0.194   1.795 -1.4306 -0.6902 -0.5254
 5530TIP3   OH238224   5.307   6.600   1.208 -0.1640  0.1025  0.0162
 5530TIP3    H138225   5.252   6.580   1.284 -0.0995 -0.3323 -0.0494
 5530TIP3    H238226   5.396   6.599   1.242 -0.1451  0.0476 -0.0341
 5531TIP3   OH238227   2.785   4.768   8.553  0.1034  0.6097  0.1809
 5531TIP3    H138228   2.826   4.853   8.568 -1.1435  1.1943  0.4030
 5531TIP3    H238229   2.826   4.710   8.616  1.1189  0.9822 -0.1102
 5532TIP3   OH238230   4.343   0.539   2.286 -0.7684  0.6291 -0.2475
 5532TIP3    H138231   4.262   0.585   2.264 -1.1798 -0.4467 -1.1170
 5532TIP3    H238232   4.393   0.601   2.338 -1.3708  1.9768 -1.2250
 5533TIP3   OH238233   2.440   5.181   0.275 -0.2685  0.1057  0.1793
 5533TIP3    H138234   2.533   5.164   0.264 -0.0597  0.8421  0.7669
 5533TIP3    H238235   2.423   5.163   0.368 -0.6220  0.4086  0.1751
 5534TIP3   OH238236   4.747   5.660   0.003  0.2861 -0.4500  0.6097
 5534TIP3    H138237   4.704   5.689   0.083 -1.3084  0.2019 -0.4159
 5534TIP3    H238238   4.675   5.635  -0.055  1.0574  2.3126 -1.8147
 5535TIP3   OH238239   2.633   4.949   1.288  0.4036 -0.2474 -0.7030
 5535TIP3    H138240   2.546   4.974   1.318  0.8273  0.7399 -0.2607
 5535TIP3    H238241   2.675   5.032   1.264  1.4519 -0.6354 -0.2796
 5536TIP3   OH238242   4.128   6.239   1.353 -0.0613  0.1075 -0.1260
 5536TIP3    H138243   4.076   6.306   1.398 -1.4342 -1.3297  0.5294
 5536TIP3    H238244   4.212   6.239   1.400  0.2381  1.8079 -0.5885
 5537TIP3   OH238245   0.609   6.678   0.850  0.4738  0.3740  0.0261
 5537TIP3    H138246   0.663   6.605   0.819 -0.8241 -0.5952 -0.0164
 5537TIP3    H238247   0.549   6.697   0.778 -0.6977 -0.0409  0.8542
 5538TIP3   OH238248   0.189   3.144   1.441 -0.2763 -0.2821  0.5080
 5538TIP3    H138249   0.269   3.140   1.389  0.3485 -0.8513  1.4810
 5538TIP3    H238250   0.212   3.202   1.514 -0.8539 -0.2134  0.6355
 5539TIP3   OH238251   4.181   6.022   0.343  0.2747  0.0280 -0.0814
 5539TIP3    H138252   4.237   6.013   0.266  0.5947  0.0550  0.1442
 5539TIP3    H238253   4.104   6.069   0.312 -0.3072 -1.3056 -0.7320
 5540TIP3   OH238254   4.311   4.550   8.693 -0.2541  0.3314  0.5112
 5540TIP3    H138255   4.332   4.632   8.738 -0.3027  0.0639  1.0305
 5540TIP3    H238256   4.256   4.502   8.754 -2.4944  1.0343 -0.8629
 5541TIP3   OH238257   5.491   2.983   8.543  0.0196  0.4696  0.2211
 5541TIP3    H138258   5.450   3.048   8.486 -0.5975 -2.3730 -2.9226
 5541TIP3    H238259   5.422   2.959   8.604 -1.1445 -0.0515 -1.2268
 5542TIP3   OH238260   1.232   0.229   2.680 -0.2332 -0.0283 -0.2770
 5542TIP3    H138261   1.226   0.324   2.669  0.5498  0.0799  0.1486
 5542TIP3    H238262   1.146   0.196   2.653 -0.8092  0.8763  0.3887
 5543TIP3   OH238263   0.745   3.786   2.906 -0.4534 -0.0663 -0.0349
 5543TIP3    H138264   0.835   3.772   2.877 -0.7365  1.3299 -1.7364
 5543TIP3    H238265   0.750   3.788   3.001  1.6104  1.7092 -0.1265
 5544TIP3   OH238266   5.416   0.374   8.564  0.8761  0.0913  0.4356
 5544TIP3    H138267   5.492   0.427   8.587  0.4774  0.5478  0.7309
 5544TIP3    H238268   5.451   0.288   8.544  1.4444  0.2286  0.8250
 5545TIP3   OH238269   1.736   4.547   2.432  0.0926  0.5278  0.0080
 5545TIP3    H138270   1.748   4.625   2.485  0.4583 -0.6578  1.7624
 5545TIP3    H238271   1.703   4.481   2.493 -0.1854 -0.7091 -1.4112
 5546TIP3   OH238272   2.733   5.917   8.738  0.7157  0.2523 -0.2405
 5546TIP3    H138273   2.736   5.981   8.809  1.1012  0.1730 -0.1851
 5546TIP3    H238274   2.718   5.833   8.781  2.0049  0.0551 -0.1566
 5547TIP3   OH238275   2.912   2.893   8.733 -0.6652 -0.3603 -0.4728
 5547TIP3    H138276   2.944   2.805   8.712 -1.9234 -1.1734  0.8585
 5547TIP3    H238277   2.992   2.943   8.751  0.0285 -1.5414 -0.1190
 5548TIP3   OH238278   0.813   0.272   0.013  0.4061  0.1898 -0.1256
 5548TIP3    H138279   0.788   0.200  -0.046  2.7629  0.8354 -2.1123
 5548TIP3    H238280   0.885   0.237   0.064 -0.1352  0.3693  0.7799
 5549TIP3   OH238281   6.642   4.130   8.452 -0.6514 -0.9655 -0.4915
 5549TIP3    H138282   6.549   4.113   8.467 -1.0934  1.1619 -0.4341
 5549TIP3    H238283   6.643   4.197   8.383  0.6646  0.8766  1.1892
 5550TIP3   OH238284   5.498   2.592   8.038  0.2401 -0.4694  0.1000
 5550TIP3    H138285   5.480   2.629   7.951  0.7145  1.2109  0.6856
 5550TIP3    H238286   5.439   2.638   8.097  1.0246 -0.4420  0.8871
 5551TIP3   OH238287   6.833   3.381   2.018  0.3532  0.0318  0.2718
 5551TIP3    H138288   6.780   3.412   1.944  1.5046  0.6142 -0.3255
 5551TIP3    H238289   6.777   3.315   2.060 -0.4144 -0.1709 -0.9910
 5552TIP3   OH238290   0.204   5.832   0.364  0.4296 -0.1029  0.2376
 5552TIP3    H138291   0.123   5.834   0.313  0.9870 -0.7443 -0.7214
 5552TIP3    H238292   0.268   5.878   0.309  1.3754 -1.9422 -0.3316
 5553TIP3   OH238293   3.251   6.073   7.640  0.6202  0.1717  0.2229
 5553TIP3    H138294   3.170   6.055   7.687  1.2627  0.4870  1.4847
 5553TIP3    H238295   3.224   6.124   7.564 -0.2213  1.5427  1.3985
 5554TIP3   OH238296   1.054   5.723   1.764 -0.3469  0.0051 -0.3119
 5554TIP3    H138297   1.089   5.761   1.845 -1.1576  1.5264 -0.6435
 5554TIP3    H238298   0.965   5.757   1.757 -0.9106 -1.5024 -0.9737
 5555TIP3   OH238299   0.115   1.863   2.009  0.0163 -0.3631  0.0784
 5555TIP3    H138300   0.124   1.802   1.935  2.4878  0.2029 -0.1889
 5555TIP3    H238301   0.123   1.950   1.969  0.5648 -0.0284  0.8973
 5556TIP3   OH238302   5.774   6.146   0.819  0.6069 -0.1507 -0.2150
 5556TIP3    H138303   5.830   6.138   0.741 -0.1587 -0.3911 -0.7485
 5556TIP3    H238304   5.741   6.235   0.815 -0.0226 -0.3918 -0.5839
 5557TIP3   OH238305   2.669   1.924   8.609 -0.1206  0.1444 -0.0030
 5557TIP3    H138306   2.595   1.941   8.551  0.3100  1.4195 -0.2141
 5557TIP3    H238307   2.634   1.870   8.679 -0.8266 -0.8007 -1.0503
 5558TIP3   OH238308   0.818   5.000   0.948 -0.2490 -0.0270  0.4476
 5558TIP3    H138309   0.811   5.054   0.869 -4.8373 -0.2970  0.4439
 5558TIP3    H238310   0.803   5.061   1.020 -2.6725 -0.7130  0.6035
 5559TIP3   OH238311   4.705   1.902   8.316  0.6179 -0.5052 -0.0218
 5559TIP3    H138312   4.785   1.949   8.293  2.4447 -1.7887  3.1059
 5559TIP3    H238313   4.693   1.840   8.245  1.2234  0.9965 -1.5168
 5560TIP3   OH238314   2.386   1.364   7.351  0.1568 -0.1213 -0.5859
 5560TIP3    H138315   2.477   1.342   7.368 -0.3100 -0.8976  1.0834
 5560TIP3    H238316   2.389   1.415   7.270  2.3570  1.9848  0.6804
 5561TIP3   OH238317   0.722   1.208   1.085  0.4973 -0.1547 -1.0043
 5561TIP3    H138318   0.656   1.202   1.154  0.8184  0.0633 -0.6725
 5561TIP3    H238319   0.713   1.297   1.051  0.4506 -0.2076 -1.1311
 5562TIP3   OH238320   6.062   4.519   1.278 -0.2182  0.2596  0.5944
 5562TIP3    H138321   5.969   4.538   1.290 -0.3717 -0.7012  1.0284
 5562TIP3    H238322   6.077   4.441   1.331  0.8645  0.4734  0.6165
 5563TIP3   OH238323   4.322   1.455   1.833  0.1842  0.2597 -0.0153
 5563TIP3    H138324   4.267   1.456   1.911 -2.8402 -1.7488 -1.9065
 5563TIP3    H238325   4.322   1.546   1.803 -1.5977  0.4267  0.4099
 5564TIP3   OH238326   5.449   5.750   1.555  0.1104 -0.6741  0.1391
 5564TIP3    H138327   5.363   5.752   1.596 -0.1054  0.3988 -0.3187
 5564TIP3    H238328   5.431   5.756   1.461  0.6628 -1.0969  0.0009
 5565TIP3   OH238329   0.974   2.681   0.105  0.0747  0.1882 -0.2238
 5565TIP3    H138330   0.953   2.588   0.093  0.3564  0.0839  0.0933
 5565TIP3    H238331   0.904   2.714   0.162 -1.1466  0.6355 -1.8934
 5566TIP3   OH238332   4.145   3.314   3.086  0.5390 -0.6713 -0.6498
 5566TIP3    H138333   4.093   3.393   3.098 -1.5025 -2.0754  0.3113
 5566TIP3    H238334   4.199   3.308   3.165  0.1263 -0.6380 -0.3635
 5567TIP3   OH238335   1.285   5.241   3.053 -0.7603  0.5974  0.3655
 5567TIP3    H138336   1.286   5.196   3.138 -0.4502 -0.2443 -0.0664
 5567TIP3    H238337   1.371   5.281   3.046 -0.2679 -0.4932 -0.1286
 5568TIP3   OH238338   3.181   1.603   0.331 -0.7165 -0.5678  0.1257
 5568TIP3    H138339   3.147   1.630   0.416  3.0176  1.0797  1.3100
 5568TIP3    H238340   3.237   1.528   0.350 -0.6774 -0.8580 -1.0667
 5569TIP3   OH238341   0.774   1.583   2.540  0.6623 -0.9108  0.1849
 5569TIP3    H138342   0.806   1.623   2.459 -0.2147  2.1294  1.1994
 5569TIP3    H238343   0.679   1.583   2.531  0.4610  1.0541  1.8307
 5570TIP3   OH238344   4.425   6.645   0.716  0.1463  0.4221  0.0871
 5570TIP3    H138345   4.518   6.630   0.730 -0.3746 -1.5720  1.8546
 5570TIP3    H238346   4.396   6.693   0.794 -0.3621  0.8923 -0.3722
 5571TIP3   OH238347   1.527   4.242   2.535  0.0190  0.0113 -0.1377
 5571TIP3    H138348   1.444   4.288   2.545  0.5385  1.2886 -1.3101
 5571TIP3    H238349   1.576   4.263   2.615 -0.3666  0.1812  0.0574
 5572TIP3   OH238350   4.774   6.151   3.171 -0.2057  0.0314 -0.2566
 5572TIP3    H138351   4.856   6.200   3.172 -0.3472  0.4572 -2.8084
 5572TIP3    H238352   4.793   6.074   3.116 -0.9716 -0.9422  0.7916
 5573TIP3   OH238353   0.730   6.448   1.965 -0.5272  0.4982 -0.0565
 5573TIP3    H138354   0.752   6.413   2.051 -0.3108  0.7322 -0.0158
 5573TIP3    H238355   0.814   6.470   1.925 -0.6044  0.0673 -0.4672
 5574TIP3   OH238356   5.271   1.269   8.536 -0.5031  0.0690 -0.1404
 5574TIP3    H138357   5.329   1.236   8.468 -0.2817  1.2247 -0.5392
 5574TIP3    H238358   5.304   1.357   8.555 -1.9246  0.6335 -0.1381
 5575TIP3   OH238359   4.411   6.097   8.656  0.7647  0.1803  0.2449
 5575TIP3    H138360   4.376   6.155   8.588 -0.5077 -1.6280 -0.7024
 5575TIP3    H238361   4.453   6.026   8.608  0.0194 -1.0355  1.3368
 5576TIP3   OH238362   5.184   5.840   1.464  0.2303  0.1248 -0.0094
 5576TIP3    H138363   5.115   5.851   1.399  0.4971  0.7652 -0.1927
 5576TIP3    H238364   5.255   5.796   1.417  0.0881 -0.1970  0.0792
 5577TIP3   OH238365   4.551   5.461   8.638 -0.1515 -0.1615  0.5073
 5577TIP3    H138366   4.547   5.408   8.718  0.1970 -0.5193  0.2849
 5577TIP3    H238367   4.575   5.400   8.569  1.0583  0.4250  0.3810
 5578TIP3   OH238368   0.786   3.307   2.194  0.1202  1.1025 -0.0605
 5578TIP3    H138369   0.776   3.347   2.108 -4.3987  1.3129  0.3518
 5578TIP3    H238370   0.790   3.380   2.255 -1.4357  1.0073  0.1922
 5579TIP3   OH238371   1.874   2.638   1.008 -0.1466  0.5765 -0.0887
 5579TIP3    H138372   1.903   2.728   0.990  1.8099 -0.2138 -1.1953
 5579TIP3    H238373   1.789   2.648   1.050  0.9555  3.0491  1.8392
 5580TIP3   OH238374   4.652   2.417   0.897 -0.3646  0.3278  0.5849
 5580TIP3    H138375   4.565   2.445   0.867 -0.1801 -0.6188 -0.9314
 5580TIP3    H238376   4.674   2.479   0.967 -0.4899  3.1762 -1.7243
 5581TIP3   OH238377   4.666   2.587   8.340 -0.1037  0.4853  0.4634
 5581TIP3    H138378   4.673   2.671   8.295  0.6789  1.1331  1.7433
 5581TIP3    H238379   4.645   2.525   8.271 -0.0979  1.6247 -0.6045
 5582TIP3   OH238380   5.553   1.183   1.712  0.7383  0.4666  0.0422
 5582TIP3    H138381   5.485   1.245   1.739  0.2180 -0.1719  0.2296
 5582TIP3    H238382   5.504   1.111   1.672  1.3523  0.2870 -0.3937
 5583TIP3   OH238383   0.746   5.800   1.386  0.3221 -0.0482  0.2639
 5583TIP3    H138384   0.665   5.756   1.413  0.1195 -0.7540 -1.3614
 5583TIP3    H238385   0.747   5.792   1.290  2.1302  0.2769  0.2150
 5584TIP3   OH238386   5.559   3.581   2.218  0.3279  0.0314 -0.0353
 5584TIP3    H138387   5.479   3.534   2.239  0.8881 -0.6692  0.5992
 5584TIP3    H238388   5.540   3.673   2.239 -0.6305  0.0391 -0.8682
 5585TIP3   OH238389   4.905   4.554   2.487 -0.0466 -0.2676  0.0911
 5585TIP3    H138390   4.827   4.544   2.433 -0.0882  0.4115  0.0225
 5585TIP3    H238391   4.879   4.523   2.573 -0.6566  0.7829  0.2916
 5586TIP3   OH238392   4.595   2.264   2.108 -0.6423 -0.4906 -0.2654
 5586TIP3    H138393   4.668   2.325   2.095 -0.7671 -0.4715 -0.8872
 5586TIP3    H238394   4.578   2.228   2.021 -1.8612  0.0522 -0.2642
 5587TIP3   OH238395   3.325   1.510   8.749  0.0956 -0.0568  0.0886
 5587TIP3    H138396   3.373   1.515   8.831  1.6160 -1.3291 -0.6530
 5587TIP3    H238397   3.390   1.480   8.685 -0.8658  1.5244 -1.7402
 5588TIP3   OH238398   6.102   2.387   1.338 -0.3126 -0.0616 -0.4897
 5588TIP3    H138399   6.026   2.384   1.279 -1.2789 -3.2816  0.7385
 5588TIP3    H238400   6.067   2.364   1.424  1.8385 -0.1195  0.4314
 5589TIP3   OH238401   2.046   2.675   2.069 -0.0192 -0.0436  0.2009
 5589TIP3    H138402   2.133   2.639   2.089 -0.2909 -1.2442 -0.7176
 5589TIP3    H238403   2.052   2.767   2.096  1.9285  0.2085 -0.8839
 5590TIP3   OH238404   2.249   6.387   7.252  0.7230  0.0585  0.0426
 5590TIP3    H138405   2.307   6.320   7.288  0.0107 -1.2182 -1.0416
 5590TIP3    H238406   2.248   6.369   7.158 -0.6795  0.6332 -0.0777
 5591TIP3   OH238407   2.639   6.809   0.578 -0.1730 -0.2207 -0.5401
 5591TIP3    H138408   2.591   6.831   0.657  0.0476 -0.8652 -0.2165
 5591TIP3    H238409   2.729   6.838   0.595  0.0600 -1.0776 -0.2141
 5592TIP3   OH238410   2.232   2.251   1.409 -0.3663 -0.2284  0.0547
 5592TIP3    H138411   2.280   2.217   1.484 -0.0605  2.0231  0.9770
 5592TIP3    H238412   2.280   2.221   1.333  1.3686  0.2727  0.8994
 5593TIP3   OH238413   1.683   4.973   0.400 -0.2290 -0.3201  0.2671
 5593TIP3    H138414   1.657   5.000   0.313 -0.8187  0.8612  0.7899
 5593TIP3    H238415   1.766   5.018   0.416 -0.5737  0.1880  0.6524
 5594TIP3   OH238416   3.160   0.954   0.773 -0.2092  0.4189 -0.1592
 5594TIP3    H138417   3.243   0.907   0.761  0.4335  1.8928 -1.7868
 5594TIP3    H238418   3.184   1.034   0.819 -1.0642 -0.0305  1.1362
 5595TIP3   OH238419   0.010   3.649   2.523  0.4466  0.1097  0.1003
 5595TIP3    H138420  -0.041   3.727   2.540 -1.1736 -1.1290  1.1981
 5595TIP3    H238421   0.007   3.599   2.605 -0.6615 -2.2215 -1.2546
 5596TIP3   OH238422   4.059   5.123   7.824  0.1935 -0.5327  0.3068
 5596TIP3    H138423   4.024   5.212   7.831  0.0035 -0.5891  0.0971
 5596TIP3    H238424   4.031   5.094   7.737 -2.3983 -1.9391  1.5149
 5597TIP3   OH238425   4.846   3.319   8.578 -0.3873  0.3350  0.1482
 5597TIP3    H138426   4.895   3.265   8.516 -0.4260  0.4314  0.0324
 5597TIP3    H238427   4.759   3.279   8.581 -1.0370  1.4849 -1.4031
 5598TIP3   OH238428   2.210   5.698   2.005 -0.4151 -0.3773 -0.0052
 5598TIP3    H138429   2.182   5.713   1.914 -0.1523 -1.5126 -0.2982
 5598TIP3    H238430   2.299   5.733   2.009  0.1314 -1.6046 -0.6263
 5599TIP3   OH238431   3.787   3.802   7.628  0.7396 -0.6128 -0.0834
 5599TIP3    H138432   3.803   3.856   7.550 -2.8728  0.8330 -0.0254
 5599TIP3    H238433   3.727   3.734   7.598  0.0166 -0.5783  1.1813
 5600TIP3   OH238434   1.546   2.126   0.174  0.5454 -0.2724  0.0746
 5600TIP3    H138435   1.612   2.061   0.151 -1.7698 -2.8917  0.3709
 5600TIP3    H238436   1.506   2.150   0.090  1.3799  0.8500 -0.0330
 5601TIP3   OH238437   4.148   0.921   8.688 -0.2276 -0.1506 -0.0366
 5601TIP3    H138438   4.211   0.948   8.755 -0.0875 -1.7487  0.5273
 5601TIP3    H238439   4.146   0.825   8.695 -1.0604 -0.2725 -1.5640
 5602TIP3   OH238440   5.649   5.150   8.739 -0.9559 -0.5666 -0.5085
 5602TIP3    H138441   5.625   5.102   8.660 -0.1116  0.1754 -1.2342
 5602TIP3    H238442   5.699   5.086   8.791 -0.8883 -0.8390 -0.9026
 5603TIP3   OH238443   0.909   4.100   8.654 -0.5060  0.2323  0.9716
 5603TIP3    H138444   0.963   4.023   8.669  0.1828  0.5258  0.1129
 5603TIP3    H238445   0.829   4.084   8.704 -0.0656 -0.6977  1.3938
 5604TIP3   OH238446   4.213   1.625   2.699 -0.6643  0.0388  0.3730
 5604TIP3    H138447   4.294   1.582   2.726 -0.3780  0.7813  0.7195
 5604TIP3    H238448   4.224   1.639   2.605 -0.7582 -0.6271  0.2570
 5605TIP3   OH238449   2.582   0.928   0.435 -0.1424  0.0443  0.0152
 5605TIP3    H138450   2.583   0.955   0.343 -1.3067 -1.7921 -0.5771
 5605TIP3    H238451   2.666   0.959   0.469 -0.4588  2.4606 -1.1157
 5606TIP3   OH238452   1.341   2.756   0.893 -0.3186  0.1654 -0.2194
 5606TIP3    H138453   1.428   2.721   0.876 -0.3315 -0.5003  0.9926
 5606TIP3    H238454   1.284   2.678   0.895 -1.6473  0.7592 -4.5005
 5607TIP3   OH238455   2.029   6.262   8.090  0.1352  0.3280  0.0362
 5607TIP3    H138456   2.041   6.355   8.072  0.3724  0.3153  0.1270
 5607TIP3    H238457   2.002   6.225   8.006 -1.1815  0.6875  0.2701
 5608TIP3   OH238458   5.715   3.340   1.356 -0.4187 -0.2514  0.4007
 5608TIP3    H138459   5.623   3.333   1.381 -0.9511  1.2842 -0.9431
 5608TIP3    H238460   5.730   3.265   1.298 -1.1539  0.0940 -0.2539
 5609TIP3   OH238461   1.316   1.050   1.856 -0.2746 -0.2778 -0.9167
 5609TIP3    H138462   1.387   1.053   1.919  0.2131  0.5218 -1.4886
 5609TIP3    H238463   1.241   1.088   1.902 -0.3798 -1.2339 -0.2725
 5610TIP3   OH238464   2.221   6.368   8.400  0.0860 -0.0555  0.2821
 5610TIP3    H138465   2.286   6.351   8.333 -0.8795 -0.5982 -0.5483
 5610TIP3    H238466   2.205   6.283   8.441  1.2022  0.3950  1.7378
 5611TIP3   OH238467   0.101   2.983   0.191  0.2624 -0.2980  0.0085
 5611TIP3    H138468   0.082   2.901   0.144  0.8182  0.1621 -1.0567
 5611TIP3    H238469   0.188   3.008   0.161  1.0447 -0.4497  2.0236
 5612TIP3   OH238470   2.837   3.893   8.027 -0.8513 -0.4047 -0.0670
 5612TIP3    H138471   2.837   3.956   7.955 -0.3687 -1.3307 -0.9048
 5612TIP3    H238472   2.929   3.890   8.055 -1.1423  0.4085  1.0189
 5613TIP3   OH238473   1.878   3.500   2.769  0.3149  0.3606 -0.3322
 5613TIP3    H138474   1.873   3.571   2.833 -2.8863  0.0803 -0.1032
 5613TIP3    H238475   1.884   3.420   2.822  2.6565  0.2906 -0.5742
 5614TIP3   OH238476   4.998   2.688   8.265  0.2018 -0.3119  0.2562
 5614TIP3    H138477   4.967   2.627   8.331 -0.8088  2.2089  2.2836
 5614TIP3    H238478   4.919   2.712   8.215  0.7539 -1.3220 -1.1496
 5615TIP3   OH238479   4.850   3.491   1.260 -0.1002 -0.0398 -0.3839
 5615TIP3    H138480   4.923   3.431   1.269  0.9351  1.4117  1.8057
 5615TIP3    H238481   4.865   3.536   1.177  0.9317 -0.4895 -0.4521
 5616TIP3   OH238482   5.162   4.656   8.471 -0.2875 -0.1031 -0.2592
 5616TIP3    H138483   5.190   4.584   8.528  0.1963 -1.2499 -1.8497
 5616TIP3    H238484   5.211   4.732   8.503  1.6307 -1.1844 -0.4316
 5617TIP3   OH238485   4.569   3.535   0.358 -0.6455 -0.3284 -0.0838
 5617TIP3    H138486   4.585   3.445   0.385 -0.4306 -0.1762  0.3119
 5617TIP3    H238487   4.474   3.544   0.358 -0.6932  0.3458  3.0277
 5618TIP3   OH238488   1.107   2.616   1.148  0.2237  0.2839  0.2167
 5618TIP3    H138489   1.066   2.561   1.215  0.7850 -0.5776 -0.1270
 5618TIP3    H238490   1.193   2.638   1.184  0.6361 -0.4112 -0.3265
 5619TIP3   OH238491   2.489   6.526   2.583 -0.2303  0.3123  0.8880
 5619TIP3    H138492   2.443   6.462   2.529  1.6067 -1.7389  1.6057
 5619TIP3    H238493   2.469   6.501   2.673 -0.8983  1.8829  1.2075
 5620TIP3   OH238494   1.919   5.683   0.508  0.1198  0.4514 -0.0256
 5620TIP3    H138495   1.854   5.616   0.529 -1.0637  1.8477  1.0414
 5620TIP3    H238496   2.001   5.635   0.498 -0.8880 -1.2672 -0.4903
 5621TIP3   OH238497   6.011   2.555   0.912  0.0143  0.2036  0.2451
 5621TIP3    H138498   6.106   2.565   0.906 -0.1480  1.6120 -0.4217
 5621TIP3    H238499   5.996   2.509   0.994  1.4188 -3.0236 -1.1257
 5622TIP3   OH238500   0.619   6.653   8.092 -0.2376  0.3682 -0.6999
 5622TIP3    H138501   0.693   6.710   8.118 -0.1140 -0.2163  0.2817
 5622TIP3    H238502   0.613   6.589   8.162 -1.0582 -0.1998 -1.2777
 5623TIP3   OH238503   0.417   4.606   7.820 -0.5662 -0.2397 -0.2752
 5623TIP3    H138504   0.491   4.554   7.851  0.8691  0.7407 -1.8463
 5623TIP3    H238505   0.353   4.541   7.791  0.0154 -1.1169  0.3529
 5624TIP3   OH238506   2.020   3.720   8.462  0.0540 -0.2877  0.0431
 5624TIP3    H138507   2.028   3.670   8.544  0.4041  0.6072  0.5701
 5624TIP3    H238508   2.110   3.745   8.440  0.0358 -1.0274 -0.9595
 5625TIP3   OH238509   6.001   5.019   8.437 -0.1527  0.3822 -0.3642
 5625TIP3    H138510   5.915   4.989   8.467  1.5141 -0.6516  4.2759
 5625TIP3    H238511   6.029   4.952   8.375 -1.3600 -1.1336  0.6488
 5626TIP3   OH238512   4.325   1.978   7.825  0.0956  0.4571  0.0371
 5626TIP3    H138513   4.241   2.000   7.865 -0.5924 -1.2560 -0.3864
 5626TIP3    H238514   4.303   1.926   7.749  1.4910  1.6161 -1.2424
 5627TIP3   OH238515   3.520   1.029   1.943  0.4287  0.3927 -0.0685
 5627TIP3    H138516   3.563   1.031   1.857  1.4505  1.2987  0.4350
 5627TIP3    H238517   3.563   1.099   1.992 -0.8919  0.5968  0.8347
 5628TIP3   OH238518   3.813   3.019   2.806  0.4206  0.5927 -0.1328
 5628TIP3    H138519   3.755   3.091   2.829 -0.3618  0.1719 -0.7380
 5628TIP3    H238520   3.838   2.980   2.890  0.7134  1.4524  0.1867
 5629TIP3   OH238521   6.473   6.073   7.982 -0.0287  0.2792 -0.0766
 5629TIP3    H138522   6.422   5.992   7.970  1.6914 -0.9105  0.2392
 5629TIP3    H238523   6.508   6.091   7.895  1.8777 -0.9736  0.3689
 5630TIP3   OH238524   1.192   1.875   8.666  0.2150  0.2929 -0.0120
 5630TIP3    H138525   1.123   1.808   8.667 -1.6757  2.1369  0.3445
 5630TIP3    H238526   1.224   1.874   8.575 -0.2128 -0.6691 -0.1651
 5631TIP3   OH238527   5.955   0.087   2.286 -0.2934  0.0571 -0.0065
 5631TIP3    H138528   5.938   0.039   2.205  1.8745 -1.4331  0.3419
 5631TIP3    H238529   6.040   0.128   2.273 -0.1627  0.2526  1.3247
 5632TIP3   OH238530   3.052   0.264   1.618  0.0493  0.0980 -0.0535
 5632TIP3    H138531   3.000   0.278   1.697  1.1867  1.6787  0.4754
 5632TIP3    H238532   3.137   0.303   1.639  0.5887 -0.0573 -1.8298
 5633TIP3   OH238533   4.758   6.188   7.630  0.1028 -0.5317  0.2408
 5633TIP3    H138534   4.751   6.118   7.564 -0.7633 -1.3536  1.1667
 5633TIP3    H238535   4.715   6.263   7.590 -1.7049 -1.4407  0.3840
 5634TIP3   OH238536   5.893   1.861   0.763  0.1647  0.3863 -0.2771
 5634TIP3    H138537   5.950   1.792   0.797  0.6601  0.9145 -0.0161
 5634TIP3    H238538   5.888   1.845   0.669 -0.4762 -0.5495 -0.0974
 5635TIP3   OH238539   5.412   6.799   2.118 -0.1333 -0.3353  0.0150
 5635TIP3    H138540   5.378   6.802   2.029  0.2722 -1.5539 -0.1919
 5635TIP3    H238541   5.390   6.711   2.149  1.6987 -0.7183  0.3209
 5636TIP3   OH238542   2.514   6.160   7.648  0.3394  0.6682  0.4475
 5636TIP3    H138543   2.474   6.090   7.596 -1.5483  1.8741  0.1724
 5636TIP3    H238544   2.554   6.218   7.583  1.3014  0.2463  0.6357
 5637TIP3   OH238545   3.079   6.522   0.825  0.3004 -0.2291  0.0677
 5637TIP3    H138546   3.084   6.591   0.891 -0.3811  0.7098 -0.8301
 5637TIP3    H238547   3.043   6.565   0.747  3.5354 -0.6103 -1.8368
 5638TIP3   OH238548   5.199   1.332   1.095 -0.3165 -0.2579 -0.0432
 5638TIP3    H138549   5.219   1.274   1.168 -2.7829 -0.4326  0.5880
 5638TIP3    H238550   5.166   1.275   1.026  2.4697 -0.1582 -1.6133
 5639TIP3   OH238551   4.685   0.281   2.771  0.0616  0.0538 -0.1281
 5639TIP3    H138552   4.669   0.214   2.838 -0.4057  0.1663 -0.1278
 5639TIP3    H238553   4.779   0.297   2.776 -0.0359  0.3836  0.8087
 5640TIP3   OH238554   0.456   0.579   8.068 -0.2298  0.3698 -0.2813
 5640TIP3    H138555   0.392   0.546   8.132  2.3736 -0.0397  2.3429
 5640TIP3    H238556   0.526   0.616   8.122  0.9942  2.3686 -3.0320
 5641TIP3   OH238557   1.628   6.283   1.276 -0.4944  0.0602  0.0875
 5641TIP3    H138558   1.554   6.329   1.317  0.6031  0.5382  1.6288
 5641TIP3    H238559   1.684   6.259   1.350  1.2769  0.3730 -1.1149
 5642TIP3   OH238560   5.102   5.827   1.727 -0.3249 -0.1453 -0.6760
 5642TIP3    H138561   5.011   5.823   1.696  0.1176  3.6568 -3.2045
 5642TIP3    H238562   5.154   5.838   1.647  1.8768  1.7348  0.8662
 5643TIP3   OH238563   6.133   6.748   8.503  0.1985  0.5792  0.1444
 5643TIP3    H138564   6.139   6.676   8.439  1.9082  0.9180 -0.1187
 5643TIP3    H238565   6.122   6.826   8.450  2.6512  0.9919  0.1177
 5644TIP3   OH238566   0.429   6.762   1.837 -0.6553  0.1256 -0.1475
 5644TIP3    H138567   0.487   6.744   1.911 -0.4787  0.2790 -0.2475
 5644TIP3    H238568   0.341   6.755   1.873 -0.6165  3.4009  0.8935
 5645TIP3   OH238569   2.299   2.755   0.833  0.3715 -0.3717  0.0847
 5645TIP3    H138570   2.323   2.806   0.911 -2.4584 -1.9839  2.1735
 5645TIP3    H238571   2.332   2.667   0.851  0.3033 -0.6047 -0.8827
 5646TIP3   OH238572   6.049   5.010   0.554 -0.1481 -0.0439  0.0638
 5646TIP3    H138573   6.138   5.026   0.522 -0.5448  1.6044 -0.3115
 5646TIP3    H238574   5.993   5.024   0.477 -0.8317  0.1460  0.5877
 5647TIP3   OH238575   3.423   5.840   1.668  0.0374  0.6817 -0.3304
 5647TIP3    H138576   3.458   5.903   1.730 -0.7275  1.6558 -0.8606
 5647TIP3    H238577   3.382   5.773   1.723  1.9261 -0.0354  0.2667
 5648TIP3   OH238578   6.805   5.233   2.577 -0.1677 -0.5067 -0.1773
 5648TIP3    H138579   6.814   5.242   2.482 -0.2556  0.5978 -0.0896
 5648TIP3    H238580   6.894   5.243   2.610 -0.1126 -1.0628 -0.1516
 5649TIP3   OH238581   5.349   5.067   1.124 -0.2084 -0.5176  0.1969
 5649TIP3    H138582   5.314   5.063   1.213  1.3300  2.3464  1.0481
 5649TIP3    H238583   5.303   5.140   1.083  0.4989 -0.5528 -0.7006
 5650TIP3   OH238584   0.736   3.635   1.605  0.3802 -0.4150 -0.1348
 5650TIP3    H138585   0.647   3.629   1.570 -0.4734  0.6715  1.6788
 5650TIP3    H238586   0.739   3.567   1.672  0.0368  1.0916  1.4752
 5651TIP3   OH238587   3.167   0.471   0.870 -0.2327  0.1219  0.4756
 5651TIP3    H138588   3.187   0.564   0.867  1.4028 -0.2027 -0.0416
 5651TIP3    H238589   3.237   0.430   0.817 -0.2175 -1.4889  1.6619
 5652TIP3   OH238590   0.081   1.204   7.800 -0.2223  0.5942  0.6031
 5652TIP3    H138591   0.120   1.291   7.812 -0.5347  0.5789  1.8466
 5652TIP3    H238592   0.034   1.210   7.716  0.6613  1.2713  0.1422
 5653TIP3   OH238593   5.076   1.361   0.774  0.0975  0.2712 -0.1403
 5653TIP3    H138594   5.050   1.293   0.837 -2.5541 -0.0452 -1.4778
 5653TIP3    H238595   5.093   1.313   0.693  1.3676  0.9230 -0.2898
 5654TIP3   OH238596   4.080   3.478   8.692 -0.0999 -0.2922  0.0059
 5654TIP3    H138597   4.077   3.512   8.781  0.2383  3.2508 -1.1771
 5654TIP3    H238598   4.161   3.427   8.689 -0.3169 -0.8127  1.7844
 5655TIP3   OH238599   0.834   1.097   0.450  0.4490 -0.6639 -0.7548
 5655TIP3    H138600   0.755   1.050   0.423  0.1396  1.0553 -3.1928
 5655TIP3    H238601   0.906   1.044   0.417  0.4021 -2.2532  1.4960
 5656TIP3   OH238602   3.452   6.644   7.853 -0.1714 -0.0256  0.0819
 5656TIP3    H138603   3.453   6.602   7.939  0.1263  0.0689  0.1254
 5656TIP3    H238604   3.384   6.710   7.860  0.6728  0.8171  0.6516
 5657TIP3   OH238605   6.848   3.395   0.279  0.1794  0.6804  0.5890
 5657TIP3    H138606   6.850   3.437   0.365 -0.6113  1.1159  0.4047
 5657TIP3    H238607   6.840   3.468   0.217 -3.7658  0.2762  0.3758
 5658TIP3   OH238608   6.672   2.529   2.191  0.0302  0.8179  0.0167
 5658TIP3    H138609   6.663   2.602   2.130 -0.3555 -0.1307 -1.0876
 5658TIP3    H238610   6.635   2.454   2.145 -0.0420  0.0188  1.3238
 5659TIP3   OH238611   0.047   2.339   0.028 -0.1143  0.2615  0.1601
 5659TIP3    H138612   0.042   2.402   0.100  0.4278 -0.7532  1.1186
 5659TIP3    H238613   0.089   2.387  -0.044  0.9930  0.7810  1.1278
 5660TIP3   OH238614   2.328   5.109   2.048 -0.3743 -0.0032  0.4705
 5660TIP3    H138615   2.375   5.060   1.980 -1.5852  0.4493 -0.7280
 5660TIP3    H238616   2.236   5.107   2.020 -0.6188  1.9431  0.9969
 5661TIP3   OH238617   3.852   3.391   1.299 -0.5859  0.7860  0.1127
 5661TIP3    H138618   3.901   3.429   1.226 -0.9937  0.9480 -0.0775
 5661TIP3    H238619   3.765   3.376   1.264 -0.2533 -1.0240 -0.0540
 5662TIP3   OH238620   3.582   0.044   0.972  0.0965 -0.6907 -0.9869
 5662TIP3    H138621   3.581   0.140   0.970  0.3995 -0.6070  1.0176
 5662TIP3    H238622   3.566   0.018   0.881 -0.5894  1.2480 -1.4716
 5663TIP3   OH238623   0.807   3.527   2.360 -0.0297 -0.1936 -0.4503
 5663TIP3    H138624   0.726   3.573   2.385 -0.3419 -1.1240  0.2946
 5663TIP3    H238625   0.812   3.453   2.420  1.9770  0.4524  0.2493
 5664TIP3   OH238626   5.139   0.290   3.356 -0.6114 -0.2547 -0.2816
 5664TIP3    H138627   5.088   0.212   3.334 -0.2241 -0.6520  0.1924
 5664TIP3    H238628   5.228   0.257   3.368 -0.8375 -0.1418  2.1664
 5665TIP3   OH238629   5.088   5.296   2.787 -0.0198  0.3867  0.1005
 5665TIP3    H138630   5.146   5.220   2.795 -0.3671 -0.0701 -1.5060
 5665TIP3    H238631   5.144   5.370   2.811  0.9649 -0.1451 -0.4659
 5666TIP3   OH238632   3.273   3.909   7.922  0.3867  0.0391 -0.6883
 5666TIP3    H138633   3.224   3.916   8.004 -0.6201 -0.6656 -1.2143
 5666TIP3    H238634   3.218   3.953   7.857  0.7320 -0.2433 -1.1748
 5667TIP3   OH238635   3.477   5.409   2.378 -0.3148  0.1318 -0.2424
 5667TIP3    H138636   3.514   5.497   2.372 -0.8315  0.4887  1.4475
 5667TIP3    H238637   3.425   5.409   2.458  0.8665 -2.1503  0.6290
 5668TIP3   OH238638   2.618   2.995   1.745  0.2598 -0.5161  0.0304
 5668TIP3    H138639   2.534   3.042   1.745  0.1101 -0.7768 -0.3863
 5668TIP3    H238640   2.635   2.976   1.837 -0.3598 -0.8458  0.0803
 5669TIP3   OH238641   1.029   5.823   3.027  0.0455  0.5621 -0.1483
 5669TIP3    H138642   1.022   5.730   3.049 -1.8858 -0.1145 -3.0451
 5669TIP3    H238643   1.122   5.838   3.014  0.2090 -1.6303 -1.9335
 5670TIP3   OH238644   4.405   4.398   1.247  0.1403  0.5434  0.0639
 5670TIP3    H138645   4.500   4.399   1.259  0.0707  0.7857  0.6436
 5670TIP3    H238646   4.385   4.307   1.223  0.3057 -0.0395  1.9190
 5671TIP3   OH238647   2.498   6.571   8.529 -0.1504  0.0569 -0.6506
 5671TIP3    H138648   2.516   6.477   8.537  1.0459  0.2683 -0.6913
 5671TIP3    H238649   2.547   6.611   8.601 -1.1054  0.6178 -0.2802
 5672TIP3   OH238650   4.082   6.297   0.887  0.0007 -0.0871  0.4803
 5672TIP3    H138651   4.157   6.241   0.869 -1.4204 -1.7543 -0.6008
 5672TIP3    H238652   4.055   6.273   0.976 -0.7259 -1.3501 -0.0514
 5673TIP3   OH238653   4.516   5.663   2.472 -0.2265  0.0053  0.3089
 5673TIP3    H138654   4.607   5.691   2.459 -0.9919  2.8627  0.3242
 5673TIP3    H238655   4.500   5.677   2.566 -0.5311 -1.0222  0.4160
 5674TIP3   OH238656   1.205   4.569   7.933 -0.4382  0.1132  0.1570
 5674TIP3    H138657   1.194   4.476   7.953 -2.9689  0.4313  0.6268
 5674TIP3    H238658   1.279   4.572   7.873  0.1841 -2.1172  0.7194
 5675TIP3   OH238659   6.162   6.428   3.178  0.0437 -0.1086  0.2313
 5675TIP3    H138660   6.154   6.368   3.252  0.2903 -0.1892  0.1922
 5675TIP3    H238661   6.246   6.407   3.139  1.1377  1.6938  1.4920
 5676TIP3   OH238662   5.045   5.011   0.433  0.3845  0.6100  0.3476
 5676TIP3    H138663   5.102   5.038   0.361  0.2353 -1.4504 -0.6050
 5676TIP3    H238664   5.105   4.979   0.501  0.4949  2.0234  0.9560
 5677TIP3   OH238665   1.683   0.950   8.697  0.2521 -0.1215  0.1274
 5677TIP3    H138666   1.587   0.957   8.693  0.2471 -0.0703  0.3208
 5677TIP3    H238667   1.702   0.932   8.789  0.4906  1.0079  0.3204
 5678TIP3   OH238668   1.270   4.466   7.634 -0.0840 -0.2476 -0.3717
 5678TIP3    H138669   1.338   4.426   7.580  0.4148 -0.3183  0.2891
 5678TIP3    H238670   1.317   4.526   7.691 -0.2710 -1.7115  1.4471
 5679TIP3   OH238671   2.334   5.904   0.808 -0.2371  0.1544  0.2561
 5679TIP3    H138672   2.265   5.968   0.827  0.0005  0.2012  0.9777
 5679TIP3    H238673   2.412   5.938   0.851  0.4383  0.4726 -1.1808
 5680TIP3   OH238674   1.337   2.727   2.256 -0.2394  0.2346 -0.2179
 5680TIP3    H138675   1.393   2.709   2.180 -0.6279 -0.6722 -0.3063
 5680TIP3    H238676   1.256   2.680   2.237 -0.6334  0.6441  0.4072
 5681TIP3   OH238677   3.267   4.344   1.272 -0.0070 -0.7164 -0.3469
 5681TIP3    H138678   3.349   4.392   1.256 -0.3208 -0.4363 -1.2074
 5681TIP3    H238679   3.203   4.388   1.216  0.0287 -3.1035 -2.4787
 5682TIP3   OH238680   4.361   2.252   1.216 -0.0818  0.5628  0.0014
 5682TIP3    H138681   4.448   2.259   1.177 -0.5443  3.2954 -0.7518
 5682TIP3    H238682   4.370   2.183   1.282  2.1017 -0.5789 -1.3713
 5683TIP3   OH238683   4.089   5.134   2.415 -0.4760 -0.9101  0.4347
 5683TIP3    H138684   3.998   5.152   2.437 -0.3568 -0.6130  0.6930
 5683TIP3    H238685   4.124   5.088   2.491 -0.2574 -0.5227  0.5694
 5684TIP3   OH238686   1.563   4.387   3.513  0.1991  0.0182 -0.8671
 5684TIP3    H138687   1.627   4.315   3.507 -0.9718 -0.9865 -1.8008
 5684TIP3    H238688   1.608   4.454   3.565  1.2769 -1.4403  0.1835
 5685TIP3   OH238689   4.826   5.404   0.097 -0.3925 -0.0309  0.1166
 5685TIP3    H138690   4.809   5.368   0.184 -1.8877 -0.7752 -0.4583
 5685TIP3    H238691   4.802   5.497   0.104  0.3775  0.1390  0.7186
 5686TIP3   OH238692   2.684   0.752   3.230  0.0522 -0.2747  0.3427
 5686TIP3    H138693   2.667   0.816   3.160  0.9451  0.7249  1.0067
 5686TIP3    H238694   2.628   0.678   3.208  1.1933 -0.5158 -2.1262
 5687TIP3   OH238695   1.648   4.379   3.211 -0.8937  0.1164 -0.8982
 5687TIP3    H138696   1.594   4.338   3.279  0.0847  0.7150  0.2892
 5687TIP3    H238697   1.597   4.454   3.181 -0.6543  0.8269  0.3898
 5688TIP3   OH238698   1.473   1.188   3.374  0.3488  0.0512  0.4736
 5688TIP3    H138699   1.459   1.234   3.291  0.9743 -0.4740  0.0750
 5688TIP3    H238700   1.385   1.172   3.407 -0.0725 -2.5738 -1.6409
 5689TIP3   OH238701   0.528   5.688   0.783 -0.5093 -0.1074 -0.8154
 5689TIP3    H138702   0.609   5.638   0.788 -0.8232 -0.5047  0.6633
 5689TIP3    H238703   0.472   5.651   0.851 -1.3702  1.1616 -0.7965
 5690TIP3   OH238704   1.884   4.547   3.166 -0.6354 -0.1870  0.1729
 5690TIP3    H138705   1.806   4.491   3.173 -0.6853  0.1168  3.2168
 5690TIP3    H238706   1.870   4.616   3.231  1.6701  0.5538 -0.0380
 5691TIP3   OH238707   6.017   0.965   0.403  0.1411 -0.0996 -0.6881
 5691TIP3    H138708   5.965   0.972   0.324  1.2179  0.9837 -1.3318
 5691TIP3    H238709   6.066   1.047   0.407  0.5934 -0.4139  0.7495
 5692TIP3   OH238710   3.967   0.779   7.143  0.2088 -0.3308  0.1085
 5692TIP3    H138711   3.945   0.719   7.214  0.6966 -0.8776 -0.1928
 5692TIP3    H238712   4.059   0.761   7.124  0.6813  1.2515  0.7288
 5693TIP3   OH238713   3.659   2.707   1.061 -0.9588  0.0524 -0.2161
 5693TIP3    H138714   3.699   2.794   1.065 -2.1741  0.6249  0.0081
 5693TIP3    H238715   3.613   2.705   0.977 -1.2979 -0.2000 -0.0276
 5694TIP3   OH238716   1.052   6.090   0.224  0.1591 -0.2814 -0.0027
 5694TIP3    H138717   1.098   6.159   0.272 -2.1772  1.7955 -0.5343
 5694TIP3    H238718   0.989   6.055   0.287  0.4249 -0.9899 -0.1282
 5695TIP3   OH238719   3.839   0.021   0.627  0.7927  0.3029 -0.1973
 5695TIP3    H138720   3.868   0.089   0.687 -2.7812  2.2254 -0.4010
 5695TIP3    H238721   3.816  -0.053   0.684 -0.8443  1.4561  0.7199
 5696TIP3   OH238722   6.093   5.936   0.724  0.4352  0.2248 -0.0684
 5696TIP3    H138723   6.162   6.000   0.742 -0.4935  1.2178  0.0709
 5696TIP3    H238724   6.084   5.887   0.806  0.3097  0.7557  0.2441
 5697TIP3   OH238725   3.651   5.870   2.151  0.1401 -0.2711 -0.4592
 5697TIP3    H138726   3.661   5.912   2.065 -0.8862 -0.5396 -0.7168
 5697TIP3    H238727   3.675   5.939   2.214 -0.2141  0.2790 -0.9187
 5698TIP3   OH238728   2.819   5.489   2.827 -0.1330 -0.1073  0.2563
 5698TIP3    H138729   2.815   5.397   2.802 -2.2044 -0.1840  0.6866
 5698TIP3    H238730   2.830   5.488   2.922 -4.3336 -0.0910  0.9104
 5699TIP3   OH238731   1.785   1.610   1.328  0.3820  0.4770 -0.0558
 5699TIP3    H138732   1.843   1.684   1.340  1.7299 -0.7628  1.5780
 5699TIP3    H238733   1.700   1.639   1.361  0.3996  1.8155 -1.0865
 5700TIP3   OH238734   1.042   4.319   0.156  0.1230  0.2468  0.3051
 5700TIP3    H138735   0.992   4.325   0.074  0.5600 -0.9912 -0.0794
 5700TIP3    H238736   0.975   4.317   0.224 -0.4405 -1.6984 -0.2182
 5701TIP3   OH238737   4.373   1.485   0.431  0.1798 -0.4758  0.4396
 5701TIP3    H138738   4.413   1.482   0.517 -2.1935  0.6757  1.7064
 5701TIP3    H238739   4.392   1.573   0.398  0.0050 -0.4664  0.3598
 5702TIP3   OH238740   3.739   6.408   8.687  0.1956 -0.0188 -0.2927
 5702TIP3    H138741   3.801   6.377   8.753  0.8848  1.4409 -0.1945
 5702TIP3    H238742   3.666   6.347   8.691  0.0391  0.2234  2.1033
 5703TIP3   OH238743   1.093   4.960   8.424 -0.0262 -0.0934  0.4889
 5703TIP3    H138744   1.086   4.868   8.401  0.9979 -0.6485  2.2579
 5703TIP3    H238745   1.171   4.966   8.479 -0.8313  1.6040  1.5317
 5704TIP3   OH238746   4.088   0.430   1.350  0.2696 -0.1657  0.4508
 5704TIP3    H138747   4.082   0.420   1.445  0.2914  0.4933  0.5261
 5704TIP3    H238748   4.150   0.362   1.323  0.7657  0.0581  0.9934
 5705TIP3   OH238749   3.194   4.814   7.685 -0.1440  0.0344  0.0359
 5705TIP3    H138750   3.277   4.784   7.722  0.8587 -1.1090 -2.8380
 5705TIP3    H238751   3.127   4.767   7.735  1.1265 -1.6639  0.2237
 5706TIP3   OH238752   0.561   2.461   8.026  0.0140 -0.1170 -0.1493
 5706TIP3    H138753   0.472   2.448   8.056 -0.8549  2.0048 -1.5207
 5706TIP3    H238754   0.554   2.532   7.961  2.7325  0.3577 -0.0429
 5707TIP3   OH238755   2.778   4.418   0.261  0.4370 -0.1375 -0.3199
 5707TIP3    H138756   2.809   4.355   0.327  0.9582  1.3330  0.8827
 5707TIP3    H238757   2.702   4.375   0.222 -0.1819 -0.8644  1.5640
 5708TIP3   OH238758   5.146   0.599   2.353  0.2598 -0.0658 -0.1610
 5708TIP3    H138759   5.139   0.684   2.397 -1.1004  0.5822 -1.5264
 5708TIP3    H238760   5.135   0.620   2.260 -0.0663 -1.7481 -0.5292
 5709TIP3   OH238761   0.444   0.163   0.226 -0.3093 -0.7933  0.1908
 5709TIP3    H138762   0.510   0.224   0.192  0.4328 -0.1568  2.5411
 5709TIP3    H238763   0.362   0.212   0.223  0.1474  0.1044  1.3208
 5710TIP3   OH238764   2.792   2.272   8.410 -0.1242 -0.1312  0.3046
 5710TIP3    H138765   2.710   2.306   8.375 -0.4870 -0.4400  0.8436
 5710TIP3    H238766   2.856   2.341   8.392 -1.0924  1.4479  2.4755
 5711TIP3   OH238767   0.759   1.816   1.344 -0.5610 -0.1670 -0.1692
 5711TIP3    H138768   0.751   1.837   1.437 -1.0597  0.5905 -0.3722
 5711TIP3    H238769   0.701   1.742   1.331 -1.7969  0.7686 -0.1912
 5712TIP3   OH238770   4.541   0.725   1.687 -0.0691  0.1117 -0.4261
 5712TIP3    H138771   4.521   0.808   1.731  3.5476  1.4607 -1.0233
 5712TIP3    H238772   4.480   0.722   1.614  0.1453  2.6552 -0.8071
 5713TIP3   OH238773   1.340   2.262   2.125 -0.5361 -0.2179  0.0080
 5713TIP3    H138774   1.431   2.251   2.151 -0.7945 -0.3542  0.8826
 5713TIP3    H238775   1.299   2.309   2.198 -1.2603 -0.5286 -0.1877
 5714TIP3   OH238776   6.025   6.383   0.784  0.4024  0.5253  0.1540
 5714TIP3    H138777   5.929   6.380   0.787  0.3162 -0.0052 -1.6920
 5714TIP3    H238778   6.052   6.311   0.840 -0.3550 -0.3191 -0.5175
 5715TIP3   OH238779   4.770   0.408   3.414 -0.1786  0.1946  0.2057
 5715TIP3    H138780   4.691   0.368   3.377  0.1398 -0.9431  0.7185
 5715TIP3    H238781   4.792   0.352   3.489  0.7595  0.8664  0.4442
 5716TIP3   OH238782   2.978   5.917   0.196 -0.4936  0.1553 -0.2202
 5716TIP3    H138783   2.900   5.940   0.247  0.3505 -0.4665  1.4424
 5716TIP3    H238784   3.011   6.001   0.163 -0.7902  0.6659  0.7271
 5717TIP3   OH238785   2.967   4.990   1.254  0.3435  0.4951 -0.3121
 5717TIP3    H138786   3.047   5.039   1.236  1.7371 -0.9269  1.5776
 5717TIP3    H238787   2.899   5.058   1.262  2.0006  2.0866  1.2922
 5718TIP3   OH238788   1.279   4.980   2.334  0.0897  0.2107  0.0629
 5718TIP3    H138789   1.358   4.934   2.303 -0.9806 -0.6173 -1.5807
 5718TIP3    H238790   1.216   4.910   2.352 -1.1697  0.9444 -1.3126
 5719TIP3   OH238791   4.164   2.046   0.716 -0.0552  0.1374  0.0373
 5719TIP3    H138792   4.080   2.091   0.704 -0.2399 -0.1761  0.1486
 5719TIP3    H238793   4.212   2.063   0.635 -0.6891 -0.6623 -0.5200
 5720TIP3   OH238794   6.778   1.866   2.211  1.3061 -0.3690 -0.4626
 5720TIP3    H138795   6.831   1.824   2.143  0.9238  1.5140 -2.0024
 5720TIP3    H238796   6.771   1.957   2.184 -1.5257 -0.2270  0.4407
 5721TIP3   OH238797   5.382   2.052   2.913  0.0594 -0.6479 -0.0224
 5721TIP3    H138798   5.470   2.018   2.895  0.3751  0.4160 -0.5031
 5721TIP3    H238799   5.390   2.147   2.909 -0.8629 -0.4854  1.1232
 5722TIP3   OH238800   6.794   5.746   8.500  0.7958 -0.2119 -0.0635
 5722TIP3    H138801   6.704   5.754   8.533 -0.2254 -1.7216 -2.2427
 5722TIP3    H238802   6.845   5.720   8.576 -1.0170 -1.4208  0.8234
 5723TIP3   OH238803   2.475   5.465   1.703 -0.0956  0.4745 -0.2669
 5723TIP3    H138804   2.550   5.522   1.720  0.9471 -0.4602 -1.5431
 5723TIP3    H238805   2.447   5.436   1.789  1.2841  0.5041  0.2138
 5724TIP3   OH238806   5.460   4.362   0.622  0.3228  0.2146  0.1387
 5724TIP3    H138807   5.527   4.307   0.663  2.1576  2.7998  0.8407
 5724TIP3    H238808   5.380   4.341   0.671  1.8614  1.1707  3.3525
 5725TIP3   OH238809   5.709   5.303   2.676  0.1757  0.5723  0.1917
 5725TIP3    H138810   5.660   5.234   2.721 -1.6156  1.6697  0.0623
 5725TIP3    H238811   5.744   5.357   2.746  1.3526 -0.2738  0.2880
 5726TIP3   OH238812   5.498   3.119   2.280 -0.0208 -0.1905 -0.7212
 5726TIP3    H138813   5.574   3.173   2.302  1.1173 -0.4646 -3.4866
 5726TIP3    H238814   5.489   3.059   2.353 -0.3113  2.5862  1.7067
 5727TIP3   OH238815   3.261   5.661   8.714  0.8952 -0.1290  0.1135
 5727TIP3    H138816   3.213   5.723   8.660 -0.7246 -0.8008  0.7138
 5727TIP3    H238817   3.353   5.685   8.702  0.3936  1.6231 -0.5692
 5728TIP3   OH238818   5.246   5.233   8.312  0.0768  0.1632  0.3678
 5728TIP3    H138819   5.254   5.308   8.371  2.1510  1.8188 -1.8061
 5728TIP3    H238820   5.163   5.248   8.266 -0.9346 -0.4839  1.8830
 5729TIP3   OH238821   3.513   2.148   2.285  0.2425 -0.3757  0.4335
 5729TIP3    H138822   3.453   2.074   2.297 -0.2015 -0.6426 -2.6096
 5729TIP3    H238823   3.467   2.205   2.223  2.0622  0.7180  0.0323
 5730TIP3   OH238824   3.424   0.103   8.634  0.7220 -0.0645 -0.4512
 5730TIP3    H138825   3.365   0.045   8.587  0.6776  0.2737 -0.8126
 5730TIP3    H238826   3.493   0.045   8.666  1.5830 -0.0859 -2.2361
 5731TIP3   OH238827   0.862   2.680   1.776 -0.0232  0.1313  0.7035
 5731TIP3    H138828   0.935   2.721   1.731  0.7785 -0.4818  1.3985
 5731TIP3    H238829   0.866   2.714   1.865  0.3462 -1.0164  1.1510
 5732TIP3   OH238830   6.205   4.104   1.793  0.3233 -0.0380 -0.4368
 5732TIP3    H138831   6.290   4.124   1.755  0.8211 -0.7025  0.2978
 5732TIP3    H238832   6.145   4.164   1.749  1.3732  1.3901  0.0148
 5733TIP3   OH238833   0.905   6.134   2.345 -0.4496 -0.2296  0.0203
 5733TIP3    H138834   0.962   6.147   2.420 -0.1125 -2.5168  0.2493
 5733TIP3    H238835   0.961   6.092   2.279 -1.1041  0.3855 -0.9599
 5734TIP3   OH238836   0.406   5.936   8.499 -0.5605  0.6086  0.0876
 5734TIP3    H138837   0.340   5.941   8.569  0.2022  1.5408  0.7602
 5734TIP3    H238838   0.482   5.894   8.541 -0.5365  0.0014 -0.5457
 5735TIP3   OH238839   0.803   1.739   2.310 -0.2496 -0.1429 -0.2203
 5735TIP3    H138840   0.711   1.753   2.332 -0.7788 -1.8202 -1.1726
 5735TIP3    H238841   0.819   1.796   2.235  0.0370  1.5270  1.0674
 5736TIP3   OH238842   2.157   1.306   2.389  0.8269  0.5675 -0.3369
 5736TIP3    H138843   2.076   1.347   2.361  0.5706  0.0876 -0.3130
 5736TIP3    H238844   2.226   1.356   2.345  0.5687  1.4791  0.2562
 5737TIP3   OH238845   4.384   0.523   7.758  0.2922  0.4385 -0.2729
 5737TIP3    H138846   4.477   0.507   7.774  0.0582 -0.4442  0.2411
 5737TIP3    H238847   4.351   0.440   7.725 -0.2439  0.8638 -0.8538
 5738TIP3   OH238848   1.155   4.949   7.474  0.1084  0.2243  0.1803
 5738TIP3    H138849   1.086   4.915   7.416 -2.5411  1.5511  2.3148
 5738TIP3    H238850   1.183   5.030   7.433 -0.8488  0.5209  0.0746
 5739TIP3   OH238851   3.062   5.365   0.173 -0.2146 -0.3668  1.1197
 5739TIP3    H138852   2.978   5.409   0.185 -0.4825 -1.2745  2.9679
 5739TIP3    H238853   3.095   5.351   0.262  2.9214  1.7854  0.4536
 5740TIP3   OH238854   5.136   0.499   0.661  0.5685  0.8395 -0.0686
 5740TIP3    H138855   5.169   0.514   0.573 -0.7980 -1.9438 -1.1816
 5740TIP3    H238856   5.202   0.443   0.702 -0.5505 -1.1064 -0.7783
 5741TIP3   OH238857   6.773   0.785   2.325 -0.3649  0.6061  0.0222
 5741TIP3    H138858   6.863   0.780   2.356 -0.0362  1.2985 -0.7857
 5741TIP3    H238859   6.744   0.694   2.320 -0.1252  0.4183  1.4180
 5742TIP3   OH238860   1.590   2.682   1.691  0.0771  0.0100 -0.5105
 5742TIP3    H138861   1.527   2.635   1.747  0.9020 -0.3143  0.1716
 5742TIP3    H238862   1.662   2.704   1.750  0.3691  0.8496 -1.1599
 5743TIP3   OH238863   2.502   4.867   1.651 -0.5657 -0.1309  0.7232
 5743TIP3    H138864   2.524   4.941   1.708  1.1384 -0.7197  0.8936
 5743TIP3    H238865   2.585   4.843   1.610 -1.1861 -1.6155  0.2705
 5744TIP3   OH238866   4.672   0.891   1.212  0.5204  0.2725  0.4350
 5744TIP3    H138867   4.718   0.954   1.157 -1.0185  1.0671  0.0150
 5744TIP3    H238868   4.581   0.895   1.183 -0.1910  0.1452  2.4929
 5745TIP3   OH238869   2.325   6.557   1.930  0.2241 -0.2310 -0.3199
 5745TIP3    H138870   2.417   6.576   1.908  0.0125  0.1187 -0.9163
 5745TIP3    H238871   2.319   6.577   2.024  0.9711 -1.0968 -0.0702
 5746TIP3   OH238872   4.711   5.543   1.848  0.1736 -1.0301  0.4234
 5746TIP3    H138873   4.751   5.627   1.827 -0.8595 -0.4277  0.7950
 5746TIP3    H238874   4.765   5.508   1.919 -0.1421 -0.0884  1.1392
 5747TIP3   OH238875   0.481   4.489   0.340  0.2973  0.1400 -0.5973
 5747TIP3    H138876   0.550   4.427   0.361  0.4355  0.3773 -0.3470
 5747TIP3    H238877   0.409   4.435   0.308  0.7360 -0.0817 -1.2452
 5748TIP3   OH238878   1.108   3.520   8.116  0.2034  0.2504  0.5453
 5748TIP3    H138879   1.102   3.436   8.070  0.3480 -0.1300  1.1966
 5748TIP3    H238880   1.194   3.555   8.094  0.9654 -0.7188  1.7992
 5749TIP3   OH238881   0.736   0.910   2.033  0.4032  0.2188  0.6429
 5749TIP3    H138882   0.642   0.923   2.046  0.5961  0.8205  1.5129
 5749TIP3    H238883   0.751   0.819   2.058 -0.2850 -0.5858 -1.5968
 5750TIP3   OH238884   3.513   0.451   2.847  0.7990 -0.1375 -0.2513
 5750TIP3    H138885   3.537   0.517   2.913  3.1138 -0.6475 -0.5180
 5750TIP3    H238886   3.488   0.374   2.899  0.7777  0.0585  0.0352
 5751TIP3   OH238887   5.251   1.783   0.355  0.6307  0.1386  0.2156
 5751TIP3    H138888   5.315   1.758   0.421 -0.7243 -3.3543  0.4177
 5751TIP3    H238889   5.169   1.744   0.385 -0.4394  0.0055 -2.5463
 5752TIP3   OH238890   6.038   4.840   2.562 -0.0371  0.5024  0.0472
 5752TIP3    H138891   5.988   4.808   2.636 -0.4466  0.8082 -0.0922
 5752TIP3    H238892   6.010   4.786   2.488  2.5918 -1.9464  0.6281
 5753TIP3   OH238893   1.754   5.407   8.362  0.0244  0.5561  0.6938
 5753TIP3    H138894   1.831   5.371   8.319  0.1588  1.0585  0.4994
 5753TIP3    H238895   1.691   5.420   8.291 -0.1094  0.4702  0.7977
 5754TIP3   OH238896   5.300   4.750   0.233 -0.1318 -0.4064 -0.1906
 5754TIP3    H138897   5.391   4.740   0.263 -0.1715  2.1270  1.0204
 5754TIP3    H238898   5.309   4.781   0.142  0.2053 -0.6129 -0.2296
 5755TIP3   OH238899   0.741   2.141   1.719 -0.0218  0.1947 -0.4703
 5755TIP3    H138900   0.769   2.189   1.641 -0.4992  0.8730 -0.2324
 5755TIP3    H238901   0.651   2.170   1.734  0.0907  0.1272  0.3738
 5756TIP3   OH238902   4.188   5.235   2.027  0.1272 -0.4103  0.2944
 5756TIP3    H138903   4.184   5.141   2.045 -3.4893 -0.2154  1.3176
 5756TIP3    H238904   4.211   5.274   2.112  0.0080 -0.3060  0.2790
 5757TIP3   OH238905   2.549   3.277   7.587  0.0203  0.4752 -0.1035
 5757TIP3    H138906   2.537   3.371   7.598 -2.1975  0.1768  0.6573
 5757TIP3    H238907   2.474   3.250   7.534  0.3949 -0.9196  0.0441
 5758TIP3   OH238908   3.640   1.544   1.674  0.0177  0.0912  0.4713
 5758TIP3    H138909   3.736   1.546   1.664  0.1043 -2.8107 -0.0863
 5758TIP3    H238910   3.607   1.545   1.585 -0.3583 -0.7526  0.5913
 5759TIP3   OH238911   3.054   3.556   0.190  0.2801  0.6953 -0.2579
 5759TIP3    H138912   3.032   3.464   0.208 -0.3160  0.7216 -0.7751
 5759TIP3    H238913   2.969   3.600   0.186  0.5658  1.2816  0.0347
 5760TIP3   OH238914   6.085   5.442   7.507 -0.4731 -0.7767  0.7599
 5760TIP3    H138915   6.164   5.475   7.549 -0.8985 -0.6930  1.5137
 5760TIP3    H238916   6.039   5.520   7.477 -0.1087 -0.8405 -0.0099
 5761TIP3   OH238917   1.546   3.986   2.302  0.5501  0.5880  1.1191
 5761TIP3    H138918   1.575   4.075   2.322 -1.7379  1.3657  1.3348
 5761TIP3    H238919   1.451   3.994   2.291  0.4972 -1.4875 -0.8117
 5762TIP3   OH238920   5.695   4.499   0.492  0.7838  0.1937 -0.6097
 5762TIP3    H138921   5.776   4.479   0.539  0.5501  1.3635  0.3626
 5762TIP3    H238922   5.626   4.462   0.546  0.6865 -2.3045 -2.2865
 5763TIP3   OH238923   0.701   6.744   1.923  0.2181 -0.1148 -0.2629
 5763TIP3    H138924   0.738   6.742   1.835  2.5815  0.2852  0.6418
 5763TIP3    H238925   0.672   6.654   1.940  0.6847 -0.4262 -1.0854
 5764TIP3   OH238926   3.887   1.677   2.873  0.3882 -0.3724  0.1379
 5764TIP3    H138927   3.964   1.734   2.867  0.3983 -0.4800 -1.2181
 5764TIP3    H238928   3.815   1.737   2.892  0.7471 -0.2270  1.0959
 5765TIP3   OH238929   4.633   4.309   0.666  0.0488  0.5457 -0.0032
 5765TIP3    H138930   4.546   4.278   0.639 -0.6501  0.7129  1.9365
 5765TIP3    H238931   4.673   4.233   0.708 -0.1224  1.1356  1.2559
 5766TIP3   OH238932   0.275   5.210   0.708 -0.2013 -0.2027 -0.2067
 5766TIP3    H138933   0.351   5.228   0.763  0.6389  0.6543 -1.5863
 5766TIP3    H238934   0.255   5.118   0.724 -0.7499  0.2772  2.3814
 5767TIP3   OH238935   3.971   1.320   2.496  0.0574  0.0790 -0.4752
 5767TIP3    H138936   4.042   1.280   2.446  0.4994  0.0783  0.1455
 5767TIP3    H238937   3.899   1.257   2.490  0.2295 -0.0897 -0.7975
 5768TIP3   OH238938   2.130   5.211   2.316 -0.2071  0.1797  0.0890
 5768TIP3    H138939   2.214   5.250   2.291  1.0651 -2.2203  0.2873
 5768TIP3    H238940   2.083   5.281   2.362  1.1762  1.9384 -1.0605
 5769TIP3   OH238941   3.491   2.082   1.640 -0.4175 -0.2280  0.5955
 5769TIP3    H138942   3.513   1.989   1.633  1.0620  0.0699  0.9775
 5769TIP3    H238943   3.536   2.112   1.719 -1.1750  0.7434  0.6785
 5770TIP3   OH238944   3.343   6.214   3.609  0.4461 -1.0922 -0.2609
 5770TIP3    H138945   3.358   6.149   3.541  0.7038 -0.5777 -0.7053
 5770TIP3    H238946   3.428   6.226   3.651  0.2483 -1.5456  0.2874
 5771TIP3   OH238947   4.998   4.208   7.824 -0.0716 -0.0503 -0.1545
 5771TIP3    H138948   5.059   4.279   7.806  0.3254 -0.4675 -0.4647
 5771TIP3    H238949   5.053   4.133   7.843 -0.4048 -1.0994 -2.9246
 5772TIP3   OH238950   1.975   3.610   2.539 -0.1363  0.5425  0.1904
 5772TIP3    H138951   1.926   3.574   2.613  0.3434  1.4344  0.9699
 5772TIP3    H238952   2.058   3.564   2.540 -0.5439 -0.2486 -0.5121
 5773TIP3   OH238953   6.349   4.101   2.658 -0.1215  0.1741  0.5296
 5773TIP3    H138954   6.355   4.010   2.686 -1.9849 -0.8778 -2.1384
 5773TIP3    H238955   6.425   4.143   2.699  0.7280 -2.4999  1.9540
 5774TIP3   OH238956   0.171   3.400   1.220  0.3353  0.0579  0.0267
 5774TIP3    H138957   0.167   3.306   1.199  1.8548 -0.9777  3.5747
 5774TIP3    H238958   0.082   3.423   1.247  0.4514 -1.0569  1.4538
 5775TIP3   OH238959   2.540   5.241   2.724 -0.2273  0.1690 -0.0580
 5775TIP3    H138960   2.606   5.172   2.728  0.5925  0.9947  1.6271
 5775TIP3    H238961   2.483   5.224   2.798  0.0529  1.3374  0.4530
 5776TIP3   OH238962   1.593   1.890   0.636  0.3004  0.3240  0.1062
 5776TIP3    H138963   1.506   1.852   0.650  0.3236 -1.2020 -2.9654
 5776TIP3    H238964   1.646   1.818   0.603  2.3745  1.5550  0.5446
 5777TIP3   OH238965   5.729   4.885   2.094  0.0554  1.0706 -0.0724
 5777TIP3    H138966   5.670   4.948   2.134  0.1531  1.3191 -0.3129
 5777TIP3    H238967   5.729   4.907   2.001  1.0989  1.5553  0.0230
 5778TIP3   OH238968   1.453   6.558   8.273  0.4641 -0.0648  0.1314
 5778TIP3    H138969   1.476   6.467   8.295  0.5779 -0.1276 -0.2449
 5778TIP3    H238970   1.358   6.555   8.259  0.0198  0.3812  2.6142
 5779TIP3   OH238971   5.249   5.886   7.277 -0.2946  0.4529 -0.0440
 5779TIP3    H138972   5.171   5.933   7.247  0.1495  2.4239  1.6328
 5779TIP3    H238973   5.233   5.869   7.369  0.3712 -1.1054 -0.1800
 5780TIP3   OH238974   1.699   5.662   8.465  0.5212  0.5361 -0.4585
 5780TIP3    H138975   1.757   5.587   8.453  1.0095  1.1841 -2.7505
 5780TIP3    H238976   1.716   5.692   8.554  2.9686  0.0784 -0.7071
 5781TIP3   OH238977   4.085   1.435   2.217  0.8488 -0.0535  0.4548
 5781TIP3    H138978   4.026   1.508   2.201  2.5135  1.3291  0.2868
 5781TIP3    H238979   4.156   1.447   2.154  0.8264 -2.2617 -0.0868
 5782TIP3   OH238980   4.899   3.732   8.729  0.4990  0.4603  0.0439
 5782TIP3    H138981   4.851   3.678   8.792  1.0167  1.3543  1.2678
 5782TIP3    H238982   4.844   3.810   8.718  1.3441  1.2206  0.9942
 5783TIP3   OH238983   6.155   3.978   2.436 -0.7692 -0.2239  0.0471
 5783TIP3    H138984   6.136   4.071   2.440 -0.1230 -0.0065 -1.4343
 5783TIP3    H238985   6.122   3.943   2.519  1.0387  1.6718  1.6739
 5784TIP3   OH238986   0.649   6.219   2.365 -0.2044 -0.0725 -0.1023
 5784TIP3    H138987   0.718   6.153   2.370  2.7928  2.7938 -0.3019
 5784TIP3    H238988   0.595   6.204   2.443  0.2368 -2.7558 -0.2247
 5785TIP3   OH238989   0.014   0.142   1.302 -0.2663 -0.3483 -0.8287
 5785TIP3    H138990   0.097   0.173   1.339 -0.7150  0.5174 -0.5059
 5785TIP3    H238991  -0.012   0.211   1.241 -1.1843 -0.1560 -0.2571
 5786TIP3   OH238992   6.202   6.606   1.893 -0.0567  0.0841  0.7006
 5786TIP3    H138993   6.251   6.683   1.923  0.2074  0.3220 -0.2941
 5786TIP3    H238994   6.196   6.549   1.970  2.7448 -0.4630  0.5985
 5787TIP3   OH238995   4.524   0.462   3.103 -0.2610 -0.1236 -0.0688
 5787TIP3    H138996   4.489   0.541   3.144 -2.7812  0.2599 -2.6393
 5787TIP3    H238997   4.579   0.496   3.031  0.9373 -0.7615  0.5165
 5788TIP3   OH238998   5.933   5.976   2.856 -0.8670  0.3052  0.4545
 5788TIP3    H138999   5.849   5.981   2.900  0.2021  1.0757  2.5502
 5788TIP3    H239000   5.992   6.028   2.911  0.4960  1.7269 -2.1256
 5789TIP3   OH239001   1.742   0.775   0.451  0.1518 -0.0061  0.2314
 5789TIP3    H139002   1.668   0.729   0.411 -0.0144  0.0750  0.4402
 5789TIP3    H239003   1.816   0.716   0.440  0.0278 -0.1442  0.1342
 5790TIP3   OH239004   0.977   6.759   0.878  0.2055 -0.1362 -0.3052
 5790TIP3    H139005   0.995   6.706   0.956  0.2756 -0.1675 -0.3418
 5790TIP3    H239006   0.884   6.780   0.883  0.1221 -0.4626 -0.4101
 5791TIP3   OH239007   5.271   2.097   2.003 -0.4999  0.4676  0.2493
 5791TIP3    H139008   5.178   2.100   2.024 -0.4109  0.1178  0.7355
 5791TIP3    H239009   5.278   2.030   1.935 -0.6348  0.6546  0.0545
 5792TIP3   OH239010   6.410   1.912   8.563 -0.1753 -0.1344 -0.2302
 5792TIP3    H139011   6.365   1.828   8.569 -0.0434 -0.2162 -0.3697
 5792TIP3    H239012   6.476   1.909   8.632 -0.2179 -0.1155 -0.1880
 5793TIP3   OH239013   5.714   1.638   8.492 -0.3652 -0.0922  0.0155
 5793TIP3    H139014   5.720   1.626   8.587  0.9344 -0.9257 -0.1374
 5793TIP3    H239015   5.626   1.671   8.477 -0.6611 -0.1375  1.4949
 5794TIP3   OH239016   3.694   3.572   8.558 -0.6511 -0.7194  0.3701
 5794TIP3    H139017   3.631   3.516   8.604 -0.8245 -0.9643 -0.1588
 5794TIP3    H239018   3.643   3.648   8.530 -1.0271 -1.4873 -1.1444
 5795TIP3   OH239019   4.955   3.496   1.881  0.0092  0.4450 -0.1347
 5795TIP3    H139020   4.886   3.485   1.946 -1.5657  2.7039 -1.3062
 5795TIP3    H239021   4.951   3.416   1.829 -2.3922  0.8889 -0.7388
 5796TIP3   OH239022   0.052   6.108   8.389  0.1094 -0.1349  0.0048
 5796TIP3    H139023   0.078   6.157   8.311  2.4112 -0.8600  0.2350
 5796TIP3    H239024   0.010   6.029   8.356 -0.2739  0.2670 -0.4683
 5797TIP3   OH239025   6.570   0.620   0.682  0.0970  0.1759  0.6249
 5797TIP3    H139026   6.654   0.639   0.641 -0.2206  0.9253  0.2935
 5797TIP3    H239027   6.530   0.706   0.695 -0.1391 -0.1014  1.8242
 5798TIP3   OH239028   2.155   1.583   8.721 -0.2156  0.7042  0.4804
 5798TIP3    H139029   2.238   1.534   8.724  0.4536  1.4434 -2.3081
 5798TIP3    H239030   2.146   1.621   8.808  2.4909  0.7011  0.8609
 5799TIP3   OH239031   4.379   2.301   8.559  0.4466 -0.5104  0.6615
 5799TIP3    H139032   4.355   2.208   8.554  1.7397 -0.8061 -2.9408
 5799TIP3    H239033   4.474   2.300   8.567  0.7406  0.3750 -1.8915
 5800TIP3   OH239034   0.397   3.036   2.165 -0.3699  0.0902  0.3420
 5800TIP3    H139035   0.464   3.095   2.200  1.2608 -0.7194 -1.2477
 5800TIP3    H239036   0.325   3.094   2.139  0.9101  1.3394 -0.5730
 5801TIP3   OH239037   2.927   0.442   1.348 -0.1039 -0.7237  0.0436
 5801TIP3    H139038   2.844   0.395   1.355  0.2015 -1.3456 -0.4941
 5801TIP3    H239039   2.970   0.405   1.271 -0.0888  0.8042 -0.7135
 5802TIP3   OH239040   1.483   6.240   1.714  0.2069 -0.0719 -0.4479
 5802TIP3    H139041   1.511   6.332   1.705 -0.7767  0.2082 -0.7818
 5802TIP3    H239042   1.387   6.244   1.711  0.1800 -1.2741 -2.0274
 5803TIP3   OH239043   3.969   3.388   7.874  0.3369  0.1265 -0.5622
 5803TIP3    H139044   3.933   3.300   7.884  1.5284 -0.3273 -0.0361
 5803TIP3    H239045   3.950   3.411   7.783  0.8593 -1.0918 -1.0165
 5804TIP3   OH239046   5.956   4.113   1.222 -0.4572  0.5177 -0.1463
 5804TIP3    H139047   5.878   4.168   1.211 -0.6884  0.3189  0.4656
 5804TIP3    H239048   6.018   4.169   1.268 -1.2797 -0.2230  1.9749
 5805TIP3   OH239049   0.878   2.159   7.940 -0.0582  0.2758 -0.4838
 5805TIP3    H139050   0.871   2.152   7.845  1.5191 -0.9433 -0.5445
 5805TIP3    H239051   0.945   2.226   7.954  0.2858 -0.1132 -0.2519
 5806TIP3   OH239052   3.517   3.819   3.098  0.3209  0.4612  0.5660
 5806TIP3    H139053   3.603   3.858   3.111  1.5791 -1.0105 -2.3923
 5806TIP3    H239054   3.525   3.730   3.131 -0.2852  0.5052  0.8574
 5807TIP3   OH239055   6.211   1.884   3.318  0.2750  0.7968  0.3920
 5807TIP3    H139056   6.146   1.944   3.355 -0.9538  1.0189 -1.9566
 5807TIP3    H239057   6.286   1.939   3.299 -0.0459  1.1775  0.2055
 5808TIP3   OH239058   3.842   5.592   1.133  0.7547  0.5954  0.2568
 5808TIP3    H139059   3.766   5.643   1.108  0.0157 -0.5612  0.0891
 5808TIP3    H239060   3.903   5.601   1.060 -0.4765 -0.9447 -1.0222
 5809TIP3   OH239061   6.643   6.164   8.642  0.1436 -0.5300  0.0193
 5809TIP3    H139062   6.644   6.068   8.646 -2.2805 -0.6094  0.0165
 5809TIP3    H239063   6.713   6.191   8.701  0.1694 -2.2748  0.8556
 5810TIP3   OH239064   1.527   5.305   1.190 -0.1068  0.0428 -0.3440
 5810TIP3    H139065   1.582   5.357   1.248 -1.4666  0.2213  0.8445
 5810TIP3    H239066   1.441   5.346   1.195 -0.5983 -0.7898 -1.4128
 5811TIP3   OH239067   3.907   4.199   1.491  0.2296  0.6181 -0.3922
 5811TIP3    H139068   3.936   4.273   1.437 -1.5917  1.5279 -0.1913
 5811TIP3    H239069   3.987   4.149   1.506  1.4956  2.3952 -0.7668
 5812TIP3   OH239070   0.416   0.156   8.681  0.2638 -0.1475 -0.3076
 5812TIP3    H139071   0.393   0.069   8.715 -2.1509  1.0673  1.4700
 5812TIP3    H239072   0.430   0.142   8.587 -2.0592 -2.1644 -0.4448
 5813TIP3   OH239073   3.027   5.714   1.218  0.2914  0.1874  0.3895
 5813TIP3    H139074   3.030   5.744   1.309  1.9726 -1.4147  0.9269
 5813TIP3    H239075   3.117   5.722   1.187  0.3110 -1.7547 -0.2371
 5814TIP3   OH239076   2.273   0.972   1.977 -0.5055 -0.2040 -0.3380
 5814TIP3    H139077   2.304   0.893   2.021 -0.3666  0.9480  1.7789
 5814TIP3    H239078   2.349   1.005   1.930  0.2528  0.1442  1.0806
 5815TIP3   OH239079   3.153   6.185   0.411 -0.6326  0.3334 -0.2372
 5815TIP3    H139080   3.211   6.120   0.451 -1.0184 -0.1010 -0.3809
 5815TIP3    H239081   3.081   6.195   0.474 -0.9582  0.0582 -0.5592
 5816TIP3   OH239082   2.715   2.423   7.314  0.4406 -0.4455 -0.5616
 5816TIP3    H139083   2.637   2.425   7.259 -0.9447 -1.1364  1.2470
 5816TIP3    H239084   2.758   2.341   7.293  0.4842 -0.2372 -1.3072
 5817TIP3   OH239085   4.925   1.913   0.776 -0.4707  0.4119  0.0290
 5817TIP3    H139086   5.008   1.868   0.791 -0.7981 -0.1206  0.2773
 5817TIP3    H239087   4.944   1.977   0.707 -0.4275 -1.4011 -1.7332
 5818TIP3   OH239088   1.045   6.086   1.485  0.5505 -0.7300  0.9117
 5818TIP3    H139089   0.964   6.050   1.521  1.0651 -2.3265  0.5428
 5818TIP3    H239090   1.016   6.145   1.416 -0.4265  1.7175  3.2404
 5819TIP3   OH239091   0.322   5.683   7.435  0.3646 -0.1058  0.0328
 5819TIP3    H139092   0.324   5.588   7.438 -2.0955 -0.2920 -1.4479
 5819TIP3    H239093   0.385   5.706   7.367  0.2036 -0.7698 -0.3515
 5820TIP3   OH239094   6.505   3.948   2.872 -0.4357  0.4494 -0.3451
 5820TIP3    H139095   6.559   3.992   2.807  1.9557 -0.7603  0.7021
 5820TIP3    H239096   6.511   4.004   2.950  1.6463 -1.0149  0.6192
 5821TIP3   OH239097   3.520   3.589   1.085 -0.0434 -0.0669 -0.1910
 5821TIP3    H139098   3.545   3.514   1.139  2.7090  0.3073 -0.7884
 5821TIP3    H239099   3.448   3.557   1.030 -0.8878 -1.3346  1.5515
 5822TIP3   OH239100   2.411   6.850   7.827  0.4475 -0.7752  0.4084
 5822TIP3    H139101   2.329   6.844   7.779  1.1116 -1.5397 -0.6591
 5822TIP3    H239102   2.421   6.765   7.870  0.8100 -0.7899  0.3046
 5823TIP3   OH239103   4.333   0.558   1.232 -0.7440  0.0992  0.0061
 5823TIP3    H139104   4.341   0.606   1.150 -1.3757 -1.1980 -0.8461
 5823TIP3    H239105   4.296   0.621   1.294 -1.9828  0.5897 -1.2025
 5824TIP3   OH239106   4.049   1.900   0.018  0.6423 -0.4020 -0.0197
 5824TIP3    H139107   3.990   1.869   0.086  0.1413 -0.3852 -0.4459
 5824TIP3    H239108   4.002   1.973  -0.023  1.5313  0.5124  0.5505
 5825TIP3   OH239109   6.552   5.532   0.732  0.3470 -0.0015 -0.2280
 5825TIP3    H139110   6.503   5.608   0.701  1.9453  0.0359 -2.9386
 5825TIP3    H239111   6.493   5.458   0.718  0.0775  0.3412 -0.9688
 5826TIP3   OH239112   5.661   0.482   1.805 -0.3564 -0.6373 -0.4392
 5826TIP3    H139113   5.590   0.462   1.745  0.4092 -0.3849 -1.4571
 5826TIP3    H239114   5.618   0.517   1.883 -1.3360 -0.3210 -1.1105
 5827TIP3   OH239115   3.059   2.711   8.119  0.2940 -0.3013 -0.1661
 5827TIP3    H139116   3.008   2.767   8.060  1.6912  1.0667 -0.1502
 5827TIP3    H239117   3.101   2.647   8.062 -2.6286 -2.5110 -0.0181
 5828TIP3   OH239118   3.907   1.102   3.496 -0.0019  0.0944 -0.2812
 5828TIP3    H139119   3.980   1.113   3.556  0.1395 -1.8177 -0.0296
 5828TIP3    H239120   3.928   1.157   3.421  2.1800 -1.0893 -0.6171
 5829TIP3   OH239121   5.913   3.906   1.524 -0.2200 -0.1482  0.5497
 5829TIP3    H139122   5.990   3.860   1.558 -0.6766 -0.4964  1.1394
 5829TIP3    H239123   5.885   3.961   1.597 -0.8086 -0.3756  0.4953
 5830TIP3   OH239124   1.778   4.223   1.509  0.3149 -0.3122  0.1247
 5830TIP3    H139125   1.745   4.242   1.597 -0.0207 -1.7729  0.3445
 5830TIP3    H239126   1.873   4.238   1.516  0.1734  0.4464  0.4802
 5831TIP3   OH239127   6.615   3.910   1.184  0.5791  0.1702  0.3754
 5831TIP3    H139128   6.527   3.929   1.153  0.0509 -0.1825  1.6303
 5831TIP3    H239129   6.645   3.837   1.129 -0.1016 -0.0504  0.2987
 5832TIP3   OH239130   3.723   2.536   2.280 -0.0411  0.3149 -0.1170
 5832TIP3    H139131   3.700   2.614   2.330  1.4321  1.4520 -1.1444
 5832TIP3    H239132   3.772   2.569   2.205  0.7896 -1.6212 -0.4852
 5833TIP3   OH239133   4.382   3.095   1.402  0.4443 -0.2808  0.1942
 5833TIP3    H139134   4.380   3.061   1.313  0.5196 -1.1385  0.5157
 5833TIP3    H239135   4.310   3.158   1.405  0.8786  0.2749 -0.6688
 5834TIP3   OH239136   4.250   2.987   7.879  0.0999 -0.0591 -0.1250
 5834TIP3    H139137   4.298   2.914   7.918 -1.8122 -1.2213  0.1835
 5834TIP3    H239138   4.267   2.980   7.785  1.3755  0.2308  0.0648
 5835TIP3   OH239139   3.605   0.644   8.747  0.0678  0.1792  0.6860
 5835TIP3    H139140   3.546   0.594   8.804 -1.4123  1.1744  0.0985
 5835TIP3    H239141   3.652   0.578   8.697 -0.3551 -0.6593  1.3631
 5836TIP3   OH239142   4.444   5.055   8.757 -0.1428  0.2107 -0.2902
 5836TIP3    H139143   4.435   4.987   8.823 -1.4171 -0.1791 -0.8265
 5836TIP3    H239144   4.478   5.131   8.804  2.9270 -1.2310  0.0189
 5837TIP3   OH239145   3.315   4.659   2.675 -0.3422  0.3426 -0.8820
 5837TIP3    H139146   3.373   4.676   2.749 -0.8202 -2.7534  0.3647
 5837TIP3    H239147   3.363   4.689   2.598  1.7318  0.3141  0.3479
 5838TIP3   OH239148   4.378   3.451   1.319  0.1043 -0.4276  0.1728
 5838TIP3    H139149   4.322   3.374   1.327 -0.9360  0.2283 -0.5977
 5838TIP3    H239150   4.444   3.439   1.387  0.0844 -2.0865 -0.0366
 5839TIP3   OH239151   0.151   1.310   2.265  0.1273  0.3156 -0.5087
 5839TIP3    H139152   0.153   1.400   2.298 -0.4086  0.6602 -1.3904
 5839TIP3    H239153   0.095   1.264   2.327  0.3865  0.5861 -0.0619
 5840TIP3   OH239154   1.815   2.593   1.371 -0.4075 -0.3647 -0.5342
 5840TIP3    H139155   1.842   2.604   1.462 -1.3432  2.3811 -0.4984
 5840TIP3    H239156   1.864   2.517   1.341  1.1747 -0.3774  1.7740
 5841TIP3   OH239157   5.892   5.977   7.947  0.0101 -0.1056 -0.0356
 5841TIP3    H139158   5.926   5.936   7.867 -0.3086 -0.2628 -0.0905
 5841TIP3    H239159   5.816   5.924   7.970  0.6662 -0.6772  0.9248
 5842TIP3   OH239160   6.523   4.235   2.819 -0.1964  0.1072 -0.3301
 5842TIP3    H139161   6.496   4.293   2.889  1.1232  2.3742 -1.5843
 5842TIP3    H239162   6.542   4.293   2.745  0.6380 -1.9668 -1.8593
 5843TIP3   OH239163   1.657   2.518   7.870 -0.1128 -0.8623 -0.0514
 5843TIP3    H139164   1.646   2.560   7.784 -0.4251  0.9962  0.8427
 5843TIP3    H239165   1.589   2.557   7.924  0.6618 -1.3150  1.2822
 5844TIP3   OH239166   0.458   5.501   8.654  1.1076 -0.5510  0.6499
 5844TIP3    H139167   0.550   5.480   8.637  0.1947 -3.6223 -1.2489
 5844TIP3    H239168   0.425   5.426   8.703 -0.7889 -0.3719 -0.2701
 5845TIP3   OH239169   0.727   1.453   7.524  0.3149 -0.1724  0.1069
 5845TIP3    H139170   0.654   1.507   7.493 -0.1371  0.1617  1.6610
 5845TIP3    H239171   0.725   1.376   7.467 -0.3067  0.5125 -0.8314
 5846TIP3   OH239172   3.174   0.874   1.448 -0.5265 -0.3065  0.2307
 5846TIP3    H139173   3.115   0.802   1.429 -2.0404  1.2406 -1.3328
 5846TIP3    H239174   3.117   0.946   1.475  0.8396  0.5783  0.8924
 5847TIP3   OH239175   2.660   1.835   2.620 -0.0382  0.0120  0.3065
 5847TIP3    H139176   2.613   1.818   2.701  1.0215 -0.1895  0.8971
 5847TIP3    H239177   2.606   1.899   2.573 -0.5110  0.3558  1.3040
 5848TIP3   OH239178   3.078   4.419   3.007  0.3442 -0.2606 -0.8930
 5848TIP3    H139179   3.009   4.480   3.029 -1.2140 -0.4146 -4.5778
 5848TIP3    H239180   3.153   4.474   2.984  0.3051  0.0543 -0.2784
 5849TIP3   OH239181   2.141   1.832   7.395  0.2666  0.9621  0.2799
 5849TIP3    H139182   2.226   1.820   7.437  0.0278  1.7219  1.0128
 5849TIP3    H239183   2.148   1.916   7.351  0.2442  0.5343 -0.5527
 5850TIP3   OH239184   3.021   4.478   2.308  0.1357 -0.0096  0.6195
 5850TIP3    H139185   3.037   4.418   2.235 -0.1844  0.9874 -0.2986
 5850TIP3    H239186   3.105   4.484   2.354  0.5278 -0.1165 -0.0812
 5851TIP3   OH239187   2.328   3.203   3.106  0.4900 -0.1774  0.6870
 5851TIP3    H139188   2.278   3.185   3.027  0.5740  0.1308  0.5621
 5851TIP3    H239189   2.280   3.160   3.176 -0.6090  1.1084  0.7602
 5852TIP3   OH239190   5.656   0.829   2.229  0.2140  0.2557 -0.1889
 5852TIP3    H139191   5.657   0.921   2.255  1.6171  0.1585  0.1402
 5852TIP3    H239192   5.714   0.824   2.153 -0.7331 -0.1818 -0.9172
 5853TIP3   OH239193   5.531   2.587   2.787 -0.1129 -0.2144  0.6711
 5853TIP3    H139194   5.518   2.682   2.782  0.9121 -0.1346 -1.1901
 5853TIP3    H239195   5.623   2.576   2.811  0.0213 -0.7351 -0.0640
 5854TIP3   OH239196   0.704   4.561   2.322 -0.3008  0.0268 -0.4048
 5854TIP3    H139197   0.638   4.572   2.390 -1.7325  0.2180 -1.7794
 5854TIP3    H239198   0.746   4.646   2.316  1.0052 -0.4289  1.3389
 5855TIP3   OH239199   0.634   0.022   7.879 -0.3403 -0.2073 -0.0347
 5855TIP3    H139200   0.591   0.085   7.822 -2.5468 -1.5189  0.0329
 5855TIP3    H239201   0.691  -0.028   7.821  0.6880  1.1670 -0.2575
 5856TIP3   OH239202   1.208   3.975   8.440 -0.0917 -0.5388  0.1702
 5856TIP3    H139203   1.179   3.927   8.517 -0.6582 -1.7414 -0.7470
 5856TIP3    H239204   1.241   4.059   8.474  0.3611 -1.3237  1.7590
 5857TIP3   OH239205   0.345   6.011   2.117 -0.2830 -0.5044 -0.2056
 5857TIP3    H139206   0.277   5.949   2.142  1.1888 -2.1629 -0.1521
 5857TIP3    H239207   0.399   5.964   2.053  0.8186  0.7449 -0.2426
 5858TIP3   OH239208   4.376   1.453   8.739 -0.4017 -0.0523 -0.6107
 5858TIP3    H139209   4.414   1.367   8.755  4.5793  1.3060 -2.9765
 5858TIP3    H239210   4.415   1.509   8.807 -3.4363  0.5420  0.8063
 5859TIP3   OH239211   4.745   5.872   0.199 -1.0482 -0.2925 -0.3027
 5859TIP3    H139212   4.684   5.920   0.254 -0.3948  1.2942 -0.8677
 5859TIP3    H239213   4.734   5.911   0.112  0.2082 -0.4758 -0.5747
 5860TIP3   OH239214   0.727   6.187   1.096 -0.1401  0.0674  0.2144
 5860TIP3    H139215   0.707   6.280   1.098 -1.2593 -0.1623  0.4502
 5860TIP3    H239216   0.696   6.157   1.011 -1.4196 -0.4099  0.8139
 5861TIP3   OH239217   1.203   1.240   8.711  0.3786 -0.1167 -0.1755
 5861TIP3    H139218   1.157   1.315   8.748 -0.1118 -1.0161  1.1188
 5861TIP3    H239219   1.293   1.250   8.742  0.0812 -0.5974  0.9155
 5862TIP3   OH239220   5.591   0.524   3.606  0.1500 -0.2106  0.2503
 5862TIP3    H139221   5.516   0.581   3.627  0.0460 -0.3438  0.2419
 5862TIP3    H239222   5.553   0.436   3.600  0.5515 -0.4989  1.6933
 5863TIP3   OH239223   2.557   6.039   0.927  0.4567  0.3408  0.0354
 5863TIP3    H139224   2.635   6.073   0.883  0.9886  0.7088  1.2214
 5863TIP3    H239225   2.526   6.112   0.981 -0.6432  0.1583 -0.3207
 5864TIP3   OH239226   6.428   3.792   0.584 -0.7564  0.2411  0.3966
 5864TIP3    H139227   6.352   3.813   0.639 -0.4646 -1.0167  1.3408
 5864TIP3    H239228   6.502   3.793   0.645 -0.1628  0.5053 -0.3203
 5865TIP3   OH239229   3.255   1.375   2.012 -0.4082  0.6329  0.2108
 5865TIP3    H139230   3.277   1.407   2.100 -0.1879  0.8082  0.0932
 5865TIP3    H239231   3.338   1.378   1.965 -0.4030 -0.0292  0.1725
 5866TIP3   OH239232   1.947   5.087   1.727 -0.5737  0.2952 -0.3121
 5866TIP3    H139233   1.965   5.121   1.639  0.5844 -0.1043 -0.2472
 5866TIP3    H239234   2.027   5.042   1.752 -0.6489  0.9410  1.2159
 5867TIP3   OH239235   3.763   4.706   2.991 -0.4681  0.7091 -0.2983
 5867TIP3    H139236   3.828   4.693   2.923 -0.4222 -0.7341 -0.0140
 5867TIP3    H239237   3.765   4.626   3.043 -2.7949  0.3945 -0.5699
 5868TIP3   OH239238   0.804   1.298   2.472  0.0380  0.4386  0.2495
 5868TIP3    H139239   0.748   1.345   2.533  0.8975 -0.4990  1.8359
 5868TIP3    H239240   0.744   1.246   2.420 -0.8665  2.5826 -0.9959
 5869TIP3   OH239241   1.589   6.165   2.254  0.4985 -0.3509  0.3108
 5869TIP3    H139242   1.661   6.102   2.256 -0.5009 -1.5837 -0.8055
 5869TIP3    H239243   1.523   6.124   2.199 -0.2370  1.6568 -0.3805
 5870TIP3   OH239244   5.466   1.436   0.506 -0.1452  0.3167  0.2413
 5870TIP3    H139245   5.378   1.467   0.484 -0.8658 -1.7110  0.1002
 5870TIP3    H239246   5.506   1.511   0.551 -2.9484  0.4235  2.9814
 5871TIP3   OH239247   0.231   1.717   2.206 -0.3746  0.3343 -0.5671
 5871TIP3    H139248   0.276   1.788   2.252 -0.3430  1.2080 -1.9052
 5871TIP3    H239249   0.179   1.761   2.139 -3.9582 -0.5348  1.4194
 5872TIP3   OH239250   3.942   3.206   7.576  0.3654 -0.8849 -0.0721
 5872TIP3    H139251   3.914   3.291   7.609  0.7127 -1.1727  1.0147
 5872TIP3    H239252   3.860   3.157   7.565  0.2395 -0.7514  0.2702
 5873TIP3   OH239253   2.221   4.191   0.872 -0.9691  0.2843 -0.0946
 5873TIP3    H139254   2.180   4.241   0.802 -2.3668  0.4230  0.7694
 5873TIP3    H239255   2.188   4.232   0.952  1.8864  1.2223  0.7084
 5874TIP3   OH239256   0.255   1.655   0.070 -0.1910 -0.1212  0.2251
 5874TIP3    H139257   0.263   1.618  -0.018 -0.4401  1.6521 -0.5911
 5874TIP3    H239258   0.340   1.694   0.088 -0.5254  0.6301  0.2263
 5875TIP3   OH239259   0.124   6.752   7.844 -0.9542  0.2302 -0.1014
 5875TIP3    H139260   0.137   6.669   7.798 -2.2412  1.1435 -2.2716
 5875TIP3    H239261   0.193   6.809   7.810  0.0367  0.0706  1.5141
 5876TIP3   OH239262   0.915   6.289   2.644 -0.0265 -0.1712 -0.6374
 5876TIP3    H139263   0.838   6.235   2.629  0.4688 -1.5144  1.2804
 5876TIP3    H239264   0.890   6.347   2.715  0.8338 -0.9488  0.3351
 5877TIP3   OH239265   5.307   0.535   2.570  0.2686 -0.0746 -0.1509
 5877TIP3    H139266   5.237   0.543   2.505  0.6584  1.4178 -0.4129
 5877TIP3    H239267   5.378   0.589   2.536  0.9036 -0.1800  0.9701
 5878TIP3   OH239268   6.564   1.360   2.955 -0.4830  0.6573  0.2987
 5878TIP3    H139269   6.623   1.410   2.898 -0.3875  0.0122 -0.1747
 5878TIP3    H239270   6.622   1.319   3.019 -0.4296  0.0987 -0.1094
 5879TIP3   OH239271   5.153   3.072   8.422 -0.2423 -0.1859  0.4779
 5879TIP3    H139272   5.060   3.059   8.438 -0.1005  0.3813  1.8923
 5879TIP3    H239273   5.156   3.134   8.349 -0.9184 -2.1058 -1.2701
 5880TIP3   OH239274   6.163   2.048   0.625 -0.0340  0.3292  0.4247
 5880TIP3    H139275   6.171   1.958   0.655  0.9300 -0.3205 -1.5878
 5880TIP3    H239276   6.253   2.073   0.601 -0.2822  1.8384  0.9834
 5881TIP3   OH239277   0.219   2.703   1.727 -0.2550  0.4378 -0.2264
 5881TIP3    H139278   0.187   2.793   1.714 -1.3746  0.5332  2.5156
 5881TIP3    H239279   0.144   2.657   1.764  1.3002 -0.7242  1.5976
 5882TIP3   OH239280   5.316   4.192   1.125 -0.1927  0.4488  0.0036
 5882TIP3    H139281   5.302   4.104   1.158  0.8374  0.0286 -0.6136
 5882TIP3    H239282   5.228   4.227   1.112 -0.6661  0.7028  3.1973
 5883TIP3   OH239283   2.978   3.781   7.411  0.1682  0.0797 -0.0188
 5883TIP3    H139284   3.018   3.867   7.424 -0.8744  0.3523  1.7450
 5883TIP3    H239285   2.886   3.801   7.391  0.2607 -0.6012 -1.1671
 5884TIP3   OH239286   5.572   2.120   8.412  0.2042  0.2948 -0.2994
 5884TIP3    H139287   5.638   2.188   8.405 -1.2063  1.5974 -1.9802
 5884TIP3    H239288   5.534   2.115   8.324 -1.1221 -1.2271  0.3115
 5885TIP3   OH239289   1.834   4.648   8.542 -0.1374  0.4876  0.2292
 5885TIP3    H139290   1.834   4.591   8.465  1.1406  2.0829 -1.0299
 5885TIP3    H239291   1.758   4.619   8.593 -1.4871 -0.1468 -1.9912
 5886TIP3   OH239292   4.932   6.312   1.507  0.2864  0.6403  0.2718
 5886TIP3    H139293   4.955   6.402   1.486  1.0887  0.2497 -0.5466
 5886TIP3    H239294   5.009   6.260   1.484 -0.8907 -0.5235 -1.2365
 5887TIP3   OH239295   1.594   5.756   7.526 -0.8501  0.0242 -0.0130
 5887TIP3    H139296   1.649   5.833   7.536  0.4563 -0.7375 -1.0993
 5887TIP3    H239297   1.511   5.790   7.492 -0.4266  0.9868 -0.1215
 5888TIP3   OH239298   0.898   1.741   0.070 -0.0732 -0.3042 -0.0991
 5888TIP3    H139299   0.840   1.690   0.014  0.3525 -0.3413 -0.5130
 5888TIP3    H239300   0.880   1.832   0.047 -1.7987 -0.1490  1.5768
 5889TIP3   OH239301   0.732   1.672   7.673 -0.2359  0.0193  0.1752
 5889TIP3    H139302   0.734   1.741   7.607  1.8477  2.3073  2.4463
 5889TIP3    H239303   0.752   1.592   7.625  2.2278  1.7190 -1.8474
 5890TIP3   OH239304   0.688   2.062   0.314  0.0329  0.3966  0.2217
 5890TIP3    H139305   0.636   2.083   0.392 -0.5780  2.6929 -0.7206
 5890TIP3    H239306   0.671   2.134   0.253 -0.9873 -2.2141 -2.8361
 5891TIP3   OH239307   1.492   4.856   1.931  1.2339 -0.3163  0.1640
 5891TIP3    H139308   1.435   4.933   1.940  1.8433 -0.0613  2.4988
 5891TIP3    H239309   1.558   4.882   1.867 -0.6498 -0.2944 -1.9143
 5892TIP3   OH239310   0.276   5.891   3.014 -0.0384 -0.2913 -0.1501
 5892TIP3    H139311   0.268   5.811   2.963 -1.8483 -1.1200  1.3272
 5892TIP3    H239312   0.214   5.880   3.086  2.8455  0.5330  2.6631
 5893TIP3   OH239313   0.916   2.768   0.818 -0.1059  0.7420  0.3926
 5893TIP3    H139314   0.851   2.806   0.759 -1.6407 -1.2238  0.6799
 5893TIP3    H239315   0.937   2.683   0.779 -1.3598 -0.7366  2.6585
 5894TIP3   OH239316   6.160   5.858   2.113  0.3450 -0.3268 -0.0081
 5894TIP3    H139317   6.173   5.941   2.067 -0.9283 -1.0264 -1.7701
 5894TIP3    H239318   6.247   5.833   2.143  1.1964  0.4033 -1.7128
 5895TIP3   OH239319   5.143   5.251   1.076 -0.6703 -0.3647 -0.3887
 5895TIP3    H139320   5.127   5.326   1.019 -1.9407 -0.1691  0.2020
 5895TIP3    H239321   5.066   5.195   1.065 -2.4129  0.9808  3.1313
 5896TIP3   OH239322   5.839   4.070   2.162 -0.2760  0.2364 -0.0406
 5896TIP3    H139323   5.884   4.149   2.131  0.4408 -0.2144 -0.1754
 5896TIP3    H239324   5.868   4.001   2.102 -0.5183 -0.2230  0.3649
 5897TIP3   OH239325   1.331   3.302   1.302 -0.7789  0.2334 -1.0357
 5897TIP3    H139326   1.295   3.219   1.271  1.1260 -0.4908 -1.4342
 5897TIP3    H239327   1.264   3.336   1.361 -0.0298 -3.5874  2.4714
 5898TIP3   OH239328   3.398   3.470   0.888  0.5247 -0.5247 -0.0266
 5898TIP3    H139329   3.413   3.382   0.855  0.8781  0.0694 -1.5274
 5898TIP3    H239330   3.340   3.511   0.823  0.3386  0.3426  0.6531
 5899TIP3   OH239331   2.125   4.653   8.180 -0.0594 -0.2732  0.5930
 5899TIP3    H139332   2.212   4.614   8.167 -0.5015 -0.9052 -0.6395
 5899TIP3    H239333   2.088   4.658   8.092 -0.8976  0.9160  0.9922
 5900TIP3   OH239334   2.269   3.109   2.432  0.5254 -0.4846 -0.1793
 5900TIP3    H139335   2.295   3.130   2.522  0.3985  1.0932 -0.4764
 5900TIP3    H239336   2.191   3.055   2.441  0.3430 -0.0962  0.6670
 5901TIP3   OH239337   6.488   6.460   0.897 -0.3671 -0.4234  0.0592
 5901TIP3    H139338   6.450   6.502   0.820  0.0440 -1.8977 -0.9682
 5901TIP3    H239339   6.412   6.439   0.952 -1.0537 -2.5067 -1.5616
 5902TIP3   OH239340   6.757   3.455   0.929 -0.6331 -0.4430  0.0366
 5902TIP3    H139341   6.849   3.429   0.932  0.0251  1.6832 -0.0006
 5902TIP3    H239342   6.748   3.519   1.000 -1.4965  1.0175 -1.3171
 5903TIP3   OH239343   2.059   4.341   0.037 -0.5461 -0.1746  0.2925
 5903TIP3    H139344   2.121   4.392  -0.015 -0.2414 -2.1520 -1.4379
 5903TIP3    H239345   2.115   4.284   0.090 -0.8476  1.8933  3.0555
 5904TIP3   OH239346   6.547   2.297   2.059  0.0468  0.0679  0.4808
 5904TIP3    H139347   6.454   2.320   2.068  0.2500  0.3140  2.2269
 5904TIP3    H239348   6.569   2.325   1.970 -1.6508 -0.3863 -0.1383
 5905TIP3   OH239349   6.248   3.305   8.242 -0.4441  0.0465 -0.1773
 5905TIP3    H139350   6.198   3.291   8.322  0.6095  0.2773  0.5425
 5905TIP3    H239351   6.208   3.383   8.203  0.5823  1.4742  1.4424
 5906TIP3   OH239352   4.782   1.706   1.519 -0.2585 -0.4477  0.1178
 5906TIP3    H139353   4.758   1.630   1.571  0.6177  0.0373  1.3034
 5906TIP3    H239354   4.752   1.781   1.571  1.4099  0.0790  0.4016
 5907TIP3   OH239355   6.001   4.782   1.462  0.5255 -0.5114  0.3346
 5907TIP3    H139356   6.068   4.723   1.429  0.4333  0.0123 -0.8368
 5907TIP3    H239357   6.033   4.809   1.548  3.0391  1.6078 -1.1467
 5908TIP3   OH239358   3.245   5.012   2.489 -0.0737 -0.4067 -0.3913
 5908TIP3    H139359   3.167   5.016   2.433 -0.3272 -0.8702 -0.0785
 5908TIP3    H239360   3.281   4.925   2.474 -0.5330 -0.7997  0.6742
 5909TIP3   OH239361   6.370   0.646   7.260 -0.3581 -0.0788 -1.1256
 5909TIP3    H139362   6.303   0.693   7.310 -0.2743 -0.4568 -0.6539
 5909TIP3    H239363   6.320   0.587   7.203 -0.4193 -0.7459 -0.3902
 5910TIP3   OH239364   3.975   4.935   3.376 -0.1479 -0.0088  0.4524
 5910TIP3    H139365   4.034   4.968   3.309 -0.2833  0.2269  0.4487
 5910TIP3    H239366   4.004   4.845   3.391  0.5783  0.2872  0.8678
 5911TIP3   OH239367   4.127   6.087   0.606 -0.3452 -0.1891  0.2544
 5911TIP3    H139368   4.130   6.065   0.513 -0.1122 -1.3234  0.5136
 5911TIP3    H239369   4.114   6.182   0.608 -0.5099 -0.1724 -0.9291
 5912TIP3   OH239370   0.135   2.703   8.382 -1.4880 -0.3158 -0.2652
 5912TIP3    H139371   0.095   2.618   8.399  0.1235 -1.6394 -2.6418
 5912TIP3    H239372   0.151   2.705   8.288  0.4169  1.7770  0.0130
 5913TIP3   OH239373   6.448   1.545   3.119 -0.2618  0.3260  0.1794
 5913TIP3    H139374   6.493   1.493   3.052  0.7897  0.6579  0.6090
 5913TIP3    H239375   6.518   1.588   3.167 -1.0484  0.8345  0.9007
 5914TIP3   OH239376   3.984   3.434   0.723 -0.0342  0.4102  0.9701
 5914TIP3    H139377   4.005   3.495   0.793  0.0882  1.2044  0.2530
 5914TIP3    H239378   3.970   3.489   0.646  1.7286 -0.5358 -0.1015
 5915TIP3   OH239379   0.534   0.583   7.449  0.4903 -0.0906  0.1012
 5915TIP3    H139380   0.491   0.669   7.460 -1.0642 -0.7098 -0.7585
 5915TIP3    H239381   0.496   0.529   7.518 -0.7129 -0.8433 -1.1017
 5916TIP3   OH239382   5.927   2.574   8.191 -0.0538  0.6052  0.2454
 5916TIP3    H139383   5.972   2.491   8.173 -2.1928 -0.9396  1.4351
 5916TIP3    H239384   5.966   2.636   8.130 -0.8726 -2.1655 -3.5146
 5917TIP3   OH239385   3.353   3.478   1.974  0.4763 -0.1560  0.0888
 5917TIP3    H139386   3.284   3.436   2.026 -0.9309  0.1231 -1.4459
 5917TIP3    H239387   3.329   3.459   1.883  1.4382  1.4676 -0.5456
 5918TIP3   OH239388   5.606   1.470   0.200 -0.0469 -0.0029 -0.7454
 5918TIP3    H139389   5.531   1.458   0.258  0.0993 -1.3437 -0.8134
 5918TIP3    H239390   5.671   1.408   0.231  1.3594  1.6878 -0.1945
 5919TIP3   OH239391   6.084   5.375   1.927 -0.2808 -0.4501  0.1945
 5919TIP3    H139392   6.114   5.299   1.977  1.0218 -0.6046 -0.7881
 5919TIP3    H239393   6.064   5.440   1.994  1.4318 -0.6519  0.9616
 5920TIP3   OH239394   6.310   3.532   1.096 -0.3506 -0.5209 -0.2977
 5920TIP3    H139395   6.215   3.519   1.092 -0.3982 -0.0291 -0.9948
 5920TIP3    H239396   6.328   3.555   1.187 -1.0260  0.2967 -0.3637
 5921TIP3   OH239397   0.139   0.115   0.236 -0.2150  0.0652  0.0359
 5921TIP3    H139398   0.048   0.131   0.210 -0.2906 -0.3495  0.0278
 5921TIP3    H239399   0.178   0.072   0.159 -0.3412 -0.8427  0.4672
 5922TIP3   OH239400   5.402   2.382   0.113 -0.3782 -0.6183  0.2848
 5922TIP3    H139401   5.376   2.469   0.084  2.2711  0.7949  1.7576
 5922TIP3    H239402   5.320   2.333   0.120 -1.8933  1.5519 -1.0755
 5923TIP3   OH239403   0.029   0.238   2.879  0.0878  0.4618 -0.2709
 5923TIP3    H139404   0.084   0.223   2.802  0.9015 -1.0630  0.5656
 5923TIP3    H239405  -0.058   0.208   2.853  0.0805  1.0646 -0.9711
 5924TIP3   OH239406   4.556   3.017   1.898  0.0890 -0.2290  0.5341
 5924TIP3    H139407   4.477   3.028   1.845 -0.1149 -0.4009  0.8005
 5924TIP3    H239408   4.626   3.005   1.834 -0.2924 -1.3761  0.3187
 5925TIP3   OH239409   3.747   4.926   0.678  0.2857 -0.0576  0.1226
 5925TIP3    H139410   3.722   5.017   0.692 -1.4822 -0.4443 -0.2511
 5925TIP3    H239411   3.794   4.901   0.757  0.6864  1.1260  0.2836
 5926TIP3   OH239412   1.110   3.019   0.016  0.1479  0.3071  0.0191
 5926TIP3    H139413   1.170   3.092   0.028 -0.1795  0.6399 -0.3014
 5926TIP3    H239414   1.145   2.949   0.070 -0.6305  1.3523  1.9556
 5927TIP3   OH239415   1.824   1.594   7.940 -0.1962 -0.5974 -0.0248
 5927TIP3    H139416   1.895   1.565   7.883  1.1017  0.9353  0.7391
 5927TIP3    H239417   1.841   1.687   7.955 -1.0877 -0.7035  1.9979
 5928TIP3   OH239418   0.787   2.926   0.628 -0.5623  0.3405 -0.3305
 5928TIP3    H139419   0.765   3.019   0.634 -0.9656  0.2212  0.0380
 5928TIP3    H239420   0.883   2.924   0.635 -0.6531  0.3313  5.9768
 5929TIP3   OH239421   4.605   4.721   3.081 -0.2810  0.1903  0.1338
 5929TIP3    H139422   4.634   4.682   3.164  0.5361  0.7844  0.1479
 5929TIP3    H239423   4.513   4.695   3.073 -0.8470  1.3423  1.9958
 5930TIP3   OH239424   2.244   6.651   3.082  0.6250  0.2761  0.1867
 5930TIP3    H139425   2.265   6.562   3.110  1.1298  0.2303 -0.3267
 5930TIP3    H239426   2.148   6.655   3.087  0.6788  0.3525  2.1300
 5931TIP3   OH239427   0.657   4.290   1.108 -0.4417 -0.6853  0.3039
 5931TIP3    H139428   0.736   4.331   1.072 -0.9071 -0.1238 -0.0968
 5931TIP3    H239429   0.635   4.222   1.045 -0.2614 -0.8638  0.4324
 5932TIP3   OH239430   1.294   6.608   1.621  0.2158 -0.5443 -0.2576
 5932TIP3    H139431   1.227   6.662   1.663 -0.6084 -1.7646  0.0364
 5932TIP3    H239432   1.362   6.597   1.687  2.0461  2.8170 -1.3437
 5933TIP3   OH239433   5.800   5.626   3.354 -0.3214 -0.1380  0.0266
 5933TIP3    H139434   5.790   5.720   3.364  0.9605  0.1668 -1.3513
 5933TIP3    H239435   5.884   5.606   3.394  0.2618 -0.4008 -1.2979
 5934TIP3   OH239436   6.269   2.066   8.135  0.1228  0.2156 -0.9901
 5934TIP3    H139437   6.240   1.991   8.083 -0.3266 -0.1114 -0.2836
 5934TIP3    H239438   6.363   2.054   8.144 -0.0747 -0.8376 -0.0301
 5935TIP3   OH239439   1.310   5.075   1.992 -0.2923  0.3699  0.1487
 5935TIP3    H139440   1.356   5.132   1.930  0.5704 -0.3721  0.0799
 5935TIP3    H239441   1.295   5.130   2.069  0.2982  0.7560 -0.0076
 5936TIP3   OH239442   6.816   0.579   0.537  0.1646  0.3146 -0.2414
 5936TIP3    H139443   6.912   0.571   0.545  0.0215 -0.2100  1.3423
 5936TIP3    H239444   6.803   0.644   0.468  1.6866  1.3098  0.3512
 5937TIP3   OH239445   4.599   6.273   8.177  0.5826  0.1267 -0.5401
 5937TIP3    H139446   4.561   6.353   8.213  0.9507 -0.1351  0.4641
 5937TIP3    H239447   4.613   6.292   8.084  0.1691  1.0288 -0.4267
 5938TIP3   OH239448   0.766   1.742   0.931  0.4538  0.4403  0.5842
 5938TIP3    H139449   0.712   1.817   0.955 -1.2467  0.0283 -1.6127
 5938TIP3    H239450   0.822   1.774   0.861 -0.3212 -0.3009 -0.4090
 5939TIP3   OH239451   5.872   2.127   8.551 -0.2470  0.1921  0.0646
 5939TIP3    H139452   5.960   2.112   8.586 -0.9200  0.8194  2.2113
 5939TIP3    H239453   5.824   2.047   8.573 -0.0544 -0.4969 -1.8455
 5940TIP3   OH239454   5.943   4.042   8.443 -0.0530 -0.4071  0.6364
 5940TIP3    H139455   6.015   4.103   8.463 -1.6606  2.2544 -0.9450
 5940TIP3    H239456   5.920   4.062   8.352 -1.9870 -2.0506  0.6879
 5941TIP3   OH239457   6.068   0.176   8.633 -0.0620  0.5146 -0.3470
 5941TIP3    H139458   5.975   0.197   8.629  0.2809  2.3335  0.2793
 5941TIP3    H239459   6.099   0.223   8.711  0.8106 -2.4797  1.2881
 5942TIP3   OH239460   1.673   6.002   1.132  0.0894  0.4264 -0.2119
 5942TIP3    H139461   1.664   6.092   1.165  1.3219 -0.2697  2.2687
 5942TIP3    H239462   1.659   5.947   1.209  3.8890 -1.3223 -0.5477
 5943TIP3   OH239463   0.878   0.963   7.870  0.1976 -0.1005 -0.1579
 5943TIP3    H139464   0.824   0.992   7.797  2.9790  1.7103 -1.6706
 5943TIP3    H239465   0.845   0.876   7.891 -3.0182  0.7348 -1.1291
 5944TIP3   OH239466   4.765   1.434   8.443  0.5960 -0.2719 -0.7614
 5944TIP3    H139467   4.813   1.358   8.476  0.3107  0.1031  0.5763
 5944TIP3    H239468   4.785   1.437   8.350  0.4967 -2.0881 -0.8777
 5945TIP3   OH239469   2.573   5.785   0.128 -0.1867  0.0444 -0.1888
 5945TIP3    H139470   2.496   5.764   0.074  0.0554 -2.6324  0.3638
 5945TIP3    H239471   2.586   5.707   0.182  1.9648  1.0846  0.9107
 5946TIP3   OH239472   4.312   3.948   0.937  0.6371 -0.0908  0.2224
 5946TIP3    H139473   4.244   3.973   0.874  0.7182  1.5205  0.7305
 5946TIP3    H239474   4.288   3.859   0.964  0.3674 -0.6619 -1.7454
 5947TIP3   OH239475   1.420   5.727   1.057  0.0378 -0.0900  0.3999
 5947TIP3    H139476   1.372   5.733   1.140  0.9921  0.7568  0.9108
 5947TIP3    H239477   1.355   5.751   0.991 -0.6954 -0.6191  0.9019
 5948TIP3   OH239478   4.552   2.918   2.442  0.3750  0.0480 -0.0409
 5948TIP3    H139479   4.550   3.002   2.396  0.7925  0.4743  0.7107
 5948TIP3    H239480   4.507   2.858   2.382  0.4308  0.7076 -0.7667
 5949TIP3   OH239481   0.815   2.392   8.179  0.0562  0.2195 -0.6449
 5949TIP3    H139482   0.750   2.424   8.117 -0.4599  1.3627  0.4472
 5949TIP3    H239483   0.836   2.468   8.233  1.8624 -0.2799 -0.5749
 5950TIP3   OH239484   3.713   3.248   1.010  0.4069  0.5862  0.4096
 5950TIP3    H139485   3.692   3.220   0.921 -1.6312 -1.7152  1.4894
 5950TIP3    H239486   3.800   3.289   1.003  1.5170 -1.9112 -2.1900
 5951TIP3   OH239487   3.943   3.419   1.015 -0.3012 -0.7612  0.4338
 5951TIP3    H139488   4.038   3.421   1.003 -0.3181  0.5771  0.4508
 5951TIP3    H239489   3.914   3.507   0.993 -1.5617 -1.1793  0.3369
 5952TIP3   OH239490   1.719   3.135   0.226 -0.1566  0.3093  0.4441
 5952TIP3    H139491   1.731   3.071   0.296  0.6041  0.1192  0.1533
 5952TIP3    H239492   1.754   3.091   0.148 -0.5774  0.6904  0.0315
 5953TIP3   OH239493   0.510   6.764   0.226 -0.0169  0.6854 -0.0997
 5953TIP3    H139494   0.495   6.859   0.220  1.9986  1.2380  2.1319
 5953TIP3    H239495   0.507   6.734   0.135 -0.3368  2.9472 -0.9147
 5954TIP3   OH239496   5.115   6.193   8.238  0.0941 -0.4135  0.2521
 5954TIP3    H139497   5.045   6.132   8.216 -0.3281  0.6522 -1.5922
 5954TIP3    H239498   5.157   6.212   8.154 -0.4520  2.6082  0.5525
 5955TIP3   OH239499   0.399   3.484   1.889  0.5758  0.2809 -0.3710
 5955TIP3    H139500   0.388   3.553   1.955 -0.3413 -0.9362  0.8302
 5955TIP3    H239501   0.420   3.530   1.808  1.1573  1.8745  0.6455
 5956TIP3   OH239502   2.456   1.266   7.833 -0.4233 -0.7546 -0.3847
 5956TIP3    H139503   2.411   1.183   7.813  0.9611 -1.5333 -0.3867
 5956TIP3    H239504   2.549   1.246   7.820  0.2277 -0.1152  2.6252
 5957TIP3   OH239505   0.996   3.557   2.755 -0.1759  0.3230  0.2242
 5957TIP3    H139506   1.055   3.534   2.827  1.6780  1.3052 -0.9092
 5957TIP3    H239507   0.919   3.501   2.769  0.7246 -0.5527  2.1265
 5958TIP3   OH239508   1.218   6.247   1.945  0.2290 -0.1142 -0.2135
 5958TIP3    H139509   1.202   6.243   1.850  1.3389  0.6044 -0.4479
 5958TIP3    H239510   1.150   6.191   1.983  1.9693 -3.6067 -1.6813
 5959TIP3   OH239511   1.459   6.816   2.363 -0.6907 -0.0532 -0.1771
 5959TIP3    H139512   1.531   6.869   2.330  0.5730 -2.0577 -0.7850
 5959TIP3    H239513   1.477   6.806   2.457  1.9842 -3.5187 -0.8774
 5960TIP3   OH239514   2.125   6.385   2.774 -0.2321 -0.6680  0.7611
 5960TIP3    H139515   2.073   6.398   2.853 -1.6639  3.4368 -0.5732
 5960TIP3    H239516   2.062   6.388   2.702  1.2616 -1.9348 -0.6953
 5961TIP3   OH239517   3.795   6.705   0.873  0.4417  0.3806 -0.5522
 5961TIP3    H139518   3.836   6.633   0.921 -0.4681  0.0552 -0.2366
 5961TIP3    H239519   3.763   6.764   0.941 -1.6720 -0.5379 -0.6730
 5962TIP3   OH239520   6.479   6.685   7.701  0.1101  0.1189 -0.2253
 5962TIP3    H139521   6.563   6.712   7.663  0.6644 -0.1613  0.7639
 5962TIP3    H239522   6.468   6.742   7.777 -0.9103  0.5714 -0.6878
 5963TIP3   OH239523   3.614   3.716   0.646 -0.2892  0.0176  0.3504
 5963TIP3    H139524   3.619   3.737   0.740 -0.5190  0.1188  0.3421
 5963TIP3    H239525   3.554   3.782   0.610 -0.5380 -0.2792  0.2116
 5964TIP3   OH239526   3.901   4.410   1.303 -0.5407  0.6687  0.1321
 5964TIP3    H139527   3.806   4.417   1.307 -0.5019  1.8713 -0.4348
 5964TIP3    H239528   3.920   4.404   1.209 -0.0210  1.4675  0.1745
 5965TIP3   OH239529   3.880   3.953   0.807 -0.1412 -0.3838 -0.0633
 5965TIP3    H139530   3.787   3.939   0.823 -0.3487  0.3194 -0.6074
 5965TIP3    H239531   3.883   4.016   0.735  0.7542 -0.5582 -0.1895
 5966TIP3   OH239532   2.490   3.580   8.377  0.8880  0.2038 -0.3557
 5966TIP3    H139533   2.439   3.613   8.303  0.4551  0.1168 -0.1001
 5966TIP3    H239534   2.568   3.635   8.379  0.3768  0.9400 -0.2067
 5967TIP3   OH239535   2.121   0.527   7.152  0.1487  0.4255  0.0353
 5967TIP3    H139536   2.150   0.510   7.241 -0.7962 -0.7167  0.1439
 5967TIP3    H239537   2.043   0.581   7.161  0.6244  1.1613 -0.1532
 5968TIP3   OH239538   3.072   4.319   0.478  0.2079  0.5992  0.0450
 5968TIP3    H139539   3.030   4.402   0.457 -0.2604 -0.0097 -1.5951
 5968TIP3    H239540   3.002   4.255   0.474  0.9459 -0.1883 -1.0158
 5969TIP3   OH239541   3.362   3.402   8.170 -0.0846  0.6707  0.7487
 5969TIP3    H139542   3.309   3.354   8.106  1.4420  0.7589 -0.6307
 5969TIP3    H239543   3.298   3.431   8.235 -1.4982 -0.5810  0.0039
 5970TIP3   OH239544   4.272   5.862   0.754 -0.3824 -0.1650 -0.4762
 5970TIP3    H139545   4.351   5.872   0.701 -0.9322  0.5084 -1.1904
 5970TIP3    H239546   4.204   5.908   0.704 -0.9491  0.3582  0.7417
 5971TIP3   OH239547   5.046   6.622   7.887 -0.1097 -0.1761 -0.3100
 5971TIP3    H139548   5.056   6.560   7.815  1.3245  0.7886 -0.9793
 5971TIP3    H239549   4.952   6.637   7.893 -0.3421 -1.1076 -1.2412
 5972TIP3   OH239550   0.386   6.735   2.706 -0.1211 -0.5288  0.5413
 5972TIP3    H139551   0.350   6.707   2.790 -2.5160 -0.5939 -0.4128
 5972TIP3    H239552   0.413   6.826   2.721 -0.4496 -0.5646  1.4122
 5973TIP3   OH239553   2.714   0.731   0.192 -0.7826 -0.3991  0.3315
 5973TIP3    H139554   2.621   0.726   0.171 -1.1869  0.1899  1.8561
 5973TIP3    H239555   2.748   0.802   0.137 -2.0253  1.8191  2.2525
 5974TIP3   OH239556   0.897   4.639   2.963  0.0584  0.4557 -0.2955
 5974TIP3    H139557   0.845   4.565   2.996 -1.6379  1.4050 -0.7337
 5974TIP3    H239558   0.837   4.686   2.905  1.2279  1.9696 -0.3227
 5975TIP3   OH239559   4.636   0.875   0.525  0.2066  0.0329  0.6888
 5975TIP3    H139560   4.659   0.924   0.446  0.7157 -1.5280 -0.1636
 5975TIP3    H239561   4.542   0.887   0.535  0.1057  0.1119 -0.2625
 5976TIP3   OH239562   6.426   6.110   3.203 -0.3356  0.4402  0.0137
 5976TIP3    H139563   6.464   6.139   3.286  1.9309  0.8654 -1.1163
 5976TIP3    H239564   6.418   6.190   3.151 -1.5380  0.1429 -0.2774
 5977TIP3   OH239565   1.203   0.598   6.678  0.0068  0.0374 -0.1332
 5977TIP3    H139566   1.275   0.564   6.730  0.4137  1.1758  0.0706
 5977TIP3    H239567   1.127   0.544   6.704 -0.3575  1.9379  3.3528
 5978TIP3   OH239568   6.448   3.956   2.103  0.2540  0.0643  0.1610
 5978TIP3    H139569   6.531   3.914   2.081  0.0362 -0.6485  0.6634
 5978TIP3    H239570   6.446   4.035   2.049  0.5039 -0.7614 -1.0979
 5979TIP3   OH239571   5.691   1.159   0.019  0.1716  0.1976 -0.0169
 5979TIP3    H139572   5.722   1.213  -0.053 -0.5518  0.5823 -0.0439
 5979TIP3    H239573   5.597   1.173   0.021  0.1928  0.2481  1.0528
 5980TIP3   OH239574   0.422   0.154   0.899 -1.0545 -0.2724 -0.7533
 5980TIP3    H139575   0.360   0.208   0.850 -0.2293 -0.1603 -1.7130
 5980TIP3    H239576   0.405   0.065   0.868 -1.0203 -0.2954 -0.7063
 5981TIP3   OH239577   0.877   4.784   7.734 -0.1227  0.1759  0.1762
 5981TIP3    H139578   0.877   4.706   7.790  1.8355 -0.2688 -0.3607
 5981TIP3    H239579   0.864   4.750   7.645  0.8342  0.4365 -0.0730
 5982TIP3   OH239580   3.840   3.347   0.278  0.4773  0.0161  0.4006
 5982TIP3    H139581   3.782   3.388   0.214  1.9621  1.8449  0.1455
 5982TIP3    H239582   3.789   3.343   0.358 -0.0927  1.4060  0.1287
 5983TIP3   OH239583   3.873   5.781   2.629  0.8126  0.2519 -0.2645
 5983TIP3    H139584   3.812   5.809   2.696  0.2779  1.0013 -1.0501
 5983TIP3    H239585   3.953   5.760   2.677  0.6866  1.5013  0.5368
 5984TIP3   OH239586   1.213   6.731   1.378  0.1175  0.5490  0.0182
 5984TIP3    H139587   1.245   6.706   1.464 -0.1691 -0.7148 -0.2134
 5984TIP3    H239588   1.291   6.761   1.331  0.7895 -1.2665 -0.1202
 5985TIP3   OH239589   0.506   3.552   0.795  0.0240  0.4531  0.1509
 5985TIP3    H139590   0.494   3.628   0.738 -2.6884 -0.6130 -0.8370
 5985TIP3    H239591   0.465   3.579   0.878  1.8966  1.1463  0.9119
 5986TIP3   OH239592   3.704   1.116   2.224 -0.6032  0.6790 -0.2959
 5986TIP3    H139593   3.623   1.064   2.225 -0.3849  0.3442  0.2782
 5986TIP3    H239594   3.773   1.052   2.205 -0.6010  1.1727 -2.1817
 5987TIP3   OH239595   0.954   6.427   0.390  0.1442 -0.3052  0.1065
 5987TIP3    H139596   1.049   6.420   0.390  0.0714 -1.4572 -0.2285
 5987TIP3    H239597   0.937   6.517   0.419  1.3358  0.0624 -0.2547
 5988TIP3   OH239598   2.995   6.302   0.650  0.1695 -0.2184  0.2822
 5988TIP3    H139599   2.914   6.352   0.651  0.0967 -0.3335  0.1822
 5988TIP3    H239600   3.061   6.363   0.683  0.2995  0.3244 -0.8950
 5989TIP3   OH239601   3.727   0.162   7.956  0.2705 -0.2188  0.1002
 5989TIP3    H139602   3.637   0.195   7.954  0.3632  0.2831  1.9860
 5989TIP3    H239603   3.720   0.078   8.000  0.7573 -0.0248  0.5503
 5990TIP3   OH239604   3.550   2.672   1.295  0.1783 -0.1765 -0.2050
 5990TIP3    H139605   3.454   2.668   1.294  0.1808 -0.3129 -0.0138
 5990TIP3    H239606   3.576   2.656   1.204  0.0250 -0.2921 -0.2286
 5991TIP3   OH239607   4.114   2.530   2.992  0.0922  0.1252 -0.0113
 5991TIP3    H139608   4.176   2.582   3.042  0.3919 -0.2675  0.0244
 5991TIP3    H239609   4.072   2.473   3.057  0.1887 -0.0973 -0.1442
 5992TIP3   OH239610   3.461   0.559   2.085 -0.1384  0.0167 -0.3202
 5992TIP3    H139611   3.514   0.480   2.087 -2.0090 -1.2956 -0.5562
 5992TIP3    H239612   3.501   0.612   2.016  0.0304 -1.5666 -1.5029
 5993TIP3   OH239613   6.510   1.077   1.711 -0.1063 -0.0528  0.7807
 5993TIP3    H139614   6.582   1.013   1.713 -1.1576 -1.2501  1.2076
 5993TIP3    H239615   6.555   1.162   1.709  1.3244 -0.7730  0.3160
 5994TIP3   OH239616   6.569   0.316   1.680  0.7554 -0.4196 -0.4054
 5994TIP3    H139617   6.537   0.228   1.701  0.2957 -0.1774 -0.0820
 5994TIP3    H239618   6.632   0.302   1.609  1.2959 -1.1072  0.1907
 5995TIP3   OH239619   3.284   5.415   1.278  0.2015 -0.0849  0.0310
 5995TIP3    H139620   3.203   5.423   1.328  0.1727 -2.2852  0.4183
 5995TIP3    H239621   3.353   5.434   1.342  0.1084 -1.5955  0.6164
 5996TIP3   OH239622   2.615   4.239   2.486  0.1369  0.2292  0.2387
 5996TIP3    H139623   2.655   4.152   2.491 -1.7150 -1.0018 -3.0905
 5996TIP3    H239624   2.522   4.223   2.503 -0.4040  1.3366 -1.4554
 5997TIP3   OH239625   2.880   1.498   8.670  0.6831 -0.3507  0.6671
 5997TIP3    H139626   2.788   1.525   8.667  1.1535  1.2584  0.3061
 5997TIP3    H239627   2.916   1.545   8.745  1.1420 -1.3011  1.0663
 5998TIP3   OH239628   5.791   0.162   8.683 -0.1703  0.4956 -0.2190
 5998TIP3    H139629   5.743   0.079   8.685  1.3242 -0.3960  0.6308
 5998TIP3    H239630   5.795   0.185   8.591 -0.5687 -0.3984 -0.4737
 5999TIP3   OH239631   2.714   5.998   1.943  0.4090  0.0141  0.5936
 5999TIP3    H139632   2.727   6.021   2.035  0.9437  1.7969  0.1013
 5999TIP3    H239633   2.654   6.064   1.909  0.4749 -0.4216 -0.4233
 6000TIP3   OH239634   2.126   3.386   2.309  0.6821 -0.0319 -0.1064
 6000TIP3    H139635   2.145   3.376   2.402  0.7308 -0.1413 -0.1285
 6000TIP3    H239636   2.176   3.463   2.283 -0.8876  1.2202  0.4056
 6001TIP3   OH239637   1.557   2.400   0.612  0.5226 -0.4985 -0.2259
 6001TIP3    H139638   1.555   2.431   0.522  0.4844  1.2587  0.3471
 6001TIP3    H239639   1.472   2.359   0.626  0.8274 -1.5324 -1.2015
 6002TIP3   OH239640   5.715   1.432   3.085 -0.6843  0.0950  0.3020
 6002TIP3    H139641   5.649   1.495   3.113 -0.2080  0.4818  0.5614
 6002TIP3    H239642   5.714   1.364   3.152  0.2063  0.8423  1.1045
 6003TIP3   OH239643   3.537   6.238   8.755  0.5214  0.0159 -0.1674
 6003TIP3    H139644   3.446   6.220   8.731  0.4606 -0.4117  0.3712
 6003TIP3    H239645   3.564   6.162   8.807  1.2955 -0.0226 -0.5969
 6004TIP3   OH239646   0.289   2.995   0.926 -0.3001  0.1299  0.6195
 6004TIP3    H139647   0.304   2.963   0.837  2.4613  1.5567  0.4661
 6004TIP3    H239648   0.373   2.982   0.971  0.3867  4.8978  1.1688
 6005TIP3   OH239649   3.637   2.266   2.615 -0.2793  0.1171 -0.0912
 6005TIP3    H139650   3.661   2.178   2.642  1.0670  0.2643 -0.7259
 6005TIP3    H239651   3.656   2.268   2.521 -0.1667  1.1242 -0.0576
 6006TIP3   OH239652   4.304   4.357   0.891  0.0106 -0.4225 -0.2441
 6006TIP3    H139653   4.274   4.441   0.927 -1.0735 -0.8504 -0.1287
 6006TIP3    H239654   4.309   4.299   0.967  0.9556 -0.4273 -0.2916
 6007TIP3   OH239655   2.547   4.702   2.661 -0.6572 -0.6364  0.5444
 6007TIP3    H139656   2.470   4.743   2.622  0.7577  1.2378 -0.4197
 6007TIP3    H239657   2.591   4.658   2.589 -0.6088 -1.4127  1.0289
 6008TIP3   OH239658   0.201   1.672   0.537 -0.0222  0.1736  0.2531
 6008TIP3    H139659   0.199   1.613   0.461  0.2859  1.4300 -0.7788
 6008TIP3    H239660   0.263   1.631   0.597  2.4441  0.7894 -1.6670
 6009TIP3   OH239661   3.378   0.876   1.651 -0.4032 -0.2268  0.3667
 6009TIP3    H139662   3.427   0.911   1.576  0.2286  2.5176  1.9194
 6009TIP3    H239663   3.288   0.870   1.619 -0.0012 -0.0088 -0.8922
 6010TIP3   OH239664   0.658   5.688   2.044  0.5484 -0.0506  0.3432
 6010TIP3    H139665   0.608   5.607   2.034  1.4894 -0.5113 -0.8060
 6010TIP3    H239666   0.690   5.685   2.134  1.3214 -1.4142  0.0502
 6011TIP3   OH239667   4.233   2.239   7.639 -0.0994  0.6554 -0.2233
 6011TIP3    H139668   4.266   2.166   7.588 -1.2517 -0.1640  0.1498
 6011TIP3    H239669   4.300   2.307   7.631  1.1025 -0.5145 -0.3902
 6012TIP3   OH239670   3.146   2.031   1.957 -0.2186  0.0910  0.1482
 6012TIP3    H139671   3.188   2.085   1.890  0.3136 -0.7074 -0.1717
 6012TIP3    H239672   3.100   1.963   1.908 -0.9854  0.3135  0.5457
 6013TIP3   OH239673   0.170   3.964   2.634 -0.1507 -0.4809  0.1975
 6013TIP3    H139674   0.202   3.874   2.645  0.5100 -0.6847 -2.6476
 6013TIP3    H239675   0.248   4.016   2.620 -0.6097  0.3763  0.7173
 6014TIP3   OH239676   0.798   5.434   1.601 -0.5890 -0.5543 -0.5183
 6014TIP3    H139677   0.834   5.506   1.548 -0.2648  0.0316  0.4746
 6014TIP3    H239678   0.784   5.472   1.687 -0.8160 -1.5824 -0.0843
 6015TIP3   OH239679   4.721   0.266   1.345 -0.7539 -0.5524  0.1046
 6015TIP3    H139680   4.702   0.227   1.260  0.7954 -1.6690  0.2246
 6015TIP3    H239681   4.646   0.322   1.363 -1.2706 -0.5483 -1.8355
 6016TIP3   OH239682   5.582   3.214   7.872 -0.0572 -0.1605 -0.2628
 6016TIP3    H139683   5.633   3.289   7.842  1.0448 -0.9174 -0.3256
 6016TIP3    H239684   5.502   3.252   7.909  0.2259  0.9968 -0.8136
 6017TIP3   OH239685   0.281   6.117   7.926 -0.0257  0.2680  0.0377
 6017TIP3    H139686   0.239   6.036   7.954 -0.6748  1.2754  2.1884
 6017TIP3    H239687   0.210   6.169   7.888  0.0768  0.4148  0.0465
 6018TIP3   OH239688   4.418   4.649   1.413  0.4846  0.2873 -0.4495
 6018TIP3    H139689   4.430   4.729   1.464  0.5053  0.2510 -0.3975
 6018TIP3    H239690   4.445   4.673   1.324 -4.1518  1.8939 -1.7515
 6019TIP3   OH239691   5.240   0.332   1.463  0.3180 -0.2993  0.1261
 6019TIP3    H139692   5.303   0.322   1.391 -0.7840  0.7518 -1.0303
 6019TIP3    H239693   5.156   0.305   1.425 -0.4269  1.0299  0.7678
 6020TIP3   OH239694   5.509   6.662   0.186 -0.1056  0.5747  0.3189
 6020TIP3    H139695   5.551   6.742   0.155 -0.8144  1.6297  1.9523
 6020TIP3    H239696   5.547   6.593   0.132  1.4051  1.8565 -0.3476
 6021TIP3   OH239697   2.053   1.034   7.926  0.1604  0.1228  0.4424
 6021TIP3    H139698   2.036   1.106   7.987  1.1817  2.8354 -2.1815
 6021TIP3    H239699   2.146   1.014   7.938  0.1386  0.0055  0.4175
 6022TIP3   OH239700   4.560   5.283   0.072 -0.3528  0.3470  0.4497
 6022TIP3    H139701   4.560   5.312   0.163 -1.6308 -0.4892  0.7436
 6022TIP3    H239702   4.647   5.245   0.059 -0.0165  0.8398  1.1916
 6023TIP3   OH239703   1.403   5.327   8.414 -0.2193 -0.5327 -0.3794
 6023TIP3    H139704   1.446   5.308   8.497  0.0465  0.7556 -0.2038
 6023TIP3    H239705   1.476   5.337   8.352 -0.2483  1.2300 -0.1715
 6024TIP3   OH239706   3.239   3.370   0.045 -0.2765  0.0309  0.0660
 6024TIP3    H139707   3.264   3.300   0.105  2.2000  0.4698 -0.3240
 6024TIP3    H239708   3.214   3.443   0.102  1.7343  0.3378  0.6605
 6025TIP3   OH239709   6.398   3.196   2.673  0.0002  0.0866 -0.4040
 6025TIP3    H139710   6.398   3.242   2.757 -0.1207 -0.8538  0.1266
 6025TIP3    H239711   6.335   3.244   2.619  0.7974  1.2852 -0.3064
 6026TIP3   OH239712   3.714   2.977   1.977 -0.1448 -0.0188  0.0261
 6026TIP3    H139713   3.775   3.020   1.918  0.1157 -1.0856 -0.5121
 6026TIP3    H239714   3.767   2.954   2.054 -0.7668  2.5096  1.2881
 6027TIP3   OH239715   2.081   1.585   2.101 -0.3606 -0.3556  0.0737
 6027TIP3    H139716   2.127   1.669   2.102 -1.0243  0.0260 -0.5214
 6027TIP3    H239717   2.053   1.572   2.191  0.8608 -0.5756  0.4405
 6028TIP3   OH239718   1.694   2.204   7.048 -0.1891  0.7969 -0.3450
 6028TIP3    H139719   1.675   2.111   7.049  2.3384  0.2011  1.0051
 6028TIP3    H239720   1.634   2.242   7.113  0.5075 -0.3456  1.0197
 6029TIP3   OH239721   0.795   6.773   1.276  0.7187  0.4256 -0.7427
 6029TIP3    H139722   0.814   6.865   1.296  0.7319 -0.1019  1.9966
 6029TIP3    H239723   0.723   6.777   1.213 -0.0803  2.3286  0.2191
 6030TIP3   OH239724   6.497   3.078   7.741 -0.1407  0.0295 -0.4196
 6030TIP3    H139725   6.522   3.006   7.683  0.3349 -0.3295  0.2197
 6030TIP3    H239726   6.402   3.080   7.737 -0.2575 -1.5352  0.6127
 6031TIP3   OH239727   3.297   5.573   0.190 -0.2255 -0.2153 -0.4007
 6031TIP3    H139728   3.297   5.604   0.099  0.2308 -1.2604 -0.7685
 6031TIP3    H239729   3.251   5.489   0.186  0.2188 -0.4929  0.2534
 6032TIP3   OH239730   1.820   4.150   2.507 -0.0548  0.6565  0.0139
 6032TIP3    H139731   1.756   4.214   2.475 -0.9246 -0.4582 -0.5516
 6032TIP3    H239732   1.769   4.090   2.562  0.8789  0.8257  1.1006
 6033TIP3   OH239733   4.406   1.578   2.429  0.1237  0.4571 -0.0407
 6033TIP3    H139734   4.469   1.544   2.365  0.5051 -0.4539  0.7987
 6033TIP3    H239735   4.335   1.514   2.429 -0.0218  0.6152  0.2290
 6034TIP3   OH239736   1.402   0.336   8.297  0.4866  0.0071 -0.0914
 6034TIP3    H139737   1.413   0.247   8.331 -0.8829 -0.4646 -0.7918
 6034TIP3    H239738   1.320   0.367   8.338 -0.4606 -0.0656 -1.8378
 6035TIP3   OH239739   4.147   2.704   7.963 -0.2937 -0.5611 -0.8913
 6035TIP3    H139740   4.216   2.663   7.911 -1.0715 -1.9256 -0.8934
 6035TIP3    H239741   4.084   2.634   7.978 -1.4853  0.5506 -0.5457
 6036TIP3   OH239742   6.530   1.173   1.213 -0.2083 -0.0246 -0.1782
 6036TIP3    H139743   6.474   1.232   1.263  1.8295  0.8202  1.3010
 6036TIP3    H239744   6.547   1.100   1.274  1.8242  0.7194  0.2415
 6037TIP3   OH239745   4.982   6.409   1.062 -0.3151  0.2597  0.1023
 6037TIP3    H139746   4.931   6.365   0.993 -1.3435  0.4482  0.7228
 6037TIP3    H239747   4.989   6.500   1.032 -1.3979  0.5152  0.5735
 6038TIP3   OH239748   1.704   0.963   0.854 -0.3386 -0.5334  0.5334
 6038TIP3    H139749   1.639   0.907   0.811 -0.9020 -0.0876  0.7831
 6038TIP3    H239750   1.740   0.909   0.924 -0.0478 -0.9670  0.0509
 6039TIP3   OH239751   6.854   4.698   8.704  0.6022 -0.0647 -0.3450
 6039TIP3    H139752   6.841   4.604   8.709  1.3171 -0.1734  5.1370
 6039TIP3    H239753   6.784   4.729   8.646 -0.4566 -3.7458 -1.2691
 6040TIP3   OH239754   0.601   2.318   2.234 -0.3511  0.0943 -0.4269
 6040TIP3    H139755   0.650   2.393   2.268  0.2657 -0.4072 -0.1678
 6040TIP3    H239756   0.544   2.354   2.166  0.1663  0.7512 -0.5214
 6041TIP3   OH239757   5.694   5.857   0.883 -0.4145 -0.3378  0.0342
 6041TIP3    H139758   5.779   5.879   0.922  0.1542 -2.3175  0.0787
 6041TIP3    H239759   5.682   5.921   0.813  1.5127 -0.4504 -0.4703
 6042TIP3   OH239760   4.939   1.203   7.923 -0.5466  0.4321  0.6674
 6042TIP3    H139761   5.031   1.179   7.938  0.1599  2.0408 -0.7489
 6042TIP3    H239762   4.894   1.119   7.914  0.8630 -0.3921  0.9260
 6043TIP3   OH239763   2.525   2.409   2.928 -0.0775 -0.0414  0.3696
 6043TIP3    H139764   2.507   2.341   2.993 -1.5297  0.5375  0.6061
 6043TIP3    H239765   2.442   2.456   2.919  0.8027  1.5043 -0.0117
 6044TIP3   OH239766   6.079   0.595   8.695  0.2254  0.3799 -0.0635
 6044TIP3    H139767   5.985   0.584   8.710 -0.1165  0.2286 -2.0231
 6044TIP3    H239768   6.094   0.689   8.706 -0.2014  0.4456 -0.0030
 6045TIP3   OH239769   2.871   6.314   0.271  0.1334  0.2068 -0.3725
 6045TIP3    H139770   2.949   6.316   0.216 -0.9000 -1.8438 -2.0497
 6045TIP3    H239771   2.878   6.393   0.326  2.7306  0.7108 -1.2976
 6046TIP3   OH239772   3.880   6.470   3.149 -0.5393  0.2336  0.1842
 6046TIP3    H139773   3.801   6.489   3.199 -0.7514 -0.1444  0.0022
 6046TIP3    H239774   3.945   6.532   3.181 -0.5002 -0.3781  1.3453
 6047TIP3   OH239775   3.237   2.409   3.026  0.4112 -0.2827  0.6060
 6047TIP3    H139776   3.224   2.495   3.067  1.2398  1.1569 -1.9488
 6047TIP3    H239777   3.328   2.387   3.045  0.0791 -0.8683  1.6333
 6048TIP3   OH239778   4.305   1.011   8.470  0.0685  0.0780 -0.2536
 6048TIP3    H139779   4.375   0.946   8.468  2.4388  2.3494  1.7640
 6048TIP3    H239780   4.243   0.976   8.534 -0.1546 -1.4249 -1.2281
 6049TIP3   OH239781   4.948   3.552   2.534 -0.0074 -0.4523 -0.1785
 6049TIP3    H139782   5.021   3.493   2.554  0.3276 -0.3054 -0.9129
 6049TIP3    H239783   4.930   3.597   2.617 -0.6921 -2.0345  0.5587
 6050TIP3   OH239784   5.169   5.655   1.054 -0.3315  0.1622 -0.0439
 6050TIP3    H139785   5.202   5.698   0.975 -1.8734 -0.9785 -1.3860
 6050TIP3    H239786   5.114   5.584   1.021 -1.2931 -0.1555  2.0760
 6051TIP3   OH239787   5.260   5.436   1.584 -0.3346 -0.1093  0.2319
 6051TIP3    H139788   5.316   5.450   1.507 -0.4459  0.0688  0.1823
 6051TIP3    H239789   5.320   5.434   1.658 -0.3041  0.4863  0.2220
 6052TIP3   OH239790   0.323   2.716   0.009  0.3059  0.6868  0.1096
 6052TIP3    H139791   0.230   2.742   0.015 -0.1171  0.1486 -2.7063
 6052TIP3    H239792   0.358   2.771  -0.061  1.8938  0.1982  0.4850
 6053TIP3   OH239793   3.760   1.855   0.467 -0.2416 -0.2033 -0.6265
 6053TIP3    H139794   3.826   1.826   0.405 -0.5288 -1.7127 -0.2783
 6053TIP3    H239795   3.808   1.877   0.547 -0.2372 -3.4077  0.3851
 6054TIP3   OH239796   0.092   2.787   0.392 -0.6206 -0.4604  0.3984
 6054TIP3    H139797   0.077   2.873   0.353 -1.4124 -1.7238 -2.3226
 6054TIP3    H239798   0.023   2.778   0.458  0.0766  1.3322  1.4260
 6055TIP3   OH239799   3.140   1.427   1.684  0.3576  0.3631  0.1034
 6055TIP3    H139800   3.214   1.395   1.736  0.3426  0.9844  0.5132
 6055TIP3    H239801   3.083   1.350   1.673  0.5954  0.1156  0.5870
 6056TIP3   OH239802   4.651   6.038   2.310 -0.5439  0.3082  0.0201
 6056TIP3    H139803   4.609   5.959   2.276  1.8780 -1.2566  0.3804
 6056TIP3    H239804   4.651   6.026   2.405 -1.2700  1.3975  0.1763
 6057TIP3   OH239805   2.760   4.235   1.311  0.7357  0.1946 -0.5224
 6057TIP3    H139806   2.759   4.331   1.313  0.9653  0.2100 -0.9579
 6057TIP3    H239807   2.760   4.213   1.218 -1.4629 -0.2661 -0.4805
 6058TIP3   OH239808   4.603   4.519   8.535 -0.0949  0.5964  0.2741
 6058TIP3    H139809   4.555   4.535   8.616 -2.6791  0.3826 -1.0754
 6058TIP3    H239810   4.595   4.602   8.486 -0.9497 -0.0828 -0.8084
 6059TIP3   OH239811   1.513   2.206   1.448  0.2262 -0.0710  0.9201
 6059TIP3    H139812   1.538   2.296   1.470 -0.3809  0.3211  0.1075
 6059TIP3    H239813   1.425   2.196   1.484 -0.5735  0.4089 -0.7605
 6060TIP3   OH239814   6.379   3.583   2.271  0.0302 -0.0155 -0.0201
 6060TIP3    H139815   6.461   3.585   2.222  2.6770 -2.4149  3.7287
 6060TIP3    H239816   6.385   3.657   2.332 -1.0355  0.2583 -0.2202
 6061TIP3   OH239817   0.600   0.487   0.453 -0.1416  0.4945 -0.3786
 6061TIP3    H139818   0.670   0.544   0.423 -0.9886  0.6905 -2.1201
 6061TIP3    H239819   0.520   0.537   0.436 -0.7282  1.6094  4.3423
 6062TIP3   OH239820   5.371   5.402   2.071  0.2594 -0.8090 -0.0053
 6062TIP3    H139821   5.453   5.368   2.105  1.5527  1.5888 -0.5558
 6062TIP3    H239822   5.329   5.444   2.145  1.1929  0.9401 -0.4274
 6063TIP3   OH239823   0.452   4.304   0.686 -0.4847 -0.5662 -0.3662
 6063TIP3    H139824   0.392   4.351   0.744  0.5490  2.0881 -1.2872
 6063TIP3    H239825   0.399   4.281   0.610 -1.2028 -1.7077  0.4447
 6064TIP3   OH239826   2.154   1.004   3.266 -0.2427  0.0179  0.9341
 6064TIP3    H139827   2.144   1.056   3.345 -1.3163  1.5091 -0.1457
 6064TIP3    H239828   2.229   1.043   3.220 -0.5403  0.0942  0.5076
 6065TIP3   OH239829   1.040   0.027   7.779 -0.0949 -0.1072 -0.0148
 6065TIP3    H139830   1.025   0.054   7.869 -0.7761 -0.2736 -0.0703
 6065TIP3    H239831   1.091   0.097   7.740 -2.9645  1.8539 -0.5639
 6066TIP3   OH239832   0.440   3.348   0.142  0.3654 -0.0659 -0.6372
 6066TIP3    H139833   0.457   3.372   0.233  1.3305  2.7723 -1.4581
 6066TIP3    H239834   0.351   3.312   0.142 -0.0352  0.8113  1.2743
 6067TIP3   OH239835   2.328   0.241   1.701  0.4127  0.4855 -0.6246
 6067TIP3    H139836   2.395   0.188   1.657 -1.0502 -0.6394 -1.5981
 6067TIP3    H239837   2.267   0.265   1.632  0.2345  2.2057  0.0903
 6068TIP3   OH239838   4.969   4.751   3.003 -0.0267  0.2859  0.3695
 6068TIP3    H139839   5.008   4.838   3.014 -1.1450  0.7667  0.7744
 6068TIP3    H239840   4.956   4.720   3.093  2.8736 -1.5200  0.2594
 6069TIP3   OH239841   6.514   2.450   0.500  0.2468 -0.4292  0.5160
 6069TIP3    H139842   6.447   2.422   0.562  0.3569  0.6022  1.1294
 6069TIP3    H239843   6.573   2.505   0.551  1.5835 -1.3076 -0.0141
 6070TIP3   OH239844   2.856   3.462   2.525  0.0417  0.9830  0.3172
 6070TIP3    H139845   2.910   3.387   2.550  0.3684  0.9437 -0.4638
 6070TIP3    H239846   2.789   3.467   2.593  1.0191  1.0239  1.3046
 6071TIP3   OH239847   5.182   0.785   2.885 -0.2145 -0.4713 -0.0158
 6071TIP3    H139848   5.112   0.722   2.900 -1.3940  0.4986 -1.1996
 6071TIP3    H239849   5.239   0.776   2.961 -1.8836 -0.9590  1.2313
 6072TIP3   OH239850   1.014   5.759   2.535 -0.2398  0.2462  0.2590
 6072TIP3    H139851   1.021   5.832   2.598  0.5559  1.4072 -1.1035
 6072TIP3    H239852   1.057   5.686   2.580  0.0747  0.9653  1.1890
 6073TIP3   OH239853   3.731   5.536   1.748 -0.0904  0.3396 -0.4644
 6073TIP3    H139854   3.756   5.558   1.658 -0.1533 -3.1559 -1.5134
 6073TIP3    H239855   3.637   5.556   1.752  0.2615  2.1452 -0.5460
 6074TIP3   OH239856   0.654   2.224   0.101  0.2526  0.3032  0.0426
 6074TIP3    H139857   0.660   2.319   0.088 -0.6822  0.4314  0.4415
 6074TIP3    H239858   0.593   2.195   0.032 -0.3178  0.1627  0.5961
 6075TIP3   OH239859   5.898   3.295   0.687 -0.1759  0.0351  0.1285
 6075TIP3    H139860   5.848   3.248   0.753  2.6701 -1.6245  1.2461
 6075TIP3    H239861   5.879   3.249   0.605 -1.6844  0.4975  0.1718
 6076TIP3   OH239862   4.114   0.538   0.656  0.0552 -0.7093 -0.0717
 6076TIP3    H139863   4.164   0.489   0.721 -0.9426 -1.1218  0.3993
 6076TIP3    H239864   4.125   0.488   0.575  2.2726  0.4280 -0.5667
 6077TIP3   OH239865   4.406   1.028   1.697  0.0222  0.6144  0.1679
 6077TIP3    H139866   4.434   1.027   1.789 -1.3941  0.7116  0.6225
 6077TIP3    H239867   4.311   1.030   1.701 -0.1021 -0.6058 -1.3240
 6078TIP3   OH239868   4.434   5.587   8.383  0.0719 -0.2070 -0.2934
 6078TIP3    H139869   4.444   5.602   8.477 -1.4264  1.7132 -0.3757
 6078TIP3    H239870   4.385   5.505   8.377 -0.0310 -0.2242  0.6170
 6079TIP3   OH239871   4.767   2.449   1.136  0.3382 -0.2792  0.4627
 6079TIP3    H139872   4.842   2.446   1.075 -1.3489  0.7516 -1.8415
 6079TIP3    H239873   4.799   2.407   1.215  3.2445 -0.2107 -0.5308
 6080TIP3   OH239874   2.717   2.775   8.421 -0.0687  0.4454  0.5214
 6080TIP3    H139875   2.704   2.753   8.513  0.9561 -1.7944  0.1868
 6080TIP3    H239876   2.808   2.750   8.403  0.3562  2.6088 -0.6519
 6081TIP3   OH239877   5.440   6.265   7.987  0.1423  0.9004  0.0948
 6081TIP3    H139878   5.345   6.272   7.984  0.2078  2.0626  0.5186
 6081TIP3    H239879   5.459   6.230   8.074  0.1607  1.9340  0.5178
 6082TIP3   OH239880   5.309   2.270   3.446 -0.5977  0.1248  0.4765
 6082TIP3    H139881   5.226   2.312   3.468 -0.7927  0.2100 -0.3744
 6082TIP3    H239882   5.373   2.311   3.504 -1.1967 -0.1668  1.3579
 6083TIP3   OH239883   2.918   0.877   7.363 -0.1213 -0.3364  0.0810
 6083TIP3    H139884   2.845   0.928   7.398  0.8392  1.5316 -0.5077
 6083TIP3    H239885   2.932   0.912   7.275  0.6165 -1.6103 -0.3446
 6084TIP3   OH239886   1.767   1.596   0.580  0.1808 -0.4636 -0.5934
 6084TIP3    H139887   1.838   1.608   0.517 -0.1521  0.5641 -0.7997
 6084TIP3    H239888   1.710   1.531   0.539  0.9738 -1.2668 -0.4418
 6085TIP3   OH239889   5.042   2.704   0.999 -0.4630 -0.8821  0.3955
 6085TIP3    H139890   5.056   2.611   0.980 -0.9162 -0.9426  0.3589
 6085TIP3    H239891   4.993   2.703   1.082  0.8465 -0.6442  1.2010
 6086TIP3   OH239892   1.761   4.968   7.767 -0.3307 -0.5997  0.3247
 6086TIP3    H139893   1.824   4.902   7.736  0.3849  0.6058 -0.9048
 6086TIP3    H239894   1.679   4.919   7.778  0.6277 -2.0779  1.3292
 6087TIP3   OH239895   4.210   2.492   7.195  0.3446 -0.2965 -0.8120
 6087TIP3    H139896   4.269   2.418   7.183  0.2026 -0.5120 -0.2003
 6087TIP3    H239897   4.160   2.497   7.113  0.7726 -0.4986 -1.0849
 6088TIP3   OH239898   1.705   3.453   8.613 -0.4479 -0.3452 -0.2256
 6088TIP3    H139899   1.725   3.366   8.647 -0.3651 -0.1160  0.3161
 6088TIP3    H239900   1.728   3.513   8.684 -0.3327  0.1346 -0.6618
 6089TIP3   OH239901   3.679   6.472   7.789 -0.3306 -0.0362 -0.2599
 6089TIP3    H139902   3.700   6.472   7.696 -0.6490 -0.3606 -0.3360
 6089TIP3    H239903   3.603   6.530   7.797  0.3057  0.7911 -0.0491
 6090TIP3   OH239904   0.800   3.755   2.068  0.0426 -0.1088 -0.3263
 6090TIP3    H139905   0.827   3.841   2.037 -0.3562  0.3753  0.6212
 6090TIP3    H239906   0.873   3.724   2.120 -0.1015 -0.0205 -0.0689
 6091TIP3   OH239907   4.974   4.044   2.524  0.0174 -0.1762 -0.2723
 6091TIP3    H139908   4.928   4.127   2.535 -2.4880 -1.2445 -1.7029
 6091TIP3    H239909   5.019   4.052   2.440  2.2491  0.7096  0.9287
 6092TIP3   OH239910   1.705   4.912   1.770  0.3177  0.1633 -0.0059
 6092TIP3    H139911   1.799   4.928   1.757  0.1080  0.5531 -1.0823
 6092TIP3    H239912   1.662   4.991   1.740 -0.3592  0.1189  0.7959
 6093TIP3   OH239913   4.991   0.129   2.708 -0.3515  0.7427 -0.3933
 6093TIP3    H139914   4.965   0.156   2.620 -2.0068 -0.0620 -0.2063
 6093TIP3    H239915   5.081   0.160   2.718 -0.4157  1.5655 -2.0519
 6094TIP3   OH239916   1.682   5.515   0.875 -0.3929  0.2968  0.1306
 6094TIP3    H139917   1.716   5.437   0.831 -0.5326  1.1883 -1.6786
 6094TIP3    H239918   1.713   5.508   0.965 -0.5348 -1.9086  0.0566
 6095TIP3   OH239919   0.058   4.709   7.976  0.5924  0.5193 -0.1894
 6095TIP3    H139920  -0.027   4.676   8.005  1.7044 -0.0173  2.8148
 6095TIP3    H239921   0.076   4.662   7.894 -0.2202 -2.4464  1.2000
 6096TIP3   OH239922   4.778   3.069   0.373  0.0369  0.0434 -0.3761
 6096TIP3    H139923   4.808   2.978   0.369 -2.5028 -0.8643 -0.4767
 6096TIP3    H239924   4.800   3.105   0.287 -2.0535 -1.6047 -1.7054
 6097TIP3   OH239925   2.267   0.021   7.333  0.4638  0.5062 -0.3801
 6097TIP3    H139926   2.355   0.017   7.369  0.3281  0.7912 -0.0154
 6097TIP3    H239927   2.255  -0.063   7.289  0.6146  0.1475  0.2673
 6098TIP3   OH239928   3.948   3.286   1.536 -0.6898 -0.0527 -0.3602
 6098TIP3    H139929   3.926   3.304   1.628  0.5950  0.6448 -0.1687
 6098TIP3    H239930   3.911   3.360   1.488  1.5816  1.4403  0.0312
 6099TIP3   OH239931   4.504   4.033   2.034  0.2868  0.8923  0.0044
 6099TIP3    H139932   4.480   4.120   2.066  0.8116  1.4437 -1.0337
 6099TIP3    H239933   4.432   3.976   2.061 -2.7144  2.5652 -3.5393
 6100TIP3   OH239934   5.296   0.224   2.686  0.3766  0.4879  0.1066
 6100TIP3    H139935   5.342   0.222   2.770  1.9155 -0.9033 -0.7025
 6100TIP3    H239936   5.288   0.317   2.665  2.6263  0.8120  0.4389
 6101TIP3   OH239937   4.390   1.381   8.195  0.0636  0.1843  0.0978
 6101TIP3    H139938   4.346   1.435   8.259 -1.9836 -1.1648 -0.0698
 6101TIP3    H239939   4.454   1.330   8.245  3.1500  3.5946  0.0673
 6102TIP3   OH239940   2.829   1.606   7.368 -0.2073 -0.1253 -0.3301
 6102TIP3    H139941   2.752   1.656   7.343 -0.9978 -2.0680 -2.0991
 6102TIP3    H239942   2.794   1.531   7.416  0.5958 -0.8229 -0.8060
 6103TIP3   OH239943   4.066   6.801   0.841 -0.1733 -0.1922 -0.0244
 6103TIP3    H139944   4.011   6.868   0.882 -1.7025 -0.1384 -1.9952
 6103TIP3    H239945   4.136   6.784   0.905 -1.3079  1.2560  1.6881
 6104TIP3   OH239946   6.076   2.622   2.039  0.0893 -0.0928 -0.2562
 6104TIP3    H139947   6.092   2.705   1.993 -2.4204  0.0850 -0.9580
 6104TIP3    H239948   6.013   2.576   1.984  0.1679 -1.7445  0.9694
 6105TIP3   OH239949   3.007   4.729   2.930  0.9179 -1.3134  0.2609
 6105TIP3    H139950   2.958   4.700   3.007  0.2436  2.1000  1.3062
 6105TIP3    H239951   3.096   4.744   2.963  1.1048 -1.5915 -0.1089
 6106TIP3   OH239952   2.060   4.955   7.223 -0.5148  0.7247  0.0497
 6106TIP3    H139953   2.023   4.873   7.190  0.4344 -0.1409  1.0549
 6106TIP3    H239954   2.072   5.009   7.145 -2.0030  0.2663 -0.5226
 6107TIP3   OH239955   6.354   3.550   8.612  0.3202 -0.6613 -0.3446
 6107TIP3    H139956   6.277   3.533   8.667  0.0612  2.2547  0.3906
 6107TIP3    H239957   6.428   3.539   8.671  0.3804 -1.8012 -0.6091
 6108TIP3   OH239958   1.819   0.334   0.740 -0.1425 -0.1156  0.5123
 6108TIP3    H139959   1.885   0.330   0.671 -0.2665 -2.8029  0.4491
 6108TIP3    H239960   1.788   0.425   0.738  0.9102  0.2760 -1.9619
 6109TIP3   OH239961   3.121   1.720   2.293  0.1984  0.2975  0.4446
 6109TIP3    H139962   3.105   1.675   2.210 -2.0351  1.6831  0.0478
 6109TIP3    H239963   3.129   1.649   2.358 -0.3865 -0.7418 -0.5809
 6110TIP3   OH239964   5.116   5.332   0.273  0.0956  0.2961  0.7586
 6110TIP3    H139965   5.077   5.246   0.259 -1.6670  1.1722 -0.1727
 6110TIP3    H239966   5.080   5.362   0.356  1.4440 -0.2234  1.5477
 6111TIP3   OH239967   5.093   3.525   2.257  0.1729 -0.3455  0.2061
 6111TIP3    H139968   5.090   3.505   2.164  1.6129  0.1671  0.0205
 6111TIP3    H239969   5.007   3.498   2.291 -0.8625  0.6517 -1.4839
 6112TIP3   OH239970   0.501   6.377   2.716 -0.0340 -0.4898 -0.1305
 6112TIP3    H139971   0.519   6.300   2.661 -0.8328 -1.1336  0.4832
 6112TIP3    H239972   0.405   6.384   2.716  0.0463  1.7903 -1.9020
 6113TIP3   OH239973   3.997   2.815   0.663  0.2416  0.3969 -0.3102
 6113TIP3    H139974   4.047   2.756   0.606 -1.6164 -0.1534 -1.4329
 6113TIP3    H239975   4.028   2.794   0.752  1.7838 -0.0892 -0.9222
 6114TIP3   OH239976   4.276   0.727   1.635  0.1543  0.0090 -0.1701
 6114TIP3    H139977   4.246   0.723   1.545  0.3628  0.5024 -0.2669
 6114TIP3    H239978   4.218   0.791   1.677 -1.4921 -1.9567  0.6767
 6115TIP3   OH239979   2.669   0.490   2.952 -0.4380 -0.3674  0.2698
 6115TIP3    H139980   2.590   0.482   2.898 -1.5412  1.3933  1.5275
 6115TIP3    H239981   2.637   0.489   3.042  1.1167 -0.8036  0.8398
 6116TIP3   OH239982   5.464   4.752   8.558 -0.3990 -0.0329  0.3564
 6116TIP3    H139983   5.422   4.813   8.498 -1.3404 -1.5855 -0.6340
 6116TIP3    H239984   5.431   4.776   8.645 -0.6708  0.8957  0.0016
 6117TIP3   OH239985   6.529   2.753   3.353  0.1684  0.2873 -0.0034
 6117TIP3    H139986   6.506   2.667   3.318 -0.4275  0.3607  0.2004
 6117TIP3    H239987   6.619   2.767   3.325 -0.2528  0.3028 -1.4387
 6118TIP3   OH239988   1.501   4.166   8.161 -0.0500 -0.2856 -0.5554
 6118TIP3    H139989   1.577   4.209   8.199 -0.7257  0.4239  0.0450
 6118TIP3    H239990   1.427   4.218   8.192 -0.8184 -1.2664 -0.6882
 6119TIP3   OH239991   4.569   4.018   0.855 -0.3032  0.1285  0.2321
 6119TIP3    H139992   4.480   4.001   0.883 -0.5427  0.4667 -0.3063
 6119TIP3    H239993   4.602   4.084   0.915 -0.5531  0.3036  0.1760
 6120TIP3   OH239994   5.311   6.040   8.333  0.4216  0.0133 -0.1617
 6120TIP3    H139995   5.391   6.089   8.314  0.3680  0.6165  1.0297
 6120TIP3    H239996   5.240   6.098   8.304  0.4050 -0.3287 -0.8089
 6121TIP3   OH239997   3.085   0.307   0.494  0.1105 -0.5709  0.2793
 6121TIP3    H139998   3.035   0.266   0.424 -1.8050  1.0036  0.6500
 6121TIP3    H239999   3.046   0.274   0.575  1.5468 -1.4785  0.6435
 6122TIP3   OH240000   2.143   4.701   0.660 -0.0374 -0.2171 -0.3102
 6122TIP3    H140001   2.061   4.707   0.708  0.1209 -0.0960 -0.0541
 6122TIP3    H240002   2.196   4.773   0.694  0.0781 -0.1340 -0.6589
 6123TIP3   OH240003   3.727   1.105   8.307  0.0746 -0.0201  0.1067
 6123TIP3    H140004   3.806   1.142   8.347 -0.3405  0.2438  0.6829
 6123TIP3    H240005   3.755   1.079   8.219  0.8092  0.0537  0.3135
 6124TIP3   OH240006   3.094   2.432   0.127 -0.4526  0.2824 -0.0208
 6124TIP3    H140007   3.044   2.387   0.196 -2.6162  0.2302 -1.5442
 6124TIP3    H240008   3.138   2.362   0.079 -0.2217  0.1913  0.3194
 6125TIP3   OH240009   3.302   0.248   2.719  0.5247  0.1067  1.3169
 6125TIP3    H140010   3.384   0.246   2.768  2.5388  0.2995 -1.7335
 6125TIP3    H240011   3.252   0.319   2.758  2.5029  1.0280  2.3167
 6126TIP3   OH240012   5.570   0.178   7.379  0.1180 -0.1666 -0.1231
 6126TIP3    H140013   5.637   0.123   7.339 -0.0177 -0.5095  0.1126
 6126TIP3    H240014   5.584   0.168   7.474 -2.0591 -2.5781  0.0472
 6127TIP3   OH240015   2.284   5.721   0.617 -0.1725  0.2668 -0.3109
 6127TIP3    H140016   2.277   5.777   0.694 -0.9154 -1.0873  0.6695
 6127TIP3    H240017   2.312   5.779   0.547  0.5046  1.5577  0.9674
 6128TIP3   OH240018   3.100   1.860   1.440 -0.0191  0.1992  0.1659
 6128TIP3    H140019   3.047   1.848   1.518  0.5667 -0.0142  0.5380
 6128TIP3    H240020   3.173   1.914   1.468  2.4930 -3.1990  0.8952
 6129TIP3   OH240021   0.595   1.918   2.626 -0.4155 -0.5493 -0.3426
 6129TIP3    H140022   0.617   1.868   2.704 -0.2010  0.0355 -0.0196
 6129TIP3    H240023   0.510   1.957   2.645  0.2517  0.7293  0.1887
 6130TIP3   OH240024   0.048   0.641   1.219  0.9276 -0.1578  0.2228
 6130TIP3    H140025   0.044   0.736   1.222  0.4168 -0.1110 -1.2330
 6130TIP3    H240026   0.141   0.621   1.231  1.0037  0.5052  0.7812
 6131TIP3   OH240027   4.088   3.331   8.168 -0.0796 -0.4947  0.1390
 6131TIP3    H140028   4.017   3.332   8.232  0.6603 -0.3704  0.9746
 6131TIP3    H240029   4.066   3.258   8.109 -0.8241 -0.5455  0.4675
 6132TIP3   OH240030   6.539   2.132   0.005 -0.1633  0.7066 -0.5880
 6132TIP3    H140031   6.477   2.205   0.003  1.6344  2.4716  1.8958
 6132TIP3    H240032   6.613   2.163  -0.047  0.6623  0.7244  0.5780
 6133TIP3   OH240033   2.249   6.334   1.641 -0.6305  0.3585 -0.1363
 6133TIP3    H140034   2.170   6.382   1.615  0.6439  2.2000 -0.8388
 6133TIP3    H240035   2.320   6.398   1.632  0.8211 -0.9143  1.4829
 6134TIP3   OH240036   4.424   0.226   0.094 -0.4113  0.6624 -0.4497
 6134TIP3    H140037   4.438   0.309   0.139  0.5101  0.8649 -1.0963
 6134TIP3    H240038   4.491   0.168   0.129 -0.3044  0.5357 -0.8596
 6135TIP3   OH240039   5.794   0.459   0.555 -0.2791 -0.5194  0.6883
 6135TIP3    H140040   5.863   0.523   0.538 -0.2035 -0.0267  2.5958
 6135TIP3    H240041   5.717   0.496   0.512  0.3008 -0.3591 -0.2475
 6136TIP3   OH240042   4.306   1.081   0.938 -0.2410 -0.1530 -0.4071
 6136TIP3    H140043   4.302   1.029   0.859  1.1866  0.8487 -1.1751
 6136TIP3    H240044   4.245   1.153   0.923  0.0873  0.0792 -0.6397
 6137TIP3   OH240045   0.461   5.573   1.033 -0.1979  0.3495 -0.4102
 6137TIP3    H140046   0.502   5.618   1.107  1.7025 -1.0200 -0.5621
 6137TIP3    H240047   0.439   5.486   1.066 -0.4480  0.1308 -1.1188
 6138TIP3   OH240048   6.550   5.591   3.170 -0.0072  0.0548  0.2887
 6138TIP3    H140049   6.460   5.612   3.194 -0.0753 -0.4416  0.4957
 6138TIP3    H240050   6.599   5.672   3.184 -0.3999  0.2943  0.2884
 6139TIP3   OH240051   5.202   2.208   0.052  0.2456  0.2826  0.8413
 6139TIP3    H140052   5.263   2.185  -0.017 -0.5121 -0.1241  0.2862
 6139TIP3    H240053   5.120   2.228   0.006 -0.3757 -0.3667  1.6384
 6140TIP3   OH240054   1.272   3.585   0.805 -0.3826 -0.3090  0.0685
 6140TIP3    H140055   1.239   3.495   0.801  0.1814 -0.7013  2.4786
 6140TIP3    H240056   1.364   3.575   0.832 -0.2974  0.9909  0.3085
 6141TIP3   OH240057   3.274   6.766   0.999 -0.2657  0.2894 -0.8197
 6141TIP3    H140058   3.187   6.793   1.029  0.4681  1.9509 -0.0213
 6141TIP3    H240059   3.333   6.830   1.039  1.4008 -1.2395 -0.7373
 6142TIP3   OH240060   6.390   3.535   7.720 -0.7915 -0.1510  0.6565
 6142TIP3    H140061   6.379   3.630   7.718  0.0871  0.0659  3.1764
 6142TIP3    H240062   6.455   3.517   7.652 -0.5255  1.1318  0.5588
 6143TIP3   OH240063   5.597   4.439   8.120  0.0077  0.7315  0.0503
 6143TIP3    H140064   5.669   4.462   8.179 -0.4687  2.3013  0.0666
 6143TIP3    H240065   5.639   4.428   8.035  0.5354 -0.3894  0.4366
 6144TIP3   OH240066   2.982   3.647   0.610  0.1357  0.4559  0.3073
 6144TIP3    H140067   2.942   3.579   0.556  1.2740 -0.6494  0.7956
 6144TIP3    H240068   3.028   3.704   0.548 -0.8435  0.8057 -0.1094
 6145TIP3   OH240069   4.644   3.685   2.091  0.2476 -0.5087 -0.2435
 6145TIP3    H140070   4.674   3.666   2.002  1.0270  0.7025 -0.2626
 6145TIP3    H240071   4.549   3.675   2.087  0.2514 -0.2175 -1.2885
 6146TIP3   OH240072   6.094   4.210   2.600 -0.4160 -0.0219  0.4726
 6146TIP3    H140073   6.019   4.167   2.641 -0.9152 -0.7271 -1.0664
 6146TIP3    H240074   6.170   4.164   2.635 -0.6843  0.7459  2.1018
 6147TIP3   OH240075   3.921   3.819   0.247  0.8216  0.0671  0.2910
 6147TIP3    H140076   3.996   3.866   0.283  0.1015  0.4501  1.3405
 6147TIP3    H240077   3.859   3.887   0.221 -0.1216 -0.2472  1.5813
 6148TIP3   OH240078   5.287   5.102   1.390  0.2097  0.9498  0.1142
 6148TIP3    H140079   5.343   5.118   1.466  1.3064  1.9347 -0.8521
 6148TIP3    H240080   5.211   5.159   1.403  1.0180  2.1125 -0.1416
 6149TIP3   OH240081   1.559   0.921   2.422 -0.0286  0.5793 -0.2977
 6149TIP3    H140082   1.556   0.902   2.516 -0.8339  2.0398  0.0129
 6149TIP3    H240083   1.572   0.836   2.380  0.3455 -0.0960  1.1355
 6150TIP3   OH240084   2.032   6.152   7.605  0.5153  0.0992 -0.3528
 6150TIP3    H140085   2.036   6.216   7.534 -1.2021  0.6500 -0.0091
 6150TIP3    H240086   1.951   6.104   7.590  0.4742 -0.2508  0.8324
 6151TIP3   OH240087   2.423   0.888   8.753  0.2753 -0.4319 -0.1287
 6151TIP3    H140088   2.351   0.943   8.723  0.9733  0.5423 -0.0802
 6151TIP3    H240089   2.483   0.884   8.678  0.8784  0.0234  0.3177
 6152TIP3   OH240090   4.467   5.691   1.839  0.8523  0.2930 -0.0838
 6152TIP3    H140091   4.549   5.643   1.828  0.9182 -0.6984  3.4243
 6152TIP3    H240092   4.410   5.657   1.770  2.6167 -0.8021 -1.0806
 6153TIP3   OH240093   0.657   3.899   2.591 -0.5050  0.0096 -0.0551
 6153TIP3    H140094   0.687   3.860   2.509 -0.8716 -0.0114 -0.1809
 6153TIP3    H240095   0.663   3.828   2.655 -0.4721 -0.0477 -0.1216
 6154TIP3   OH240096   0.093   0.346   7.984  0.0327  0.0639  0.0078
 6154TIP3    H140097   0.052   0.265   7.955  0.1855  0.0598 -0.1944
 6154TIP3    H240098   0.109   0.396   7.904 -1.1966  0.8328  0.2160
 6155TIP3   OH240099   1.447   6.045   1.904  0.6071 -0.4843  0.3655
 6155TIP3    H140100   1.452   6.138   1.881  0.3156 -0.5896 -0.1342
 6155TIP3    H240101   1.419   6.045   1.996 -0.5600 -0.0863  0.0310
 6156TIP3   OH240102   5.471   4.398   1.191  0.0292 -0.3955 -0.2202
 6156TIP3    H140103   5.416   4.407   1.269 -0.3668  0.0945 -0.5508
 6156TIP3    H240104   5.433   4.324   1.144 -0.2822 -0.1319 -0.3893
 6157TIP3   OH240105   5.921   0.497   1.206  0.3701  0.3715 -0.1604
 6157TIP3    H140106   5.887   0.483   1.117 -1.8562 -0.6002  0.7633
 6157TIP3    H240107   5.901   0.416   1.253 -1.7311  2.0376  2.1149
 6158TIP3   OH240108   6.330   6.436   1.699 -0.1251 -0.0909  0.1071
 6158TIP3    H140109   6.300   6.481   1.778  1.0741 -1.6323  1.5197
 6158TIP3    H240110   6.402   6.489   1.666 -0.5143  0.4638  0.1343
 6159TIP3   OH240111   6.152   0.183   0.211  0.3150 -0.0973 -0.1246
 6159TIP3    H140112   6.075   0.164   0.265  0.0121  1.0048 -0.1344
 6159TIP3    H240113   6.225   0.146   0.259 -0.1817 -0.8805  0.0489
 6160TIP3   OH240114   1.166   3.121   1.516 -0.6739  0.2579  0.6313
 6160TIP3    H140115   1.253   3.093   1.542 -0.9526 -1.3295 -0.0059
 6160TIP3    H240116   1.108   3.054   1.551 -1.5612  0.8702  0.3783
 6161TIP3   OH240117   5.740   0.610   2.376 -0.7204 -0.1883  0.2880
 6161TIP3    H140118   5.825   0.617   2.333 -1.1329 -2.6485 -1.1081
 6161TIP3    H240119   5.685   0.675   2.332  0.0250  0.3679  0.1676
 6162TIP3   OH240120   0.673   6.168   1.361 -0.0815 -0.3457 -0.3743
 6162TIP3    H140121   0.702   6.156   1.271 -1.2033 -2.2171 -0.5514
 6162TIP3    H240122   0.604   6.102   1.373 -0.9411  0.7983  1.4244
 6163TIP3   OH240123   4.712   1.487   2.354 -0.1607 -0.0178  0.1104
 6163TIP3    H140124   4.684   1.397   2.339  1.0288 -0.3458 -0.2530
 6163TIP3    H240125   4.780   1.480   2.422 -0.5431  0.6844  0.5843
 6164TIP3   OH240126   2.144   0.213   1.960  0.2799  0.6831 -0.0658
 6164TIP3    H140127   2.159   0.246   2.049  0.0740 -0.1922  0.2991
 6164TIP3    H240128   2.073   0.268   1.927  0.2411  0.9074  0.3713
 6165TIP3   OH240129   3.790   3.514   3.593  0.2220  0.0802  0.1906
 6165TIP3    H140130   3.730   3.583   3.618  0.7688  0.2889  0.9762
 6165TIP3    H240131   3.812   3.532   3.502  0.1596  0.7962  0.3159
 6166TIP3   OH240132   1.810   5.834   2.555 -0.3208  0.1347  0.3608
 6166TIP3    H140133   1.906   5.839   2.553  0.0554 -1.7455  4.2818
 6166TIP3    H240134   1.787   5.776   2.482  1.4978  0.5641 -0.6070
 6167TIP3   OH240135   3.935   1.683   0.906  0.3334 -0.3368  0.4410
 6167TIP3    H140136   4.013   1.629   0.894  1.0059  0.7261 -0.1645
 6167TIP3    H240137   3.928   1.694   1.001 -0.0927 -1.8458  0.6043
 6168TIP3   OH240138   3.837   2.755   1.597  0.1521 -0.1357  0.9795
 6168TIP3    H140139   3.791   2.781   1.677  0.1933 -0.0718  0.9830
 6168TIP3    H240140   3.928   2.782   1.613  0.1001  0.1680  0.7808
 6169TIP3   OH240141   0.638   3.754   8.402 -0.1412  0.1830  0.4490
 6169TIP3    H140142   0.716   3.700   8.419 -1.4730 -0.9335  3.9191
 6169TIP3    H240143   0.671   3.843   8.397  1.4149 -0.2490  1.9742
 6170TIP3   OH240144   0.743   0.339   7.936 -0.2666  0.1897 -0.3363
 6170TIP3    H140145   0.650   0.355   7.920 -0.5235  1.2952  1.8495
 6170TIP3    H240146   0.775   0.301   7.855 -2.9620 -1.7685 -0.6208
 6171TIP3   OH240147   3.696   0.408   7.741 -0.5285 -0.1882 -0.3506
 6171TIP3    H140148   3.732   0.406   7.652  1.2781  0.0570  0.3369
 6171TIP3    H240149   3.736   0.332   7.784 -0.3653  0.4362  0.6173
 6172TIP3   OH240150   6.075   2.858   2.167 -0.8082 -0.4546  0.8302
 6172TIP3    H140151   6.022   2.904   2.102 -0.5750 -2.1178 -0.6184
 6172TIP3    H240152   6.159   2.904   2.167 -0.6815 -0.6576 -0.3673
 6173TIP3   OH240153   5.376   2.432   2.256 -0.3262 -0.5215  0.8023
 6173TIP3    H140154   5.416   2.516   2.278 -2.5859  0.3600  1.9132
 6173TIP3    H240155   5.377   2.383   2.338  1.0832 -1.6882  0.1331
 6174TIP3   OH240156   6.108   6.430   1.545  0.2750 -0.6307  0.1766
 6174TIP3    H140157   6.192   6.445   1.587 -1.2011  2.6871  2.4160
 6174TIP3    H240158   6.065   6.365   1.600  0.7735 -1.1717 -0.0667
 6175TIP3   OH240159   0.966   4.937   8.006  0.6399 -0.4917 -0.2439
 6175TIP3    H140160   0.889   4.907   7.957  0.3245 -1.3731  0.7527
 6175TIP3    H240161   0.930   4.991   8.077  1.1307  1.3439 -1.3029
 6176TIP3   OH240162   3.110   5.594   7.986 -0.0033  0.2559  0.0287
 6176TIP3    H140163   3.033   5.649   8.000 -0.5481 -0.5959  0.5207
 6176TIP3    H240164   3.129   5.557   8.073 -0.2374 -1.0471 -0.4466
 6177TIP3   OH240165   0.026   5.001   2.451 -0.3776 -0.0512  0.3347
 6177TIP3    H140166   0.091   5.056   2.408  1.2244 -1.0682  1.3373
 6177TIP3    H240167  -0.035   5.062   2.491 -2.1640  0.9890 -3.4606
 6178TIP3   OH240168   1.332   1.288   1.091 -0.2743  0.0306  0.3111
 6178TIP3    H140169   1.279   1.234   1.033  0.2583  0.9106 -1.0524
 6178TIP3    H240170   1.316   1.253   1.178 -0.8407 -1.5576 -0.3969
 6179TIP3   OH240171   1.623   1.416   0.477 -0.3212  0.3929  0.2105
 6179TIP3    H140172   1.540   1.441   0.436 -0.4894  0.7429  0.7443
 6179TIP3    H240173   1.597   1.363   0.552  0.0061 -0.6861 -0.4300
 6180TIP3   OH240174   2.231   2.001   7.676 -0.1100 -0.2860 -0.5321
 6180TIP3    H140175   2.164   1.933   7.665  0.4383 -0.4879 -3.1278
 6180TIP3    H240176   2.219   2.059   7.601 -0.3422  2.4015  1.4143
 6181TIP3   OH240177   0.787   4.798   1.535  0.2239  0.1176 -0.6028
 6181TIP3    H140178   0.850   4.730   1.512  0.0146 -0.3218  0.0973
 6181TIP3    H240179   0.840   4.875   1.557  0.4722  0.0567 -0.9746
 6182TIP3   OH240180   6.673   6.703   0.747  0.8066  0.3668  0.1738
 6182TIP3    H140181   6.732   6.658   0.808  0.6105  0.3798  0.3699
 6182TIP3    H240182   6.719   6.784   0.725  0.5954  0.6545  0.7871
 6183TIP3   OH240183   0.759   1.480   1.353  0.2301  0.7644 -0.3499
 6183TIP3    H140184   0.734   1.534   1.279  0.6412  0.9199 -0.3777
 6183TIP3    H240185   0.848   1.451   1.333 -0.3064 -0.6855 -0.7825
 6184TIP3   OH240186   1.968   0.767   8.032 -0.0505 -0.5335 -0.3671
 6184TIP3    H140187   1.894   0.749   8.090  0.6744  0.5372  0.9384
 6184TIP3    H240188   1.952   0.855   7.999  1.2101  0.2215  0.9066
 6185TIP3   OH240189   3.688   0.638   0.280  0.1727 -0.5151 -0.0247
 6185TIP3    H140190   3.678   0.638   0.375 -1.9727  0.3455 -0.1869
 6185TIP3    H240191   3.701   0.546   0.257  1.3371 -0.6607  1.1284
 6186TIP3   OH240192   0.247   5.785   8.289  0.1954 -0.2054  0.2051
 6186TIP3    H140193   0.301   5.847   8.338  0.9415 -0.3314 -0.4278
 6186TIP3    H240194   0.288   5.700   8.303  0.9875 -0.1216 -1.3510
 6187TIP3   OH240195   6.858   4.404   0.593  0.6397  1.1175 -0.4298
 6187TIP3    H140196   6.893   4.344   0.659 -1.2987  0.6235  0.2091
 6187TIP3    H240197   6.843   4.349   0.516 -1.7424  0.5306  0.3577
 6188TIP3   OH240198   2.637   3.814   8.774  0.2623  0.2003  0.6353
 6188TIP3    H140199   2.670   3.848   8.690 -0.3415 -0.1840  0.2345
 6188TIP3    H240200   2.555   3.861   8.788 -0.6209 -1.1061  0.0393
 6189TIP3   OH240201   0.414   5.327   2.072  0.5945 -0.2332 -0.8255
 6189TIP3    H140202   0.504   5.340   2.099  0.3391 -0.2058  0.0459
 6189TIP3    H240203   0.382   5.256   2.127 -1.0653  2.2873  1.7580
 6190TIP3   OH240204   6.023   5.887   7.231 -0.0316  0.2766 -0.1510
 6190TIP3    H140205   6.009   5.821   7.298  0.2155 -0.4258 -0.7854
 6190TIP3    H240206   5.939   5.931   7.222  0.2898  1.3709  1.6398
 6191TIP3   OH240207   1.745   6.857   1.435 -0.8976  0.2363 -0.2716
 6191TIP3    H140208   1.824   6.858   1.381 -2.0094 -0.8553 -2.0118
 6191TIP3    H240209   1.758   6.928   1.497  2.1290 -0.8475  0.5355
 6192TIP3   OH240210   3.861   5.747   2.926  0.0051  0.4807  0.6882
 6192TIP3    H140211   3.885   5.694   3.002  0.8082  1.3398  1.0472
 6192TIP3    H240212   3.825   5.828   2.962 -1.0201  0.2856  0.1401
 6193TIP3   OH240213   6.298   0.018   3.047  0.2618 -0.2052 -0.1356
 6193TIP3    H140214   6.288  -0.053   3.111  1.4704 -1.6052 -1.4164
 6193TIP3    H240215   6.211   0.027   3.008 -0.1450 -0.2920  0.7268
 6194TIP3   OH240216   4.294   5.438   1.008  0.4402 -0.0119 -0.8228
 6194TIP3    H140217   4.310   5.522   0.967 -0.8310  1.9710  2.3256
 6194TIP3    H240218   4.227   5.397   0.953 -1.1151  2.4222 -0.9003
 6195TIP3   OH240219   5.654   0.215   1.095 -0.1907 -0.4370  0.4691
 6195TIP3    H140220   5.657   0.256   1.009 -1.7037 -0.3007  0.4508
 6195TIP3    H240221   5.614   0.281   1.152 -3.8051 -2.1377  0.1969
 6196TIP3   OH240222   1.891   1.307   1.390 -0.1227  0.3978  0.2234
 6196TIP3    H140223   1.848   1.226   1.420  1.7942 -0.9308 -0.3937
 6196TIP3    H240224   1.820   1.360   1.355 -1.1795 -2.4886 -2.5360
 6197TIP3   OH240225   2.479   3.753   0.206  0.8899 -0.1380 -0.1556
 6197TIP3    H140226   2.553   3.741   0.146  0.3058 -0.3671 -0.8339
 6197TIP3    H240227   2.485   3.679   0.266  1.8552  0.4382  0.4846
 6198TIP3   OH240228   4.465   1.549   0.682  0.0595  0.0588 -0.4556
 6198TIP3    H140229   4.550   1.592   0.680  0.0364  0.2190  0.9854
 6198TIP3    H240230   4.472   1.486   0.755 -1.1587  0.3264 -0.0893
 6199TIP3   OH240231   4.481   0.704   2.628 -0.0187 -0.5651 -0.3580
 6199TIP3    H140232   4.386   0.701   2.625 -0.1219  1.4991 -0.4634
 6199TIP3    H240233   4.506   0.626   2.676 -1.8564 -0.4068  0.9411
 6200TIP3   OH240234   2.828   0.696   2.864 -0.2689  0.0689  0.3472
 6200TIP3    H140235   2.792   0.701   2.775 -0.5982  0.6617  0.5093
 6200TIP3    H240236   2.802   0.609   2.895  1.1293 -0.7497 -0.6725
 6201TIP3   OH240237   1.959   4.118   0.290  0.2198  0.1042 -0.1165
 6201TIP3    H140238   1.883   4.130   0.347 -1.2372  0.8213 -2.1017
 6201TIP3    H240239   1.960   4.195   0.234  1.5277 -0.6102 -1.1531
 6202TIP3   OH240240   5.739   0.924   8.559  0.0607  0.0110  0.1941
 6202TIP3    H140241   5.709   1.009   8.589 -0.9677 -0.5866  0.9037
 6202TIP3    H240242   5.827   0.941   8.525 -0.5533  1.5629 -0.7451
 6203TIP3   OH240243   0.352   0.462   2.227 -0.3306 -0.2939  0.1964
 6203TIP3    H140244   0.324   0.377   2.259  0.6758 -1.3015 -1.4393
 6203TIP3    H240245   0.447   0.461   2.235 -0.3174  0.7793  0.3710
 6204TIP3   OH240246   0.744   2.535   0.364 -0.0537 -0.1860  0.2996
 6204TIP3    H140247   0.824   2.484   0.377  0.2850 -0.0720 -1.2405
 6204TIP3    H240248   0.773   2.616   0.323 -0.8150  0.4707  1.0195
 6205TIP3   OH240249   0.495   4.474   2.851 -0.1031 -0.2581  0.4514
 6205TIP3    H140250   0.510   4.441   2.940  0.7776 -3.2287 -0.6777
 6205TIP3    H240251   0.578   4.460   2.806 -1.0188 -0.4592 -1.2781
 6206TIP3   OH240252   6.634   4.707   2.580 -0.4383  0.3971  0.2402
 6206TIP3    H140253   6.669   4.752   2.503 -1.1222  0.5945  0.0324
 6206TIP3    H240254   6.571   4.770   2.617 -1.1328 -0.2417  0.1630
 6207TIP3   OH240255   5.297   6.157   2.354  0.0161  0.4375 -0.4314
 6207TIP3    H140256   5.354   6.082   2.374  0.0524  0.5573 -0.0714
 6207TIP3    H240257   5.312   6.175   2.262 -0.1814 -0.1646 -0.5826
 6208TIP3   OH240258   1.654   4.150   2.773 -0.2062  0.1391 -0.1264
 6208TIP3    H140259   1.677   4.220   2.834  0.5421 -0.4600  0.3098
 6208TIP3    H240260   1.559   4.155   2.765 -0.2303  0.7503  0.4491
 6209TIP3   OH240261   1.791   0.002   0.596 -0.0697  0.2695 -0.1250
 6209TIP3    H140262   1.856   0.053   0.644 -1.0706  1.3012  0.1683
 6209TIP3    H240263   1.843  -0.048   0.531  1.0134  0.9298  0.2071
 6210TIP3   OH240264   6.180   0.378   0.018 -0.2689 -0.0529 -0.0135
 6210TIP3    H140265   6.160   0.376   0.111  2.2108 -0.8805  0.5773
 6210TIP3    H240266   6.170   0.470  -0.007 -2.5765 -0.0835  0.6334
 6211TIP3   OH240267   3.101   1.578   7.409  0.2664  0.0970  0.0079
 6211TIP3    H140268   3.125   1.659   7.364 -0.5980  1.4195  1.8276
 6211TIP3    H240269   3.012   1.559   7.378  0.1561  0.2968  0.2038
 6212TIP3   OH240270   0.810   6.497   8.472  0.0740 -0.4827  0.1224
 6212TIP3    H140271   0.757   6.438   8.418  1.3058  0.4194 -2.2092
 6212TIP3    H240272   0.891   6.448   8.489  0.3982 -0.1323 -0.3722
 6213TIP3   OH240273   1.953   4.408   7.867  0.6485 -0.3255  0.9047
 6213TIP3    H140274   1.986   4.498   7.875 -2.1275  1.1081 -1.6880
 6213TIP3    H240275   1.947   4.393   7.773  1.0832 -3.3446  1.2686
 6214TIP3   OH240276   3.186   3.185   2.450 -0.0315 -0.0391  0.0482
 6214TIP3    H140277   3.112   3.150   2.399  0.5261  0.1647 -0.9324
 6214TIP3    H240278   3.145   3.232   2.522 -0.8628 -0.0486 -0.4025
 6215TIP3   OH240279   1.994   4.478   0.332 -0.0274  0.2148 -0.0467
 6215TIP3    H140280   1.995   4.559   0.382 -0.9121 -0.0478  0.4045
 6215TIP3    H240281   2.072   4.484   0.276  1.9596 -0.2069  2.4717
 6216TIP3   OH240282   0.275   4.634   0.930 -0.2788  0.2367  0.8724
 6216TIP3    H140283   0.229   4.569   0.984 -1.2725  0.1924  0.0082
 6216TIP3    H240284   0.360   4.594   0.913 -0.1455  0.0178  1.9510
 6217TIP3   OH240285   5.043   2.059   0.242 -0.0979 -0.4025 -0.1382
 6217TIP3    H140286   5.136   2.080   0.231 -0.3311  0.6961 -0.0985
 6217TIP3    H240287   5.028   1.987   0.181  0.3439  0.6975 -1.6109
 6218TIP3   OH240288   5.651   4.824   7.808 -0.3337  0.3379  0.4374
 6218TIP3    H140289   5.567   4.790   7.838 -1.3122  1.3673 -0.9866
 6218TIP3    H240290   5.663   4.785   7.721  1.9498 -1.8185  1.5926
 6219TIP3   OH240291   0.321   0.395   1.127  0.5968  0.0494 -0.2825
 6219TIP3    H140292   0.271   0.429   1.052 -0.9738 -1.0898  0.1990
 6219TIP3    H240293   0.332   0.471   1.184 -0.0036  0.4823 -0.7254
 6220TIP3   OH240294   5.536   1.853   0.269  0.5015  0.1922  1.0784
 6220TIP3    H140295   5.590   1.786   0.227 -0.3127 -0.0332  0.3481
 6220TIP3    H240296   5.513   1.815   0.354 -0.6298 -0.8542  0.3489
 6221TIP3   OH240297   3.277   6.059   8.678 -0.2248  0.4534  0.0913
 6221TIP3    H140298   3.308   6.034   8.765  0.6841  0.5767 -0.1824
 6221TIP3    H240299   3.218   5.988   8.652  0.1687 -0.0164  0.4643
 6222TIP3   OH240300   6.715   3.386   8.308 -0.0070  0.6903  0.0515
 6222TIP3    H140301   6.758   3.376   8.393  0.0437 -2.6547 -0.2500
 6222TIP3    H240302   6.621   3.383   8.328  0.0057 -0.1964  0.0022
 6223TIP3   OH240303   4.501   6.035   1.693  0.5767  0.7151  0.3447
 6223TIP3    H140304   4.485   5.999   1.781 -1.3911  0.7819  0.0724
 6223TIP3    H240305   4.534   6.123   1.708  1.1762  0.3788  1.0214
 6224TIP3   OH240306   4.632   6.552   2.641 -0.2902 -0.4651  0.3769
 6224TIP3    H140307   4.606   6.468   2.602  0.8745 -1.0233  0.7830
 6224TIP3    H240308   4.727   6.549   2.644 -0.2859  0.3658  1.5301
 6225TIP3   OH240309   5.828   0.610   7.550  0.7317 -0.1056  0.2892
 6225TIP3    H140310   5.776   0.672   7.499  1.1771  0.8136  0.9206
 6225TIP3    H240311   5.859   0.546   7.486  1.4717  1.1477 -0.6613
 6226TIP3   OH240312   3.684   5.480   2.016  0.2296  0.6520 -0.0253
 6226TIP3    H140313   3.734   5.493   1.935  2.7825  0.6968  1.4353
 6226TIP3    H240314   3.751   5.461   2.082 -1.5548  2.5696  2.5123
 6227TIP3   OH240315   4.738   5.584   0.823  0.1168 -0.5888  0.4014
 6227TIP3    H140316   4.798   5.613   0.755 -1.4428  0.3504 -0.6442
 6227TIP3    H240317   4.690   5.511   0.783 -1.3932  0.5032  0.1189
 6228TIP3   OH240318   2.060   1.767   0.146 -0.4292 -0.0753  0.3087
 6228TIP3    H140319   2.011   1.774   0.228 -0.5074  3.8906  0.1085
 6228TIP3    H240320   2.146   1.805   0.167 -0.5442  1.2819 -1.4455
 6229TIP3   OH240321   5.971   3.689   2.301 -0.7311 -0.1948 -0.3285
 6229TIP3    H140322   6.030   3.760   2.276  0.6574 -0.8290  1.0406
 6229TIP3    H240323   5.988   3.620   2.236  1.8370 -1.2838  1.3175
 6230TIP3   OH240324   2.593   3.124   0.747  0.2850 -0.3957  0.5278
 6230TIP3    H140325   2.501   3.100   0.740  0.6640 -1.9623  0.6381
 6230TIP3    H240326   2.604   3.149   0.839  0.0457 -0.5054  0.5853
 6231TIP3   OH240327   4.305   5.980   0.080  0.0436  0.6384 -0.0265
 6231TIP3    H140328   4.350   6.050   0.033 -0.0265  0.4218 -0.4196
 6231TIP3    H240329   4.362   5.904   0.071 -0.1711  0.4882 -0.1154
 6232TIP3   OH240330   2.172   2.595   0.006  0.1395  0.4944  0.3782
 6232TIP3    H140331   2.188   2.508  -0.031 -0.9938  0.8639 -1.0772
 6232TIP3    H240332   2.223   2.654  -0.049  1.3336  0.7259  1.6917
 6233TIP3   OH240333   4.387   4.354   8.493  0.5400  0.0361  0.3257
 6233TIP3    H140334   4.448   4.422   8.463  0.0080  0.4717  0.2125
 6233TIP3    H240335   4.331   4.398   8.557 -0.6308  0.0597 -0.6713
 6234TIP3   OH240336   4.937   5.978   2.395 -0.4290  0.0420 -0.8800
 6234TIP3    H140337   4.970   5.999   2.482 -0.2465  1.6240 -1.3101
 6234TIP3    H240338   4.855   6.027   2.388 -0.4543 -0.0962 -1.5951
 6235TIP3   OH240339   1.729   3.188   8.633 -0.0930  0.6809  0.1437
 6235TIP3    H140340   1.666   3.158   8.568  2.4925 -1.8791 -1.4075
 6235TIP3    H240341   1.751   3.110   8.684  3.6304  0.7539 -1.0721
 6236TIP3   OH240342   6.146   3.321   2.560 -0.2912  0.4076 -0.2111
 6236TIP3    H140343   6.126   3.392   2.621  0.7790  2.3474 -1.9589
 6236TIP3    H240344   6.138   3.361   2.473  1.4722 -1.2775 -1.2484
 6237TIP3   OH240345   0.147   0.712   0.294 -0.5330  0.2949  0.1514
 6237TIP3    H140346   0.138   0.633   0.241  3.9908 -0.5076  0.1536
 6237TIP3    H240347   0.116   0.783   0.237  0.0320 -0.9849 -1.8538
 6238TIP3   OH240348   2.889   1.441   2.036  0.3008 -0.1155  1.0198
 6238TIP3    H140349   2.942   1.519   2.024 -0.2663  0.0636 -0.4042
 6238TIP3    H240350   2.928   1.376   1.977 -0.2789 -0.3737  0.9163
 6239TIP3   OH240351   3.034   3.652   2.476  0.1579 -0.4152  0.0724
 6239TIP3    H140352   2.979   3.575   2.494 -0.4011 -0.2209 -0.7644
 6239TIP3    H240353   2.998   3.689   2.396  1.0870  0.1205 -0.1093
 6240TIP3   OH240354   1.718   1.195   3.472  0.7447 -0.4262  0.6862
 6240TIP3    H140355   1.756   1.206   3.384  2.1020 -1.8866  1.0514
 6240TIP3    H240356   1.624   1.185   3.456  1.0911 -1.8156 -0.7395
 6241TIP3   OH240357   3.834   6.858   1.213 -0.1549 -0.0219  0.4982
 6241TIP3    H140358   3.762   6.796   1.209  0.5411 -0.9252  1.4066
 6241TIP3    H240359   3.795   6.942   1.191 -1.4615 -0.5020  0.8957
 6242TIP3   OH240360   4.045   5.986   1.499  0.1468  0.0809 -0.7625
 6242TIP3    H140361   4.055   5.990   1.404  0.2721  0.4560 -0.7360
 6242TIP3    H240362   4.098   6.059   1.531  0.6795 -0.4713 -0.3617
 6243TIP3   OH240363   6.712   6.167   0.180  0.4232 -0.1162 -0.0464
 6243TIP3    H140364   6.652   6.095   0.160 -1.1868  1.2175 -0.2355
 6243TIP3    H240365   6.658   6.232   0.225  1.7718  1.0830 -0.0799
 6244TIP3   OH240366   2.195   5.088   1.187  0.1280 -0.0509 -0.3513
 6244TIP3    H140367   2.218   5.157   1.249  1.2387 -1.0777  0.4184
 6244TIP3    H240368   2.100   5.078   1.196  0.2784 -0.2347  1.2549
 6245TIP3   OH240369   1.805   0.319   7.147  1.0336  0.2201 -0.3962
 6245TIP3    H140370   1.779   0.408   7.172  2.1877  0.4524  0.0536
 6245TIP3    H240371   1.875   0.332   7.082  1.4701 -0.3558 -0.0476
 6246TIP3   OH240372   6.068   2.307   8.101  0.4103 -0.5624  0.0953
 6246TIP3    H140373   6.130   2.307   8.028  0.1371  1.7972 -0.1916
 6246TIP3    H240374   6.124   2.308   8.179  0.6932 -1.2396 -0.0821
 6247TIP3   OH240375   0.220   6.505   3.309 -0.7099  0.3637 -0.1684
 6247TIP3    H140376   0.159   6.574   3.283 -0.7892  0.4417  0.2167
 6247TIP3    H240377   0.300   6.524   3.260 -1.6185 -0.9251 -2.2936
 6248TIP3   OH240378   0.007   0.995   0.217  0.7091  0.1994  0.2334
 6248TIP3    H140379   0.077   1.003   0.152  0.3036 -0.3184 -0.2725
 6248TIP3    H240380  -0.011   1.085   0.244  2.2125  0.2860  1.0681
 6249TIP3   OH240381   1.966   4.270   2.942  0.6735  0.0459 -0.1413
 6249TIP3    H140382   1.969   4.189   2.992  0.1825 -1.1740 -1.9922
 6249TIP3    H240383   2.037   4.261   2.878  0.6028  1.0676 -0.3804
 6250TIP3   OH240384   0.136   2.847   2.023 -0.4144 -0.8259 -0.1592
 6250TIP3    H140385   0.051   2.809   2.046 -1.2986  2.1229  2.2824
 6250TIP3    H240386   0.177   2.865   2.108  1.1990  0.7237 -1.2022
 6251TIP3   OH240387   1.888   6.830   2.890 -0.1330 -0.1687  0.4743
 6251TIP3    H140388   1.849   6.814   2.804  0.7992  0.0351  0.0041
 6251TIP3    H240389   1.910   6.923   2.889  1.8238 -0.5956  0.0948
 6252TIP3   OH240390   1.033   5.182   1.924  0.2974 -0.3502 -0.6739
 6252TIP3    H140391   1.055   5.269   1.891  0.3736 -0.3202 -0.5398
 6252TIP3    H240392   1.116   5.144   1.949  0.0506  0.4391  1.5386
 6253TIP3   OH240393   4.300   0.393   2.665  0.2045  0.3804 -0.5814
 6253TIP3    H140394   4.328   0.391   2.756 -0.0905  1.3963 -0.4492
 6253TIP3    H240395   4.365   0.341   2.618  0.0195 -0.6808  0.2840
 6254TIP3   OH240396   4.163   1.153   0.359 -0.0288  0.0414 -0.0652
 6254TIP3    H140397   4.108   1.161   0.282 -0.0976  1.5914  0.1015
 6254TIP3    H240398   4.134   1.224   0.417  2.7500  1.6377 -0.3968
 6255TIP3   OH240399   6.134   6.259   7.356 -0.4378  0.1696 -0.5260
 6255TIP3    H140400   6.070   6.275   7.425  1.3751 -0.3557  1.3708
 6255TIP3    H240401   6.173   6.345   7.339 -1.4463  0.4507 -1.5321
 6256TIP3   OH240402   2.896   4.319   7.677  0.2270 -0.3455  0.0557
 6256TIP3    H140403   2.987   4.318   7.647  0.1360  1.1160 -0.3676
 6256TIP3    H240404   2.844   4.336   7.598 -0.3890 -0.7483  0.3614
 6257TIP3   OH240405   3.248   4.481   0.224 -0.3547 -0.3125 -0.1157
 6257TIP3    H140406   3.300   4.515   0.150  0.6494 -1.7463 -0.1064
 6257TIP3    H240407   3.275   4.535   0.298 -1.4817  1.2435 -0.7892
 6258TIP3   OH240408   2.638   1.655   8.199 -0.3903  0.1375 -0.6419
 6258TIP3    H140409   2.720   1.608   8.214 -0.0003  0.9103 -0.3197
 6258TIP3    H240410   2.597   1.609   8.125  0.1366 -0.4936 -0.5512
 6259TIP3   OH240411   4.194   4.787   0.847  0.1230 -0.4056 -0.3939
 6259TIP3    H140412   4.207   4.859   0.785 -0.5891 -0.2052 -0.3235
 6259TIP3    H240413   4.240   4.713   0.808  0.9298  0.1057 -0.4268
 6260TIP3   OH240414   4.228   5.643   2.931  0.2946  0.3747  0.0247
 6260TIP3    H140415   4.296   5.673   2.991 -0.3318  0.7724  0.5494
 6260TIP3    H240416   4.244   5.549   2.921  1.1195  0.5274 -0.1238
 6261TIP3   OH240417   4.751   2.945   1.118  0.4138  0.5117  0.7802
 6261TIP3    H140418   4.730   2.853   1.135 -0.2395 -0.0203 -2.3213
 6261TIP3    H240419   4.846   2.947   1.110  0.3182 -0.3267 -0.9914
 6262TIP3   OH240420   3.904   2.542   2.677  0.3779  0.3160 -0.4123
 6262TIP3    H140421   3.949   2.607   2.623  0.8128 -0.0852 -0.5343
 6262TIP3    H240422   3.811   2.559   2.662  0.4817  0.9705 -0.3721
 6263TIP3   OH240423   4.496   1.846   0.027  0.5027  0.2023 -0.0581
 6263TIP3    H140424   4.584   1.862   0.062  1.6412 -2.2678 -1.5474
 6263TIP3    H240425   4.510   1.795  -0.052 -2.3251 -0.7865 -0.0406
 6264TIP3   OH240426   2.165   3.259   8.418 -0.5166  0.2274 -0.6149
 6264TIP3    H140427   2.232   3.251   8.350 -0.0890 -1.5031 -0.0467
 6264TIP3    H240428   2.083   3.263   8.369 -0.1012  0.9743 -1.2794
 6265TIP3   OH240429   5.017   3.916   0.186 -0.0296 -0.5033  0.0919
 6265TIP3    H140430   5.086   3.864   0.227  0.3186  0.2329  0.4642
 6265TIP3    H240431   4.972   3.855   0.127  0.3240 -1.2349  0.5627
 6266TIP3   OH240432   1.244   1.635   1.842  0.6167 -0.0136  0.5609
 6266TIP3    H140433   1.211   1.574   1.909 -1.4165 -0.9666 -1.1784
 6266TIP3    H240434   1.294   1.579   1.783  0.0119  0.2770 -0.2319
 6267TIP3   OH240435   1.023   2.176   0.397  0.2668  0.1713  0.2444
 6267TIP3    H140436   0.964   2.154   0.470  0.4911  0.9117  0.6643
 6267TIP3    H240437   1.066   2.093   0.376  0.3277 -0.0243  1.0728
 6268TIP3   OH240438   0.186   1.867   1.126  0.3326 -0.3695 -0.1253
 6268TIP3    H140439   0.272   1.889   1.161  0.2973 -0.3490 -0.0523
 6268TIP3    H240440   0.201   1.854   1.032  0.3941 -0.2478 -0.1327
 6269TIP3   OH240441   2.440   5.010   8.607 -0.7234 -0.2370  0.2212
 6269TIP3    H140442   2.514   4.978   8.659  0.6309  1.5936 -0.4788
 6269TIP3    H240443   2.377   4.939   8.610  2.1792 -3.1950 -1.5065
 6270TIP3   OH240444   4.044   5.896   1.211  0.1992 -0.3727 -0.3690
 6270TIP3    H140445   3.975   5.946   1.167  0.0520 -0.7852 -0.6163
 6270TIP3    H240446   4.114   5.890   1.146  0.2938 -0.3240 -0.2719
 6271TIP3   OH240447   4.226   0.006   2.831  0.0654 -0.9424  0.4865
 6271TIP3    H140448   4.249   0.044   2.916 -0.0174 -1.0869  0.5750
 6271TIP3    H240449   4.302  -0.046   2.806  0.5880  0.1070 -0.1224
 6272TIP3   OH240450   0.072   1.933   7.826  0.0358  0.2182 -0.1763
 6272TIP3    H140451   0.015   1.912   7.900 -1.1834  0.0031 -1.1376
 6272TIP3    H240452   0.111   1.849   7.801 -0.5174  0.0565 -0.5311
 6273TIP3   OH240453   3.957   4.464   0.983 -0.0605 -0.5285 -0.1625
 6273TIP3    H140454   4.032   4.516   1.013 -1.5513  0.4287  2.1766
 6273TIP3    H240455   3.922   4.515   0.910  0.4821 -0.0137 -0.0802
 6274TIP3   OH240456   5.332   6.675   2.518 -0.3906 -0.0665  0.0022
 6274TIP3    H140457   5.302   6.766   2.515  1.3687  0.5305 -1.4354
 6274TIP3    H240458   5.383   6.664   2.438 -0.3778 -2.2786  0.2498
 6275TIP3   OH240459   5.082   1.143   0.933  0.0692  0.0214 -0.8273
 6275TIP3    H140460   5.143   1.077   0.900  0.6259  0.0859  0.0602
 6275TIP3    H240461   5.032   1.099   1.001 -0.6677  0.0677 -1.3177
 6276TIP3   OH240462   3.191   1.299   0.330 -0.3486 -0.4113 -0.5593
 6276TIP3    H140463   3.259   1.245   0.369 -1.3077 -1.2339  0.0142
 6276TIP3    H240464   3.193   1.275   0.237 -1.0207 -1.7782 -0.2573
 6277TIP3   OH240465   5.223   3.130   3.244  0.6947 -0.0162 -0.3481
 6277TIP3    H140466   5.212   3.039   3.273  1.1252 -0.4165 -1.3917
 6277TIP3    H240467   5.134   3.165   3.242  0.2627 -1.0826 -1.9871
 6278TIP3   OH240468   2.096   2.854   0.695 -1.0798  0.4017  0.4593
 6278TIP3    H140469   2.131   2.817   0.614  0.3817 -1.0911  1.7101
 6278TIP3    H240470   2.162   2.835   0.761 -3.3009 -0.6815  2.5242
 6279TIP3   OH240471   6.808   2.610   1.446  0.0222  0.4217  0.0815
 6279TIP3    H140472   6.756   2.672   1.496 -0.4776  1.2059 -1.3507
 6279TIP3    H240473   6.830   2.541   1.508  0.5822  2.0010  1.7325
 6280TIP3   OH240474   2.393   3.156   1.213 -0.0750 -0.5331 -0.7012
 6280TIP3    H140475   2.404   3.111   1.296  0.9280 -0.9838 -1.0655
 6280TIP3    H240476   2.306   3.130   1.182  0.4552 -2.1997 -0.8772
 6281TIP3   OH240477   6.084   3.446   2.826 -0.0867  0.3410 -0.4469
 6281TIP3    H140478   5.993   3.425   2.844  0.2486 -1.1606 -0.3692
 6281TIP3    H240479   6.114   3.492   2.904 -0.6145  0.3176 -0.2282
 6282TIP3   OH240480   5.939   3.847   0.357  0.1520  0.1465  0.0540
 6282TIP3    H140481   5.942   3.773   0.297  2.6695  0.4082 -0.2615
 6282TIP3    H240482   6.012   3.832   0.417  1.2111  2.6914 -0.4562
 6283TIP3   OH240483   6.109   5.349   2.475 -0.2754 -0.0701  0.4181
 6283TIP3    H140484   6.046   5.409   2.516 -0.3939  0.6399 -0.7537
 6283TIP3    H240485   6.182   5.405   2.450  0.4795 -0.7604  1.0500
 6284TIP3   OH240486   4.850   6.797   0.116  0.1393 -0.1061  0.0306
 6284TIP3    H140487   4.767   6.833   0.146  0.1775 -1.1674  1.5571
 6284TIP3    H240488   4.881   6.858   0.050 -1.1471  1.0803  0.4805
 6285TIP3   OH240489   3.090   0.098   8.279 -0.2127 -0.5591  0.1336
 6285TIP3    H140490   3.052   0.095   8.367  0.3530 -0.5504  0.3838
 6285TIP3    H240491   3.054   0.178   8.240 -0.0353 -0.2675  0.5609
 6286TIP3   OH240492   1.347   3.298   0.705  0.0052 -0.0508  0.0912
 6286TIP3    H140493   1.441   3.280   0.694 -0.1334 -0.1727 -0.9762
 6286TIP3    H240494   1.334   3.299   0.800  1.3190  1.1929  0.2904
 6287TIP3   OH240495   5.121   4.998   2.763  0.7918  0.2356 -0.2364
 6287TIP3    H140496   5.067   4.937   2.713  0.0256  0.3984  0.3880
 6287TIP3    H240497   5.114   4.969   2.853 -1.5205  2.6036  0.4455
 6288TIP3   OH240498   5.200   1.751   0.090  0.5527  0.3757  0.3084
 6288TIP3    H140499   5.107   1.765   0.076  0.6117 -0.3780 -0.9256
 6288TIP3    H240500   5.214   1.773   0.182 -0.6891  1.2462  0.3103
 6289TIP3   OH240501   1.230   2.842   0.210  0.1643 -0.2319 -0.2787
 6289TIP3    H140502   1.205   2.860   0.301  0.0705  0.8827 -0.5097
 6289TIP3    H240503   1.320   2.874   0.204 -0.4604  1.5482 -1.0615
 6290TIP3   OH240504   1.867   1.924   8.125  0.2988  0.0393  0.1106
 6290TIP3    H140505   1.940   1.877   8.085  1.0257 -1.0215  2.5455
 6290TIP3    H240506   1.906   1.972   8.198 -1.4738 -0.9527  1.7951
 6291TIP3   OH240507   3.416   2.000   1.979 -0.2589 -0.5202  0.4503
 6291TIP3    H140508   3.320   2.003   1.983 -0.2547 -0.0230  0.2341
 6291TIP3    H240509   3.437   1.908   1.967 -0.7372 -0.5542 -0.1419
 6292TIP3   OH240510   1.201   6.331   8.155 -0.1025  0.0281 -0.1313
 6292TIP3    H140511   1.132   6.266   8.170  0.8828 -0.6941  1.7227
 6292TIP3    H240512   1.180   6.403   8.214  0.8506 -0.3639  0.7448
 6293TIP3   OH240513   5.666   1.445   1.621 -0.4699  0.0205 -0.2907
 6293TIP3    H140514   5.749   1.443   1.573 -0.5147  0.3609 -0.3880
 6293TIP3    H240515   5.617   1.370   1.588  0.0021 -0.4825  0.1387
 6294TIP3   OH240516   6.620   4.061   7.628 -0.1695  0.0385 -0.8155
 6294TIP3    H140517   6.703   4.093   7.593  0.6717 -0.9131  0.2241
 6294TIP3    H240518   6.580   4.014   7.555  1.2784 -1.4114 -0.7556
 6295TIP3   OH240519   1.446   1.937   0.350 -0.2601  0.0812 -0.5543
 6295TIP3    H140520   1.482   2.022   0.323 -1.5382  0.1467 -2.2294
 6295TIP3    H240521   1.478   1.924   0.439 -1.4165  3.1268  0.4150
 6296TIP3   OH240522   2.722   6.045   2.222  0.0725 -0.6147  0.1825
 6296TIP3    H140523   2.714   6.045   2.318  0.5401 -0.7298  0.2270
 6296TIP3    H240524   2.692   6.132   2.196 -0.0780 -0.5892  0.4327
 6297TIP3   OH240525   1.464   4.617   2.103  0.0732 -0.1063 -0.6585
 6297TIP3    H140526   1.516   4.657   2.033 -1.9119  0.3154 -2.0010
 6297TIP3    H240527   1.488   4.665   2.182  2.1320 -0.3647 -1.0742
 6298TIP3   OH240528   4.965   2.865   7.708 -0.3334  0.2997  0.2975
 6298TIP3    H140529   4.957   2.920   7.787 -1.4352  1.2526 -0.4321
 6298TIP3    H240530   5.056   2.835   7.709 -0.7783 -1.3241  2.9466
 6299TIP3   OH240531   0.723   5.775   1.111  0.3911 -0.4739 -0.3767
 6299TIP3    H140532   0.801   5.718   1.107  0.7319  0.0315 -1.3263
 6299TIP3    H240533   0.730   5.830   1.033 -2.0073 -1.8208 -1.6405
 6300TIP3   OH240534   4.447   5.970   2.001  0.2616 -0.5508 -0.1889
 6300TIP3    H140535   4.446   5.966   2.096  0.9896  0.1522 -0.1390
 6300TIP3    H240536   4.379   5.908   1.973 -0.9622  0.2990  0.8164
 6301TIP3   OH240537   0.879   4.156   2.770 -0.3815  0.5228 -0.5005
 6301TIP3    H140538   0.944   4.191   2.831 -1.4180  1.8691 -0.1124
 6301TIP3    H240539   0.877   4.062   2.789  2.2729  0.1983 -1.3596
 6302TIP3   OH240540   1.644   1.424   0.182 -0.5365 -0.0260 -0.5725
 6302TIP3    H140541   1.688   1.404   0.264 -0.1328  1.4260 -0.4139
 6302TIP3    H240542   1.713   1.454   0.124 -1.0828  0.8252 -0.8068
 6303TIP3   OH240543   0.250   3.192   0.062  0.0096  0.0404  0.3994
 6303TIP3    H140544   0.258   3.222  -0.028 -2.4360 -1.5445 -0.4668
 6303TIP3    H240545   0.320   3.127   0.073  1.4195  1.5035  0.2701
 6304TIP3   OH240546   3.842   3.092   8.298  0.3591  0.2433 -0.2854
 6304TIP3    H140547   3.806   3.018   8.346 -0.4929  1.4149  0.9792
 6304TIP3    H240548   3.851   3.061   8.208 -2.3025 -0.6520 -0.3223
 6305TIP3   OH240549   5.566   0.530   7.624 -0.6575  0.1349 -0.2090
 6305TIP3    H140550   5.533   0.499   7.709 -0.0227 -0.4813 -0.1763
 6305TIP3    H240551   5.661   0.536   7.636 -0.6714  1.1541 -0.5332
 6306TIP3   OH240552   0.075   6.719   3.215  0.0672  0.6867 -0.0460
 6306TIP3    H140553   0.007   6.731   3.149 -0.4287  0.2321  0.3722
 6306TIP3    H240554   0.040   6.762   3.293  0.3691  0.6604  0.1043
 6307TIP3   OH240555   3.050   0.993   7.590  0.0483 -0.4375  0.2534
 6307TIP3    H140556   3.021   0.936   7.519 -1.3794  0.5730 -0.0190
 6307TIP3    H240557   3.145   0.997   7.581 -0.1482  0.1876 -2.0209
 6308TIP3   OH240558   2.717   5.060   8.710  0.3544  0.1550  0.2062
 6308TIP3    H140559   2.774   5.092   8.640  0.0651 -2.6758 -1.4757
 6308TIP3    H240560   2.749   4.972   8.730 -1.5578 -0.3515  1.3749
 6309TIP3   OH240561   2.211   2.378   8.085  0.0853 -0.3335  0.2116
 6309TIP3    H140562   2.116   2.367   8.080 -0.0451 -0.2829  1.9445
 6309TIP3    H240563   2.242   2.364   7.995 -1.7003  1.1060 -0.6809
 6310TIP3   OH240564   2.199   4.176   0.437 -0.5488 -0.0985 -0.1553
 6310TIP3    H140565   2.187   4.201   0.346 -1.4869  0.6390  0.1592
 6310TIP3    H240566   2.121   4.209   0.482 -0.4482 -1.0900  0.7875
 6311TIP3   OH240567   5.960   5.541   2.618 -0.2346  0.2697 -0.8111
 6311TIP3    H140568   5.976   5.634   2.637  0.2062 -0.0893  0.6924
 6311TIP3    H240569   5.911   5.509   2.694  1.3773 -1.1829 -0.3167
 6312TIP3   OH240570   0.771   3.381   0.338  0.2655  0.0953 -0.1707
 6312TIP3    H140571   0.683   3.396   0.371 -0.6491  1.8495 -3.0693
 6312TIP3    H240572   0.819   3.348   0.414 -2.4123  0.6739  1.9551
 6313TIP3   OH240573   0.536   2.521   8.603 -0.6679 -0.3969 -0.2630
 6313TIP3    H140574   0.598   2.465   8.556  0.0419  0.0278  0.1532
 6313TIP3    H240575   0.587   2.598   8.628 -1.8833  0.9726 -1.7732
 6314TIP3   OH240576   3.000   1.184   7.760 -0.2625  0.1306 -0.8096
 6314TIP3    H140577   2.905   1.177   7.772 -0.4442 -0.4145 -2.3133
 6314TIP3    H240578   3.017   1.135   7.680  0.9791  2.1356 -1.8419
 6315TIP3   OH240579   3.686   2.906   1.404  0.0341 -0.1641 -0.2485
 6315TIP3    H140580   3.743   2.859   1.464 -0.1752  0.4610  0.4587
 6315TIP3    H240581   3.637   2.838   1.358  2.1439 -0.7994 -1.7342
 6316TIP3   OH240582   1.153   5.172   8.272  0.3112 -0.2761  0.4201
 6316TIP3    H140583   1.235   5.203   8.310 -0.3263  1.0581  0.7737
 6316TIP3    H240584   1.137   5.088   8.316 -0.5486  1.3178  3.4555
 6317TIP3   OH240585   5.160   4.003   2.977 -0.3853  0.0524  0.7113
 6317TIP3    H140586   5.217   3.944   3.025 -1.1081 -0.5056  0.8992
 6317TIP3    H240587   5.177   3.984   2.885  0.3469  0.4932  0.7481
 6318TIP3   OH240588   2.080   6.298   1.251 -0.1065 -0.1346  0.4412
 6318TIP3    H140589   2.015   6.284   1.181  0.8188 -1.3829 -0.2140
 6318TIP3    H240590   2.061   6.230   1.315  1.3528 -1.3993 -0.3989
 6319TIP3   OH240591   5.534   0.266   8.243 -0.6165  0.0010 -0.2408
 6319TIP3    H140592   5.460   0.208   8.227  0.8404 -1.2033 -3.3422
 6319TIP3    H240593   5.585   0.222   8.311 -0.9237 -0.9877 -0.6377
 6320TIP3   OH240594   1.195   3.397   0.479 -0.2723  0.3670 -0.1638
 6320TIP3    H140595   1.254   3.343   0.532  0.5610 -0.4329 -1.8204
 6320TIP3    H240596   1.246   3.475   0.459 -0.1362  0.1209 -0.7802
 6321TIP3   OH240597   1.450   2.989   2.039  0.2560  0.5670 -0.7367
 6321TIP3    H140598   1.397   3.012   2.115  0.2067  2.9126 -1.3915
 6321TIP3    H240599   1.490   3.072   2.012  2.4466 -0.6928 -1.6551
 6322TIP3   OH240600   3.872   2.357   1.241 -0.6513 -0.4601 -0.6436
 6322TIP3    H140601   3.912   2.294   1.301  1.6761 -0.0687 -1.6758
 6322TIP3    H240602   3.847   2.430   1.297  1.8217  0.0571 -0.0742
 6323TIP3   OH240603   0.196   0.212   2.665  0.2924  0.0145  0.5030
 6323TIP3    H140604   0.219   0.304   2.654 -0.2979  0.3284  1.7288
 6323TIP3    H240605   0.279   0.169   2.688  0.5708  0.2235 -0.0964
 6324TIP3   OH240606   1.301   5.700   7.568 -0.4405 -0.0387 -0.7179
 6324TIP3    H140607   1.223   5.731   7.521 -0.0878 -0.1864 -1.4189
 6324TIP3    H240608   1.336   5.631   7.512  0.3026  0.1613 -0.5091
 6325TIP3   OH240609   2.605   4.158   7.883  0.7813 -0.0565  0.0847
 6325TIP3    H140610   2.598   4.121   7.795  0.4014 -1.6653  0.7614
 6325TIP3    H240611   2.656   4.238   7.871 -0.2784  0.3932 -1.7573
 6326TIP3   OH240612   1.618   0.041   0.345  0.4634 -0.4039 -0.3654
 6326TIP3    H140613   1.660   0.065   0.428 -1.8284 -0.6679  0.9703
 6326TIP3    H240614   1.658  -0.043   0.321  2.8889  0.8091 -0.8956
 6327TIP3   OH240615   6.123   5.107   1.936  0.0064  0.0641  0.5729
 6327TIP3    H140616   6.090   5.064   2.015 -0.4352 -2.7162 -0.9762
 6327TIP3    H240617   6.198   5.053   1.910  0.1290  0.9044 -0.9117
 6328TIP3   OH240618   6.814   3.365   8.556  0.3429  0.0604 -0.8486
 6328TIP3    H140619   6.866   3.445   8.563  1.3338 -0.6826  1.1962
 6328TIP3    H240620   6.808   3.332   8.646 -1.7127 -1.1409 -1.3543
 6329TIP3   OH240621   4.130   4.840   1.431 -0.0878  0.2139 -0.7608
 6329TIP3    H140622   4.135   4.751   1.396  0.7032  0.1806 -0.5767
 6329TIP3    H240623   4.216   4.856   1.471 -1.4139 -0.3899  2.7250
 6330TIP3   OH240624   4.407   1.332   1.191  0.2476  0.2089  0.2713
 6330TIP3    H140625   4.387   1.352   1.283 -0.4479 -1.0539  0.4154
 6330TIP3    H240626   4.499   1.305   1.192  0.6018  1.3581  0.3851
 6331TIP3   OH240627   2.170   0.062   0.117 -0.2042  0.0624 -0.4356
 6331TIP3    H140628   2.215   0.051   0.033  0.5871  0.0291 -0.0172
 6331TIP3    H240629   2.227   0.017   0.180 -0.3900  0.7588  0.2353
 6332TIP3   OH240630   0.601   2.870   3.045 -0.1907 -0.0242 -0.2504
 6332TIP3    H140631   0.513   2.907   3.046 -0.4522 -0.6251 -0.8938
 6332TIP3    H240632   0.592   2.786   3.001  0.8204  0.1934 -0.9158
 6333TIP3   OH240633   4.884   1.631   0.959 -0.0148 -0.5067 -0.0236
 6333TIP3    H140634   4.899   1.714   1.003 -1.0412  0.7209 -1.8253
 6333TIP3    H240635   4.960   1.620   0.902 -0.3410 -0.2582 -0.5212
 6334TIP3   OH240636   4.351   4.545   1.718 -0.3469  0.3288  0.7381
 6334TIP3    H140637   4.346   4.517   1.810 -3.6210  1.1256  0.9319
 6334TIP3    H240638   4.322   4.636   1.720 -1.7273 -0.0217 -1.2137
 6335TIP3   OH240639   2.888   1.215   8.636 -0.5146  0.5632  0.1259
 6335TIP3    H140640   2.883   1.285   8.701  0.2954  1.3102 -0.5878
 6335TIP3    H240641   2.928   1.256   8.559 -1.3032 -0.3425 -0.7941
 6336TIP3   OH240642   4.993   6.846   8.088 -0.6027 -0.2120 -0.0588
 6336TIP3    H140643   4.988   6.755   8.117 -0.1085 -0.8545 -1.8237
 6336TIP3    H240644   4.935   6.849   8.012 -2.1785  1.4786  1.1399
 6337TIP3   OH240645   5.468   1.147   1.086 -0.4632  0.3002 -0.3711
 6337TIP3    H140646   5.403   1.156   1.155  0.0185 -0.5005  0.2019
 6337TIP3    H240647   5.551   1.137   1.132 -0.2214 -0.9522 -1.0475
 6338TIP3   OH240648   2.225   1.970   7.952 -0.2961 -0.0645  0.3102
 6338TIP3    H140649   2.317   1.985   7.975 -0.2884 -0.4147  0.5212
 6338TIP3    H240650   2.215   2.006   7.864 -0.4373  1.7436  1.0195
 6339TIP3   OH240651   4.892   0.899   8.730 -0.2373  0.0414  0.3032
 6339TIP3    H140652   4.923   0.895   8.820 -0.0797 -0.5505  0.2264
 6339TIP3    H240653   4.966   0.933   8.680  0.1291 -0.8682  0.2016
 6340TIP3   OH240654   3.609   0.908   0.281 -0.2260  0.6473 -0.1926
 6340TIP3    H140655   3.638   0.818   0.297 -1.4538  0.1287 -0.7331
 6340TIP3    H240656   3.513   0.904   0.291 -0.5448  1.4068 -2.3607
 6341TIP3   OH240657   3.400   0.676   7.942 -0.4732 -0.0556 -0.5073
 6341TIP3    H140658   3.495   0.666   7.937 -0.7346 -3.4225 -0.9962
 6341TIP3    H240659   3.387   0.753   7.998  2.5565 -0.5272  1.0685
 6342TIP3   OH240660   6.524   6.139   1.160  0.8549  0.1905 -0.1708
 6342TIP3    H140661   6.470   6.191   1.100 -0.0131 -0.4725  0.0186
 6342TIP3    H240662   6.563   6.204   1.219 -0.0035  0.6430 -0.0937
 6343TIP3   OH240663   0.064   6.732   2.739  0.2509  0.4883  0.2000
 6343TIP3    H140664   0.038   6.813   2.695 -0.3152  0.4257  0.4173
 6343TIP3    H240665  -0.014   6.677   2.736  0.3677  0.2800  0.8133
 6344TIP3   OH240666   2.098   3.584   8.697 -0.0748 -0.5053 -0.1219
 6344TIP3    H140667   2.165   3.639   8.738 -0.8883  0.8160 -0.5090
 6344TIP3    H240668   2.136   3.496   8.697  1.6962  0.2090 -0.3854
 6345TIP3   OH240669   2.633   6.002   2.492 -0.1011 -0.4090  0.6190
 6345TIP3    H140670   2.611   5.988   2.584  0.1194 -2.0210  0.4448
 6345TIP3    H240671   2.661   5.917   2.460 -0.5796  0.0253 -1.0693
 6346TIP3   OH240672   6.807   3.057   0.655  0.8210 -0.0282  0.1809
 6346TIP3    H140673   6.841   3.065   0.566  1.8290  0.1676  0.5773
 6346TIP3    H240674   6.761   3.139   0.671 -0.3842 -0.5275 -0.5672
 6347TIP3   OH240675   2.791   1.064   1.855 -0.1282 -0.0429  0.3118
 6347TIP3    H140676   2.865   1.124   1.864  0.0117 -0.0590 -0.5865
 6347TIP3    H240677   2.730   1.091   1.923 -0.6763  2.0288 -0.9132
 6348TIP3   OH240678   0.859   6.808   8.073  0.1421  0.0445  0.5739
 6348TIP3    H140679   0.822   6.799   7.985  0.7123 -0.7116  0.3976
 6348TIP3    H240680   0.944   6.848   8.060  1.0644 -1.7987  0.5516
 6349TIP3   OH240681   0.982   5.777   0.551  0.1884 -0.3710 -0.0497
 6349TIP3    H140682   0.950   5.855   0.506 -0.6545 -0.3638  0.5212
 6349TIP3    H240683   1.067   5.802   0.585  0.1378  0.1411 -0.2862
 6350TIP3   OH240684   3.626   1.212   3.158 -0.2932 -0.3564 -0.2646
 6350TIP3    H140685   3.683   1.155   3.211  1.2021  1.8818  0.6861
 6350TIP3    H240686   3.553   1.233   3.216 -0.0462 -0.0853 -0.0464
 6351TIP3   OH240687   3.023   6.438   2.977 -0.5901 -0.2380  0.0878
 6351TIP3    H140688   3.089   6.486   2.927 -0.1305 -1.0229 -0.0773
 6351TIP3    H240689   3.066   6.414   3.059 -1.3480  1.0594  0.9005
 6352TIP3   OH240690   4.738   2.548   0.613  0.4376  0.2868 -0.6592
 6352TIP3    H140691   4.809   2.545   0.549  0.0788 -0.8352 -1.0149
 6352TIP3    H240692   4.748   2.469   0.665  1.6939  1.9082  1.8007
 6353TIP3   OH240693   5.998   4.240   0.576 -0.2744 -0.3737  0.1869
 6353TIP3    H140694   5.958   4.308   0.631 -0.1861 -0.4214  0.3122
 6353TIP3    H240695   6.077   4.281   0.541 -0.7937 -0.0499 -0.6151
 6354TIP3   OH240696   6.559   2.624   2.836  0.2921 -0.1279 -0.0065
 6354TIP3    H140697   6.541   2.659   2.749 -1.1536 -0.3522  0.1840
 6354TIP3    H240698   6.495   2.554   2.847  0.2444  0.1197  1.3755
 6355TIP3   OH240699   4.076   2.648   0.221 -0.1749  0.6445 -0.2932
 6355TIP3    H140700   4.148   2.694   0.265 -1.0203  1.5704  0.1679
 6355TIP3    H240701   4.097   2.655   0.128  0.5563  0.5054 -0.1464
 6356TIP3   OH240702   6.565   3.285   0.993  0.2265 -0.2298 -0.9431
 6356TIP3    H140703   6.493   3.318   1.047 -0.1589  0.2735 -1.7471
 6356TIP3    H240704   6.615   3.363   0.970 -0.0369 -0.3300 -1.9116
 6357TIP3   OH240705   3.335   5.918   0.120  0.6192  0.3257 -0.1700
 6357TIP3    H140706   3.416   5.877   0.090 -0.0254  0.2449 -1.9600
 6357TIP3    H240707   3.312   5.871   0.200  2.5289  0.6217  0.5928
 6358TIP3   OH240708   1.378   2.002   2.016 -0.0672 -0.3156  0.3154
 6358TIP3    H140709   1.365   2.006   1.921  0.0078 -1.3587  0.2502
 6358TIP3    H240710   1.347   2.087   2.048 -0.9617 -0.2967 -0.5434
 6359TIP3   OH240711   2.211   3.374   0.286  0.5562  0.1422  0.2961
 6359TIP3    H140712   2.200   3.359   0.192 -0.1435 -1.3102  0.5879
 6359TIP3    H240713   2.171   3.460   0.301  0.2602  0.1849 -0.6625
 6360TIP3   OH240714   6.344   4.010   1.147 -0.5061  0.1776 -0.2281
 6360TIP3    H140715   6.352   4.056   1.064  0.7719 -2.4814 -1.7185
 6360TIP3    H240716   6.251   3.992   1.156 -0.8121  1.5195 -0.4312
 6361TIP3   OH240717   1.082   5.528   2.012 -0.1910 -0.3499  0.4262
 6361TIP3    H140718   1.123   5.612   1.993 -0.6659 -0.3255 -0.5348
 6361TIP3    H240719   1.110   5.507   2.102  1.2304  0.0507  0.0987
 6362TIP3   OH240720   3.457   6.659   8.727  0.0215  0.4439 -0.3698
 6362TIP3    H140721   3.544   6.670   8.764 -0.6347 -0.5039  1.5753
 6362TIP3    H240722   3.400   6.643   8.802 -1.5214 -0.8594 -1.7194
 6363TIP3   OH240723   1.784   2.321   8.642 -0.2015  0.0422  0.0533
 6363TIP3    H140724   1.710   2.262   8.627  0.0133 -0.3595  0.5639
 6363TIP3    H240725   1.787   2.332   8.736  0.5709 -0.1801  0.0607
 6364TIP3   OH240726   1.312   6.708   8.034 -0.2101  0.9225  0.0532
 6364TIP3    H140727   1.287   6.697   8.126 -0.5504 -1.8923 -0.2894
 6364TIP3    H240728   1.365   6.630   8.014 -2.5916 -0.1095 -2.8898
 6365TIP3   OH240729   2.835   0.936   1.316 -0.3488 -0.0171  0.1213
 6365TIP3    H140730   2.853   0.842   1.320 -1.6310 -0.3712 -1.1641
 6365TIP3    H240731   2.787   0.955   1.396 -1.0346 -0.7267 -0.0966
 6366TIP3   OH240732   1.248   3.216   8.628  0.3908  0.0470  0.9019
 6366TIP3    H140733   1.270   3.126   8.605  1.0966  0.6260 -0.9148
 6366TIP3    H240734   1.154   3.213   8.648  0.0820 -0.8929 -0.4912
 6367TIP3   OH240735   3.588   0.303   2.097 -0.8210  0.0657 -0.3937
 6367TIP3    H140736   3.570   0.283   2.005 -1.5332  0.2347 -0.2986
 6367TIP3    H240737   3.503   0.291   2.141 -0.5940  0.4566  0.1588
 6368TIP3   OH240738   2.734   3.918   7.373 -0.3580  0.6062  0.2066
 6368TIP3    H140739   2.699   3.868   7.447 -1.1064  1.1736  0.2550
 6368TIP3    H240740   2.679   3.893   7.299  0.3589  0.0772 -0.1531
 6369TIP3   OH240741   6.329   1.072   7.639 -0.4239 -0.7295  0.2785
 6369TIP3    H140742   6.260   1.058   7.574 -0.3521  1.3194 -0.3416
 6369TIP3    H240743   6.381   0.992   7.637  1.2882  0.1833 -4.3870
 6370TIP3   OH240744   0.187   6.771   1.668  0.5488  0.0502  0.3758
 6370TIP3    H140745   0.151   6.743   1.753  0.7689 -0.7619  0.2101
 6370TIP3    H240746   0.209   6.689   1.624  0.0389  0.4576 -0.6467
 6371TIP3   OH240747   0.397   5.055   3.134 -0.2457  0.0102  0.0957
 6371TIP3    H140748   0.445   5.047   3.217 -0.1578 -2.7020 -0.1400
 6371TIP3    H240749   0.448   5.004   3.071 -0.2991  2.0219 -1.7085
 6372TIP3   OH240750   3.701   4.053   8.491  0.5816  0.3898  0.3465
 6372TIP3    H140751   3.765   4.004   8.439 -1.0277  1.0912 -2.4806
 6372TIP3    H240752   3.751   4.127   8.527  1.7697 -0.1785 -0.0937
 6373TIP3   OH240753   0.990   1.183   3.086 -0.1541  0.0497  0.1778
 6373TIP3    H140754   1.049   1.256   3.103 -0.9751  0.8454 -0.3325
 6373TIP3    H240755   0.915   1.198   3.143 -0.7775  0.1620 -0.6554
 6374TIP3   OH240756   6.683   1.382   1.733 -0.5715  0.4151 -0.8595
 6374TIP3    H140757   6.622   1.422   1.672 -0.9964 -0.3911 -0.9702
 6374TIP3    H240758   6.769   1.409   1.701 -0.8504  1.5299 -0.7206
 6375TIP3   OH240759   2.675   3.814   2.128  0.1347  0.4161  0.0984
 6375TIP3    H140760   2.746   3.765   2.170  1.2726  1.4981 -0.5029
 6375TIP3    H240761   2.704   3.827   2.038 -0.9927  0.5671 -0.2563
 6376TIP3   OH240762   3.977   1.427   1.464  0.0968  0.2441  1.0094
 6376TIP3    H140763   3.902   1.367   1.469 -0.1245  0.1349 -2.0001
 6376TIP3    H240764   4.044   1.386   1.519 -0.4519 -2.1650  0.0288
 6377TIP3   OH240765   3.432   5.208   6.979 -0.1437  0.6665  0.1179
 6377TIP3    H140766   3.379   5.247   6.909  1.2454  2.2507 -0.1315
 6377TIP3    H240767   3.395   5.244   7.060 -0.5101  0.4125  0.0648
 6378TIP3   OH240768   4.316   6.844   8.755 -0.1134  0.2257 -0.2096
 6378TIP3    H140769   4.344   6.770   8.808  1.0148  0.9239  0.2023
 6378TIP3    H240770   4.333   6.921   8.809 -2.2343  0.7771 -0.2062
 6379TIP3   OH240771   3.729   5.942   3.597  0.1541  0.4312 -0.5358
 6379TIP3    H140772   3.731   5.865   3.540  0.5064  0.8446 -1.0945
 6379TIP3    H240773   3.638   5.948   3.627  0.3126 -0.7490  0.2887
 6380TIP3   OH240774   4.940   0.446   1.995 -0.0369 -0.1512  0.3506
 6380TIP3    H140775   4.847   0.468   1.983 -0.3840 -1.1257  1.1080
 6380TIP3    H240776   4.959   0.387   1.921 -0.1382 -0.2829  0.4289
 6381TIP3   OH240777   0.179   0.945   1.934  0.6816 -0.7299  0.4155
 6381TIP3    H140778   0.129   0.996   1.870  0.5679 -0.5650  0.6366
 6381TIP3    H240779   0.149   0.855   1.921 -1.5249 -0.3379  2.2117
 6382TIP3   OH240780   5.812   2.996   1.969  0.2104 -0.6819  0.1022
 6382TIP3    H140781   5.746   2.927   1.957 -0.1430 -0.2212 -0.6960
 6382TIP3    H240782   5.889   2.964   1.922  0.0319 -0.5104 -0.3062
 6383TIP3   OH240783   2.439   3.625   0.888 -0.3444  1.0959 -0.0366
 6383TIP3    H140784   2.464   3.652   0.800  0.3582 -1.2673 -0.6317
 6383TIP3    H240785   2.522   3.602   0.930 -0.7840  1.0996  0.8615
 6384TIP3   OH240786   2.671   2.711   8.674 -0.2023  0.6917 -0.6876
 6384TIP3    H140787   2.645   2.720   8.766  1.5363  0.0319 -0.0864
 6384TIP3    H240788   2.746   2.651   8.676 -0.8858 -0.3420 -2.6767
 6385TIP3   OH240789   3.633   4.057   2.621 -0.4262 -0.0667  0.8151
 6385TIP3    H140790   3.565   4.005   2.579  0.6698 -0.7600 -0.1546
 6385TIP3    H240791   3.666   4.002   2.692  0.3813 -0.5124  0.1115
 6386TIP3   OH240792   3.893   4.875   0.907  0.5877 -0.8000  0.6829
 6386TIP3    H140793   3.829   4.914   0.967  0.6026 -0.6663  0.6128
 6386TIP3    H240794   3.969   4.933   0.912 -0.1828  0.4663 -1.0895
 6387TIP3   OH240795   5.572   2.625   3.506  0.5330 -0.2835 -0.2167
 6387TIP3    H140796   5.640   2.685   3.474 -0.1130 -0.0281 -1.1605
 6387TIP3    H240797   5.493   2.652   3.460  0.2222 -1.8652 -0.6551
 6388TIP3   OH240798   5.928   1.738   7.733  0.1715  0.1682  0.2295
 6388TIP3    H140799   5.853   1.697   7.690  1.4776 -1.0371 -0.9841
 6388TIP3    H240800   5.980   1.774   7.662  1.3549 -0.0533  0.9655
 6389TIP3   OH240801   3.662   6.514   8.310  0.0018 -0.3878 -0.0366
 6389TIP3    H140802   3.676   6.419   8.308  1.2673 -0.2272  0.2490
 6389TIP3    H240803   3.746   6.551   8.283 -0.4397  0.6608 -0.0079
 6390TIP3   OH240804   5.440   6.641   0.931  0.3950  0.4691  0.0339
 6390TIP3    H140805   5.457   6.714   0.989  2.4887 -1.0104  1.4222
 6390TIP3    H240806   5.390   6.579   0.984  2.3894 -0.9306  0.3935
 6391TIP3   OH240807   3.097   3.926   1.964 -0.9447  0.2078 -0.2563
 6391TIP3    H140808   3.123   3.883   1.883 -0.5818 -1.5625  0.7235
 6391TIP3    H240809   3.143   4.010   1.964  3.3264 -1.8487  0.4113
 6392TIP3   OH240810   2.901   3.381   1.035 -0.0202 -0.0559 -0.7606
 6392TIP3    H140811   2.965   3.387   0.964  0.4392  1.1404 -0.2735
 6392TIP3    H240812   2.954   3.384   1.115 -0.4699 -2.0876 -0.3320
 6393TIP3   OH240813   2.294   6.380   2.379  0.3509  0.4335  0.0571
 6393TIP3    H140814   2.201   6.357   2.375  0.6681 -0.9588  0.0408
 6393TIP3    H240815   2.339   6.298   2.359  1.5822  1.2378 -0.5503
 6394TIP3   OH240816   5.314   0.783   0.728 -0.0394  0.4458  0.0324
 6394TIP3    H140817   5.294   0.844   0.799 -1.0984  1.1088 -0.8091
 6394TIP3    H240818   5.254   0.709   0.742 -0.3278  0.6281 -0.2273
 6395TIP3   OH240819   0.665   0.717   7.909  0.0337  0.1931  0.5921
 6395TIP3    H140820   0.664   0.730   8.003 -1.4521 -1.3439  0.8436
 6395TIP3    H240821   0.575   0.693   7.887  0.1956  1.1367 -1.3329
 6396TIP3   OH240822   1.746   3.436   2.348 -0.5116  0.0687  0.4356
 6396TIP3    H140823   1.821   3.479   2.308 -0.6424 -0.5840 -0.5596
 6396TIP3    H240824   1.723   3.491   2.423  0.2879  0.8537  0.1192
 6397TIP3   OH240825   1.118   4.880   1.298  0.2746 -0.1468  0.3622
 6397TIP3    H140826   1.115   4.848   1.208 -0.1436 -0.0567  0.3442
 6397TIP3    H240827   1.084   4.808   1.351  2.2952 -0.9511  0.6688
 6398TIP3   OH240828   3.004   3.758   2.726 -0.6688  0.6732  0.2948
 6398TIP3    H140829   3.072   3.713   2.776 -0.5065  0.4338 -0.1409
 6398TIP3    H240830   2.990   3.703   2.649 -0.9249  1.0370  0.0802
 6399TIP3   OH240831   3.408   1.195   7.372  0.2833  0.4321 -0.4209
 6399TIP3    H140832   3.398   1.271   7.315  1.2330  0.8489 -0.0560
 6399TIP3    H240833   3.445   1.127   7.315 -1.8929 -0.2472 -1.1018
 6400TIP3   OH240834   5.377   5.119   8.061 -0.2627  0.2173 -0.6158
 6400TIP3    H140835   5.335   5.125   7.975 -1.5902 -2.2203 -0.2186
 6400TIP3    H240836   5.310   5.148   8.123  0.6592  1.8756 -0.3368
 6401TIP3   OH240837   2.946   0.997   0.585 -0.3931 -0.4539 -0.1858
 6401TIP3    H140838   2.874   0.936   0.598 -0.3878 -0.1778  1.4912
 6401TIP3    H240839   3.012   0.969   0.648  0.2480  0.3290 -0.4939
 6402TIP3   OH240840   5.009   0.663   0.262 -0.1668 -0.4880  0.5188
 6402TIP3    H140841   5.025   0.748   0.303 -1.6160  0.3215 -0.5135
 6402TIP3    H240842   5.050   0.600   0.321  1.9414  0.9825  0.7399
 6403TIP3   OH240843   6.382   5.218   1.462  0.3656 -0.1936  0.4590
 6403TIP3    H140844   6.341   5.300   1.434 -1.0100 -0.7450  0.7982
 6403TIP3    H240845   6.426   5.241   1.544 -0.4476  0.1126  0.8298
 6404TIP3   OH240846   5.578   1.864   7.508 -0.1946  0.3111 -0.3048
 6404TIP3    H140847   5.640   1.874   7.436 -0.0887  2.9133  0.0388
 6404TIP3    H240848   5.551   1.772   7.504  0.8871  0.0152 -2.7438
 6405TIP3   OH240849   6.178   2.985   0.135  0.2355  0.3192  0.4795
 6405TIP3    H140850   6.271   2.974   0.114  0.3541  0.4778  0.9077
 6405TIP3    H240851   6.133   2.917   0.084  0.7778 -1.0814  1.7848
 6406TIP3   OH240852   6.562   4.457   0.204  0.2392  0.4557  0.5095
 6406TIP3    H140853   6.657   4.469   0.211  0.4824 -1.7742  2.2243
 6406TIP3    H240854   6.551   4.364   0.183 -1.5711  0.4162  1.3881
 6407TIP3   OH240855   1.326   5.644   7.856 -0.1997  0.0988  0.2480
 6407TIP3    H140856   1.300   5.680   7.771 -0.7780 -1.9035 -0.4909
 6407TIP3    H240857   1.282   5.559   7.860 -0.1210  0.1017  2.5377
 6408TIP3   OH240858   5.289   1.838   1.889 -0.4515  0.0430  0.0202
 6408TIP3    H140859   5.242   1.853   1.807  1.2616 -0.8084 -1.1726
 6408TIP3    H240860   5.340   1.759   1.873  2.3375  1.5935  0.7744
 6409TIP3   OH240861   3.785   6.423   8.033  0.6834 -0.4582  0.0633
 6409TIP3    H140862   3.777   6.465   7.947  0.9907 -0.8202 -0.1445
 6409TIP3    H240863   3.701   6.379   8.046  0.1493  0.6578  0.5267
 6410TIP3   OH240864   4.982   6.558   0.110  0.5843 -0.0094 -0.0220
 6410TIP3    H140865   4.947   6.647   0.109 -0.3440 -0.3462  0.8467
 6410TIP3    H240866   5.067   6.565   0.065  0.1038  1.1227 -0.8129
 6411TIP3   OH240867   2.289   6.191   2.680 -0.3625 -0.2756  0.7467
 6411TIP3    H140868   2.377   6.228   2.693 -0.1442 -0.3921 -0.3426
 6411TIP3    H240869   2.230   6.261   2.708  0.0665 -0.0615  1.1424
 6412TIP3   OH240870   3.996   2.703   2.459  0.6597  0.1497 -0.3744
 6412TIP3    H140871   4.030   2.704   2.369 -0.9176 -0.5885 -1.0187
 6412TIP3    H240872   4.022   2.788   2.495  3.0940 -0.3418 -0.7890
 6413TIP3   OH240873   1.749   5.882   0.179  0.2815 -0.0234  0.1712
 6413TIP3    H140874   1.830   5.841   0.210 -1.1606 -1.7590  1.9195
 6413TIP3    H240875   1.735   5.955   0.240 -0.9300 -1.5375  1.8129
 6414TIP3   OH240876   2.221   3.040   1.536  0.1152 -0.0446  0.3139
 6414TIP3    H140877   2.148   3.057   1.475  1.4471  1.5692 -0.9456
 6414TIP3    H240878   2.288   3.103   1.510  1.4346 -0.5267  2.3594
 6415TIP3   OH240879   6.776   3.298   1.642  0.4778 -0.0668 -0.6242
 6415TIP3    H140880   6.808   3.299   1.552  1.0526 -1.0672 -0.4508
 6415TIP3    H240881   6.710   3.228   1.642 -1.2417  1.4941 -0.8080
 6416TIP3   OH240882   5.684   2.591   0.211  0.0683  0.3005  0.1171
 6416TIP3    H140883   5.639   2.511   0.239  1.1709 -0.4423 -0.1803
 6416TIP3    H240884   5.745   2.562   0.144  1.7622  1.0777  1.2360
 6417TIP3   OH240885   0.701   0.332   1.413 -0.9197  0.3881 -0.0710
 6417TIP3    H140886   0.752   0.256   1.440 -1.7910 -0.9931 -2.0797
 6417TIP3    H240887   0.639   0.346   1.484 -1.4083 -1.4552 -0.0819
 6418TIP3   OH240888   5.296   0.253   1.018 -0.1041 -0.5028  0.2582
 6418TIP3    H140889   5.302   0.244   1.113  1.7771  0.4998  0.2891
 6418TIP3    H240890   5.234   0.186   0.991 -1.2029 -0.3573  2.2579
 6419TIP3   OH240891   1.557   3.223   1.953  0.1854  0.2682 -0.5330
 6419TIP3    H140892   1.530   3.277   1.879 -1.2328 -0.1186 -0.3265
 6419TIP3    H240893   1.639   3.181   1.924  0.9580  1.9905 -0.9300
 6420TIP3   OH240894   5.642   1.608   2.574 -0.0610  0.5913 -0.2147
 6420TIP3    H140895   5.652   1.598   2.669 -0.5410 -1.0047 -0.2924
 6420TIP3    H240896   5.569   1.550   2.552  1.6850 -1.1424 -1.8761
 6421TIP3   OH240897   3.319   6.079   0.638 -0.4849 -0.0417 -0.1397
 6421TIP3    H140898   3.334   6.159   0.687  2.1560 -0.0619 -0.7652
 6421TIP3    H240899   3.389   6.076   0.574 -0.3855 -2.9114 -0.0541
 6422TIP3   OH240900   4.497   6.141   3.119  0.5105 -0.5302 -0.0629
 6422TIP3    H140901   4.585   6.173   3.098 -0.4282  2.1766 -0.3093
 6422TIP3    H240902   4.470   6.093   3.041  1.8586 -1.7003  0.1481
 6423TIP3   OH240903   4.227   4.956   8.288 -0.3715  0.1488  0.4718
 6423TIP3    H140904   4.225   5.023   8.356  1.1779 -0.4074  1.0980
 6423TIP3    H240905   4.290   4.891   8.319 -0.2719 -0.5565 -1.0977
 6424TIP3   OH240906   0.471   3.284   8.323 -0.2979 -0.5085  0.0760
 6424TIP3    H140907   0.375   3.292   8.318 -0.3125 -0.5871  0.2398
 6424TIP3    H240908   0.492   3.214   8.262 -0.2451  0.2222 -0.7652
 6425TIP3   OH240909   1.772   5.960   7.566 -0.0354  0.5633  0.6500
 6425TIP3    H140910   1.843   5.946   7.504  0.2748 -1.5704  1.4176
 6425TIP3    H240911   1.720   6.031   7.527 -0.4187 -1.3212 -2.5715
 6426TIP3   OH240912   1.472   0.464   7.727  0.1209 -0.0119  0.1628
 6426TIP3    H140913   1.475   0.387   7.669 -0.7147  0.9388 -1.1911
 6426TIP3    H240914   1.407   0.441   7.794  2.3341 -1.8307  1.8741
 6427TIP3   OH240915   6.097   2.354   0.245  0.4194 -0.3170  0.2139
 6427TIP3    H140916   6.014   2.345   0.293  0.5448 -1.2423  0.2635
 6427TIP3    H240917   6.135   2.435   0.278 -0.5017  0.1700  0.1320
 6428TIP3   OH240918   1.094   4.598   1.728  0.1174  0.1240 -0.6266
 6428TIP3    H140919   1.085   4.670   1.790  0.0353 -0.5558  0.1649
 6428TIP3    H240920   1.009   4.553   1.732  0.0843  0.1143 -1.2940
 6429TIP3   OH240921   4.195   4.257   0.329 -0.0162 -0.1063  0.4079
 6429TIP3    H140922   4.125   4.277   0.392 -0.4329  0.4939 -0.2343
 6429TIP3    H240923   4.223   4.169   0.352 -0.7935 -0.2448  0.8611
 6430TIP3   OH240924   4.466   3.201   2.416  0.5992  0.6947 -0.3455
 6430TIP3    H140925   4.383   3.248   2.404  0.2245 -0.2576 -1.6996
 6430TIP3    H240926   4.490   3.218   2.507 -2.1764 -0.7126  0.7422
 6431TIP3   OH240927   6.455   2.081   0.571  0.0616  0.3137  0.4731
 6431TIP3    H140928   6.526   2.017   0.574 -0.4068 -0.2203  0.2376
 6431TIP3    H240929   6.498   2.165   0.584  0.7463 -0.0017  0.2557
 6432TIP3   OH240930   3.165   4.208   0.858  0.5183 -0.1576 -0.1588
 6432TIP3    H140931   3.220   4.238   0.786  1.7988 -0.2336  0.7476
 6432TIP3    H240932   3.224   4.207   0.934 -0.2043 -2.1895  0.4416
 6433TIP3   OH240933   4.241   0.003   2.290  0.6202 -0.2416 -0.0242
 6433TIP3    H140934   4.311  -0.043   2.335  1.7163  1.0072 -0.3899
 6433TIP3    H240935   4.263   0.096   2.301 -1.7942  0.2793  1.1774
 6434TIP3   OH240936   3.357   2.735   0.127  0.1957 -0.2474  0.2788
 6434TIP3    H140937   3.406   2.816   0.119  1.4178 -1.0257 -0.3204
 6434TIP3    H240938   3.399   2.688   0.199 -0.0059 -0.7031  0.1056
 6435TIP3   OH240939   0.593   0.613   1.423  0.4785  0.3884  0.0983
 6435TIP3    H140940   0.569   0.590   1.334  0.2704  0.1211  0.2239
 6435TIP3    H240941   0.626   0.532   1.461  0.9322  0.5882  0.1465
 6436TIP3   OH240942   6.063   0.363   8.314 -0.2272  0.1333  0.0427
 6436TIP3    H140943   6.124   0.392   8.382 -0.1294 -0.9368  0.4257
 6436TIP3    H240944   6.110   0.379   8.232 -1.0033  3.0368  0.0766
 6437TIP3   OH240945   1.340   6.200   8.613  0.2194 -0.2687  0.0479
 6437TIP3    H140946   1.262   6.250   8.636 -0.1374 -0.2699 -1.1086
 6437TIP3    H240947   1.315   6.108   8.628 -0.4810 -0.3793 -1.5289
 6438TIP3   OH240948   3.903   0.372   2.536 -0.4133 -0.0307  0.0679
 6438TIP3    H140949   3.957   0.365   2.615  0.4553 -0.9369 -0.5745
 6438TIP3    H240950   3.813   0.377   2.569  0.0024  0.6904  1.1347
 6439TIP3   OH240951   2.471   2.310   2.620  0.2230  0.0882  0.6646
 6439TIP3    H140952   2.475   2.352   2.534 -1.0001 -1.2139 -0.0755
 6439TIP3    H240953   2.438   2.378   2.678  0.0185  0.6821 -0.1207
 6440TIP3   OH240954   3.423   1.817   7.097  0.4919 -0.0308 -0.4334
 6440TIP3    H140955   3.471   1.899   7.090 -0.9978  1.1312  1.8321
 6440TIP3    H240956   3.333   1.840   7.075 -0.4320 -0.4353  2.5182
 6441TIP3   OH240957   6.384   6.265   8.636  0.3792 -0.3180  0.2912
 6441TIP3    H140958   6.377   6.297   8.726 -0.5774 -0.1062  0.1484
 6441TIP3    H240959   6.474   6.231   8.630  0.7941  0.5877  1.0208
 6442TIP3   OH240960   3.281   4.144   2.038  0.8913  0.6859 -0.0221
 6442TIP3    H140961   3.272   4.239   2.043  0.4617  0.6033  0.9552
 6442TIP3    H240962   3.318   4.119   2.122 -0.6274 -0.1951  0.4183
 6443TIP3   OH240963   5.290   2.790   7.410 -0.4229  0.0526  0.2876
 6443TIP3    H140964   5.323   2.711   7.454 -1.2336 -1.1539 -1.1909
 6443TIP3    H240965   5.253   2.758   7.328 -0.5937  2.0163 -0.4491
 6444TIP3   OH240966   4.942   1.715   7.552  0.5478 -0.0883 -0.5535
 6444TIP3    H140967   4.894   1.634   7.568  1.6240 -0.7660 -0.6107
 6444TIP3    H240968   4.878   1.773   7.510 -0.5520 -0.4932  0.5052
 6445TIP3   OH240969   2.181   6.008   1.098 -0.0702  0.5073  0.3835
 6445TIP3    H140970   2.089   5.985   1.112 -0.0965  0.9147  0.8944
 6445TIP3    H240971   2.230   5.939   1.143 -0.1298  0.4943  0.4280
 6446TIP3   OH240972   2.695   5.224   0.188 -0.3359  0.1545 -0.4490
 6446TIP3    H140973   2.629   5.264   0.131 -0.2265  0.5585 -0.3011
 6446TIP3    H240974   2.776   5.271   0.166 -0.6747  1.7229  1.4255
 6447TIP3   OH240975   3.101   3.946   2.497  0.1166  0.1662 -0.3559
 6447TIP3    H140976   3.106   3.853   2.520 -0.6348 -0.0848 -1.1521
 6447TIP3    H240977   3.107   3.947   2.402 -2.4368  0.6938 -0.5935
 6448TIP3   OH240978   2.375   1.068   2.652 -0.2005 -0.0243 -0.3906
 6448TIP3    H140979   2.316   1.000   2.620  0.7036 -0.7223 -0.6434
 6448TIP3    H240980   2.338   1.094   2.736 -1.9103  0.9343 -1.3985
 6449TIP3   OH240981   6.353   3.230   8.657  0.2610  0.3534 -0.2560
 6449TIP3    H140982   6.392   3.183   8.731  1.1255  0.8273 -0.3947
 6449TIP3    H240983   6.420   3.229   8.589 -0.7195 -0.5487 -1.2524
 6450TIP3   OH240984   3.910   5.299   1.834  0.0126 -0.0033  0.1744
 6450TIP3    H140985   3.978   5.357   1.868  0.6219 -1.0055  0.7277
 6450TIP3    H240986   3.899   5.325   1.743  3.5695 -1.9257 -0.9729
 6451TIP3   OH240987   3.279   3.666   0.338 -0.6669 -0.1884 -0.0102
 6451TIP3    H140988   3.200   3.642   0.291 -0.1760  0.1823 -1.0434
 6451TIP3    H240989   3.252   3.738   0.396 -1.0264  0.1024 -0.5389
 6452TIP3   OH240990   5.455   3.900   2.854 -0.4091  0.0989 -0.2620
 6452TIP3    H140991   5.369   3.861   2.837 -1.3747  1.0961  1.8888
 6452TIP3    H240992   5.502   3.891   2.771 -1.7024 -2.6130 -0.8206
 6453TIP3   OH240993   5.477   2.521   2.005  0.4519 -0.5725  0.6362
 6453TIP3    H140994   5.491   2.435   1.966  0.2919 -0.6489  0.7481
 6453TIP3    H240995   5.426   2.504   2.084  2.1214 -0.6093  1.7634
 6454TIP3   OH240996   0.023   0.941   2.762  0.3999 -0.3162  0.0032
 6454TIP3    H140997   0.004   1.010   2.826  0.8211  2.4671 -2.6021
 6454TIP3    H240998   0.115   0.920   2.776  1.0108  1.6072 -0.7306
 6455TIP3   OH240999   3.770   3.980   7.430 -0.2260 -0.1063 -0.1202
 6455TIP3    H141000   3.839   4.046   7.427 -1.2617  1.2853  2.6897
 6455TIP3    H241001   3.691   4.029   7.453 -1.5890 -2.0357 -0.3863
 6456TIP3   OH241002   5.139   0.549   3.483  0.0115 -0.1607 -0.2205
 6456TIP3    H141003   5.185   0.566   3.401 -1.4180 -3.3922 -1.8847
 6456TIP3    H241004   5.153   0.456   3.500 -1.5942 -0.0777  2.0146
 6457TIP3   OH241005   0.477   2.138   0.886  0.1057  0.4957 -0.4161
 6457TIP3    H141006   0.474   2.226   0.924  0.1946 -0.4652  1.9546
 6457TIP3    H241007   0.387   2.121   0.857 -0.0034  1.1786 -0.4994
 6458TIP3   OH241008   6.349   0.297   7.550  0.4570 -0.5054 -0.5057
 6458TIP3    H141009   6.294   0.357   7.501  1.1206 -0.3279 -1.0545
 6458TIP3    H241010   6.294   0.220   7.564 -0.6632  0.4922  0.8622
 6459TIP3   OH241011   5.531   0.066   0.108  0.3292 -0.1071  0.0223
 6459TIP3    H141012   5.545   0.130   0.039 -1.8312 -0.3187 -0.6882
 6459TIP3    H241013   5.546   0.114   0.189 -2.1729  1.6474 -0.4484
 6460TIP3   OH241014   3.864   6.673   0.413 -0.3903  0.1004 -0.4057
 6460TIP3    H141015   3.851   6.768   0.425 -0.1896  0.1246 -0.3816
 6460TIP3    H241016   3.905   6.644   0.494  0.0672  0.0923 -0.6386
 6461TIP3   OH241017   6.534   0.897   2.373 -0.5010  0.3370  0.0902
 6461TIP3    H141018   6.627   0.882   2.358 -0.0480  2.3196  0.6158
 6461TIP3    H241019   6.528   0.988   2.401 -2.2565 -0.5442  3.1348
 6462TIP3   OH241020   2.104   4.824   3.314  0.1687 -0.2863 -0.3533
 6462TIP3    H141021   2.100   4.747   3.371  0.4507  0.9291  1.3551
 6462TIP3    H241022   2.017   4.863   3.319  0.5208  0.4527  0.1579
 6463TIP3   OH241023   5.922   5.852   2.592 -0.3343  0.3930 -0.0447
 6463TIP3    H141024   5.911   5.903   2.672  0.0857  1.1771 -0.4762
 6463TIP3    H241025   6.010   5.874   2.561  0.4810 -1.7784  0.5733
 6464TIP3   OH241026   3.400   4.804   2.427 -0.4977 -0.0176 -0.0817
 6464TIP3    H141027   3.366   4.726   2.383 -0.3821 -0.7858  1.1422
 6464TIP3    H241028   3.491   4.810   2.398 -0.3789 -0.5971  0.1639
 6465TIP3   OH241029   0.898   0.729   8.467  0.3872  0.0892  0.5419
 6465TIP3    H141030   0.863   0.668   8.532  0.6813 -0.7602 -0.0650
 6465TIP3    H241031   0.855   0.703   8.385  0.9380  0.3397  0.1691
 6466TIP3   OH241032   2.581   2.656   0.137 -0.0546 -0.1518  0.2268
 6466TIP3    H141033   2.546   2.575   0.173 -2.6386  0.3462 -0.9146
 6466TIP3    H241034   2.504   2.712   0.125  1.1738  1.1769 -2.2311
 6467TIP3   OH241035   2.920   5.499   0.388 -0.1302 -0.5739 -0.4545
 6467TIP3    H141036   2.906   5.592   0.406 -0.3200 -0.8097  0.7180
 6467TIP3    H241037   2.994   5.475   0.445 -0.6153 -1.3221 -0.1295
 6468TIP3   OH241038   6.468   6.728   2.025 -0.5323 -0.3254 -0.2989
 6468TIP3    H141039   6.478   6.634   2.035  1.1202 -0.2075 -0.6233
 6468TIP3    H241040   6.437   6.758   2.110 -0.1885 -1.0505  0.0899
 6469TIP3   OH241041   1.725   3.810   0.737  0.3539  0.0244  0.1536
 6469TIP3    H141042   1.789   3.878   0.714  0.8458  0.3379  2.2644
 6469TIP3    H241043   1.770   3.728   0.719  0.5166  0.2415 -0.4697
 6470TIP3   OH241044   1.619   5.615   7.768 -0.2421 -0.3478  0.4633
 6470TIP3    H141045   1.696   5.656   7.728 -0.2767 -0.5139  0.2213
 6470TIP3    H241046   1.546   5.648   7.715 -0.4694  0.7434  1.4139
 6471TIP3   OH241047   2.085   1.069   1.792  0.4108 -0.0802  0.3452
 6471TIP3    H141048   2.133   1.118   1.725 -0.9652  1.4770  0.4440
 6471TIP3    H241049   2.153   1.039   1.852  1.5537 -0.5018 -1.0910
 6472TIP3   OH241050   1.144   3.176   1.975  0.3715  0.2575 -0.1969
 6472TIP3    H141051   1.175   3.258   1.938  2.1082 -0.4656 -0.4484
 6472TIP3    H241052   1.114   3.199   2.063  0.1714  1.2696 -0.5248
 6473TIP3   OH241053   5.458   1.874   1.011  0.4440  0.1151  0.0787
 6473TIP3    H141054   5.524   1.825   0.962 -0.4470  1.2593 -2.4020
 6473TIP3    H241055   5.501   1.956   1.034  0.3291  0.3040 -0.3646
 6474TIP3   OH241056   4.100   3.634   1.536  0.2388  0.0687 -0.3631
 6474TIP3    H141057   4.017   3.633   1.584 -0.4239 -0.2891 -1.4962
 6474TIP3    H241058   4.166   3.608   1.601 -0.8235 -1.8635  0.0002
 6475TIP3   OH241059   5.588   3.871   2.186 -0.1981 -0.0242  0.3603
 6475TIP3    H141060   5.645   3.815   2.133 -1.1128 -0.0208 -0.6622
 6475TIP3    H241061   5.513   3.890   2.129  0.9887  3.9806 -0.2328
 6476TIP3   OH241062   2.738   4.507   0.967 -0.1759 -0.1519 -0.1126
 6476TIP3    H141063   2.830   4.494   0.947  0.1975  1.4051  0.4689
 6476TIP3    H241064   2.728   4.602   0.976 -1.2634 -0.4161  2.3734
 6477TIP3   OH241065   4.179   1.720   8.644  0.1312  0.5059 -0.2383
 6477TIP3    H141066   4.215   1.674   8.720  0.5764 -0.0893 -0.8050
 6477TIP3    H241067   4.140   1.800   8.681  0.0234  0.0514  0.6586
 6478TIP3   OH241068   2.300   4.082   1.935 -0.2170 -0.0042 -0.1098
 6478TIP3    H141069   2.261   3.996   1.923  0.0839 -0.2685  0.7243
 6478TIP3    H241070   2.351   4.074   2.016 -0.3763  1.0196  0.1047
 6479TIP3   OH241071   2.834   2.716   2.394 -0.0986 -0.0239 -0.1786
 6479TIP3    H141072   2.766   2.781   2.380 -0.1614  0.2891  1.4220
 6479TIP3    H241073   2.831   2.697   2.488  1.7398 -0.3217 -0.1418
 6480TIP3   OH241074   4.044   4.281   1.794 -0.1901  1.2933  0.1674
 6480TIP3    H141075   4.102   4.245   1.727 -2.0081 -1.1896 -0.2010
 6480TIP3    H241076   3.995   4.350   1.748 -1.2281 -0.2072 -1.0875
 6481TIP3   OH241077   0.338   2.005   0.664  0.2576  0.6092 -0.5628
 6481TIP3    H141078   0.366   2.082   0.615 -3.5390  2.3922 -0.3333
 6481TIP3    H241079   0.251   1.985   0.630  0.8329 -3.3563 -0.2124
 6482TIP3   OH241080   4.777   5.919   3.064 -0.6773  0.1603 -0.7729
 6482TIP3    H141081   4.745   5.852   3.125  0.3557  1.2564  1.0754
 6482TIP3    H241082   4.755   5.885   2.977 -1.0944 -2.0808  0.1374
 6483TIP3   OH241083   2.981   4.163   2.903  0.5196  0.3094  0.3396
 6483TIP3    H141084   3.000   4.070   2.891  0.9330  0.4664 -0.3053
 6483TIP3    H241085   2.931   4.167   2.984 -0.3097 -0.5797 -0.0993
 6484TIP3   OH241086   0.689   0.608   2.904  0.3081  0.2599 -0.1104
 6484TIP3    H141087   0.752   0.617   2.975  0.0612  2.5227 -0.1092
 6484TIP3    H241088   0.604   0.608   2.948 -0.0216  4.2545 -0.3679
 6485TIP3   OH241089   3.717   6.640   0.025  0.0527  0.7769 -0.0149
 6485TIP3    H141090   3.715   6.586  -0.054  2.3402 -0.0065  0.3920
 6485TIP3    H241091   3.747   6.581   0.094 -0.2015  1.8793  1.0826
 6486TIP3   OH241092   6.838   6.454   8.742  0.6411  0.4028 -0.3132
 6486TIP3    H141093   6.872   6.498   8.664 -0.6284  0.8380 -0.6423
 6486TIP3    H241094   6.762   6.506   8.768  0.7203 -0.0572  0.8967
 6487TIP3   OH241095   5.349   3.316   8.003 -0.3603 -0.0491  0.2595
 6487TIP3    H141096   5.332   3.405   8.033 -0.6291  0.4400 -1.2753
 6487TIP3    H241097   5.262   3.279   7.986 -0.2419 -0.5464  0.6860
 6488TIP3   OH241098   6.380   4.080   8.469 -0.2473 -0.1244 -0.1119
 6488TIP3    H141099   6.323   4.012   8.505  1.0425 -1.0761  0.2179
 6488TIP3    H241100   6.394   4.141   8.541 -3.1167  1.7829 -0.9675
 6489TIP3   OH241101   3.618   5.174   1.637  0.3765 -0.3903 -0.0169
 6489TIP3    H141102   3.555   5.136   1.698  1.2230 -2.9001 -0.6219
 6489TIP3    H241103   3.678   5.223   1.693 -0.5831 -0.1204  0.8231
 6490TIP3   OH241104   1.915   5.036   1.188 -0.2862  0.1829 -0.7316
 6490TIP3    H141105   1.864   5.006   1.264  0.3482  2.0244  0.5070
 6490TIP3    H241106   1.881   4.985   1.115 -0.0795 -2.5977  0.9562
 6491TIP3   OH241107   6.150   1.377   8.760  0.1041 -0.0276  0.0886
 6491TIP3    H141108   6.109   1.395   8.676  1.8517  1.0869 -0.5826
 6491TIP3    H241109   6.244   1.382   8.743  0.5866 -2.1010  1.6183
 6492TIP3   OH241110   3.421   0.916   1.327 -0.0109 -0.0640 -0.3181
 6492TIP3    H141111   3.459   0.865   1.256  0.9057 -0.7090  0.6153
 6492TIP3    H241112   3.327   0.895   1.324  0.3367 -1.7929  0.0146
 6493TIP3   OH241113   0.953   1.460   7.675 -0.1288  0.0640 -0.0838
 6493TIP3    H141114   0.879   1.443   7.617 -0.1622 -1.2794  0.3215
 6493TIP3    H241115   1.027   1.471   7.615 -0.3797 -0.1165 -0.4301
 6494TIP3   OH241116   1.097   4.185   0.732 -0.4449 -0.1254 -0.6961
 6494TIP3    H141117   1.185   4.150   0.726 -0.0029  0.6309  0.9253
 6494TIP3    H241118   1.109   4.279   0.740 -1.1734 -0.1892  2.4210
 6495TIP3   OH241119   3.337   0.612   2.525  0.1866 -0.0671  0.0936
 6495TIP3    H141120   3.361   0.681   2.586 -0.3617  0.0331  0.2006
 6495TIP3    H241121   3.273   0.558   2.573  0.7864 -0.7857  0.0985
 6496TIP3   OH241122   2.416   5.582   2.276  0.1338 -0.5664  0.8069
 6496TIP3    H141123   2.391   5.606   2.365 -0.7911 -0.3056  0.4787
 6496TIP3    H241124   2.432   5.665   2.232  2.7129 -0.7020  1.2865
 6497TIP3   OH241125   5.908   3.319   1.608  0.7000 -0.3630  0.3597
 6497TIP3    H141126   5.902   3.342   1.515 -0.0345  0.6289  0.6349
 6497TIP3    H241127   5.880   3.228   1.612 -0.0388 -0.1801 -0.2995
 6498TIP3   OH241128   1.581   6.054   2.920 -0.4173 -0.1535  0.0317
 6498TIP3    H141129   1.668   6.060   2.880 -0.5286  0.1794 -0.1661
 6498TIP3    H241130   1.521   6.046   2.846 -0.3735 -3.3579  0.2140
 6499TIP3   OH241131   0.213   2.251   0.845 -0.2602 -0.2646  0.3688
 6499TIP3    H141132   0.264   2.290   0.774 -0.5717  2.0228  1.3061
 6499TIP3    H241133   0.123   2.248   0.812 -0.1321 -0.8129  0.0614
 6500TIP3   OH241134   1.660   1.906   8.727  0.6729 -0.2170  0.4107
 6500TIP3    H141135   1.656   1.976   8.662  2.2642  0.3723  0.8874
 6500TIP3    H241136   1.571   1.898   8.761  0.4390  1.5292  0.2894
 6501TIP3   OH241137   4.271   1.627   0.890 -0.0583  0.3042  0.0666
 6501TIP3    H141138   4.350   1.572   0.889  0.0751  0.4900  0.4191
 6501TIP3    H241139   4.305   1.716   0.899 -0.3710  0.2732  1.7833
 6502TIP3   OH241140   6.297   4.609   8.578 -0.3916  0.5051  0.3979
 6502TIP3    H141141   6.276   4.542   8.643 -2.8033  0.3799 -0.4378
 6502TIP3    H241142   6.239   4.682   8.599  0.6723  1.5063 -0.0279
 6503TIP3   OH241143   0.838   2.341   1.500  0.3334  0.1154  0.2031
 6503TIP3    H141144   0.895   2.367   1.428  0.4318  1.0611  0.5969
 6503TIP3    H241145   0.754   2.322   1.460  0.5207  0.1740 -0.2175
 6504TIP3   OH241146   4.166   4.992   2.669 -0.4812  0.1756 -0.0285
 6504TIP3    H141147   4.232   5.061   2.663  0.7151 -1.0631 -2.9251
 6504TIP3    H241148   4.213   4.917   2.704 -0.7987 -0.2045 -0.4064
 6505TIP3   OH241149   6.072   6.390   2.437  0.1154  0.0989 -0.2940
 6505TIP3    H141150   6.136   6.458   2.454 -0.6575  0.6606  0.5042
 6505TIP3    H241151   6.059   6.348   2.523 -2.4058  1.6574  0.1876
 6506TIP3   OH241152   0.708   3.835   2.334  0.4004 -0.1629  0.3824
 6506TIP3    H141153   0.680   3.790   2.255 -1.9897  0.1691  0.9641
 6506TIP3    H241154   0.778   3.894   2.305  0.6006 -1.1213 -1.1749
 6507TIP3   OH241155   5.232   2.363   2.578 -0.5124 -0.2902 -0.4200
 6507TIP3    H141156   5.221   2.291   2.516  0.0665 -1.1241  0.4275
 6507TIP3    H241157   5.315   2.403   2.553 -0.8214  0.0828 -0.8749
 6508TIP3   OH241158   2.600   4.423   8.113  0.9602 -0.0300 -0.6096
 6508TIP3    H141159   2.639   4.434   8.026  0.8064  0.6218 -0.6035
 6508TIP3    H241160   2.669   4.381   8.164  1.1238 -0.2371 -0.9897
 6509TIP3   OH241161   3.846   0.408   0.425  0.0529 -0.0150 -0.0446
 6509TIP3    H141162   3.800   0.374   0.348 -1.2934  1.7926 -0.0951
 6509TIP3    H241163   3.824   0.347   0.495  0.8694 -1.3885 -0.9233
 6510TIP3   OH241164   2.680   0.363   8.273  0.0923  0.8277  0.0030
 6510TIP3    H141165   2.623   0.369   8.197 -0.4762  0.4092  0.3839
 6510TIP3    H241166   2.769   0.357   8.237 -0.1777  0.5680 -0.6240
 6511TIP3   OH241167   0.760   6.206   3.000 -0.1056  0.8054  0.6039
 6511TIP3    H141168   0.808   6.278   2.960 -0.0632  0.1598 -0.5422
 6511TIP3    H241169   0.827   6.140   3.020 -0.3188  0.5217  0.3881
 6512TIP3   OH241170   2.252   4.389   2.161 -0.1893  0.0962  0.3926
 6512TIP3    H141171   2.170   4.437   2.171 -0.9819 -1.3293  1.1663
 6512TIP3    H241172   2.287   4.418   2.077 -0.6440  1.9294  0.7873
 6513TIP3   OH241173   2.356   2.116   2.366  0.3731 -0.1998  0.2744
 6513TIP3    H141174   2.294   2.123   2.294  1.5044 -1.4850 -0.8869
 6513TIP3    H241175   2.389   2.205   2.378 -0.2897  0.1458 -0.3761
 6514TIP3   OH241176   2.504   3.494   1.270 -0.5574 -0.2561 -0.2397
 6514TIP3    H141177   2.427   3.437   1.272 -1.3101  0.7109  2.3132
 6514TIP3    H241178   2.467   3.583   1.265  0.4523  0.1790 -0.1361
 6515TIP3   OH241179   6.033   1.836   7.957  0.3423  0.0400 -0.1491
 6515TIP3    H141180   5.996   1.801   7.876  0.1008  0.1997 -0.1085
 6515TIP3    H241181   5.988   1.920   7.969  0.7912  0.2830 -0.1565
 6516TIP3   OH241182   2.006   2.615   7.094 -0.2673  0.1929  0.6167
 6516TIP3    H141183   1.939   2.551   7.070 -0.7247  1.0196 -0.3896
 6516TIP3    H241184   1.957   2.695   7.113  0.4215  0.8604 -0.3057
 6517TIP3   OH241185   6.018   1.058   2.692  0.5576 -0.3669  0.3584
 6517TIP3    H141186   6.024   1.153   2.691  0.8849 -0.3825 -0.9426
 6517TIP3    H241187   5.938   1.038   2.643  1.1988 -0.7848 -0.5487
 6518TIP3   OH241188   4.982   1.594   1.333  0.2644  0.0369 -0.3077
 6518TIP3    H141189   5.014   1.656   1.399  1.7713 -0.7225 -0.2707
 6518TIP3    H241190   4.896   1.627   1.309  0.7586  1.7956  0.1643
 6519TIP3   OH241191   5.425   2.214   2.389  0.1618  0.4536  0.2671
 6519TIP3    H141192   5.338   2.177   2.377  0.4003  0.8162 -3.8109
 6519TIP3    H241193   5.479   2.140   2.417 -0.8497 -0.5589 -0.4008
 6520TIP3   OH241194   4.698   2.711   0.875 -0.5694 -0.3216 -0.2575
 6520TIP3    H141195   4.697   2.660   0.794 -2.8971 -0.0153 -0.4697
 6520TIP3    H241196   4.750   2.789   0.853  2.0329 -1.9093 -0.2703
 6521TIP3   OH241197   1.008   2.905   1.653 -0.7285 -0.3882  0.1759
 6521TIP3    H141198   1.072   2.837   1.673 -2.5166 -1.4103  3.0816
 6521TIP3    H241199   1.008   2.962   1.730 -0.7108  1.8449 -1.3569
 6522TIP3   OH241200   3.492   5.601   0.384  0.0351 -0.3313  0.2931
 6522TIP3    H141201   3.488   5.507   0.365 -1.1372 -0.5592  1.4700
 6522TIP3    H241202   3.427   5.639   0.325  1.6340  0.0131 -1.3477
 6523TIP3   OH241203   4.855   2.795   0.389  0.5849  0.3994 -0.4597
 6523TIP3    H141204   4.907   2.741   0.448 -1.2857 -0.1741  0.7665
 6523TIP3    H241205   4.888   2.775   0.302  0.8509 -1.7199  0.0758
 6524TIP3   OH241206   4.344   1.997   2.038 -0.4454  0.5427  0.1978
 6524TIP3    H141207   4.368   1.986   2.131  0.5184  0.1650 -0.0780
 6524TIP3    H241208   4.253   2.026   2.040 -0.6978 -0.2403  1.2419
 6525TIP3   OH241209   4.398   3.718   8.777  0.3724  0.0924 -0.1192
 6525TIP3    H141210   4.331   3.718   8.708 -1.7149 -0.5556  1.7769
 6525TIP3    H241211   4.458   3.648   8.752  0.4178  0.6958 -1.8819
 6526TIP3   OH241212   5.250   0.084   2.459  0.5606 -0.0774 -0.5211
 6526TIP3    H141213   5.254   0.127   2.544  0.3163  0.1049 -0.6004
 6526TIP3    H241214   5.169   0.117   2.419  0.4958 -0.4216 -0.6815
 6527TIP3   OH241215   3.551   6.055   8.201 -0.6976  0.4322  0.3719
 6527TIP3    H141216   3.533   6.097   8.285  2.6335  2.3300  0.2932
 6527TIP3    H241217   3.526   6.120   8.135  0.7346  0.7722  0.1164
 6528TIP3   OH241218   1.653   3.541   2.591 -0.1301 -0.4201 -0.2136
 6528TIP3    H141219   1.677   3.632   2.573 -1.6493  0.1558  0.5245
 6528TIP3    H241220   1.705   3.517   2.668  0.3902 -0.2552 -0.5043
 6529TIP3   OH241221   4.662   6.834   1.289  0.6041  0.0877  0.0422
 6529TIP3    H141222   4.690   6.907   1.344  0.4235  0.5800 -0.5043
 6529TIP3    H241223   4.712   6.845   1.208  0.6976 -0.4935  0.0236
 6530TIP3   OH241224   1.312   5.191   1.726  0.2104  0.7650 -0.0885
 6530TIP3    H141225   1.255   5.264   1.751  1.1306  0.9603  1.5980
 6530TIP3    H241226   1.261   5.141   1.662 -1.4776  1.4479  0.6686
 6531TIP3   OH241227   4.728   5.920   1.978 -0.2809  0.0538  0.2389
 6531TIP3    H141228   4.743   5.883   1.891  0.4682  1.5356 -0.3125
 6531TIP3    H241229   4.633   5.928   1.986 -0.3737 -0.6097 -0.2161
 6532TIP3   OH241230   5.919   5.446   1.369  0.1215 -0.6149  0.3958
 6532TIP3    H141231   5.956   5.406   1.447 -0.8086 -0.6308  0.8414
 6532TIP3    H241232   5.865   5.376   1.330 -1.4039  0.1266  1.1008
 6533TIP3   OH241233   2.092   6.368   7.785  0.1498 -0.0381  0.1733
 6533TIP3    H141234   2.003   6.358   7.751  0.2336  0.0694 -0.0794
 6533TIP3    H241235   2.149   6.346   7.711  0.3480 -1.4972  0.7189
 6534TIP3   OH241236   4.676   1.718   7.218  0.5289  0.0580  0.2220
 6534TIP3    H141237   4.585   1.712   7.189  1.5400 -0.8203 -3.1823
 6534TIP3    H241238   4.671   1.708   7.313 -2.9792  1.0988  0.2988
 6535TIP3   OH241239   0.366   2.318   2.497 -0.8271  0.1903 -0.2581
 6535TIP3    H141240   0.393   2.399   2.454 -0.0663  0.6301  0.9948
 6535TIP3    H241241   0.408   2.322   2.583 -2.8822 -0.3016  0.8159
 6536TIP3   OH241242   2.356   2.110   8.316 -0.1163  0.0332 -0.2525
 6536TIP3    H141243   2.395   2.023   8.311  0.1575  0.1658 -0.4327
 6536TIP3    H241244   2.420   2.163   8.363  0.8054  0.7301 -2.1948
 6537TIP3   OH241245   2.821   5.111   8.377 -0.5041 -0.1025 -0.4237
 6537TIP3    H141246   2.846   5.043   8.316 -1.0197  0.1307 -0.9055
 6537TIP3    H241247   2.726   5.120   8.366 -1.0212 -1.6896  2.0950
 6538TIP3   OH241248   6.708   2.132   1.388 -0.1354 -0.4467 -0.4599
 6538TIP3    H141249   6.645   2.060   1.387 -1.2448  0.5021 -1.0164
 6538TIP3    H241250   6.655   2.211   1.391  1.0606  0.3669  0.8580
 6539TIP3   OH241251   2.429   6.582   7.972  0.0989  0.5775 -0.1951
 6539TIP3    H141252   2.437   6.510   7.909  0.7829  0.8620 -0.4356
 6539TIP3    H241253   2.493   6.561   8.040 -0.1109  0.6643  0.0322
 6540TIP3   OH241254   2.062   6.378   7.468 -0.4043  0.3358  0.2763
 6540TIP3    H141255   1.986   6.370   7.410  0.1264 -1.1816 -0.2691
 6540TIP3    H241256   2.137   6.369   7.410  0.1470 -0.7066  1.1143
 6541TIP3   OH241257   4.464   3.018   1.141 -0.7635 -0.0538  0.4254
 6541TIP3    H141258   4.557   3.038   1.139 -0.9515  0.8376 -0.0524
 6541TIP3    H241259   4.459   2.925   1.160  0.1963  0.1027  1.5075
 6542TIP3   OH241260   4.191   2.718   8.475  0.1365  0.3777  0.0948
 6542TIP3    H141261   4.141   2.660   8.418  0.3346  0.7697 -0.4895
 6542TIP3    H241262   4.159   2.806   8.454 -0.4866  0.4538  1.3023
 6543TIP3   OH241263   2.957   6.566   7.957 -0.2545 -0.2618 -0.3405
 6543TIP3    H141264   2.924   6.647   7.995 -0.7131 -1.2999  1.6027
 6543TIP3    H241265   3.001   6.521   8.029  1.6065 -0.9444 -1.8057
 6544TIP3   OH241266   1.876   5.251   0.033 -0.0959 -0.6041  0.0583
 6544TIP3    H141267   1.899   5.297   0.114  0.0019  1.7051 -1.2089
 6544TIP3    H241268   1.959   5.221  -0.003  0.2831  1.3606 -0.8408
 6545TIP3   OH241269   0.923   6.655   2.210  0.4539  0.0555  0.6584
 6545TIP3    H141270   0.944   6.668   2.118 -1.3326 -0.3938  0.1550
 6545TIP3    H241271   0.869   6.576   2.212  0.9652 -0.3054  2.1818
 6546TIP3   OH241272   2.216   3.409   1.716 -0.0270 -0.0975 -0.2613
 6546TIP3    H141273   2.220   3.387   1.809  0.4039 -0.1593 -0.2924
 6546TIP3    H241274   2.168   3.492   1.713 -2.4747 -1.4200 -0.2227
 6547TIP3   OH241275   0.459   6.717   1.556  0.2239  0.5247 -0.4594
 6547TIP3    H141276   0.425   6.641   1.510  1.4582  0.5585 -1.4894
 6547TIP3    H241277   0.419   6.713   1.642 -1.4912 -0.0162 -1.2420
 6548TIP3   OH241278   1.384   1.726   0.545 -0.0973 -0.2705  0.2723
 6548TIP3    H141279   1.438   1.703   0.470 -1.9029  0.2458 -1.2496
 6548TIP3    H241280   1.326   1.651   0.557 -0.5913  0.1245  0.4020
 6549TIP3   OH241281   1.352   2.576   7.532 -0.6948 -0.3191  0.5671
 6549TIP3    H141282   1.326   2.667   7.544  0.1404  0.0892 -0.5799
 6549TIP3    H241283   1.443   2.572   7.560 -0.3969 -0.5568 -0.4164
 6550TIP3   OH241284   6.037   1.401   8.497 -0.0041  0.4500  0.1170
 6550TIP3    H141285   6.015   1.469   8.433 -1.8126 -0.2028 -0.0005
 6550TIP3    H241286   5.990   1.323   8.467 -0.4292 -0.0297  1.9033
 6551TIP3   OH241287   3.831   2.544   7.110 -0.2904 -0.0235 -0.8113
 6551TIP3    H141288   3.876   2.619   7.149 -3.9535  2.2261 -0.3270
 6551TIP3    H241289   3.860   2.542   7.019  0.9026  1.1466 -0.4794
 6552TIP3   OH241290   6.225   0.222   8.120 -0.0441 -0.6510  0.2112
 6552TIP3    H141291   6.236   0.191   8.030  1.0264 -2.7788  1.0175
 6552TIP3    H241292   6.313   0.223   8.156 -0.4750  0.0672  1.2866
 6553TIP3   OH241293   4.520   0.894   8.125  0.7036 -0.5028 -0.2997
 6553TIP3    H141294   4.495   0.957   8.057 -0.6765 -0.2482  0.4173
 6553TIP3    H241295   4.525   0.946   8.205  1.1090 -1.0290  0.0210
 6554TIP3   OH241296   1.327   2.268   0.007 -0.2375 -0.3480  0.0876
 6554TIP3    H141297   1.285   2.353   0.023  0.6840  0.2986 -0.7939
 6554TIP3    H241298   1.267   2.204   0.045 -0.6488  0.7394  1.3472
 6555TIP3   OH241299   4.797   4.630   0.144 -0.7204 -0.3332  0.1984
 6555TIP3    H141300   4.844   4.554   0.178  0.7677  0.3572 -0.2326
 6555TIP3    H241301   4.723   4.641   0.205  0.9694 -0.0800  2.3526
 6556TIP3   OH241302   0.754   5.881   8.591  0.0138 -0.3321  0.2410
 6556TIP3    H141303   0.747   5.789   8.618 -0.8834 -0.6129 -0.9082
 6556TIP3    H241304   0.818   5.918   8.652  1.2203 -1.9727  0.0301
 6557TIP3   OH241305   4.869   0.438   0.654 -0.0152 -0.1397  0.3509
 6557TIP3    H141306   4.859   0.386   0.574 -0.3294  1.3150 -0.6002
 6557TIP3    H241307   4.963   0.451   0.663  0.1378 -1.5796  1.0986
 6558TIP3   OH241308   1.379   2.714   1.191 -0.5289  0.5887  0.0168
 6558TIP3    H141309   1.339   2.755   1.114 -0.6229 -0.3738 -0.4709
 6558TIP3    H241310   1.445   2.777   1.220 -1.2038  1.4247 -0.2249
 6559TIP3   OH241311   1.764   2.350   3.323 -0.1217  0.1167 -0.5179
 6559TIP3    H141312   1.847   2.370   3.366 -0.1762 -0.3742 -0.1755
 6559TIP3    H241313   1.786   2.284   3.257 -0.5010 -1.3205  0.7374
 6560TIP3   OH241314   1.556   5.572   8.763  0.3155 -0.0116  0.1389
 6560TIP3    H141315   1.608   5.508   8.714 -0.7010  0.6468 -1.9191
 6560TIP3    H241316   1.610   5.651   8.765  0.5403 -0.1735  0.4671
 6561TIP3   OH241317   5.533   2.210   2.119 -0.1864  0.0343  0.1588
 6561TIP3    H141318   5.487   2.231   2.200  1.1272 -0.8361  1.1847
 6561TIP3    H241319   5.474   2.238   2.049 -1.8082 -0.1277  1.4098
 6562TIP3   OH241320   1.733   6.208   7.788 -0.2713 -0.3343 -0.2320
 6562TIP3    H141321   1.708   6.120   7.762  1.6042 -1.4658  1.5301
 6562TIP3    H241322   1.753   6.253   7.706 -0.6725 -1.7433 -1.1182
 6563TIP3   OH241323   5.300   6.501   0.372  0.6415 -0.0697  0.4038
 6563TIP3    H141324   5.335   6.474   0.457  0.7124  0.3884  0.5242
 6563TIP3    H241325   5.377   6.516   0.318  0.5765 -1.7791 -0.2045
 6564TIP3   OH241326   0.264   1.069   0.855 -0.2606  0.6234  0.1080
 6564TIP3    H141327   0.308   1.086   0.938 -0.9433  2.6099  0.1148
 6564TIP3    H241328   0.326   1.100   0.789  1.3121 -3.0194 -0.4241
 6565TIP3   OH241329   2.480   2.013   0.775  0.0481  0.6423 -0.4793
 6565TIP3    H141330   2.433   1.970   0.847 -0.6661  0.5319 -1.0050
 6565TIP3    H241331   2.573   1.999   0.795 -0.1524  0.2207  0.1803
 6566TIP3   OH241332   5.967   3.095   1.307  0.7489  0.4038  0.3765
 6566TIP3    H141333   5.971   3.001   1.323 -1.8308  0.3599  1.0859
 6566TIP3    H241334   5.971   3.103   1.212 -1.2549 -0.6347  0.1553
 6567TIP3   OH241335   0.808   6.741   7.757 -0.5784  0.0155 -0.4640
 6567TIP3    H141336   0.882   6.802   7.752  0.6529 -1.1822  1.8928
 6567TIP3    H241337   0.835   6.667   7.702 -0.3735 -0.0606 -0.2640
 6568TIP3   OH241338   2.477   3.790   1.829  0.1901 -0.7249  0.2151
 6568TIP3    H141339   2.546   3.796   1.762  0.9012 -1.2612  0.8793
 6568TIP3    H241340   2.518   3.825   1.908 -0.1827 -1.3910  0.7098
 6569TIP3   OH241341   4.441   6.596   0.040  0.0632 -0.0833 -0.1971
 6569TIP3    H141342   4.528   6.556   0.045  0.4410  0.7320  0.0512
 6569TIP3    H241343   4.431   6.621  -0.052 -0.1093 -0.5998 -0.3209
 6570TIP3   OH241344   2.922   6.397   7.551  0.0947 -0.2026  0.4699
 6570TIP3    H141345   2.899   6.306   7.566 -0.3682  0.1127  1.7411
 6570TIP3    H241346   2.843   6.446   7.572  0.4903  0.5429  0.2734
 6571TIP3   OH241347   5.047   4.587   1.431  0.6377 -0.4016  0.2323
 6571TIP3    H141348   5.016   4.542   1.510  2.1694  0.0614  1.1467
 6571TIP3    H241349   4.968   4.622   1.390 -0.2927 -1.5079  1.0124
 6572TIP3   OH241350   6.308   3.859   1.666 -0.8112 -0.4964  0.1000
 6572TIP3    H141351   6.287   3.918   1.739  0.9723  1.2271 -0.6866
 6572TIP3    H241352   6.308   3.916   1.589  0.2452 -1.6805 -0.8040
 6573TIP3   OH241353   6.264   1.943   2.258 -0.1622 -0.3989 -0.4676
 6573TIP3    H141354   6.192   1.988   2.213  0.2271  0.6439 -0.0742
 6573TIP3    H241355   6.337   1.950   2.197  0.6138  1.7753  0.6104
 6574TIP3   OH241356   6.118   0.856   2.843 -0.1594 -0.2364  0.2006
 6574TIP3    H141357   6.088   0.942   2.815 -0.3935 -0.2575  0.3905
 6574TIP3    H241358   6.091   0.797   2.773 -2.6680 -0.6501  1.4289
 6575TIP3   OH241359   0.732   5.536   7.938  0.1962  0.0164 -0.0240
 6575TIP3    H141360   0.720   5.615   7.992  0.8207  0.4172 -0.4632
 6575TIP3    H241361   0.662   5.541   7.873 -0.2096 -0.1714  0.3928
 6576TIP3   OH241362   5.727   6.695   1.971 -0.4238  0.2372 -0.2978
 6576TIP3    H141363   5.819   6.705   1.948 -0.8152  1.0328 -1.6849
 6576TIP3    H241364   5.706   6.773   2.023 -0.1154 -0.3680  0.7414
 6577TIP3   OH241365   5.435   2.980   7.802 -0.1374 -1.0094 -0.0161
 6577TIP3    H141366   5.502   3.042   7.830 -0.3441 -0.7247 -0.1445
 6577TIP3    H241367   5.380   2.969   7.880  0.2615 -1.5138  0.1952
 6578TIP3   OH241368   0.369   1.255   0.289 -0.4006 -0.3555  0.1386
 6578TIP3    H141369   0.329   1.207   0.217 -0.7800 -0.7146  0.5837
 6578TIP3    H241370   0.448   1.294   0.251 -1.4291  0.8161 -0.9026
 6579TIP3   OH241371   2.087   6.617   0.243  0.0793  0.2086  0.3840
 6579TIP3    H141372   2.036   6.543   0.275 -0.1871  0.2630  0.0872
 6579TIP3    H241373   2.102   6.599   0.150  0.1439  0.4530  0.3441
 6580TIP3   OH241374   1.781   6.494   1.427 -0.6102 -0.1736 -0.6055
 6580TIP3    H141375   1.790   6.448   1.343 -0.0577  0.6405 -1.0104
 6580TIP3    H241376   1.734   6.575   1.405 -1.2398 -0.3572  0.0281
 6581TIP3   OH241377   4.758   4.071   2.083 -0.0968 -0.3224 -0.8550
 6581TIP3    H141378   4.672   4.029   2.087  0.5637 -1.6725 -0.1523
 6581TIP3    H241379   4.819   4.002   2.111  1.1352  0.8215 -0.6650
 6582TIP3   OH241380   3.148   0.161   1.351 -0.1906 -0.4785  0.2326
 6582TIP3    H141381   3.061   0.128   1.329 -1.0130  0.1138  2.3401
 6582TIP3    H241382   3.132   0.232   1.412  1.7842 -0.3095  0.6184
 6583TIP3   OH241383   1.273   2.179   1.584  0.0334  0.2185 -0.5542
 6583TIP3    H141384   1.209   2.133   1.529  0.0251 -1.2266  0.5924
 6583TIP3    H241385   1.221   2.241   1.635 -0.4326 -0.7366  0.1521
 6584TIP3   OH241386   6.508   4.188   0.160 -0.4599  1.1525 -0.1577
 6584TIP3    H141387   6.426   4.215   0.117 -1.7629  0.3184  1.6514
 6584TIP3    H241388   6.524   4.099   0.127 -1.9939  0.1226  1.6377
 6585TIP3   OH241389   5.683   2.290   0.188 -0.2045 -0.0719  0.3210
 6585TIP3    H141390   5.772   2.274   0.158 -1.0682 -2.4165 -1.3353
 6585TIP3    H241391   5.633   2.305   0.108 -1.5761 -0.4513  1.0678
 6586TIP3   OH241392   0.854   5.945   8.344 -0.5313  0.5189 -0.2399
 6586TIP3    H141393   0.945   5.916   8.350  0.1255  2.4447 -0.2111
 6586TIP3    H241394   0.817   5.924   8.430 -0.9143 -2.5743 -1.0463
 6587TIP3   OH241395   4.177   4.335   2.033  0.5772 -0.1688 -0.0648
 6587TIP3    H141396   4.181   4.313   1.940 -4.3738 -0.8804 -0.3806
 6587TIP3    H241397   4.174   4.431   2.035 -1.0485 -0.1832 -0.8567
 6588TIP3   OH241398   2.846   3.148   1.840 -0.2091  0.0613  0.0645
 6588TIP3    H141399   2.753   3.145   1.817 -0.0157  0.3949 -0.8117
 6588TIP3    H241400   2.889   3.176   1.759  0.8745 -2.0402 -0.1484
 6589TIP3   OH241401   3.143   1.791   7.232 -0.4952 -0.1269  0.3181
 6589TIP3    H141402   3.078   1.848   7.191 -0.1446 -0.4413 -0.7165
 6589TIP3    H241403   3.203   1.851   7.276 -0.5783  0.2642 -0.0910
 6590TIP3   OH241404   6.123   1.584   2.982  0.1731  0.4644 -0.3113
 6590TIP3    H141405   6.029   1.596   2.993 -0.1476 -2.3682  0.9613
 6590TIP3    H241406   6.131   1.517   2.914  1.2532  0.6231 -0.3557
 6591TIP3   OH241407   2.059   2.947   2.521 -0.0282 -0.3958  0.3951
 6591TIP3    H141408   1.996   2.998   2.571  1.9510  1.7716  0.8596
 6591TIP3    H241409   2.006   2.899   2.457 -2.1335  1.1950  0.8297
 6592TIP3   OH241410   1.594   6.030   8.268  0.0210  0.3187  0.1789
 6592TIP3    H141411   1.506   6.034   8.230 -0.4110  1.6613  1.2587
 6592TIP3    H241412   1.648   6.081   8.208  0.1458 -0.7416 -0.6383
 6593TIP3   OH241413   6.819   4.191   3.551 -0.0516  0.3019 -0.2878
 6593TIP3    H141414   6.851   4.120   3.606 -0.4953 -0.1493 -0.6119
 6593TIP3    H241415   6.749   4.232   3.603  0.7229  1.0042  0.2293
 6594TIP3   OH241416   1.326   0.778   1.964 -0.2425 -0.3081  0.4697
 6594TIP3    H141417   1.320   0.865   1.925  1.6762 -0.6532 -0.7225
 6594TIP3    H241418   1.372   0.792   2.047  1.1330 -0.2793 -0.2632
 6595TIP3   OH241419   0.625   0.395   1.897 -0.2134  0.3968 -0.0623
 6595TIP3    H141420   0.621   0.314   1.846  0.9783  0.8612 -0.9517
 6595TIP3    H241421   0.703   0.386   1.951  0.7746  1.4973 -1.2217
 6596TIP3   OH241422   3.121   3.911   8.166 -0.6938 -0.3140 -0.3120
 6596TIP3    H141423   3.115   3.870   8.252 -0.3353 -0.6653 -0.4466
 6596TIP3    H241424   3.135   4.004   8.183  2.1187 -0.7082  0.0791
 6597TIP3   OH241425   4.866   0.785   0.694  0.1737 -0.4388 -0.1617
 6597TIP3    H141426   4.793   0.790   0.632  1.7382 -1.3136 -2.1999
 6597TIP3    H241427   4.825   0.782   0.780 -2.2298 -1.5905 -1.2576
 6598TIP3   OH241428   4.550   5.577   2.098  0.7043 -0.3573 -0.2236
 6598TIP3    H141429   4.499   5.627   2.035  1.0954 -0.4478 -0.6159
 6598TIP3    H241430   4.624   5.634   2.120  1.2625 -0.8278 -0.8262
 6599TIP3   OH241431   6.050   1.440   0.246  0.1244 -0.0088  0.1408
 6599TIP3    H141432   5.972   1.390   0.270 -1.0015  1.4637 -0.3115
 6599TIP3    H241433   6.074   1.407   0.159 -0.1633 -0.2534  0.1535
 6600TIP3   OH241434   1.678   3.591   7.953  0.2502  0.0890 -0.1213
 6600TIP3    H141435   1.746   3.578   7.888 -1.1183  0.9142 -1.8193
 6600TIP3    H241436   1.612   3.525   7.932  0.3814 -0.5412  1.3351
 6601TIP3   OH241437   5.282   4.871   8.758 -0.3232  0.4558  0.2841
 6601TIP3    H141438   5.191   4.850   8.780 -0.3589  0.0913 -0.1879
 6601TIP3    H241439   5.283   4.965   8.744 -1.2088  0.1856 -2.2546
 6602TIP3   OH241440   4.568   6.796   1.767  0.4373 -0.0590  0.1411
 6602TIP3    H141441   4.550   6.861   1.835 -1.8269  0.6624 -1.0339
 6602TIP3    H241442   4.658   6.813   1.741  0.1719  2.1389  0.4322
 6603TIP3   OH241443   0.344   0.428   2.625 -0.0446 -0.1371 -0.7402
 6603TIP3    H141444   0.322   0.462   2.711  1.3871  0.5761 -0.6264
 6603TIP3    H241445   0.380   0.503   2.578  0.7478 -0.8888 -1.3719
 6604TIP3   OH241446   4.024   2.171   6.844  0.0409  0.1976 -0.3589
 6604TIP3    H141447   4.017   2.076   6.834 -0.1216  0.1775 -0.0595
 6604TIP3    H241448   3.954   2.194   6.906  1.8149  0.1422  1.7790
 6605TIP3   OH241449   2.082   4.457   8.463 -0.1550  0.5173 -0.5767
 6605TIP3    H141450   2.118   4.485   8.547  0.2272  1.2444 -0.9791
 6605TIP3    H241451   2.158   4.426   8.413 -0.6644 -2.3208  0.2359
 6606TIP3   OH241452   5.862   1.052   0.170  0.4852  0.7110 -0.1050
 6606TIP3    H141453   5.796   1.091   0.112  0.8113  1.7240  0.1718
 6606TIP3    H241454   5.827   0.966   0.193 -0.0677  0.6596 -1.0910
 6607TIP3   OH241455   0.153   5.820   2.185  0.1132 -0.4822  0.5500
 6607TIP3    H141456   0.124   5.730   2.171 -0.3991 -0.1118 -0.9450
 6607TIP3    H241457   0.124   5.841   2.274 -0.3436 -1.5618  0.6720
 6608TIP3   OH241458   4.304   0.350   8.539  1.0781 -0.2752  0.3567
 6608TIP3    H141459   4.267   0.303   8.614 -0.3388  0.9797  0.5035
 6608TIP3    H241460   4.248   0.324   8.465  1.8684 -0.7625 -0.0853
 6609TIP3   OH241461   1.345   6.778   1.022 -0.0371  0.2994  0.3402
 6609TIP3    H141462   1.422   6.830   0.999 -0.4540  0.3264 -1.1005
 6609TIP3    H241463   1.358   6.694   0.978 -0.5693  0.0993  0.5465
 6610TIP3   OH241464   1.540   2.181   8.653 -0.4654 -0.4487 -0.0357
 6610TIP3    H141465   1.510   2.159   8.565 -1.1912 -0.1924  0.1370
 6610TIP3    H241466   1.461   2.212   8.697  0.3971  2.1351 -0.1561
 6611TIP3   OH241467   5.681   6.204   1.546 -0.5169 -0.5324 -0.6945
 6611TIP3    H141468   5.669   6.161   1.631  0.0134  0.1377 -0.2670
 6611TIP3    H241469   5.604   6.260   1.537  0.2253  0.6673  0.1417
 6612TIP3   OH241470   5.416   4.683   7.542 -0.4055  0.3465  0.4713
 6612TIP3    H141471   5.429   4.653   7.452 -0.3125  0.4051  0.4643
 6612TIP3    H241472   5.483   4.751   7.554 -0.4268  0.3486  0.5797
 6613TIP3   OH241473   3.252   1.796   8.712 -0.8314 -0.0076  0.0249
 6613TIP3    H141474   3.249   1.711   8.755  0.2650  0.1381  0.4112
 6613TIP3    H241475   3.338   1.832   8.735 -1.1275  1.0387 -0.4444
 6614TIP3   OH241476   1.894   1.956   2.286 -0.2473 -0.5007  0.2515
 6614TIP3    H141477   1.971   2.003   2.254 -0.1026 -1.2266 -0.4828
 6614TIP3    H241478   1.927   1.901   2.357 -0.3125  0.0340  0.7128
 6615TIP3   OH241479   1.927   3.261   1.843  0.0120  0.2845 -1.0556
 6615TIP3    H141480   1.887   3.302   1.920 -0.2709 -2.5133  0.3853
 6615TIP3    H241481   2.020   3.283   1.851 -0.3575  2.1258 -1.3589
 6616TIP3   OH241482   5.812   1.065   3.440 -0.4311 -0.1507  0.0842
 6616TIP3    H141483   5.791   1.103   3.525 -0.9447  0.1859 -0.1851
 6616TIP3    H241484   5.783   0.974   3.447  2.4497 -1.1018  1.3553
 6617TIP3   OH241485   2.516   2.341   8.343 -0.3674  0.4651 -0.4531
 6617TIP3    H141486   2.438   2.393   8.362  0.0972  1.5345 -1.3716
 6617TIP3    H241487   2.540   2.365   8.254  0.4956 -0.5351 -0.5167
 6618TIP3   OH241488   0.181   0.989   7.897  0.1036  0.3436 -0.5313
 6618TIP3    H141489   0.137   1.073   7.880 -1.1063 -0.1561  0.0058
 6618TIP3    H241490   0.196   0.952   7.810  1.9097  1.6930 -0.8638
 6619TIP3   OH241491   4.789   1.038   8.135  0.3433  0.1718 -0.4292
 6619TIP3    H141492   4.830   0.978   8.072  1.5808  1.2846 -0.7312
 6619TIP3    H241493   4.697   1.041   8.109 -0.9559 -4.9150  2.1812
 6620TIP3   OH241494   6.039   5.820   8.451  0.4251  0.5242 -0.3166
 6620TIP3    H141495   6.025   5.894   8.510  0.2750  1.2824 -1.2914
 6620TIP3    H241496   6.020   5.854   8.364 -1.2876 -1.1114 -0.6372
 6621TIP3   OH241497   1.808   1.806   1.623 -0.1770 -0.2950  0.0069
 6621TIP3    H141498   1.818   1.892   1.580 -0.8048  0.4943  1.3877
 6621TIP3    H241499   1.892   1.762   1.607 -0.5871 -0.3135 -2.5502
 6622TIP3   OH241500   2.040   3.990   2.567  0.6654  0.0286  0.4117
 6622TIP3    H141501   1.988   3.980   2.647  0.1686 -0.9268 -0.0169
 6622TIP3    H241502   1.986   4.046   2.510  0.8906  0.4708  0.6284
 6623TIP3   OH241503   3.597   4.394   0.526  0.0010 -0.4124  0.3098
 6623TIP3    H141504   3.623   4.485   0.517  0.9005 -0.7839 -1.0606
 6623TIP3    H241505   3.600   4.377   0.621  1.8699  0.3916  0.4222
 6624TIP3   OH241506   2.375   4.813   0.757  0.1182  0.2465  0.4603
 6624TIP3    H141507   2.449   4.826   0.697  0.3741  0.7366  0.8689
 6624TIP3    H241508   2.380   4.887   0.818 -0.8006  0.3604  0.4086
 6625TIP3   OH241509   2.492   2.225   3.148 -0.0477  0.3168  0.6867
 6625TIP3    H141510   2.501   2.171   3.227 -0.1522 -1.5809 -0.5521
 6625TIP3    H241511   2.442   2.171   3.087 -1.2328  2.3127 -0.2075
 6626TIP3   OH241512   1.837   4.906   0.922 -0.4432  0.1375 -0.7599
 6626TIP3    H141513   1.764   4.862   0.964  0.7327  0.1003  1.4047
 6626TIP3    H241514   1.869   4.844   0.857 -1.5033 -0.3726 -0.8107
 6627TIP3   OH241515   1.789   4.964   7.132  0.4868  0.3515  0.6298
 6627TIP3    H141516   1.697   4.945   7.112  0.5502 -0.5398  1.1385
 6627TIP3    H241517   1.837   4.889   7.098  0.8603  0.0858  1.7026
 6628TIP3   OH241518   4.002   0.205   1.613  0.3177 -0.2852  0.3163
 6628TIP3    H141519   4.034   0.291   1.642 -2.9624  0.1549  3.3696
 6628TIP3    H241520   4.038   0.195   1.525  2.8975  3.0344  0.7555
 6629TIP3   OH241521   1.750   5.451   7.195  0.1173 -0.4217  0.0834
 6629TIP3    H141522   1.793   5.366   7.201  0.9950  0.0737  1.2447
 6629TIP3    H241523   1.769   5.493   7.279 -2.4549 -0.0756  0.5652
 6630TIP3   OH241524   6.752   6.810   7.624 -0.5092  0.3612 -0.2442
 6630TIP3    H141525   6.792   6.766   7.699 -0.3123 -0.4343 -0.7940
 6630TIP3    H241526   6.825   6.825   7.564 -0.9068 -0.5860 -1.0101
 6631TIP3   OH241527   3.696   2.605   2.961  0.4322 -0.2629 -0.0315
 6631TIP3    H141528   3.613   2.608   3.008 -0.2622  0.5529 -1.2593
 6631TIP3    H241529   3.741   2.527   2.996 -0.9663 -0.8898  0.4352
 6632TIP3   OH241530   1.335   5.604   2.450 -0.2178 -0.1369 -0.7403
 6632TIP3    H141531   1.402   5.542   2.479  0.0605  0.8767  0.9314
 6632TIP3    H241532   1.258   5.582   2.503 -0.3023  0.5365 -0.5769
 6633TIP3   OH241533   2.408   4.073   2.204 -0.6286  0.0896  0.3980
 6633TIP3    H141534   2.314   4.087   2.219 -0.4956  1.5983  0.0635
 6633TIP3    H241535   2.435   4.016   2.276 -1.7506 -0.1540  0.6542
 6634TIP3   OH241536   3.328   1.061   7.590 -0.2719  0.4474  0.0303
 6634TIP3    H141537   3.343   1.130   7.526  0.7955  0.5150  0.3396
 6634TIP3    H241538   3.401   1.068   7.650  0.1224 -1.2749 -0.2115
 6635TIP3   OH241539   0.890   3.591   8.324  0.0514 -0.0512  0.0185
 6635TIP3    H141540   0.916   3.590   8.415 -1.4704 -1.1369  0.4831
 6635TIP3    H241541   0.917   3.506   8.289  0.6942  0.3866 -0.5660
 6636TIP3   OH241542   5.771   4.563   8.260  0.3012 -0.9044  0.6477
 6636TIP3    H141543   5.700   4.627   8.254  2.5306  1.5593 -2.2767
 6636TIP3    H241544   5.816   4.585   8.341  1.5233  1.9836 -0.6980
 6637TIP3   OH241545   3.882   3.669   0.940  0.2756  0.1162 -0.3643
 6637TIP3    H141546   3.898   3.748   0.888 -0.9980  0.2060 -0.6476
 6637TIP3    H241547   3.787   3.661   0.943  0.3340 -0.4086  1.1767
 6638TIP3   OH241548   2.132   4.407   1.067 -0.2231  0.0986  0.0346
 6638TIP3    H141549   2.174   4.493   1.058  1.8005 -0.7629  0.6107
 6638TIP3    H241550   2.158   4.378   1.155  0.9033 -1.9576 -0.9181
 6639TIP3   OH241551   2.798   4.506   1.301 -0.4425  0.8415 -0.0442
 6639TIP3    H141552   2.767   4.540   1.217  1.0694 -0.0196 -1.0062
 6639TIP3    H241553   2.875   4.561   1.321 -1.0820  1.3618  1.0468
 6640TIP3   OH241554   6.069   6.249   1.976 -0.1497  0.1372 -0.3760
 6640TIP3    H141555   5.995   6.308   1.959  0.3560  0.8818 -0.0524
 6640TIP3    H241556   6.038   6.163   1.949 -0.5730  0.6997 -1.7552
 6641TIP3   OH241557   3.656   5.119   2.641  0.5200  0.0742 -0.4359
 6641TIP3    H141558   3.745   5.126   2.677  0.8858  1.8953 -1.5286
 6641TIP3    H241559   3.667   5.140   2.548 -0.8845 -1.0215 -0.8687
 6642TIP3   OH241560   1.458   0.751   8.215  0.1632  0.1600  0.2332
 6642TIP3    H141561   1.426   0.694   8.145  1.7623  0.7571 -1.0580
 6642TIP3    H241562   1.487   0.692   8.284  0.3441 -0.5318 -0.4249
 6643TIP3   OH241563   0.107   5.101   1.169 -0.2987  0.2563  0.8189
 6643TIP3    H141564   0.143   5.161   1.105  1.5551  0.7981  2.2845
 6643TIP3    H241565   0.163   5.024   1.164  0.2512  0.5481  2.1885
 6644TIP3   OH241566   4.656   4.797   8.756 -0.1987 -0.0731  0.1526
 6644TIP3    H141567   4.573   4.778   8.800 -0.4848  1.1964  0.1942
 6644TIP3    H241568   4.718   4.735   8.795 -1.4156 -2.0884 -0.9630
 6645TIP3   OH241569   2.524   4.753   1.022  0.2796 -0.3048  0.3803
 6645TIP3    H141570   2.496   4.841   1.000 -1.4382 -0.2367  2.5191
 6645TIP3    H241571   2.610   4.764   1.062 -0.5488  0.6339  1.9928
 6646TIP3   OH241572   4.547   6.557   1.907  0.0180  0.0415 -0.5903
 6646TIP3    H141573   4.545   6.646   1.874  1.7589  0.5893  0.6286
 6646TIP3    H241574   4.457   6.540   1.937 -0.1568  1.6504 -0.1419
 6647TIP3   OH241575   2.946   4.408   0.058 -0.3045 -0.0794 -0.8592
 6647TIP3    H141576   3.017   4.398   0.121 -0.4857 -2.5258 -0.9502
 6647TIP3    H241577   2.867   4.409   0.111 -0.3238  0.4505 -0.8949
 6648TIP3   OH241578   5.538   4.486   8.479 -0.4472  0.5116 -0.4593
 6648TIP3    H141579   5.483   4.435   8.539  1.2714 -1.8453 -0.7257
 6648TIP3    H241580   5.543   4.573   8.519 -0.3845 -0.6075  2.1474
 6649TIP3   OH241581   5.146   6.208   2.934 -0.5263 -0.1182  0.2278
 6649TIP3    H141582   5.070   6.219   2.877 -1.0668  0.1926  0.9938
 6649TIP3    H241583   5.217   6.254   2.889 -1.7166  3.0214  1.3404
 6650TIP3   OH241584   4.036   6.626   2.221  0.7897  0.3177 -0.7114
 6650TIP3    H141585   4.109   6.673   2.263  0.1830 -1.0807  2.1460
 6650TIP3    H241586   4.073   6.540   2.200 -0.0616 -0.6333  1.3359
 6651TIP3   OH241587   0.922   4.576   7.939  0.3977 -0.6576 -0.2754
 6651TIP3    H141588   0.933   4.493   7.892  1.6957  0.1495 -1.4791
 6651TIP3    H241589   1.011   4.600   7.966  0.2353  0.9295 -1.0248
 6652TIP3   OH241590   2.675   3.131   8.669  0.2939  0.1942  0.4197
 6652TIP3    H141591   2.664   3.036   8.664 -0.7218  0.3245  0.0715
 6652TIP3    H241592   2.649   3.163   8.583  0.0946  0.8388  0.7166
 6653TIP3   OH241593   2.876   3.463   0.418  0.5264 -0.1820 -0.0377
 6653TIP3    H141594   2.915   3.396   0.361 -1.7432 -0.3946 -1.4713
 6653TIP3    H241595   2.845   3.415   0.494  2.0855 -0.1584  0.6478
 6654TIP3   OH241596   2.058   5.147   2.663 -0.2055  0.4219 -0.0730
 6654TIP3    H141597   1.994   5.145   2.592 -0.6244 -0.1966  0.3189
 6654TIP3    H241598   2.143   5.158   2.619 -0.6263  1.9296 -0.5584
 6655TIP3   OH241599   4.003   0.484   1.084  0.2353 -0.2392  0.5080
 6655TIP3    H141600   3.976   0.543   1.154 -1.6373 -0.3695 -0.0514
 6655TIP3    H241601   4.049   0.413   1.128 -0.3700 -0.0101  1.5433
 6656TIP3   OH241602   4.929   6.379   3.519  0.7787  0.0594 -0.4136
 6656TIP3    H141603   4.976   6.446   3.469  1.7428 -0.8137 -0.6882
 6656TIP3    H241604   4.837   6.408   3.517  1.4317  2.6311  1.4605
 6657TIP3   OH241605   3.094   5.162   8.089 -0.4808 -1.0407 -0.1675
 6657TIP3    H141606   3.060   5.138   8.003 -2.9174 -0.2324  0.4704
 6657TIP3    H241607   3.112   5.079   8.133  3.5515 -1.5277 -2.3103
 6658TIP3   OH241608   2.872   6.291   2.014  0.3480  0.3537 -0.3594
 6658TIP3    H141609   2.920   6.213   2.042 -0.1124 -0.4159 -1.6281
 6658TIP3    H241610   2.849   6.336   2.096  2.3149  0.2161  0.3134
 6659TIP3   OH241611   1.303   1.032   2.488  0.1688  0.8888  0.1574
 6659TIP3    H141612   1.373   0.967   2.485  0.0157  0.7542 -2.8440
 6659TIP3    H241613   1.340   1.104   2.540  1.5673 -0.1831  0.7219
 6660TIP3   OH241614   1.060   6.217   8.672  0.6120  0.1942  0.5706
 6660TIP3    H141615   1.006   6.228   8.593  0.1528 -0.3402  0.8072
 6660TIP3    H241616   1.046   6.127   8.699 -0.1856  0.7070  1.9641
 6661TIP3   OH241617   4.325   4.959   1.138 -0.0219  0.3723  0.2870
 6661TIP3    H141618   4.345   4.989   1.049 -0.3842 -1.0255 -0.3026
 6661TIP3    H241619   4.256   5.018   1.168 -1.1367 -0.1951 -1.0575
 6662TIP3   OH241620   4.668   1.381   0.304  0.0498  0.0280 -0.7310
 6662TIP3    H141621   4.595   1.322   0.324  0.8267 -0.2126  1.7837
 6662TIP3    H241622   4.627   1.458   0.266 -1.3644 -0.7171 -0.7732
 6663TIP3   OH241623   4.597   0.067   0.825 -0.5801  0.2880 -0.2835
 6663TIP3    H141624   4.528   0.016   0.867 -0.7553  0.6806 -0.0868
 6663TIP3    H241625   4.563   0.087   0.738 -0.7455  0.5420 -0.1610
 6664TIP3   OH241626   5.540   6.066   0.282  0.1041 -0.3035  0.2704
 6664TIP3    H141627   5.621   6.093   0.325  0.6739 -0.7284 -0.5023
 6664TIP3    H241628   5.562   6.064   0.189 -0.5195 -1.3306  0.1259
 6665TIP3   OH241629   2.770   3.894   2.774  0.3354 -0.0022 -0.4097
 6665TIP3    H141630   2.862   3.868   2.764  0.8006  1.6394 -0.7290
 6665TIP3    H241631   2.721   3.812   2.772  1.7982 -0.9109 -0.1882
 6666TIP3   OH241632   6.135   1.579   7.953 -0.4821  0.1940 -0.0518
 6666TIP3    H141633   6.121   1.672   7.969 -4.3816  0.1681 -2.1578
 6666TIP3    H241634   6.162   1.574   7.861 -0.2995 -0.7729  0.0464
 6667TIP3   OH241635   1.099   3.910   8.714  0.5687  0.5750 -0.0796
 6667TIP3    H141636   1.159   3.842   8.746 -0.2477 -0.2210 -0.1940
 6667TIP3    H241637   1.149   3.991   8.719  1.7076 -0.0958 -0.3285
 6668TIP3   OH241638   5.560   0.184   0.365  0.1383 -0.6772 -0.5267
 6668TIP3    H141639   5.575   0.143   0.450 -2.0846  0.0269  0.2624
 6668TIP3    H241640   5.465   0.197   0.360  0.4613  1.8982 -1.8671
 6669TIP3   OH241641   5.725   1.540   1.007 -0.3290  0.0915  0.1607
 6669TIP3    H141642   5.729   1.513   1.099  0.6159 -0.4346 -0.0128
 6669TIP3    H241643   5.795   1.489   0.965  1.4463  2.6863 -0.2442
 6670TIP3   OH241644   6.119   6.764   2.746 -0.6465 -0.6467 -0.4637
 6670TIP3    H141645   6.056   6.793   2.680 -0.0678  0.9073 -0.3744
 6670TIP3    H241646   6.084   6.797   2.828 -1.0894 -2.1188 -0.0377
 6671TIP3   OH241647   4.073   6.539   2.810 -0.7140  0.2614 -0.5687
 6671TIP3    H141648   4.120   6.578   2.883 -0.2506 -0.9561 -0.1834
 6671TIP3    H241649   3.982   6.534   2.840 -0.1204 -2.7163  1.1205
 6672TIP3   OH241650   2.232   5.121   1.533  0.0762 -0.0083 -0.2329
 6672TIP3    H141651   2.317   5.158   1.555 -0.1537 -0.9854  2.6710
 6672TIP3    H241652   2.253   5.038   1.490  0.5819  0.1990 -0.3932
 6673TIP3   OH241653   0.730   1.893   1.615 -0.1701  0.0230 -0.0029
 6673TIP3    H141654   0.727   1.981   1.651  0.0577  0.4176 -0.9249
 6673TIP3    H241655   0.677   1.841   1.675 -0.5901  0.8549  0.3631
 6674TIP3   OH241656   5.731   2.834   3.433 -0.0448  0.2480 -0.7730
 6674TIP3    H141657   5.700   2.923   3.450 -2.3245 -0.3073 -1.5403
 6674TIP3    H241658   5.790   2.843   3.358 -0.3983  1.0976 -0.9638
 6675TIP3   OH241659   5.635   3.143   1.116  0.2313 -0.5481 -0.2607
 6675TIP3    H141660   5.613   3.218   1.061 -1.2242 -0.4282  0.4327
 6675TIP3    H241661   5.550   3.109   1.145  0.9337 -0.3170  2.2799
 6676TIP3   OH241662   4.256   4.729   1.904  0.5543  0.8273 -0.5681
 6676TIP3    H141663   4.311   4.679   1.965  0.1760  1.0686 -0.0173
 6676TIP3    H241664   4.305   4.810   1.889  1.4465  0.0719 -1.9239
 6677TIP3   OH241665   2.239   3.773   0.056 -0.1882  0.7913  0.1350
 6677TIP3    H141666   2.253   3.834  -0.016  0.5950 -0.9337 -1.2459
 6677TIP3    H241667   2.326   3.757   0.091  0.1774 -2.0624 -1.7627
 6678TIP3   OH241668   2.433   2.047   2.646  0.3985 -0.6038  0.2837
 6678TIP3    H141669   2.447   2.134   2.609 -1.4626 -0.7487 -0.8578
 6678TIP3    H241670   2.365   2.059   2.712  1.0518 -0.9903  1.0401
 6679TIP3   OH241671   0.318   6.619   7.245  0.3910  0.5207 -0.4339
 6679TIP3    H141672   0.224   6.636   7.250 -0.2299 -2.0298 -1.9599
 6679TIP3    H241673   0.326   6.524   7.242  3.2085  0.5355  1.7869
 6680TIP3   OH241674   5.013   5.232   3.103 -0.2499  0.2794 -0.6824
 6680TIP3    H141675   5.099   5.273   3.109  0.4732 -1.1473 -0.9081
 6680TIP3    H241676   4.980   5.231   3.193  0.7059 -0.6490 -0.3156
 6681TIP3   OH241677   0.397   1.207   1.619  0.0742 -0.5260  0.9998
 6681TIP3    H141678   0.343   1.209   1.698 -1.7265  2.1586 -0.1582
 6681TIP3    H241679   0.435   1.295   1.614 -0.1322 -0.5024 -1.2244
 6682TIP3   OH241680   1.906   5.176   0.887  0.2254  0.0616 -0.1164
 6682TIP3    H141681   1.984   5.133   0.852  2.3445 -0.1052  4.1896
 6682TIP3    H241682   1.857   5.105   0.929 -0.7970  0.6025 -0.3669
 6683TIP3   OH241683   0.048   3.418   8.117  0.7169 -0.0827 -0.6932
 6683TIP3    H141684   0.043   3.513   8.110  1.4662 -0.0650 -0.9921
 6683TIP3    H241685  -0.023   3.395   8.178 -0.4292  0.5291 -1.7497
 6684TIP3   OH241686   3.876   4.078   1.888 -0.1205 -0.0627  0.2750
 6684TIP3    H141687   3.947   4.135   1.859  0.7746 -1.2185  0.1103
 6684TIP3    H241688   3.803   4.101   1.831  0.3466  0.6240 -0.0664
 6685TIP3   OH241689   2.531   3.312   2.882 -0.0738  0.0831  0.3952
 6685TIP3    H141690   2.546   3.407   2.875 -0.6774  0.4533  3.1629
 6685TIP3    H241691   2.449   3.304   2.930  0.0093 -1.8752  0.2855
 6686TIP3   OH241692   0.591   6.507   2.288 -0.1410 -0.3000 -0.4971
 6686TIP3    H141693   0.663   6.451   2.317 -0.4876 -0.2320  0.5292
 6686TIP3    H241694   0.615   6.594   2.319 -0.9111 -0.3680  0.3425
 6687TIP3   OH241695   0.365   4.578   7.455 -0.1153 -0.0194 -0.9403
 6687TIP3    H141696   0.282   4.625   7.450  1.1338  2.2204 -2.0511
 6687TIP3    H241697   0.377   4.541   7.368 -0.1014 -0.6035 -0.6917
 6688TIP3   OH241698   6.796   5.407   0.750 -0.0602  0.1398  0.9498
 6688TIP3    H141699   6.710   5.449   0.742 -0.7287 -1.4595 -1.8207
 6688TIP3    H241700   6.779   5.315   0.730  2.5282  0.1471 -2.0398
 6689TIP3   OH241701   0.704   3.926   3.409  0.2057  0.5552  0.1709
 6689TIP3    H141702   0.779   3.983   3.430 -0.4631  1.3533  0.4581
 6689TIP3    H241703   0.633   3.987   3.390 -0.4194 -0.1949  0.0667
 6690TIP3   OH241704   6.286   1.688   1.530  0.1599  0.0667 -0.2929
 6690TIP3    H141705   6.197   1.660   1.550  0.3973 -0.9648 -0.6292
 6690TIP3    H241706   6.278   1.782   1.515 -1.0569 -0.1593 -1.2547
 6691TIP3   OH241707   1.835   6.005   0.867 -0.8463  0.4356 -0.1303
 6691TIP3    H141708   1.878   5.920   0.860  0.7277  1.2685 -1.3887
 6691TIP3    H241709   1.742   5.984   0.878 -0.6294 -1.4521 -1.4066
 6692TIP3   OH241710   0.078   2.933   1.326  0.3993 -0.1017  0.0698
 6692TIP3    H141711   0.132   2.854   1.337  1.2531  0.1571 -1.9412
 6692TIP3    H241712   0.106   2.991   1.397  0.9944 -0.9266  0.5296
 6693TIP3   OH241713   1.380   6.790   0.111 -0.0543 -0.0003 -0.5161
 6693TIP3    H141714   1.369   6.883   0.092  0.4422 -0.1799 -1.7502
 6693TIP3    H241715   1.347   6.780   0.200 -0.0890  1.3605 -0.3543
 6694TIP3   OH241716   3.869   6.223   3.063 -0.2750  0.3920  0.0658
 6694TIP3    H141717   3.807   6.192   3.128  0.7290  0.0281  0.8754
 6694TIP3    H241718   3.894   6.310   3.093  1.2740 -0.3304  1.0034
 6695TIP3   OH241719   4.571   2.382   8.175  0.0534 -0.4067 -0.0618
 6695TIP3    H141720   4.489   2.413   8.213 -0.4758  2.0343 -2.8436
 6695TIP3    H241721   4.560   2.288   8.166 -2.2234 -0.2080  0.2082
 6696TIP3   OH241722   0.094   6.579   8.520 -0.1251 -0.1149 -0.2814
 6696TIP3    H141723   0.075   6.670   8.498  1.9665  0.1143 -1.4437
 6696TIP3    H241724   0.188   6.571   8.505 -0.2914 -2.5082 -0.3242
 6697TIP3   OH241725   4.913   1.269   7.464 -0.4772 -0.3880 -0.1008
 6697TIP3    H141726   4.850   1.339   7.483 -0.1617 -0.3362  0.8150
 6697TIP3    H241727   4.888   1.198   7.523  1.2742  0.2211  1.5059
 6698TIP3   OH241728   1.867   1.160   1.932 -0.4647 -0.0012  0.4428
 6698TIP3    H141729   1.916   1.126   1.856 -1.9114  0.5006 -0.7562
 6698TIP3    H241730   1.933   1.204   1.985  0.6465 -0.6666 -0.3387
 6699TIP3   OH241731   2.363   0.974   8.226  0.3061  0.4552  0.0703
 6699TIP3    H141732   2.386   1.065   8.241  2.8288 -0.1143 -0.0407
 6699TIP3    H241733   2.415   0.925   8.290 -1.8155 -0.8893  0.8765
 6700TIP3   OH241734   6.765   1.719   8.459 -0.3801 -0.3566  0.3715
 6700TIP3    H141735   6.688   1.703   8.404  0.1335 -1.4934 -0.0654
 6700TIP3    H241736   6.737   1.785   8.522 -1.1401  0.6532 -0.9582
 6701TIP3   OH241737   0.945   5.656   1.500 -0.1241  0.0565 -0.6011
 6701TIP3    H141738   0.998   5.705   1.563 -0.8018 -1.7822  1.5582
 6701TIP3    H241739   0.883   5.720   1.465  0.2405  1.1652  0.6933
 6702TIP3   OH241740   4.931   0.745   1.575  0.2186  0.0273 -0.2242
 6702TIP3    H141741   4.971   0.669   1.533 -1.4277 -1.4461  0.7198
 6702TIP3    H241742   4.838   0.741   1.550  0.0354  1.5745  0.0770
 6703TIP3   OH241743   4.172   3.595   3.187  0.4127  0.4391  0.0051
 6703TIP3    H141744   4.228   3.623   3.115  0.7017  1.2663  0.5328
 6703TIP3    H241745   4.113   3.669   3.203 -1.2725 -0.6358 -0.9310
 6704TIP3   OH241746   5.449   5.979   0.723  0.4811 -0.4783  0.2845
 6704TIP3    H141747   5.467   6.048   0.787 -0.6976 -0.5255  0.6974
 6704TIP3    H241748   5.394   5.917   0.771  1.0725 -1.4279 -0.2505
 6705TIP3   OH241749   0.908   1.331   8.648  0.1013 -0.0115 -0.4536
 6705TIP3    H141750   0.841   1.367   8.707 -0.5541  0.1775 -1.2948
 6705TIP3    H241751   0.954   1.266   8.702  0.1382  0.8222  0.5409
 6706TIP3   OH241752   4.945   6.431   1.837 -0.6714  0.6026 -0.0561
 6706TIP3    H141753   4.893   6.438   1.917 -0.8143 -2.7637  0.2903
 6706TIP3    H241754   4.884   6.453   1.767 -1.7442 -0.3251  0.5452
 6707TIP3   OH241755   6.691   5.849   2.250 -0.5096 -0.3548  0.0795
 6707TIP3    H141756   6.755   5.884   2.313 -0.8332  0.0310  0.1998
 6707TIP3    H241757   6.745   5.813   2.179 -0.1649  0.9903 -0.3697
 6708TIP3   OH241758   3.426   5.266   0.190  0.6173 -0.3205 -0.4640
 6708TIP3    H141759   3.421   5.270   0.094 -0.1681 -0.3828 -0.4347
 6708TIP3    H241760   3.513   5.232   0.208  0.9403  0.1217 -1.1483
 6709TIP3   OH241761   5.434   2.004   0.697  0.4951 -0.7482  0.1949
 6709TIP3    H141762   5.509   2.050   0.659 -0.2393 -1.0591 -1.7489
 6709TIP3    H241763   5.380   2.074   0.734 -0.2044 -0.0145 -2.0000
 6710TIP3   OH241764   5.167   5.412   2.498  0.2265  0.3068  0.1266
 6710TIP3    H141765   5.193   5.433   2.588 -0.2937 -0.0992  0.3771
 6710TIP3    H241766   5.076   5.440   2.492 -0.4830 -1.7368  0.4642
 6711TIP3   OH241767   1.237   2.372   2.350 -0.2606  0.3917 -0.1143
 6711TIP3    H141768   1.144   2.351   2.341 -0.0647 -1.4086  1.4676
 6711TIP3    H241769   1.252   2.376   2.444  1.2382  0.8475 -0.3388
 6712TIP3   OH241770   2.426   4.320   1.886 -0.5908 -0.5191 -0.1967
 6712TIP3    H141771   2.413   4.226   1.899 -0.0533 -0.8859 -2.1325
 6712TIP3    H241772   2.338   4.354   1.868 -0.5370 -0.9973 -1.4299
 6713TIP3   OH241773   6.773   4.100   8.704 -0.2301 -0.3483 -0.0409
 6713TIP3    H141774   6.752   4.132   8.616  1.6312 -1.3968 -0.9323
 6713TIP3    H241775   6.746   4.171   8.763 -1.4805  0.3960 -1.4338
 6714TIP3   OH241776   3.918   4.976   0.452  0.8385  0.2333  0.2659
 6714TIP3    H141777   3.943   4.894   0.411  0.9887  0.7835 -0.7772
 6714TIP3    H241778   3.888   4.951   0.539 -1.3139 -1.2136 -0.7969
 6715TIP3   OH241779   0.776   2.126   2.808  0.8717  0.0679 -0.6076
 6715TIP3    H141780   0.801   2.089   2.723 -0.3031  0.4110 -1.1167
 6715TIP3    H241781   0.681   2.125   2.808  0.8528 -0.2311  0.8578
 6716TIP3   OH241782   3.273   2.142   1.240 -0.3277 -0.4802 -0.1200
 6716TIP3    H141783   3.334   2.084   1.286  0.6680 -0.2027 -1.0560
 6716TIP3    H241784   3.240   2.089   1.168 -0.0273 -0.1569 -0.5020
 6717TIP3   OH241785   0.256   5.449   2.310 -0.6205 -0.6101 -0.5478
 6717TIP3    H141786   0.296   5.531   2.340 -1.8609 -0.3937  0.5867
 6717TIP3    H241787   0.330   5.396   2.281  0.2165  0.9074 -1.3459
 6718TIP3   OH241788   5.290   0.987   1.888 -0.4578  0.7357  0.5413
 6718TIP3    H141789   5.208   1.019   1.849 -0.6339  1.0656  1.1650
 6718TIP3    H241790   5.262   0.943   1.969 -0.1337 -0.2610  0.1289
 6719TIP3   OH241791   6.231   3.070   1.727 -0.3426 -0.0498 -0.1257
 6719TIP3    H141792   6.156   3.010   1.722 -0.5157  0.2001 -0.5797
 6719TIP3    H241793   6.298   3.020   1.775 -1.2754  0.2403  1.5512
 6720TIP3   OH241794   5.470   0.782   2.497 -0.3819  0.1861  0.2734
 6720TIP3    H141795   5.402   0.848   2.485  1.3498  2.0399  0.0433
 6720TIP3    H241796   5.551   0.825   2.468  1.3591 -0.8988  3.0729
 6721TIP3   OH241797   6.339   4.859   0.628  0.6428  0.5301  0.3381
 6721TIP3    H141798   6.376   4.773   0.648 -0.1728  0.3838  1.3111
 6721TIP3    H241799   6.402   4.921   0.663  0.1042  0.2840  1.8108
 6722TIP3   OH241800   5.311   5.861   2.654 -0.2123  0.2780 -0.6222
 6722TIP3    H141801   5.382   5.850   2.590 -0.1538 -0.8821 -0.3832
 6722TIP3    H241802   5.356   5.877   2.737 -0.2350 -0.2137 -0.5145
 6723TIP3   OH241803   2.166   6.827   7.746  0.1712 -0.2155  0.0489
 6723TIP3    H141804   2.126   6.776   7.675 -0.9464 -0.5360  0.8739
 6723TIP3    H241805   2.104   6.818   7.819  1.5895 -0.4049  1.2689
 6724TIP3   OH241806   0.942   0.633   1.934 -0.1302 -0.0282  0.3008
 6724TIP3    H141807   0.868   0.640   1.994 -1.2557  0.3280 -1.0899
 6724TIP3    H241808   1.003   0.573   1.979 -1.0895 -0.0730  1.6117
 6725TIP3   OH241809   5.253   4.966   0.626  0.0054 -0.1655  0.5186
 6725TIP3    H141810   5.204   4.958   0.707  0.4516 -2.1724  0.6490
 6725TIP3    H241811   5.328   4.908   0.637  0.7960  0.5305 -0.8293
 6726TIP3   OH241812   6.314   0.745   7.649 -0.2759 -0.1420 -0.4496
 6726TIP3    H141813   6.293   0.656   7.678 -0.4717 -0.2640 -0.9531
 6726TIP3    H241814   6.283   0.749   7.559  2.9649 -0.7313 -1.7171
 6727TIP3   OH241815   5.376   3.074   8.247 -0.2580 -0.0927 -0.3824
 6727TIP3    H141816   5.333   3.056   8.330  1.2161 -1.0616  0.2061
 6727TIP3    H241817   5.390   3.169   8.248 -0.1690 -0.1061  0.5228
 6728TIP3   OH241818   2.521   0.984   7.706 -0.0175  0.0475  0.1299
 6728TIP3    H141819   2.519   0.889   7.709  1.0186 -0.0881 -1.7573
 6728TIP3    H241820   2.432   1.010   7.684 -0.0004 -0.5890 -0.7524
 6729TIP3   OH241821   3.215   2.795   2.326  0.2848 -0.0895 -0.5034
 6729TIP3    H141822   3.127   2.828   2.345  0.5760  0.2173  0.3654
 6729TIP3    H241823   3.210   2.762   2.236 -1.4377 -2.5675  0.4064
 6730TIP3   OH241824   3.873   3.349   8.382 -0.2535 -0.2883 -0.5978
 6730TIP3    H141825   3.787   3.392   8.382 -0.0245  0.1822 -0.1606
 6730TIP3    H241826   3.853   3.256   8.373 -0.9491 -0.4217  1.6814
 6731TIP3   OH241827   2.277   5.897   0.003 -0.0831  0.0086 -0.6034
 6731TIP3    H141828   2.278   5.885  -0.092  2.1783  0.9765 -0.7777
 6731TIP3    H241829   2.256   5.811   0.039  0.4549 -0.7103 -1.9616
 6732TIP3   OH241830   5.274   6.712   3.463 -0.7676 -0.2523  0.0005
 6732TIP3    H141831   5.319   6.748   3.539  0.2423 -2.7180  0.6655
 6732TIP3    H241832   5.290   6.775   3.393 -0.1604  1.1589  1.3608
 6733TIP3   OH241833   6.617   3.545   8.726  0.9719 -0.0283  0.2855
 6733TIP3    H141834   6.682   3.519   8.791  0.1171 -0.4009  1.0047
 6733TIP3    H241835   6.669   3.588   8.657  1.8500  0.8072  1.4181
 6734TIP3   OH241836   2.533   2.908   2.039  0.1811 -0.5865  0.3090
 6734TIP3    H141837   2.496   2.976   2.096 -0.0875 -0.4205 -0.0552
 6734TIP3    H241838   2.581   2.850   2.098  0.0177 -0.3420  0.6855
 6735TIP3   OH241839   3.683   4.094   7.714  0.3580 -0.1757  0.4301
 6735TIP3    H141840   3.694   4.189   7.710 -0.9164  0.2049  3.3631
 6735TIP3    H241841   3.631   4.072   7.636 -0.2319  1.6902  0.2582
 6736TIP3   OH241842   1.245   1.886   8.394  0.0696  0.0421  0.5347
 6736TIP3    H141843   1.230   1.962   8.338  0.2110  0.9048  1.6408
 6736TIP3    H241844   1.331   1.854   8.369  0.3856  0.7809  0.6690
 6737TIP3   OH241845   1.477   1.845   2.281 -0.8040  0.1582  0.0484
 6737TIP3    H141846   1.493   1.821   2.372  0.5476  1.9137  0.3302
 6737TIP3    H241847   1.381   1.847   2.273 -0.9895  1.8421  1.9915
 6738TIP3   OH241848   4.766   0.553   1.077 -0.1983 -0.1727 -0.0738
 6738TIP3    H141849   4.735   0.489   1.013 -0.0765 -1.7828  1.3879
 6738TIP3    H241850   4.861   0.539   1.081 -0.1623  0.1442  0.2201
 6739TIP3   OH241851   6.358   1.586   0.541 -0.7257 -0.3982  0.7358
 6739TIP3    H141852   6.345   1.494   0.520  0.3878 -0.7553  1.5282
 6739TIP3    H241853   6.419   1.618   0.474 -0.6735 -0.3752  0.7944
 6740TIP3   OH241854   5.468   3.059   0.884 -0.0540 -0.1780  0.3471
 6740TIP3    H141855   5.451   3.003   0.960 -0.8811 -0.9543 -0.3858
 6740TIP3    H241856   5.447   3.004   0.809  0.2184  0.7636 -0.4374
 6741TIP3   OH241857   3.191   2.857   1.784  0.1295 -0.0116  1.0356
 6741TIP3    H141858   3.102   2.864   1.751  0.0938 -1.8348  0.6367
 6741TIP3    H241859   3.242   2.914   1.727 -0.6815  0.6716  0.9661
 6742TIP3   OH241860   5.756   4.569   1.240 -0.4539  0.0368 -0.3486
 6742TIP3    H141861   5.766   4.654   1.197  0.6073 -0.5859 -1.3544
 6742TIP3    H241862   5.727   4.591   1.329  0.8869  1.5032 -0.2388
 6743TIP3   OH241863   1.868   1.140   0.076  0.1172  0.1503  0.1061
 6743TIP3    H141864   1.852   1.065   0.133  0.9456 -0.7507 -0.8222
 6743TIP3    H241865   1.960   1.162   0.090 -0.0624  0.8663  0.2123
 6744TIP3   OH241866   6.375   2.773   1.265 -0.2895 -0.1127 -0.2420
 6744TIP3    H141867   6.339   2.694   1.225  1.0821 -2.3262  2.4797
 6744TIP3    H241868   6.469   2.769   1.246 -0.1970  0.8805 -0.0662
 6745TIP3   OH241869   3.304   4.110   0.532  0.5505  0.0449 -0.9010
 6745TIP3    H141870   3.262   4.064   0.605 -0.9354  0.4457 -1.4578
 6745TIP3    H241871   3.299   4.202   0.556  1.8167  0.0574 -0.6421
 6746TIP3   OH241872   5.907   4.068   8.155 -0.7498  0.0782 -0.4048
 6746TIP3    H141873   5.991   4.074   8.109  0.5076 -1.1003  1.5830
 6746TIP3    H241874   5.882   4.159   8.170  0.9643  0.4865  0.2594
 6747TIP3   OH241875   5.456   3.262   1.773 -0.4800  0.9696  0.0935
 6747TIP3    H141876   5.509   3.276   1.851 -1.7425 -0.2864  1.2343
 6747TIP3    H241877   5.423   3.349   1.750 -2.2141  1.0569  2.5793
 6748TIP3   OH241878   2.317   2.514   2.017 -0.4393 -0.0341 -0.5072
 6748TIP3    H141879   2.298   2.587   1.957  1.1160 -0.8044 -2.0247
 6748TIP3    H241880   2.312   2.436   1.962  1.7302 -0.7094  0.1488
 6749TIP3   OH241881   5.348   2.132   8.253 -0.2193 -0.2289 -0.2456
 6749TIP3    H141882   5.402   2.204   8.219 -1.4578  0.6333 -0.4728
 6749TIP3    H241883   5.259   2.168   8.254 -0.6406 -1.2449  1.1221
 6750TIP3   OH241884   5.782   6.472   2.515 -0.1479  0.7209  0.1223
 6750TIP3    H141885   5.857   6.498   2.461 -0.0975  1.0042  0.3284
 6750TIP3    H241886   5.765   6.548   2.570 -1.7719  1.3844 -1.2212
 6751TIP3   OH241887   5.658   4.801   2.616 -0.0729 -0.2885 -0.2245
 6751TIP3    H141888   5.655   4.734   2.684  3.0487 -0.1743  0.1670
 6751TIP3    H241889   5.604   4.873   2.650  2.0238  0.0975  2.6086
 6752TIP3   OH241890   3.878   2.669   2.079  0.2094  0.5043  0.4170
 6752TIP3    H141891   3.930   2.749   2.089 -1.3072  2.0987 -3.0280
 6752TIP3    H241892   3.943   2.601   2.065  1.4905  1.9498 -1.0377
 6753TIP3   OH241893   4.738   5.684   1.335  0.3861  1.0241  0.2755
 6753TIP3    H141894   4.788   5.735   1.271  1.2707 -0.7406 -0.4897
 6753TIP3    H241895   4.699   5.750   1.393  4.3771  2.5556  1.5479
 6754TIP3   OH241896   3.705   4.220   1.707  0.3307 -0.4140  0.4871
 6754TIP3    H141897   3.758   4.224   1.628  2.0938 -0.6059  1.5883
 6754TIP3    H241898   3.651   4.298   1.704  0.7436 -0.1511 -0.6447
 6755TIP3   OH241899   3.540   4.078   8.778  0.3742  0.8182  1.0931
 6755TIP3    H141900   3.593   4.140   8.728 -0.5390  0.2365 -0.6837
 6755TIP3    H241901   3.526   4.121   8.862  1.1387  2.2819  0.5100
 6756TIP3   OH241902   5.975   6.201   1.020 -0.0869 -0.4946 -0.2725
 6756TIP3    H141903   5.904   6.138   1.017 -0.2133 -0.5380  2.0386
 6756TIP3    H241904   6.021   6.182   1.102 -0.0052  2.2484  0.4202
 6757TIP3   OH241905   3.789   5.999   3.299 -0.3054  0.3043 -0.2023
 6757TIP3    H141906   3.837   5.921   3.271 -0.5503  0.0765  0.0123
 6757TIP3    H241907   3.755   5.977   3.386 -4.0132 -0.9930 -1.7841
 6758TIP3   OH241908   2.271   1.415   7.029 -0.0637 -0.3275  0.5844
 6758TIP3    H141909   2.281   1.322   7.012 -0.6077 -0.0009 -1.9372
 6758TIP3    H241910   2.360   1.448   7.039  0.1115 -1.1546  1.8006
 6759TIP3   OH241911   3.693   5.241   2.358  0.5547  0.2370  0.5598
 6759TIP3    H141912   3.623   5.306   2.373 -0.1227 -0.4871  0.6074
 6759TIP3    H241913   3.757   5.288   2.305  0.7478  1.3794  1.7533
 6760TIP3   OH241914   6.204   3.199   2.947  0.2256  0.0036 -0.7047
 6760TIP3    H141915   6.256   3.216   3.026  1.1148 -1.0300 -1.0442
 6760TIP3    H241916   6.214   3.278   2.894 -1.2455  1.1639  0.6328
 6761TIP3   OH241917   2.491   5.874   7.811 -0.1654  0.3045  0.6508
 6761TIP3    H141918   2.571   5.917   7.842 -1.7691  2.9349  1.3849
 6761TIP3    H241919   2.449   5.938   7.755 -0.1785 -2.2855 -2.6217
 6762TIP3   OH241920   3.266   2.277   8.379  0.1357 -0.6220  0.7197
 6762TIP3    H141921   3.257   2.209   8.312  0.3592 -0.3990  0.4584
 6762TIP3    H241922   3.263   2.230   8.462  1.2540 -1.0768  0.5260
 6763TIP3   OH241923   3.735   3.047   2.276 -0.0365  0.1899 -0.0786
 6763TIP3    H141924   3.721   3.034   2.370 -0.4134  0.6880 -0.0605
 6763TIP3    H241925   3.807   3.110   2.271  0.7181 -0.6636 -0.1435
 6764TIP3   OH241926   2.224   0.211   7.689  0.3821 -0.3652 -0.4466
 6764TIP3    H141927   2.145   0.231   7.638 -0.8922 -0.9015  1.2378
 6764TIP3    H241928   2.221   0.116   7.701  0.6465 -0.2497  0.6047
 6765TIP3   OH241929   1.399   1.884   0.063  0.6198  0.3912 -0.3251
 6765TIP3    H141930   1.386   1.916   0.152 -0.0270  1.8598 -0.8954
 6765TIP3    H241931   1.313   1.852   0.036  0.8554 -0.2179 -0.3705
 6766TIP3   OH241932   4.904   1.853   3.224  0.1870  0.2334  0.4698
 6766TIP3    H141933   4.995   1.884   3.223 -0.6973  3.1340 -0.7699
 6766TIP3    H241934   4.876   1.867   3.315  1.0390 -1.0573  0.9628
 6767TIP3   OH241935   6.758   1.443   0.798  0.3834 -0.6561 -0.1039
 6767TIP3    H141936   6.828   1.380   0.814  0.2690 -0.6445  0.4680
 6767TIP3    H241937   6.740   1.481   0.884 -0.7779 -1.1365 -0.1109
 6768TIP3   OH241938   3.534   6.176   2.722 -0.3171 -0.2374  0.1269
 6768TIP3    H141939   3.585   6.256   2.718 -0.6879 -0.0416 -1.3159
 6768TIP3    H241940   3.450   6.202   2.761  0.5719 -0.5331  2.3677
 6769TIP3   OH241941   0.601   0.362   2.299  0.1725 -0.1769 -0.1409
 6769TIP3    H141942   0.624   0.445   2.340 -3.2860  0.6211  0.5277
 6769TIP3    H241943   0.597   0.300   2.371 -1.2340  0.1088  0.0637
 6770TIP3   OH241944   1.262   1.408   7.728 -0.2849  0.0771  0.6115
 6770TIP3    H141945   1.348   1.385   7.693 -0.1666 -0.1597  1.0564
 6770TIP3    H241946   1.265   1.504   7.738 -0.5866  0.2431 -0.7177
 6771TIP3   OH241947   5.091   6.222   7.348 -0.4712  0.1921  0.3516
 6771TIP3    H141948   5.163   6.254   7.294 -1.7766  1.3838 -0.7673
 6771TIP3    H241949   5.070   6.137   7.310  0.9366 -0.6315  1.3129
 6772TIP3   OH241950   2.434   1.443   1.812  0.3064 -0.4887  0.4862
 6772TIP3    H141951   2.414   1.493   1.733  1.6282  1.3848  1.2448
 6772TIP3    H241952   2.350   1.429   1.855 -0.2822 -0.4814 -0.6411
 6773TIP3   OH241953   6.349   1.556   0.884 -0.6458  0.0319  0.3486
 6773TIP3    H141954   6.258   1.576   0.908 -0.4975  0.0391  0.9180
 6773TIP3    H241955   6.401   1.623   0.929 -0.4494  0.8727 -1.0731
 6774TIP3   OH241956   6.343   1.093   8.085  0.2826 -0.5118  0.8080
 6774TIP3    H141957   6.338   1.015   8.140 -0.6315 -0.5046  0.7486
 6774TIP3    H241958   6.277   1.152   8.121 -2.1897 -1.4703 -1.7610
 6775TIP3   OH241959   0.345   5.159   8.477 -0.0521  0.3031  0.1164
 6775TIP3    H141960   0.278   5.209   8.430 -0.1035  1.4375  1.3200
 6775TIP3    H241961   0.424   5.170   8.425 -0.8056 -1.2133 -1.4272
 6776TIP3   OH241962   5.450   2.708   7.790  0.2306  0.2789 -0.3835
 6776TIP3    H141963   5.444   2.803   7.801 -0.6204  0.1016  0.9323
 6776TIP3    H241964   5.395   2.689   7.715  0.7873  0.8615 -0.9585
 6777TIP3   OH241965   6.253   4.867   2.025 -0.5201  0.9638 -0.3719
 6777TIP3    H141966   6.230   4.820   1.946 -2.5504  0.3060  0.5498
 6777TIP3    H241967   6.198   4.829   2.093  0.8500  1.7886  1.2942
 6778TIP3   OH241968   4.832   4.318   8.038 -0.0862  0.0104  0.0293
 6778TIP3    H141969   4.912   4.303   7.987  0.4556  3.0103 -0.1751
 6778TIP3    H241970   4.761   4.287   7.982  0.7541 -0.3052 -0.8896
 6779TIP3   OH241971   1.112   5.562   0.752  0.1425 -0.3552  0.4346
 6779TIP3    H141972   1.165   5.628   0.798  1.0287  0.2997 -1.4482
 6779TIP3    H241973   1.022   5.594   0.760  0.1518 -0.7093  2.4062
 6780TIP3   OH241974   2.547   6.727   1.732  0.3863 -0.7240  0.5322
 6780TIP3    H141975   2.598   6.683   1.800  1.9465 -1.7913 -1.2261
 6780TIP3    H241976   2.611   6.778   1.683 -0.9720  1.4122  0.8436
 6781TIP3   OH241977   5.580   0.554   1.482 -0.0064  0.2771 -0.0546
 6781TIP3    H141978   5.528   0.495   1.536  1.1459 -1.4736 -0.7457
 6781TIP3    H241979   5.567   0.641   1.521 -2.3300 -0.2847  0.5710
 6782TIP3   OH241980   6.385   4.104   0.413  0.1590  0.0044  0.6910
 6782TIP3    H141981   6.361   4.012   0.425  0.2867  0.0405  1.2751
 6782TIP3    H241982   6.419   4.109   0.324 -0.3642 -0.4013  0.4644
 6783TIP3   OH241983   4.800   3.070   7.281 -0.0840 -0.2114 -0.2356
 6783TIP3    H141984   4.794   2.999   7.217 -1.0819  0.2550 -0.6807
 6783TIP3    H241985   4.893   3.075   7.302  0.4307  0.2297 -2.3538
 6784TIP3   OH241986   4.333   2.438   8.311 -0.5669  0.8974 -0.5240
 6784TIP3    H141987   4.302   2.513   8.363  0.6845  1.5715 -0.7310
 6784TIP3    H241988   4.318   2.362   8.369  1.7477  1.7328  1.3164
 6785TIP3   OH241989   1.874   2.323   8.211  0.3661  0.4127  0.3405
 6785TIP3    H141990   1.781   2.304   8.220 -0.2023  2.3355 -0.9815
 6785TIP3    H241991   1.912   2.297   8.295 -1.2477 -0.9255  0.6964
 6786TIP3   OH241992   3.407   6.814   0.271 -0.2019  0.4735 -0.0124
 6786TIP3    H141993   3.440   6.738   0.319  0.3883 -1.2725 -2.9740
 6786TIP3    H241994   3.313   6.814   0.287 -0.1861 -0.8058  0.1320
 6787TIP3   OH241995   5.399   6.574   8.614 -0.1691  0.5831  0.3114
 6787TIP3    H141996   5.395   6.499   8.673  3.3551  2.4389  3.4173
 6787TIP3    H241997   5.479   6.561   8.563  1.3977  2.7232  2.0200
 6788TIP3   OH241998   2.117   0.560   0.069  0.1626  0.0067  0.0441
 6788TIP3    H141999   2.156   0.519  -0.008  0.3672 -0.4560  0.3852
 6788TIP3    H242000   2.046   0.614   0.035  0.7830  0.4682 -0.5425
 6789TIP3   OH242001   4.395   0.871   0.173 -0.0998 -0.2667  0.4099
 6789TIP3    H142002   4.458   0.897   0.241  0.1375 -1.0112  0.4780
 6789TIP3    H242003   4.325   0.828   0.221  0.6900 -1.9921  0.0880
 6790TIP3   OH242004   3.716   2.004   2.725 -0.1981 -0.4373  0.1496
 6790TIP3    H142005   3.805   1.994   2.692  0.9458  2.4218  1.9999
 6790TIP3    H242006   3.711   1.946   2.800  0.7373  0.6179  1.0557
 6791TIP3   OH242007   6.354   5.096   2.153 -0.0801 -0.2563 -0.1669
 6791TIP3    H142008   6.290   5.120   2.221 -2.1817  0.3365 -2.2192
 6791TIP3    H242009   6.324   5.012   2.120 -0.0238  0.1723 -1.3710
 6792TIP3   OH242010   3.979   4.105   7.691 -0.1195 -0.3293 -0.3260
 6792TIP3    H142011   3.894   4.116   7.647  0.4153 -0.7237 -1.5076
 6792TIP3    H242012   4.021   4.034   7.643  0.1141 -1.4629  1.4687
 6793TIP3   OH242013   3.114   6.029   0.904 -0.2942 -0.3263 -0.1993
 6793TIP3    H142014   3.044   5.989   0.853  1.3774 -0.5537 -2.5150
 6793TIP3    H242015   3.145   6.102   0.849  0.4865  0.5199  1.2997
 6794TIP3   OH242016   0.612   0.714   0.078 -0.3734 -0.2970 -0.7926
 6794TIP3    H142017   0.670   0.674   0.013  0.2909 -0.8018  0.0929
 6794TIP3    H242018   0.567   0.640   0.119  0.7173 -0.1694  0.7174
 6795TIP3   OH242019   6.422   6.807   2.810 -0.0205 -0.4427 -0.1977
 6795TIP3    H142020   6.398   6.800   2.903  1.3745 -0.1718  0.2057
 6795TIP3    H242021   6.422   6.717   2.778 -0.5968 -0.5308  0.0264
 6796TIP3   OH242022   2.040   2.352   2.266  0.3810 -0.2274 -0.5931
 6796TIP3    H142023   2.119   2.407   2.266 -0.4992  1.0859 -0.4263
 6796TIP3    H242024   2.071   2.265   2.242  2.0913 -0.0495  0.7488
 6797TIP3   OH242025   2.742   5.268   1.581 -0.1284 -0.0771 -0.1609
 6797TIP3    H142026   2.799   5.229   1.647 -1.6262 -1.3145  0.4931
 6797TIP3    H242027   2.778   5.355   1.565  2.1451 -0.9306 -0.1102
 6798TIP3   OH242028   5.058   6.011   2.645 -0.0379 -0.1983 -0.0475
 6798TIP3    H142029   5.144   5.968   2.639  0.6870  0.9517  1.2931
 6798TIP3    H242030   5.004   5.949   2.694  0.1387 -0.7624 -0.5539
 6799TIP3   OH242031   1.031   5.453   1.338  0.4220 -0.8540 -0.1822
 6799TIP3    H142032   1.013   5.488   1.251 -0.3182 -1.7210 -0.3942
 6799TIP3    H242033   0.999   5.520   1.399  0.7739 -0.3303 -0.5699
 6800TIP3   OH242034   1.477   5.116   7.286  0.0105  0.8332  0.1504
 6800TIP3    H142035   1.476   5.138   7.193 -2.0227 -3.7591 -1.1539
 6800TIP3    H242036   1.386   5.125   7.314  0.3775  0.9142  1.3913
 6801TIP3   OH242037   1.595   5.974   7.846  0.4359  0.4144 -0.1300
 6801TIP3    H142038   1.544   5.954   7.924  1.1011  0.8768  0.4381
 6801TIP3    H242039   1.530   5.985   7.777 -0.2520  1.2083  0.6170
 6802TIP3   OH242040   3.229   0.051   7.904  0.1049 -0.1963 -0.5894
 6802TIP3    H142041   3.159   0.099   7.948 -0.9964 -1.5543 -0.7908
 6802TIP3    H242042   3.296   0.117   7.886  0.8641  0.4024  3.4763
 6803TIP3   OH242043   2.522   4.253   1.653  0.0392 -0.8868  0.1083
 6803TIP3    H142044   2.473   4.280   1.730 -1.2625  0.2507 -1.0621
 6803TIP3    H242045   2.508   4.324   1.589  0.7256 -1.9692 -1.3084
 6804TIP3   OH242046   2.671   1.343   0.219  0.0714  0.1502  0.3762
 6804TIP3    H142047   2.687   1.290   0.297 -0.0264 -0.6759 -0.1482
 6804TIP3    H242048   2.726   1.420   0.231  0.8509 -0.4490  0.7934
 6805TIP3   OH242049   3.352   1.911   7.937  0.3253 -0.0327  0.1871
 6805TIP3    H142050   3.265   1.940   7.913  0.8016  0.3241 -1.2068
 6805TIP3    H242051   3.341   1.868   8.022 -1.3925 -1.0417 -0.5148
 6806TIP3   OH242052   0.253   2.337   0.299 -0.1474  0.0775 -0.0130
 6806TIP3    H142053   0.167   2.376   0.311 -0.7589 -0.5453 -1.9918
 6806TIP3    H242054   0.298   2.395   0.237  0.7919  0.2876  0.8406
 6807TIP3   OH242055   6.006   5.905   3.246 -0.3581  0.3989  0.0635
 6807TIP3    H142056   6.007   5.989   3.292 -0.0640  0.4981 -0.1247
 6807TIP3    H242057   6.098   5.880   3.239 -0.3203  0.8384 -1.2992
 6808TIP3   OH242058   3.282   4.372   0.646  0.3413  0.5403 -0.4140
 6808TIP3    H142059   3.215   4.389   0.580 -0.8828  1.4437  0.9923
 6808TIP3    H242060   3.331   4.454   0.652 -0.0442  0.7320  0.3049
 6809TIP3   OH242061   6.217   1.662   0.296  0.1842 -0.0114  0.2088
 6809TIP3    H142062   6.158   1.590   0.275 -0.2332  0.4347 -0.1871
 6809TIP3    H242063   6.303   1.631   0.269  0.0314 -0.4136  0.1723
 6810TIP3   OH242064   4.619   2.671   0.397 -0.3404 -0.2367 -0.4657
 6810TIP3    H142065   4.644   2.626   0.478  0.0902 -2.3362 -1.6905
 6810TIP3    H242066   4.693   2.728   0.377  0.2870 -0.9468 -0.2244
 6811TIP3   OH242067   6.316   0.957   8.779 -0.7714  0.3334 -0.0433
 6811TIP3    H142068   6.234   1.005   8.786 -0.4494  0.8023  0.6351
 6811TIP3    H242069   6.321   0.905   8.859 -1.6424 -1.7281 -1.2386
 6812TIP3   OH242070   0.318   4.331   2.029 -0.0486 -0.0385  0.5799
 6812TIP3    H142071   0.318   4.354   2.122 -0.8479 -0.7626  0.7678
 6812TIP3    H242072   0.316   4.235   2.028  1.0641 -0.0758 -0.1910
 6813TIP3   OH242073   0.517   2.926   2.781 -0.4712 -0.3406 -1.0690
 6813TIP3    H142074   0.462   2.966   2.848 -0.9426 -0.7563 -1.2015
 6813TIP3    H242075   0.461   2.920   2.704  0.2630  0.7189 -1.7033
 6814TIP3   OH242076   6.468   5.959   8.641 -0.4445 -0.2590 -0.0909
 6814TIP3    H142077   6.472   5.866   8.619  0.0598 -0.2660  0.0266
 6814TIP3    H242078   6.422   5.998   8.567 -2.3588 -0.8614  0.7235
 6815TIP3   OH242079   4.535   5.849   7.177  0.0897  0.0812 -0.1245
 6815TIP3    H142080   4.469   5.814   7.236  0.9414 -1.0705  0.1818
 6815TIP3    H242081   4.531   5.944   7.190  0.2021 -0.1321  1.7543
 6816TIP3   OH242082   6.785   6.801   2.077  0.1310  0.4152 -0.1945
 6816TIP3    H142083   6.787   6.884   2.029 -2.6224  0.4492 -0.4208
 6816TIP3    H242084   6.729   6.818   2.153  1.0697 -0.7462  0.7999
 6817TIP3   OH242085   0.190   2.312   2.268 -0.2899 -0.1326 -0.6678
 6817TIP3    H142086   0.207   2.221   2.245 -1.7604 -0.9758  1.2703
 6817TIP3    H242087   0.205   2.317   2.362  0.5349  1.8583 -0.8515
 6818TIP3   OH242088   4.682   6.064   8.763 -0.0571  0.0030  0.4905
 6818TIP3    H142089   4.743   6.118   8.813 -0.0226 -2.0144  2.8158
 6818TIP3    H242090   4.602   6.116   8.759  1.1866  1.9454 -1.0849
 6819TIP3   OH242091   2.874   2.835   7.961  0.3023 -0.2554  0.4848
 6819TIP3    H142092   2.787   2.862   7.994  1.4707  1.6668  2.2712
 6819TIP3    H242093   2.902   2.908   7.907  1.1902 -0.4144  0.7157
 6820TIP3   OH242094   2.947   5.847   2.921 -0.0820  0.1237  0.5574
 6820TIP3    H142095   3.028   5.818   2.961 -0.3175  0.0877  1.0072
 6820TIP3    H242096   2.966   5.935   2.888  0.1032  0.1625  0.7710
 6821TIP3   OH242097   6.734   6.709   7.907 -0.0560 -0.1234 -0.0040
 6821TIP3    H142098   6.815   6.743   7.944  1.0874 -0.3610 -2.1571
 6821TIP3    H242099   6.741   6.614   7.918 -0.5189 -0.0883  0.6756
 6822TIP3   OH242100   5.579   1.685   7.906  0.0790 -0.4407  0.4800
 6822TIP3    H142101   5.660   1.656   7.865  1.4545 -0.4374  2.9968
 6822TIP3    H242102   5.573   1.778   7.884  1.4638 -0.1357  1.2657
 6823TIP3   OH242103   2.390   5.155   2.952 -0.4189 -0.4784  0.0611
 6823TIP3    H142104   2.297   5.130   2.953 -0.5365 -0.2302 -1.5541
 6823TIP3    H242105   2.423   5.129   3.038 -1.4699 -2.5777 -0.1056
 6824TIP3   OH242106   5.318   3.033   3.007  0.3657 -0.2284 -0.1356
 6824TIP3    H142107   5.298   3.066   3.095  1.9498 -1.6445  0.7976
 6824TIP3    H242108   5.412   3.017   3.008  0.7591  1.3983 -2.7065
 6825TIP3   OH242109   5.963   2.737   1.395  0.0002  0.5257 -0.4404
 6825TIP3    H142110   5.894   2.677   1.424 -0.4713  0.9873 -0.6015
 6825TIP3    H242111   5.950   2.745   1.301  1.4327 -0.8380 -0.8029
 6826TIP3   OH242112   0.197   6.249   1.982 -0.3551  0.1484  0.7862
 6826TIP3    H142113   0.144   6.190   1.929 -1.5992  1.0323  1.0143
 6826TIP3    H242114   0.275   6.197   2.005 -0.2881 -0.5995 -0.9791
 6827TIP3   OH242115   3.811   6.338   0.426 -0.5926 -0.1388 -0.0349
 6827TIP3    H142116   3.866   6.416   0.419 -0.6375 -0.1310 -0.3130
 6827TIP3    H242117   3.831   6.302   0.513 -0.6418  0.2318  0.1294
 6828TIP3   OH242118   3.787   5.086   0.036  0.2168 -0.1467 -0.0472
 6828TIP3    H142119   3.862   5.081  -0.023 -0.8522  0.7333 -1.5205
 6828TIP3    H242120   3.729   5.015   0.007 -1.1968  1.4806 -1.3888
 6829TIP3   OH242121   5.103   4.966   3.054  0.2603 -0.1006 -0.4874
 6829TIP3    H142122   5.064   5.054   3.056 -0.1563 -0.2815 -0.6460
 6829TIP3    H242123   5.138   4.954   3.142 -1.0493 -0.3825  0.0141
 6830TIP3   OH242124   2.284   1.105   0.367  0.2243 -0.1606 -0.1280
 6830TIP3    H142125   2.366   1.083   0.321  0.4408  0.1269  0.1220
 6830TIP3    H242126   2.306   1.181   0.420 -0.2884  0.1073 -0.2938
 6831TIP3   OH242127   6.674   2.209   8.325  0.1187  0.5517  0.0241
 6831TIP3    H142128   6.604   2.155   8.288 -0.2903  1.4085 -0.4980
 6831TIP3    H242129   6.727   2.235   8.249 -0.0176  1.3266  0.1837
 6832TIP3   OH242130   0.254   0.314   1.910 -1.1879 -0.0034  0.2634
 6832TIP3    H142131   0.179   0.366   1.881  0.3483  1.4999 -1.2727
 6832TIP3    H242132   0.283   0.267   1.831 -0.6002 -0.6589  0.8535
 6833TIP3   OH242133   4.603   1.177   7.678 -0.1018 -0.0984 -0.0693
 6833TIP3    H142134   4.537   1.119   7.640 -1.6740  0.5266  1.5437
 6833TIP3    H242135   4.572   1.265   7.657 -1.3412  0.2968  2.9427
 6834TIP3   OH242136   4.984   4.825   0.056  0.2920  0.1467  0.2734
 6834TIP3    H142137   4.902   4.818   0.008 -0.2150  1.9738  0.7598
 6834TIP3    H242138   4.991   4.743   0.105  0.1155 -1.1466 -1.7798
 6835TIP3   OH242139   0.960   0.980   7.009 -0.2294  0.3667 -0.1173
 6835TIP3    H142140   0.908   0.934   7.075  0.5247  0.5143  0.5921
 6835TIP3    H242141   1.000   0.911   6.957  0.1401  0.2379  0.3420
 6836TIP3   OH242142   3.976   2.241   0.623  0.9410  0.3047  0.2939
 6836TIP3    H142143   4.022   2.303   0.565  1.8632 -0.4935  0.1490
 6836TIP3    H242144   3.884   2.249   0.598  1.0788  1.4296  0.1045
 6837TIP3   OH242145   2.543   5.425   8.392 -0.5838 -0.2897  0.5583
 6837TIP3    H142146   2.544   5.331   8.408  0.7805 -0.1846  1.2579
 6837TIP3    H242147   2.470   5.439   8.332  1.3457 -2.2576 -2.4834
 6838TIP3   OH242148   4.448   1.857   2.488  0.5366  0.4398  0.4475
 6838TIP3    H142149   4.426   1.764   2.491 -0.7466  0.7425  0.8814
 6838TIP3    H242150   4.426   1.890   2.575  0.6402  1.2270  0.1866
 6839TIP3   OH242151   2.236   0.803   2.990 -0.0727 -0.3874  0.1509
 6839TIP3    H142152   2.157   0.769   2.947 -0.2170 -0.1753  0.2459
 6839TIP3    H242153   2.278   0.859   2.924 -0.8610  0.8065  0.6224
 6840TIP3   OH242154   3.941   3.030   0.897  0.3364 -0.4758  0.0899
 6840TIP3    H142155   4.012   2.968   0.883  0.2201 -0.2896 -1.5378
 6840TIP3    H242156   3.955   3.098   0.831 -1.4799 -0.5734 -0.4643
 6841TIP3   OH242157   1.433   1.602   1.120  0.5047  0.0773  0.2232
 6841TIP3    H142158   1.340   1.626   1.126 -0.4389 -2.4257 -2.0843
 6841TIP3    H242159   1.452   1.558   1.202  0.2162  2.0974  1.4384
 6842TIP3   OH242160   4.016   4.057   8.200 -0.3131  0.0782  0.5184
 6842TIP3    H142161   3.986   4.134   8.248 -0.4767  0.2282  0.1739
 6842TIP3    H242162   3.994   3.984   8.258 -1.0672  0.2130  0.4063
 6843TIP3   OH242163   5.388   4.905   2.736  0.3533  0.7553  0.1172
 6843TIP3    H142164   5.356   4.815   2.730  1.5392  0.4007 -3.3123
 6843TIP3    H242165   5.308   4.958   2.740 -0.5220 -0.3778 -1.0780
 6844TIP3   OH242166   6.622   6.657   1.340  0.2134  0.5189 -0.2904
 6844TIP3    H142167   6.571   6.723   1.294 -0.4767  0.6530  0.6410
 6844TIP3    H242168   6.579   6.648   1.425  0.7067 -0.6351 -0.1398
 6845TIP3   OH242169   1.068   4.414   1.096  0.3054 -0.2150  0.4692
 6845TIP3    H142170   1.025   4.345   1.145  0.6973 -0.6565  0.1966
 6845TIP3    H242171   1.154   4.379   1.075 -0.9718 -1.5016 -3.5204
 6846TIP3   OH242172   0.086   3.177   6.973 -0.1405  0.0837  0.4931
 6846TIP3    H142173   0.135   3.260   6.979 -1.3978  0.7959  1.4012
 6846TIP3    H242174   0.146   3.117   6.928  0.6326  1.6083 -0.6058
 6847TIP3   OH242175   6.827   1.022   0.591 -0.8374  0.4655  0.0374
 6847TIP3    H142176   6.861   0.933   0.586  2.3403  1.5672  0.0775
 6847TIP3    H242177   6.779   1.025   0.674 -1.3959 -1.2571 -0.1711
 6848TIP3   OH242178   5.202   6.338   2.092 -0.1592  0.2156 -0.2432
 6848TIP3    H142179   5.139   6.370   2.156 -0.1556 -2.1511  1.0668
 6848TIP3    H242180   5.149   6.295   2.025 -0.0214 -0.6285  0.1767
 6849TIP3   OH242181   4.365   3.368   7.247  0.2729  0.6735  0.0968
 6849TIP3    H142182   4.378   3.455   7.284  0.3439  0.5637  0.3282
 6849TIP3    H242183   4.451   3.340   7.218  0.3886  0.3611  0.7252
 6850TIP3   OH242184   0.280   6.227   0.431  0.3888  0.5217  0.8834
 6850TIP3    H142185   0.213   6.169   0.395  0.4728  0.0904  1.4238
 6850TIP3    H242186   0.363   6.185   0.407  0.4695  0.9457  0.3984
 6851TIP3   OH242187   4.898   4.437   1.942 -0.0572 -0.9179  0.8893
 6851TIP3    H142188   4.953   4.514   1.932  0.0854 -0.7457  2.6394
 6851TIP3    H242189   4.897   4.396   1.856 -0.3798  1.1890 -0.1683
 6852TIP3   OH242190   5.770   2.255   1.294 -0.2318  0.1268  0.4663
 6852TIP3    H142191   5.679   2.237   1.319  0.6244 -2.3516  2.2555
 6852TIP3    H242192   5.820   2.185   1.336  2.5535  1.5538 -0.2461
 6853TIP3   OH242193   3.254   2.926   7.758 -0.2530  0.1410 -0.6402
 6853TIP3    H142194   3.260   2.871   7.680  2.1916 -0.4195 -0.1495
 6853TIP3    H242195   3.208   3.004   7.729  0.1886 -0.2521 -2.5361
 6854TIP3   OH242196   6.346   4.573   0.738  0.5367 -0.1245 -0.4501
 6854TIP3    H142197   6.422   4.520   0.759  0.8147 -0.2646 -1.7127
 6854TIP3    H242198   6.274   4.534   0.788 -0.1307 -4.1237 -3.9819
 6855TIP3   OH242199   0.200   5.878   8.017 -0.1054  0.1399 -0.5380
 6855TIP3    H142200   0.259   5.804   8.003 -0.1886  0.0862 -0.6055
 6855TIP3    H242201   0.158   5.860   8.101 -0.0518  0.1607 -0.5073
 6856TIP3   OH242202   6.575   4.505   1.023 -0.6217  0.4429 -0.7644
 6856TIP3    H142203   6.631   4.430   1.001 -0.6571  0.5748 -1.3128
 6856TIP3    H242204   6.628   4.558   1.083 -0.3427  0.3200 -0.9039
 6857TIP3   OH242205   3.619   5.028   6.871 -0.1437 -0.2442 -0.0829
 6857TIP3    H142206   3.581   4.942   6.889  2.8286 -1.1533  2.7720
 6857TIP3    H242207   3.565   5.089   6.921 -1.0980 -0.6798 -0.5500
 6858TIP3   OH242208   6.154   6.260   3.384  0.2775 -0.0876  0.7255
 6858TIP3    H142209   6.216   6.196   3.419 -0.0945 -0.3720  0.8749
 6858TIP3    H242210   6.068   6.219   3.395  0.2282 -0.8559 -1.9357
 6859TIP3   OH242211   6.202   6.542   0.234  0.7089  0.5615  0.2452
 6859TIP3    H142212   6.118   6.506   0.260 -0.4896  1.5044 -2.0093
 6859TIP3    H242213   6.247   6.470   0.190 -0.8585  1.0960 -2.4914
 6860TIP3   OH242214   5.000   1.427   8.775 -0.1961 -0.2677  0.7877
 6860TIP3    H142215   4.986   1.353   8.717 -1.0538 -0.2885  1.0078
 6860TIP3    H242216   5.034   1.496   8.718  0.7512 -0.8666  0.6111
 6861TIP3   OH242217   2.725   6.353   2.234 -0.2840 -0.5200 -0.6632
 6861TIP3    H142218   2.691   6.442   2.240 -0.8256 -0.7314 -0.5472
 6861TIP3    H242219   2.764   6.336   2.320  1.2221  0.1511 -1.1734
 6862TIP3   OH242220   1.520   5.386   2.438  0.0535 -0.1971 -0.2800
 6862TIP3    H142221   1.541   5.360   2.348 -0.8703 -0.2305 -0.4961
 6862TIP3    H242222   1.557   5.316   2.492  1.2585  0.1871 -0.5679
 6863TIP3   OH242223   6.027   6.246   2.688  0.4552  0.1044 -0.3249
 6863TIP3    H142224   6.051   6.155   2.671 -3.9348 -1.3180  0.0475
 6863TIP3    H242225   6.028   6.254   2.784  2.4452  1.0700 -0.3686
 6864TIP3   OH242226   0.348   5.956   0.136 -0.1136  0.9869 -0.7444
 6864TIP3    H142227   0.440   5.981   0.151 -0.4121  1.2322  0.8172
 6864TIP3    H242228   0.353   5.865   0.108  0.6240  1.0521 -0.8569
 6865TIP3   OH242229   4.747   1.893   7.471 -0.1446 -0.5545  0.2909
 6865TIP3    H142230   4.670   1.836   7.480 -0.3820 -0.5245 -1.2895
 6865TIP3    H242231   4.713   1.982   7.478 -0.5278 -0.4864 -1.8073
 6866TIP3   OH242232   2.720   4.116   1.055 -0.9428  0.0592  0.5473
 6866TIP3    H142233   2.627   4.138   1.048 -0.5468  1.2052 -2.6203
 6866TIP3    H242234   2.747   4.095   0.966  1.4342 -2.3410  1.6838
 6867TIP3   OH242235   0.040   0.358   2.100 -0.3649  0.6121  0.5854
 6867TIP3    H142236   0.046   0.297   2.026  1.1420  2.2918 -0.7675
 6867TIP3    H242237   0.118   0.341   2.152 -1.1008 -0.1299  1.4752
 6868TIP3   OH242238   4.037   5.658   1.336  0.1492  0.0803 -0.2239
 6868TIP3    H142239   4.023   5.747   1.306  0.4316  0.0747 -0.3771
 6868TIP3    H242240   3.955   5.613   1.318 -0.1354  0.4111  0.2282
 6869TIP3   OH242241   4.360   4.205   2.198 -0.4448  0.0535 -0.1123
 6869TIP3    H142242   4.379   4.273   2.263  0.1841  0.2665 -0.5049
 6869TIP3    H242243   4.286   4.238   2.149 -1.3509 -0.4021  0.9077
 6870TIP3   OH242244   0.531   5.558   1.804  0.6167  0.5377  0.1953
 6870TIP3    H142245   0.524   5.620   1.731  1.2239  2.9637  2.0569
 6870TIP3    H242246   0.460   5.583   1.863  2.4936  1.3442  2.2468
 6871TIP3   OH242247   2.775   6.471   0.661  0.3800 -0.3534  0.5493
 6871TIP3    H142248   2.688   6.449   0.694  0.6609 -2.0787  0.2383
 6871TIP3    H242249   2.758   6.529   0.587 -0.5452 -1.0137  0.2189
 6872TIP3   OH242250   2.992   0.167   7.642 -0.2250 -0.4450  0.7122
 6872TIP3    H142251   2.987   0.259   7.667 -0.6165 -0.4357  0.6084
 6872TIP3    H242252   2.991   0.168   7.546 -0.4806 -0.5698  0.7127
 6873TIP3   OH242253   2.276   4.536   1.397  0.2585  0.4803  0.2809
 6873TIP3    H142254   2.267   4.563   1.306  0.2583  2.1154  0.7238
 6873TIP3    H242255   2.363   4.497   1.403 -0.9232 -2.6865 -1.0763
 6874TIP3   OH242256   6.169   2.733   1.582 -0.2754 -0.7435  0.2025
 6874TIP3    H142257   6.219   2.661   1.544 -0.4912 -0.7124 -0.1529
 6874TIP3    H242258   6.090   2.738   1.527 -0.4414 -0.4854  0.4610
 6875TIP3   OH242259   5.481   6.670   1.621  0.5295  0.5600  0.5264
 6875TIP3    H142260   5.539   6.627   1.684  0.3678 -1.4940 -0.6644
 6875TIP3    H242261   5.512   6.641   1.536  0.5749  3.0735 -0.4148
 6876TIP3   OH242262   5.515   3.491   8.701  0.2376 -0.6095  0.7113
 6876TIP3    H142263   5.469   3.518   8.780 -0.6778  0.5989 -0.1880
 6876TIP3    H242264   5.447   3.489   8.633  1.0902 -1.0913 -0.1576
 6877TIP3   OH242265   4.237   3.798   0.513  0.4908 -0.3268 -0.0551
 6877TIP3    H142266   4.226   3.723   0.453  0.8848  0.2162 -0.8204
 6877TIP3    H242267   4.281   3.761   0.589 -0.1249 -1.0581 -0.0401
 6878TIP3   OH242268   3.928   2.654   8.753  0.1944  0.1536 -0.1008
 6878TIP3    H142269   3.995   2.589   8.729 -0.0935 -0.0296 -0.4244
 6878TIP3    H242270   3.943   2.727   8.693  1.5520  1.1013  1.3124
 6879TIP3   OH242271   4.771   0.656   1.323 -0.2897  0.6708 -0.0720
 6879TIP3    H142272   4.729   0.742   1.324 -2.0946 -0.1354  1.8267
 6879TIP3    H242273   4.751   0.619   1.237  0.5388  2.1028 -0.9220
 6880TIP3   OH242274   2.369   5.756   8.022 -0.1530 -0.1977  0.0166
 6880TIP3    H142275   2.420   5.805   7.957 -0.6069  2.1818  1.3256
 6880TIP3    H242276   2.408   5.669   8.023 -0.2294 -0.4082 -3.5005
 6881TIP3   OH242277   4.455   6.124   7.176 -0.5339  0.3331  0.4117
 6881TIP3    H142278   4.383   6.181   7.150 -1.2278 -0.4441  0.6052
 6881TIP3    H242279   4.483   6.158   7.262 -1.4056 -0.0354  0.8535
 6882TIP3   OH242280   5.787   6.486   1.073  0.7999  0.1024  0.0034
 6882TIP3    H142281   5.866   6.524   1.033  0.3817 -0.8192 -1.8016
 6882TIP3    H242282   5.787   6.521   1.162  2.7055  0.9190 -0.2520
 6883TIP3   OH242283   1.946   2.346   1.361  0.1182 -0.5241  0.2384
 6883TIP3    H142284   1.944   2.318   1.452 -2.2755  0.0427  0.4276
 6883TIP3    H242285   2.034   2.323   1.331  0.7508 -1.3168  2.4792
 6884TIP3   OH242286   4.262   6.555   7.621 -0.0436  0.1784  0.1986
 6884TIP3    H142287   4.248   6.492   7.550  0.3569  0.8016 -0.4299
 6884TIP3    H242288   4.355   6.574   7.619  0.2628 -0.9113  1.8460
 6885TIP3   OH242289   4.674   0.573   8.315 -0.1161 -0.0141 -0.9002
 6885TIP3    H142290   4.579   0.574   8.324 -0.0812  0.7184 -0.5279
 6885TIP3    H242291   4.705   0.637   8.379  0.6491 -0.4745 -0.7962
 6886TIP3   OH242292   5.501   0.939   8.214  0.0129 -0.6644 -0.0223
 6886TIP3    H142293   5.553   0.874   8.167  1.6036 -0.3117  1.1713
 6886TIP3    H242294   5.533   1.023   8.181 -2.3471 -0.4080 -1.8959
 6887TIP3   OH242295   6.029   2.113   2.178  0.2346  0.1726 -0.2873
 6887TIP3    H142296   5.943   2.092   2.213  0.3274  1.6469  0.9245
 6887TIP3    H242297   6.030   2.209   2.173  2.1277  0.2318  0.6120
 6888TIP3   OH242298   2.272   0.344   8.068  0.1603  0.3277  0.1380
 6888TIP3    H142299   2.362   0.312   8.071  0.5549  1.3333 -0.3648
 6888TIP3    H242300   2.271   0.406   7.995 -1.2841 -0.6398 -0.7195
 6889TIP3   OH242301   2.483   4.794   7.737 -0.4286 -0.2241 -0.0660
 6889TIP3    H142302   2.442   4.712   7.708 -2.6856  0.8053 -0.0059
 6889TIP3    H242303   2.459   4.801   7.829  0.6001  0.0362  0.1881
 6890TIP3   OH242304   0.015   2.628   2.356 -0.2267  0.1403  0.2762
 6890TIP3    H142305  -0.015   2.615   2.446  1.0877 -0.9009  0.6031
 6890TIP3    H242306  -0.056   2.593   2.302 -0.3433 -0.7428  0.9707
 6891TIP3   OH242307   2.658   3.960   8.545 -0.0134  0.1833 -0.0113
 6891TIP3    H142308   2.722   3.953   8.475  4.6626  0.1800  3.7435
 6891TIP3    H242309   2.648   4.054   8.560 -1.5799  0.2111 -1.0090
 6892TIP3   OH242310   2.123   2.089   8.602  0.3724 -0.1291 -0.4123
 6892TIP3    H142311   2.207   2.057   8.634  1.3765  3.9000  1.7398
 6892TIP3    H242312   2.058   2.038   8.650  1.5631 -2.0654 -0.7499
 6893TIP3   OH242313   3.462   4.489   8.718  0.2682  0.5763  0.6734
 6893TIP3    H142314   3.391   4.552   8.730 -1.0535 -0.8466  0.7472
 6893TIP3    H242315   3.517   4.498   8.796 -0.9235  0.4139  1.5649
 6894TIP3   OH242316   4.698   0.667   8.065  0.0035  0.0394 -0.2122
 6894TIP3    H142317   4.712   0.624   8.149  0.3864 -0.9777 -0.7862
 6894TIP3    H242318   4.634   0.735   8.084 -1.7406 -1.6989  0.4326
 6895TIP3   OH242319   1.074   0.299   8.605 -0.6345 -0.2910 -0.2085
 6895TIP3    H142320   1.007   0.316   8.671  2.1374 -0.0432  2.7927
 6895TIP3    H242321   1.100   0.208   8.621 -1.5877 -1.1212 -2.7879
 6896TIP3   OH242322   1.691   4.257   8.357 -0.2803  0.2722 -0.0311
 6896TIP3    H142323   1.672   4.174   8.403  3.0436 -0.3703  0.4481
 6896TIP3    H242324   1.767   4.292   8.403 -0.7134  2.8863 -1.1781
 6897TIP3   OH242325   1.806   0.618   1.715 -0.5636 -0.1555 -0.5977
 6897TIP3    H142326   1.854   0.557   1.659 -0.6887 -0.5343 -0.2994
 6897TIP3    H242327   1.730   0.645   1.662 -2.2511 -2.6813  0.3514
 6898TIP3   OH242328   1.470   4.751   2.348 -0.0380 -0.4266  0.0197
 6898TIP3    H142329   1.540   4.801   2.389 -1.0565  0.3324  0.8881
 6898TIP3    H242330   1.434   4.698   2.419 -0.1480 -1.0474 -0.4906
 6899TIP3   OH242331   6.413   5.236   2.583 -0.1187 -0.4581  1.2549
 6899TIP3    H142332   6.492   5.221   2.532 -1.4454  1.7634 -1.7148
 6899TIP3    H242333   6.375   5.148   2.595 -0.2920 -1.1022 -2.7059
 6900TIP3   OH242334   5.417   3.484   3.340 -0.1230 -0.1249 -0.5146
 6900TIP3    H142335   5.468   3.455   3.416  0.7021  0.0602 -0.9843
 6900TIP3    H242336   5.326   3.468   3.365  0.1163  0.1818  0.6194
 6901TIP3   OH242337   6.011   3.603   0.240  0.0494 -0.3572 -0.2677
 6901TIP3    H142338   5.937   3.579   0.185  0.3430  1.6396 -1.6753
 6901TIP3    H242339   6.025   3.528   0.297 -1.0626 -2.0528 -2.0946
 6902TIP3   OH242340   0.310   4.608   0.026  0.0825 -0.0330 -0.8394
 6902TIP3    H142341   0.223   4.628  -0.009  0.1739  0.7082 -0.6611
 6902TIP3    H242342   0.300   4.522   0.067 -0.6106  0.1141 -0.6898
 6903TIP3   OH242343   3.297   1.272   1.374  0.1215  0.4157 -0.1188
 6903TIP3    H142344   3.315   1.359   1.409 -1.0047 -0.0106  1.6360
 6903TIP3    H242345   3.219   1.284   1.319 -1.4376  0.1900  1.9225
 6904TIP3   OH242346   6.580   4.073   0.804 -0.0237  0.3686  0.1610
 6904TIP3    H142347   6.593   3.979   0.815 -1.6593  0.0206 -0.4833
 6904TIP3    H242348   6.568   4.106   0.893  0.6604 -0.0137  0.3968
 6905TIP3   OH242349   6.489   2.950   0.145  0.5662 -0.4532  0.6746
 6905TIP3    H142350   6.554   2.910   0.088  1.0086 -0.2366  1.0261
 6905TIP3    H242351   6.496   3.044   0.128 -0.6651 -0.5129 -0.3598
 6906TIP3   OH242352   5.113   4.306   0.998  0.3335  0.2388 -0.6836
 6906TIP3    H142353   5.111   4.395   1.034  0.2517 -0.9024  2.4408
 6906TIP3    H242354   5.021   4.278   1.000  0.3172  0.1441 -1.9363
 6907TIP3   OH242355   2.199   4.947   0.457 -0.0559  0.2830 -0.5654
 6907TIP3    H142356   2.285   4.964   0.494  0.2240 -0.6367 -0.7816
 6907TIP3    H242357   2.142   5.014   0.497  0.7237  0.8141 -0.3320
 6908TIP3   OH242358   0.996   0.552   8.780 -0.1866  0.9719 -0.2245
 6908TIP3    H142359   0.978   0.544   8.873  1.3961  2.5201  0.2817
 6908TIP3    H242360   0.910   0.564   8.740 -0.9377 -0.3027  0.9439
 6909TIP3   OH242361   0.802   0.737   8.181 -0.1510  0.2261 -0.1565
 6909TIP3    H142362   0.890   0.750   8.146 -0.6116 -0.7612 -1.7984
 6909TIP3    H242363   0.794   0.642   8.193 -0.2773  0.4623  2.0399
 6910TIP3   OH242364   3.090   2.458   2.508 -0.1073 -0.4351 -0.1189
 6910TIP3    H142365   3.084   2.499   2.595 -1.0261 -1.5530  0.3788
 6910TIP3    H242366   3.154   2.388   2.520 -0.0799 -0.4599 -0.4076
 6911TIP3   OH242367   2.728   0.806   1.873 -0.8222 -0.2282 -0.4166
 6911TIP3    H142368   2.721   0.793   1.968  2.0783 -1.0278 -0.2421
 6911TIP3    H242369   2.733   0.901   1.863 -1.6706 -0.1057  0.1441
 6912TIP3   OH242370   5.970   1.488   8.165  0.2555  0.9454 -0.7661
 6912TIP3    H142371   5.943   1.562   8.218 -0.4919  0.5381 -0.5597
 6912TIP3    H242372   6.039   1.522   8.108  1.5521  1.2332  0.9176
 6913TIP3   OH242373   1.558   0.069   0.790 -0.9679  0.0609 -0.3665
 6913TIP3    H142374   1.630   0.073   0.727 -1.2681  1.7859 -0.6580
 6913TIP3    H242375   1.596   0.025   0.866 -0.0621 -0.4310 -1.0757
 6914TIP3   OH242376   2.273   0.261   0.470  0.2770  0.4184  0.0690
 6914TIP3    H142377   2.238   0.290   0.386 -0.0184  0.4941  0.2166
 6914TIP3    H242378   2.331   0.188   0.448 -1.2172 -0.7895 -0.0496
 6915TIP3   OH242379   4.122   4.199   7.911 -0.2746  0.0281  0.4587
 6915TIP3    H142380   4.071   4.268   7.953  1.1124  2.6018 -1.7736
 6915TIP3    H242381   4.061   4.157   7.850 -0.4037  1.4287 -0.4148
 6916TIP3   OH242382   5.454   6.367   1.625  0.1186 -0.2630  0.5183
 6916TIP3    H142383   5.487   6.438   1.680  0.4469  0.5787 -0.7266
 6916TIP3    H242384   5.401   6.314   1.684 -2.0099  2.2345  1.0687
 6917TIP3   OH242385   2.349   1.565   1.590 -0.1193 -0.4077 -0.3984
 6917TIP3    H142386   2.266   1.552   1.544  0.8137 -1.9838 -1.7484
 6917TIP3    H242387   2.361   1.660   1.590 -1.1921 -0.2381 -1.5317
 6918TIP3   OH242388   3.430   2.903   7.210  0.1971  0.1154 -1.0734
 6918TIP3    H142389   3.455   2.945   7.293  0.1831 -0.7296 -0.6328
 6918TIP3    H242390   3.511   2.904   7.159  0.5169 -0.4290 -0.5877
 6919TIP3   OH242391   5.819   0.805   2.589  0.2986 -0.0366  0.3543
 6919TIP3    H142392   5.782   0.732   2.538 -0.9403  0.2999  0.7417
 6919TIP3    H242393   5.906   0.819   2.551  0.1259 -1.0042 -0.4381
 6920TIP3   OH242394   6.535   4.996   8.066 -0.4373 -0.4594  0.0251
 6920TIP3    H142395   6.543   5.025   7.975 -1.7538 -0.2275 -0.0292
 6920TIP3    H242396   6.505   5.074   8.113 -0.2690 -0.7239  0.5747
 6921TIP3   OH242397   4.752   3.779   2.993  0.3935  0.4032 -0.3048
 6921TIP3    H142398   4.748   3.696   3.041 -0.4118  0.5005 -0.2019
 6921TIP3    H242399   4.664   3.792   2.960  0.8466  0.5204 -1.5140
 6922TIP3   OH242400   2.177   0.999   8.645 -0.1155 -0.1210 -0.0308
 6922TIP3    H142401   2.158   0.917   8.600 -0.1962 -0.3809  0.4721
 6922TIP3    H242402   2.110   1.060   8.615 -0.2590 -0.3361 -0.1478
 6923TIP3   OH242403   0.064   0.423   1.726 -0.3462  0.1208 -0.0621
 6923TIP3    H142404   0.116   0.474   1.665 -0.7123 -0.6868 -1.0854
 6923TIP3    H242405  -0.001   0.379   1.671 -0.7023 -0.6136  0.9117
 6924TIP3   OH242406   2.774   3.550   8.750 -0.2878 -0.1382 -0.2073
 6924TIP3    H142407   2.714   3.625   8.755  1.8299  1.6115  0.9146
 6924TIP3    H242408   2.857   3.588   8.722  0.5865 -2.3050 -0.7484
 6925TIP3   OH242409   1.642   0.110   8.703  0.5795  0.0008  0.5284
 6925TIP3    H142410   1.707   0.040   8.701 -0.7806 -1.3654  1.4337
 6925TIP3    H242411   1.621   0.121   8.796 -2.9362 -2.1165  0.1953
 6926TIP3   OH242412   0.029   5.724   0.567 -0.1448  0.1770  0.0245
 6926TIP3    H142413   0.062   5.634   0.574  1.6578  0.6094 -1.9096
 6926TIP3    H242414   0.098   5.771   0.521 -1.6560  2.2449 -0.2668
 6927TIP3   OH242415   0.758   0.922   8.682 -0.5592  0.7473 -0.0719
 6927TIP3    H142416   0.812   0.930   8.604  2.6995 -1.9988  1.6317
 6927TIP3    H242417   0.721   0.834   8.678 -0.2905  0.5274  1.4126
 6928TIP3   OH242418   2.747   2.988   2.460 -0.4318  0.4371 -0.1676
 6928TIP3    H142419   2.656   2.961   2.453 -0.4928  0.1785  1.4497
 6928TIP3    H242420   2.759   3.011   2.552  0.7891  1.7275 -0.6099
 6929TIP3   OH242421   0.348   6.273   8.483 -0.2429 -0.2591  0.2791
 6929TIP3    H142422   0.381   6.190   8.518  0.0291 -0.8670 -1.3417
 6929TIP3    H242423   0.270   6.292   8.534 -0.1504 -1.3731  0.8510
 6930TIP3   OH242424   4.992   1.926   8.152  0.0409 -0.3287 -0.2620
 6930TIP3    H142425   5.064   1.900   8.210  0.2654  0.4157 -0.1859
 6930TIP3    H242426   5.010   2.018   8.133 -1.5514  0.2377  0.7521
 6931TIP3   OH242427   6.006   3.579   3.445  0.0659 -0.1058 -0.0248
 6931TIP3    H142428   5.985   3.644   3.378 -2.2751 -0.5696  0.1891
 6931TIP3    H242429   5.926   3.571   3.497  0.8886 -1.8470  1.0637
 6932TIP3   OH242430   0.063   5.083   8.480  0.2170  0.1212  0.4992
 6932TIP3    H142431   0.132   5.059   8.542 -0.3284  0.0130  1.0773
 6932TIP3    H242432   0.025   4.999   8.453 -0.8428  0.2456  1.5372
 6933TIP3   OH242433   3.338   5.727   2.798 -0.0688  0.1577 -0.7083
 6933TIP3    H142434   3.335   5.809   2.848  1.8675 -0.3284  0.2836
 6933TIP3    H242435   3.411   5.738   2.738  0.4512 -0.9833 -0.2950
 6934TIP3   OH242436   1.972   3.870   0.937 -0.2353 -0.2737 -0.2245
 6934TIP3    H142437   2.034   3.887   0.866 -0.0944  0.2817  0.0320
 6934TIP3    H242438   1.946   3.778   0.923  1.6870 -0.9823  0.4717
 6935TIP3   OH242439   5.320   0.021   1.517 -0.0368 -0.0005  0.9711
 6935TIP3    H142440   5.278   0.003   1.601 -1.8282 -1.7476 -0.2086
 6935TIP3    H242441   5.405  -0.021   1.522 -0.0914 -0.0028  1.9305
 6936TIP3   OH242442   3.960   2.464   0.967  0.3965 -0.4114  0.5196
 6936TIP3    H142443   3.941   2.445   1.059 -0.1004  1.6991  0.8920
 6936TIP3    H242444   3.933   2.554   0.954  1.8628 -0.1620 -1.3233
 6937TIP3   OH242445   5.513   1.550   2.079  0.4976 -0.1126  0.0849
 6937TIP3    H142446   5.469   1.635   2.071 -1.0951 -1.0704 -2.3959
 6937TIP3    H242447   5.468   1.506   2.151  0.5598  0.6939  0.6243
 6938TIP3   OH242448   0.946   3.968   2.002  0.6055 -0.0094  0.2650
 6938TIP3    H142449   0.906   3.955   1.916  1.0784 -1.5628  0.2443
 6938TIP3    H242450   1.025   4.019   1.985 -0.3900  1.5606  0.0887
 6939TIP3   OH242451   0.247   0.278   1.389  0.5159  0.5108 -0.0807
 6939TIP3    H142452   0.221   0.362   1.425 -0.6956  0.3868 -0.6145
 6939TIP3    H242453   0.318   0.248   1.446  0.4111  1.5084  0.5964
 6940TIP3   OH242454   4.365   5.628   0.824  1.0942 -0.3276  0.1989
 6940TIP3    H142455   4.322   5.709   0.797  2.4770 -0.3553 -2.4560
 6940TIP3    H242456   4.427   5.656   0.892 -0.9650  0.1370  2.0116
 6941TIP3   OH242457   0.119   5.672   7.646  0.4848 -0.0725 -0.0647
 6941TIP3    H142458   0.173   5.655   7.569  0.6377  0.4814 -0.0883
 6941TIP3    H242459   0.181   5.674   7.719  0.9214  2.9889 -0.3864
 6942TIP3   OH242460   4.469   5.641   2.757  0.6854  0.3338  0.5003
 6942TIP3    H142461   4.469   5.545   2.757  3.1858  0.2695 -0.4153
 6942TIP3    H242462   4.487   5.666   2.847  0.0664 -0.0303  0.7334
 6943TIP3   OH242463   5.121   3.235   1.266 -0.2734  0.1828 -0.3234
 6943TIP3    H142464   5.094   3.166   1.204 -0.2693  0.0175 -0.1427
 6943TIP3    H242465   5.096   3.201   1.352 -0.0524  0.3024 -0.2104
 6944TIP3   OH242466   1.720   1.610   2.266  0.1810 -0.2770  0.0351
 6944TIP3    H142467   1.741   1.644   2.353 -0.1187 -0.0723  0.0302
 6944TIP3    H242468   1.745   1.681   2.206  4.6033 -1.9698 -0.5090
 6945TIP3   OH242469   4.707   0.405   0.849 -0.4866 -0.3353  0.2775
 6945TIP3    H142470   4.771   0.409   0.779 -0.3211  3.9095  0.4305
 6945TIP3    H242471   4.623   0.417   0.806 -0.5101  0.8452  0.6097
 6946TIP3   OH242472   4.945   1.460   3.398 -0.3176 -0.2292  0.7990
 6946TIP3    H142473   4.881   1.472   3.328 -0.0906  0.1971  0.6628
 6946TIP3    H242474   4.918   1.379   3.442  0.5930 -1.5381 -0.9335
 6947TIP3   OH242475   5.142   6.540   2.785 -0.6466 -0.2565  0.4332
 6947TIP3    H142476   5.152   6.520   2.878 -0.2253  1.3368  0.7619
 6947TIP3    H242477   5.063   6.594   2.779 -0.6613 -0.3268 -0.1277
 6948TIP3   OH242478   3.027   2.226   0.537  0.6262  0.2481 -0.6277
 6948TIP3    H142479   3.076   2.144   0.542  1.4429  0.7214 -0.6923
 6948TIP3    H242480   3.008   2.237   0.444 -2.0723 -1.3356 -0.3439
 6949TIP3   OH242481   2.496   6.221   2.263  0.3819 -0.0820  0.0959
 6949TIP3    H142482   2.434   6.229   2.191 -0.8890  1.8824  1.2826
 6949TIP3    H242483   2.571   6.274   2.236  0.2337  0.0369 -0.0854
 6950TIP3   OH242484   1.100   4.523   8.519 -0.0505 -0.2792  0.0347
 6950TIP3    H142485   1.098   4.612   8.555  1.5732 -0.3529  0.4121
 6950TIP3    H242486   1.014   4.511   8.478 -0.7344  1.0144  1.0236
 6951TIP3   OH242487   6.763   3.137   8.113  0.1449  0.1685  0.0471
 6951TIP3    H142488   6.685   3.088   8.087  0.5014  0.0668 -0.8658
 6951TIP3    H242489   6.743   3.168   8.202 -0.3763 -1.0113  0.3660
 6952TIP3   OH242490   3.412   5.457   2.046  0.2852  0.5287  0.4897
 6952TIP3    H142491   3.497   5.499   2.057 -0.2898  1.6089  0.9282
 6952TIP3    H242492   3.419   5.376   2.096  0.9638  0.7431  0.7520
 6953TIP3   OH242493   2.803   5.526   1.495  0.4062 -0.4994  0.0443
 6953TIP3    H142494   2.741   5.541   1.424 -0.0470  2.2281  0.8927
 6953TIP3    H242495   2.888   5.522   1.452  0.0616  0.3886 -0.7671
 6954TIP3   OH242496   3.124   3.401   7.542  0.6337  0.3909 -0.0770
 6954TIP3    H142497   3.085   3.323   7.502  0.6502  0.2497  0.1809
 6954TIP3    H242498   3.178   3.367   7.613 -0.2592  0.7023  0.7748
 6955TIP3   OH242499   5.915   2.582   2.536  0.6165  0.6433  0.1456
 6955TIP3    H142500   5.935   2.669   2.502  1.2074 -0.6068 -3.1168
 6955TIP3    H242501   5.848   2.548   2.477  2.0340 -1.9059 -0.1584
 6956TIP3   OH242502   2.751   5.204   1.280  0.1331 -0.5748 -0.3208
 6956TIP3    H142503   2.690   5.251   1.224 -0.5713 -2.3798 -1.1396
 6956TIP3    H242504   2.742   5.245   1.366 -2.4567 -0.9297 -0.3491
 6957TIP3   OH242505   4.709   0.883   2.842  0.7286  0.2332  0.2628
 6957TIP3    H142506   4.682   0.974   2.854 -0.5893 -0.1776  0.6458
 6957TIP3    H242507   4.643   0.832   2.890  2.2303 -0.8669  1.2393
 6958TIP3   OH242508   1.225   2.108   8.223  0.1768 -0.2297  0.4708
 6958TIP3    H142509   1.195   2.082   8.137 -0.2445  0.2784  0.4564
 6958TIP3    H242510   1.169   2.183   8.246 -0.2451 -0.8334  1.5039
 6959TIP3   OH242511   1.823   5.862   8.271  0.4469  0.7018 -0.2633
 6959TIP3    H142512   1.751   5.923   8.287  0.2710  0.7433 -1.1886
 6959TIP3    H242513   1.847   5.831   8.359 -0.5130  0.8897  0.0803
 6960TIP3   OH242514   1.244   6.480   1.093 -0.3640  0.4310 -0.2386
 6960TIP3    H142515   1.319   6.491   1.035  0.3091  1.8381  0.8560
 6960TIP3    H242516   1.212   6.569   1.108 -0.0874  0.1944  2.0736
 6961TIP3   OH242517   6.659   6.116   3.436 -0.5032  0.1924 -0.3357
 6961TIP3    H142518   6.710   6.069   3.502 -0.9245 -0.4932 -0.4910
 6961TIP3    H242519   6.690   6.083   3.352 -2.8276 -2.0609 -0.4199
 6962TIP3   OH242520   4.789   5.094   0.031  0.4374  0.2301  0.3036
 6962TIP3    H142521   4.847   5.140  -0.029 -1.4774  1.7467 -0.4859
 6962TIP3    H242522   4.743   5.030  -0.024 -2.6154  2.8086 -0.4102
 6963TIP3   OH242523   2.219   2.781   1.625  0.4210  0.2390 -0.0655
 6963TIP3    H142524   2.126   2.764   1.609  0.5243  0.2020 -0.6356
 6963TIP3    H242525   2.232   2.872   1.599  0.4907  0.3253  0.2646
 6964TIP3   OH242526   0.053   5.507   1.524 -0.0835 -0.0501  0.0176
 6964TIP3    H142527   0.122   5.448   1.495 -0.3039 -0.1767 -0.2531
 6964TIP3    H242528   0.066   5.587   1.472 -1.7558 -1.0090 -2.0469
 6965TIP3   OH242529   2.199   2.573   6.894 -0.0220 -0.1359  0.8597
 6965TIP3    H142530   2.197   2.667   6.876 -1.6243 -0.3116  0.0400
 6965TIP3    H242531   2.138   2.561   6.966 -0.0232 -0.6015  0.7825
 6966TIP3   OH242532   0.032   4.254   3.249  0.3599 -0.0359  1.1589
 6966TIP3    H142533   0.047   4.261   3.343 -0.4916  1.0563  1.2366
 6966TIP3    H242534   0.047   4.343   3.216 -0.7717 -0.0723  0.4932
 6967TIP3   OH242535   0.593   4.972   8.392  0.1525 -0.2314  0.1901
 6967TIP3    H142536   0.610   5.016   8.475  0.2548  0.0181  0.0409
 6967TIP3    H242537   0.592   4.879   8.413 -1.2642 -0.1266  0.7295
 6968TIP3   OH242538   0.272   5.688   2.848  0.2629 -0.1291  0.1195
 6968TIP3    H142539   0.255   5.677   2.754  0.1918  1.5992 -0.1149
 6968TIP3    H242540   0.255   5.603   2.886  1.5605 -1.2522 -1.6214
 6969TIP3   OH242541   3.868   5.944   0.971  0.3301 -0.0070 -0.7246
 6969TIP3    H142542   3.820   6.017   0.933 -0.1563  1.0248  1.6739
 6969TIP3    H242543   3.800   5.878   0.990  0.4001 -0.0536 -0.6340
 6970TIP3   OH242544   5.977   0.760   7.049 -0.4209 -0.0717 -0.4067
 6970TIP3    H142545   6.045   0.807   7.001  1.3884 -0.3715  1.6750
 6970TIP3    H242546   5.973   0.804   7.134 -0.0016 -2.4068  0.9243
 6971TIP3   OH242547   0.216   4.531   8.143  1.3066  0.0374 -0.7449
 6971TIP3    H142548   0.249   4.464   8.083 -0.3208  0.8437 -2.6342
 6971TIP3    H242549   0.152   4.580   8.092 -1.7442 -0.5019  2.2261
 6972TIP3   OH242550   4.192   3.171   3.624  0.1868 -0.1731  0.2879
 6972TIP3    H142551   4.117   3.225   3.649  1.1140 -0.2713  3.7661
 6972TIP3    H242552   4.264   3.232   3.615  0.2186 -0.3361 -0.5925
 6973TIP3   OH242553   2.955   2.608   0.297 -0.3735  0.2855  0.0183
 6973TIP3    H142554   2.901   2.687   0.298 -0.6298  0.1160 -0.1628
 6973TIP3    H242555   3.004   2.614   0.216 -1.5613 -0.5053 -0.7983
 6974TIP3   OH242556   5.804   3.660   1.947  0.0545  0.1203  0.6854
 6974TIP3    H142557   5.856   3.621   2.017  2.2992 -1.5914 -1.7455
 6974TIP3    H242558   5.759   3.586   1.907 -0.0339  0.8412 -0.5893
 6975TIP3   OH242559   6.846   1.455   1.110 -0.2643  0.6209  0.0546
 6975TIP3    H142560   6.789   1.395   1.062 -0.3262 -0.2028  1.1237
 6975TIP3    H242561   6.786   1.516   1.153 -0.2298  1.0586 -0.5048
 6976TIP3   OH242562   2.446   0.648   0.107 -0.1741  0.0327 -0.0525
 6976TIP3    H142563   2.414   0.735   0.087 -0.1740 -0.2013 -1.1168
 6976TIP3    H242564   2.418   0.594   0.033 -0.9847 -1.0821  1.0150
 6977TIP3   OH242565   5.945   5.564   7.724  0.4446 -0.4080  0.6241
 6977TIP3    H142566   5.864   5.518   7.703  1.3812 -1.5590 -0.6519
 6977TIP3    H242567   6.006   5.495   7.748  1.1243  0.4213  1.3409
 6978TIP3   OH242568   5.135   1.018   7.792 -0.2659 -0.4347 -0.4669
 6978TIP3    H142569   5.051   0.981   7.820 -0.2119  0.9482  1.7305
 6978TIP3    H242570   5.196   0.993   7.862  0.6253  0.5247 -0.8797
 6979TIP3   OH242571   2.516   0.743   1.106  0.4901 -0.4262  0.0948
 6979TIP3    H142572   2.567   0.738   1.187  0.6845  0.3014  0.0226
 6979TIP3    H242573   2.552   0.674   1.051  1.7175  0.3769 -0.1276
 6980TIP3   OH242574   4.374   2.008   1.718  0.0958 -0.3743  0.2162
 6980TIP3    H142575   4.333   1.931   1.757  1.0057 -0.8162  0.3374
 6980TIP3    H242576   4.376   1.990   1.624 -2.2032  0.7409 -0.1198
 6981TIP3   OH242577   4.708   1.688   0.703  0.1161  0.1372 -0.3454
 6981TIP3    H142578   4.754   1.638   0.770 -0.8409  1.8170  1.6702
 6981TIP3    H242579   4.719   1.779   0.729  0.0481  0.9163 -2.7480
 6982TIP3   OH242580   1.336   2.635   1.476  0.1658  0.8198 -0.0137
 6982TIP3    H142581   1.357   2.684   1.397 -0.3473  0.0868 -0.6175
 6982TIP3    H242582   1.331   2.544   1.447  1.8557  0.2834  1.2117
 6983TIP3   OH242583   5.163   6.264   7.963  0.2248 -0.1670 -0.0137
 6983TIP3    H142584   5.097   6.328   7.988  0.4302 -0.8351  2.4965
 6983TIP3    H242585   5.114   6.194   7.920 -0.3712  0.4113 -0.2824
 6984TIP3   OH242586   2.594   5.869   1.581 -0.5330 -0.4982  0.7457
 6984TIP3    H142587   2.593   5.938   1.647  0.1969 -0.1332  0.3753
 6984TIP3    H242588   2.621   5.790   1.629 -0.4158 -0.3263  0.9598
 6985TIP3   OH242589   6.198   2.134   1.883  0.1369  0.2394  0.1902
 6985TIP3    H142590   6.259   2.066   1.909 -0.0995  0.2081  0.6719
 6985TIP3    H242591   6.142   2.093   1.818  0.4206  0.1739 -0.0141
 6986TIP3   OH242592   3.005   1.397   2.828  0.0896 -0.2512 -0.1779
 6986TIP3    H142593   3.079   1.446   2.863 -0.6807  0.6708  0.1995
 6986TIP3    H242594   2.988   1.330   2.895  1.6791 -1.6322 -1.0887
 6987TIP3   OH242595   2.496   2.066   1.850 -0.6838 -0.1037 -0.1282
 6987TIP3    H142596   2.569   2.065   1.912  0.1880 -0.4868 -1.1257
 6987TIP3    H242597   2.449   1.984   1.868 -1.2733  0.4382  0.9407
 6988TIP3   OH242598   1.960   1.173   8.167  0.4469  0.4462  0.6772
 6988TIP3    H142599   1.975   1.252   8.219 -0.2269 -0.8791  3.0149
 6988TIP3    H242600   2.022   1.109   8.202 -0.5985 -0.7309  0.4538
 6989TIP3   OH242601   0.165   3.823   2.266  0.2142  0.1535 -0.0337
 6989TIP3    H142602   0.122   3.793   2.346  1.5674  1.8150  1.3988
 6989TIP3    H242603   0.212   3.746   2.234  0.5621 -0.2630  1.3983
 6990TIP3   OH242604   3.869   3.304   8.759  0.0445 -0.2134 -0.7471
 6990TIP3    H142605   3.783   3.339   8.781  0.2154 -0.4071  0.2849
 6990TIP3    H242606   3.918   3.380   8.727  0.7005  0.7844  2.2935
 6991TIP3   OH242607   5.739   3.466   1.790  0.3334  0.6468 -0.3268
 6991TIP3    H142608   5.805   3.422   1.736 -0.5904 -0.9941 -0.1759
 6991TIP3    H242609   5.673   3.495   1.728  0.0844  0.2398 -0.2555
 6992TIP3   OH242610   3.477   3.914   1.287 -0.2506 -0.3949  0.8748
 6992TIP3    H142611   3.542   3.985   1.295  0.2509 -0.6475 -0.6670
 6992TIP3    H242612   3.448   3.919   1.196 -1.4647 -1.1146  1.2123
 6993TIP3   OH242613   3.380   3.836   2.865 -0.0170 -0.0977 -0.1128
 6993TIP3    H142614   3.403   3.838   2.958 -0.9117 -0.7286  0.1377
 6993TIP3    H242615   3.333   3.753   2.854  1.2564 -0.6722 -1.4265
 6994TIP3   OH242616   2.386   6.852   2.225  0.6830  0.1092  0.0525
 6994TIP3    H142617   2.390   6.854   2.129  1.2923 -0.6650  0.0468
 6994TIP3    H242618   2.352   6.765   2.245  0.5286  0.2803  0.5438
 6995TIP3   OH242619   3.754   4.692   8.168  0.1502 -0.2170  0.8584
 6995TIP3    H142620   3.813   4.673   8.096 -2.0629 -1.1850 -0.8050
 6995TIP3    H242621   3.748   4.788   8.170  0.0839 -0.1833 -0.3954
 6996TIP3   OH242622   5.944   1.798   3.136  0.3026  0.7269  0.3101
 6996TIP3    H142623   5.859   1.835   3.116 -0.0677  0.1218  0.7382
 6996TIP3    H242624   5.937   1.767   3.227  0.9403  0.5913  0.3217
 6997TIP3   OH242625   2.251   2.456   7.502  0.6395 -0.1934  0.1048
 6997TIP3    H142626   2.269   2.545   7.532  0.6840 -0.7504  1.8281
 6997TIP3    H242627   2.227   2.466   7.410  0.8560  1.5706  0.2114
 6998TIP3   OH242628   2.917   0.878   8.382 -0.2367 -0.3156 -0.0072
 6998TIP3    H142629   2.854   0.944   8.412  0.1876 -0.0553  0.3348
 6998TIP3    H242630   2.992   0.888   8.441 -0.3278 -1.3808  0.3144
 6999TIP3   OH242631   1.945   6.851   2.591 -0.2015  0.5649  0.1280
 6999TIP3    H142632   1.947   6.917   2.522 -1.2509 -1.2278 -1.7308
 6999TIP3    H242633   1.852   6.829   2.600  0.1854 -1.4243 -0.1599
 7000TIP3   OH242634   2.407   5.512   7.717  0.0942 -0.0158 -0.4235
 7000TIP3    H142635   2.362   5.449   7.661  0.4150 -1.5102  0.9266
 7000TIP3    H242636   2.454   5.458   7.781  1.8398  1.5433 -0.2877
 7001TIP3   OH242637   0.093   6.040   1.820  0.0378  0.3259 -0.0326
 7001TIP3    H142638   0.026   6.017   1.755  0.0223 -0.5266  0.2676
 7001TIP3    H242639   0.093   5.966   1.881 -1.6268  2.1432  2.3480
 7002TIP3   OH242640   5.637   0.447   8.062  0.3138  0.5989 -0.4398
 7002TIP3    H142641   5.624   0.370   8.118  1.0721  0.6007 -0.2558
 7002TIP3    H242642   5.674   0.411   7.981  0.0856  0.7040 -0.5915
 7003TIP3   OH242643   1.036   3.690   1.475  0.6304 -0.1898  0.4404
 7003TIP3    H142644   0.958   3.656   1.519 -0.9070  2.4636 -0.0118
 7003TIP3    H242645   1.007   3.704   1.385  1.4838  1.2625  0.3771
 7004TIP3   OH242646   6.686   4.051   1.615  0.5229 -0.1523  0.2031
 7004TIP3    H142647   6.720   3.964   1.634 -2.7410 -1.6586 -0.1605
 7004TIP3    H242648   6.712   4.068   1.524  0.0244 -1.4035 -0.1914
 7005TIP3   OH242649   3.762   6.731   7.502  0.3677 -0.0264  0.3231
 7005TIP3    H142650   3.742   6.788   7.576 -0.0799  1.3470 -0.8053
 7005TIP3    H242651   3.824   6.667   7.537 -0.0327  0.4126  1.9359
 7006TIP3   OH242652   1.923   4.389   0.802 -0.6797  0.0283 -0.4415
 7006TIP3    H142653   1.873   4.348   0.873  0.5388  0.7853  0.9120
 7006TIP3    H242654   2.009   4.407   0.841  0.8716 -1.6715 -2.8124
 7007TIP3   OH242655   2.169   3.099   0.279 -0.1505  0.3299  0.4321
 7007TIP3    H142656   2.125   3.142   0.352  1.7058 -0.5952  2.1735
 7007TIP3    H242657   2.216   3.170   0.234 -0.5477  0.7557  0.6764
 7008TIP3   OH242658   5.600   2.248   0.911 -0.3678 -0.0665 -0.1741
 7008TIP3    H142659   5.610   2.332   0.957 -0.1405  0.5174 -1.2676
 7008TIP3    H242660   5.688   2.224   0.885 -0.5828  0.0581 -1.0619
 7009TIP3   OH242661   2.899   0.571   0.313  0.3434  0.2398  0.1954
 7009TIP3    H142662   2.902   0.503   0.246 -2.0947  0.3999 -0.1436
 7009TIP3    H242663   2.854   0.644   0.272 -0.7970  0.5147  1.8303
 7010TIP3   OH242664   5.750   4.513   1.658  0.4324 -0.2648  0.1040
 7010TIP3    H142665   5.703   4.569   1.596  0.1690 -0.7373 -0.1384
 7010TIP3    H242666   5.810   4.571   1.704 -1.8740  0.8087  1.9664
 7011TIP3   OH242667   3.155   1.019   7.934 -0.2428  0.2671  0.0669
 7011TIP3    H142668   3.094   1.067   7.877  0.3027  1.6628  0.6077
 7011TIP3    H242669   3.240   1.029   7.891 -0.3459 -1.8102 -0.7692
 7012TIP3   OH242670   5.542   3.480   1.602 -0.0639  0.3757 -0.3140
 7012TIP3    H142671   5.517   3.416   1.536 -0.6245  0.0650  0.1941
 7012TIP3    H242672   5.562   3.560   1.552  0.0575 -0.0165 -0.8970
 7013TIP3   OH242673   1.988   2.578   1.608 -0.0090  0.4846  0.8657
 7013TIP3    H142674   2.056   2.512   1.595 -1.7336 -1.3234  0.4147
 7013TIP3    H242675   1.971   2.577   1.702  0.0414  0.3355  0.8742
 7014TIP3   OH242676   1.598   5.141   2.609  0.5395 -0.1784  0.2273
 7014TIP3    H142677   1.609   5.048   2.627  0.7553  0.2158  2.4322
 7014TIP3    H242678   1.637   5.185   2.684 -0.0348  1.6992 -0.4993
 7015TIP3   OH242679   1.856   1.575   8.238  0.2239 -0.3190  0.1166
 7015TIP3    H142680   1.860   1.655   8.290 -1.2488  0.0632 -0.3043
 7015TIP3    H242681   1.839   1.605   8.148  2.2184 -0.9878 -0.5424
 7016TIP3   OH242682   1.918   1.791   8.620 -0.2459 -0.3430  0.2097
 7016TIP3    H142683   1.937   1.833   8.704 -1.2488 -2.2325  1.4277
 7016TIP3    H242684   1.824   1.805   8.607  0.1067  0.9774 -1.2430
 7017TIP3   OH242685   0.959   2.190   8.626 -0.1812 -0.2530  0.1947
 7017TIP3    H142686   0.970   2.095   8.617 -3.2387 -0.5544 -1.8339
 7017TIP3    H242687   1.007   2.227   8.551 -0.2541 -0.3239  0.1132
 7018TIP3   OH242688   0.646   1.017   2.564 -0.1452 -0.3364 -0.7624
 7018TIP3    H142689   0.654   0.968   2.481 -1.7776 -1.5348 -0.2836
 7018TIP3    H242690   0.556   1.051   2.562  0.5281  1.5357 -0.4527
 7019TIP3   OH242691   3.351   0.757   0.616 -0.2065 -0.4947 -0.0112
 7019TIP3    H142692   3.377   0.679   0.665 -3.3358 -0.0119  2.7699
 7019TIP3    H242693   3.277   0.728   0.563  1.4098 -0.3277 -2.5131
 7020TIP3   OH242694   0.109   3.507   2.781  0.2234  0.6855 -0.2060
 7020TIP3    H142695   0.068   3.426   2.753  0.4387  0.4629  0.1230
 7020TIP3    H242696   0.132   3.493   2.873  1.0780  0.7876 -0.3916
 7021TIP3   OH242697   0.420   0.775   8.310 -0.6179  0.3988  0.4368
 7021TIP3    H142698   0.383   0.863   8.322 -3.0941 -0.5983  0.6259
 7021TIP3    H242699   0.410   0.757   8.217 -0.3769  0.1903  0.4496
 7022TIP3   OH242700   5.230   6.839   1.799  0.2646  0.5901  0.1803
 7022TIP3    H142701   5.224   6.746   1.777 -0.1788  0.8478 -0.8646
 7022TIP3    H242702   5.195   6.846   1.887 -0.1774 -0.1642  0.0704
 7023TIP3   OH242703   1.800   2.325   2.159  0.2355 -0.4702  0.2283
 7023TIP3    H142704   1.893   2.329   2.180 -0.3314  1.2215  3.0380
 7023TIP3    H242705   1.762   2.401   2.204 -2.6392 -1.6536  0.0349
 7024TIP3   OH242706   5.309   4.500   2.236  0.1624 -0.4473 -0.0372
 7024TIP3    H142707   5.390   4.511   2.287 -0.5919  0.2503  1.0703
 7024TIP3    H242708   5.339   4.483   2.147  1.5504  1.2560  0.0295
 7025TIP3   OH242709   1.062   2.187   0.866  0.3542  0.2665 -0.5376
 7025TIP3    H142710   1.100   2.275   0.865  3.4887 -0.9541 -0.1822
 7025TIP3    H242711   1.135   2.129   0.842 -1.4024 -2.3054 -0.0723
 7026TIP3   OH242712   6.121   2.826   1.134  0.4930  0.3493  0.6115
 7026TIP3    H142713   6.089   2.916   1.130  1.1262  0.5813  0.6820
 7026TIP3    H242714   6.189   2.828   1.201  1.6889  0.1977 -0.5573
 7027TIP3   OH242715   2.324   1.747   0.211 -0.2686 -0.4402 -0.2209
 7027TIP3    H142716   2.332   1.690   0.287  0.0898 -0.2859 -0.1419
 7027TIP3    H242717   2.396   1.721   0.154 -0.3113 -0.2981 -0.3404
 7028TIP3   OH242718   2.321   5.207   2.537 -0.6184  0.4360  0.3094
 7028TIP3    H142719   2.394   5.235   2.593 -0.3466  1.5882 -0.5714
 7028TIP3    H242720   2.362   5.191   2.452 -1.2064 -0.1448  0.1345
 7029TIP3   OH242721   6.685   5.168   1.195  0.2805 -0.5872  0.2492
 7029TIP3    H142722   6.627   5.120   1.136 -0.2991 -0.4461  0.7045
 7029TIP3    H242723   6.753   5.104   1.218 -0.4592 -1.1877  0.8173
 7030TIP3   OH242724   0.998   3.291   8.529  0.0982 -0.1269  0.1703
 7030TIP3    H142725   1.051   3.288   8.450  1.0154 -1.0749  0.7866
 7030TIP3    H242726   0.909   3.270   8.500  0.3736 -0.2041 -0.6312
 7031TIP3   OH242727   1.469   6.380   0.547 -0.9487 -0.5257  0.4372
 7031TIP3    H142728   1.543   6.438   0.527 -0.2288 -1.8712 -1.0330
 7031TIP3    H242729   1.510   6.294   0.563 -2.1414 -1.1388  0.2895
 7032TIP3   OH242730   2.098   0.988   8.299 -0.0503 -0.1669 -0.2799
 7032TIP3    H142731   2.086   0.909   8.352  0.3920 -0.8120 -1.1206
 7032TIP3    H242732   2.185   0.977   8.260  0.0682  0.8027 -0.3049
 7033TIP3   OH242733   3.647   1.322   0.986 -0.1692 -0.0761 -0.0801
 7033TIP3    H142734   3.677   1.354   0.901 -0.1892 -0.4910 -0.2469
 7033TIP3    H242735   3.705   1.248   1.005  0.7719  0.8852  0.9389
 7034TIP3   OH242736   5.367   5.237   2.370 -0.5337 -0.2876  0.2668
 7034TIP3    H142737   5.300   5.301   2.395  0.2849  0.5156  0.4600
 7034TIP3    H242738   5.433   5.243   2.440  0.2888 -0.2419 -0.5006
 7035TIP3   OH242739   4.004   1.918   8.440  0.6388  0.3021 -0.1796
 7035TIP3    H142740   4.006   1.831   8.400  1.7433  0.3064 -0.1481
 7035TIP3    H242741   3.921   1.919   8.489 -0.9958  0.4811 -2.7955
 7036TIP3   OH242742   3.470   1.729   1.927 -0.0539 -0.0249  0.4483
 7036TIP3    H142743   3.390   1.725   1.875 -1.0618  0.3156  1.8885
 7036TIP3    H242744   3.491   1.637   1.946 -2.9609 -0.2138  4.0668
 7037TIP3   OH242745   5.482   1.201   8.393 -0.0980  0.2098 -0.5773
 7037TIP3    H142746   5.467   1.237   8.306 -1.7049 -1.2690 -0.9709
 7037TIP3    H242747   5.489   1.107   8.379  0.2759  0.0094  0.8184
 7038TIP3   OH242748   3.843   1.577   1.922 -0.3826 -0.0431  0.4539
 7038TIP3    H142749   3.801   1.614   2.000 -1.4001  0.2010 -0.1998
 7038TIP3    H242750   3.798   1.618   1.848  0.0283 -0.8758 -0.2800
 7039TIP3   OH242751   6.585   1.379   2.615  0.0359  0.0707  0.0146
 7039TIP3    H142752   6.545   1.445   2.560 -0.4457  0.7809  1.1922
 7039TIP3    H242753   6.635   1.428   2.681  2.0395 -0.7642 -0.7811
 7040TIP3   OH242754   4.745   2.962   1.681  0.0353 -0.1500 -0.1622
 7040TIP3    H142755   4.808   2.921   1.739 -0.1014 -0.4248 -0.2071
 7040TIP3    H242756   4.703   2.889   1.635 -2.0603 -0.1927  1.6421
 7041TIP3   OH242757   0.274   1.236   1.113  0.4747 -0.6703 -0.7854
 7041TIP3    H142758   0.231   1.182   1.178 -0.6303  3.0389  1.9087
 7041TIP3    H242759   0.203   1.287   1.073  1.6553  0.8220 -1.0898
 7042TIP3   OH242760   6.762   2.571   2.612  0.5083  0.3472 -0.4286
 7042TIP3    H142761   6.722   2.487   2.588 -0.6053  0.7116  0.0496
 7042TIP3    H242762   6.691   2.620   2.654  1.5719  0.8848  0.8205
 7043TIP3   OH242763   4.200   0.879   0.386  0.0871  0.0181 -0.0096
 7043TIP3    H142764   4.128   0.856   0.445  0.3698 -0.8006  0.0248
 7043TIP3    H242765   4.191   0.974   0.373 -1.8879 -0.2530 -1.1546
 7044TIP3   OH242766   3.434   0.822   8.203 -0.2742 -0.5444  0.2045
 7044TIP3    H142767   3.402   0.887   8.265 -1.7753  0.3936 -1.4762
 7044TIP3    H242768   3.386   0.742   8.225 -0.5866 -0.2983  0.4119
 7045TIP3   OH242769   6.845   4.326   0.154  0.5003  0.0793 -0.0680
 7045TIP3    H142770   6.938   4.309   0.140  0.3184 -1.2827  0.2864
 7045TIP3    H242771   6.828   4.298   0.243 -0.2753  0.2647 -0.1474
 7046TIP3   OH242772   1.629   1.066   0.444 -0.7339 -0.0131 -0.3775
 7046TIP3    H142773   1.566   1.048   0.373 -0.5856  3.4839 -1.6196
 7046TIP3    H242774   1.661   0.980   0.470 -1.9040 -1.5883 -3.5635
 7047TIP3   OH242775   1.519   5.009   8.027  0.5801 -0.0832  0.0793
 7047TIP3    H142776   1.523   4.952   7.950  0.6899  0.7688 -0.5547
 7047TIP3    H242777   1.441   5.062   8.013  1.9028  1.7491 -0.6410
 7048TIP3   OH242778   6.380   6.384   8.388 -0.2162 -0.1805  0.5380
 7048TIP3    H142779   6.367   6.324   8.462 -1.1206  0.1271  0.6421
 7048TIP3    H242780   6.474   6.401   8.388 -0.1762 -0.3111  1.5280
 7049TIP3   OH242781   3.558   5.762   1.465 -0.2702  0.2290 -0.1190
 7049TIP3    H142782   3.627   5.827   1.476 -0.6584  0.5126  0.6709
 7049TIP3    H242783   3.493   5.784   1.532  0.3374 -1.9426  1.2871
 7050TIP3   OH242784   3.519   5.764   8.700  0.0903 -0.4459 -0.5979
 7050TIP3    H142785   3.497   5.778   8.608 -1.2701 -2.2113 -0.5930
 7050TIP3    H242786   3.613   5.783   8.706  0.2457 -0.5404 -2.3956
 7051TIP3   OH242787   5.501   3.248   2.796 -0.3485  0.7062 -0.9685
 7051TIP3    H142788   5.596   3.241   2.801 -0.4716 -2.6694 -0.5917
 7051TIP3    H242789   5.475   3.282   2.881  0.4867  0.0071 -0.4085
 7052TIP3   OH242790   4.693   0.265   1.645 -0.1975  0.3495  0.2876
 7052TIP3    H142791   4.689   0.245   1.551 -2.2341 -0.3474  0.4925
 7052TIP3    H242792   4.679   0.360   1.649 -0.0932  0.3858 -0.1046
 7053TIP3   OH242793   3.043   0.193   0.254  0.2306 -0.1753  0.4838
 7053TIP3    H142794   3.129   0.155   0.234  0.4008  0.3019  0.3056
 7053TIP3    H242795   3.033   0.265   0.192  0.5832  1.0524  1.7733
 7054TIP3   OH242796   0.592   0.344   0.790  0.1545  0.3688  0.3855
 7054TIP3    H142797   0.665   0.354   0.850  0.1212  0.6934  0.3725
 7054TIP3    H242798   0.548   0.264   0.819  0.2392  0.4292  0.6829
 7055TIP3   OH242799   5.035   5.149   8.098  0.8682 -0.2054 -0.1964
 7055TIP3    H142800   5.067   5.152   8.008 -0.9810  0.7804 -0.8727
 7055TIP3    H242801   5.011   5.058   8.113 -0.5744 -0.0511 -1.3916
 7056TIP3   OH242802   0.664   1.524   8.681 -0.0001  0.4941  0.6745
 7056TIP3    H142803   0.639   1.616   8.684  2.0270  1.0898  0.7979
 7056TIP3    H242804   0.609   1.485   8.613  0.1382  2.1405 -0.4210
 7057TIP3   OH242805   4.559   3.245   2.061 -0.2052 -0.3341 -0.3937
 7057TIP3    H142806   4.554   3.164   2.011 -0.6941 -0.4647 -0.1366
 7057TIP3    H242807   4.626   3.228   2.127 -0.7737 -0.7626  0.0780
 7058TIP3   OH242808   5.721   2.608   0.570 -0.5345 -0.7367  0.1672
 7058TIP3    H142809   5.653   2.546   0.544  0.0945 -1.2680 -0.2451
 7058TIP3    H242810   5.787   2.555   0.614 -1.4959  0.1199  2.8336
 7059TIP3   OH242811   1.925   5.749   0.839  0.1265  0.3026  0.5638
 7059TIP3    H142812   1.841   5.704   0.833  0.4699 -0.2661 -0.0273
 7059TIP3    H242813   1.984   5.685   0.877  0.9304 -0.2187 -1.4590
 7060TIP3   OH242814   5.526   4.373   1.704 -0.0944  0.2919  0.4785
 7060TIP3    H142815   5.613   4.398   1.672 -0.9726  0.6051 -1.8457
 7060TIP3    H242816   5.495   4.450   1.751  0.9558  0.0748  1.5990
 7061TIP3   OH242817   4.051   1.928   7.971  0.2666 -0.5997 -0.4696
 7061TIP3    H142818   4.003   1.880   7.904 -0.7514 -0.0702 -0.1504
 7061TIP3    H242819   3.983   1.963   8.028  1.0204  0.5422 -0.2386
 7062TIP3   OH242820   1.455   2.656   8.002 -0.1228 -0.4245 -0.3726
 7062TIP3    H142821   1.369   2.617   7.986 -0.0084 -0.9488  0.2489
 7062TIP3    H242822   1.442   2.750   7.988 -1.3510 -0.1909  1.7959
 7063TIP3   OH242823   5.719   4.395   7.365 -0.0325  0.4807  0.6308
 7063TIP3    H142824   5.799   4.342   7.364  0.6991  1.5381 -1.0926
 7063TIP3    H242825   5.713   4.426   7.455  0.4499 -1.1223  1.2566
 7064TIP3   OH242826   1.475   0.572   1.887  0.0320 -0.1087  0.0511
 7064TIP3    H142827   1.566   0.577   1.914  0.2768 -3.2559  0.1133
 7064TIP3    H242828   1.434   0.649   1.927  2.4104  0.8477  0.8301
 7065TIP3   OH242829   5.792   4.049   1.742  0.0164  0.7513  0.2667
 7065TIP3    H142830   5.818   3.977   1.800 -0.9115 -0.3246 -0.6007
 7065TIP3    H242831   5.829   4.127   1.783 -0.1788 -0.0242  2.0249
 7066TIP3   OH242832   2.368   2.851   0.177  0.3709 -0.1283 -0.1271
 7066TIP3    H142833   2.373   2.946   0.177  0.2057 -0.1049 -1.3393
 7066TIP3    H242834   2.276   2.832   0.198  0.8093 -0.1009  2.0983
 7067TIP3   OH242835   4.770   1.343   0.826 -0.1148 -0.5410  0.1265
 7067TIP3    H142836   4.786   1.256   0.789  2.2772  0.0078 -0.3249
 7067TIP3    H242837   4.854   1.388   0.817 -0.9484  1.4082  1.4879
 7068TIP3   OH242838   4.675   1.369   7.927 -0.2780 -0.0164 -0.5904
 7068TIP3    H142839   4.642   1.287   7.965  1.4975 -1.3228 -1.7059
 7068TIP3    H242840   4.645   1.367   7.836 -0.8730  0.9692 -0.4224
 7069TIP3   OH242841   3.446   4.266   1.497 -0.0729 -0.0161 -0.7247
 7069TIP3    H142842   3.360   4.284   1.458 -0.0304  3.3097  0.4494
 7069TIP3    H242843   3.426   4.224   1.580 -0.6467  1.3128 -0.1679
 7070TIP3   OH242844   5.145   2.341   8.528  0.3979 -0.6610  0.5718
 7070TIP3    H142845   5.220   2.285   8.546  0.8603  0.6207  3.1230
 7070TIP3    H242846   5.068   2.286   8.544  0.8409 -1.0177  1.5444
 7071TIP3   OH242847   2.871   6.122   7.541  0.2358 -0.3650 -0.0193
 7071TIP3    H142848   2.815   6.136   7.465 -1.3009  0.6258  1.2165
 7071TIP3    H242849   2.947   6.076   7.507 -0.3844  0.0713 -2.1438
 7072TIP3   OH242850   6.776   4.811   7.624 -0.5612 -0.0954 -0.0693
 7072TIP3    H142851   6.786   4.717   7.611 -2.0931 -0.0154 -2.3643
 7072TIP3    H242852   6.741   4.819   7.713  0.8211 -1.5686  0.6508
 7073TIP3   OH242853   2.528   3.982   8.077 -0.5202  0.3282  0.4054
 7073TIP3    H142854   2.500   3.903   8.031  2.0646  0.0389 -0.8703
 7073TIP3    H242855   2.558   4.041   8.007  1.5710  0.7147  1.5438
 7074TIP3   OH242856   0.251   3.504   2.405  0.1798 -0.1502 -0.0012
 7074TIP3    H142857   0.197   3.561   2.460  1.6198  0.7289  0.5574
 7074TIP3    H242858   0.189   3.460   2.347 -1.0140  1.9303 -0.3900
 7075TIP3   OH242859   0.101   3.608   0.512  0.4750 -0.0306  0.5135
 7075TIP3    H142860   0.119   3.680   0.452  0.4161  1.4696  2.2334
 7075TIP3    H242861   0.008   3.591   0.503  0.4861  0.1181  0.1220
 7076TIP3   OH242862   5.780   5.740   1.356 -0.2887  0.4551  0.0264
 7076TIP3    H142863   5.769   5.652   1.393 -0.5253  1.1188  1.6156
 7076TIP3    H242864   5.873   5.758   1.366 -0.1048  0.1220 -0.9723
 7077TIP3   OH242865   4.070   2.761   0.936  0.0810  0.2823  0.5199
 7077TIP3    H142866   4.052   2.720   1.020 -0.3885  1.9990  1.2961
 7077TIP3    H242867   4.155   2.804   0.947  0.7922 -0.8098 -0.4329
 7078TIP3   OH242868   5.146   1.245   3.407 -0.4881 -0.2298  0.0826
 7078TIP3    H142869   5.180   1.332   3.428  0.3419 -0.6369  0.4850
 7078TIP3    H242870   5.079   1.229   3.473 -0.2115 -0.1413  0.3908
 7079TIP3   OH242871   6.743   6.589   2.365  0.0686 -0.3926 -0.2414
 7079TIP3    H142872   6.803   6.660   2.389 -1.9089  1.2306  0.2025
 7079TIP3    H242873   6.697   6.568   2.446 -0.8927 -0.6579 -0.8415
 7080TIP3   OH242874   5.742   5.660   0.501 -0.1417 -0.1091  0.0508
 7080TIP3    H142875   5.733   5.690   0.410  0.4633 -3.6419 -1.3340
 7080TIP3    H242876   5.818   5.706   0.534 -0.0533  0.8674 -1.4133
 7081TIP3   OH242877   0.488   6.254   2.109 -0.4141  0.2933  0.2137
 7081TIP3    H142878   0.453   6.173   2.147  1.4569 -0.7421 -0.1449
 7081TIP3    H242879   0.519   6.304   2.185 -1.0795  0.4490  0.3933
 7082TIP3   OH242880   3.409   6.369   3.043 -0.2390 -0.1656  0.4721
 7082TIP3    H142881   3.330   6.316   3.033  0.3956 -0.9132 -0.8537
 7082TIP3    H242882   3.479   6.306   3.061  0.2390  0.3825  0.5833
 7083TIP3   OH242883   5.627   3.751   0.072 -0.4068 -0.1965  0.2108
 7083TIP3    H142884   5.638   3.819   0.006 -0.3847 -0.5192 -0.1173
 7083TIP3    H242885   5.532   3.743   0.083 -0.4089  1.4573  1.8795
 7084TIP3   OH242886   4.298   5.912   7.653  0.1223  0.4555 -0.3316
 7084TIP3    H142887   4.241   5.855   7.705 -2.2630  0.6341 -2.5682
 7084TIP3    H242888   4.244   5.989   7.634  1.6233  1.3052 -1.3886
 7085TIP3   OH242889   6.671   1.354   3.326 -0.0244  0.4313  0.3850
 7085TIP3    H142890   6.680   1.449   3.328 -0.5808  0.5077 -0.3060
 7085TIP3    H242891   6.709   1.328   3.242  1.3892 -0.1130  1.1598
 7086TIP3   OH242892   4.648   0.869   7.462 -0.6163 -0.1142 -0.2259
 7086TIP3    H142893   4.702   0.915   7.526 -0.1887 -0.1640 -0.5449
 7086TIP3    H242894   4.562   0.911   7.469 -1.0636 -1.2263  1.5579
 7087TIP3   OH242895   5.163   3.630   1.429 -0.3011 -0.1881 -0.0669
 7087TIP3    H142896   5.082   3.586   1.403 -0.1031 -0.0296 -0.9938
 7087TIP3    H242897   5.213   3.637   1.348 -0.4555  2.0356 -0.0321
 7088TIP3   OH242898   4.040   6.321   8.093  0.2939  0.1923  0.3758
 7088TIP3    H142899   3.976   6.335   8.024  0.1402  0.5056  0.5779
 7088TIP3    H242900   4.001   6.255   8.150  0.6417 -0.4404 -0.1103
 7089TIP3   OH242901   5.290   5.954   8.603 -0.1194 -0.2368  0.1789
 7089TIP3    H142902   5.280   5.998   8.518 -0.1091 -3.0044 -1.3803
 7089TIP3    H242903   5.206   5.969   8.647 -1.0686 -0.7242 -1.3732
 7090TIP3   OH242904   5.287   0.559   0.439  0.2102  0.2595 -0.0261
 7090TIP3    H142905   5.380   0.578   0.449  0.2367  1.1836 -1.5767
 7090TIP3    H242906   5.284   0.473   0.396  0.4142  0.7031 -0.9622
 7091TIP3   OH242907   5.453   1.587   0.747  0.0652  0.1483 -0.5729
 7091TIP3    H142908   5.454   1.498   0.781 -2.5544  0.7631  1.4903
 7091TIP3    H242909   5.513   1.635   0.803  0.4516 -0.0476 -0.8172
 7092TIP3   OH242910   1.156   1.258   0.323 -0.1980 -0.0100 -0.3343
 7092TIP3    H142911   1.105   1.296   0.251  1.7216 -0.5060 -2.0590
 7092TIP3    H242912   1.094   1.250   0.395 -1.6280  2.7752 -1.1176
 7093TIP3   OH242913   0.743   0.149   2.500  0.4169  0.1875 -0.2623
 7093TIP3    H142914   0.827   0.193   2.488  0.3983  0.1589 -0.5077
 7093TIP3    H242915   0.766   0.059   2.524  0.4645  0.6289  1.4919
 7094TIP3   OH242916   4.984   2.619   1.511  0.6065 -0.1892  0.2950
 7094TIP3    H142917   5.006   2.548   1.571  3.0333  0.4231  0.2453
 7094TIP3    H242918   5.011   2.699   1.557 -3.5153  0.9867  1.0350
 7095TIP3   OH242919   1.768   4.685   1.892  0.1237 -0.5903  0.2754
 7095TIP3    H142920   1.724   4.769   1.879 -0.1335 -0.7060  0.3891
 7095TIP3    H242921   1.783   4.652   1.804  2.0483  0.5058  0.1517
 7096TIP3   OH242922   0.875   1.926   2.606 -0.0305  0.1875 -0.2649
 7096TIP3    H142923   0.902   1.838   2.579 -0.2388 -0.1894  0.7246
 7096TIP3    H242924   0.782   1.930   2.584  0.0475  0.2726 -0.5846
 7097TIP3   OH242925   4.790   3.439   2.151  0.2559  0.1514  0.7594
 7097TIP3    H142926   4.747   3.384   2.217  0.5497 -0.0729  0.7690
 7097TIP3    H242927   4.739   3.520   2.150  0.2124  0.1327  1.2213
 7098TIP3   OH242928   6.772   5.411   1.731  1.0110 -0.1354  0.1504
 7098TIP3    H142929   6.798   5.470   1.802  1.8122  1.8062 -1.6778
 7098TIP3    H242930   6.830   5.433   1.659 -0.5772 -1.1913 -1.5218
 7099TIP3   OH242931   2.135   6.088   2.944  0.3619  0.0588  0.1872
 7099TIP3    H142932   2.208   6.031   2.965 -0.5899 -0.7477  1.3857
 7099TIP3    H242933   2.160   6.128   2.860  1.2587 -1.7440 -0.4634
 7100TIP3   OH242934   0.505   4.500   2.503 -0.2010 -0.1596  0.3239
 7100TIP3    H142935   0.424   4.541   2.532  0.9865  2.3691  0.3158
 7100TIP3    H242936   0.544   4.463   2.582 -1.3073 -1.3578  0.3287
 7101TIP3   OH242937   6.277   2.330   7.519 -0.3871 -0.1039  0.1561
 7101TIP3    H142938   6.327   2.344   7.599  0.3878  0.1817 -0.3729
 7101TIP3    H242939   6.277   2.415   7.475 -0.3209 -0.4051 -0.4283
 7102TIP3   OH242940   3.320   1.133   3.061  0.3040 -0.1812 -0.1484
 7102TIP3    H142941   3.241   1.155   3.110  1.0398  3.1702 -0.2796
 7102TIP3    H242942   3.383   1.108   3.129  0.4631  1.6606  0.4450
 7103TIP3   OH242943   6.244   6.555   2.604  0.3441  0.2603  0.3250
 7103TIP3    H142944   6.231   6.647   2.630 -0.5467  0.8161 -1.8967
 7103TIP3    H242945   6.301   6.559   2.528  1.2474 -1.1534  0.8945
 7104TIP3   OH242946   3.870   0.265   1.231 -0.0641  0.2132 -0.0232
 7104TIP3    H142947   3.943   0.307   1.276 -1.4640  1.7192  0.9617
 7104TIP3    H242948   3.797   0.272   1.292 -0.5791 -3.2113 -0.0300
 7105TIP3   OH242949   1.499   0.448   1.654 -0.1749 -0.2545 -0.1984
 7105TIP3    H142950   1.404   0.453   1.643 -0.2134 -0.7953 -0.1170
 7105TIP3    H242951   1.514   0.480   1.744 -0.2318  0.2806 -0.3751
 7106TIP3   OH242952   4.555   5.700   1.014 -0.8404 -0.4375 -0.5549
 7106TIP3    H142953   4.615   5.692   0.940 -0.7781  2.0803 -0.8814
 7106TIP3    H242954   4.592   5.643   1.081  2.2254  1.2782 -0.6022
 7107TIP3   OH242955   1.958   0.748   0.860  1.3163  0.2549 -0.0535
 7107TIP3    H142956   1.995   0.795   0.785  0.6007 -0.6138 -0.9799
 7107TIP3    H242957   1.984   0.657   0.847  3.7181  0.4583  2.3595
 7108TIP3   OH242958   0.950   4.758   8.609  0.0838  0.0763  0.2689
 7108TIP3    H142959   0.861   4.728   8.628 -0.0300  0.1335 -0.1742
 7108TIP3    H242960   0.988   4.777   8.695 -0.6247  0.8906  0.4150
 7109TIP3   OH242961   2.999   0.715   1.705 -0.4047 -0.0787  0.1465
 7109TIP3    H142962   3.051   0.670   1.771 -0.4832 -0.4736 -0.0602
 7109TIP3    H242963   2.909   0.710   1.737 -0.6062 -1.3212 -0.5689
 7110TIP3   OH242964   1.089   2.605   0.457 -0.2329  0.0612 -0.3014
 7110TIP3    H142965   1.162   2.652   0.497 -0.5819  1.2132 -0.9651
 7110TIP3    H242966   1.065   2.659   0.381 -1.8989 -0.1839  0.0223
 7111TIP3   OH242967   3.332   3.613   8.583  0.8349  0.7181  0.5295
 7111TIP3    H142968   3.312   3.666   8.660 -0.1949 -1.5568  1.9350
 7111TIP3    H242969   3.396   3.549   8.613  1.2303  0.4500 -0.8005
 7112TIP3   OH242970   3.017   1.692   1.993  0.0452 -0.9097  0.1488
 7112TIP3    H142971   2.996   1.758   1.927 -1.2593 -1.2834  0.1659
 7112TIP3    H242972   3.091   1.644   1.956  0.0417 -0.3999 -0.5384
 7113TIP3   OH242973   4.415   2.923   8.745 -0.4085  0.6889 -0.1503
 7113TIP3    H142974   4.333   2.876   8.762  1.1438 -2.4155 -0.4261
 7113TIP3    H242975   4.406   2.954   8.655 -1.4428  0.7531 -0.0413
 7114TIP3   OH242976   3.235   0.395   1.881 -0.8639 -0.0104  0.1383
 7114TIP3    H142977   3.302   0.358   1.823  0.2035  2.2571 -0.1934
 7114TIP3    H242978   3.259   0.365   1.968 -0.5174 -0.7460 -0.2039
 7115TIP3   OH242979   2.249   1.454   0.259  0.4108 -0.3470 -0.2474
 7115TIP3    H142980   2.270   1.391   0.328 -2.7525 -3.2347 -1.6231
 7115TIP3    H242981   2.213   1.529   0.306  2.1754 -0.4039  1.3478
 7116TIP3   OH242982   5.649   0.540   8.559 -0.4433 -0.0489 -0.5363
 7116TIP3    H142983   5.597   0.600   8.505 -1.5419 -1.8372 -1.5779
 7116TIP3    H242984   5.739   0.557   8.534 -0.7947  0.6153 -1.4019
 7117TIP3   OH242985   6.320   3.356   0.879  0.0267 -0.4932  0.4403
 7117TIP3    H142986   6.367   3.400   0.809 -0.1016 -2.0305 -0.6483
 7117TIP3    H242987   6.309   3.424   0.947 -0.4905  1.2468 -1.2897
 7118TIP3   OH242988   0.362   2.454   8.354  0.2927  0.0867 -0.1143
 7118TIP3    H142989   0.325   2.373   8.321  0.2735  0.4740 -1.0757
 7118TIP3    H242990   0.439   2.428   8.403 -0.0555 -0.5566  0.0930
 7119TIP3   OH242991   2.681   0.115   1.135  0.3933 -0.0728  0.1801
 7119TIP3    H142992   2.738   0.102   1.059  0.2533 -0.1305  0.0856
 7119TIP3    H242993   2.633   0.196   1.116  2.0804  1.2730  1.2659
 7120TIP3   OH242994   1.972   1.907   0.512 -0.6199  0.2815  0.6071
 7120TIP3    H142995   1.993   1.814   0.522 -1.8324  0.1020  1.6528
 7120TIP3    H242996   1.923   1.929   0.590 -0.5372  1.7680  0.2626
 7121TIP3   OH242997   0.548   1.130   1.278  0.3191 -0.5674 -0.4367
 7121TIP3    H142998   0.586   1.135   1.366 -0.0484 -1.1095 -0.2455
 7121TIP3    H242999   0.459   1.098   1.292  0.4542 -1.2369 -1.0548
 7122TIP3   OH243000   3.477   1.036   8.414 -0.4523  0.0774  0.2814
 7122TIP3    H143001   3.561   1.059   8.375 -0.6262  0.6457  0.2270
 7122TIP3    H243002   3.498   0.969   8.479 -0.0531 -0.2663 -0.2021
 7123TIP3   OH243003   2.413   2.835   1.072  0.5268 -0.8147 -0.0830
 7123TIP3    H143004   2.378   2.828   1.161 -0.2480  0.6715 -0.2484
 7123TIP3    H243005   2.476   2.907   1.076 -0.5757  0.2358 -1.0404
 7124TIP3   OH243006   2.891   5.748   0.474 -0.3487 -0.2290  0.1817
 7124TIP3    H143007   2.940   5.829   0.485 -0.4700 -0.2551  0.9830
 7124TIP3    H243008   2.829   5.748   0.547 -2.3542  0.3665 -1.4231
 7125TIP3   OH243009   2.281   2.205   0.723  0.6037  0.3209  0.0349
 7125TIP3    H143010   2.306   2.214   0.815 -1.2489 -1.0297  0.7258
 7125TIP3    H243011   2.344   2.141   0.687 -1.0158 -2.2796  1.4878
 7126TIP3   OH243012   5.400   2.195   1.524 -0.2328 -0.5991  0.1875
 7126TIP3    H143013   5.315   2.184   1.565 -0.1242  0.6830  0.7910
 7126TIP3    H243014   5.396   2.140   1.446 -1.6957 -0.3646  0.0687
 7127TIP3   OH243015   1.027   2.301   8.394 -0.2557  0.2055 -0.2216
 7127TIP3    H143016   1.016   2.309   8.299  0.8020  1.7513 -0.2566
 7127TIP3    H243017   1.080   2.377   8.418 -0.8133  0.0386  1.6701
 7128TIP3   OH243018   0.276   5.027   0.092  0.3744 -0.0077  0.0191
 7128TIP3    H143019   0.338   4.966   0.051  0.0591 -0.3341  0.0252
 7128TIP3    H243020   0.326   5.068   0.163  0.2321 -1.1822  0.8313
 7129TIP3   OH243021   3.969   6.049   8.234  0.2245 -0.7891 -0.5622
 7129TIP3    H143022   4.011   5.973   8.192  0.5400 -0.8460 -0.1541
 7129TIP3    H243023   4.031   6.075   8.302 -0.4335 -0.9047  0.0844
 7130TIP3   OH243024   0.126   3.931   8.637 -0.8706  0.1526  0.2114
 7130TIP3    H143025   0.178   3.964   8.563 -3.5302  0.6904 -1.5484
 7130TIP3    H243026   0.105   4.008   8.689 -2.2843  0.4394 -0.7245
 7131TIP3   OH243027   2.863   4.168   0.380 -0.1324 -0.8099  0.1753
 7131TIP3    H143028   2.791   4.157   0.318 -0.6700 -0.2880  0.6985
 7131TIP3    H243029   2.833   4.123   0.460  0.7257 -1.8358 -0.0644
 7132TIP3   OH243030   3.793   2.777   0.326 -0.1926  0.1416  0.9777
 7132TIP3    H143031   3.788   2.682   0.318 -0.2415  0.2131 -0.1040
 7132TIP3    H243032   3.871   2.801   0.276  2.1852  0.3694  4.5099
 7133TIP3   OH243033   3.969   1.712   1.167  0.2358  0.3136  0.1784
 7133TIP3    H143034   4.050   1.662   1.156  0.6063  1.0296 -0.4860
 7133TIP3    H243035   3.994   1.788   1.219 -0.4223 -0.3931  1.5773
 7134TIP3   OH243036   2.688   0.634   1.661  0.2344  0.6228 -0.0866
 7134TIP3    H143037   2.668   0.695   1.732  1.4252  1.9821 -0.8531
 7134TIP3    H243038   2.675   0.548   1.699 -0.5713  1.3364  1.3432
 7135TIP3   OH243039   3.836   2.172   7.080  1.0912 -0.0407  0.0647
 7135TIP3    H143040   3.863   2.083   7.104  2.0179  0.5486  1.2796
 7135TIP3    H243041   3.818   2.215   7.164 -2.3904  0.0394 -0.5698
 7136TIP3   OH243042   5.222   5.442   8.532 -0.0716  0.5635  0.3322
 7136TIP3    H143043   5.161   5.490   8.475 -0.0191 -0.0999 -0.2900
 7136TIP3    H243044   5.165   5.391   8.589 -0.1064 -0.1844 -0.3608
 7137TIP3   OH243045   4.118   6.815   8.295  0.3274 -0.0124  0.5157
 7137TIP3    H143046   4.196   6.796   8.242 -0.7836 -0.2503 -1.0950
 7137TIP3    H243047   4.075   6.888   8.250 -3.5963 -3.6238 -2.3313
 7138TIP3   OH243048   4.501   4.250   0.282  0.1900  0.3613  0.2675
 7138TIP3    H143049   4.446   4.197   0.340  0.9522  0.6097  1.2414
 7138TIP3    H243050   4.443   4.272   0.209 -0.0471 -2.1684 -0.4276
 7139TIP3   OH243051   0.244   4.593   0.669  0.3621  0.0733 -0.2594
 7139TIP3    H143052   0.160   4.554   0.646  0.7056 -0.6332 -0.3506
 7139TIP3    H243053   0.230   4.631   0.756  0.5088 -1.8643  0.6490
 7140TIP3   OH243054   4.809   1.335   2.760  0.3346 -0.0075  0.1014
 7140TIP3    H143055   4.735   1.274   2.759 -0.9070  1.4464 -0.1635
 7140TIP3    H243056   4.776   1.413   2.804  2.0835  0.2841  1.0149
 7141TIP3   OH243057   1.210   1.247   7.303  0.0177 -0.5030  0.2558
 7141TIP3    H143058   1.157   1.279   7.230 -0.1408  0.4942  0.7892
 7141TIP3    H243059   1.226   1.155   7.282 -1.7650 -0.7942 -0.0102
 7142TIP3   OH243060   2.990   4.014   1.068 -0.5943 -0.2206  0.0484
 7142TIP3    H143061   2.936   4.080   1.111  1.3126  0.8799  0.8493
 7142TIP3    H243062   2.949   3.931   1.091 -1.7108  0.5588  0.9516
 7143TIP3   OH243063   0.197   6.313   2.761  0.0359  0.3394  0.1226
 7143TIP3    H143064   0.217   6.317   2.854  0.8834  1.0027 -0.0712
 7143TIP3    H243065   0.210   6.221   2.737 -3.8640 -0.7128  1.3835
 7144TIP3   OH243066   4.588   0.935   2.510  0.7879  0.4128 -0.1591
 7144TIP3    H143067   4.504   0.979   2.499  0.3816 -0.2258  0.3451
 7144TIP3    H243068   4.568   0.858   2.564  1.7042  0.2963  0.0271
 7145TIP3   OH243069   5.870   5.366   0.214 -0.4943 -0.4956 -0.7418
 7145TIP3    H143070   5.930   5.295   0.191  0.6851  0.6222 -1.2547
 7145TIP3    H243071   5.925   5.428   0.264 -1.7150 -0.3631  0.5078
 7146TIP3   OH243072   5.752   6.249   2.666  0.0109 -0.4986 -0.9084
 7146TIP3    H143073   5.750   6.336   2.626 -0.0400  0.6321  1.3758
 7146TIP3    H243074   5.845   6.226   2.670  0.1264  0.0592 -0.3089
 7147TIP3   OH243075   2.350   4.528   7.681 -0.4462  0.1252 -0.5300
 7147TIP3    H143076   2.367   4.561   7.593  0.1281  0.5764 -0.2544
 7147TIP3    H243077   2.354   4.433   7.673 -2.1479  0.0932 -1.3434
 7148TIP3   OH243078   5.918   5.665   7.427  0.3266 -0.5391 -0.3839
 7148TIP3    H143079   5.901   5.668   7.521  0.2861 -1.4209 -0.3502
 7148TIP3    H243080   5.843   5.708   7.387  0.3970 -0.0661 -0.0064
 7149TIP3   OH243081   0.238   6.803   8.778  0.3969  0.6456 -0.2031
 7149TIP3    H143082   0.202   6.719   8.808  0.0742  0.6967 -0.4368
 7149TIP3    H243083   0.178   6.831   8.709  1.1522  0.4956 -0.9400
 7150TIP3   OH243084   1.711   6.544   8.490  0.5271  0.4981 -0.1010
 7150TIP3    H143085   1.788   6.600   8.494  1.2490 -0.4400 -0.5764
 7150TIP3    H243086   1.679   6.554   8.400 -0.4727  1.5952  0.3483
 7151TIP3   OH243087   5.696   4.359   3.484 -0.0045  0.3424  0.7691
 7151TIP3    H143088   5.601   4.349   3.471  0.2679 -0.3256 -0.9711
 7151TIP3    H243089   5.735   4.311   3.411  1.6718  1.3985  0.9195
 7152TIP3   OH243090   0.420   4.657   8.280  0.7574 -0.8182 -0.2664
 7152TIP3    H143091   0.383   4.743   8.295  2.5326 -0.0981  0.2067
 7152TIP3    H243092   0.363   4.617   8.214 -0.0655  0.7185 -0.5164
 7153TIP3   OH243093   6.864   0.422   8.229 -0.1394 -0.2717 -0.4430
 7153TIP3    H143094   6.845   0.330   8.249 -0.8599 -0.2487 -0.9555
 7153TIP3    H243095   6.907   0.420   8.143  2.5493 -0.3399  0.8277
 7154TIP3   OH243096   1.473   0.897   1.026  0.0055  0.1263  0.2850
 7154TIP3    H143097   1.390   0.945   1.030 -0.6805 -1.0821  0.8688
 7154TIP3    H243098   1.535   0.954   1.072 -1.0755 -0.0621  2.0445
 7155TIP3   OH243099   3.878   1.212   1.685 -0.2364  0.0782  0.4004
 7155TIP3    H143100   3.920   1.228   1.769 -1.9067  0.3305  1.2275
 7155TIP3    H243101   3.927   1.138   1.647 -0.3560 -0.9968  2.2422
 7156TIP3   OH243102   2.834   3.040   8.401  0.1308 -0.3533 -0.1281
 7156TIP3    H143103   2.797   2.973   8.458  0.0455 -0.3474 -0.1760
 7156TIP3    H243104   2.924   3.050   8.431  0.2047 -0.6363 -0.2525
 7157TIP3   OH243105   3.765   2.683   3.509 -0.2586 -0.1997  0.4772
 7157TIP3    H143106   3.854   2.647   3.503 -0.3929 -0.8744  1.9315
 7157TIP3    H243107   3.773   2.753   3.574 -0.4886  0.8266 -0.5729
 7158TIP3   OH243108   5.853   6.717   0.011 -0.7750 -0.4212 -0.0216
 7158TIP3    H143109   5.867   6.809  -0.012 -1.1181 -0.5212 -0.6562
 7158TIP3    H243110   5.779   6.689  -0.044 -0.7738 -1.0324  0.2760
 7159TIP3   OH243111   2.357   1.329   8.605  0.2523  0.4454  0.0333
 7159TIP3    H143112   2.262   1.343   8.600  0.2397  0.1368 -0.7548
 7159TIP3    H243113   2.394   1.401   8.554  0.5206  1.2726  1.3380
 7160TIP3   OH243114   0.863   3.184   2.954  0.5830 -0.2212 -0.2346
 7160TIP3    H143115   0.865   3.093   2.983  0.2270 -1.2383 -3.1242
 7160TIP3    H243116   0.955   3.207   2.941  0.6335 -0.3851 -0.1773
 7161TIP3   OH243117   5.475   4.258   3.265  0.1270 -0.0786 -0.7978
 7161TIP3    H143118   5.382   4.278   3.269 -0.5373 -2.7730 -1.0665
 7161TIP3    H243119   5.479   4.165   3.244  2.9039  0.2782 -2.3343
 7162TIP3   OH243120   0.997   3.656   0.313  0.3687  0.5703 -0.1393
 7162TIP3    H143121   1.036   3.742   0.329 -1.5607  1.6375 -0.7430
 7162TIP3    H243122   1.016   3.606   0.392 -0.1730  2.2678  1.1466
 7163TIP3   OH243123   6.684   4.822   1.853  0.6053  0.6658 -0.3219
 7163TIP3    H143124   6.609   4.772   1.886  0.3874  1.1664 -0.0562
 7163TIP3    H243125   6.719   4.867   1.930  1.1145  0.5190 -0.4643
 7164TIP3   OH243126   2.712   6.606   0.421 -0.0686  0.0725 -0.0224
 7164TIP3    H143127   2.756   6.652   0.350  1.3594  0.2103  0.9217
 7164TIP3    H243128   2.673   6.675   0.474 -0.0309  0.0465  0.0388
 7165LIG      O43129   1.397   3.410   7.500  0.1369 -0.2647 -0.2387
 7165LIG      N43130   1.033   3.467   7.318 -0.2239  0.3046 -0.6579
 7165LIG     C143131   1.496   3.266   7.338  0.3015 -0.4341  0.7298
 7165LIG     C243132   1.405   3.390   7.363  0.4897 -0.1959  0.2291
 7165LIG     C343133   1.647   3.288   7.366  0.1046  0.5743  0.6268
 7165LIG     C443134   1.450   3.140   7.409  0.1924 -0.5796 -0.5724
 7165LIG     C543135   1.262   3.375   7.313  0.2708 -0.1275 -0.1669
 7165LIG     C643136   1.723   3.162   7.331 -0.0764  0.2610 -0.0413
 7165LIG     C743137   1.529   3.016   7.377 -0.3653 -0.0117  0.0259
 7165LIG     C843138   1.684   3.044   7.403  0.7315 -0.5403  0.1780
 7165LIG     C943139   1.175   3.503   7.311  0.0609  0.2752 -0.0017
 7165LIG    C1043140   1.467   3.514   7.287  0.1348  0.1076  0.2102
 7165LIG    C1143141   0.955   3.591   7.345 -0.1410 -0.2724 -0.1013
 7165LIG    C1243142   0.978   3.387   7.202  0.4365 -0.0838  0.0362
 7165LIG    C1343143   0.971   3.684   7.216  1.0605 -0.2330 -0.3972
 7165LIG    C1443144   0.978   3.477   7.075  0.0007 -0.3035  0.3231
 7165LIG    C1543145   0.914   3.613   7.093  0.4844 -0.6772 -0.1303
 7165LIG    C1643146   1.483   3.499   7.146 -0.1392 -0.6112 -0.4051
 7165LIG    C1743147   1.510   3.627   7.347 -0.8699 -0.1727  0.6138
 7165LIG    C1843148   1.523   3.615   7.072  0.5264  0.8553 -0.2245
 7165LIG    C1943149   1.541   3.742   7.274 -0.2122 -0.7150 -1.2078
 7165LIG    C2043150   1.543   3.733   7.136 -0.1347 -0.1472 -0.2483
 7165LIG     H143151   1.484   3.248   7.229  1.0981  0.1514  0.5396
 7165LIG     H243152   1.659   3.298   7.476  1.2840 -3.1603  0.9699
 7165LIG     H343153   1.687   3.375   7.310  1.9397 -0.4177  0.3296
 7165LIG     H443154   1.345   3.113   7.386 -2.2035  3.8590  3.2102
 7165LIG     H543155   1.453   3.159   7.519  1.4408  2.5971 -1.0507
 7165LIG     H643156   1.215   3.295   7.373 -0.3456  1.4400  1.5495
 7165LIG     H743157   1.257   3.335   7.210  1.1159 -2.5617  0.6819
 7165LIG     H843158   1.825   3.190   7.366  0.8801  1.2882 -3.2857
 7165LIG     H943159   1.724   3.143   7.222 -0.9718 -1.1084  0.1642
 7165LIG    H1043160   1.509   2.988   7.272 -0.4131  1.8834 -0.4925
 7165LIG    H1143161   1.498   2.926   7.435 -0.1452  0.6644  1.2420
 7165LIG    H1243162   1.705   3.054   7.512 -2.6444  1.0729  0.8219
 7165LIG    H1343163   1.733   2.951   7.365 -0.1848 -0.8722 -0.2052
 7165LIG    H1443164   1.199   3.566   7.399  1.7340  1.5605 -1.3195
 7165LIG    H1543165   1.205   3.561   7.221  0.1508 -0.2621 -0.3251
 7165LIG    H1643166   1.004   3.646   7.428  0.3122  1.8239 -1.6687
 7165LIG    H1743167   0.850   3.559   7.360  0.3840 -1.0610  2.3133
 7165LIG    H1843168   0.871   3.363   7.220  0.4442  0.0646  0.3020
 7165LIG    H1943169   1.031   3.291   7.186  0.9253  0.0231  0.9330
 7165LIG    H2043170   1.488   3.422   7.526 -0.3441 -0.6642  1.8685
 7165LIG    H2143171   1.072   3.728   7.206  0.2232  2.3794  1.5582
 7165LIG    H2243172   0.907   3.772   7.240  3.5658  1.0702  2.0770
 7165LIG    H2343173   0.928   3.419   6.995 -1.6194  2.0236 -0.4873
 7165LIG    H2443174   1.080   3.482   7.034 -1.0402  0.0112 -2.4380
 7165LIG    H2543175   0.943   3.679   7.008 -0.9031  1.7710  1.1869
 7165LIG    H2643176   0.804   3.609   7.110  0.4548  0.0993 -0.1210
 7165LIG    H2743177   1.458   3.410   7.091 -1.2249 -1.4067  1.3297
 7165LIG    H2843178   1.495   3.635   7.454  1.7402 -0.1578  1.0636
 7165LIG    H2943179   1.509   3.607   6.966 -0.2729  1.7991 -0.2058
 7165LIG    H3043180   1.567   3.836   7.321  2.7212 -2.0150  0.0320
 7165LIG    H3143181   1.575   3.813   7.071  0.1853 -0.4048 -0.4106
   6.86505   6.86505   8.78124
