;;
;; Generated by CHARMM-GUI (http://www.charmm-gui.org) v1.7
;;
;; psf2itp_mol.py
;;
;; Correspondance:
;; jul316@lehigh.edu or wonpil@lehigh.edu
;;
;; CHARMM36 FF in GROMACS format
;;


[ defaults ]
; nbfunc	comb-rule	gen-pairs	fudgeLJ	fudgeQQ
1	2	yes	1.0	1.0

[ atomtypes ]
; name	at.num	mass	charge	ptype	sigma	epsilon	;	sigma_14	epsilon_14
   CG311     6    12.0110      0.259     A    3.56359487256e-01    1.338880e-01 ;   3.38541512893e-01    4.184000e-02 
   CG321     6    12.0110      0.085     A    3.58141284692e-01    2.343040e-01 ;   3.38541512893e-01    4.184000e-02 
  CG3C50     6    12.0110      0.285     A    3.58141284692e-01    1.506240e-01 ;   3.38541512893e-01    4.184000e-02 
  CG3C51     6    12.0110      0.157     A    3.58141284692e-01    1.506240e-01 ;   3.38541512893e-01    4.184000e-02 
    HGA1     1     1.0080      0.090     A    2.38760856462e-01    1.882800e-01 
    HGA2     1     1.0080      0.090     A    2.38760856462e-01    1.464400e-01 
    HGP1     1     1.0080      0.420     A    4.00013524445e-02    1.924640e-01 
   OG301     8    15.9994     -0.316     A    2.93996576986e-01    4.184000e-01 
   OG311     8    15.9994     -0.647     A    3.14487247504e-01    8.037464e-01 
  OG3C51     8    15.9994     -0.409     A    2.93996576986e-01    4.184000e-01 
  OG3C61     8    15.9994     -0.392     A    2.93996576986e-01    4.184000e-01 

[ bondtypes ]
; i	j	func	b0	Kb
  CG311   CG311     1  1.500000e-01  1.861880e+05
  CG311   CG321     1  1.538000e-01  1.861880e+05
  CG311  CG3C51     1  1.528000e-01  1.861880e+05
  CG311    HGA1     1  1.111000e-01  2.585712e+05
  CG311   OG301     1  1.415000e-01  3.012480e+05
  CG311   OG311     1  1.420000e-01  3.581504e+05
  CG311  OG3C61     1  1.415000e-01  3.012480e+05
  CG321   CG321     1  1.530000e-01  1.861880e+05
  CG321  CG3C50     1  1.520000e-01  1.715440e+05
  CG321  CG3C51     1  1.528000e-01  1.861880e+05
  CG321    HGA2     1  1.111000e-01  2.585712e+05
  CG321   OG301     1  1.415000e-01  3.012480e+05
  CG321   OG311     1  1.420000e-01  3.581504e+05
  CG321  OG3C61     1  1.415000e-01  3.012480e+05
 CG3C50  CG3C51     1  1.518000e-01  1.631760e+05
 CG3C50   OG301     1  1.411000e-01  2.797422e+05
 CG3C50   OG311     1  1.420000e-01  3.581504e+05
 CG3C50  OG3C51     1  1.425000e-01  2.928800e+05
 CG3C51  CG3C51     1  1.518000e-01  1.631760e+05
 CG3C51    HGA1     1  1.100000e-01  2.568976e+05
 CG3C51   OG301     1  1.411000e-01  2.797422e+05
 CG3C51   OG311     1  1.420000e-01  3.581504e+05
 CG3C51  OG3C51     1  1.425000e-01  2.928800e+05
  OG301   OG311     1  1.513000e-01  1.395782e+05
  OG311    HGP1     1  9.600000e-02  4.560560e+05

[ pairtypes ]
; i	j	func	sigma1-4	epsilon1-4
  CG311   CG311     1  3.38541512893e-01  4.18400000000e-02 
  CG311   CG321     1  3.38541512893e-01  4.18400000000e-02 
  CG311  CG3C50     1  3.38541512893e-01  4.18400000000e-02 
  CG311  CG3C51     1  3.38541512893e-01  4.18400000000e-02 
  CG311    HGA1     1  2.88651184677e-01  8.87560431745e-02 
  CG311    HGA2     1  2.88651184677e-01  7.82754725313e-02 
  CG311    HGP1     1  1.89271432669e-01  8.97368027066e-02 
  CG311   OG301     1  3.16269044940e-01  1.32309697301e-01 
  CG311   OG311     1  3.26514380198e-01  1.83381431383e-01 
  CG311  OG3C51     1  3.16269044940e-01  1.32309697301e-01 
  CG311  OG3C61     1  3.16269044940e-01  1.32309697301e-01 
  CG321   CG321     1  3.38541512893e-01  4.18400000000e-02 
  CG321  CG3C50     1  3.38541512893e-01  4.18400000000e-02 
  CG321  CG3C51     1  3.38541512893e-01  4.18400000000e-02 
  CG321    HGA1     1  2.88651184677e-01  8.87560431745e-02 
  CG321    HGA2     1  2.88651184677e-01  7.82754725313e-02 
  CG321    HGP1     1  1.89271432669e-01  8.97368027066e-02 
  CG321   OG301     1  3.16269044940e-01  1.32309697301e-01 
  CG321   OG311     1  3.26514380198e-01  1.83381431383e-01 
  CG321  OG3C51     1  3.16269044940e-01  1.32309697301e-01 
  CG321  OG3C61     1  3.16269044940e-01  1.32309697301e-01 
 CG3C50  CG3C50     1  3.38541512893e-01  4.18400000000e-02 
 CG3C50  CG3C51     1  3.38541512893e-01  4.18400000000e-02 
 CG3C50    HGA1     1  2.88651184677e-01  8.87560431745e-02 
 CG3C50    HGA2     1  2.88651184677e-01  7.82754725313e-02 
 CG3C50    HGP1     1  1.89271432669e-01  8.97368027066e-02 
 CG3C50   OG301     1  3.16269044940e-01  1.32309697301e-01 
 CG3C50   OG311     1  3.26514380198e-01  1.83381431383e-01 
 CG3C50  OG3C51     1  3.16269044940e-01  1.32309697301e-01 
 CG3C50  OG3C61     1  3.16269044940e-01  1.32309697301e-01 
 CG3C51  CG3C51     1  3.38541512893e-01  4.18400000000e-02 
 CG3C51    HGA1     1  2.88651184677e-01  8.87560431745e-02 
 CG3C51    HGA2     1  2.88651184677e-01  7.82754725313e-02 
 CG3C51    HGP1     1  1.89271432669e-01  8.97368027066e-02 
 CG3C51   OG301     1  3.16269044940e-01  1.32309697301e-01 
 CG3C51   OG311     1  3.26514380198e-01  1.83381431383e-01 
 CG3C51  OG3C51     1  3.16269044940e-01  1.32309697301e-01 
 CG3C51  OG3C61     1  3.16269044940e-01  1.32309697301e-01 

[ angletypes ]
; i	j	k	func	th0	cth	S0	Kub
  CG311   CG311   CG311     5  1.1100000e+02  4.4643280e+02  2.5610000e-01  6.6944000e+03
  CG311   CG311   CG321     5  1.1100000e+02  4.4643280e+02  2.5610000e-01  6.6944000e+03
  CG311   CG311    HGA1     5  1.1010000e+02  2.8869600e+02  2.1790000e-01  1.8853104e+04
  CG311   CG311   OG301     5  1.0970000e+02  9.6232000e+02  0.0000000e+00  0.0000000e+00
  CG311   CG311   OG311     5  1.1010000e+02  6.3345760e+02  0.0000000e+00  0.0000000e+00
  CG311   CG311  OG3C61     5  1.1150000e+02  3.7656000e+02  0.0000000e+00  0.0000000e+00
  CG311   CG321   CG311     5  1.1350000e+02  4.8827280e+02  2.5610000e-01  9.3386880e+03
  CG311   CG321   CG321     5  1.1350000e+02  4.8827280e+02  2.5610000e-01  9.3386880e+03
  CG311   CG321    HGA2     5  1.1010000e+02  2.7974224e+02  2.1790000e-01  1.8853104e+04
  CG311   CG321   OG301     5  1.1010000e+02  6.3345760e+02  0.0000000e+00  0.0000000e+00
  CG311   CG321   OG311     5  1.1010000e+02  6.3345760e+02  0.0000000e+00  0.0000000e+00
  CG311  CG3C51    HGA1     5  1.1010000e+02  2.8953280e+02  2.1790000e-01  1.8853104e+04
  CG311   OG301  CG3C50     5  1.0700000e+02  5.4392000e+02  0.0000000e+00  0.0000000e+00
  CG311   OG301  CG3C51     5  1.0700000e+02  5.4392000e+02  0.0000000e+00  0.0000000e+00
  CG311   OG301   OG311     5  1.0400000e+02  6.0249600e+02  0.0000000e+00  0.0000000e+00
  CG311   OG311    HGP1     5  1.0600000e+02  4.1840000e+02  0.0000000e+00  0.0000000e+00
  CG311  OG3C61   CG311     5  1.0970000e+02  7.9496000e+02  0.0000000e+00  0.0000000e+00
  CG311  OG3C61   CG321     5  1.0970000e+02  7.9496000e+02  0.0000000e+00  0.0000000e+00
  CG321   CG311   CG321     5  1.1350000e+02  4.8827280e+02  2.5610000e-01  9.3386880e+03
  CG321   CG311  CG3C51     5  1.1100000e+02  4.4643280e+02  2.5610000e-01  6.6944000e+03
  CG321   CG311    HGA1     5  1.1010000e+02  2.8869600e+02  2.1790000e-01  1.8853104e+04
  CG321   CG311   OG301     5  1.0970000e+02  9.6232000e+02  0.0000000e+00  0.0000000e+00
  CG321   CG311   OG311     5  1.1000000e+02  6.3345760e+02  0.0000000e+00  0.0000000e+00
  CG321   CG311  OG3C61     5  1.1150000e+02  3.7656000e+02  0.0000000e+00  0.0000000e+00
  CG321   CG321   CG321     5  1.1360000e+02  4.8827280e+02  2.5610000e-01  9.3386880e+03
  CG321   CG321  CG3C50     5  1.1200000e+02  4.4350400e+02  2.5610000e-01  6.6944000e+03
  CG321   CG321  CG3C51     5  1.1200000e+02  4.4350400e+02  2.5610000e-01  6.6944000e+03
  CG321   CG321    HGA2     5  1.1010000e+02  2.2175200e+02  2.1790000e-01  1.8853104e+04
  CG321   CG321   OG301     5  1.1150000e+02  3.7656000e+02  0.0000000e+00  0.0000000e+00
  CG321   CG321   OG311     5  1.1010000e+02  6.3345760e+02  0.0000000e+00  0.0000000e+00
  CG321   CG321  OG3C61     5  1.1150000e+02  3.7656000e+02  0.0000000e+00  0.0000000e+00
  CG321  CG3C50   CG321     5  1.1000000e+02  4.8534400e+02  2.5610000e-01  9.3386880e+03
  CG321  CG3C50  CG3C51     5  1.1500000e+02  4.8534400e+02  2.5610000e-01  6.6944000e+03
  CG321  CG3C50   OG301     5  1.1000000e+02  4.8534400e+02  2.5610000e-01  9.3386880e+03
  CG321  CG3C50  OG3C51     5  1.1150000e+02  3.7656000e+02  0.0000000e+00  0.0000000e+00
  CG321  CG3C51  CG3C51     5  1.1500000e+02  4.8534400e+02  2.5610000e-01  6.6944000e+03
  CG321  CG3C51    HGA1     5  1.1010000e+02  2.8953280e+02  2.1790000e-01  1.8853104e+04
  CG321  CG3C51  OG3C51     5  1.1150000e+02  3.7656000e+02  0.0000000e+00  0.0000000e+00
  CG321   OG301   CG311     5  1.0970000e+02  7.9496000e+02  0.0000000e+00  0.0000000e+00
  CG321   OG301   CG321     5  1.0970000e+02  7.9496000e+02  0.0000000e+00  0.0000000e+00
  CG321   OG301   OG311     5  1.0400000e+02  6.0249600e+02  0.0000000e+00  0.0000000e+00
  CG321   OG311    HGP1     5  1.0600000e+02  4.1840000e+02  0.0000000e+00  0.0000000e+00
  CG321  OG3C61   CG321     5  1.0970000e+02  7.9496000e+02  0.0000000e+00  0.0000000e+00
 CG3C50   CG321    HGA2     5  1.0900000e+02  2.6777600e+02  2.1790000e-01  1.8853104e+04
 CG3C50   CG321   OG311     5  1.1010000e+02  6.3345760e+02  0.0000000e+00  0.0000000e+00
 CG3C50  CG3C51  CG3C51     5  1.0950000e+02  4.8534400e+02  2.5610000e-01  9.3386880e+03
 CG3C50  CG3C51    HGA1     5  1.1140000e+02  2.9288000e+02  2.1790000e-01  1.8853104e+04
 CG3C50  CG3C51   OG311     5  1.1010000e+02  6.3345760e+02  0.0000000e+00  0.0000000e+00
 CG3C50   OG311    HGP1     5  1.0900000e+02  4.1840000e+02  0.0000000e+00  0.0000000e+00
 CG3C50  OG3C51  CG3C51     5  1.1100000e+02  7.9496000e+02  0.0000000e+00  0.0000000e+00
 CG3C51   CG311    HGA1     5  1.1010000e+02  2.8953280e+02  2.1790000e-01  1.8853104e+04
 CG3C51   CG321    HGA2     5  1.1010000e+02  2.8953280e+02  2.1790000e-01  1.8853104e+04
 CG3C51   CG321   OG301     5  1.1010000e+02  6.3345760e+02  0.0000000e+00  0.0000000e+00
 CG3C51   CG321   OG311     5  1.1010000e+02  6.3345760e+02  0.0000000e+00  0.0000000e+00
 CG3C51  CG3C50   OG301     5  1.0650000e+02  4.8534400e+02  2.5610000e-01  6.6944000e+03
 CG3C51  CG3C50  OG3C51     5  1.1110000e+02  3.7656000e+02  0.0000000e+00  0.0000000e+00
 CG3C51  CG3C51  CG3C51     5  1.0950000e+02  4.8534400e+02  2.5610000e-01  9.3386880e+03
 CG3C51  CG3C51    HGA1     5  1.1140000e+02  2.9288000e+02  2.1790000e-01  1.8853104e+04
 CG3C51  CG3C51   OG301     5  1.0650000e+02  4.8534400e+02  2.5610000e-01  6.6944000e+03
 CG3C51  CG3C51   OG311     5  1.1010000e+02  6.3345760e+02  0.0000000e+00  0.0000000e+00
 CG3C51  CG3C51  OG3C51     5  1.1110000e+02  3.7656000e+02  0.0000000e+00  0.0000000e+00
 CG3C51   OG301  CG3C51     5  1.0700000e+02  4.6024000e+02  0.0000000e+00  0.0000000e+00
 CG3C51   OG311    HGP1     5  1.0900000e+02  4.1840000e+02  0.0000000e+00  0.0000000e+00
 CG3C51  OG3C51  CG3C51     5  1.1100000e+02  7.9496000e+02  0.0000000e+00  0.0000000e+00
   HGA2   CG321    HGA2     5  1.0900000e+02  2.9706400e+02  1.8020000e-01  4.5187200e+03
  OG301   CG311    HGA1     5  1.0950000e+02  5.0208000e+02  0.0000000e+00  0.0000000e+00
  OG301   CG311   OG311     5  1.1650000e+02  3.7656000e+02  0.0000000e+00  0.0000000e+00
  OG301   CG311  OG3C61     5  1.1200000e+02  7.5312000e+02  0.0000000e+00  0.0000000e+00
  OG301   CG321    HGA2     5  1.0889000e+02  3.8409120e+02  0.0000000e+00  0.0000000e+00
  OG301  CG3C50  OG3C51     5  1.1200000e+02  8.3680000e+02  0.0000000e+00  0.0000000e+00
  OG301  CG3C51    HGA1     5  1.0850000e+02  3.8409120e+02  0.0000000e+00  0.0000000e+00
  OG301  CG3C51  OG3C51     5  1.1200000e+02  8.3680000e+02  0.0000000e+00  0.0000000e+00
  OG301   OG311    HGP1     5  9.8300000e+01  5.1044800e+02  0.0000000e+00  0.0000000e+00
  OG311   CG311    HGA1     5  1.0889000e+02  3.8409120e+02  0.0000000e+00  0.0000000e+00
  OG311   CG311   OG311     5  1.1715000e+02  8.4098400e+02  0.0000000e+00  0.0000000e+00
  OG311   CG321    HGA2     5  1.0889000e+02  3.8409120e+02  0.0000000e+00  0.0000000e+00
  OG311  CG3C51    HGA1     5  1.0889000e+02  3.8409120e+02  0.0000000e+00  0.0000000e+00
 OG3C51  CG3C50  OG3C51     5  1.0810000e+02  7.1128000e+02  0.0000000e+00  0.0000000e+00
 OG3C51  CG3C51    HGA1     5  1.0730000e+02  5.8576000e+02  0.0000000e+00  0.0000000e+00
 OG3C61   CG311    HGA1     5  1.0950000e+02  3.7656000e+02  0.0000000e+00  0.0000000e+00
 OG3C61   CG321    HGA2     5  1.0950000e+02  3.7656000e+02  0.0000000e+00  0.0000000e+00
 OG3C61   CG321  OG3C61     5  1.1050000e+02  3.7656000e+02  0.0000000e+00  0.0000000e+00

[ dihedraltypes ]
; i	j	k	l	func	phi0	cp	mult
  CG311   CG311   CG311   CG311     9  1.800000e+02  2.092000e+00      4
  CG311   CG311   CG311   CG321     9  1.800000e+02  2.092000e+00      4
  CG311   CG311   CG311    HGA1     9  0.000000e+00  8.158800e-01      3
  CG311   CG311   CG311   OG301     9  0.000000e+00  1.631760e+00      2
  CG311   CG311   CG311   OG301     9  1.800000e+02  6.694400e-01      1
  CG311   CG311   CG311   OG311     9  0.000000e+00  5.857600e-01      3
  CG311   CG311   CG311  OG3C61     9  0.000000e+00  2.510400e+00      3
  CG311   CG311   CG311  OG3C61     9  1.800000e+02  3.347200e-01      4
  CG311   CG311   CG311  OG3C61     9  1.800000e+02  7.949600e-01      1
  CG311   CG311   CG311  OG3C61     9  1.800000e+02  4.184000e+00      2
  CG311   CG311   CG321   CG311     9  0.000000e+00  8.368000e-01      3
  CG311   CG311   CG321   CG321     9  0.000000e+00  8.368000e-01      3
  CG311   CG311   CG321    HGA2     9  0.000000e+00  8.158800e-01      3
  CG311   CG311   CG321   OG301     9  1.800000e+02  8.368000e-01      3
  CG311   CG311   CG321   OG311     9  1.800000e+02  8.368000e-01      3
  CG311   CG311   OG301  CG3C50     9  0.000000e+00  1.882800e+00      3
  CG311   CG311   OG301   OG311     9  0.000000e+00  2.092000e+00      3
  CG311   CG311   OG301   OG311     9  1.800000e+02  4.602400e+00      1
  CG311   CG311   OG311    HGP1     9  0.000000e+00  7.531200e-01      2
  CG311   CG311   OG311    HGP1     9  0.000000e+00  1.924640e+00      3
  CG311   CG311   OG311    HGP1     9  0.000000e+00  5.564720e+00      1
  CG311   CG311  OG3C61   CG311     9  0.000000e+00  6.276000e-01      4
  CG311   CG311  OG3C61   CG311     9  0.000000e+00  2.845120e+00      2
  CG311   CG311  OG3C61   CG311     9  1.800000e+02  8.786400e-01      3
  CG311   CG311  OG3C61   CG311     9  1.800000e+02  2.217520e+00      1
  CG311   CG321   CG321   CG311     9  0.000000e+00  8.158800e-01      3
  CG311   CG321   CG321   CG321     9  0.000000e+00  2.092000e+00      3
  CG311   CG321   CG321   CG321     9  1.800000e+02  2.092000e+00      6
  CG311   CG321   CG321    HGA2     9  0.000000e+00  8.158800e-01      3
  CG311   CG321   CG321   OG301     9  0.000000e+00  1.631760e+00      2
  CG311   CG321   CG321   OG301     9  1.800000e+02  6.694400e-01      1
  CG311   CG321   CG321   OG311     9  0.000000e+00  8.158800e-01      3
  CG311   CG321   OG301   CG311     9  0.000000e+00  1.213360e+00      2
  CG311   CG321   OG301   CG311     9  0.000000e+00  1.799120e+00      3
  CG311   CG321   OG301   CG311     9  0.000000e+00  2.384880e+00      1
  CG311   CG321   OG301   CG321     9  0.000000e+00  1.213360e+00      2
  CG311   CG321   OG301   CG321     9  0.000000e+00  1.799120e+00      3
  CG311   CG321   OG301   CG321     9  0.000000e+00  2.384880e+00      1
  CG311   CG321   OG311    HGP1     9  0.000000e+00  5.857600e-01      2
  CG311   CG321   OG311    HGP1     9  0.000000e+00  1.004160e+00      3
  CG311   CG321   OG311    HGP1     9  0.000000e+00  4.727920e+00      1
  CG311   OG301   OG311    HGP1     9  0.000000e+00  5.020800e-01      3
  CG311   OG301   OG311    HGP1     9  0.000000e+00  1.673600e+00      1
  CG311   OG301   OG311    HGP1     9  0.000000e+00  4.811600e+00      2
  CG321   CG311   CG311   CG321     9  1.800000e+02  2.092000e+00      4
  CG321   CG311   CG311    HGA1     9  0.000000e+00  8.158800e-01      3
  CG321   CG311   CG311   OG311     9  0.000000e+00  5.857600e-01      3
  CG321   CG311   CG321   CG311     9  0.000000e+00  8.368000e-01      3
  CG321   CG311   CG321   CG321     9  0.000000e+00  8.368000e-01      3
  CG321   CG311   CG321    HGA2     9  0.000000e+00  8.158800e-01      1
  CG321   CG311   CG321   OG301     9  1.800000e+02  8.368000e-01      3
  CG321   CG311   CG321   OG311     9  1.800000e+02  8.368000e-01      3
  CG321   CG311  CG3C51    HGA1     9  0.000000e+00  8.158800e-01      3
  CG321   CG311   OG301   CG321     9  0.000000e+00  1.673600e+00      1
  CG321   CG311   OG301   CG321     9  0.000000e+00  2.050160e+00      3
  CG321   CG311   OG301  CG3C51     9  0.000000e+00  1.882800e+00      3
  CG321   CG311   OG301   OG311     9  0.000000e+00  2.092000e+00      3
  CG321   CG311   OG301   OG311     9  1.800000e+02  4.602400e+00      1
  CG321   CG311   OG311    HGP1     9  0.000000e+00  1.255200e+00      1
  CG321   CG311   OG311    HGP1     9  0.000000e+00  1.255200e+00      3
  CG321   CG311  OG3C61   CG311     9  0.000000e+00  6.276000e-01      4
  CG321   CG311  OG3C61   CG311     9  0.000000e+00  2.845120e+00      2
  CG321   CG311  OG3C61   CG311     9  1.800000e+02  8.786400e-01      3
  CG321   CG311  OG3C61   CG311     9  1.800000e+02  2.217520e+00      1
  CG321   CG311  OG3C61   CG321     9  0.000000e+00  6.276000e-01      4
  CG321   CG311  OG3C61   CG321     9  0.000000e+00  2.845120e+00      2
  CG321   CG311  OG3C61   CG321     9  1.800000e+02  8.786400e-01      3
  CG321   CG311  OG3C61   CG321     9  1.800000e+02  2.217520e+00      1
  CG321   CG321   CG321   CG321     9  0.000000e+00  2.698680e-01      2
  CG321   CG321   CG321   CG321     9  0.000000e+00  3.957227e-01      4
  CG321   CG321   CG321   CG321     9  0.000000e+00  4.707418e-01      5
  CG321   CG321   CG321   CG321     9  1.800000e+02  6.265540e-01      3
  CG321   CG321   CG321  CG3C50     9  0.000000e+00  1.673600e+00      3
  CG321   CG321   CG321    HGA2     9  0.000000e+00  8.158800e-01      3
  CG321   CG321   CG321   OG301     9  0.000000e+00  1.631760e+00      2
  CG321   CG321   CG321   OG301     9  1.800000e+02  6.694400e-01      1
  CG321   CG321   CG321   OG311     9  0.000000e+00  8.158800e-01      3
  CG321   CG321   CG321  OG3C61     9  0.000000e+00  2.510400e+00      3
  CG321   CG321   CG321  OG3C61     9  1.800000e+02  3.347200e-01      4
  CG321   CG321   CG321  OG3C61     9  1.800000e+02  7.949600e-01      1
  CG321   CG321   CG321  OG3C61     9  1.800000e+02  4.184000e+00      2
  CG321   CG321  CG3C50   CG321     9  0.000000e+00  1.673600e+00      3
  CG321   CG321  CG3C51    HGA1     9  0.000000e+00  8.158800e-01      3
  CG321   CG321  CG3C51  OG3C51     9  1.800000e+02  1.422560e+01      1
  CG321   CG321   OG301   CG311     9  0.000000e+00  1.213360e+00      2
  CG321   CG321   OG301   CG311     9  0.000000e+00  1.799120e+00      3
  CG321   CG321   OG301   CG311     9  0.000000e+00  2.384880e+00      1
  CG321   CG321   OG301   CG321     9  0.000000e+00  1.213360e+00      2
  CG321   CG321   OG301   CG321     9  0.000000e+00  1.799120e+00      3
  CG321   CG321   OG301   CG321     9  0.000000e+00  2.384880e+00      1
  CG321   CG321   OG311    HGP1     9  0.000000e+00  5.857600e-01      2
  CG321   CG321   OG311    HGP1     9  0.000000e+00  1.004160e+00      3
  CG321   CG321   OG311    HGP1     9  0.000000e+00  4.727920e+00      1
  CG321   CG321  OG3C61   CG311     9  0.000000e+00  6.276000e-01      4
  CG321   CG321  OG3C61   CG311     9  0.000000e+00  2.845120e+00      2
  CG321   CG321  OG3C61   CG311     9  1.800000e+02  8.786400e-01      3
  CG321   CG321  OG3C61   CG311     9  1.800000e+02  2.217520e+00      1
  CG321   CG321  OG3C61   CG321     9  0.000000e+00  6.276000e-01      4
  CG321   CG321  OG3C61   CG321     9  0.000000e+00  2.845120e+00      2
  CG321   CG321  OG3C61   CG321     9  1.800000e+02  8.786400e-01      3
  CG321   CG321  OG3C61   CG321     9  1.800000e+02  2.217520e+00      1
  CG321  CG3C50  CG3C51  CG3C51     9  0.000000e+00  7.949600e-01      3
  CG321  CG3C50  CG3C51    HGA1     9  0.000000e+00  7.949600e-01      3
  CG321  CG3C50  CG3C51   OG311     9  0.000000e+00  5.857600e-01      3
  CG321  CG3C50   OG301   CG311     9  0.000000e+00  1.255200e+00      3
  CG321  CG3C50   OG301   CG311     9  1.800000e+02  8.368000e-01      1
  CG321  CG3C50  OG3C51  CG3C51     9  0.000000e+00  1.255200e+00      3
  CG321  CG3C51  CG3C51  CG3C51     9  0.000000e+00  7.949600e-01      3
  CG321  CG3C51  CG3C51    HGA1     9  0.000000e+00  7.949600e-01      3
  CG321  CG3C51  CG3C51   OG311     9  0.000000e+00  5.857600e-01      3
  CG321  CG3C51  OG3C51  CG3C50     9  0.000000e+00  1.255200e+00      3
  CG321  CG3C51  OG3C51  CG3C50     9  0.000000e+00  1.255200e+00      3
  CG321  CG3C51  OG3C51  CG3C51     9  0.000000e+00  1.255200e+00      3
 CG3C50   CG321   CG321    HGA2     9  0.000000e+00  2.092000e+00      3
 CG3C50   CG321   OG311    HGP1     9  0.000000e+00  5.857600e-01      2
 CG3C50   CG321   OG311    HGP1     9  0.000000e+00  1.004160e+00      3
 CG3C50   CG321   OG311    HGP1     9  0.000000e+00  4.727920e+00      1
 CG3C50  CG3C51  CG3C51  CG3C51     9  1.800000e+02  1.715440e+00      3
 CG3C50  CG3C51  CG3C51    HGA1     9  0.000000e+00  7.949600e-01      3
 CG3C50  CG3C51  CG3C51   OG311     9  0.000000e+00  8.368000e-01      3
 CG3C50  CG3C51   OG311    HGP1     9  0.000000e+00  2.092000e-01      3
 CG3C50  CG3C51   OG311    HGP1     9  0.000000e+00  1.213360e+00      1
 CG3C50  CG3C51   OG311    HGP1     9  0.000000e+00  2.594080e+00      2
 CG3C51   CG311   CG321   CG321     9  0.000000e+00  8.368000e-01      3
 CG3C51   CG311   CG321    HGA2     9  0.000000e+00  8.158800e-01      3
 CG3C51   CG321   CG321    HGA2     9  0.000000e+00  2.092000e+00      3
 CG3C51   CG321   OG311    HGP1     9  0.000000e+00  5.857600e-01      2
 CG3C51   CG321   OG311    HGP1     9  0.000000e+00  1.004160e+00      3
 CG3C51   CG321   OG311    HGP1     9  0.000000e+00  4.727920e+00      1
 CG3C51  CG3C50   OG301   CG311     9  0.000000e+00  1.255200e+00      3
 CG3C51  CG3C50   OG301   CG311     9  1.800000e+02  8.368000e-01      1
 CG3C51  CG3C50  OG3C51  CG3C51     9  0.000000e+00  2.092000e+00      3
 CG3C51  CG3C51  CG3C51  CG3C51     9  1.800000e+02  1.715440e+00      3
 CG3C51  CG3C51  CG3C51    HGA1     9  0.000000e+00  7.949600e-01      3
 CG3C51  CG3C51  CG3C51   OG311     9  0.000000e+00  8.368000e-01      3
 CG3C51  CG3C51  CG3C51  OG3C51     9  0.000000e+00  0.000000e+00      3
 CG3C51  CG3C51   OG311    HGP1     9  0.000000e+00  2.092000e-01      3
 CG3C51  CG3C51   OG311    HGP1     9  0.000000e+00  1.213360e+00      1
 CG3C51  CG3C51   OG311    HGP1     9  0.000000e+00  2.594080e+00      2
 CG3C51  CG3C51  OG3C51  CG3C50     9  0.000000e+00  2.092000e+00      3
 CG3C51  CG3C51  OG3C51  CG3C51     9  0.000000e+00  2.092000e+00      3
   HGA1   CG311   CG311    HGA1     9  0.000000e+00  8.158800e-01      3
   HGA1   CG311   CG321   CG311     9  0.000000e+00  8.158800e-01      3
   HGA1   CG311   CG321   CG321     9  0.000000e+00  8.158800e-01      3
   HGA1   CG311   CG321    HGA2     9  0.000000e+00  8.158800e-01      3
   HGA1   CG311   CG321   OG301     9  0.000000e+00  8.158800e-01      3
   HGA1   CG311   CG321   OG311     9  0.000000e+00  8.158800e-01      3
   HGA1   CG311  CG3C51    HGA1     9  0.000000e+00  6.694400e-01      3
   HGA1   CG311   OG301   CG321     9  0.000000e+00  1.188256e+00      3
   HGA1   CG311   OG301  CG3C50     9  0.000000e+00  1.464400e+00      3
   HGA1   CG311   OG301  CG3C51     9  0.000000e+00  1.464400e+00      3
   HGA1   CG311   OG301   OG311     9  0.000000e+00  8.368000e-01      3
   HGA1   CG311   OG311    HGP1     9  0.000000e+00  0.000000e+00      3
   HGA1   CG311  OG3C61   CG311     9  0.000000e+00  8.158800e-01      3
   HGA1   CG311  OG3C61   CG321     9  0.000000e+00  8.158800e-01      3
   HGA1  CG3C51  CG3C51    HGA1     9  0.000000e+00  7.949600e-01      3
   HGA1  CG3C51   OG301   CG311     9  0.000000e+00  2.092000e+00      1
   HGA1  CG3C51   OG301   CG311     9  1.800000e+02  2.510400e+00      3
   HGA1  CG3C51   OG301  CG3C51     9  0.000000e+00  1.255200e+00      1
   HGA1  CG3C51   OG301  CG3C51     9  1.800000e+02  3.347200e+00      2
   HGA1  CG3C51   OG311    HGP1     9  0.000000e+00  7.531200e-01      3
   HGA1  CG3C51  OG3C51  CG3C50     9  0.000000e+00  1.255200e+00      3
   HGA1  CG3C51  OG3C51  CG3C50     9  0.000000e+00  1.255200e+00      3
   HGA1  CG3C51  OG3C51  CG3C51     9  0.000000e+00  1.255200e+00      3
   HGA2   CG321   CG321    HGA2     9  0.000000e+00  9.204800e-01      3
   HGA2   CG321  CG3C50   CG321     9  0.000000e+00  0.000000e+00      3
   HGA2   CG321  CG3C50  CG3C51     9  0.000000e+00  6.694400e-01      3
   HGA2   CG321  CG3C50   OG301     9  0.000000e+00  6.694400e-01      3
   HGA2   CG321  CG3C50  OG3C51     9  0.000000e+00  6.694400e-01      3
   HGA2   CG321  CG3C51  CG3C51     9  0.000000e+00  6.694400e-01      3
   HGA2   CG321  CG3C51    HGA1     9  0.000000e+00  6.694400e-01      3
   HGA2   CG321  CG3C51  OG3C51     9  0.000000e+00  6.694400e-01      3
   HGA2   CG321   OG301   CG311     9  0.000000e+00  1.188256e+00      3
   HGA2   CG321   OG301   CG321     9  0.000000e+00  1.188256e+00      3
   HGA2   CG321   OG311    HGP1     9  0.000000e+00  7.531200e-01      3
   HGA2   CG321  OG3C61   CG311     9  0.000000e+00  8.158800e-01      3
   HGA2   CG321  OG3C61   CG321     9  0.000000e+00  8.158800e-01      3
  OG301   CG311   CG311    HGA1     9  0.000000e+00  8.158800e-01      3
  OG301   CG311   CG311   OG311     9  0.000000e+00  8.368000e-01      3
  OG301   CG311   CG321   CG311     9  0.000000e+00  1.631760e+00      2
  OG301   CG311   CG321   CG311     9  1.800000e+02  6.694400e-01      1
  OG301   CG311   CG321   CG321     9  0.000000e+00  1.631760e+00      2
  OG301   CG311   CG321   CG321     9  1.800000e+02  6.694400e-01      1
  OG301   CG311   CG321    HGA2     9  0.000000e+00  8.158800e-01      3
  OG301   CG311   CG321   OG301     9  0.000000e+00  8.368000e-01      3
  OG301   CG311   CG321   OG311     9  0.000000e+00  8.368000e-01      3
  OG301   CG311   OG311    HGP1     9  0.000000e+00  4.476880e+00      3
  OG301   CG311   OG311    HGP1     9  0.000000e+00  4.895280e+00      2
  OG301   CG311   OG311    HGP1     9  0.000000e+00  6.485200e+00      1
  OG301   CG311  OG3C61   CG311     9  0.000000e+00  8.368000e-01      3
  OG301   CG311  OG3C61   CG321     9  0.000000e+00  8.368000e-01      3
  OG301   CG321   CG321    HGA2     9  0.000000e+00  7.949600e-01      3
  OG301   CG321   CG321   OG301     9  0.000000e+00  5.188160e+00      2
  OG301   CG321   CG321   OG301     9  1.800000e+02  1.046000e+00      1
  OG301   CG321   CG321   OG311     9  0.000000e+00  5.188160e+00      2
  OG301   CG321   CG321   OG311     9  1.800000e+02  1.046000e+00      1
  OG301   CG321  CG3C51    HGA1     9  0.000000e+00  8.158800e-01      3
  OG301  CG3C50  CG3C51  CG3C51     9  0.000000e+00  1.673600e+00      5
  OG301  CG3C50  CG3C51  CG3C51     9  0.000000e+00  3.347200e+00      6
  OG301  CG3C50  CG3C51  CG3C51     9  1.800000e+02  8.368000e+00      3
  OG301  CG3C50  CG3C51    HGA1     9  0.000000e+00  8.158800e-01      3
  OG301  CG3C50  CG3C51   OG311     9  0.000000e+00  0.000000e+00      3
  OG301  CG3C50  OG3C51  CG3C51     9  0.000000e+00  7.949600e+00      3
  OG301  CG3C50  OG3C51  CG3C51     9  0.000000e+00  1.338880e+01      2
  OG301  CG3C50  OG3C51  CG3C51     9  1.800000e+02  4.184000e+00      4
  OG301  CG3C51  CG3C51    HGA1     9  0.000000e+00  8.158800e-01      3
  OG301  CG3C51  CG3C51   OG311     9  0.000000e+00  0.000000e+00      3
  OG301  CG3C51  OG3C51  CG3C51     9  0.000000e+00  7.949600e+00      3
  OG301  CG3C51  OG3C51  CG3C51     9  0.000000e+00  1.338880e+01      2
  OG301  CG3C51  OG3C51  CG3C51     9  1.800000e+02  4.184000e+00      4
  OG311   CG311   CG311    HGA1     9  0.000000e+00  8.158800e-01      3
  OG311   CG311   CG311   OG311     9  0.000000e+00  8.368000e-01      3
  OG311   CG311   CG311  OG3C61     9  0.000000e+00  8.368000e-01      3
  OG311   CG311   CG321   CG311     9  0.000000e+00  1.673600e+00      5
  OG311   CG311   CG321   CG311     9  0.000000e+00  3.347200e+00      6
  OG311   CG311   CG321   CG311     9  1.800000e+02  8.368000e+00      3
  OG311   CG311   CG321   CG321     9  0.000000e+00  1.673600e+00      3
  OG311   CG311   CG321   CG321     9  0.000000e+00  1.673600e+00      5
  OG311   CG311   CG321   CG321     9  0.000000e+00  2.928800e+00      2
  OG311   CG311   CG321   CG321     9  1.800000e+02  2.092000e+00      1
  OG311   CG311   CG321    HGA2     9  1.800000e+02  8.158800e-01      3
  OG311   CG311   CG321   OG301     9  0.000000e+00  8.368000e-01      3
  OG311   CG311   CG321   OG311     9  0.000000e+00  8.368000e-01      3
  OG311   CG311   OG301   CG321     9  0.000000e+00  2.092000e-01      3
  OG311   CG311   OG301   CG321     9  0.000000e+00  3.723760e+00      2
  OG311   CG311   OG301   CG321     9  1.800000e+02  1.715440e+00      1
  OG311   CG311   OG311    HGP1     9  0.000000e+00  1.163570e+00      3
  OG311   CG311   OG311    HGP1     9  0.000000e+00  4.413702e+00      2
  OG311   CG311   OG311    HGP1     9  0.000000e+00  7.673038e+00      1
  OG311   CG321   CG321    HGA2     9  0.000000e+00  8.158800e-01      3
  OG311   CG321   CG321   OG311     9  0.000000e+00  8.368000e-01      3
  OG311   CG321  CG3C50  CG3C51     9  0.000000e+00  1.673600e+00      2
  OG311   CG321  CG3C50  CG3C51     9  1.800000e+02  8.368000e-01      4
  OG311   CG321  CG3C50  CG3C51     9  1.800000e+02  3.347200e+00      3
  OG311   CG321  CG3C50  CG3C51     9  1.800000e+02  1.046000e+01      1
  OG311   CG321  CG3C50   OG301     9  1.800000e+02  1.422560e+01      1
  OG311   CG321  CG3C50  OG3C51     9  1.800000e+02  1.422560e+01      1
  OG311   CG321  CG3C51  CG3C51     9  0.000000e+00  1.673600e+00      2
  OG311   CG321  CG3C51  CG3C51     9  1.800000e+02  8.368000e-01      4
  OG311   CG321  CG3C51  CG3C51     9  1.800000e+02  3.347200e+00      3
  OG311   CG321  CG3C51  CG3C51     9  1.800000e+02  1.046000e+01      1
  OG311   CG321  CG3C51    HGA1     9  0.000000e+00  8.158800e-01      3
  OG311   CG321  CG3C51  OG3C51     9  1.800000e+02  1.422560e+01      1
  OG311  CG3C51  CG3C51    HGA1     9  0.000000e+00  8.158800e-01      3
  OG311  CG3C51  CG3C51   OG311     9  0.000000e+00  0.000000e+00      3
  OG311  CG3C51  CG3C51  OG3C51     9  0.000000e+00  8.368000e-01      3
  OG311  CG3C51  CG3C51  OG3C51     9  0.000000e+00  1.255200e+00      5
  OG311  CG3C51  CG3C51  OG3C51     9  0.000000e+00  2.092000e+00      6
  OG311  CG3C51  CG3C51  OG3C51     9  1.800000e+02  2.510400e+00      4
 OG3C51  CG3C50  CG3C51  CG3C51     9  0.000000e+00  0.000000e+00      3
 OG3C51  CG3C50  CG3C51    HGA1     9  0.000000e+00  7.949600e-01      3
 OG3C51  CG3C50  CG3C51   OG311     9  0.000000e+00  8.368000e-01      3
 OG3C51  CG3C50  CG3C51   OG311     9  0.000000e+00  1.255200e+00      5
 OG3C51  CG3C50  CG3C51   OG311     9  0.000000e+00  2.092000e+00      6
 OG3C51  CG3C50  CG3C51   OG311     9  1.800000e+02  2.510400e+00      4
 OG3C51  CG3C50   OG301   CG311     9  0.000000e+00  8.368000e-01      3
 OG3C51  CG3C50   OG301   CG311     9  0.000000e+00  2.510400e+00      2
 OG3C51  CG3C50  OG3C51  CG3C51     9  1.800000e+02  6.903600e+00      3
 OG3C51  CG3C51  CG3C51    HGA1     9  0.000000e+00  7.949600e-01      3
 OG3C51  CG3C51   OG301  CG3C51     9  0.000000e+00  8.368000e-01      3
 OG3C51  CG3C51   OG301  CG3C51     9  0.000000e+00  2.510400e+00      2
 OG3C61   CG311   CG311    HGA1     9  0.000000e+00  8.158800e-01      3
 OG3C61   CG311   CG321   CG321     9  0.000000e+00  2.510400e+00      3
 OG3C61   CG311   CG321   CG321     9  1.800000e+02  3.347200e-01      4
 OG3C61   CG311   CG321   CG321     9  1.800000e+02  7.949600e-01      1
 OG3C61   CG311   CG321   CG321     9  1.800000e+02  4.184000e+00      2
 OG3C61   CG311   CG321    HGA2     9  0.000000e+00  8.158800e-01      3
 OG3C61   CG311   CG321   OG311     9  0.000000e+00  8.158800e-01      3
 OG3C61   CG311   OG301  CG3C50     9  0.000000e+00  1.464400e+00      3
 OG3C61   CG311   OG301  CG3C50     9  0.000000e+00  3.389040e+00      2
 OG3C61   CG311   OG301  CG3C50     9  0.000000e+00  3.430880e+00      1
 OG3C61   CG311   OG301  CG3C51     9  0.000000e+00  1.464400e+00      3
 OG3C61   CG311   OG301  CG3C51     9  0.000000e+00  3.389040e+00      2
 OG3C61   CG311   OG301  CG3C51     9  0.000000e+00  3.430880e+00      1
 OG3C61   CG321   CG321    HGA2     9  0.000000e+00  8.158800e-01      3
 OG3C61   CG321   CG321  OG3C61     9  0.000000e+00  8.158800e-01      3
 OG3C61   CG321  OG3C61   CG321     9  0.000000e+00  4.184000e+00      3
